;;
;; Generated by CHARMM-GUI (http://www.charmm-gui.org) v1.7
;;
;; psf2itp_mol.py
;;
;; Correspondance:
;; jul316@lehigh.edu or wonpil@lehigh.edu
;;
;; GROMACS topology file for DOX
;;


[ moleculetype ]
; name	nrexcl
DOX	     3

[ atoms ]
; nr	type	resnr	residu	atom	cgnr	charge	mass
     1      CG331      1      DOX     C1      1     -0.205    12.0110   ; qtot -0.205
     2      CG311      1      DOX     C2      2      0.087    12.0110   ; qtot -0.118
     3      CG311      1      DOX     C3      3      0.077    12.0110   ; qtot -0.041
     4      CG311      1      DOX     C4      4      0.127    12.0110   ; qtot  0.086
     5      CG321      1      DOX     C5      5     -0.173    12.0110   ; qtot -0.087
     6      CG311      1      DOX     C6      6      0.174    12.0110   ; qtot  0.087
     7     OG3C61      1      DOX     O1      7     -0.374    15.9994   ; qtot -0.287
     8      OG301      1      DOX     O2      8     -0.377    15.9994   ; qtot -0.664
     9      CG311      1      DOX     C7      9      0.090    12.0110   ; qtot -0.574
    10      CG321      1      DOX     C8     10     -0.149    12.0110   ; qtot -0.723
    11      CG301      1      DOX     C9     11      0.482    12.0110   ; qtot -0.241
    12      CG321      1      DOX    C10     12     -0.167    12.0110   ; qtot -0.408
    13     CG2R61      1      DOX    C11     13     -0.008    12.0110   ; qtot -0.416
    14     CG2R61      1      DOX    C12     14     -0.011    12.0110   ; qtot -0.427
    15     CG2R61      1      DOX    C13     15      0.111    12.0110   ; qtot -0.316
    16     CG2R61      1      DOX    C14     16      0.130    12.0110   ; qtot -0.186
    17     CG2R61      1      DOX    C15     17      0.132    12.0110   ; qtot -0.054
    18     CG2R61      1      DOX    C16     18      0.098    12.0110   ; qtot  0.044
    19      OG311      1      DOX     O3     19     -0.543    15.9994   ; qtot -0.499
    20      CG2O5      1      DOX    C17     20      0.188    12.0110   ; qtot -0.311
    21      OG2D3      1      DOX     O4     21     -0.448    15.9994   ; qtot -0.759
    22     CG2R61      1      DOX    C18     22      0.130    12.0110   ; qtot -0.629
    23     CG2R61      1      DOX    C19     23      0.279    12.0110   ; qtot -0.350
    24      CG2O5      1      DOX    C20     24      0.175    12.0110   ; qtot -0.175
    25      OG2D3      1      DOX     O5     25     -0.448    15.9994   ; qtot -0.623
    26     CG2R61      1      DOX    C21     26     -0.184    12.0110   ; qtot -0.807
    27     CG2R61      1      DOX    C22     27     -0.116    12.0110   ; qtot -0.923
    28     CG2R61      1      DOX    C23     28     -0.108    12.0110   ; qtot -1.031
    29     CG2R61      1      DOX    C24     29     -0.116    12.0110   ; qtot -1.147
    30      OG301      1      DOX     O6     30     -0.132    15.9994   ; qtot -1.279
    31      CG331      1      DOX    C25     31     -0.094    12.0110   ; qtot -1.373
    32      OG311      1      DOX     O7     32     -0.543    15.9994   ; qtot -1.916
    33      CG2O5      1      DOX    C26     33      0.243    12.0110   ; qtot -1.673
    34      OG2D3      1      DOX     O8     34     -0.452    15.9994   ; qtot -2.125
    35      CG321      1      DOX    C27     35      0.090    12.0110   ; qtot -2.035
    36      OG311      1      DOX     O9     36     -0.593    15.9994   ; qtot -2.628
    37      OG311      1      DOX    O10     37     -0.599    15.9994   ; qtot -3.227
    38      NG321      1      DOX      N     38     -0.989    14.0070   ; qtot -4.216
    39      OG311      1      DOX    O11     39     -0.636    15.9994   ; qtot -4.852
    40       HGA3      1      DOX     H1     40      0.090     1.0080   ; qtot -4.762
    41       HGA3      1      DOX     H2     41      0.090     1.0080   ; qtot -4.672
    42       HGA3      1      DOX     H3     42      0.090     1.0080   ; qtot -4.582
    43       HGA1      1      DOX     H4     43      0.090     1.0080   ; qtot -4.492
    44       HGA1      1      DOX     H5     44      0.090     1.0080   ; qtot -4.402
    45       HGA1      1      DOX     H6     45      0.090     1.0080   ; qtot -4.312
    46       HGA2      1      DOX     H7     46      0.090     1.0080   ; qtot -4.222
    47       HGA2      1      DOX     H8     47      0.090     1.0080   ; qtot -4.132
    48       HGA1      1      DOX     H9     48      0.090     1.0080   ; qtot -4.042
    49       HGA1      1      DOX    H10     49      0.090     1.0080   ; qtot -3.952
    50       HGA2      1      DOX    H11     50      0.090     1.0080   ; qtot -3.862
    51       HGA2      1      DOX    H12     51      0.090     1.0080   ; qtot -3.772
    52       HGA2      1      DOX    H13     52      0.090     1.0080   ; qtot -3.682
    53       HGA2      1      DOX    H14     53      0.090     1.0080   ; qtot -3.592
    54       HGP1      1      DOX    H15     54      0.421     1.0080   ; qtot -3.171
    55      HGR61      1      DOX    H16     55      0.116     1.0080   ; qtot -3.055
    56      HGR61      1      DOX    H17     56      0.116     1.0080   ; qtot -2.939
    57      HGR61      1      DOX    H18     57      0.116     1.0080   ; qtot -2.823
    58       HGA3      1      DOX    H19     58      0.090     1.0080   ; qtot -2.733
    59       HGA3      1      DOX    H20     59      0.090     1.0080   ; qtot -2.643
    60       HGA3      1      DOX    H21     60      0.090     1.0080   ; qtot -2.553
    61       HGP1      1      DOX    H22     61      0.421     1.0080   ; qtot -2.132
    62       HGA2      1      DOX    H23     62      0.090     1.0080   ; qtot -2.042
    63       HGA2      1      DOX    H24     63      0.090     1.0080   ; qtot -1.952
    64       HGP1      1      DOX    H25     64      0.391     1.0080   ; qtot -1.561
    65       HGP1      1      DOX    H26     65      0.361     1.0080   ; qtot -1.200
    66     HGPAM2      1      DOX    H27     66      0.389     1.0080   ; qtot -0.811
    67     HGPAM2      1      DOX    H28     67      0.389     1.0080   ; qtot -0.422
    68       HGP1      1      DOX    H29     68      0.422     1.0080   ; qtot -0.000

[ bonds ]
; ai	aj	funct	b0	Kb
    1     2     1
    1    40     1
    1    41     1
    1    42     1
    2     3     1
    2     7     1
    2    43     1
    3     4     1
    3    39     1
    3    44     1
    4     5     1
    4    38     1
    4    45     1
    5     6     1
    5    46     1
    5    47     1
    6     7     1
    6     8     1
    6    48     1
    8     9     1
    9    10     1
    9    14     1
    9    49     1
   10    11     1
   10    50     1
   10    51     1
   11    12     1
   11    33     1
   11    37     1
   12    13     1
   12    52     1
   12    53     1
   13    14     1
   13    18     1
   14    15     1
   15    16     1
   15    32     1
   16    17     1
   16    24     1
   17    18     1
   17    20     1
   18    19     1
   19    54     1
   20    21     1
   20    22     1
   22    23     1
   22    29     1
   23    24     1
   23    26     1
   24    25     1
   26    27     1
   26    30     1
   27    28     1
   27    55     1
   28    29     1
   28    56     1
   29    57     1
   30    31     1
   31    58     1
   31    59     1
   31    60     1
   32    61     1
   33    34     1
   33    35     1
   35    36     1
   35    62     1
   35    63     1
   36    64     1
   37    65     1
   38    66     1
   38    67     1
   39    68     1

[ pairs ]
; ai	aj	funct	c6	c12
    1     4     1 
    1     6     1 
    1    39     1 
    1    44     1 
    2     5     1 
    2     8     1 
    2    38     1 
    2    45     1 
    2    48     1 
    2    68     1 
    3     6     1 
    3    40     1 
    3    41     1 
    3    42     1 
    3    46     1 
    3    47     1 
    3    66     1 
    3    67     1 
    4     7     1 
    4     8     1 
    4    43     1 
    4    48     1 
    4    68     1 
    5     9     1 
    5    39     1 
    5    44     1 
    5    66     1 
    5    67     1 
    6    10     1 
    6    14     1 
    6    38     1 
    6    43     1 
    6    45     1 
    6    49     1 
    7     9     1 
    7    39     1 
    7    40     1 
    7    41     1 
    7    42     1 
    7    44     1 
    7    46     1 
    7    47     1 
    8    11     1 
    8    13     1 
    8    15     1 
    8    46     1 
    8    47     1 
    8    50     1 
    8    51     1 
    9    12     1 
    9    16     1 
    9    18     1 
    9    32     1 
    9    33     1 
    9    37     1 
    9    48     1 
   10    13     1 
   10    15     1 
   10    34     1 
   10    35     1 
   10    52     1 
   10    53     1 
   10    65     1 
   11    14     1 
   11    18     1 
   11    36     1 
   11    49     1 
   11    62     1 
   11    63     1 
   12    15     1 
   12    17     1 
   12    19     1 
   12    34     1 
   12    35     1 
   12    50     1 
   12    51     1 
   12    65     1 
   13    16     1 
   13    20     1 
   13    32     1 
   13    33     1 
   13    37     1 
   13    49     1 
   13    54     1 
   14    17     1 
   14    19     1 
   14    24     1 
   14    50     1 
   14    51     1 
   14    52     1 
   14    53     1 
   14    61     1 
   15    18     1 
   15    20     1 
   15    23     1 
   15    25     1 
   15    49     1 
   16    19     1 
   16    21     1 
   16    22     1 
   16    26     1 
   16    61     1 
   17    23     1 
   17    25     1 
   17    29     1 
   17    32     1 
   17    54     1 
   18    21     1 
   18    22     1 
   18    24     1 
   18    52     1 
   18    53     1 
   19    20     1 
   20    24     1 
   20    26     1 
   20    28     1 
   20    57     1 
   21    23     1 
   21    29     1 
   22    25     1 
   22    27     1 
   22    30     1 
   22    56     1 
   23    28     1 
   23    31     1 
   23    55     1 
   23    57     1 
   24    27     1 
   24    29     1 
   24    30     1 
   24    32     1 
   25    26     1 
   26    29     1 
   26    56     1 
   26    58     1 
   26    59     1 
   26    60     1 
   27    31     1 
   27    57     1 
   28    30     1 
   29    55     1 
   30    55     1 
   33    50     1 
   33    51     1 
   33    52     1 
   33    53     1 
   33    64     1 
   33    65     1 
   34    36     1 
   34    37     1 
   34    62     1 
   34    63     1 
   35    37     1 
   37    50     1 
   37    51     1 
   37    52     1 
   37    53     1 
   38    39     1 
   38    44     1 
   38    46     1 
   38    47     1 
   39    43     1 
   39    45     1 
   40    43     1 
   41    43     1 
   42    43     1 
   43    44     1 
   44    45     1 
   44    68     1 
   45    46     1 
   45    47     1 
   45    66     1 
   45    67     1 
   46    48     1 
   47    48     1 
   49    50     1 
   49    51     1 
   55    56     1 
   56    57     1 
   62    64     1 
   63    64     1 

[ angles ] 
; ai	aj	ak	funct	th0	cth	S0	Kub
    2     1    40     5
    2     1    41     5
    2     1    42     5
   40     1    41     5
   40     1    42     5
   41     1    42     5
    1     2     3     5
    1     2     7     5
    1     2    43     5
    3     2     7     5
    3     2    43     5
    7     2    43     5
    2     3     4     5
    2     3    39     5
    2     3    44     5
    4     3    39     5
    4     3    44     5
   39     3    44     5
    3     4     5     5
    3     4    38     5
    3     4    45     5
    5     4    38     5
    5     4    45     5
   38     4    45     5
    4     5     6     5
    4     5    46     5
    4     5    47     5
    6     5    46     5
    6     5    47     5
   46     5    47     5
    5     6     7     5
    5     6     8     5
    5     6    48     5
    7     6     8     5
    7     6    48     5
    8     6    48     5
    2     7     6     5
    6     8     9     5
    8     9    10     5
    8     9    14     5
    8     9    49     5
   10     9    14     5
   10     9    49     5
   14     9    49     5
    9    10    11     5
    9    10    50     5
    9    10    51     5
   11    10    50     5
   11    10    51     5
   50    10    51     5
   10    11    12     5
   10    11    33     5
   10    11    37     5
   12    11    33     5
   12    11    37     5
   33    11    37     5
   11    12    13     5
   11    12    52     5
   11    12    53     5
   13    12    52     5
   13    12    53     5
   52    12    53     5
   12    13    14     5
   12    13    18     5
   14    13    18     5
    9    14    13     5
    9    14    15     5
   13    14    15     5
   14    15    16     5
   14    15    32     5
   16    15    32     5
   15    16    17     5
   15    16    24     5
   17    16    24     5
   16    17    18     5
   16    17    20     5
   18    17    20     5
   13    18    17     5
   13    18    19     5
   17    18    19     5
   18    19    54     5
   17    20    21     5
   17    20    22     5
   21    20    22     5
   20    22    23     5
   20    22    29     5
   23    22    29     5
   22    23    24     5
   22    23    26     5
   24    23    26     5
   16    24    23     5
   16    24    25     5
   23    24    25     5
   23    26    27     5
   23    26    30     5
   27    26    30     5
   26    27    28     5
   26    27    55     5
   28    27    55     5
   27    28    29     5
   27    28    56     5
   29    28    56     5
   22    29    28     5
   22    29    57     5
   28    29    57     5
   26    30    31     5
   30    31    58     5
   30    31    59     5
   30    31    60     5
   58    31    59     5
   58    31    60     5
   59    31    60     5
   15    32    61     5
   11    33    34     5
   11    33    35     5
   34    33    35     5
   33    35    36     5
   33    35    62     5
   33    35    63     5
   36    35    62     5
   36    35    63     5
   62    35    63     5
   35    36    64     5
   11    37    65     5
    4    38    66     5
    4    38    67     5
   66    38    67     5
    3    39    68     5

[ dihedrals ]
; ai	aj	ak	al	funct	phi0	cp	mult
   40     1     2    43     9
   41     1     2    43     9
   42     1     2    43     9
    3     2     1    40     9
    3     2     1    41     9
    3     2     1    42     9
    7     2     1    40     9
    7     2     1    41     9
    7     2     1    42     9
    1     2     3     4     9
    1     2     3    39     9
    1     2     3    44     9
    7     2     3    39     9
    7     2     3    44     9
   43     2     3    44     9
    1     2     7     6     9
    3     2     7     6     9
    4     3     2     7     9
    4     3     2    43     9
   39     3     2    43     9
    2     3     4     5     9
    2     3     4    38     9
    2     3     4    45     9
   39     3     4    45     9
   44     3     4    45     9
    2     3    39    68     9
    4     3    39    68     9
   44     3    39    68     9
    5     4     3    39     9
    5     4     3    44     9
   38     4     3    39     9
   38     4     3    44     9
    3     4     5     6     9
    3     4     5    46     9
    3     4     5    47     9
   38     4     5    46     9
   38     4     5    47     9
   45     4     5    46     9
   45     4     5    47     9
    3     4    38    66     9
    3     4    38    67     9
    5     4    38    66     9
    5     4    38    67     9
   45     4    38    66     9
   45     4    38    67     9
    6     5     4    38     9
    6     5     4    45     9
    4     5     6     7     9
    4     5     6     8     9
    4     5     6    48     9
   46     5     6    48     9
   47     5     6    48     9
    7     6     5    46     9
    7     6     5    47     9
    8     6     5    46     9
    8     6     5    47     9
    5     6     8     9     9
    7     6     8     9     9
    6     7     2    43     9
    2     7     6     5     9
    2     7     6     8     9
    2     7     6    48     9
    9     8     6    48     9
    6     8     9    10     9
    6     8     9    14     9
    6     8     9    49     9
    8     9    10    11     9
    8     9    10    50     9
    8     9    10    51     9
   14     9    10    50     9
   14     9    10    51     9
   49     9    10    50     9
   49     9    10    51     9
    8     9    14    13     9
    8     9    14    15     9
   10     9    14    13     9
   10     9    14    15     9
   11    10     9    14     9
   11    10     9    49     9
    9    10    11    12     9
    9    10    11    33     9
    9    10    11    37     9
   12    11    10    50     9
   12    11    10    51     9
   33    11    10    50     9
   33    11    10    51     9
   37    11    10    50     9
   37    11    10    51     9
   10    11    12    13     9
   10    11    12    52     9
   10    11    12    53     9
   33    11    12    52     9
   33    11    12    53     9
   37    11    12    52     9
   37    11    12    53     9
   10    11    33    34     9
   10    11    33    35     9
   12    11    33    34     9
   12    11    33    35     9
   10    11    37    65     9
   12    11    37    65     9
   33    11    37    65     9
   13    12    11    33     9
   13    12    11    37     9
   11    12    13    14     9
   11    12    13    18     9
   14    13    12    52     9
   14    13    12    53     9
   18    13    12    52     9
   18    13    12    53     9
   12    13    14    15     9
   12    13    18    17     9
   12    13    18    19     9
   14    13    18    17     9
   14    13    18    19     9
   13    14     9    49     9
   15    14     9    49     9
    9    14    13    12     9
    9    14    13    18     9
   15    14    13    18     9
    9    14    15    16     9
    9    14    15    32     9
   13    14    15    16     9
   13    14    15    32     9
   14    15    16    17     9
   14    15    16    24     9
   14    15    32    61     9
   16    15    32    61     9
   17    16    15    32     9
   24    16    15    32     9
   15    16    17    18     9
   15    16    17    20     9
   15    16    24    23     9
   15    16    24    25     9
   17    16    24    23     9
   17    16    24    25     9
   18    17    16    24     9
   20    17    16    24     9
   16    17    18    19     9
   16    17    20    21     9
   16    17    20    22     9
   18    17    20    21     9
   18    17    20    22     9
   13    18    17    16     9
   13    18    17    20     9
   19    18    17    20     9
   13    18    19    54     9
   17    18    19    54     9
   17    20    22    23     9
   17    20    22    29     9
   21    20    22    23     9
   21    20    22    29     9
   20    22    23    24     9
   20    22    23    26     9
   20    22    29    28     9
   20    22    29    57     9
   23    22    29    28     9
   23    22    29    57     9
   24    23    22    29     9
   26    23    22    29     9
   22    23    24    25     9
   22    23    26    27     9
   22    23    26    30     9
   24    23    26    27     9
   24    23    26    30     9
   16    24    23    22     9
   16    24    23    26     9
   25    24    23    26     9
   23    26    27    28     9
   23    26    27    55     9
   30    26    27    55     9
   23    26    30    31     9
   27    26    30    31     9
   28    27    26    30     9
   26    27    28    29     9
   26    27    28    56     9
   55    27    28    56     9
   29    28    27    55     9
   27    28    29    57     9
   56    28    29    57     9
   22    29    28    27     9
   22    29    28    56     9
   26    30    31    58     9
   26    30    31    59     9
   26    30    31    60     9
   34    33    11    37     9
   35    33    11    37     9
   11    33    35    36     9
   11    33    35    62     9
   11    33    35    63     9
   34    33    35    36     9
   34    33    35    62     9
   34    33    35    63     9
   33    35    36    64     9
   62    35    36    64     9
   63    35    36    64     9

[ dihedrals ]
; ai	aj	ak	al	funct	q0	cq
   20    17    22    21     2
   24    23    16    25     2
   33    11    35    34     2
