; parameters for DOX that data/toppar/forcefield.itp does not carry.
; new atom types: CG2O5 CG301 HGPAM2 NG321 OG2D3 OG3C61
; a line is here only because it mentions one of them, so nothing the
; polymer already defines is redefined.

[ atomtypes ]
   CG2O5     6    12.0110      0.188     A    3.56359487256e-01    3.765600e-01
   CG301     6    12.0110      0.482     A    3.56359487256e-01    1.338880e-01 ;   3.38541512893e-01    4.184000e-02
  HGPAM2     1     1.0080      0.389     A    1.55907275675e-01    4.184000e-02
   NG321     7    14.0070     -0.989     A    3.54577689820e-01    2.510400e-01
   OG2D3     8    15.9994     -0.448     A    3.02905564168e-01    2.092000e-01 ;   2.49451641079e-01    5.020800e-01
  OG3C61     8    15.9994     -0.374     A    2.93996576986e-01    4.184000e-01

[ bondtypes ]
  CG2O5   CG2O5     1  1.502600e-01  1.931753e+05
  CG2O5  CG2R61     1  1.460000e-01  2.125472e+05
  CG2O5   CG301     1  1.500000e-01  2.761440e+05
  CG2O5   CG311     1  1.500000e-01  2.761440e+05
  CG2O5   CG321     1  1.500000e-01  2.761440e+05
  CG2O5   CG331     1  1.500000e-01  2.761440e+05
  CG2O5   OG2D3     1  1.230000e-01  5.857600e+05
 CG2R61   CG301     1  1.490000e-01  1.924640e+05
 CG2R61   CG311     1  1.490000e-01  1.924640e+05
 CG2R61   CG321     1  1.490000e-01  1.924640e+05
 CG2R61   CG331     1  1.490000e-01  1.924640e+05
 CG2R61   OG301     1  1.382000e-01  1.924640e+05
 CG2R61   OG311     1  1.411000e-01  2.797422e+05
  CG301   CG301     1  1.500000e-01  1.861880e+05
  CG301   CG311     1  1.500000e-01  1.861880e+05
  CG301   CG321     1  1.538000e-01  1.861880e+05
  CG301   CG331     1  1.538000e-01  1.861880e+05
  CG301   NG321     1  1.474000e-01  2.200784e+05
  CG301   OG301     1  1.415000e-01  3.012480e+05
  CG301   OG311     1  1.420000e-01  3.581504e+05
  CG301  OG3C61     1  1.415000e-01  3.012480e+05
  CG311   CG311     1  1.500000e-01  1.861880e+05
  CG311    HGA3     1  1.111000e-01  2.694496e+05
  CG311   NG321     1  1.474000e-01  2.200784e+05
  CG311   OG311     1  1.420000e-01  3.581504e+05
  CG311  OG3C61     1  1.415000e-01  3.012480e+05
  CG321   CG331     1  1.528000e-01  1.861880e+05
  CG321   NG321     1  1.474000e-01  2.200784e+05
  CG321  OG3C61     1  1.415000e-01  3.012480e+05
  CG331   CG331     1  1.530000e-01  1.861880e+05
  CG331   OG301     1  1.415000e-01  3.012480e+05
  CG331   OG311     1  1.420000e-01  3.581504e+05
  NG321    HGP1     1  1.020000e-01  3.799072e+05
  NG321  HGPAM2     1  1.014000e-01  3.791541e+05
  NG321   OG301     1  1.447100e-01  2.350822e+05
  OG301   OG311     1  1.513000e-01  1.395782e+05

[ pairtypes ]
  CG2O5   CG301     1  3.47450500075e-01  1.25520000000e-01
  CG2O5   CG311     1  3.47450500075e-01  1.25520000000e-01
  CG2O5   CG321     1  3.47450500075e-01  1.25520000000e-01
  CG2O5   CG331     1  3.47450500075e-01  1.25520000000e-01
  CG2O5   OG2D3     1  3.02905564168e-01  4.34814034732e-01
 CG2R61   CG301     1  3.46773417049e-01  1.10698234855e-01
 CG2R61   CG311     1  3.46773417049e-01  1.10698234855e-01
 CG2R61   CG321     1  3.46773417049e-01  1.10698234855e-01
 CG2R61   CG331     1  3.46773417049e-01  1.10698234855e-01
 CG2R61   OG2D3     1  3.02228481142e-01  3.83469934154e-01
  CG301   CG301     1  3.38541512893e-01  4.18400000000e-02
  CG301   CG311     1  3.38541512893e-01  4.18400000000e-02
  CG301   CG321     1  3.38541512893e-01  4.18400000000e-02
  CG301   CG331     1  3.38541512893e-01  4.18400000000e-02
  CG301    HGA1     1  2.88651184677e-01  8.87560431745e-02
  CG301    HGA2     1  2.88651184677e-01  7.82754725313e-02
  CG301    HGA3     1  2.88651184677e-01  6.48182492821e-02
  CG301    HGP1     1  1.89271432669e-01  8.97368027066e-02
  CG301  HGPAM2     1  2.47224394284e-01  4.18400000000e-02
  CG301   HGR61     1  2.90272620344e-01  7.24690057887e-02
  CG301   NG321     1  3.46559601357e-01  1.02486650838e-01
  CG301   OG2D3     1  2.93996576986e-01  1.44938011577e-01
  CG301   OG301     1  3.16269044940e-01  1.32309697301e-01
  CG301   OG311     1  3.26514380198e-01  1.83381431383e-01
  CG301  OG3C61     1  3.16269044940e-01  1.32309697301e-01
  CG311  HGPAM2     1  2.47224394284e-01  4.18400000000e-02
  CG311   HGR61     1  2.90272620344e-01  7.24690057887e-02
  CG311   NG321     1  3.46559601357e-01  1.02486650838e-01
  CG311   OG2D3     1  2.93996576986e-01  1.44938011577e-01
  CG311  OG3C61     1  3.16269044940e-01  1.32309697301e-01
  CG321  HGPAM2     1  2.47224394284e-01  4.18400000000e-02
  CG321   HGR61     1  2.90272620344e-01  7.24690057887e-02
  CG321   NG321     1  3.46559601357e-01  1.02486650838e-01
  CG321   OG2D3     1  2.93996576986e-01  1.44938011577e-01
  CG321  OG3C61     1  3.16269044940e-01  1.32309697301e-01
  CG331  HGPAM2     1  2.47224394284e-01  4.18400000000e-02
  CG331   HGR61     1  2.90272620344e-01  7.24690057887e-02
  CG331   NG321     1  3.46559601357e-01  1.02486650838e-01
  CG331   OG2D3     1  2.93996576986e-01  1.44938011577e-01
  CG331  OG3C61     1  3.16269044940e-01  1.32309697301e-01
   HGA1   OG2D3     1  2.44106248770e-01  3.07459952514e-01
   HGA2   OG2D3     1  2.44106248770e-01  2.71154190821e-01
   HGA3   OG2D3     1  2.44106248770e-01  2.24537002029e-01
   HGP1   OG2D3     1  1.44726496762e-01  3.10857403193e-01
 HGPAM2   OG2D3     1  2.02679458377e-01  1.44938011577e-01
  HGR61   OG2D3     1  2.45727684437e-01  2.51040000000e-01
  NG321   OG2D3     1  3.02014665450e-01  3.55024172698e-01
  OG2D3   OG2D3     1  2.49451641079e-01  5.02080000000e-01
  OG2D3   OG301     1  2.71724109033e-01  4.58334236120e-01
  OG2D3   OG311     1  2.81969444291e-01  6.35251912639e-01
  OG2D3  OG3C61     1  2.71724109033e-01  4.58334236120e-01

[ angletypes ]
  CG2O5   CG2O5   CG311     5  1.0581690e+02  2.7606032e+02  0.0000000e+00  0.0000000e+00
  CG2O5   CG2O5   CG321     5  1.1650000e+02  1.6736000e+02  0.0000000e+00  0.0000000e+00
  CG2O5   CG2O5   OG2D3     5  1.1655000e+02  7.5178112e+02  0.0000000e+00  0.0000000e+00
  CG2O5  CG2R61  CG2R61     5  1.2000000e+02  3.7656000e+02  0.0000000e+00  0.0000000e+00
  CG2O5   CG301   CG321     5  1.0800000e+02  4.3513600e+02  0.0000000e+00  0.0000000e+00
  CG2O5   CG301   CG331     5  1.0800000e+02  4.3513600e+02  0.0000000e+00  0.0000000e+00
  CG2O5   CG301   OG311     5  1.1100000e+02  9.3721600e+02  0.0000000e+00  0.0000000e+00
  CG2O5   CG311   CG2O5     5  1.0750000e+02  4.3346240e+02  0.0000000e+00  0.0000000e+00
  CG2O5   CG311  CG2R61     5  1.0750000e+02  4.3346240e+02  0.0000000e+00  0.0000000e+00
  CG2O5   CG311   CG301     5  1.0800000e+02  4.3513600e+02  0.0000000e+00  0.0000000e+00
  CG2O5   CG311   CG311     5  1.0800000e+02  4.3513600e+02  0.0000000e+00  0.0000000e+00
  CG2O5   CG311   CG321     5  1.0800000e+02  4.3513600e+02  0.0000000e+00  0.0000000e+00
  CG2O5   CG311   CG331     5  1.0800000e+02  4.3513600e+02  0.0000000e+00  0.0000000e+00
  CG2O5   CG311    HGA1     5  1.0950000e+02  4.1840000e+02  0.0000000e+00  0.0000000e+00
  CG2O5   CG311   NG321     5  1.1000000e+02  3.6568160e+02  0.0000000e+00  0.0000000e+00
  CG2O5   CG311   OG301     5  1.0900000e+02  3.7656000e+02  0.0000000e+00  0.0000000e+00
  CG2O5   CG311   OG311     5  1.1100000e+02  9.3721600e+02  0.0000000e+00  0.0000000e+00
  CG2O5   CG311  OG3C61     5  1.0059740e+02  2.5120736e+02  0.0000000e+00  0.0000000e+00
  CG2O5   CG321   CG2O5     5  1.0159470e+02  8.3680000e+00  0.0000000e+00  0.0000000e+00
  CG2O5   CG321   CG301     5  1.1380000e+02  5.0208000e+02  0.0000000e+00  0.0000000e+00
  CG2O5   CG321   CG311     5  1.1380000e+02  5.0208000e+02  0.0000000e+00  0.0000000e+00
  CG2O5   CG321   CG321     5  1.1380000e+02  5.0208000e+02  0.0000000e+00  0.0000000e+00
  CG2O5   CG321   CG331     5  1.1150000e+02  5.0208000e+02  0.0000000e+00  0.0000000e+00
  CG2O5   CG321    HGA2     5  1.0950000e+02  4.1840000e+02  0.0000000e+00  0.0000000e+00
  CG2O5   CG321   OG311     5  1.1100000e+02  9.3721600e+02  0.0000000e+00  0.0000000e+00
  CG2O5   CG331    HGA3     5  1.0950000e+02  4.1840000e+02  0.0000000e+00  0.0000000e+00
 CG2R61   CG2O5  CG2R61     5  1.0775000e+02  3.3413424e+02  0.0000000e+00  0.0000000e+00
 CG2R61   CG2O5   CG311     5  1.1720000e+02  3.3472000e+02  0.0000000e+00  0.0000000e+00
 CG2R61   CG2O5   CG321     5  1.1650000e+02  1.6736000e+02  0.0000000e+00  0.0000000e+00
 CG2R61   CG2O5   CG331     5  1.1650000e+02  5.0208000e+02  0.0000000e+00  0.0000000e+00
 CG2R61   CG2O5   OG2D3     5  1.2130000e+02  5.8576000e+02  0.0000000e+00  0.0000000e+00
 CG2R61  CG2R61   CG301     5  1.2000000e+02  3.8325440e+02  0.0000000e+00  0.0000000e+00
 CG2R61  CG2R61   CG311     5  1.2000000e+02  3.8325440e+02  0.0000000e+00  0.0000000e+00
 CG2R61  CG2R61   CG321     5  1.2000000e+02  3.8325440e+02  0.0000000e+00  0.0000000e+00
 CG2R61  CG2R61   CG331     5  1.2000000e+02  3.8325440e+02  0.0000000e+00  0.0000000e+00
 CG2R61  CG2R61   OG301     5  1.2000000e+02  9.2048000e+02  0.0000000e+00  0.0000000e+00
 CG2R61  CG2R61   OG311     5  1.2000000e+02  3.7823360e+02  0.0000000e+00  0.0000000e+00
 CG2R61   CG301   CG301     5  1.0750000e+02  4.3346240e+02  0.0000000e+00  0.0000000e+00
 CG2R61   CG301   CG321     5  1.0750000e+02  4.3346240e+02  0.0000000e+00  0.0000000e+00
 CG2R61   CG301   CG331     5  1.0750000e+02  4.3346240e+02  0.0000000e+00  0.0000000e+00
 CG2R61   CG301   OG311     5  1.1280000e+02  6.8617600e+02  0.0000000e+00  0.0000000e+00
 CG2R61   CG311  CG2R61     5  1.0750000e+02  4.3346240e+02  0.0000000e+00  0.0000000e+00
 CG2R61   CG311   CG301     5  1.0750000e+02  4.3346240e+02  0.0000000e+00  0.0000000e+00
 CG2R61   CG311   CG311     5  1.0750000e+02  4.3346240e+02  0.0000000e+00  0.0000000e+00
 CG2R61   CG311   CG321     5  1.0750000e+02  4.3346240e+02  0.0000000e+00  0.0000000e+00
 CG2R61   CG311   CG331     5  1.0750000e+02  4.3346240e+02  0.0000000e+00  0.0000000e+00
 CG2R61   CG311    HGA1     5  1.1100000e+02  3.5982400e+02  0.0000000e+00  0.0000000e+00
 CG2R61   CG311   OG301     5  1.1010000e+02  6.3345760e+02  0.0000000e+00  0.0000000e+00
 CG2R61   CG311   OG311     5  1.1280000e+02  6.8617600e+02  0.0000000e+00  0.0000000e+00
 CG2R61   CG311  OG3C61     5  1.1373530e+02  3.7856832e+02  0.0000000e+00  0.0000000e+00
 CG2R61   CG321  CG2R61     5  1.0750000e+02  4.3346240e+02  0.0000000e+00  0.0000000e+00
 CG2R61   CG321   CG301     5  1.0750000e+02  4.3346240e+02  0.0000000e+00  0.0000000e+00
 CG2R61   CG321   CG311     5  1.0750000e+02  4.3346240e+02  0.0000000e+00  0.0000000e+00
 CG2R61   CG321   CG321     5  1.0750000e+02  4.3346240e+02  0.0000000e+00  0.0000000e+00
 CG2R61   CG321   CG331     5  1.0750000e+02  4.3346240e+02  0.0000000e+00  0.0000000e+00
 CG2R61   CG321    HGA2     5  1.0750000e+02  4.1254240e+02  0.0000000e+00  0.0000000e+00
 CG2R61   CG321   NG321     5  1.0900000e+02  6.1086400e+02  0.0000000e+00  0.0000000e+00
 CG2R61   CG321   OG301     5  1.1010000e+02  6.3345760e+02  0.0000000e+00  0.0000000e+00
 CG2R61   CG321   OG311     5  1.1010000e+02  6.3345760e+02  0.0000000e+00  0.0000000e+00
 CG2R61   CG321  OG3C61     5  1.1010000e+02  6.3345760e+02  0.0000000e+00  0.0000000e+00
 CG2R61   CG331    HGA3     5  1.0750000e+02  4.1254240e+02  0.0000000e+00  0.0000000e+00
 CG2R61   OG301  CG2R61     5  1.2000000e+02  1.5480800e+03  0.0000000e+00  0.0000000e+00
 CG2R61   OG301   CG311     5  1.0800000e+02  5.4392000e+02  0.0000000e+00  0.0000000e+00
 CG2R61   OG301   CG321     5  1.0800000e+02  5.4392000e+02  0.0000000e+00  0.0000000e+00
 CG2R61   OG301   CG331     5  1.0800000e+02  5.4392000e+02  0.0000000e+00  0.0000000e+00
 CG2R61   OG311    HGP1     5  1.0800000e+02  5.4392000e+02  0.0000000e+00  0.0000000e+00
  CG301   CG2O5   CG301     5  1.1560000e+02  2.9288000e+02  0.0000000e+00  0.0000000e+00
  CG301   CG2O5   CG311     5  1.1560000e+02  2.9288000e+02  0.0000000e+00  0.0000000e+00
  CG301   CG2O5   CG321     5  1.1560000e+02  2.9288000e+02  0.0000000e+00  0.0000000e+00
  CG301   CG2O5   CG331     5  1.1560000e+02  2.9288000e+02  0.0000000e+00  0.0000000e+00
  CG301   CG2O5   OG2D3     5  1.2150000e+02  7.9496000e+02  0.0000000e+00  0.0000000e+00
  CG301   CG301   CG301     5  1.1350000e+02  4.8827280e+02  2.5610000e-01  9.3386880e+03
  CG301   CG301   CG311     5  1.1350000e+02  4.8827280e+02  2.5610000e-01  9.3386880e+03
  CG301   CG301   CG321     5  1.1350000e+02  4.8827280e+02  2.5610000e-01  9.3386880e+03
  CG301   CG301   CG331     5  1.1350000e+02  4.8827280e+02  2.5610000e-01  9.3386880e+03
  CG301   CG301   OG311     5  1.1010000e+02  6.3345760e+02  0.0000000e+00  0.0000000e+00
  CG301   CG301  OG3C61     5  1.1450000e+02  3.8074400e+02  0.0000000e+00  0.0000000e+00
  CG301   CG311   CG301     5  1.0800000e+02  4.3513600e+02  0.0000000e+00  0.0000000e+00
  CG301   CG311   CG311     5  1.0800000e+02  4.3513600e+02  0.0000000e+00  0.0000000e+00
  CG301   CG311   CG321     5  1.1350000e+02  4.8827280e+02  2.5610000e-01  9.3386880e+03
  CG301   CG311   CG331     5  1.1350000e+02  4.8827280e+02  2.5610000e-01  9.3386880e+03
  CG301   CG311    HGA1     5  1.1010000e+02  2.8953280e+02  2.1790000e-01  1.8853104e+04
  CG301   CG311   NG321     5  1.1120000e+02  6.1086400e+02  0.0000000e+00  0.0000000e+00
  CG301   CG311   OG311     5  1.1010000e+02  6.3345760e+02  0.0000000e+00  0.0000000e+00
  CG301   CG311  OG3C61     5  1.1150000e+02  3.7656000e+02  0.0000000e+00  0.0000000e+00
  CG301   CG321   CG301     5  1.1350000e+02  4.8827280e+02  2.5610000e-01  9.3386880e+03
  CG301   CG321   CG311     5  1.1350000e+02  4.8827280e+02  2.5610000e-01  9.3386880e+03
  CG301   CG321   CG321     5  1.1350000e+02  4.8827280e+02  2.5610000e-01  9.3386880e+03
  CG301   CG321   CG331     5  1.1350000e+02  5.4684880e+02  0.0000000e+00  0.0000000e+00
  CG301   CG321    HGA2     5  1.1010000e+02  2.2175200e+02  2.1790000e-01  1.8853104e+04
  CG301   CG321   OG301     5  1.1010000e+02  6.3345760e+02  0.0000000e+00  0.0000000e+00
  CG301   CG321   OG311     5  1.1010000e+02  6.3345760e+02  0.0000000e+00  0.0000000e+00
  CG301   CG331    HGA3     5  1.1010000e+02  2.7974224e+02  2.1790000e-01  1.8853104e+04
  CG301   NG321  HGPAM2     5  1.1210000e+02  3.4308800e+02  0.0000000e+00  0.0000000e+00
  CG301   OG301   CG321     5  1.0970000e+02  7.9496000e+02  0.0000000e+00  0.0000000e+00
  CG301   OG301   CG331     5  1.0970000e+02  7.9496000e+02  0.0000000e+00  0.0000000e+00
  CG301   OG311    HGP1     5  1.0600000e+02  4.1840000e+02  0.0000000e+00  0.0000000e+00
  CG301  OG3C61   CG301     5  1.0970000e+02  7.9496000e+02  0.0000000e+00  0.0000000e+00
  CG301  OG3C61   CG311     5  1.0970000e+02  7.9496000e+02  0.0000000e+00  0.0000000e+00
  CG301  OG3C61   CG321     5  1.0970000e+02  7.9496000e+02  0.0000000e+00  0.0000000e+00
  CG311   CG2O5   CG311     5  1.1560000e+02  2.9288000e+02  0.0000000e+00  0.0000000e+00
  CG311   CG2O5   CG321     5  1.1560000e+02  2.9288000e+02  0.0000000e+00  0.0000000e+00
  CG311   CG2O5   CG331     5  1.1560000e+02  2.9288000e+02  0.0000000e+00  0.0000000e+00
  CG311   CG2O5   OG2D3     5  1.2150000e+02  7.9496000e+02  0.0000000e+00  0.0000000e+00
  CG311   CG301   CG311     5  1.1350000e+02  4.8827280e+02  2.5610000e-01  9.3386880e+03
  CG311   CG301   CG321     5  1.1350000e+02  4.8827280e+02  2.5610000e-01  9.3386880e+03
  CG311   CG301   CG331     5  1.1350000e+02  4.8827280e+02  2.5610000e-01  9.3386880e+03
  CG311   CG301   NG321     5  1.1120000e+02  6.1086400e+02  0.0000000e+00  0.0000000e+00
  CG311   CG301   OG311     5  1.1010000e+02  6.3345760e+02  0.0000000e+00  0.0000000e+00
  CG311   CG301  OG3C61     5  1.1450000e+02  3.8074400e+02  0.0000000e+00  0.0000000e+00
  CG311   CG311   CG311     5  1.1100000e+02  4.4643280e+02  2.5610000e-01  6.6944000e+03
  CG311   CG311   CG321     5  1.1100000e+02  4.4643280e+02  2.5610000e-01  6.6944000e+03
  CG311   CG311   CG331     5  1.0850000e+02  4.4643280e+02  2.5610000e-01  6.6944000e+03
  CG311   CG311    HGA1     5  1.1010000e+02  2.8869600e+02  2.1790000e-01  1.8853104e+04
  CG311   CG311   NG321     5  1.1120000e+02  6.1086400e+02  0.0000000e+00  0.0000000e+00
  CG311   CG311   OG301     5  1.0970000e+02  9.6232000e+02  0.0000000e+00  0.0000000e+00
  CG311   CG311   OG311     5  1.1010000e+02  6.3345760e+02  0.0000000e+00  0.0000000e+00
  CG311   CG311  OG3C61     5  1.1150000e+02  3.7656000e+02  0.0000000e+00  0.0000000e+00
  CG311   CG321   CG311     5  1.1350000e+02  4.8827280e+02  2.5610000e-01  9.3386880e+03
  CG311   CG321   CG321     5  1.1350000e+02  4.8827280e+02  2.5610000e-01  9.3386880e+03
  CG311   CG321   CG331     5  1.1350000e+02  4.8827280e+02  2.5610000e-01  9.3386880e+03
  CG311   CG321   NG321     5  1.2000000e+02  5.0208000e+02  0.0000000e+00  0.0000000e+00
  CG311   CG321   OG311     5  1.1010000e+02  6.3345760e+02  0.0000000e+00  0.0000000e+00
  CG311   CG321  OG3C61     5  1.1150000e+02  3.7656000e+02  0.0000000e+00  0.0000000e+00
  CG311   NG321  HGPAM2     5  1.1210000e+02  3.4308800e+02  0.0000000e+00  0.0000000e+00
  CG311   OG301   CG311     5  1.0970000e+02  7.9496000e+02  0.0000000e+00  0.0000000e+00
  CG311   OG301   CG331     5  1.0970000e+02  7.9496000e+02  0.0000000e+00  0.0000000e+00
  CG311   OG301   OG311     5  1.0400000e+02  6.0249600e+02  0.0000000e+00  0.0000000e+00
  CG311   OG311    HGP1     5  1.0600000e+02  4.1840000e+02  0.0000000e+00  0.0000000e+00
  CG311  OG3C61   CG311     5  1.0970000e+02  7.9496000e+02  0.0000000e+00  0.0000000e+00
  CG311  OG3C61   CG321     5  1.0970000e+02  7.9496000e+02  0.0000000e+00  0.0000000e+00
  CG321   CG2O5   CG321     5  1.1560000e+02  2.9288000e+02  0.0000000e+00  0.0000000e+00
  CG321   CG2O5   CG331     5  1.1560000e+02  2.9288000e+02  0.0000000e+00  0.0000000e+00
  CG321   CG2O5   OG2D3     5  1.2220000e+02  6.2760000e+02  0.0000000e+00  0.0000000e+00
  CG321   CG301   CG321     5  1.1350000e+02  4.8827280e+02  2.5610000e-01  9.3386880e+03
  CG321   CG301   CG331     5  1.1350000e+02  4.8827280e+02  2.5610000e-01  9.3386880e+03
  CG321   CG301   NG321     5  1.1220000e+02  3.6568160e+02  0.0000000e+00  0.0000000e+00
  CG321   CG301   OG301     5  1.1450000e+02  3.8074400e+02  0.0000000e+00  0.0000000e+00
  CG321   CG301   OG311     5  1.1010000e+02  6.3345760e+02  0.0000000e+00  0.0000000e+00
  CG321   CG301  OG3C61     5  1.1450000e+02  3.8074400e+02  0.0000000e+00  0.0000000e+00
  CG321   CG311   CG321     5  1.1350000e+02  4.8827280e+02  2.5610000e-01  9.3386880e+03
  CG321   CG311   NG321     5  1.1220000e+02  3.6568160e+02  0.0000000e+00  0.0000000e+00
  CG321   CG311   OG311     5  1.1000000e+02  6.3345760e+02  0.0000000e+00  0.0000000e+00
  CG321   CG311  OG3C61     5  1.1150000e+02  3.7656000e+02  0.0000000e+00  0.0000000e+00
  CG321   CG321   CG321     5  1.1360000e+02  4.8827280e+02  2.5610000e-01  9.3386880e+03
  CG321   CG321   CG331     5  1.1500000e+02  4.8534400e+02  2.5610000e-01  6.6944000e+03
  CG321   CG321   NG321     5  1.2000000e+02  5.0208000e+02  0.0000000e+00  0.0000000e+00
  CG321   CG321  OG3C61     5  1.1150000e+02  3.7656000e+02  0.0000000e+00  0.0000000e+00
  CG321   CG331    HGA3     5  1.1010000e+02  2.8953280e+02  2.1790000e-01  1.8853104e+04
  CG321   NG321  HGPAM2     5  1.1210000e+02  3.4308800e+02  0.0000000e+00  0.0000000e+00
  CG321   OG301   CG331     5  1.0970000e+02  7.9496000e+02  0.0000000e+00  0.0000000e+00
  CG321   OG301   NG321     5  1.0474000e+02  6.0157552e+02  0.0000000e+00  0.0000000e+00
  CG321   OG301   OG311     5  1.0400000e+02  6.0249600e+02  0.0000000e+00  0.0000000e+00
  CG321  OG3C61   CG321     5  1.0970000e+02  7.9496000e+02  0.0000000e+00  0.0000000e+00
  CG331   CG2O5   CG331     5  1.1560000e+02  2.9288000e+02  0.0000000e+00  0.0000000e+00
  CG331   CG2O5   OG2D3     5  1.2220000e+02  6.2760000e+02  0.0000000e+00  0.0000000e+00
  CG331   CG301   CG331     5  1.1350000e+02  4.8827280e+02  2.5610000e-01  9.3386880e+03
  CG331   CG301   NG321     5  1.1320000e+02  6.1086400e+02  0.0000000e+00  0.0000000e+00
  CG331   CG301   OG301     5  1.1150000e+02  3.7656000e+02  0.0000000e+00  0.0000000e+00
  CG331   CG301   OG311     5  1.1010000e+02  6.3345760e+02  0.0000000e+00  0.0000000e+00
  CG331   CG301  OG3C61     5  1.1150000e+02  3.7656000e+02  0.0000000e+00  0.0000000e+00
  CG331   CG311   CG331     5  1.1400000e+02  4.4643280e+02  2.5610000e-01  6.6944000e+03
  CG331   CG311   NG321     5  1.1320000e+02  6.1086400e+02  0.0000000e+00  0.0000000e+00
  CG331   CG311   OG311     5  1.1010000e+02  6.3345760e+02  0.0000000e+00  0.0000000e+00
  CG331   CG311  OG3C61     5  1.1150000e+02  3.7656000e+02  0.0000000e+00  0.0000000e+00
  CG331   CG321   CG331     5  1.1400000e+02  4.4643280e+02  2.5610000e-01  6.6944000e+03
  CG331   CG321    HGA2     5  1.1010000e+02  2.8953280e+02  2.1790000e-01  1.8853104e+04
  CG331   CG321   NG321     5  1.1220000e+02  3.6568160e+02  0.0000000e+00  0.0000000e+00
  CG331   CG321   OG301     5  1.1150000e+02  3.7656000e+02  0.0000000e+00  0.0000000e+00
  CG331   CG321   OG311     5  1.1010000e+02  6.3345760e+02  0.0000000e+00  0.0000000e+00
  CG331   CG331    HGA3     5  1.1010000e+02  3.1380000e+02  2.1790000e-01  1.8853104e+04
  CG331   OG301   CG331     5  1.0970000e+02  7.9496000e+02  0.0000000e+00  0.0000000e+00
  CG331   OG301   OG311     5  1.0400000e+02  6.0249600e+02  0.0000000e+00  0.0000000e+00
  CG331   OG311    HGP1     5  1.0600000e+02  4.8116000e+02  0.0000000e+00  0.0000000e+00
   HGP1   NG321    HGP1     5  1.1000000e+02  3.1798400e+02  0.0000000e+00  0.0000000e+00
 HGPAM2   NG321  HGPAM2     5  1.0585000e+02  3.5145600e+02  0.0000000e+00  0.0000000e+00
  NG321   CG311    HGA1     5  1.0950000e+02  2.7112320e+02  2.1400000e-01  4.1840000e+04
  NG321   CG311  OG3C61     5  1.1718890e+02  7.1981536e+02  0.0000000e+00  0.0000000e+00
  NG321   CG321    HGA2     5  1.0950000e+02  2.7112320e+02  2.1400000e-01  4.1840000e+04
  OG301   CG301   OG301     5  1.0700000e+02  5.8986032e+02  0.0000000e+00  0.0000000e+00
  OG301   CG301   OG311     5  1.1650000e+02  3.7656000e+02  0.0000000e+00  0.0000000e+00
  OG301   CG311   OG311     5  1.1650000e+02  3.7656000e+02  0.0000000e+00  0.0000000e+00
  OG301   CG311  OG3C61     5  1.1200000e+02  7.5312000e+02  0.0000000e+00  0.0000000e+00
  OG301   CG321   OG301     5  1.1349650e+02  8.1663312e+02  0.0000000e+00  0.0000000e+00
  OG301   CG331    HGA3     5  1.0889000e+02  3.8409120e+02  0.0000000e+00  0.0000000e+00
  OG301   NG321    HGP1     5  1.0237000e+02  4.9613872e+02  0.0000000e+00  0.0000000e+00
  OG301   OG311    HGP1     5  9.8300000e+01  5.1044800e+02  0.0000000e+00  0.0000000e+00
  OG311   CG301   OG311     5  1.1650000e+02  3.7656000e+02  0.0000000e+00  0.0000000e+00
  OG311   CG301  OG3C61     5  1.1650000e+02  3.7656000e+02  0.0000000e+00  0.0000000e+00
  OG311   CG311    HGA1     5  1.0889000e+02  3.8409120e+02  0.0000000e+00  0.0000000e+00
  OG311   CG311   OG311     5  1.1715000e+02  8.4098400e+02  0.0000000e+00  0.0000000e+00
  OG311   CG311  OG3C61     5  1.1200000e+02  7.5312000e+02  0.0000000e+00  0.0000000e+00
  OG311   CG331    HGA3     5  1.0889000e+02  3.8409120e+02  0.0000000e+00  0.0000000e+00
 OG3C61   CG301  OG3C61     5  1.0597360e+02  5.8693152e+02  0.0000000e+00  0.0000000e+00
 OG3C61   CG311    HGA1     5  1.0950000e+02  3.7656000e+02  0.0000000e+00  0.0000000e+00
 OG3C61   CG311  OG3C61     5  1.1050000e+02  3.7656000e+02  0.0000000e+00  0.0000000e+00
 OG3C61   CG321    HGA2     5  1.0950000e+02  3.7656000e+02  0.0000000e+00  0.0000000e+00
 OG3C61   CG321  OG3C61     5  1.1050000e+02  3.7656000e+02  0.0000000e+00  0.0000000e+00

[ dihedraltypes ]
  CG2O5   CG2O5   CG311   CG321     9  0.000000e+00  4.184000e-02      1
  CG2O5   CG2O5   CG311   CG321     9  0.000000e+00  8.368000e-02      2
  CG2O5   CG2O5   CG311   CG321     9  0.000000e+00  2.928800e-01      3
  CG2O5   CG2O5   CG311   CG321     9  1.800000e+02  1.380720e+00      4
  CG2O5   CG2O5   CG311   CG331     9  0.000000e+00  3.765600e-01      4
  CG2O5   CG2O5   CG311   CG331     9  0.000000e+00  2.384880e+00      1
  CG2O5   CG2O5   CG311   CG331     9  0.000000e+00  2.803280e+00      2
  CG2O5   CG2O5   CG311   CG331     9  1.800000e+02  9.623200e-01      3
  CG2O5   CG2O5   CG311    HGA1     9  1.800000e+02  0.000000e+00      3
  CG2O5   CG2O5   CG321   CG301     9  0.000000e+00  8.326160e+00      2
  CG2O5   CG2O5   CG321   CG301     9  1.800000e+02  1.840960e+00      3
  CG2O5   CG2O5   CG321   CG301     9  1.800000e+02  3.347200e+00      1
  CG2O5   CG2O5   CG321   CG321     9  0.000000e+00  1.673600e+00      1
  CG2O5   CG2O5   CG321   CG321     9  1.800000e+02  4.184000e-01      6
  CG2O5   CG2O5   CG321   CG321     9  1.800000e+02  5.439200e-01      3
  CG2O5   CG2O5   CG321   CG321     9  1.800000e+02  7.112800e-01      2
  CG2O5   CG2O5   CG321   CG331     9  0.000000e+00  1.673600e+00      1
  CG2O5   CG2O5   CG321   CG331     9  1.800000e+02  4.184000e-01      6
  CG2O5   CG2O5   CG321   CG331     9  1.800000e+02  5.439200e-01      3
  CG2O5   CG2O5   CG321   CG331     9  1.800000e+02  7.112800e-01      2
  CG2O5   CG2O5   CG321    HGA2     9  0.000000e+00  4.184000e-01      3
  CG2O5   CG2O5   CG321    HGA2     9  1.800000e+02  0.000000e+00      3
  CG2O5  CG2R61  CG2R61   CG2O5     9  0.000000e+00  1.464400e+00      2
  CG2O5  CG2R61  CG2R61   CG2O5     9  1.800000e+02  1.297040e+01      2
  CG2O5  CG2R61  CG2R61  CG2R61     9  1.800000e+02  1.297040e+01      2
  CG2O5  CG2R61  CG2R61   CG311     9  0.000000e+00  0.000000e+00      2
  CG2O5  CG2R61  CG2R61   CG321     9  1.800000e+02  7.698560e+00      2
  CG2O5  CG2R61  CG2R61   CG331     9  1.800000e+02  1.230096e+01      2
  CG2O5  CG2R61  CG2R61   HGR61     9  1.800000e+02  1.004160e+01      2
  CG2O5  CG2R61  CG2R61   OG301     9  1.800000e+02  5.564720e+00      2
  CG2O5  CG2R61  CG2R61   OG311     9  1.800000e+02  7.824080e+00      2
  CG2O5   CG301   CG321  CG2R61     9  0.000000e+00  1.673600e-01      3
  CG2O5   CG301   CG321   CG301     9  0.000000e+00  8.368000e-01      3
  CG2O5   CG301   CG321   CG301     9  1.800000e+02  8.786400e-01      6
  CG2O5   CG301   CG321   CG301     9  1.800000e+02  1.602472e+01      3
  CG2O5   CG301   CG321   CG311     9  0.000000e+00  8.368000e-01      3
  CG2O5   CG301   CG321   CG311     9  0.000000e+00  9.204800e-01      3
  CG2O5   CG301   CG321   CG321     9  0.000000e+00  8.368000e-01      3
  CG2O5   CG301   CG321   CG321     9  0.000000e+00  2.468560e+00      4
  CG2O5   CG301   CG321   CG321     9  1.800000e+02  1.799120e+00      3
  CG2O5   CG301   CG321   CG331     9  1.800000e+02  6.861760e+00      3
  CG2O5   CG301   CG321    HGA2     9  0.000000e+00  8.368000e-01      3
  CG2O5   CG301   CG331    HGA3     9  0.000000e+00  8.368000e-01      3
  CG2O5   CG301   OG311    HGP1     9  0.000000e+00  1.464400e+00      1
  CG2O5   CG301   OG311    HGP1     9  0.000000e+00  1.548080e+00      2
  CG2O5   CG301   OG311    HGP1     9  1.800000e+02  4.184000e-02      3
  CG2O5   CG311   CG311   CG321     9  0.000000e+00  8.368000e-01      3
  CG2O5   CG311   CG311   CG331     9  0.000000e+00  8.368000e-01      3
  CG2O5   CG311   CG311    HGA1     9  0.000000e+00  8.368000e-01      3
  CG2O5   CG311   CG321   CG2O5     9  0.000000e+00  8.368000e-01      3
  CG2O5   CG311   CG321   CG301     9  0.000000e+00  8.368000e-01      3
  CG2O5   CG311   CG321   CG311     9  0.000000e+00  8.368000e-01      3
  CG2O5   CG311   CG321   CG321     9  0.000000e+00  8.368000e-01      3
  CG2O5   CG311   CG321   CG331     9  0.000000e+00  8.368000e-01      3
  CG2O5   CG311   CG321    HGA2     9  0.000000e+00  8.368000e-01      3
  CG2O5   CG311   CG321   NG321     9  0.000000e+00  8.368000e-01      3
  CG2O5   CG311   CG321   OG301     9  0.000000e+00  8.368000e-01      3
  CG2O5   CG311   CG321   OG311     9  0.000000e+00  8.368000e-01      3
  CG2O5   CG311   CG321  OG3C61     9  0.000000e+00  0.000000e+00      1
  CG2O5   CG311   CG321  OG3C61     9  0.000000e+00  1.213360e+00      6
  CG2O5   CG311   CG321  OG3C61     9  1.800000e+02  7.405680e+00      2
  CG2O5   CG311   CG331    HGA3     9  0.000000e+00  8.368000e-01      3
  CG2O5   CG311   NG321  HGPAM2     9  0.000000e+00  6.694400e-01      3
  CG2O5   CG311   OG301   CG321     9  0.000000e+00  8.368000e-01      3
  CG2O5   CG311   OG311    HGP1     9  0.000000e+00  1.464400e+00      1
  CG2O5   CG311   OG311    HGP1     9  0.000000e+00  1.548080e+00      2
  CG2O5   CG311   OG311    HGP1     9  1.800000e+02  4.184000e-02      3
  CG2O5   CG311  OG3C61   CG311     9  0.000000e+00  4.560560e+00      1
  CG2O5   CG311  OG3C61   CG311     9  1.800000e+02  8.368000e-01      2
  CG2O5   CG311  OG3C61   CG311     9  1.800000e+02  8.786400e-01      3
  CG2O5   CG321   CG321   CG2O5     9  0.000000e+00  8.368000e-01      3
  CG2O5   CG321   CG321  CG2R61     9  0.000000e+00  1.673600e-01      3
  CG2O5   CG321   CG321   CG301     9  0.000000e+00  4.602400e-01      4
  CG2O5   CG321   CG321   CG301     9  0.000000e+00  1.631760e+00      2
  CG2O5   CG321   CG321   CG301     9  1.800000e+02  3.765600e-01      6
  CG2O5   CG321   CG321   CG301     9  1.800000e+02  8.786400e-01      1
  CG2O5   CG321   CG321   CG301     9  1.800000e+02  1.464400e+00      3
  CG2O5   CG321   CG321   CG311     9  0.000000e+00  4.602400e-01      4
  CG2O5   CG321   CG321   CG311     9  0.000000e+00  1.631760e+00      2
  CG2O5   CG321   CG321   CG311     9  1.800000e+02  3.765600e-01      6
  CG2O5   CG321   CG321   CG311     9  1.800000e+02  8.786400e-01      1
  CG2O5   CG321   CG321   CG311     9  1.800000e+02  1.464400e+00      3
  CG2O5   CG321   CG321   CG321     9  0.000000e+00  4.602400e-01      4
  CG2O5   CG321   CG321   CG321     9  0.000000e+00  1.631760e+00      2
  CG2O5   CG321   CG321   CG321     9  1.800000e+02  3.765600e-01      6
  CG2O5   CG321   CG321   CG321     9  1.800000e+02  8.786400e-01      1
  CG2O5   CG321   CG321   CG321     9  1.800000e+02  1.464400e+00      3
  CG2O5   CG321   CG321   CG331     9  0.000000e+00  4.602400e-01      4
  CG2O5   CG321   CG321   CG331     9  0.000000e+00  1.631760e+00      2
  CG2O5   CG321   CG321   CG331     9  1.800000e+02  3.765600e-01      6
  CG2O5   CG321   CG321   CG331     9  1.800000e+02  8.786400e-01      1
  CG2O5   CG321   CG321   CG331     9  1.800000e+02  1.464400e+00      3
  CG2O5   CG321   CG321    HGA2     9  0.000000e+00  8.158800e-01      3
  CG2O5   CG321   CG321   NG321     9  0.000000e+00  4.602400e-01      4
  CG2O5   CG321   CG321   NG321     9  0.000000e+00  1.631760e+00      2
  CG2O5   CG321   CG321   NG321     9  1.800000e+02  3.765600e-01      6
  CG2O5   CG321   CG321   NG321     9  1.800000e+02  8.786400e-01      1
  CG2O5   CG321   CG321   NG321     9  1.800000e+02  1.464400e+00      3
  CG2O5   CG321   CG321   OG301     9  0.000000e+00  8.368000e-01      3
  CG2O5   CG321   CG321   OG311     9  0.000000e+00  8.368000e-01      3
  CG2O5   CG321   CG321  OG3C61     9  1.800000e+02  0.000000e+00      1
  CG2O5   CG321   CG321  OG3C61     9  1.800000e+02  2.092000e-01      2
  CG2O5   CG321   CG321  OG3C61     9  1.800000e+02  7.949600e-01      3
  CG2O5   CG321   CG331    HGA3     9  0.000000e+00  6.694400e-01      3
  CG2O5   CG321   OG311    HGP1     9  0.000000e+00  1.464400e+00      1
  CG2O5   CG321   OG311    HGP1     9  0.000000e+00  1.548080e+00      2
  CG2O5   CG321   OG311    HGP1     9  1.800000e+02  4.184000e-02      3
 CG2R61   CG2O5  CG2R61  CG2R61     9  1.800000e+02  3.792796e+00      2
 CG2R61   CG2O5   CG311   CG331     9  0.000000e+00  1.673600e+00      1
 CG2R61   CG2O5   CG311   CG331     9  1.800000e+02  4.184000e-01      6
 CG2R61   CG2O5   CG311   CG331     9  1.800000e+02  5.439200e-01      3
 CG2R61   CG2O5   CG311   CG331     9  1.800000e+02  7.112800e-01      2
 CG2R61   CG2O5   CG311    HGA1     9  1.800000e+02  0.000000e+00      1
 CG2R61   CG2O5   CG311   OG311     9  1.800000e+02  0.000000e+00      2
 CG2R61   CG2O5   CG321   CG311     9  0.000000e+00  1.673600e+00      1
 CG2R61   CG2O5   CG321   CG311     9  1.800000e+02  4.184000e-01      6
 CG2R61   CG2O5   CG321   CG311     9  1.800000e+02  5.439200e-01      3
 CG2R61   CG2O5   CG321   CG311     9  1.800000e+02  7.112800e-01      2
 CG2R61   CG2O5   CG321   CG321     9  0.000000e+00  1.673600e+00      1
 CG2R61   CG2O5   CG321   CG321     9  1.800000e+02  4.184000e-01      6
 CG2R61   CG2O5   CG321   CG321     9  1.800000e+02  5.439200e-01      3
 CG2R61   CG2O5   CG321   CG321     9  1.800000e+02  7.112800e-01      2
 CG2R61   CG2O5   CG321   CG331     9  0.000000e+00  1.673600e+00      1
 CG2R61   CG2O5   CG321   CG331     9  1.800000e+02  4.184000e-01      6
 CG2R61   CG2O5   CG321   CG331     9  1.800000e+02  5.439200e-01      3
 CG2R61   CG2O5   CG321   CG331     9  1.800000e+02  7.112800e-01      2
 CG2R61   CG2O5   CG321    HGA2     9  0.000000e+00  4.184000e-01      3
 CG2R61   CG2O5   CG331    HGA3     9  0.000000e+00  4.184000e-01      3
 CG2R61  CG2R61  CG2R61   CG301     9  1.800000e+02  1.297040e+01      2
 CG2R61  CG2R61  CG2R61   CG311     9  1.800000e+02  1.297040e+01      2
 CG2R61  CG2R61  CG2R61   CG321     9  1.800000e+02  1.297040e+01      2
 CG2R61  CG2R61  CG2R61   CG331     9  1.800000e+02  1.297040e+01      2
 CG2R61  CG2R61  CG2R61   OG301     9  1.800000e+02  1.297040e+01      2
 CG2R61  CG2R61  CG2R61   OG311     9  1.800000e+02  1.297040e+01      2
 CG2R61  CG2R61   CG301   CG301     9  1.800000e+02  9.623200e-01      2
 CG2R61  CG2R61   CG301   CG321     9  1.800000e+02  9.623200e-01      2
 CG2R61  CG2R61   CG301   CG331     9  1.800000e+02  9.623200e-01      2
 CG2R61  CG2R61   CG301   OG311     9  1.800000e+02  2.928800e+00      2
 CG2R61  CG2R61   CG311   CG2O5     9  0.000000e+00  8.368000e-01      2
 CG2R61  CG2R61   CG311   CG2O5     9  1.800000e+02  9.623200e-01      2
 CG2R61  CG2R61   CG311  CG2R61     9  1.800000e+02  9.623200e-01      2
 CG2R61  CG2R61   CG311   CG301     9  1.800000e+02  9.623200e-01      2
 CG2R61  CG2R61   CG311   CG311     9  1.800000e+02  9.623200e-01      2
 CG2R61  CG2R61   CG311   CG321     9  1.800000e+02  9.623200e-01      2
 CG2R61  CG2R61   CG311   CG331     9  1.800000e+02  9.623200e-01      2
 CG2R61  CG2R61   CG311    HGA1     9  1.800000e+02  4.184000e-01      6
 CG2R61  CG2R61   CG311   OG301     9  0.000000e+00  0.000000e+00      2
 CG2R61  CG2R61   CG311   OG311     9  1.800000e+02  2.928800e+00      2
 CG2R61  CG2R61   CG311  OG3C61     9  0.000000e+00  1.882800e+00      4
 CG2R61  CG2R61   CG311  OG3C61     9  1.800000e+02  1.255200e+00      6
 CG2R61  CG2R61   CG311  OG3C61     9  1.800000e+02  1.673600e+00      2
 CG2R61  CG2R61   CG321  CG2R61     9  1.800000e+02  9.623200e-01      2
 CG2R61  CG2R61   CG321   CG301     9  1.800000e+02  9.623200e-01      2
 CG2R61  CG2R61   CG321   CG311     9  1.800000e+02  9.623200e-01      2
 CG2R61  CG2R61   CG321   CG321     9  1.800000e+02  9.623200e-01      2
 CG2R61  CG2R61   CG321   CG331     9  1.800000e+02  9.623200e-01      2
 CG2R61  CG2R61   CG321    HGA2     9  0.000000e+00  8.368000e-03      6
 CG2R61  CG2R61   CG321   NG321     9  1.800000e+02  4.184000e+00      2
 CG2R61  CG2R61   CG321   OG301     9  0.000000e+00  0.000000e+00      2
 CG2R61  CG2R61   CG321   OG311     9  0.000000e+00  0.000000e+00      2
 CG2R61  CG2R61   CG321  OG3C61     9  0.000000e+00  0.000000e+00      2
 CG2R61  CG2R61   CG331    HGA3     9  0.000000e+00  8.368000e-03      6
 CG2R61  CG2R61   OG301  CG2R61     9  1.800000e+02  5.020800e+00      2
 CG2R61  CG2R61   OG301   CG311     9  1.800000e+02  7.949600e-01      4
 CG2R61  CG2R61   OG301   CG311     9  1.800000e+02  6.778080e+00      2
 CG2R61  CG2R61   OG301   CG321     9  1.800000e+02  7.949600e-01      4
 CG2R61  CG2R61   OG301   CG321     9  1.800000e+02  6.778080e+00      2
 CG2R61  CG2R61   OG301   CG331     9  1.800000e+02  8.368000e-01      4
 CG2R61  CG2R61   OG301   CG331     9  1.800000e+02  6.610720e+00      2
 CG2R61  CG2R61   OG311    HGP1     9  1.800000e+02  4.142160e+00      2
 CG2R61   CG301   CG301  CG2R61     9  0.000000e+00  7.949600e-01      3
 CG2R61   CG301   CG301   CG331     9  0.000000e+00  1.715440e+00      3
 CG2R61   CG301   CG301   OG311     9  1.800000e+02  0.000000e+00      3
 CG2R61   CG301   CG321   CG301     9  0.000000e+00  8.368000e-02      2
 CG2R61   CG301   CG321   CG301     9  0.000000e+00  1.673600e-01      3
 CG2R61   CG301   CG321   CG301     9  1.800000e+02  4.895280e+00      3
 CG2R61   CG301   CG321   CG311     9  1.800000e+02  1.673600e-01      2
 CG2R61   CG301   CG321   CG311     9  1.800000e+02  2.928800e-01      3
 CG2R61   CG301   CG321   CG321     9  0.000000e+00  1.221728e+01      3
 CG2R61   CG301   CG321    HGA2     9  0.000000e+00  1.673600e-01      3
 CG2R61   CG301   CG331    HGA3     9  0.000000e+00  1.673600e-01      3
 CG2R61   CG301   OG311    HGP1     9  0.000000e+00  2.259360e+00      2
 CG2R61   CG301   OG311    HGP1     9  0.000000e+00  3.221680e+00      3
 CG2R61   CG301   OG311    HGP1     9  0.000000e+00  4.518720e+00      1
 CG2R61   CG311   CG311   CG321     9  0.000000e+00  1.673600e-01      3
 CG2R61   CG311   CG311   CG331     9  0.000000e+00  1.673600e-01      3
 CG2R61   CG311   CG311    HGA1     9  0.000000e+00  0.000000e+00      3
 CG2R61   CG311   CG311   OG311     9  1.800000e+02  5.020800e-01      3
 CG2R61   CG311   CG321   CG2O5     9  0.000000e+00  1.673600e-01      3
 CG2R61   CG311   CG321  CG2R61     9  0.000000e+00  4.309520e+00      3
 CG2R61   CG311   CG321   CG301     9  0.000000e+00  1.673600e-01      3
 CG2R61   CG311   CG321   CG311     9  0.000000e+00  1.673600e-01      3
 CG2R61   CG311   CG321   CG321     9  0.000000e+00  1.673600e-01      3
 CG2R61   CG311   CG321   CG331     9  0.000000e+00  1.673600e-01      3
 CG2R61   CG311   CG321    HGA2     9  0.000000e+00  0.000000e+00      3
 CG2R61   CG311   CG321   NG321     9  0.000000e+00  3.849280e+00      3
 CG2R61   CG311   CG321   OG301     9  0.000000e+00  8.368000e-01      3
 CG2R61   CG311   CG321   OG311     9  0.000000e+00  8.368000e-01      3
 CG2R61   CG311   CG321   OG311     9  0.000000e+00  7.154640e+00      3
 CG2R61   CG311   CG331    HGA3     9  0.000000e+00  1.673600e-01      3
 CG2R61   CG311   OG301   CG311     9  0.000000e+00  1.924640e+00      3
 CG2R61   CG311   OG301   CG311     9  1.800000e+02  1.087840e+00      2
 CG2R61   CG311   OG301   CG311     9  1.800000e+02  2.343040e+00      1
 CG2R61   CG311   OG301   CG321     9  0.000000e+00  8.368000e-01      3
 CG2R61   CG311   OG311    HGP1     9  0.000000e+00  2.259360e+00      2
 CG2R61   CG311   OG311    HGP1     9  0.000000e+00  3.221680e+00      3
 CG2R61   CG311   OG311    HGP1     9  0.000000e+00  4.518720e+00      1
 CG2R61   CG311  OG3C61   CG321     9  0.000000e+00  0.000000e+00      2
 CG2R61   CG311  OG3C61   CG321     9  0.000000e+00  1.673600e+00      3
 CG2R61   CG311  OG3C61   CG321     9  1.800000e+02  7.112800e-01      1
 CG2R61   CG321   CG321  CG2R61     9  0.000000e+00  2.803280e+00      3
 CG2R61   CG321   CG321  CG2R61     9  0.000000e+00  3.891120e+00      2
 CG2R61   CG321   CG321   CG301     9  0.000000e+00  1.673600e-01      3
 CG2R61   CG321   CG321   CG311     9  0.000000e+00  1.673600e-01      3
 CG2R61   CG321   CG321   CG321     9  0.000000e+00  1.673600e-01      3
 CG2R61   CG321   CG321   CG331     9  0.000000e+00  1.673600e-01      3
 CG2R61   CG321   CG321    HGA2     9  0.000000e+00  1.673600e-01      3
 CG2R61   CG321   CG321   OG301     9  0.000000e+00  8.368000e-01      3
 CG2R61   CG321   CG321   OG311     9  0.000000e+00  8.368000e-01      3
 CG2R61   CG321   CG321  OG3C61     9  0.000000e+00  8.368000e-02      1
 CG2R61   CG321   CG321  OG3C61     9  0.000000e+00  5.188160e+00      3
 CG2R61   CG321   CG331    HGA3     9  0.000000e+00  1.673600e-01      3
 CG2R61   CG321   NG321  HGPAM2     9  0.000000e+00  1.255200e+00      3
 CG2R61   CG321   OG301   CG321     9  0.000000e+00  1.924640e+00      3
 CG2R61   CG321   OG301   CG321     9  1.800000e+02  1.087840e+00      2
 CG2R61   CG321   OG301   CG321     9  1.800000e+02  2.343040e+00      1
 CG2R61   CG321   OG311    HGP1     9  0.000000e+00  3.096160e+00      3
 CG2R61   CG321   OG311    HGP1     9  0.000000e+00  5.857600e+00      2
 CG2R61   CG321   OG311    HGP1     9  0.000000e+00  8.786400e+00      1
 CG2R61   CG321  OG3C61   CG301     9  0.000000e+00  7.112800e-01      1
 CG2R61   CG321  OG3C61   CG301     9  0.000000e+00  1.338880e+00      2
 CG2R61   CG321  OG3C61   CG301     9  1.800000e+02  8.368000e-02      3
 CG2R61   CG321  OG3C61   CG311     9  0.000000e+00  4.184000e-02      1
 CG2R61   CG321  OG3C61   CG311     9  0.000000e+00  1.087840e+00      2
 CG2R61   CG321  OG3C61   CG311     9  1.800000e+02  0.000000e+00      3
 CG2R61   CG321  OG3C61   CG311     9  1.800000e+02  8.368000e-02      4
  CG301   CG2O5   CG301   CG321     9  0.000000e+00  9.204800e-01      6
  CG301   CG2O5   CG301   CG321     9  0.000000e+00  3.221680e+00      3
  CG301   CG2O5   CG301   CG321     9  1.800000e+02  5.020800e-01      1
  CG301   CG2O5   CG301   CG321     9  1.800000e+02  5.857600e-01      2
  CG301   CG2O5   CG301   CG331     9  0.000000e+00  5.020800e-01      3
  CG301   CG2O5   CG301   CG331     9  0.000000e+00  1.338880e+00      2
  CG301   CG2O5   CG301   CG331     9  0.000000e+00  3.430880e+00      6
  CG301   CG2O5   CG301   CG331     9  0.000000e+00  4.560560e+00      1
  CG301   CG2O5   CG311   CG321     9  0.000000e+00  1.255200e-01      6
  CG301   CG2O5   CG311   CG321     9  0.000000e+00  2.928800e-01      3
  CG301   CG2O5   CG311   CG321     9  0.000000e+00  3.138000e+00      1
  CG301   CG2O5   CG311   CG321     9  1.800000e+02  7.531200e-01      2
  CG301   CG2O5   CG311    HGA1     9  0.000000e+00  4.184000e-01      3
  CG301   CG2O5   CG321   CG321     9  0.000000e+00  1.255200e-01      6
  CG301   CG2O5   CG321   CG321     9  0.000000e+00  2.719600e-01      3
  CG301   CG2O5   CG321   CG321     9  0.000000e+00  2.928800e-01      3
  CG301   CG2O5   CG321   CG321     9  0.000000e+00  3.138000e+00      1
  CG301   CG2O5   CG321   CG321     9  1.800000e+02  7.531200e-01      2
  CG301   CG2O5   CG321   CG331     9  0.000000e+00  1.255200e-01      6
  CG301   CG2O5   CG321   CG331     9  0.000000e+00  2.719600e-01      3
  CG301   CG2O5   CG321   CG331     9  0.000000e+00  3.138000e+00      1
  CG301   CG2O5   CG321   CG331     9  1.800000e+02  7.531200e-01      2
  CG301   CG2O5   CG321    HGA2     9  0.000000e+00  4.184000e-01      3
  CG301   CG2O5   CG321   OG311     9  0.000000e+00  1.129680e+00      6
  CG301   CG2O5   CG321   OG311     9  0.000000e+00  2.510400e+00      1
  CG301   CG2O5   CG321   OG311     9  1.800000e+02  3.347200e-01      2
  CG301   CG2O5   CG321   OG311     9  1.800000e+02  4.602400e-01      3
  CG301   CG2O5   CG331    HGA3     9  0.000000e+00  4.184000e-01      3
  CG301  CG2R61  CG2R61   CG301     9  1.800000e+02  1.255200e+01      2
  CG301  CG2R61  CG2R61   CG321     9  1.800000e+02  1.004160e+01      2
  CG301  CG2R61  CG2R61   CG331     9  1.800000e+02  1.004160e+01      2
  CG301  CG2R61  CG2R61   HGR61     9  1.800000e+02  1.004160e+01      2
  CG301   CG301   CG301   CG321     9  0.000000e+00  8.368000e-01      3
  CG301   CG301   CG301   CG331     9  0.000000e+00  8.368000e-01      3
  CG301   CG301   CG311   CG301     9  0.000000e+00  8.368000e-01      3
  CG301   CG301   CG311   CG321     9  0.000000e+00  8.368000e-01      3
  CG301   CG301   CG311    HGA1     9  0.000000e+00  8.158800e-01      3
  CG301   CG301   CG321   CG321     9  0.000000e+00  8.368000e-01      3
  CG301   CG301   CG321    HGA2     9  0.000000e+00  8.158800e-01      3
  CG301   CG301   CG321    HGA2     9  0.000000e+00  8.368000e-01      3
  CG301   CG301   CG331    HGA3     9  0.000000e+00  6.694400e-01      3
  CG301   CG301   OG311    HGP1     9  0.000000e+00  5.857600e-01      2
  CG301   CG301   OG311    HGP1     9  0.000000e+00  1.004160e+00      3
  CG301   CG301   OG311    HGP1     9  0.000000e+00  4.727920e+00      1
  CG301   CG301  OG3C61   CG321     9  0.000000e+00  6.276000e-01      4
  CG301   CG301  OG3C61   CG321     9  0.000000e+00  2.845120e+00      2
  CG301   CG301  OG3C61   CG321     9  1.800000e+02  8.786400e-01      3
  CG301   CG301  OG3C61   CG321     9  1.800000e+02  2.217520e+00      1
  CG301   CG311   CG311   CG311     9  0.000000e+00  8.368000e-01      3
  CG301   CG311   CG311   CG321     9  0.000000e+00  8.368000e-01      3
  CG301   CG311   CG311    HGA1     9  0.000000e+00  8.158800e-01      3
  CG301   CG311   CG311   OG311     9  0.000000e+00  5.857600e-01      3
  CG301   CG311   CG321   CG311     9  0.000000e+00  8.368000e-01      3
  CG301   CG311   CG321   CG321     9  0.000000e+00  8.368000e-01      3
  CG301   CG311   CG321    HGA2     9  0.000000e+00  8.158800e-01      3
  CG301   CG311   CG321   OG301     9  1.800000e+02  8.368000e-01      3
  CG301   CG311   CG321   OG311     9  1.800000e+02  8.368000e-01      3
  CG301   CG311   CG331    HGA3     9  0.000000e+00  8.368000e-01      3
  CG301   CG311   NG321  HGPAM2     9  0.000000e+00  1.673600e+00      3
  CG301   CG311   NG321  HGPAM2     9  1.800000e+02  2.092000e+00      1
  CG301   CG311   OG311    HGP1     9  0.000000e+00  7.531200e-01      2
  CG301   CG311   OG311    HGP1     9  0.000000e+00  1.924640e+00      3
  CG301   CG311   OG311    HGP1     9  0.000000e+00  5.564720e+00      1
  CG301   CG311  OG3C61   CG301     9  0.000000e+00  6.276000e-01      4
  CG301   CG311  OG3C61   CG301     9  0.000000e+00  2.845120e+00      2
  CG301   CG311  OG3C61   CG301     9  1.800000e+02  8.786400e-01      3
  CG301   CG311  OG3C61   CG301     9  1.800000e+02  2.217520e+00      1
  CG301   CG321   CG321   CG311     9  0.000000e+00  8.368000e-01      3
  CG301   CG321   CG321   CG321     9  0.000000e+00  8.158800e-01      3
  CG301   CG321   CG321   CG331     9  0.000000e+00  8.158800e-01      3
  CG301   CG321   CG321    HGA2     9  0.000000e+00  8.158800e-01      3
  CG301   CG321   CG321   NG321     9  0.000000e+00  1.631760e+00      2
  CG301   CG321   CG321   NG321     9  1.800000e+02  6.694400e-01      1
  CG301   CG321   CG321   OG301     9  0.000000e+00  1.631760e+00      2
  CG301   CG321   CG321   OG301     9  1.800000e+02  6.694400e-01      1
  CG301   CG321   CG321   OG311     9  0.000000e+00  8.158800e-01      3
  CG301   CG321   CG321  OG3C61     9  0.000000e+00  2.510400e+00      3
  CG301   CG321   CG321  OG3C61     9  1.800000e+02  3.347200e-01      4
  CG301   CG321   CG321  OG3C61     9  1.800000e+02  7.949600e-01      1
  CG301   CG321   CG321  OG3C61     9  1.800000e+02  4.184000e+00      2
  CG301   CG321   CG331    HGA3     9  0.000000e+00  6.694400e-01      3
  CG301   CG321   OG301   CG321     9  0.000000e+00  1.213360e+00      2
  CG301   CG321   OG301   CG321     9  0.000000e+00  1.799120e+00      3
  CG301   CG321   OG301   CG321     9  0.000000e+00  2.384880e+00      1
  CG301   CG321   OG311    HGP1     9  0.000000e+00  5.857600e-01      2
  CG301   CG321   OG311    HGP1     9  0.000000e+00  1.004160e+00      3
  CG301   CG321   OG311    HGP1     9  0.000000e+00  4.727920e+00      1
  CG311   CG2O5   CG2O5   CG321     9  0.000000e+00  1.255200e-01      2
  CG311   CG2O5   CG2O5   CG321     9  0.000000e+00  8.368000e-01      4
  CG311   CG2O5   CG2O5   OG2D3     9  0.000000e+00  4.184000e-02      4
  CG311   CG2O5   CG2O5   OG2D3     9  1.800000e+02  8.116960e+00      2
  CG311   CG2O5  CG2R61  CG2R61     9  1.800000e+02  6.631640e+00      2
  CG311   CG2O5   CG301   CG321     9  0.000000e+00  1.338880e+00      3
  CG311   CG2O5   CG301   CG321     9  0.000000e+00  3.179840e+00      6
  CG311   CG2O5   CG301   CG321     9  1.800000e+02  0.000000e+00      1
  CG311   CG2O5   CG301   CG321     9  1.800000e+02  1.046000e+00      2
  CG311   CG2O5   CG311   CG311     9  0.000000e+00  1.255200e-01      6
  CG311   CG2O5   CG311   CG311     9  0.000000e+00  2.928800e-01      3
  CG311   CG2O5   CG311   CG311     9  0.000000e+00  3.138000e+00      1
  CG311   CG2O5   CG311   CG311     9  1.800000e+02  7.531200e-01      2
  CG311   CG2O5   CG311   CG321     9  0.000000e+00  1.255200e-01      6
  CG311   CG2O5   CG311   CG321     9  0.000000e+00  2.928800e-01      3
  CG311   CG2O5   CG311   CG321     9  0.000000e+00  3.138000e+00      1
  CG311   CG2O5   CG311   CG321     9  1.800000e+02  7.531200e-01      2
  CG311   CG2O5   CG311    HGA1     9  0.000000e+00  4.184000e-01      3
  CG311   CG2O5   CG311   NG321     9  0.000000e+00  2.092000e-01      6
  CG311   CG2O5   CG311   NG321     9  0.000000e+00  3.347200e-01      2
  CG311   CG2O5   CG311   NG321     9  1.800000e+02  2.510400e-01      4
  CG311   CG2O5   CG311   NG321     9  1.800000e+02  3.347200e-01      3
  CG311   CG2O5   CG311   NG321     9  1.800000e+02  6.276000e-01      1
  CG311   CG2O5   CG321   CG2O5     9  0.000000e+00  5.020800e-01      1
  CG311   CG2O5   CG321   CG2O5     9  0.000000e+00  1.799120e+00      4
  CG311   CG2O5   CG321   CG2O5     9  0.000000e+00  9.999760e+00      2
  CG311   CG2O5   CG321   CG2O5     9  1.800000e+02  1.631760e+00      6
  CG311   CG2O5   CG321   CG2O5     9  1.800000e+02  4.727920e+00      3
  CG311   CG2O5   CG321   CG301     9  0.000000e+00  1.255200e-01      6
  CG311   CG2O5   CG321   CG301     9  0.000000e+00  2.928800e-01      3
  CG311   CG2O5   CG321   CG301     9  0.000000e+00  3.138000e+00      1
  CG311   CG2O5   CG321   CG301     9  1.800000e+02  7.531200e-01      2
  CG311   CG2O5   CG321   CG311     9  0.000000e+00  1.255200e-01      6
  CG311   CG2O5   CG321   CG311     9  0.000000e+00  2.928800e-01      3
  CG311   CG2O5   CG321   CG311     9  0.000000e+00  3.138000e+00      1
  CG311   CG2O5   CG321   CG311     9  1.800000e+02  7.531200e-01      2
  CG311   CG2O5   CG321   CG321     9  0.000000e+00  1.255200e-01      6
  CG311   CG2O5   CG321   CG321     9  0.000000e+00  2.719600e-01      3
  CG311   CG2O5   CG321   CG321     9  0.000000e+00  2.928800e-01      3
  CG311   CG2O5   CG321   CG321     9  0.000000e+00  3.138000e+00      1
  CG311   CG2O5   CG321   CG321     9  1.800000e+02  7.531200e-01      2
  CG311   CG2O5   CG321   CG331     9  0.000000e+00  1.255200e-01      6
  CG311   CG2O5   CG321   CG331     9  0.000000e+00  2.719600e-01      3
  CG311   CG2O5   CG321   CG331     9  0.000000e+00  3.138000e+00      1
  CG311   CG2O5   CG321   CG331     9  1.800000e+02  7.531200e-01      2
  CG311   CG2O5   CG321    HGA2     9  0.000000e+00  4.184000e-01      3
  CG311   CG2O5   CG331    HGA3     9  0.000000e+00  4.184000e-01      3
  CG311  CG2R61  CG2R61   CG311     9  1.800000e+02  1.004160e+01      2
  CG311  CG2R61  CG2R61   CG321     9  1.800000e+02  1.004160e+01      2
  CG311  CG2R61  CG2R61   CG331     9  1.800000e+02  1.004160e+01      2
  CG311  CG2R61  CG2R61   HGR61     9  1.800000e+02  1.004160e+01      2
  CG311  CG2R61  CG2R61   OG301     9  1.800000e+02  1.004160e+01      2
  CG311  CG2R61  CG2R61   OG311     9  1.800000e+02  1.004160e+01      2
  CG311   CG301   CG301   CG311     9  0.000000e+00  8.368000e-01      3
  CG311   CG301   CG301   CG321     9  0.000000e+00  8.368000e-01      3
  CG311   CG301   CG301   CG331     9  0.000000e+00  8.368000e-01      3
  CG311   CG301   CG311   CG301     9  0.000000e+00  8.368000e-01      3
  CG311   CG301   CG311   CG311     9  0.000000e+00  8.368000e-01      3
  CG311   CG301   CG311   CG321     9  0.000000e+00  8.368000e-01      3
  CG311   CG301   CG311    HGA1     9  0.000000e+00  8.158800e-01      3
  CG311   CG301   CG321   CG311     9  0.000000e+00  8.368000e-01      3
  CG311   CG301   CG321   CG321     9  0.000000e+00  8.368000e-01      3
  CG311   CG301   CG321   CG331     9  0.000000e+00  8.368000e-01      3
  CG311   CG301   CG321    HGA2     9  0.000000e+00  8.158800e-01      3
  CG311   CG301   CG321   OG311     9  0.000000e+00  5.857600e-01      3
  CG311   CG301   CG331    HGA3     9  0.000000e+00  6.694400e-01      3
  CG311   CG301   NG321  HGPAM2     9  0.000000e+00  1.673600e+00      3
  CG311   CG301   NG321  HGPAM2     9  1.800000e+02  2.092000e+00      1
  CG311   CG301   OG311    HGP1     9  0.000000e+00  5.857600e-01      2
  CG311   CG301   OG311    HGP1     9  0.000000e+00  1.004160e+00      3
  CG311   CG301   OG311    HGP1     9  0.000000e+00  4.727920e+00      1
  CG311   CG301  OG3C61   CG311     9  0.000000e+00  6.276000e-01      4
  CG311   CG301  OG3C61   CG311     9  0.000000e+00  2.845120e+00      2
  CG311   CG301  OG3C61   CG311     9  1.800000e+02  8.786400e-01      3
  CG311   CG301  OG3C61   CG311     9  1.800000e+02  2.217520e+00      1
  CG311   CG311   CG311   CG311     9  1.800000e+02  2.092000e+00      4
  CG311   CG311   CG311   CG321     9  1.800000e+02  2.092000e+00      4
  CG311   CG311   CG311   CG331     9  1.800000e+02  2.092000e+00      4
  CG311   CG311   CG311    HGA1     9  0.000000e+00  8.158800e-01      3
  CG311   CG311   CG311   NG321     9  0.000000e+00  1.673600e+00      1
  CG311   CG311   CG311   NG321     9  0.000000e+00  3.347200e+00      3
  CG311   CG311   CG311   OG301     9  0.000000e+00  1.631760e+00      2
  CG311   CG311   CG311   OG301     9  1.800000e+02  6.694400e-01      1
  CG311   CG311   CG311   OG311     9  0.000000e+00  5.857600e-01      3
  CG311   CG311   CG311  OG3C61     9  0.000000e+00  2.510400e+00      3
  CG311   CG311   CG311  OG3C61     9  1.800000e+02  3.347200e-01      4
  CG311   CG311   CG311  OG3C61     9  1.800000e+02  7.949600e-01      1
  CG311   CG311   CG311  OG3C61     9  1.800000e+02  4.184000e+00      2
  CG311   CG311   CG321   CG2O5     9  0.000000e+00  4.602400e-01      4
  CG311   CG311   CG321   CG2O5     9  0.000000e+00  8.368000e-01      3
  CG311   CG311   CG321   CG2O5     9  0.000000e+00  1.631760e+00      2
  CG311   CG311   CG321   CG2O5     9  1.800000e+02  3.765600e-01      6
  CG311   CG311   CG321   CG2O5     9  1.800000e+02  8.786400e-01      1
  CG311   CG311   CG321   CG2O5     9  1.800000e+02  1.464400e+00      3
  CG311   CG311   CG321   CG301     9  0.000000e+00  8.368000e-01      3
  CG311   CG311   CG321   CG311     9  0.000000e+00  8.368000e-01      3
  CG311   CG311   CG321   CG321     9  0.000000e+00  8.368000e-01      3
  CG311   CG311   CG321   CG331     9  0.000000e+00  8.368000e-01      3
  CG311   CG311   CG321    HGA2     9  0.000000e+00  8.158800e-01      3
  CG311   CG311   CG321   NG321     9  1.800000e+02  8.368000e-01      3
  CG311   CG311   CG321   OG301     9  1.800000e+02  8.368000e-01      3
  CG311   CG311   CG321   OG311     9  1.800000e+02  8.368000e-01      3
  CG311   CG311   CG321  OG3C61     9  0.000000e+00  2.510400e+00      3
  CG311   CG311   CG321  OG3C61     9  1.800000e+02  3.347200e-01      4
  CG311   CG311   CG321  OG3C61     9  1.800000e+02  7.949600e-01      1
  CG311   CG311   CG321  OG3C61     9  1.800000e+02  4.184000e+00      2
  CG311   CG311   CG331    HGA3     9  0.000000e+00  8.368000e-01      3
  CG311   CG311   NG321  HGPAM2     9  0.000000e+00  1.673600e+00      3
  CG311   CG311   NG321  HGPAM2     9  1.800000e+02  2.092000e+00      1
  CG311   CG311   OG301   CG321     9  0.000000e+00  1.673600e+00      1
  CG311   CG311   OG301   CG321     9  0.000000e+00  2.050160e+00      3
  CG311   CG311   OG301   CG331     9  0.000000e+00  1.673600e+00      1
  CG311   CG311   OG301   CG331     9  0.000000e+00  2.050160e+00      3
  CG311   CG311   OG301   OG311     9  0.000000e+00  2.092000e+00      3
  CG311   CG311   OG301   OG311     9  1.800000e+02  4.602400e+00      1
  CG311   CG311   OG311    HGP1     9  0.000000e+00  7.531200e-01      2
  CG311   CG311   OG311    HGP1     9  0.000000e+00  1.924640e+00      3
  CG311   CG311   OG311    HGP1     9  0.000000e+00  5.564720e+00      1
  CG311   CG311  OG3C61   CG311     9  0.000000e+00  6.276000e-01      4
  CG311   CG311  OG3C61   CG311     9  0.000000e+00  2.845120e+00      2
  CG311   CG311  OG3C61   CG311     9  1.800000e+02  8.786400e-01      3
  CG311   CG311  OG3C61   CG311     9  1.800000e+02  2.217520e+00      1
  CG311   CG311  OG3C61   CG321     9  0.000000e+00  6.276000e-01      4
  CG311   CG311  OG3C61   CG321     9  0.000000e+00  2.845120e+00      2
  CG311   CG311  OG3C61   CG321     9  1.800000e+02  8.786400e-01      3
  CG311   CG311  OG3C61   CG321     9  1.800000e+02  2.217520e+00      1
  CG311   CG321   CG321   CG311     9  0.000000e+00  8.158800e-01      3
  CG311   CG321   CG321   CG321     9  0.000000e+00  2.092000e+00      3
  CG311   CG321   CG321   CG321     9  1.800000e+02  2.092000e+00      6
  CG311   CG321   CG321   CG331     9  0.000000e+00  4.527088e-01      4
  CG311   CG321   CG321   CG331     9  0.000000e+00  6.296920e-01      2
  CG311   CG321   CG321   CG331     9  0.000000e+00  8.531176e-01      5
  CG311   CG321   CG321   CG331     9  1.800000e+02  3.401592e-01      3
  CG311   CG321   CG321    HGA2     9  0.000000e+00  8.158800e-01      3
  CG311   CG321   CG321   NG321     9  0.000000e+00  1.631760e+00      2
  CG311   CG321   CG321   NG321     9  1.800000e+02  6.694400e-01      1
  CG311   CG321   CG321   OG301     9  0.000000e+00  1.631760e+00      2
  CG311   CG321   CG321   OG301     9  1.800000e+02  6.694400e-01      1
  CG311   CG321   CG321   OG311     9  0.000000e+00  8.158800e-01      3
  CG311   CG321   CG321  OG3C61     9  0.000000e+00  2.510400e+00      3
  CG311   CG321   CG321  OG3C61     9  1.800000e+02  3.347200e-01      4
  CG311   CG321   CG321  OG3C61     9  1.800000e+02  7.949600e-01      1
  CG311   CG321   CG321  OG3C61     9  1.800000e+02  4.184000e+00      2
  CG311   CG321   CG331    HGA3     9  0.000000e+00  6.694400e-01      3
  CG311   CG321   NG321  HGPAM2     9  0.000000e+00  3.347200e+00      3
  CG311   CG321   OG301   CG301     9  0.000000e+00  1.213360e+00      2
  CG311   CG321   OG301   CG301     9  0.000000e+00  1.799120e+00      3
  CG311   CG321   OG301   CG301     9  0.000000e+00  2.384880e+00      1
  CG311   CG321   OG301   CG331     9  0.000000e+00  1.213360e+00      2
  CG311   CG321   OG301   CG331     9  0.000000e+00  1.799120e+00      3
  CG311   CG321   OG301   CG331     9  0.000000e+00  2.384880e+00      1
  CG311   CG321   OG311    HGP1     9  0.000000e+00  5.857600e-01      2
  CG311   CG321   OG311    HGP1     9  0.000000e+00  1.004160e+00      3
  CG311   CG321   OG311    HGP1     9  0.000000e+00  4.727920e+00      1
  CG311   CG321  OG3C61   CG301     9  0.000000e+00  6.276000e-01      4
  CG311   CG321  OG3C61   CG301     9  0.000000e+00  2.845120e+00      2
  CG311   CG321  OG3C61   CG301     9  1.800000e+02  8.786400e-01      3
  CG311   CG321  OG3C61   CG301     9  1.800000e+02  2.217520e+00      1
  CG311   CG321  OG3C61   CG311     9  0.000000e+00  6.276000e-01      4
  CG311   CG321  OG3C61   CG311     9  0.000000e+00  2.845120e+00      2
  CG311   CG321  OG3C61   CG311     9  1.800000e+02  8.786400e-01      3
  CG311   CG321  OG3C61   CG311     9  1.800000e+02  2.217520e+00      1
  CG311   CG321  OG3C61   CG321     9  0.000000e+00  6.276000e-01      4
  CG311   CG321  OG3C61   CG321     9  0.000000e+00  2.845120e+00      2
  CG311   CG321  OG3C61   CG321     9  1.800000e+02  8.786400e-01      3
  CG311   CG321  OG3C61   CG321     9  1.800000e+02  2.217520e+00      1
  CG311   OG301   OG311    HGP1     9  0.000000e+00  5.020800e-01      3
  CG311   OG301   OG311    HGP1     9  0.000000e+00  1.673600e+00      1
  CG311   OG301   OG311    HGP1     9  0.000000e+00  4.811600e+00      2
  CG321   CG2O5   CG2O5   CG321     9  1.800000e+02  5.857600e+00      2
  CG321   CG2O5   CG2O5   OG2D3     9  1.800000e+02  4.602400e-01      2
  CG321   CG2O5   CG2O5   OG2D3     9  1.800000e+02  7.949600e-01      4
  CG321   CG2O5   CG2O5   OG2D3     9  1.800000e+02  5.857600e+00      2
  CG321   CG2O5  CG2R61  CG2R61     9  1.800000e+02  1.129680e+00      2
  CG321   CG2O5   CG301   CG321     9  0.000000e+00  1.255200e-01      6
  CG321   CG2O5   CG301   CG321     9  0.000000e+00  2.719600e-01      3
  CG321   CG2O5   CG301   CG321     9  0.000000e+00  2.928800e-01      1
  CG321   CG2O5   CG301   CG321     9  0.000000e+00  1.129680e+00      3
  CG321   CG2O5   CG301   CG321     9  0.000000e+00  1.799120e+00      6
  CG321   CG2O5   CG301   CG321     9  0.000000e+00  3.138000e+00      1
  CG321   CG2O5   CG301   CG321     9  0.000000e+00  7.154640e+00      2
  CG321   CG2O5   CG301   CG321     9  1.800000e+02  7.531200e-01      2
  CG321   CG2O5   CG301   CG331     9  0.000000e+00  4.184000e-02      6
  CG321   CG2O5   CG301   CG331     9  0.000000e+00  1.255200e-01      1
  CG321   CG2O5   CG301   CG331     9  0.000000e+00  1.255200e-01      6
  CG321   CG2O5   CG301   CG331     9  0.000000e+00  2.719600e-01      3
  CG321   CG2O5   CG301   CG331     9  0.000000e+00  1.338880e+00      4
  CG321   CG2O5   CG301   CG331     9  0.000000e+00  3.138000e+00      1
  CG321   CG2O5   CG301   CG331     9  1.800000e+02  3.347200e-01      2
  CG321   CG2O5   CG301   CG331     9  1.800000e+02  7.531200e-01      2
  CG321   CG2O5   CG301   CG331     9  1.800000e+02  1.422560e+00      3
  CG321   CG2O5   CG301   OG311     9  0.000000e+00  7.949600e-01      3
  CG321   CG2O5   CG301   OG311     9  0.000000e+00  1.422560e+00      6
  CG321   CG2O5   CG301   OG311     9  1.800000e+02  2.510400e-01      1
  CG321   CG2O5   CG301   OG311     9  1.800000e+02  1.799120e+00      2
  CG321   CG2O5   CG311   CG2O5     9  0.000000e+00  1.255200e-01      6
  CG321   CG2O5   CG311   CG2O5     9  0.000000e+00  2.719600e-01      3
  CG321   CG2O5   CG311   CG2O5     9  0.000000e+00  1.046000e+00      2
  CG321   CG2O5   CG311   CG2O5     9  0.000000e+00  3.138000e+00      1
  CG321   CG2O5   CG311   CG2O5     9  1.800000e+02  1.673600e-01      4
  CG321   CG2O5   CG311   CG2O5     9  1.800000e+02  3.347200e-01      1
  CG321   CG2O5   CG311   CG2O5     9  1.800000e+02  7.531200e-01      2
  CG321   CG2O5   CG311  CG2R61     9  0.000000e+00  0.000000e+00      2
  CG321   CG2O5   CG311  CG2R61     9  0.000000e+00  1.255200e-01      6
  CG321   CG2O5   CG311  CG2R61     9  0.000000e+00  2.719600e-01      3
  CG321   CG2O5   CG311  CG2R61     9  0.000000e+00  3.138000e+00      1
  CG321   CG2O5   CG311  CG2R61     9  1.800000e+02  2.092000e-01      3
  CG321   CG2O5   CG311  CG2R61     9  1.800000e+02  7.531200e-01      2
  CG321   CG2O5   CG311   CG311     9  0.000000e+00  1.255200e-01      6
  CG321   CG2O5   CG311   CG311     9  0.000000e+00  2.928800e-01      3
  CG321   CG2O5   CG311   CG311     9  0.000000e+00  3.138000e+00      1
  CG321   CG2O5   CG311   CG311     9  1.800000e+02  7.531200e-01      2
  CG321   CG2O5   CG311   CG321     9  0.000000e+00  1.255200e-01      6
  CG321   CG2O5   CG311   CG321     9  0.000000e+00  2.719600e-01      3
  CG321   CG2O5   CG311   CG321     9  0.000000e+00  2.928800e-01      3
  CG321   CG2O5   CG311   CG321     9  0.000000e+00  3.138000e+00      1
  CG321   CG2O5   CG311   CG321     9  1.800000e+02  7.531200e-01      2
  CG321   CG2O5   CG311   CG331     9  0.000000e+00  1.255200e-01      6
  CG321   CG2O5   CG311   CG331     9  0.000000e+00  2.719600e-01      3
  CG321   CG2O5   CG311   CG331     9  0.000000e+00  2.928800e-01      3
  CG321   CG2O5   CG311   CG331     9  0.000000e+00  3.138000e+00      1
  CG321   CG2O5   CG311   CG331     9  1.800000e+02  7.531200e-01      2
  CG321   CG2O5   CG311    HGA1     9  0.000000e+00  4.184000e-01      3
  CG321   CG2O5   CG311   OG311     9  0.000000e+00  1.255200e-01      6
  CG321   CG2O5   CG311   OG311     9  0.000000e+00  2.719600e-01      3
  CG321   CG2O5   CG311   OG311     9  0.000000e+00  1.129680e+00      6
  CG321   CG2O5   CG311   OG311     9  0.000000e+00  2.510400e+00      1
  CG321   CG2O5   CG311   OG311     9  0.000000e+00  3.138000e+00      1
  CG321   CG2O5   CG311   OG311     9  1.800000e+02  3.347200e-01      2
  CG321   CG2O5   CG311   OG311     9  1.800000e+02  4.602400e-01      3
  CG321   CG2O5   CG311   OG311     9  1.800000e+02  7.531200e-01      2
  CG321   CG2O5   CG311  OG3C61     9  0.000000e+00  1.129680e+00      6
  CG321   CG2O5   CG311  OG3C61     9  0.000000e+00  3.305360e+00      2
  CG321   CG2O5   CG311  OG3C61     9  1.800000e+02  2.092000e-01      1
  CG321   CG2O5   CG311  OG3C61     9  1.800000e+02  6.694400e-01      3
  CG321   CG2O5   CG311  OG3C61     9  1.800000e+02  3.012480e+00      4
  CG321   CG2O5   CG321   CG2O5     9  0.000000e+00  0.000000e+00      1
  CG321   CG2O5   CG321   CG2O5     9  0.000000e+00  1.129680e+00      4
  CG321   CG2O5   CG321   CG2O5     9  0.000000e+00  1.757280e+00      2
  CG321   CG2O5   CG321   CG2O5     9  1.800000e+02  6.276000e-01      6
  CG321   CG2O5   CG321   CG2O5     9  1.800000e+02  3.054320e+00      3
  CG321   CG2O5   CG321   CG301     9  0.000000e+00  1.255200e-01      6
  CG321   CG2O5   CG321   CG301     9  0.000000e+00  2.719600e-01      3
  CG321   CG2O5   CG321   CG301     9  0.000000e+00  2.928800e-01      3
  CG321   CG2O5   CG321   CG301     9  0.000000e+00  3.138000e+00      1
  CG321   CG2O5   CG321   CG301     9  1.800000e+02  7.531200e-01      2
  CG321   CG2O5   CG321   CG311     9  0.000000e+00  1.255200e-01      6
  CG321   CG2O5   CG321   CG311     9  0.000000e+00  2.719600e-01      3
  CG321   CG2O5   CG321   CG311     9  0.000000e+00  2.928800e-01      3
  CG321   CG2O5   CG321   CG311     9  0.000000e+00  3.138000e+00      1
  CG321   CG2O5   CG321   CG311     9  1.800000e+02  7.531200e-01      2
  CG321   CG2O5   CG321   CG321     9  0.000000e+00  1.255200e-01      6
  CG321   CG2O5   CG321   CG321     9  0.000000e+00  2.719600e-01      3
  CG321   CG2O5   CG321   CG321     9  0.000000e+00  3.138000e+00      1
  CG321   CG2O5   CG321   CG321     9  1.800000e+02  7.531200e-01      2
  CG321   CG2O5   CG321   CG331     9  0.000000e+00  1.255200e-01      6
  CG321   CG2O5   CG321   CG331     9  0.000000e+00  2.719600e-01      3
  CG321   CG2O5   CG321   CG331     9  0.000000e+00  3.138000e+00      1
  CG321   CG2O5   CG321   CG331     9  1.800000e+02  7.531200e-01      2
  CG321   CG2O5   CG321    HGA2     9  0.000000e+00  4.184000e-01      3
  CG321   CG2O5   CG331    HGA3     9  0.000000e+00  4.184000e-01      3
  CG321  CG2R61  CG2R61   CG321     9  1.800000e+02  1.004160e+01      2
  CG321  CG2R61  CG2R61   CG331     9  1.800000e+02  1.004160e+01      2
  CG321  CG2R61  CG2R61   HGR61     9  1.800000e+02  1.004160e+01      2
  CG321  CG2R61  CG2R61   OG301     9  1.800000e+02  1.004160e+01      2
  CG321  CG2R61  CG2R61   OG311     9  1.800000e+02  1.004160e+01      2
  CG321   CG301   CG301   CG321     9  0.000000e+00  8.368000e-01      3
  CG321   CG301   CG301   CG331     9  0.000000e+00  8.368000e-01      3
  CG321   CG301   CG301   OG311     9  0.000000e+00  5.857600e-01      3
  CG321   CG301   CG301  OG3C61     9  1.800000e+02  3.681920e+00      3
  CG321   CG301   CG311   CG301     9  0.000000e+00  8.368000e-01      3
  CG321   CG301   CG311   CG311     9  0.000000e+00  8.368000e-01      3
  CG321   CG301   CG311   CG321     9  0.000000e+00  8.368000e-01      3
  CG321   CG301   CG311   CG331     9  0.000000e+00  8.368000e-01      3
  CG321   CG301   CG311    HGA1     9  0.000000e+00  8.158800e-01      3
  CG321   CG301   CG311   NG321     9  0.000000e+00  1.673600e+00      1
  CG321   CG301   CG311   NG321     9  0.000000e+00  3.347200e+00      3
  CG321   CG301   CG311   OG311     9  0.000000e+00  5.857600e-01      3
  CG321   CG301   CG311  OG3C61     9  0.000000e+00  1.966480e+00      3
  CG321   CG301   CG311  OG3C61     9  0.000000e+00  3.556400e+00      4
  CG321   CG301   CG311  OG3C61     9  0.000000e+00  4.435040e+00      2
  CG321   CG301   CG311  OG3C61     9  1.800000e+02  7.322000e+00      1
  CG321   CG301   CG321   CG2O5     9  0.000000e+00  4.602400e-01      4
  CG321   CG301   CG321   CG2O5     9  0.000000e+00  8.368000e-01      3
  CG321   CG301   CG321   CG2O5     9  0.000000e+00  1.631760e+00      2
  CG321   CG301   CG321   CG2O5     9  1.800000e+02  3.765600e-01      6
  CG321   CG301   CG321   CG2O5     9  1.800000e+02  8.786400e-01      1
  CG321   CG301   CG321   CG2O5     9  1.800000e+02  1.464400e+00      3
  CG321   CG301   CG321  CG2R61     9  0.000000e+00  1.673600e-01      3
  CG321   CG301   CG321   CG301     9  0.000000e+00  8.368000e-01      3
  CG321   CG301   CG321   CG311     9  0.000000e+00  8.368000e-01      3
  CG321   CG301   CG321   CG321     9  0.000000e+00  8.368000e-01      3
  CG321   CG301   CG321   CG331     9  0.000000e+00  8.368000e-01      3
  CG321   CG301   CG321    HGA2     9  0.000000e+00  8.158800e-01      3
  CG321   CG301   CG321   OG301     9  1.800000e+02  8.368000e-01      3
  CG321   CG301   CG321   OG311     9  0.000000e+00  5.857600e-01      3
  CG321   CG301   CG321   OG311     9  1.800000e+02  8.368000e-01      3
  CG321   CG301   CG331    HGA3     9  0.000000e+00  6.694400e-01      3
  CG321   CG301   NG321  HGPAM2     9  0.000000e+00  1.673600e+00      3
  CG321   CG301   OG301   CG321     9  0.000000e+00  2.050160e+00      3
  CG321   CG301   OG301   CG321     9  0.000000e+00  4.811600e+00      1
  CG321   CG301   OG301   CG321     9  1.800000e+02  9.623200e-01      2
  CG321   CG301   OG301   CG331     9  0.000000e+00  2.050160e+00      3
  CG321   CG301   OG301   CG331     9  0.000000e+00  4.811600e+00      1
  CG321   CG301   OG301   CG331     9  1.800000e+02  9.623200e-01      2
  CG321   CG301   OG311    HGP1     9  0.000000e+00  5.857600e-01      2
  CG321   CG301   OG311    HGP1     9  0.000000e+00  1.004160e+00      3
  CG321   CG301   OG311    HGP1     9  0.000000e+00  4.727920e+00      1
  CG321   CG301  OG3C61   CG301     9  0.000000e+00  6.276000e-01      4
  CG321   CG301  OG3C61   CG301     9  0.000000e+00  2.845120e+00      2
  CG321   CG301  OG3C61   CG301     9  1.800000e+02  8.786400e-01      3
  CG321   CG301  OG3C61   CG301     9  1.800000e+02  2.217520e+00      1
  CG321   CG301  OG3C61   CG311     9  0.000000e+00  6.276000e-01      4
  CG321   CG301  OG3C61   CG311     9  0.000000e+00  2.845120e+00      2
  CG321   CG301  OG3C61   CG311     9  1.800000e+02  8.786400e-01      3
  CG321   CG301  OG3C61   CG311     9  1.800000e+02  2.217520e+00      1
  CG321   CG301  OG3C61   CG321     9  0.000000e+00  6.276000e-01      4
  CG321   CG301  OG3C61   CG321     9  0.000000e+00  2.845120e+00      2
  CG321   CG301  OG3C61   CG321     9  1.800000e+02  8.786400e-01      3
  CG321   CG301  OG3C61   CG321     9  1.800000e+02  2.217520e+00      1
  CG321   CG311   CG311   CG321     9  1.800000e+02  2.092000e+00      4
  CG321   CG311   CG311   CG331     9  1.800000e+02  2.092000e+00      4
  CG321   CG311   CG311    HGA1     9  0.000000e+00  8.158800e-01      3
  CG321   CG311   CG311   NG321     9  0.000000e+00  1.673600e+00      1
  CG321   CG311   CG311   NG321     9  0.000000e+00  3.347200e+00      3
  CG321   CG311   CG311   OG301     9  0.000000e+00  1.631760e+00      2
  CG321   CG311   CG311   OG301     9  1.800000e+02  6.694400e-01      1
  CG321   CG311   CG311   OG311     9  0.000000e+00  5.857600e-01      3
  CG321   CG311   CG311  OG3C61     9  0.000000e+00  2.510400e+00      3
  CG321   CG311   CG311  OG3C61     9  1.800000e+02  3.347200e-01      4
  CG321   CG311   CG311  OG3C61     9  1.800000e+02  7.949600e-01      1
  CG321   CG311   CG311  OG3C61     9  1.800000e+02  4.184000e+00      2
  CG321   CG311   CG321   CG2O5     9  0.000000e+00  4.602400e-01      4
  CG321   CG311   CG321   CG2O5     9  0.000000e+00  8.368000e-01      3
  CG321   CG311   CG321   CG2O5     9  0.000000e+00  1.631760e+00      2
  CG321   CG311   CG321   CG2O5     9  1.800000e+02  3.765600e-01      6
  CG321   CG311   CG321   CG2O5     9  1.800000e+02  8.786400e-01      1
  CG321   CG311   CG321   CG2O5     9  1.800000e+02  1.464400e+00      3
  CG321   CG311   CG321  CG2R61     9  0.000000e+00  1.673600e-01      3
  CG321   CG311   CG321   CG301     9  0.000000e+00  8.368000e-01      3
  CG321   CG311   CG321   CG311     9  0.000000e+00  8.368000e-01      3
  CG321   CG311   CG321   CG321     9  0.000000e+00  8.368000e-01      3
  CG321   CG311   CG321   CG331     9  0.000000e+00  8.368000e-01      3
  CG321   CG311   CG321    HGA2     9  0.000000e+00  8.158800e-01      1
  CG321   CG311   CG321   NG321     9  0.000000e+00  8.368000e-01      3
  CG321   CG311   CG321   OG301     9  1.800000e+02  8.368000e-01      3
  CG321   CG311   CG321   OG311     9  1.800000e+02  8.368000e-01      3
  CG321   CG311   CG321  OG3C61     9  0.000000e+00  2.510400e+00      3
  CG321   CG311   CG321  OG3C61     9  1.800000e+02  3.347200e-01      4
  CG321   CG311   CG321  OG3C61     9  1.800000e+02  7.949600e-01      1
  CG321   CG311   CG321  OG3C61     9  1.800000e+02  4.184000e+00      2
  CG321   CG311   NG321  HGPAM2     9  0.000000e+00  1.673600e+00      3
  CG321   CG311   OG301   CG311     9  0.000000e+00  1.673600e+00      1
  CG321   CG311   OG301   CG311     9  0.000000e+00  2.050160e+00      3
  CG321   CG311   OG301   CG331     9  0.000000e+00  1.673600e+00      1
  CG321   CG311   OG301   CG331     9  0.000000e+00  2.050160e+00      3
  CG321   CG311   OG301   OG311     9  0.000000e+00  2.092000e+00      3
  CG321   CG311   OG301   OG311     9  1.800000e+02  4.602400e+00      1
  CG321   CG311   OG311    HGP1     9  0.000000e+00  1.255200e+00      1
  CG321   CG311   OG311    HGP1     9  0.000000e+00  1.255200e+00      3
  CG321   CG311  OG3C61   CG301     9  0.000000e+00  6.276000e-01      4
  CG321   CG311  OG3C61   CG301     9  0.000000e+00  2.845120e+00      2
  CG321   CG311  OG3C61   CG301     9  1.800000e+02  8.786400e-01      3
  CG321   CG311  OG3C61   CG301     9  1.800000e+02  2.217520e+00      1
  CG321   CG311  OG3C61   CG311     9  0.000000e+00  6.276000e-01      4
  CG321   CG311  OG3C61   CG311     9  0.000000e+00  2.845120e+00      2
  CG321   CG311  OG3C61   CG311     9  1.800000e+02  8.786400e-01      3
  CG321   CG311  OG3C61   CG311     9  1.800000e+02  2.217520e+00      1
  CG321   CG311  OG3C61   CG321     9  0.000000e+00  6.276000e-01      4
  CG321   CG311  OG3C61   CG321     9  0.000000e+00  2.845120e+00      2
  CG321   CG311  OG3C61   CG321     9  1.800000e+02  8.786400e-01      3
  CG321   CG311  OG3C61   CG321     9  1.800000e+02  2.217520e+00      1
  CG321   CG321   CG321   CG321     9  0.000000e+00  2.698680e-01      2
  CG321   CG321   CG321   CG321     9  0.000000e+00  3.957227e-01      4
  CG321   CG321   CG321   CG321     9  0.000000e+00  4.707418e-01      5
  CG321   CG321   CG321   CG321     9  1.800000e+02  6.265540e-01      3
  CG321   CG321   CG321   CG331     9  0.000000e+00  4.528762e-01      4
  CG321   CG321   CG321   CG331     9  0.000000e+00  6.297338e-01      2
  CG321   CG321   CG321   CG331     9  0.000000e+00  8.531594e-01      5
  CG321   CG321   CG321   CG331     9  1.800000e+02  3.402847e-01      3
  CG321   CG321   CG321    HGA2     9  0.000000e+00  8.158800e-01      3
  CG321   CG321   CG321   NG321     9  0.000000e+00  1.631760e+00      2
  CG321   CG321   CG321   NG321     9  1.800000e+02  6.694400e-01      1
  CG321   CG321   CG321   OG301     9  0.000000e+00  1.631760e+00      2
  CG321   CG321   CG321   OG301     9  1.800000e+02  6.694400e-01      1
  CG321   CG321   CG321   OG311     9  0.000000e+00  8.158800e-01      3
  CG321   CG321   CG321  OG3C61     9  0.000000e+00  2.510400e+00      3
  CG321   CG321   CG321  OG3C61     9  1.800000e+02  3.347200e-01      4
  CG321   CG321   CG321  OG3C61     9  1.800000e+02  7.949600e-01      1
  CG321   CG321   CG321  OG3C61     9  1.800000e+02  4.184000e+00      2
  CG321   CG321   CG331    HGA3     9  0.000000e+00  6.694400e-01      3
  CG321   CG321   NG321  HGPAM2     9  0.000000e+00  3.347200e+00      3
  CG321   CG321   OG301  CG2R61     9  0.000000e+00  8.368000e-02      3
  CG321   CG321   OG301  CG2R61     9  0.000000e+00  1.004160e+00      1
  CG321   CG321   OG301  CG2R61     9  0.000000e+00  1.213360e+00      2
  CG321   CG321   OG301   CG301     9  0.000000e+00  1.213360e+00      2
  CG321   CG321   OG301   CG301     9  0.000000e+00  1.799120e+00      3
  CG321   CG321   OG301   CG301     9  0.000000e+00  2.384880e+00      1
  CG321   CG321   OG301   CG331     9  0.000000e+00  1.213360e+00      2
  CG321   CG321   OG301   CG331     9  0.000000e+00  1.799120e+00      3
  CG321   CG321   OG301   CG331     9  0.000000e+00  2.384880e+00      1
  CG321   CG321   OG301   NG321     9  1.800000e+02  1.758535e+00      1
  CG321   CG321   OG301   NG321     9  1.800000e+02  3.739241e+00      3
  CG321   CG321  OG3C61   CG301     9  0.000000e+00  6.276000e-01      4
  CG321   CG321  OG3C61   CG301     9  0.000000e+00  2.845120e+00      2
  CG321   CG321  OG3C61   CG301     9  1.800000e+02  8.786400e-01      3
  CG321   CG321  OG3C61   CG301     9  1.800000e+02  2.217520e+00      1
  CG321   CG321  OG3C61   CG311     9  0.000000e+00  6.276000e-01      4
  CG321   CG321  OG3C61   CG311     9  0.000000e+00  2.845120e+00      2
  CG321   CG321  OG3C61   CG311     9  1.800000e+02  8.786400e-01      3
  CG321   CG321  OG3C61   CG311     9  1.800000e+02  2.217520e+00      1
  CG321   CG321  OG3C61   CG321     9  0.000000e+00  6.276000e-01      4
  CG321   CG321  OG3C61   CG321     9  0.000000e+00  2.845120e+00      2
  CG321   CG321  OG3C61   CG321     9  1.800000e+02  8.786400e-01      3
  CG321   CG321  OG3C61   CG321     9  1.800000e+02  2.217520e+00      1
  CG331   CG2O5  CG2R61  CG2R61     9  1.800000e+02  1.046000e+00      2
  CG331   CG2O5   CG301   CG321     9  0.000000e+00  3.347200e-01      1
  CG331   CG2O5   CG301   CG321     9  0.000000e+00  4.602400e-01      3
  CG331   CG2O5   CG301   CG321     9  1.800000e+02  3.347200e-01      6
  CG331   CG2O5   CG301   CG321     9  1.800000e+02  3.723760e+00      2
  CG331   CG2O5   CG301   CG331     9  0.000000e+00  1.104576e+01      3
  CG331   CG2O5   CG301   CG331     9  1.800000e+02  3.765600e-01      2
  CG331   CG2O5   CG301   CG331     9  1.800000e+02  9.623200e-01      1
  CG331   CG2O5   CG301   CG331     9  1.800000e+02  9.623200e-01      6
  CG331   CG2O5   CG311   CG2O5     9  0.000000e+00  1.255200e-01      6
  CG331   CG2O5   CG311   CG2O5     9  0.000000e+00  2.719600e-01      3
  CG331   CG2O5   CG311   CG2O5     9  0.000000e+00  3.138000e+00      1
  CG331   CG2O5   CG311   CG2O5     9  1.800000e+02  7.531200e-01      2
  CG331   CG2O5   CG311   CG301     9  0.000000e+00  1.255200e-01      6
  CG331   CG2O5   CG311   CG301     9  0.000000e+00  2.928800e-01      3
  CG331   CG2O5   CG311   CG301     9  0.000000e+00  3.138000e+00      1
  CG331   CG2O5   CG311   CG301     9  1.800000e+02  7.531200e-01      2
  CG331   CG2O5   CG311   CG311     9  0.000000e+00  1.255200e-01      6
  CG331   CG2O5   CG311   CG311     9  0.000000e+00  2.719600e-01      3
  CG331   CG2O5   CG311   CG311     9  0.000000e+00  3.138000e+00      1
  CG331   CG2O5   CG311   CG311     9  1.800000e+02  7.531200e-01      2
  CG331   CG2O5   CG311   CG321     9  0.000000e+00  1.255200e-01      6
  CG331   CG2O5   CG311   CG321     9  0.000000e+00  2.719600e-01      3
  CG331   CG2O5   CG311   CG321     9  0.000000e+00  2.928800e-01      3
  CG331   CG2O5   CG311   CG321     9  0.000000e+00  3.138000e+00      1
  CG331   CG2O5   CG311   CG321     9  1.800000e+02  7.531200e-01      2
  CG331   CG2O5   CG311   CG331     9  0.000000e+00  1.255200e-01      6
  CG331   CG2O5   CG311   CG331     9  0.000000e+00  2.719600e-01      3
  CG331   CG2O5   CG311   CG331     9  0.000000e+00  3.138000e+00      1
  CG331   CG2O5   CG311   CG331     9  1.800000e+02  7.531200e-01      2
  CG331   CG2O5   CG311    HGA1     9  0.000000e+00  4.184000e-01      3
  CG331   CG2O5   CG311   OG301     9  0.000000e+00  1.255200e-01      6
  CG331   CG2O5   CG311   OG301     9  0.000000e+00  2.719600e-01      3
  CG331   CG2O5   CG311   OG301     9  0.000000e+00  3.138000e+00      1
  CG331   CG2O5   CG311   OG301     9  1.800000e+02  7.531200e-01      2
  CG331   CG2O5   CG311   OG311     9  0.000000e+00  1.255200e-01      6
  CG331   CG2O5   CG311   OG311     9  0.000000e+00  2.719600e-01      3
  CG331   CG2O5   CG311   OG311     9  0.000000e+00  3.138000e+00      1
  CG331   CG2O5   CG311   OG311     9  1.800000e+02  7.531200e-01      2
  CG331   CG2O5   CG321   CG321     9  0.000000e+00  1.255200e-01      6
  CG331   CG2O5   CG321   CG321     9  0.000000e+00  2.719600e-01      3
  CG331   CG2O5   CG321   CG321     9  0.000000e+00  3.138000e+00      1
  CG331   CG2O5   CG321   CG321     9  1.800000e+02  7.531200e-01      2
  CG331   CG2O5   CG321   CG331     9  0.000000e+00  1.255200e-01      6
  CG331   CG2O5   CG321   CG331     9  0.000000e+00  2.719600e-01      3
  CG331   CG2O5   CG321   CG331     9  0.000000e+00  3.138000e+00      1
  CG331   CG2O5   CG321   CG331     9  1.800000e+02  7.531200e-01      2
  CG331   CG2O5   CG321    HGA2     9  0.000000e+00  4.184000e-01      3
  CG331   CG2O5   CG331    HGA3     9  0.000000e+00  4.184000e-01      3
  CG331  CG2R61  CG2R61   CG331     9  1.800000e+02  1.004160e+01      2
  CG331  CG2R61  CG2R61   HGR61     9  1.800000e+02  1.004160e+01      2
  CG331  CG2R61  CG2R61   OG301     9  1.800000e+02  1.004160e+01      2
  CG331  CG2R61  CG2R61   OG311     9  1.800000e+02  1.004160e+01      2
  CG331   CG301   CG301   CG331     9  0.000000e+00  8.368000e-01      3
  CG331   CG301   CG301   OG311     9  0.000000e+00  5.857600e-01      3
  CG331   CG301   CG311   CG2O5     9  0.000000e+00  8.368000e-01      3
  CG331   CG301   CG311  CG2R61     9  0.000000e+00  2.928800e-01      3
  CG331   CG301   CG311   CG301     9  0.000000e+00  8.368000e-01      3
  CG331   CG301   CG311   CG311     9  0.000000e+00  8.368000e-01      3
  CG331   CG301   CG311   CG321     9  0.000000e+00  8.368000e-01      3
  CG331   CG301   CG311   CG331     9  0.000000e+00  8.368000e-01      3
  CG331   CG301   CG311    HGA1     9  0.000000e+00  8.158800e-01      3
  CG331   CG301   CG311   NG321     9  0.000000e+00  1.673600e+00      1
  CG331   CG301   CG311   NG321     9  0.000000e+00  3.347200e+00      3
  CG331   CG301   CG311   OG311     9  0.000000e+00  5.857600e-01      3
  CG331   CG301   CG321   CG2O5     9  0.000000e+00  4.602400e-01      4
  CG331   CG301   CG321   CG2O5     9  0.000000e+00  8.368000e-01      3
  CG331   CG301   CG321   CG2O5     9  0.000000e+00  1.631760e+00      2
  CG331   CG301   CG321   CG2O5     9  1.800000e+02  3.765600e-01      6
  CG331   CG301   CG321   CG2O5     9  1.800000e+02  8.786400e-01      1
  CG331   CG301   CG321   CG2O5     9  1.800000e+02  1.464400e+00      3
  CG331   CG301   CG321  CG2R61     9  0.000000e+00  1.673600e-01      3
  CG331   CG301   CG321   CG301     9  0.000000e+00  8.368000e-01      3
  CG331   CG301   CG321   CG311     9  0.000000e+00  8.368000e-01      3
  CG331   CG301   CG321   CG321     9  0.000000e+00  8.368000e-01      3
  CG331   CG301   CG321   CG331     9  0.000000e+00  1.840960e+00      1
  CG331   CG301   CG321   CG331     9  1.800000e+02  8.368000e-02      2
  CG331   CG301   CG321   CG331     9  1.800000e+02  3.054320e+00      3
  CG331   CG301   CG321    HGA2     9  0.000000e+00  8.158800e-01      3
  CG331   CG301   CG321   OG301     9  0.000000e+00  8.368000e-01      3
  CG331   CG301   CG321   OG311     9  1.800000e+02  8.368000e-01      3
  CG331   CG301   CG331    HGA3     9  0.000000e+00  6.694400e-01      3
  CG331   CG301   NG321  HGPAM2     9  0.000000e+00  1.673600e+00      3
  CG331   CG301   NG321  HGPAM2     9  0.000000e+00  2.092000e+00      1
  CG331   CG301   OG301   CG321     9  0.000000e+00  1.673600e+00      1
  CG331   CG301   OG301   CG321     9  0.000000e+00  2.050160e+00      3
  CG331   CG301   OG301   CG331     9  0.000000e+00  1.673600e+00      1
  CG331   CG301   OG301   CG331     9  0.000000e+00  2.050160e+00      3
  CG331   CG301   OG311    HGP1     9  0.000000e+00  5.857600e-01      2
  CG331   CG301   OG311    HGP1     9  0.000000e+00  1.004160e+00      3
  CG331   CG301   OG311    HGP1     9  0.000000e+00  4.727920e+00      1
  CG331   CG301  OG3C61   CG301     9  0.000000e+00  8.368000e-02      3
  CG331   CG301  OG3C61   CG301     9  0.000000e+00  8.368000e-02      4
  CG331   CG301  OG3C61   CG301     9  1.800000e+02  8.368000e-02      6
  CG331   CG301  OG3C61   CG301     9  1.800000e+02  2.719600e+00      2
  CG331   CG301  OG3C61   CG301     9  1.800000e+02  4.142160e+00      1
  CG331   CG301  OG3C61   CG311     9  0.000000e+00  6.276000e-01      4
  CG331   CG301  OG3C61   CG311     9  0.000000e+00  2.845120e+00      2
  CG331   CG301  OG3C61   CG311     9  1.800000e+02  8.786400e-01      3
  CG331   CG301  OG3C61   CG311     9  1.800000e+02  2.217520e+00      1
  CG331   CG301  OG3C61   CG321     9  0.000000e+00  6.276000e-01      4
  CG331   CG301  OG3C61   CG321     9  0.000000e+00  2.845120e+00      2
  CG331   CG301  OG3C61   CG321     9  1.800000e+02  8.786400e-01      3
  CG331   CG301  OG3C61   CG321     9  1.800000e+02  2.217520e+00      1
  CG331   CG311   CG311   CG331     9  1.800000e+02  2.092000e+00      4
  CG331   CG311   CG311    HGA1     9  0.000000e+00  8.158800e-01      3
  CG331   CG311   CG311   NG321     9  0.000000e+00  1.673600e+00      1
  CG331   CG311   CG311   NG321     9  0.000000e+00  3.347200e+00      3
  CG331   CG311   CG311   OG311     9  0.000000e+00  5.857600e-01      3
  CG331   CG311   CG311  OG3C61     9  0.000000e+00  2.510400e+00      3
  CG331   CG311   CG311  OG3C61     9  1.800000e+02  3.347200e-01      4
  CG331   CG311   CG311  OG3C61     9  1.800000e+02  7.949600e-01      1
  CG331   CG311   CG311  OG3C61     9  1.800000e+02  4.184000e+00      2
  CG331   CG311   CG321   CG2O5     9  0.000000e+00  4.602400e-01      4
  CG331   CG311   CG321   CG2O5     9  0.000000e+00  8.368000e-01      3
  CG331   CG311   CG321   CG2O5     9  0.000000e+00  1.631760e+00      2
  CG331   CG311   CG321   CG2O5     9  1.800000e+02  3.765600e-01      6
  CG331   CG311   CG321   CG2O5     9  1.800000e+02  8.786400e-01      1
  CG331   CG311   CG321   CG2O5     9  1.800000e+02  1.464400e+00      3
  CG331   CG311   CG321  CG2R61     9  0.000000e+00  1.673600e-01      3
  CG331   CG311   CG321   CG301     9  0.000000e+00  8.368000e-01      3
  CG331   CG311   CG321   CG311     9  0.000000e+00  8.368000e-01      3
  CG331   CG311   CG321   CG321     9  0.000000e+00  8.368000e-01      3
  CG331   CG311   CG321   CG331     9  0.000000e+00  8.368000e-01      3
  CG331   CG311   CG321   NG321     9  0.000000e+00  8.368000e-01      3
  CG331   CG311   CG321   OG311     9  1.800000e+02  8.368000e-01      3
  CG331   CG311   CG321  OG3C61     9  0.000000e+00  2.510400e+00      3
  CG331   CG311   CG321  OG3C61     9  1.800000e+02  3.347200e-01      4
  CG331   CG311   CG321  OG3C61     9  1.800000e+02  7.949600e-01      1
  CG331   CG311   CG321  OG3C61     9  1.800000e+02  4.184000e+00      2
  CG331   CG311   CG331    HGA3     9  0.000000e+00  8.158800e-01      3
  CG331   CG311   NG321  HGPAM2     9  0.000000e+00  1.673600e+00      3
  CG331   CG311   NG321  HGPAM2     9  0.000000e+00  2.092000e+00      1
  CG331   CG311   OG301  CG2R61     9  0.000000e+00  8.368000e-02      3
  CG331   CG311   OG301  CG2R61     9  0.000000e+00  1.004160e+00      1
  CG331   CG311   OG301  CG2R61     9  0.000000e+00  1.213360e+00      2
  CG331   CG311   OG301   CG331     9  0.000000e+00  1.673600e+00      1
  CG331   CG311   OG301   CG331     9  0.000000e+00  2.050160e+00      3
  CG331   CG311   OG301   OG311     9  0.000000e+00  2.092000e+00      3
  CG331   CG311   OG301   OG311     9  1.800000e+02  4.602400e+00      1
  CG331   CG311   OG311    HGP1     9  0.000000e+00  7.531200e-01      2
  CG331   CG311   OG311    HGP1     9  0.000000e+00  1.924640e+00      3
  CG331   CG311   OG311    HGP1     9  0.000000e+00  5.564720e+00      1
  CG331   CG311  OG3C61   CG301     9  0.000000e+00  6.276000e-01      4
  CG331   CG311  OG3C61   CG301     9  0.000000e+00  2.845120e+00      2
  CG331   CG311  OG3C61   CG301     9  1.800000e+02  8.786400e-01      3
  CG331   CG311  OG3C61   CG301     9  1.800000e+02  2.217520e+00      1
  CG331   CG311  OG3C61   CG311     9  0.000000e+00  6.276000e-01      4
  CG331   CG311  OG3C61   CG311     9  0.000000e+00  2.845120e+00      2
  CG331   CG311  OG3C61   CG311     9  1.800000e+02  8.786400e-01      3
  CG331   CG311  OG3C61   CG311     9  1.800000e+02  2.217520e+00      1
  CG331   CG311  OG3C61   CG321     9  0.000000e+00  6.276000e-01      4
  CG331   CG311  OG3C61   CG321     9  0.000000e+00  2.845120e+00      2
  CG331   CG311  OG3C61   CG321     9  1.800000e+02  8.786400e-01      3
  CG331   CG311  OG3C61   CG321     9  1.800000e+02  2.217520e+00      1
  CG331   CG321   CG321   CG331     9  0.000000e+00  1.597870e-01      2
  CG331   CG321   CG321   CG331     9  1.800000e+02  1.329675e-01      6
  CG331   CG321   CG321    HGA2     9  0.000000e+00  7.531200e-01      3
  CG331   CG321   CG321   NG321     9  0.000000e+00  1.631760e+00      2
  CG331   CG321   CG321   NG321     9  1.800000e+02  6.694400e-01      1
  CG331   CG321   CG321   OG301     9  0.000000e+00  1.631760e+00      2
  CG331   CG321   CG321   OG301     9  1.800000e+02  6.694400e-01      1
  CG331   CG321   CG321   OG311     9  0.000000e+00  8.158800e-01      3
  CG331   CG321   CG331    HGA3     9  0.000000e+00  6.694400e-01      3
  CG331   CG321   NG321  HGPAM2     9  0.000000e+00  4.184000e-01      3
  CG331   CG321   OG301  CG2R61     9  0.000000e+00  8.368000e-02      3
  CG331   CG321   OG301  CG2R61     9  0.000000e+00  1.004160e+00      1
  CG331   CG321   OG301  CG2R61     9  0.000000e+00  1.213360e+00      2
  CG331   CG321   OG301   CG301     9  0.000000e+00  1.673600e+00      1
  CG331   CG321   OG301   CG301     9  0.000000e+00  2.050160e+00      3
  CG331   CG321   OG301   CG311     9  0.000000e+00  1.673600e+00      1
  CG331   CG321   OG301   CG311     9  0.000000e+00  2.050160e+00      3
  CG331   CG321   OG301   CG321     9  0.000000e+00  1.673600e+00      1
  CG331   CG321   OG301   CG321     9  0.000000e+00  2.050160e+00      3
  CG331   CG321   OG301   CG331     9  0.000000e+00  1.673600e+00      1
  CG331   CG321   OG301   CG331     9  0.000000e+00  2.050160e+00      3
  CG331   CG321   OG301   NG321     9  1.800000e+02  1.758535e+00      1
  CG331   CG321   OG301   NG321     9  1.800000e+02  3.739241e+00      3
  CG331   CG321   OG311    HGP1     9  0.000000e+00  5.857600e-01      2
  CG331   CG321   OG311    HGP1     9  0.000000e+00  1.004160e+00      3
  CG331   CG321   OG311    HGP1     9  0.000000e+00  4.727920e+00      1
  CG331   OG301   OG311    HGP1     9  0.000000e+00  5.020800e-01      3
  CG331   OG301   OG311    HGP1     9  0.000000e+00  1.673600e+00      1
  CG331   OG301   OG311    HGP1     9  0.000000e+00  4.811600e+00      2
   HGA1   CG311   CG311    HGA1     9  0.000000e+00  8.158800e-01      3
   HGA1   CG311   CG321   CG2O5     9  0.000000e+00  8.368000e-01      3
   HGA1   CG311   CG321  CG2R61     9  0.000000e+00  1.673600e-01      3
   HGA1   CG311   CG321   CG301     9  0.000000e+00  8.158800e-01      3
   HGA1   CG311   CG321   CG311     9  0.000000e+00  8.158800e-01      3
   HGA1   CG311   CG321   CG321     9  0.000000e+00  8.158800e-01      3
   HGA1   CG311   CG321   CG331     9  0.000000e+00  8.368000e-01      3
   HGA1   CG311   CG321   NG321     9  0.000000e+00  7.531200e-01      3
   HGA1   CG311   CG321   OG311     9  0.000000e+00  8.158800e-01      3
   HGA1   CG311   CG321  OG3C61     9  0.000000e+00  8.368000e-01      3
   HGA1   CG311   NG321  HGPAM2     9  0.000000e+00  4.184000e-02      3
   HGA1   CG311   OG301  CG2R61     9  0.000000e+00  4.184000e-01      3
   HGA1   CG311   OG301   CG311     9  0.000000e+00  1.171520e+00      3
   HGA1   CG311   OG301   CG331     9  0.000000e+00  1.188256e+00      3
   HGA1   CG311   OG301   OG311     9  0.000000e+00  8.368000e-01      3
   HGA1   CG311   OG311    HGP1     9  0.000000e+00  0.000000e+00      3
   HGA1   CG311  OG3C61   CG301     9  0.000000e+00  8.368000e-01      3
   HGA1   CG311  OG3C61   CG311     9  0.000000e+00  8.368000e-01      3
   HGA1   CG311  OG3C61   CG321     9  0.000000e+00  8.158800e-01      3
   HGA2   CG321   CG331    HGA3     9  0.000000e+00  6.694400e-01      3
   HGA2   CG321   NG321  HGPAM2     9  0.000000e+00  4.184000e-02      3
   HGA2   CG321   OG301  CG2R61     9  0.000000e+00  3.974800e-01      3
   HGA2   CG321   OG301   CG301     9  0.000000e+00  1.171520e+00      3
   HGA2   CG321   OG301   CG301     9  0.000000e+00  1.188256e+00      3
   HGA2   CG321   OG301   CG331     9  0.000000e+00  1.188256e+00      3
   HGA2   CG321   OG301   NG321     9  0.000000e+00  3.568115e+00      3
   HGA2   CG321  OG3C61   CG301     9  0.000000e+00  8.368000e-01      3
   HGA2   CG321  OG3C61   CG311     9  0.000000e+00  8.158800e-01      3
   HGA2   CG321  OG3C61   CG321     9  0.000000e+00  8.158800e-01      3
   HGA3   CG331   CG331    HGA3     9  0.000000e+00  6.485200e-01      3
   HGA3   CG331   OG301  CG2R61     9  0.000000e+00  3.556400e-01      3
   HGA3   CG331   OG301   CG301     9  0.000000e+00  1.188256e+00      3
   HGA3   CG331   OG301   CG311     9  0.000000e+00  1.188256e+00      3
   HGA3   CG331   OG301   CG321     9  0.000000e+00  1.188256e+00      3
   HGA3   CG331   OG301   CG331     9  0.000000e+00  1.188256e+00      3
   HGA3   CG331   OG301   OG311     9  0.000000e+00  8.368000e-01      3
   HGA3   CG331   OG311    HGP1     9  0.000000e+00  7.531200e-01      3
   HGP1   NG321   OG301   CG321     9  1.800000e+02  5.217448e-01      3
  NG321   CG301   CG311   CG321     9  0.000000e+00  1.673600e+00      1
  NG321   CG301   CG311   CG321     9  0.000000e+00  3.347200e+00      3
  NG321   CG301   CG311    HGA1     9  0.000000e+00  2.092000e+00      3
  NG321   CG301   CG321   CG321     9  0.000000e+00  8.368000e-01      3
  NG321   CG301   CG321   CG331     9  0.000000e+00  8.368000e-01      3
  NG321   CG301   CG321    HGA2     9  0.000000e+00  6.694400e-01      3
  NG321   CG301   CG331    HGA3     9  0.000000e+00  6.694400e-01      3
  NG321   CG311   CG311    HGA1     9  0.000000e+00  2.092000e+00      3
  NG321   CG311   CG311   OG311     9  0.000000e+00  3.347200e+00      3
  NG321   CG311   CG311   OG311     9  1.800000e+02  1.673600e+00      1
  NG321   CG311   CG321   CG311     9  0.000000e+00  8.368000e-01      3
  NG321   CG311   CG321   CG321     9  0.000000e+00  8.158800e-01      3
  NG321   CG311   CG321    HGA2     9  0.000000e+00  6.694400e-01      3
  NG321   CG311   CG331    HGA3     9  0.000000e+00  6.694400e-01      3
  NG321   CG311  OG3C61   CG321     9  0.000000e+00  2.510400e-01      6
  NG321   CG311  OG3C61   CG321     9  1.800000e+02  0.000000e+00      3
  NG321   CG321   CG321    HGA2     9  0.000000e+00  5.230000e-01      3
  NG321   CG321   CG321   OG301     9  0.000000e+00  5.188160e+00      2
  NG321   CG321   CG321   OG301     9  1.800000e+02  1.046000e+00      1
  NG321   CG321   CG321   OG311     9  1.800000e+02  2.928800e+00      1
  NG321   CG321   CG331    HGA3     9  0.000000e+00  6.694400e-01      3
  OG2D3   CG2O5   CG2O5   OG2D3     9  1.800000e+02  9.773824e-01      2
  OG2D3   CG2O5  CG2R61  CG2R61     9  1.800000e+02  6.631640e+00      2
  OG2D3   CG2O5   CG301   CG321     9  0.000000e+00  8.368000e-02      1
  OG2D3   CG2O5   CG301   CG321     9  0.000000e+00  1.255200e-01      6
  OG2D3   CG2O5   CG301   CG321     9  0.000000e+00  2.217520e+00      2
  OG2D3   CG2O5   CG301   CG321     9  0.000000e+00  5.313680e+00      3
  OG2D3   CG2O5   CG301   CG321     9  1.800000e+02  2.719600e-01      3
  OG2D3   CG2O5   CG301   CG321     9  1.800000e+02  7.531200e-01      2
  OG2D3   CG2O5   CG301   CG321     9  1.800000e+02  1.422560e+00      6
  OG2D3   CG2O5   CG301   CG321     9  1.800000e+02  3.138000e+00      1
  OG2D3   CG2O5   CG301   CG331     9  0.000000e+00  0.000000e+00      1
  OG2D3   CG2O5   CG301   CG331     9  0.000000e+00  8.368000e-02      2
  OG2D3   CG2O5   CG301   CG331     9  0.000000e+00  1.255200e-01      6
  OG2D3   CG2O5   CG301   CG331     9  0.000000e+00  5.439200e-01      6
  OG2D3   CG2O5   CG301   CG331     9  1.800000e+02  2.719600e-01      3
  OG2D3   CG2O5   CG301   CG331     9  1.800000e+02  4.602400e-01      3
  OG2D3   CG2O5   CG301   CG331     9  1.800000e+02  7.531200e-01      2
  OG2D3   CG2O5   CG301   CG331     9  1.800000e+02  1.171520e+00      4
  OG2D3   CG2O5   CG301   CG331     9  1.800000e+02  3.138000e+00      1
  OG2D3   CG2O5   CG301   OG311     9  0.000000e+00  0.000000e+00      2
  OG2D3   CG2O5   CG311   CG2O5     9  0.000000e+00  0.000000e+00      1
  OG2D3   CG2O5   CG311   CG2O5     9  0.000000e+00  5.439200e-01      3
  OG2D3   CG2O5   CG311   CG2O5     9  1.800000e+02  1.255200e-01      2
  OG2D3   CG2O5   CG311  CG2R61     9  0.000000e+00  0.000000e+00      1
  OG2D3   CG2O5   CG311  CG2R61     9  0.000000e+00  0.000000e+00      2
  OG2D3   CG2O5   CG311  CG2R61     9  1.800000e+02  2.677760e+00      3
  OG2D3   CG2O5   CG311   CG301     9  0.000000e+00  1.255200e-01      6
  OG2D3   CG2O5   CG311   CG301     9  1.800000e+02  2.928800e-01      3
  OG2D3   CG2O5   CG311   CG301     9  1.800000e+02  7.531200e-01      2
  OG2D3   CG2O5   CG311   CG301     9  1.800000e+02  3.138000e+00      1
  OG2D3   CG2O5   CG311   CG311     9  0.000000e+00  1.255200e-01      6
  OG2D3   CG2O5   CG311   CG311     9  1.800000e+02  2.719600e-01      3
  OG2D3   CG2O5   CG311   CG311     9  1.800000e+02  2.928800e-01      3
  OG2D3   CG2O5   CG311   CG311     9  1.800000e+02  7.531200e-01      2
  OG2D3   CG2O5   CG311   CG311     9  1.800000e+02  3.138000e+00      1
  OG2D3   CG2O5   CG311   CG321     9  0.000000e+00  1.255200e-01      6
  OG2D3   CG2O5   CG311   CG321     9  1.800000e+02  2.719600e-01      3
  OG2D3   CG2O5   CG311   CG321     9  1.800000e+02  2.928800e-01      3
  OG2D3   CG2O5   CG311   CG321     9  1.800000e+02  7.531200e-01      2
  OG2D3   CG2O5   CG311   CG321     9  1.800000e+02  3.138000e+00      1
  OG2D3   CG2O5   CG311   CG331     9  0.000000e+00  1.255200e-01      6
  OG2D3   CG2O5   CG311   CG331     9  1.800000e+02  2.719600e-01      3
  OG2D3   CG2O5   CG311   CG331     9  1.800000e+02  2.928800e-01      3
  OG2D3   CG2O5   CG311   CG331     9  1.800000e+02  7.531200e-01      2
  OG2D3   CG2O5   CG311   CG331     9  1.800000e+02  3.138000e+00      1
  OG2D3   CG2O5   CG311    HGA1     9  0.000000e+00  0.000000e+00      1
  OG2D3   CG2O5   CG311   NG321     9  0.000000e+00  1.673600e+00      4
  OG2D3   CG2O5   CG311   NG321     9  1.800000e+02  1.422560e+00      6
  OG2D3   CG2O5   CG311   OG301     9  0.000000e+00  0.000000e+00      2
  OG2D3   CG2O5   CG311   OG311     9  0.000000e+00  0.000000e+00      2
  OG2D3   CG2O5   CG311  OG3C61     9  0.000000e+00  2.510400e-01      6
  OG2D3   CG2O5   CG311  OG3C61     9  1.800000e+02  7.112800e-01      2
  OG2D3   CG2O5   CG321   CG2O5     9  0.000000e+00  1.548080e+00      4
  OG2D3   CG2O5   CG321   CG2O5     9  0.000000e+00  3.598240e+00      2
  OG2D3   CG2O5   CG321   CG2O5     9  0.000000e+00  5.564720e+00      3
  OG2D3   CG2O5   CG321   CG301     9  0.000000e+00  1.255200e-01      6
  OG2D3   CG2O5   CG321   CG301     9  1.800000e+02  2.719600e-01      3
  OG2D3   CG2O5   CG321   CG301     9  1.800000e+02  2.928800e-01      3
  OG2D3   CG2O5   CG321   CG301     9  1.800000e+02  7.531200e-01      2
  OG2D3   CG2O5   CG321   CG301     9  1.800000e+02  3.138000e+00      1
  OG2D3   CG2O5   CG321   CG311     9  0.000000e+00  1.255200e-01      6
  OG2D3   CG2O5   CG321   CG311     9  1.800000e+02  2.719600e-01      3
  OG2D3   CG2O5   CG321   CG311     9  1.800000e+02  2.928800e-01      3
  OG2D3   CG2O5   CG321   CG311     9  1.800000e+02  7.531200e-01      2
  OG2D3   CG2O5   CG321   CG311     9  1.800000e+02  3.138000e+00      1
  OG2D3   CG2O5   CG321   CG321     9  0.000000e+00  1.255200e-01      6
  OG2D3   CG2O5   CG321   CG321     9  1.800000e+02  2.719600e-01      3
  OG2D3   CG2O5   CG321   CG321     9  1.800000e+02  7.531200e-01      2
  OG2D3   CG2O5   CG321   CG321     9  1.800000e+02  3.138000e+00      1
  OG2D3   CG2O5   CG321   CG331     9  0.000000e+00  1.255200e-01      6
  OG2D3   CG2O5   CG321   CG331     9  1.800000e+02  2.719600e-01      3
  OG2D3   CG2O5   CG321   CG331     9  1.800000e+02  7.531200e-01      2
  OG2D3   CG2O5   CG321   CG331     9  1.800000e+02  3.138000e+00      1
  OG2D3   CG2O5   CG321    HGA2     9  0.000000e+00  0.000000e+00      3
  OG2D3   CG2O5   CG321   OG311     9  0.000000e+00  0.000000e+00      2
  OG2D3   CG2O5   CG331    HGA3     9  0.000000e+00  0.000000e+00      3
  OG301  CG2R61  CG2R61   HGR61     9  1.800000e+02  1.004160e+01      2
  OG301  CG2R61  CG2R61   OG301     9  0.000000e+00  0.000000e+00      2
  OG301  CG2R61  CG2R61   OG301     9  1.800000e+02  0.000000e+00      2
  OG301  CG2R61  CG2R61   OG311     9  1.800000e+02  0.000000e+00      2
  OG301  CG2R61  CG2R61   OG311     9  1.800000e+02  2.426720e+00      2
  OG301   CG301   CG321   CG301     9  0.000000e+00  3.347200e+00      3
  OG301   CG301   CG321   CG311     9  0.000000e+00  3.347200e+00      3
  OG301   CG301   CG321   CG321     9  0.000000e+00  3.347200e+00      3
  OG301   CG301   CG321   CG331     9  0.000000e+00  3.347200e+00      3
  OG301   CG301   CG321    HGA2     9  0.000000e+00  6.694400e-01      3
  OG301   CG301   CG331    HGA3     9  0.000000e+00  6.694400e-01      3
  OG301   CG301   OG301   CG331     9  0.000000e+00  1.087840e+00      3
  OG301   CG301   OG301   CG331     9  0.000000e+00  2.133840e+00      1
  OG301   CG301   OG301   CG331     9  0.000000e+00  2.803280e+00      2
  OG301   CG301   OG311    HGP1     9  0.000000e+00  4.476880e+00      3
  OG301   CG301   OG311    HGP1     9  0.000000e+00  4.895280e+00      2
  OG301   CG301   OG311    HGP1     9  0.000000e+00  6.485200e+00      1
  OG301   CG311   CG311    HGA1     9  0.000000e+00  8.158800e-01      3
  OG301   CG311   CG311  OG3C61     9  0.000000e+00  4.184000e-01      6
  OG301   CG311   CG311  OG3C61     9  0.000000e+00  7.782240e+00      3
  OG301   CG311   CG321   CG2O5     9  0.000000e+00  8.368000e-01      3
  OG301   CG311   CG321   CG301     9  0.000000e+00  1.631760e+00      2
  OG301   CG311   CG321   CG301     9  1.800000e+02  6.694400e-01      1
  OG301   CG311   CG321   CG311     9  0.000000e+00  1.631760e+00      2
  OG301   CG311   CG321   CG311     9  1.800000e+02  6.694400e-01      1
  OG301   CG311   CG321   CG321     9  0.000000e+00  1.631760e+00      2
  OG301   CG311   CG321   CG321     9  1.800000e+02  6.694400e-01      1
  OG301   CG311   CG321   CG331     9  0.000000e+00  1.631760e+00      2
  OG301   CG311   CG321   CG331     9  1.800000e+02  6.694400e-01      1
  OG301   CG311   CG321   NG321     9  0.000000e+00  8.368000e-01      3
  OG301   CG311   CG321   OG311     9  0.000000e+00  8.368000e-01      3
  OG301   CG311   CG321  OG3C61     9  0.000000e+00  8.368000e-01      3
  OG301   CG311   OG311    HGP1     9  0.000000e+00  4.476880e+00      3
  OG301   CG311   OG311    HGP1     9  0.000000e+00  4.895280e+00      2
  OG301   CG311   OG311    HGP1     9  0.000000e+00  6.485200e+00      1
  OG301   CG311  OG3C61   CG311     9  0.000000e+00  8.368000e-01      3
  OG301   CG311  OG3C61   CG321     9  0.000000e+00  8.368000e-01      3
  OG301   CG321   CG331    HGA3     9  0.000000e+00  6.694400e-01      3
  OG301   CG321   OG301   CG311     9  0.000000e+00  2.928800e-01      2
  OG301   CG321   OG301   CG311     9  0.000000e+00  5.397360e+00      3
  OG301   CG321   OG301   CG311     9  1.800000e+02  1.380720e+00      1
  OG301   CG321   OG301   CG311     9  1.800000e+02  3.221680e+00      6
  OG311  CG2R61  CG2R61   HGR61     9  1.800000e+02  1.004160e+01      2
  OG311  CG2R61  CG2R61   OG311     9  1.800000e+02  1.414527e+01      2
  OG311   CG301   CG301   OG311     9  0.000000e+00  2.008320e+00      3
  OG311   CG301   CG301   OG311     9  1.800000e+02  3.389040e+00      1
  OG311   CG301   CG311   CG2O5     9  1.800000e+02  2.384880e+00      3
  OG311   CG301   CG311   CG311     9  0.000000e+00  3.347200e+00      3
  OG311   CG301   CG311   CG321     9  0.000000e+00  3.347200e+00      3
  OG311   CG301   CG311   CG331     9  0.000000e+00  3.347200e+00      3
  OG311   CG301   CG311    HGA1     9  0.000000e+00  8.158800e-01      3
  OG311   CG301   CG311   OG311     9  0.000000e+00  1.993676e+00      3
  OG311   CG301   CG311   OG311     9  1.800000e+02  3.379417e+00      1
  OG311   CG301   CG311  OG3C61     9  0.000000e+00  7.949600e-01      3
  OG311   CG301   CG311  OG3C61     9  1.800000e+02  4.184000e-01      1
  OG311   CG301   CG321   CG2O5     9  0.000000e+00  7.112800e-01      3
  OG311   CG301   CG321  CG2R61     9  0.000000e+00  3.723760e+00      3
  OG311   CG301   CG321  CG2R61     9  1.800000e+02  4.184000e-02      1
  OG311   CG301   CG321   CG301     9  0.000000e+00  3.347200e+00      3
  OG311   CG301   CG321   CG311     9  0.000000e+00  3.347200e+00      3
  OG311   CG301   CG321   CG321     9  0.000000e+00  3.347200e+00      3
  OG311   CG301   CG321   CG331     9  0.000000e+00  3.347200e+00      3
  OG311   CG301   CG321    HGA2     9  0.000000e+00  6.694400e-01      3
  OG311   CG301   CG321    HGA2     9  0.000000e+00  8.368000e-01      3
  OG311   CG301   CG331    HGA3     9  0.000000e+00  5.857600e-01      3
  OG311   CG301   OG301   CG331     9  0.000000e+00  2.092000e-01      3
  OG311   CG301   OG301   CG331     9  0.000000e+00  3.723760e+00      2
  OG311   CG301   OG301   CG331     9  1.800000e+02  1.715440e+00      1
  OG311   CG301   OG311    HGP1     9  0.000000e+00  4.476880e+00      3
  OG311   CG301   OG311    HGP1     9  0.000000e+00  4.895280e+00      2
  OG311   CG301   OG311    HGP1     9  0.000000e+00  6.485200e+00      1
  OG311   CG301  OG3C61   CG301     9  0.000000e+00  3.096160e+00      3
  OG311   CG301  OG3C61   CG301     9  1.800000e+02  1.129680e+00      2
  OG311   CG301  OG3C61   CG311     9  1.800000e+02  3.765600e-01      3
  OG311   CG301  OG3C61   CG321     9  1.800000e+02  8.786400e-01      3
  OG311   CG311   CG311    HGA1     9  0.000000e+00  8.158800e-01      3
  OG311   CG311   CG311   OG311     9  0.000000e+00  8.368000e-01      3
  OG311   CG311   CG311  OG3C61     9  0.000000e+00  4.267680e+00      2
  OG311   CG311   CG311  OG3C61     9  1.800000e+02  2.092000e-01      4
  OG311   CG311   CG311  OG3C61     9  1.800000e+02  3.347200e-01      3
  OG311   CG311   CG321   CG2O5     9  0.000000e+00  8.368000e-01      3
  OG311   CG311   CG321   CG301     9  0.000000e+00  1.673600e+00      5
  OG311   CG311   CG321   CG301     9  0.000000e+00  3.347200e+00      6
  OG311   CG311   CG321   CG301     9  1.800000e+02  8.368000e+00      3
  OG311   CG311   CG321   CG311     9  0.000000e+00  1.673600e+00      5
  OG311   CG311   CG321   CG311     9  0.000000e+00  3.347200e+00      6
  OG311   CG311   CG321   CG311     9  1.800000e+02  8.368000e+00      3
  OG311   CG311   CG321   CG321     9  0.000000e+00  1.673600e+00      3
  OG311   CG311   CG321   CG321     9  0.000000e+00  1.673600e+00      5
  OG311   CG311   CG321   CG321     9  0.000000e+00  2.928800e+00      2
  OG311   CG311   CG321   CG321     9  1.800000e+02  2.092000e+00      1
  OG311   CG311   CG321   CG331     9  0.000000e+00  5.857600e-01      3
  OG311   CG311   CG321    HGA2     9  1.800000e+02  8.158800e-01      3
  OG311   CG311   CG321   NG321     9  0.000000e+00  8.368000e-01      3
  OG311   CG311   CG321   OG301     9  0.000000e+00  8.368000e-01      3
  OG311   CG311   CG321   OG311     9  0.000000e+00  8.368000e-01      3
  OG311   CG311   CG321  OG3C61     9  0.000000e+00  8.368000e-01      3
  OG311   CG311   CG331    HGA3     9  0.000000e+00  8.368000e-01      3
  OG311   CG311   OG301   CG321     9  0.000000e+00  2.092000e-01      3
  OG311   CG311   OG301   CG321     9  0.000000e+00  3.723760e+00      2
  OG311   CG311   OG301   CG321     9  1.800000e+02  1.715440e+00      1
  OG311   CG311   OG311    HGP1     9  0.000000e+00  1.163570e+00      3
  OG311   CG311   OG311    HGP1     9  0.000000e+00  4.413702e+00      2
  OG311   CG311   OG311    HGP1     9  0.000000e+00  7.673038e+00      1
  OG311   CG311  OG3C61   CG311     9  0.000000e+00  8.368000e-01      3
  OG311   CG321   CG321   OG311     9  0.000000e+00  8.368000e-01      3
  OG311   CG321   CG331    HGA3     9  0.000000e+00  6.694400e-01      3
 OG3C61   CG301   CG311   CG301     9  0.000000e+00  1.255200e-01      4
 OG3C61   CG301   CG311   CG301     9  1.800000e+02  1.840960e+00      3
 OG3C61   CG301   CG311   CG321     9  0.000000e+00  1.673600e+00      3
 OG3C61   CG301   CG311   CG321     9  1.800000e+02  3.765600e-01      4
 OG3C61   CG301   CG311    HGA1     9  0.000000e+00  0.000000e+00      3
 OG3C61   CG301   CG311  OG3C61     9  0.000000e+00  3.765600e-01      3
 OG3C61   CG301   CG321   CG2O5     9  0.000000e+00  3.598240e+00      2
 OG3C61   CG301   CG321   CG2O5     9  1.800000e+02  7.531200e-01      4
 OG3C61   CG301   CG321   CG2O5     9  1.800000e+02  1.004160e+00      1
 OG3C61   CG301   CG321   CG311     9  0.000000e+00  3.347200e+00      3
 OG3C61   CG301   CG321   CG321     9  0.000000e+00  3.347200e+00      3
 OG3C61   CG301   CG321    HGA2     9  0.000000e+00  6.694400e-01      3
 OG3C61   CG301   CG331    HGA3     9  0.000000e+00  6.694400e-01      3
 OG3C61   CG301   OG311    HGP1     9  0.000000e+00  4.476880e+00      3
 OG3C61   CG301   OG311    HGP1     9  0.000000e+00  4.895280e+00      2
 OG3C61   CG301   OG311    HGP1     9  0.000000e+00  6.485200e+00      1
 OG3C61   CG301  OG3C61   CG311     9  0.000000e+00  4.853440e+00      3
 OG3C61   CG301  OG3C61   CG311     9  0.000000e+00  7.907760e+00      4
 OG3C61   CG301  OG3C61   CG321     9  0.000000e+00  1.154784e+01      3
 OG3C61   CG311   CG311    HGA1     9  0.000000e+00  8.368000e-01      3
 OG3C61   CG311   CG311  OG3C61     9  0.000000e+00  8.368000e-01      3
 OG3C61   CG311   CG321  CG2R61     9  0.000000e+00  1.673600e-01      1
 OG3C61   CG311   CG321  CG2R61     9  1.800000e+02  2.928800e-01      4
 OG3C61   CG311   CG321  CG2R61     9  1.800000e+02  3.347200e-01      3
 OG3C61   CG311   CG321   CG301     9  0.000000e+00  2.510400e+00      3
 OG3C61   CG311   CG321   CG301     9  1.800000e+02  3.347200e-01      4
 OG3C61   CG311   CG321   CG301     9  1.800000e+02  7.949600e-01      1
 OG3C61   CG311   CG321   CG301     9  1.800000e+02  4.184000e+00      2
 OG3C61   CG311   CG321   CG311     9  0.000000e+00  2.510400e+00      3
 OG3C61   CG311   CG321   CG311     9  1.800000e+02  3.347200e-01      4
 OG3C61   CG311   CG321   CG311     9  1.800000e+02  7.949600e-01      1
 OG3C61   CG311   CG321   CG311     9  1.800000e+02  4.184000e+00      2
 OG3C61   CG311   CG321   CG321     9  0.000000e+00  2.510400e+00      3
 OG3C61   CG311   CG321   CG321     9  1.800000e+02  3.347200e-01      4
 OG3C61   CG311   CG321   CG321     9  1.800000e+02  7.949600e-01      1
 OG3C61   CG311   CG321   CG321     9  1.800000e+02  4.184000e+00      2
 OG3C61   CG311   CG321    HGA2     9  0.000000e+00  8.158800e-01      3
 OG3C61   CG311   CG321   NG321     9  0.000000e+00  3.640080e+00      3
 OG3C61   CG311   CG321   OG311     9  0.000000e+00  3.221680e+00      3
 OG3C61   CG311   CG321  OG3C61     9  0.000000e+00  8.368000e-01      3
 OG3C61   CG311   CG331    HGA3     9  0.000000e+00  8.368000e-01      3
 OG3C61   CG311   NG321  HGPAM2     9  0.000000e+00  2.217520e+00      3
 OG3C61   CG311   NG321  HGPAM2     9  1.800000e+02  1.129680e+00      6
 OG3C61   CG311   OG301   CG311     9  0.000000e+00  3.640080e+00      2
 OG3C61   CG311   OG301   CG311     9  0.000000e+00  5.606560e+00      3
 OG3C61   CG311   OG301   CG311     9  0.000000e+00  5.983120e+00      1
 OG3C61   CG311   OG301   CG331     9  0.000000e+00  3.640080e+00      2
 OG3C61   CG311   OG301   CG331     9  0.000000e+00  5.606560e+00      3
 OG3C61   CG311   OG301   CG331     9  0.000000e+00  5.983120e+00      1
 OG3C61   CG311   OG311    HGP1     9  0.000000e+00  2.677760e+00      3
 OG3C61   CG311   OG311    HGP1     9  0.000000e+00  9.414000e+00      2
 OG3C61   CG311  OG3C61   CG301     9  0.000000e+00  4.184000e+00      3
 OG3C61   CG311  OG3C61   CG311     9  0.000000e+00  4.184000e+00      3
 OG3C61   CG321   CG321    HGA2     9  0.000000e+00  8.158800e-01      3
 OG3C61   CG321   CG321  OG3C61     9  0.000000e+00  8.158800e-01      3
 OG3C61   CG321  OG3C61   CG311     9  0.000000e+00  4.184000e+00      3
 OG3C61   CG321  OG3C61   CG321     9  0.000000e+00  4.184000e+00      3

[ dihedraltypes ]
  CG2O5   CG2O5   CG311   OG2D3     2  0.000000e+00  7.388944e+02
  CG2O5   CG2O5   CG321   OG2D3     2  0.000000e+00  7.363840e+02
  CG2O5  CG2R61  CG2R61   OG2D3     2  0.000000e+00  7.785545e+02
  CG2O5  CG2R61   CG311   OG2D3     2  0.000000e+00  6.024960e+02
  CG2O5  CG2R61   CG321   OG2D3     2  0.000000e+00  6.024960e+02
  CG2O5  CG2R61   CG331   OG2D3     2  0.000000e+00  5.020800e+02
  CG2O5   CG301   CG301   OG2D3     2  0.000000e+00  5.857600e+02
  CG2O5   CG301   CG311   OG2D3     2  0.000000e+00  5.857600e+02
  CG2O5   CG301   CG321   OG2D3     2  0.000000e+00  5.857600e+02
  CG2O5   CG301   CG331   OG2D3     2  0.000000e+00  5.857600e+02
  CG2O5   CG311   CG311   OG2D3     2  0.000000e+00  5.857600e+02
  CG2O5   CG311   CG321   OG2D3     2  0.000000e+00  5.857600e+02
  CG2O5   CG311   CG331   OG2D3     2  0.000000e+00  5.857600e+02
  CG2O5   CG321   CG321   OG2D3     2  0.000000e+00  5.857600e+02
  CG2O5   CG321   CG331   OG2D3     2  0.000000e+00  5.857600e+02
  CG2O5   CG331   CG331   OG2D3     2  0.000000e+00  5.857600e+02
 CG2R61  CG2R61  CG2R61   OG311     2  0.000000e+00  1.255200e+02
