;;
;; Generated by CHARMM-GUI (http://www.charmm-gui.org) v1.7
;;
;; psf2itp_mol.py
;;
;; Correspondance:
;; jul316@lehigh.edu or wonpil@lehigh.edu
;;
;; GROMACS topology file for ASP
;;


[ moleculetype ]
; name	nrexcl
ASP	     3

[ atoms ]
; nr	type	resnr	residu	atom	cgnr	charge	mass
     1      CG331      1      ASP     C1      1     -0.264    12.0110   ; qtot -0.264
     2      CG2O2      1      ASP     C2      2      0.854    12.0110   ; qtot  0.590
     3      OG2D1      1      ASP     O1      3     -0.636    15.9994   ; qtot -0.046
     4      OG302      1      ASP     O2      4     -0.191    15.9994   ; qtot -0.237
     5     CG2R61      1      ASP     C3      5     -0.175    12.0110   ; qtot -0.412
     6     CG2R61      1      ASP     C4      6     -0.118    12.0110   ; qtot -0.530
     7     CG2R61      1      ASP     C5      7     -0.113    12.0110   ; qtot -0.643
     8     CG2R61      1      ASP     C6      8     -0.113    12.0110   ; qtot -0.756
     9     CG2R61      1      ASP     C7      9     -0.113    12.0110   ; qtot -0.869
    10     CG2R61      1      ASP     C8     10      0.246    12.0110   ; qtot -0.623
    11      CG2O2      1      ASP     C9     11      0.421    12.0110   ; qtot -0.202
    12      OG2D1      1      ASP     O3     12     -0.431    15.9994   ; qtot -0.633
    13      OG311      1      ASP     O4     13     -0.527    15.9994   ; qtot -1.160
    14       HGA3      1      ASP     H1     14      0.090     1.0080   ; qtot -1.070
    15       HGA3      1      ASP     H2     15      0.090     1.0080   ; qtot -0.980
    16       HGA3      1      ASP     H3     16      0.090     1.0080   ; qtot -0.890
    17      HGR61      1      ASP     H4     17      0.116     1.0080   ; qtot -0.774
    18      HGR61      1      ASP     H5     18      0.116     1.0080   ; qtot -0.658
    19      HGR61      1      ASP     H6     19      0.116     1.0080   ; qtot -0.542
    20      HGR61      1      ASP     H7     20      0.116     1.0080   ; qtot -0.426
    21       HGP1      1      ASP     H8     21      0.426     1.0080   ; qtot -0.000

[ bonds ]
; ai	aj	funct	b0	Kb
    1     2     1
    1    14     1
    1    15     1
    1    16     1
    2     3     1
    2     4     1
    4     5     1
    5     6     1
    5    10     1
    6     7     1
    6    17     1
    7     8     1
    7    18     1
    8     9     1
    8    19     1
    9    10     1
    9    20     1
   10    11     1
   11    12     1
   11    13     1
   13    21     1

[ pairs ]
; ai	aj	funct	c6	c12
    1     5     1 
    2     6     1 
    2    10     1 
    3     5     1 
    3    14     1 
    3    15     1 
    3    16     1 
    4     7     1 
    4     9     1 
    4    11     1 
    4    14     1 
    4    15     1 
    4    16     1 
    4    17     1 
    5     8     1 
    5    12     1 
    5    13     1 
    5    18     1 
    5    20     1 
    6     9     1 
    6    11     1 
    6    19     1 
    7    10     1 
    7    20     1 
    8    11     1 
    8    17     1 
    9    12     1 
    9    13     1 
    9    18     1 
   10    17     1 
   10    19     1 
   10    21     1 
   11    20     1 
   12    21     1 
   17    18     1 
   18    19     1 
   19    20     1 

[ angles ] 
; ai	aj	ak	funct	th0	cth	S0	Kub
    2     1    14     5
    2     1    15     5
    2     1    16     5
   14     1    15     5
   14     1    16     5
   15     1    16     5
    1     2     3     5
    1     2     4     5
    3     2     4     5
    2     4     5     5
    4     5     6     5
    4     5    10     5
    6     5    10     5
    5     6     7     5
    5     6    17     5
    7     6    17     5
    6     7     8     5
    6     7    18     5
    8     7    18     5
    7     8     9     5
    7     8    19     5
    9     8    19     5
    8     9    10     5
    8     9    20     5
   10     9    20     5
    5    10     9     5
    5    10    11     5
    9    10    11     5
   10    11    12     5
   10    11    13     5
   12    11    13     5
   11    13    21     5

[ dihedrals ]
; ai	aj	ak	al	funct	phi0	cp	mult
    3     2     1    14     9
    3     2     1    15     9
    3     2     1    16     9
    4     2     1    14     9
    4     2     1    15     9
    4     2     1    16     9
    1     2     4     5     9
    3     2     4     5     9
    2     4     5     6     9
    2     4     5    10     9
    4     5     6     7     9
    4     5     6    17     9
   10     5     6    17     9
    4     5    10     9     9
    4     5    10    11     9
    6     5    10     9     9
    6     5    10    11     9
    7     6     5    10     9
    5     6     7     8     9
    5     6     7    18     9
   17     6     7    18     9
    8     7     6    17     9
    6     7     8     9     9
    6     7     8    19     9
   18     7     8    19     9
    9     8     7    18     9
    7     8     9    10     9
    7     8     9    20     9
   19     8     9    20     9
   10     9     8    19     9
    8     9    10    11     9
    5    10     9     8     9
    5    10     9    20     9
   11    10     9    20     9
    5    10    11    12     9
    5    10    11    13     9
    9    10    11    12     9
    9    10    11    13     9
   10    11    13    21     9
   12    11    13    21     9

[ dihedrals ]
; ai	aj	ak	al	funct	q0	cq
    2     1     3     4     2
   11    10    12    13     2
