; parameters for ASP that data/toppar/forcefield.itp does not carry.
; new atom types: CG2O2 OG2D1 OG302
; a line is here only because it mentions one of them, so nothing the
; polymer already defines is redefined.

[ atomtypes ]
   CG2O2     6    12.0110      0.854     A    3.02905564168e-01    4.100320e-01
   OG2D1     8    15.9994     -0.636     A    3.02905564168e-01    5.020800e-01 ;   2.49451641079e-01    5.020800e-01
   OG302     8    15.9994     -0.191     A    2.93996576986e-01    4.184000e-01

[ bondtypes ]
  CG2O2  CG2R61     1  1.480000e-01  2.125472e+05
  CG2O2   CG331     1  1.522000e-01  1.673600e+05
  CG2O2   OG2D1     1  1.220000e-01  6.276000e+05
  CG2O2   OG302     1  1.334000e-01  1.255200e+05
  CG2O2   OG311     1  1.400000e-01  1.924640e+05
 CG2R61   CG331     1  1.490000e-01  1.924640e+05
 CG2R61   OG302     1  1.382000e-01  1.924640e+05
 CG2R61   OG311     1  1.411000e-01  2.797422e+05
  CG331   CG331     1  1.530000e-01  1.861880e+05
  CG331   OG302     1  1.430000e-01  2.845120e+05
  CG331   OG311     1  1.420000e-01  3.581504e+05

[ pairtypes ]
  CG2O2   CG331     1  3.20723538531e-01  1.30979917850e-01
  CG2O2   OG2D1     1  2.76178602624e-01  4.53727744975e-01
 CG2R61   CG331     1  3.46773417049e-01  1.10698234855e-01
 CG2R61   OG2D1     1  3.02228481142e-01  3.83469934154e-01
  CG331   HGR61     1  2.90272620344e-01  7.24690057887e-02
  CG331   OG2D1     1  2.93996576986e-01  1.44938011577e-01
  CG331   OG302     1  3.16269044940e-01  1.32309697301e-01
   HGA3   OG2D1     1  2.44106248770e-01  2.24537002029e-01
   HGP1   OG2D1     1  1.44726496762e-01  3.10857403193e-01
  HGR61   OG2D1     1  2.45727684437e-01  2.51040000000e-01
  OG2D1   OG2D1     1  2.49451641079e-01  5.02080000000e-01
  OG2D1   OG302     1  2.71724109033e-01  4.58334236120e-01
  OG2D1   OG311     1  2.81969444291e-01  6.35251912639e-01

[ angletypes ]
  CG2O2  CG2R61  CG2R61     5  1.2000000e+02  3.7656000e+02  0.0000000e+00  0.0000000e+00
  CG2O2   CG331    HGA3     5  1.0950000e+02  2.7614400e+02  2.1630000e-01  2.5104000e+04
  CG2O2   OG302   CG2O2     5  1.2000000e+02  1.5480800e+03  0.0000000e+00  0.0000000e+00
  CG2O2   OG302  CG2R61     5  1.0288920e+02  3.2451104e+02  0.0000000e+00  0.0000000e+00
  CG2O2   OG302   CG331     5  1.0960000e+02  3.3472000e+02  2.2651000e-01  2.5104000e+04
  CG2O2   OG311    HGP1     5  1.1500000e+02  4.6024000e+02  0.0000000e+00  0.0000000e+00
 CG2R61   CG2O2   OG2D1     5  1.2310000e+02  5.8576000e+02  2.4420000e-01  1.6736000e+04
 CG2R61   CG2O2   OG302     5  1.1100000e+02  4.1840000e+02  2.3600000e-01  1.6736000e+04
 CG2R61   CG2O2   OG311     5  1.1390000e+02  3.3472000e+02  2.3700000e-01  2.5104000e+04
 CG2R61  CG2R61   CG331     5  1.2000000e+02  3.8325440e+02  0.0000000e+00  0.0000000e+00
 CG2R61  CG2R61   OG302     5  1.2000000e+02  9.2048000e+02  0.0000000e+00  0.0000000e+00
 CG2R61  CG2R61   OG311     5  1.2000000e+02  3.7823360e+02  0.0000000e+00  0.0000000e+00
 CG2R61   CG331    HGA3     5  1.0750000e+02  4.1254240e+02  0.0000000e+00  0.0000000e+00
 CG2R61   OG311    HGP1     5  1.0800000e+02  5.4392000e+02  0.0000000e+00  0.0000000e+00
  CG331   CG2O2   OG2D1     5  1.2500000e+02  5.8576000e+02  2.4420000e-01  1.6736000e+04
  CG331   CG2O2   OG302     5  1.0900000e+02  4.6024000e+02  2.3260000e-01  1.6736000e+04
  CG331   CG2O2   OG311     5  1.1050000e+02  4.6024000e+02  0.0000000e+00  0.0000000e+00
  CG331   CG331    HGA3     5  1.1010000e+02  3.1380000e+02  2.1790000e-01  1.8853104e+04
  CG331   OG311    HGP1     5  1.0600000e+02  4.8116000e+02  0.0000000e+00  0.0000000e+00
  OG2D1   CG2O2   OG302     5  1.2590000e+02  7.5312000e+02  2.2576000e-01  1.3388800e+05
  OG2D1   CG2O2   OG311     5  1.2300000e+02  4.1840000e+02  2.2620000e-01  1.7572800e+05
  OG302   CG331    HGA3     5  1.0950000e+02  5.0208000e+02  0.0000000e+00  0.0000000e+00
  OG311   CG331    HGA3     5  1.0889000e+02  3.8409120e+02  0.0000000e+00  0.0000000e+00

[ dihedraltypes ]
  CG2O2  CG2R61  CG2R61   CG2O2     9  1.800000e+02  1.297040e+01      2
  CG2O2  CG2R61  CG2R61  CG2R61     9  1.800000e+02  1.297040e+01      2
  CG2O2  CG2R61  CG2R61   HGR61     9  1.800000e+02  1.004160e+01      2
  CG2O2  CG2R61  CG2R61   OG302     9  1.800000e+02  5.564720e+00      2
  CG2O2  CG2R61  CG2R61   OG311     9  1.800000e+02  1.778200e+01      2
 CG2R61   CG2O2   OG302   CG2O2     9  1.800000e+02  2.092000e-01      6
 CG2R61   CG2O2   OG302   CG2O2     9  1.800000e+02  5.230000e+00      1
 CG2R61   CG2O2   OG302   CG2O2     9  1.800000e+02  6.276000e+00      2
 CG2R61   CG2O2   OG302   CG331     9  1.800000e+02  2.092000e-01      6
 CG2R61   CG2O2   OG302   CG331     9  1.800000e+02  5.230000e+00      1
 CG2R61   CG2O2   OG302   CG331     9  1.800000e+02  6.276000e+00      2
 CG2R61   CG2O2   OG311    HGP1     9  1.800000e+02  2.092000e-01      3
 CG2R61   CG2O2   OG311    HGP1     9  1.800000e+02  1.046000e+00      6
 CG2R61   CG2O2   OG311    HGP1     9  1.800000e+02  4.079400e+00      1
 CG2R61   CG2O2   OG311    HGP1     9  1.800000e+02  1.129680e+01      2
 CG2R61  CG2R61  CG2R61   CG331     9  1.800000e+02  1.297040e+01      2
 CG2R61  CG2R61  CG2R61   OG302     9  1.800000e+02  1.297040e+01      2
 CG2R61  CG2R61  CG2R61   OG311     9  1.800000e+02  1.297040e+01      2
 CG2R61  CG2R61   CG331    HGA3     9  0.000000e+00  8.368000e-03      6
 CG2R61  CG2R61   OG302   CG2O2     9  0.000000e+00  1.255200e+00      4
 CG2R61  CG2R61   OG302   CG2O2     9  1.800000e+02  3.347200e+00      2
 CG2R61  CG2R61   OG311    HGP1     9  1.800000e+02  4.142160e+00      2
  CG331   CG2O2   OG302  CG2R61     9  1.800000e+02  2.025056e+01      2
  CG331   CG2O2   OG302   CG331     9  1.800000e+02  8.577200e+00      2
  CG331   CG2O2   OG311    HGP1     9  1.800000e+02  8.577200e+00      2
  CG331  CG2R61  CG2R61   CG331     9  1.800000e+02  1.004160e+01      2
  CG331  CG2R61  CG2R61   HGR61     9  1.800000e+02  1.004160e+01      2
  CG331  CG2R61  CG2R61   OG311     9  1.800000e+02  1.004160e+01      2
   HGA3   CG331   CG331    HGA3     9  0.000000e+00  6.485200e-01      3
   HGA3   CG331   OG302   CG2O2     9  0.000000e+00  0.000000e+00      3
   HGA3   CG331   OG311    HGP1     9  0.000000e+00  7.531200e-01      3
  OG2D1   CG2O2  CG2R61  CG2R61     9  1.800000e+02  4.288600e+00      2
  OG2D1   CG2O2   CG331    HGA3     9  1.800000e+02  0.000000e+00      6
  OG2D1   CG2O2   OG302   CG2O2     9  1.800000e+02  4.037560e+00      1
  OG2D1   CG2O2   OG302   CG2O2     9  1.800000e+02  1.610840e+01      2
  OG2D1   CG2O2   OG302  CG2R61     9  0.000000e+00  0.000000e+00      2
  OG2D1   CG2O2   OG302  CG2R61     9  0.000000e+00  7.907760e+00      1
  OG2D1   CG2O2   OG302   CG331     9  1.800000e+02  4.037560e+00      1
  OG2D1   CG2O2   OG302   CG331     9  1.800000e+02  1.610840e+01      2
  OG2D1   CG2O2   OG311    HGP1     9  1.800000e+02  8.577200e+00      2
  OG302   CG2O2  CG2R61  CG2R61     9  1.800000e+02  3.556400e+00      2
  OG302   CG2O2   CG331    HGA3     9  0.000000e+00  0.000000e+00      3
  OG302  CG2R61  CG2R61   HGR61     9  1.800000e+02  1.004160e+01      2
  OG311   CG2O2  CG2R61  CG2R61     9  1.800000e+02  4.288600e+00      2
  OG311   CG2O2   CG331    HGA3     9  1.800000e+02  0.000000e+00      6
  OG311  CG2R61  CG2R61   HGR61     9  1.800000e+02  1.004160e+01      2
  OG311  CG2R61  CG2R61   OG311     9  1.800000e+02  1.414527e+01      2

[ dihedraltypes ]
  CG2O2  CG2R61   OG2D1   OG302     2  0.000000e+00  6.024960e+02
  CG2O2  CG2R61   OG2D1   OG311     2  0.000000e+00  4.435040e+02
  CG2O2   CG331   OG2D1   OG302     2  0.000000e+00  5.188160e+02
  CG2O2   CG331   OG2D1   OG311     2  0.000000e+00  5.439200e+02
 CG2R61  CG2R61  CG2R61   OG311     2  0.000000e+00  1.255200e+02
