;;
;; Generated by CHARMM-GUI (http://www.charmm-gui.org) v1.7
;;
;; psf2itp_mol.py
;;
;; Correspondance:
;; jul316@lehigh.edu or wonpil@lehigh.edu
;;
;; GROMACS topology file for PYR
;;


[ moleculetype ]
; name	nrexcl
PYR	     3

[ atoms ]
; nr	type	resnr	residu	atom	cgnr	charge	mass
     1     CG2R61      1      PYR     C1      1      0.006    12.0110   ; qtot  0.006
     2     CG2R61      1      PYR     C2      2     -0.119    12.0110   ; qtot -0.113
     3     CG2R61      1      PYR     C3      3     -0.110    12.0110   ; qtot -0.223
     4     CG2R61      1      PYR     C4      4     -0.119    12.0110   ; qtot -0.342
     5     CG2R61      1      PYR     C5      5      0.006    12.0110   ; qtot -0.336
     6     CG2R61      1      PYR     C6      6     -0.012    12.0110   ; qtot -0.348
     7     CG2R61      1      PYR     C7      7     -0.012    12.0110   ; qtot -0.360
     8     CG2R61      1      PYR     C8      8      0.006    12.0110   ; qtot -0.354
     9     CG2R61      1      PYR     C9      9     -0.116    12.0110   ; qtot -0.470
    10     CG2R61      1      PYR    C10     10     -0.116    12.0110   ; qtot -0.586
    11     CG2R61      1      PYR    C11     11      0.006    12.0110   ; qtot -0.580
    12     CG2R61      1      PYR    C12     12     -0.119    12.0110   ; qtot -0.699
    13     CG2R61      1      PYR    C13     13     -0.110    12.0110   ; qtot -0.809
    14     CG2R61      1      PYR    C14     14     -0.119    12.0110   ; qtot -0.928
    15     CG2R61      1      PYR    C15     15     -0.116    12.0110   ; qtot -1.044
    16     CG2R61      1      PYR    C16     16     -0.116    12.0110   ; qtot -1.160
    17      HGR61      1      PYR     H1     17      0.116     1.0080   ; qtot -1.044
    18      HGR61      1      PYR     H2     18      0.116     1.0080   ; qtot -0.928
    19      HGR61      1      PYR     H3     19      0.116     1.0080   ; qtot -0.812
    20      HGR61      1      PYR     H4     20      0.116     1.0080   ; qtot -0.696
    21      HGR61      1      PYR     H5     21      0.116     1.0080   ; qtot -0.580
    22      HGR61      1      PYR     H6     22      0.116     1.0080   ; qtot -0.464
    23      HGR61      1      PYR     H7     23      0.116     1.0080   ; qtot -0.348
    24      HGR61      1      PYR     H8     24      0.116     1.0080   ; qtot -0.232
    25      HGR61      1      PYR     H9     25      0.116     1.0080   ; qtot -0.116
    26      HGR61      1      PYR    H10     26      0.116     1.0080   ; qtot -0.000

[ bonds ]
; ai	aj	funct	b0	Kb
    1     2     1
    1     6     1
    1    10     1
    2     3     1
    2    19     1
    3     4     1
    3    20     1
    4     5     1
    4    21     1
    5     6     1
    5    15     1
    6     7     1
    7     8     1
    7    11     1
    8     9     1
    8    14     1
    9    10     1
    9    18     1
   10    17     1
   11    12     1
   11    16     1
   12    13     1
   12    24     1
   13    14     1
   13    25     1
   14    26     1
   15    16     1
   15    22     1
   16    23     1

[ pairs ]
; ai	aj	funct	c6	c12
    1     4     1 
    1     8     1 
    1    11     1 
    1    15     1 
    1    18     1 
    1    20     1 
    2     5     1 
    2     7     1 
    2     9     1 
    2    17     1 
    2    21     1 
    3     6     1 
    3    10     1 
    3    15     1 
    4     7     1 
    4    16     1 
    4    19     1 
    4    22     1 
    5     8     1 
    5    10     1 
    5    11     1 
    5    20     1 
    5    23     1 
    6     9     1 
    6    12     1 
    6    14     1 
    6    16     1 
    6    17     1 
    6    19     1 
    6    21     1 
    6    22     1 
    7    10     1 
    7    13     1 
    7    15     1 
    7    18     1 
    7    23     1 
    7    24     1 
    7    26     1 
    8    12     1 
    8    16     1 
    8    17     1 
    8    25     1 
    9    11     1 
    9    13     1 
    9    26     1 
   10    14     1 
   10    19     1 
   11    14     1 
   11    22     1 
   11    25     1 
   12    15     1 
   12    23     1 
   12    26     1 
   13    16     1 
   14    18     1 
   14    24     1 
   15    21     1 
   16    24     1 
   17    18     1 
   19    20     1 
   20    21     1 
   22    23     1 
   24    25     1 
   25    26     1 

[ angles ] 
; ai	aj	ak	funct	th0	cth	S0	Kub
    2     1     6     5
    2     1    10     5
    6     1    10     5
    1     2     3     5
    1     2    19     5
    3     2    19     5
    2     3     4     5
    2     3    20     5
    4     3    20     5
    3     4     5     5
    3     4    21     5
    5     4    21     5
    4     5     6     5
    4     5    15     5
    6     5    15     5
    1     6     5     5
    1     6     7     5
    5     6     7     5
    6     7     8     5
    6     7    11     5
    8     7    11     5
    7     8     9     5
    7     8    14     5
    9     8    14     5
    8     9    10     5
    8     9    18     5
   10     9    18     5
    1    10     9     5
    1    10    17     5
    9    10    17     5
    7    11    12     5
    7    11    16     5
   12    11    16     5
   11    12    13     5
   11    12    24     5
   13    12    24     5
   12    13    14     5
   12    13    25     5
   14    13    25     5
    8    14    13     5
    8    14    26     5
   13    14    26     5
    5    15    16     5
    5    15    22     5
   16    15    22     5
   11    16    15     5
   11    16    23     5
   15    16    23     5

[ dihedrals ]
; ai	aj	ak	al	funct	phi0	cp	mult
    6     1     2    19     9
   10     1     2    19     9
    2     1     6     5     9
    2     1     6     7     9
    2     1    10     9     9
    2     1    10    17     9
    6     1    10     9     9
    6     1    10    17     9
    3     2     1     6     9
    3     2     1    10     9
    1     2     3     4     9
    1     2     3    20     9
   19     2     3    20     9
    4     3     2    19     9
    2     3     4     5     9
    2     3     4    21     9
   20     3     4    21     9
    5     4     3    20     9
    3     4     5     6     9
    3     4     5    15     9
    6     5     4    21     9
   15     5     4    21     9
    4     5     6     7     9
    4     5    15    16     9
    4     5    15    22     9
    6     5    15    16     9
    6     5    15    22     9
    5     6     1    10     9
    7     6     1    10     9
    1     6     5     4     9
    1     6     5    15     9
    7     6     5    15     9
    1     6     7     8     9
    1     6     7    11     9
    5     6     7     8     9
    5     6     7    11     9
    6     7     8     9     9
    6     7     8    14     9
   11     7     8    14     9
    6     7    11    12     9
    6     7    11    16     9
    8     7    11    12     9
    8     7    11    16     9
    9     8     7    11     9
    7     8     9    10     9
    7     8     9    18     9
   14     8     9    18     9
    7     8    14    13     9
    7     8    14    26     9
    9     8    14    13     9
    9     8    14    26     9
   10     9     8    14     9
    8     9    10    17     9
    1    10     9     8     9
    1    10     9    18     9
   17    10     9    18     9
    7    11    12    13     9
    7    11    12    24     9
   16    11    12    24     9
    7    11    16    15     9
    7    11    16    23     9
   12    11    16    15     9
   12    11    16    23     9
   13    12    11    16     9
   11    12    13    14     9
   11    12    13    25     9
   24    12    13    25     9
   14    13    12    24     9
   12    13    14    26     9
   25    13    14    26     9
    8    14    13    12     9
    8    14    13    25     9
    5    15    16    11     9
    5    15    16    23     9
   22    15    16    23     9
   11    16    15    22     9
