;;
;; Generated by CHARMM-GUI (http://www.charmm-gui.org) v1.7
;;
;; psf2itp_mol.py
;;
;; Correspondance:
;; jul316@lehigh.edu or wonpil@lehigh.edu
;;
;; GROMACS topology file for DOX
;;


[ moleculetype ]
; name	nrexcl
DXP	     3

[ atoms ]
; nr	type	resnr	residu	atom	cgnr	charge	mass
     1      OG301      1      DXP      O1      1     -0.377    15.9994
     2     OG3C61      1      DXP      O2      2     -0.374    15.9994
     3      OG311      1      DXP      O3      3     -0.599    15.9994
     4      OG311      1      DXP      O4      4     -0.636    15.9994
     5      OG311      1      DXP      O5      5     -0.543    15.9994
     6      OG311      1      DXP      O6      6     -0.543    15.9994
     7      OG2D3      1      DXP      O7      7     -0.452    15.9994
     8      OG311      1      DXP      O8      8     -0.593    15.9994
     9      OG2D3      1      DXP      O9      9     -0.448    15.9994
    10      OG2D3      1      DXP     O10     10     -0.448    15.9994
    11      OG301      1      DXP     O11     11     -0.132    15.9994
    12      NG3P3      1      DXP       N     12     -0.300    14.0070
    13      CG311      1      DXP      C1     13      0.090    12.0110
    14      CG301      1      DXP      C2     14      0.482    12.0110
    15      CG321      1      DXP      C3     15     -0.149    12.0110
    16      CG321      1      DXP      C4     16     -0.167    12.0110
    17     CG2R61      1      DXP      C5     17     -0.011    12.0110
    18     CG2R61      1      DXP      C6     18     -0.008    12.0110
    19      CG311      1      DXP      C7     19      0.174    12.0110
    20      CG321      1      DXP      C8     20     -0.173    12.0110
    21      CG314      1      DXP      C9     21      0.226    12.0110
    22      CG311      1      DXP     C10     22      0.077    12.0110
    23      CG311      1      DXP     C11     23      0.087    12.0110
    24     CG2R61      1      DXP     C12     24      0.111    12.0110
    25      CG2O5      1      DXP     C13     25      0.243    12.0110
    26     CG2R61      1      DXP     C14     26      0.098    12.0110
    27     CG2R61      1      DXP     C15     27      0.130    12.0110
    28     CG2R61      1      DXP     C16     28      0.132    12.0110
    29      CG331      1      DXP     C17     29     -0.205    12.0110
    30      CG321      1      DXP     C18     30      0.090    12.0110
    31      CG2O5      1      DXP     C19     31      0.175    12.0110
    32      CG2O5      1      DXP     C20     32      0.188    12.0110
    33     CG2R61      1      DXP     C21     33      0.279    12.0110
    34     CG2R61      1      DXP     C22     34      0.130    12.0110
    35     CG2R61      1      DXP     C23     35     -0.184    12.0110
    36     CG2R61      1      DXP     C24     36     -0.116    12.0110
    37     CG2R61      1      DXP     C25     37     -0.116    12.0110
    38     CG2R61      1      DXP     C26     38     -0.108    12.0110
    39      CG331      1      DXP     C27     39     -0.094    12.0110
    40       HGA1      1      DXP      H1     40      0.090     1.0080
    41       HGA2      1      DXP      H2     41      0.090     1.0080
    42       HGA2      1      DXP      H3     42      0.090     1.0080
    43       HGA2      1      DXP      H4     43      0.090     1.0080
    44       HGA2      1      DXP      H5     44      0.090     1.0080
    45       HGA1      1      DXP      H6     45      0.090     1.0080
    46       HGA2      1      DXP      H7     46      0.090     1.0080
    47       HGA2      1      DXP      H8     47      0.090     1.0080
    48       HGA1      1      DXP      H9     48      0.090     1.0080
    49       HGA1      1      DXP     H10     49      0.090     1.0080
    50       HGA1      1      DXP     H11     50      0.090     1.0080
    51       HGP1      1      DXP     H12     51      0.361     1.0080
    52       HGA3      1      DXP     H13     52      0.090     1.0080
    53       HGA3      1      DXP     H14     53      0.090     1.0080
    54       HGA3      1      DXP     H15     54      0.090     1.0080
    55       HGP2      1      DXP     H16     55      0.330     1.0080
    56       HGP2      1      DXP     H17     56      0.330     1.0080
    57       HGA2      1      DXP     H18     57      0.090     1.0080
    58       HGA2      1      DXP     H19     58      0.090     1.0080
    59       HGP1      1      DXP     H20     59      0.422     1.0080
    60       HGP1      1      DXP     H21     60      0.421     1.0080
    61       HGP1      1      DXP     H22     61      0.421     1.0080
    62      HGR61      1      DXP     H23     62      0.116     1.0080
    63       HGP1      1      DXP     H24     63      0.391     1.0080
    64      HGR61      1      DXP     H25     64      0.116     1.0080
    65      HGR61      1      DXP     H26     65      0.116     1.0080
    66       HGA3      1      DXP     H27     66      0.090     1.0080
    67       HGA3      1      DXP     H28     67      0.090     1.0080
    68       HGA3      1      DXP     H29     68      0.090     1.0080
    69       HGP2      1      DXP     H30     69      0.330     1.0080

[ bonds ]
; ai	aj	funct	b0	Kb
    1    13     1
    1    19     1
    2    19     1
    2    23     1
    3    14     1
    3    51     1
    4    22     1
    4    59     1
    5    24     1
    5    60     1
    6    26     1
    6    61     1
    7    25     1
    8    30     1
    8    63     1
    9    31     1
   10    32     1
   11    35     1
   11    39     1
   12    21     1
   12    55     1
   12    56     1
   13    15     1
   13    17     1
   13    40     1
   14    15     1
   14    16     1
   14    25     1
   15    41     1
   15    42     1
   16    18     1
   16    43     1
   16    44     1
   17    18     1
   17    24     1
   18    26     1
   19    20     1
   19    45     1
   20    21     1
   20    46     1
   20    47     1
   21    22     1
   21    48     1
   22    23     1
   22    49     1
   23    29     1
   23    50     1
   24    27     1
   25    30     1
   26    28     1
   27    28     1
   27    31     1
   28    32     1
   29    52     1
   29    53     1
   29    54     1
   30    57     1
   30    58     1
   31    33     1
   32    34     1
   33    34     1
   33    35     1
   34    36     1
   35    37     1
   36    38     1
   36    62     1
   37    38     1
   37    64     1
   38    65     1
   39    66     1
   39    67     1
   39    68     1
   12    69     1

[ pairs ]
; ai	aj	funct	c6	c12
    1    14     1 
    1    18     1 
    1    21     1 
    1    23     1 
    1    24     1 
    1    41     1 
    1    42     1 
    1    46     1 
    1    47     1 
    2     4     1 
    2    13     1 
    2    21     1 
    2    46     1 
    2    47     1 
    2    49     1 
    2    52     1 
    2    53     1 
    2    54     1 
    3     7     1 
    3    13     1 
    3    18     1 
    3    30     1 
    3    41     1 
    3    42     1 
    3    43     1 
    3    44     1 
    4    12     1 
    4    20     1 
    4    29     1 
    4    48     1 
    4    50     1 
    5    13     1 
    5    18     1 
    5    28     1 
    5    31     1 
    6    16     1 
    6    17     1 
    6    27     1 
    6    32     1 
    7     8     1 
    7    15     1 
    7    16     1 
    7    57     1 
    7    58     1 
    8    14     1 
    9    24     1 
    9    28     1 
    9    34     1 
    9    35     1 
   10    26     1 
   10    27     1 
   10    33     1 
   10    36     1 
   11    31     1 
   11    34     1 
   11    38     1 
   11    64     1 
   12    19     1 
   12    23     1 
   12    46     1 
   12    47     1 
   12    49     1 
   13    16     1 
   13    20     1 
   13    25     1 
   13    26     1 
   13    27     1 
   13    45     1 
   14    17     1 
   14    26     1 
   14    40     1 
   14    57     1 
   14    58     1 
   15    18     1 
   15    19     1 
   15    24     1 
   15    30     1 
   15    43     1 
   15    44     1 
   15    51     1 
   16    24     1 
   16    28     1 
   16    30     1 
   16    41     1 
   16    42     1 
   16    51     1 
   17    19     1 
   17    28     1 
   17    31     1 
   17    41     1 
   17    42     1 
   17    43     1 
   17    44     1 
   17    60     1 
   18    25     1 
   18    27     1 
   18    32     1 
   18    40     1 
   18    61     1 
   19    22     1 
   19    29     1 
   19    40     1 
   19    48     1 
   19    50     1 
   20    23     1 
   20    49     1 
   20    55     1 
   20    56     1 
   21    29     1 
   21    45     1 
   21    50     1 
   21    59     1 
   22    46     1 
   22    47     1 
   22    52     1 
   22    53     1 
   22    54     1 
   22    55     1 
   22    56     1 
   23    45     1 
   23    48     1 
   23    59     1 
   24    26     1 
   24    32     1 
   24    33     1 
   24    40     1 
   25    41     1 
   25    42     1 
   25    43     1 
   25    44     1 
   25    51     1 
   25    63     1 
   26    31     1 
   26    34     1 
   26    43     1 
   26    44     1 
   27    34     1 
   27    35     1 
   27    60     1 
   28    33     1 
   28    36     1 
   28    61     1 
   29    49     1 
   31    32     1 
   31    36     1 
   31    37     1 
   32    35     1 
   32    38     1 
   32    62     1 
   33    38     1 
   33    39     1 
   33    62     1 
   33    64     1 
   34    37     1 
   34    65     1 
   35    36     1 
   35    65     1 
   35    66     1 
   35    67     1 
   35    68     1 
   36    64     1 
   37    39     1 
   37    62     1 
   40    41     1 
   40    42     1 
   45    46     1 
   45    47     1 
   46    48     1 
   47    48     1 
   48    49     1 
   48    55     1 
   48    56     1 
   49    50     1 
   49    59     1 
   50    52     1 
   50    53     1 
   50    54     1 
   57    63     1 
   58    63     1 
   62    65     1 
   64    65     1 
   20    69     1
   22    69     1
   48    69     1

[ angles ] 
; ai	aj	ak	funct	th0	cth	S0	Kub
   13     1    19     5
   19     2    23     5
   14     3    51     5
   22     4    59     5
   24     5    60     5
   26     6    61     5
   30     8    63     5
   35    11    39     5
   21    12    55     5
   21    12    56     5
   55    12    56     5
    1    13    15     5
    1    13    17     5
    1    13    40     5
   15    13    17     5
   15    13    40     5
   17    13    40     5
    3    14    15     5
    3    14    16     5
    3    14    25     5
   15    14    16     5
   15    14    25     5
   16    14    25     5
   13    15    14     5
   13    15    41     5
   13    15    42     5
   14    15    41     5
   14    15    42     5
   41    15    42     5
   14    16    18     5
   14    16    43     5
   14    16    44     5
   18    16    43     5
   18    16    44     5
   43    16    44     5
   13    17    18     5
   13    17    24     5
   18    17    24     5
   16    18    17     5
   16    18    26     5
   17    18    26     5
    1    19     2     5
    1    19    20     5
    1    19    45     5
    2    19    20     5
    2    19    45     5
   20    19    45     5
   19    20    21     5
   19    20    46     5
   19    20    47     5
   21    20    46     5
   21    20    47     5
   46    20    47     5
   12    21    20     5
   12    21    22     5
   12    21    48     5
   20    21    22     5
   20    21    48     5
   22    21    48     5
    4    22    21     5
    4    22    23     5
    4    22    49     5
   21    22    23     5
   21    22    49     5
   23    22    49     5
    2    23    22     5
    2    23    29     5
    2    23    50     5
   22    23    29     5
   22    23    50     5
   29    23    50     5
    5    24    17     5
    5    24    27     5
   17    24    27     5
    7    25    14     5
    7    25    30     5
   14    25    30     5
    6    26    18     5
    6    26    28     5
   18    26    28     5
   24    27    28     5
   24    27    31     5
   28    27    31     5
   26    28    27     5
   26    28    32     5
   27    28    32     5
   23    29    52     5
   23    29    53     5
   23    29    54     5
   52    29    53     5
   52    29    54     5
   53    29    54     5
    8    30    25     5
    8    30    57     5
    8    30    58     5
   25    30    57     5
   25    30    58     5
   57    30    58     5
    9    31    27     5
    9    31    33     5
   27    31    33     5
   10    32    28     5
   10    32    34     5
   28    32    34     5
   31    33    34     5
   31    33    35     5
   34    33    35     5
   32    34    33     5
   32    34    36     5
   33    34    36     5
   11    35    33     5
   11    35    37     5
   33    35    37     5
   34    36    38     5
   34    36    62     5
   38    36    62     5
   35    37    38     5
   35    37    64     5
   38    37    64     5
   36    38    37     5
   36    38    65     5
   37    38    65     5
   11    39    66     5
   11    39    67     5
   11    39    68     5
   66    39    67     5
   66    39    68     5
   67    39    68     5
   21    12    69     5
   55    12    69     5
   56    12    69     5

[ dihedrals ]
; ai	aj	ak	al	funct	phi0	cp	mult
   19     1    13    40     9
   13     1    19    20     9
   13     1    19    45     9
   23     2    19    45     9
   19     2    23    22     9
   19     2    23    29     9
   19     2    23    50     9
   35    11    39    66     9
   35    11    39    67     9
   35    11    39    68     9
   15    13     1    19     9
   17    13     1    19     9
    1    13    15    14     9
    1    13    15    41     9
    1    13    15    42     9
   17    13    15    41     9
   17    13    15    42     9
   40    13    15    41     9
   40    13    15    42     9
    1    13    17    18     9
    1    13    17    24     9
   15    13    17    18     9
   15    13    17    24     9
   15    14     3    51     9
   16    14     3    51     9
   25    14     3    51     9
    3    14    15    13     9
    3    14    15    41     9
    3    14    15    42     9
   16    14    15    41     9
   16    14    15    42     9
   25    14    15    41     9
   25    14    15    42     9
    3    14    16    18     9
    3    14    16    43     9
    3    14    16    44     9
   15    14    16    18     9
   15    14    16    43     9
   15    14    16    44     9
   25    14    16    43     9
   25    14    16    44     9
    3    14    25     7     9
    3    14    25    30     9
   15    14    25    30     9
   16    14    25    30     9
   14    15    13    17     9
   14    15    13    40     9
   13    15    14    16     9
   13    15    14    25     9
   18    16    14    25     9
   14    16    18    17     9
   14    16    18    26     9
   18    17    13    40     9
   24    17    13    40     9
   13    17    18    16     9
   13    17    18    26     9
   24    17    18    26     9
   13    17    24    27     9
   18    17    24    27     9
   17    18    16    43     9
   17    18    16    44     9
   26    18    16    43     9
   26    18    16    44     9
   16    18    17    24     9
   16    18    26    28     9
   17    18    26    28     9
    2    19     1    13     9
    1    19     2    23     9
   20    19     2    23     9
    1    19    20    21     9
    1    19    20    46     9
    1    19    20    47     9
    2    19    20    21     9
    2    19    20    46     9
    2    19    20    47     9
   45    19    20    46     9
   45    19    20    47     9
   21    20    19    45     9
   19    20    21    22     9
   19    20    21    48     9
   46    20    21    48     9
   47    20    21    48     9
   20    21    12    55     9
   20    21    12    56     9
   22    21    12    55     9
   22    21    12    56     9
   48    21    12    55     9
   48    21    12    56     9
   12    21    20    19     9
   12    21    20    46     9
   12    21    20    47     9
   22    21    20    46     9
   22    21    20    47     9
   12    21    22    23     9
   12    21    22    49     9
   20    21    22    23     9
   20    21    22    49     9
   48    21    22    49     9
   21    22     4    59     9
   23    22     4    59     9
   49    22     4    59     9
    4    22    21    12     9
    4    22    21    20     9
    4    22    21    48     9
   23    22    21    48     9
    4    22    23    29     9
    4    22    23    50     9
   21    22    23    29     9
   21    22    23    50     9
   49    22    23    50     9
    2    23    22     4     9
    2    23    22    21     9
    2    23    22    49     9
   29    23    22    49     9
    2    23    29    52     9
    2    23    29    53     9
    2    23    29    54     9
   22    23    29    52     9
   22    23    29    53     9
   22    23    29    54     9
   50    23    29    52     9
   50    23    29    53     9
   50    23    29    54     9
   17    24     5    60     9
   27    24     5    60     9
    5    24    17    13     9
    5    24    17    18     9
    5    24    27    28     9
    5    24    27    31     9
   17    24    27    28     9
   17    24    27    31     9
    7    25    14    15     9
    7    25    14    16     9
    7    25    30     8     9
    7    25    30    57     9
    7    25    30    58     9
   14    25    30    57     9
   14    25    30    58     9
   18    26     6    61     9
   28    26     6    61     9
    6    26    18    16     9
    6    26    18    17     9
    6    26    28    27     9
    6    26    28    32     9
   18    26    28    27     9
   18    26    28    32     9
   24    27    28    26     9
   24    27    28    32     9
   31    27    28    32     9
   24    27    31    33     9
   28    27    31    33     9
   26    28    27    31     9
   26    28    32    34     9
   27    28    32    34     9
   25    30     8    63     9
   57    30     8    63     9
   58    30     8    63     9
    8    30    25    14     9
    9    31    27    24     9
    9    31    27    28     9
    9    31    33    34     9
    9    31    33    35     9
   27    31    33    34     9
   27    31    33    35     9
   10    32    28    26     9
   10    32    28    27     9
   10    32    34    33     9
   10    32    34    36     9
   28    32    34    33     9
   28    32    34    36     9
   31    33    34    32     9
   31    33    34    36     9
   35    33    34    36     9
   31    33    35    37     9
   34    33    35    37     9
   32    34    33    35     9
   32    34    36    38     9
   32    34    36    62     9
   33    34    36    38     9
   33    34    36    62     9
   33    35    11    39     9
   37    35    11    39     9
   11    35    33    31     9
   11    35    33    34     9
   11    35    37    38     9
   11    35    37    64     9
   33    35    37    38     9
   33    35    37    64     9
   34    36    38    37     9
   34    36    38    65     9
   62    36    38    65     9
   35    37    38    36     9
   35    37    38    65     9
   64    37    38    65     9
   37    38    36    62     9
   36    38    37    64     9
   20    21    12    69     9
   22    21    12    69     9
   48    21    12    69     9

[ dihedrals ]
; ai	aj	ak	al	funct	q0	cq
   25    14    30     7     2
   31    27    33     9     2
   32    28    34    10     2
