; parameters for DXP that data/toppar/forcefield.itp does not carry.
; new atom types: CG2O5 CG301 CG314 HGP2 NG3P3 OG2D3 OG3C61
; a line is kept only when every type it names is one this molecule
; uses, so nothing is pulled in that has no definition here.

[ atomtypes ]
CG2O5     6    12.011000    0.000  A  0.356359487256  0.37656
CG301     6    12.011000    0.000  A  0.356359487256  0.13389
CG314     6    12.011000    0.000  A  0.385759144955  0.12970
 HGP2     1     1.008000    0.000  A  0.040001352445  0.19246
NG3P3     7    14.007000    0.000  A  0.329632525712  0.83680
OG2D3     8    15.999400    0.000  A  0.302905564168  0.20920
OG3C61     8    15.999400    0.000  A  0.293996576986  0.41840

[ bondtypes ]
   CG2O5    CG2O5     1   0.15026000    193175.28
   CG2O5   CG2R61     1   0.14600000    212547.20
   CG2O5    CG301     1   0.15000000    276144.00
   CG2O5    CG311     1   0.15000000    276144.00
   CG2O5    CG314     1   0.15000000    276144.00
   CG2O5    CG321     1   0.15000000    276144.00
   CG2O5    CG331     1   0.15000000    276144.00
   CG2O5    OG2D3     1   0.12300000    585760.00
  CG2R61    CG301     1   0.14900000    192464.00
  CG2R61    CG311     1   0.14900000    192464.00
  CG2R61    CG314     1   0.14900000    192464.00
  CG2R61    CG321     1   0.14900000    192464.00
  CG2R61    CG331     1   0.14900000    192464.00
  CG2R61    OG301     1   0.13820000    192464.00
  CG2R61    OG311     1   0.14110000    279742.24
   CG301    CG301     1   0.15000000    186188.00
   CG301    CG311     1   0.15000000    186188.00
   CG301    CG314     1   0.15000000    186188.00
   CG301    CG321     1   0.15380000    186188.00
   CG301    CG331     1   0.15380000    186188.00
   CG301    NG3P3     1   0.14800000    167360.00
   CG301    OG301     1   0.14150000    301248.00
   CG301    OG311     1   0.14200000    358150.40
   CG301   OG3C61     1   0.14150000    301248.00
   CG311    CG311     1   0.15000000    186188.00
   CG311    CG314     1   0.15000000    186188.00
   CG311    OG311     1   0.14200000    358150.40
   CG311   OG3C61     1   0.14150000    301248.00
   CG311     HGA3     1   0.11110000    269449.60
   CG314    CG314     1   0.15000000    186188.00
   CG314    CG321     1   0.15380000    186188.00
   CG314    CG331     1   0.15380000    186188.00
   CG314    NG3P3     1   0.14800000    167360.00
   CG314    OG311     1   0.14200000    358150.40
   CG314   OG3C61     1   0.14150000    301248.00
   CG314     HGA1     1   0.11110000    258571.20
   CG321    CG331     1   0.15280000    186188.00
   CG321   OG3C61     1   0.14150000    301248.00
   CG331    CG331     1   0.15300000    186188.00
   CG331    OG301     1   0.14150000    301248.00
   CG331    OG311     1   0.14200000    358150.40
   NG3P3     HGP2     1   0.10400000    337230.40
   OG301    OG311     1   0.15130000    139578.24

[ angletypes ]
   CG2O5    CG2O5    CG311     5   105.816900   276.060320   0.00000000         0.00
   CG2O5    CG2O5    CG321     5   105.215600   274.805120   0.00000000         0.00
   CG2O5    CG2O5    OG2D3     5   116.550000   751.781120   0.00000000         0.00
  CG2R61    CG2O5   CG2R61     5   107.750000   334.134240   0.00000000         0.00
  CG2R61    CG2O5    CG311     5   117.200000   334.720000   0.00000000         0.00
  CG2R61    CG2O5    CG321     5   116.500000   167.360000   0.00000000         0.00
  CG2R61    CG2O5    CG331     5   116.500000   502.080000   0.00000000         0.00
  CG2R61    CG2O5    OG2D3     5   121.300000   585.760000   0.00000000         0.00
   CG301    CG2O5    CG301     5   115.600000   292.880000   0.00000000         0.00
   CG301    CG2O5    CG311     5   115.600000   292.880000   0.00000000         0.00
   CG301    CG2O5    CG321     5   115.600000   292.880000   0.00000000         0.00
   CG301    CG2O5    CG331     5   115.600000   292.880000   0.00000000         0.00
   CG301    CG2O5    OG2D3     5   121.500000   794.960000   0.00000000         0.00
   CG311    CG2O5    CG311     5   115.600000   292.880000   0.00000000         0.00
   CG311    CG2O5    CG321     5   115.600000   292.880000   0.00000000         0.00
   CG311    CG2O5    CG331     5   115.600000   292.880000   0.00000000         0.00
   CG311    CG2O5    OG2D3     5   121.500000   794.960000   0.00000000         0.00
   CG314    CG2O5    CG321     5   120.973000   285.850880   0.00000000         0.00
   CG314    CG2O5    OG2D3     5   115.831600   607.098400   0.00000000         0.00
   CG321    CG2O5    CG321     5   115.600000   292.880000   0.00000000         0.00
   CG321    CG2O5    CG331     5   115.600000   292.880000   0.00000000         0.00
   CG321    CG2O5    OG2D3     5   122.200000   627.600000   0.00000000         0.00
   CG331    CG2O5    CG331     5   115.600000   292.880000   0.00000000         0.00
   CG331    CG2O5    OG2D3     5   122.200000   627.600000   0.00000000         0.00
   CG2O5   CG2R61   CG2R61     5   120.000000   376.560000   0.00000000         0.00
  CG2R61   CG2R61    CG301     5   120.000000   383.254400   0.00000000         0.00
  CG2R61   CG2R61    CG311     5   120.000000   383.254400   0.00000000         0.00
  CG2R61   CG2R61    CG314     5   120.000000   383.254400   0.00000000         0.00
  CG2R61   CG2R61    CG321     5   120.000000   383.254400   0.00000000         0.00
  CG2R61   CG2R61    CG331     5   120.000000   383.254400   0.00000000         0.00
  CG2R61   CG2R61    OG301     5   120.000000   920.480000   0.00000000         0.00
  CG2R61   CG2R61    OG311     5   120.000000   378.233600   0.00000000         0.00
   CG2O5    CG301    CG321     5   108.000000   435.136000   0.00000000         0.00
   CG2O5    CG301    CG331     5   108.000000   435.136000   0.00000000         0.00
   CG2O5    CG301    OG311     5   111.000000   937.216000   0.00000000         0.00
  CG2R61    CG301    CG301     5   107.500000   433.462400   0.00000000         0.00
  CG2R61    CG301    CG321     5   107.500000   433.462400   0.00000000         0.00
  CG2R61    CG301    CG331     5   107.500000   433.462400   0.00000000         0.00
  CG2R61    CG301    OG311     5   112.800000   686.176000   0.00000000         0.00
   CG301    CG301    CG301     5   113.500000   488.272800   0.25610000      9338.69
   CG301    CG301    CG321     5   113.500000   488.272800   0.25610000      9338.69
   CG301    CG301    CG331     5   113.500000   488.272800   0.25610000      9338.69
   CG301    CG301    OG311     5   110.100000   633.457600   0.00000000         0.00
   CG301    CG301   OG3C61     5   114.500000   380.744000   0.00000000         0.00
   CG311    CG301    CG311     5   113.500000   488.272800   0.25610000      9338.69
   CG311    CG301    CG321     5   113.500000   488.272800   0.25610000      9338.69
   CG311    CG301    CG331     5   113.500000   488.272800   0.25610000      9338.69
   CG311    CG301    OG311     5   110.100000   633.457600   0.00000000         0.00
   CG311    CG301   OG3C61     5   114.500000   380.744000   0.00000000         0.00
   CG314    CG301    CG321     5   111.000000   446.432800   0.25610000      6694.40
   CG314    CG301    CG331     5   108.500000   446.432800   0.25610000      6694.40
   CG314    CG301    OG311     5   112.100000   633.457600   0.00000000         0.00
   CG314    CG301   OG3C61     5   116.749400   400.910880   0.00000000         0.00
   CG321    CG301    CG321     5   113.500000   488.272800   0.25610000      9338.69
   CG321    CG301    CG331     5   113.500000   488.272800   0.25610000      9338.69
   CG321    CG301    NG3P3     5   110.000000   566.513600   0.00000000         0.00
   CG321    CG301    OG301     5   114.500000   380.744000   0.00000000         0.00
   CG321    CG301    OG311     5   110.100000   633.457600   0.00000000         0.00
   CG321    CG301   OG3C61     5   114.500000   380.744000   0.00000000         0.00
   CG331    CG301    CG331     5   113.500000   488.272800   0.25610000      9338.69
   CG331    CG301    NG3P3     5   110.000000   566.513600   0.00000000         0.00
   CG331    CG301    OG301     5   111.500000   376.560000   0.00000000         0.00
   CG331    CG301    OG311     5   110.100000   633.457600   0.00000000         0.00
   CG331    CG301   OG3C61     5   111.500000   376.560000   0.00000000         0.00
   OG301    CG301    OG301     5   107.000000   589.860320   0.00000000         0.00
   OG301    CG301    OG311     5   116.500000   376.560000   0.00000000         0.00
   OG311    CG301    OG311     5   116.500000   376.560000   0.00000000         0.00
   OG311    CG301   OG3C61     5   116.500000   376.560000   0.00000000         0.00
  OG3C61    CG301   OG3C61     5   105.973600   586.931520   0.00000000         0.00
   CG2O5    CG311    CG2O5     5   108.054300   214.053440   0.00000000         0.00
   CG2O5    CG311   CG2R61     5   107.500000   334.720000   0.00000000         0.00
   CG2O5    CG311    CG301     5   108.000000   435.136000   0.00000000         0.00
   CG2O5    CG311    CG311     5   108.000000   435.136000   0.00000000         0.00
   CG2O5    CG311    CG314     5   108.000000   435.136000   0.00000000         0.00
   CG2O5    CG311    CG321     5   108.000000   435.136000   0.00000000         0.00
   CG2O5    CG311    CG331     5   108.000000   435.136000   0.00000000         0.00
   CG2O5    CG311    OG311     5   111.000000   937.216000   0.00000000         0.00
   CG2O5    CG311   OG3C61     5   100.597400   251.207360   0.00000000         0.00
   CG2O5    CG311     HGA1     5   109.500000   418.400000   0.00000000         0.00
  CG2R61    CG311   CG2R61     5   107.500000   433.462400   0.00000000         0.00
  CG2R61    CG311    CG301     5   107.500000   433.462400   0.00000000         0.00
  CG2R61    CG311    CG311     5   107.500000   433.462400   0.00000000         0.00
  CG2R61    CG311    CG314     5   107.500000   433.462400   0.00000000         0.00
  CG2R61    CG311    CG321     5   107.500000   433.462400   0.00000000         0.00
  CG2R61    CG311    CG331     5   107.500000   433.462400   0.00000000         0.00
  CG2R61    CG311    OG311     5   112.800000   686.176000   0.00000000         0.00
  CG2R61    CG311   OG3C61     5   113.735300   378.568320   0.00000000         0.00
  CG2R61    CG311     HGA1     5   111.000000   359.824000   0.00000000         0.00
   CG301    CG311    CG301     5   108.000000   435.136000   0.00000000         0.00
   CG301    CG311    CG311     5   108.000000   435.136000   0.00000000         0.00
   CG301    CG311    CG314     5   111.000000   446.432800   0.25610000      6694.40
   CG301    CG311    CG321     5   113.500000   488.272800   0.25610000      9338.69
   CG301    CG311    CG331     5   113.500000   488.272800   0.25610000      9338.69
   CG301    CG311    OG311     5   110.100000   633.457600   0.00000000         0.00
   CG301    CG311   OG3C61     5   111.500000   376.560000   0.00000000         0.00
   CG301    CG311     HGA1     5   110.100000   289.532800   0.21790000     18853.10
   CG311    CG311    CG311     5   111.000000   446.432800   0.25610000      6694.40
   CG311    CG311    CG314     5   111.000000   446.432800   0.25610000      6694.40
   CG311    CG311    CG321     5   111.000000   446.432800   0.25610000      6694.40
   CG311    CG311    CG331     5   108.500000   446.432800   0.25610000      6694.40
   CG311    CG311    OG301     5   109.700000   962.320000   0.00000000         0.00
   CG311    CG311    OG311     5   110.100000   633.457600   0.00000000         0.00
   CG311    CG311   OG3C61     5   111.500000   376.560000   0.00000000         0.00
   CG311    CG311     HGA1     5   110.100000   288.696000   0.21790000     18853.10
   CG314    CG311    CG314     5   106.204400   381.413440   0.00000000         0.00
   CG314    CG311    CG321     5   111.000000   446.432800   0.25610000      6694.40
   CG314    CG311    CG331     5   108.500000   446.432800   0.25610000      6694.40
   CG314    CG311    OG311     5   112.100000   633.457600   0.00000000         0.00
   CG314    CG311   OG3C61     5   106.500000   418.400000   0.00000000         0.00
   CG314    CG311     HGA1     5   110.100000   288.696000   0.21790000     18853.10
   CG321    CG311    CG321     5   113.500000   488.272800   0.25610000      9338.69
   CG321    CG311    OG311     5   110.000000   633.457600   0.00000000         0.00
   CG321    CG311   OG3C61     5   111.500000   376.560000   0.00000000         0.00
   CG331    CG311    CG331     5   114.000000   446.432800   0.25610000      6694.40
   CG331    CG311    OG311     5   110.100000   633.457600   0.00000000         0.00
   CG331    CG311   OG3C61     5   111.500000   376.560000   0.00000000         0.00
   OG301    CG311   OG3C61     5   112.000000   753.120000   0.00000000         0.00
   OG311    CG311    OG311     5   117.150000   840.984000   0.00000000         0.00
   OG311    CG311   OG3C61     5   112.000000   753.120000   0.00000000         0.00
   OG311    CG311     HGA1     5   108.890000   384.091200   0.00000000         0.00
  OG3C61    CG311   OG3C61     5   110.500000   376.560000   0.00000000         0.00
  OG3C61    CG311     HGA1     5   109.500000   376.560000   0.00000000         0.00
   CG2O5    CG314    CG331     5   108.000000   435.136000   0.00000000         0.00
   CG2O5    CG314     HGA1     5   109.500000   418.400000   0.00000000         0.00
  CG2R61    CG314    CG311     5   107.500000   433.462400   0.00000000         0.00
  CG2R61    CG314    CG321     5   107.500000   433.462400   0.00000000         0.00
  CG2R61    CG314    CG331     5   107.500000   433.462400   0.00000000         0.00
  CG2R61    CG314    NG3P3     5   107.000000   376.560000   0.00000000         0.00
  CG2R61    CG314     HGA1     5   111.000000   359.824000   0.00000000         0.00
   CG301    CG314    CG301     5   108.000000   435.136000   0.00000000         0.00
   CG301    CG314    CG321     5   113.500000   488.272800   0.25610000      9338.69
   CG301    CG314    CG331     5   113.500000   488.272800   0.25610000      9338.69
   CG301    CG314    NG3P3     5   110.000000   566.513600   0.00000000         0.00
   CG301    CG314     HGA1     5   110.100000   289.532800   0.21790000     18853.10
   CG311    CG314    CG311     5   111.000000   446.432800   0.25610000      6694.40
   CG311    CG314    CG321     5   113.500000   488.272800   0.25610000      9338.69
   CG311    CG314    CG331     5   113.500000   488.272800   0.25610000      9338.69
   CG311    CG314    NG3P3     5   110.000000   566.513600   0.00000000         0.00
   CG311    CG314    OG311     5   110.100000   633.457600   0.00000000         0.00
   CG311    CG314   OG3C61     5   111.500000   376.560000   0.00000000         0.00
   CG311    CG314     HGA1     5   110.100000   288.696000   0.21790000     18853.10
   CG314    CG314    CG321     5   111.000000   446.432800   0.25610000      6694.40
   CG314    CG314    CG331     5   108.500000   446.432800   0.25610000      6694.40
   CG314    CG314    NG3P3     5   102.062100   499.736960   0.00000000         0.00
   CG314    CG314     HGA1     5   110.100000   288.696000   0.21790000     18853.10
   CG321    CG314    CG321     5   113.500000   488.272800   0.25610000      9338.69
   CG321    CG314    CG331     5   113.500000   488.272800   0.25610000      9338.69
   CG321    CG314    NG3P3     5   110.000000   566.513600   0.00000000         0.00
   CG321    CG314     HGA1     5   110.100000   288.696000   0.21790000     18853.10
   CG331    CG314    CG331     5   114.000000   446.432800   0.25610000      6694.40
   CG331    CG314    NG3P3     5   110.000000   566.513600   0.00000000         0.00
   CG331    CG314     HGA1     5   110.100000   288.696000   0.21790000     18853.10
   NG3P3    CG314   OG3C61     5   115.681000   576.638880   0.00000000         0.00
   NG3P3    CG314     HGA1     5   107.500000   430.952000   0.00000000         0.00
   OG311    CG314     HGA1     5   108.890000   384.091200   0.00000000         0.00
  OG3C61    CG314     HGA1     5   109.500000   376.560000   0.00000000         0.00
   CG2O5    CG321    CG2O5     5   101.594700     8.368000   0.00000000         0.00
   CG2O5    CG321    CG301     5   113.800000   502.080000   0.00000000         0.00
   CG2O5    CG321    CG311     5   113.800000   502.080000   0.00000000         0.00
   CG2O5    CG321    CG314     5   108.000000   435.136000   0.00000000         0.00
   CG2O5    CG321    CG321     5   113.800000   502.080000   0.00000000         0.00
   CG2O5    CG321    CG331     5   111.500000   502.080000   0.00000000         0.00
   CG2O5    CG321     HGA2     5   109.500000   418.400000   0.00000000         0.00
  CG2R61    CG321   CG2R61     5   107.500000   433.462400   0.00000000         0.00
  CG2R61    CG321    CG301     5   107.500000   433.462400   0.00000000         0.00
  CG2R61    CG321    CG311     5   107.500000   433.462400   0.00000000         0.00
  CG2R61    CG321    CG314     5   107.500000   433.462400   0.00000000         0.00
  CG2R61    CG321    CG321     5   107.500000   433.462400   0.00000000         0.00
  CG2R61    CG321    CG331     5   107.500000   433.462400   0.00000000         0.00
  CG2R61    CG321    OG301     5   110.100000   633.457600   0.00000000         0.00
  CG2R61    CG321    OG311     5   110.100000   633.457600   0.00000000         0.00
  CG2R61    CG321   OG3C61     5   110.100000   633.457600   0.00000000         0.00
  CG2R61    CG321     HGA2     5   107.500000   412.542400   0.00000000         0.00
   CG301    CG321    CG301     5   113.500000   488.272800   0.25610000      9338.69
   CG301    CG321    CG311     5   113.500000   488.272800   0.25610000      9338.69
   CG301    CG321    CG321     5   113.500000   488.272800   0.25610000      9338.69
   CG301    CG321    CG331     5   113.500000   546.848800   0.00000000         0.00
   CG301    CG321    OG311     5   110.100000   633.457600   0.00000000         0.00
   CG301    CG321     HGA2     5   110.100000   221.752000   0.21790000     18853.10
   CG311    CG321    CG311     5   113.500000   488.272800   0.25610000      9338.69
   CG311    CG321    CG314     5   113.500000   488.272800   0.25610000      9338.69
   CG311    CG321    CG321     5   113.500000   488.272800   0.25610000      9338.69
   CG311    CG321    CG331     5   113.500000   488.272800   0.25610000      9338.69
   CG311    CG321    OG311     5   110.100000   633.457600   0.00000000         0.00
   CG311    CG321   OG3C61     5   111.500000   376.560000   0.00000000         0.00
   CG314    CG321    CG314     5   111.661400   416.224320   0.00000000         0.00
   CG314    CG321    CG321     5   113.500000   488.272800   0.25610000      9338.69
   CG314    CG321    CG331     5   110.500000   488.272800   0.25610000      9338.69
   CG314    CG321    OG311     5   110.100000   633.457600   0.00000000         0.00
   CG314    CG321   OG3C61     5   106.500000   418.400000   0.00000000         0.00
   CG314    CG321     HGA2     5   110.100000   279.742240   0.21790000     18853.10
   CG321    CG321    CG321     5   113.600000   488.272800   0.25610000      9338.69
   CG321    CG321    CG331     5   115.000000   485.344000   0.25610000      6694.40
   CG321    CG321   OG3C61     5   111.500000   376.560000   0.00000000         0.00
   CG331    CG321    CG331     5   114.000000   446.432800   0.25610000      6694.40
   CG331    CG321    OG301     5   111.500000   376.560000   0.00000000         0.00
   CG331    CG321    OG311     5   110.100000   633.457600   0.00000000         0.00
   CG331    CG321     HGA2     5   110.100000   289.532800   0.21790000     18853.10
   OG301    CG321    OG301     5   113.496500   816.633120   0.00000000         0.00
  OG3C61    CG321   OG3C61     5   110.500000   376.560000   0.00000000         0.00
  OG3C61    CG321     HGA2     5   109.500000   376.560000   0.00000000         0.00
   CG2O5    CG331     HGA3     5   109.500000   418.400000   0.00000000         0.00
  CG2R61    CG331     HGA3     5   107.500000   412.542400   0.00000000         0.00
   CG301    CG331     HGA3     5   110.100000   279.742240   0.21790000     18853.10
   CG314    CG331     HGA3     5   110.100000   279.742240   0.21790000     18853.10
   CG321    CG331     HGA3     5   110.100000   289.532800   0.21790000     18853.10
   CG331    CG331     HGA3     5   110.100000   313.800000   0.21790000     18853.10
   OG301    CG331     HGA3     5   108.890000   384.091200   0.00000000         0.00
   OG311    CG331     HGA3     5   108.890000   384.091200   0.00000000         0.00
   CG301    NG3P3     HGP2     5   105.918800   399.320960   0.00000000         0.00
   CG314    NG3P3     HGP2     5   109.500000   251.040000   0.20740000     16736.00
    HGP2    NG3P3     HGP2     5   109.500000   368.192000   0.00000000         0.00
  CG2R61    OG301   CG2R61     5   120.000000  1548.080000   0.00000000         0.00
  CG2R61    OG301    CG311     5   108.000000   543.920000   0.00000000         0.00
  CG2R61    OG301    CG321     5   108.000000   543.920000   0.00000000         0.00
  CG2R61    OG301    CG331     5   108.000000   543.920000   0.00000000         0.00
   CG301    OG301    CG321     5   109.700000   794.960000   0.00000000         0.00
   CG301    OG301    CG331     5   109.700000   794.960000   0.00000000         0.00
   CG311    OG301    CG331     5   109.700000   794.960000   0.00000000         0.00
   CG311    OG301    OG311     5   104.000000   602.496000   0.00000000         0.00
   CG321    OG301    CG331     5   109.700000   794.960000   0.00000000         0.00
   CG331    OG301    CG331     5   109.700000   794.960000   0.00000000         0.00
   CG331    OG301    OG311     5   104.000000   602.496000   0.00000000         0.00
  CG2R61    OG311     HGP1     5   108.000000   543.920000   0.00000000         0.00
   CG301    OG311     HGP1     5   106.000000   418.400000   0.00000000         0.00
   CG311    OG311     HGP1     5   106.000000   418.400000   0.00000000         0.00
   CG314    OG311     HGP1     5   107.150500   379.154080   0.00000000         0.00
   CG331    OG311     HGP1     5   106.000000   481.160000   0.00000000         0.00
   OG301    OG311     HGP1     5    98.300000   510.448000   0.00000000         0.00
   CG301   OG3C61    CG301     5   109.700000   794.960000   0.00000000         0.00
   CG301   OG3C61    CG311     5   109.700000   794.960000   0.00000000         0.00
   CG301   OG3C61    CG321     5   109.700000   794.960000   0.00000000         0.00
   CG311   OG3C61    CG311     5   109.700000   794.960000   0.00000000         0.00
   CG311   OG3C61    CG321     5   109.700000   794.960000   0.00000000         0.00
   CG314   OG3C61    CG321     5   110.445500   466.683360   0.00000000         0.00
   CG321   OG3C61    CG321     5   109.700000   794.960000   0.00000000         0.00
  CG2O5   CG311   OG301     5  1.0900000e+02  3.7656000e+02  0.0000000e+00  0.0000000e+00
  CG2O5   CG321   OG311     5  1.1100000e+02  9.3721600e+02  0.0000000e+00  0.0000000e+00
 CG2R61   CG311   OG301     5  1.1010000e+02  6.3345760e+02  0.0000000e+00  0.0000000e+00
  CG301   CG301   CG311     5  1.1350000e+02  4.8827280e+02  2.5610000e-01  9.3386880e+03
  CG301   CG321   OG301     5  1.1010000e+02  6.3345760e+02  0.0000000e+00  0.0000000e+00
  CG311   OG301   CG311     5  1.0970000e+02  7.9496000e+02  0.0000000e+00  0.0000000e+00
  CG321   OG301   OG311     5  1.0400000e+02  6.0249600e+02  0.0000000e+00  0.0000000e+00
  OG301   CG311   OG311     5  1.1650000e+02  3.7656000e+02  0.0000000e+00  0.0000000e+00

[ dihedraltypes ]
  CG2R61    CG2O5   CG2R61   CG2R61     9   180.000000     3.792796     2
  CG2R61    CG2O5    CG311    CG331     9     0.000000     1.673600     1
  CG2R61    CG2O5    CG311    CG331     9   180.000000     0.711280     2
  CG2R61    CG2O5    CG311    CG331     9   180.000000     0.543920     3
  CG2R61    CG2O5    CG311    CG331     9   180.000000     0.418400     6
  CG2R61    CG2O5    CG311    OG311     9   180.000000     0.000000     2
  CG2R61    CG2O5    CG311     HGA1     9   180.000000     0.000000     1
  CG2R61    CG2O5    CG321    CG311     9     0.000000     1.673600     1
  CG2R61    CG2O5    CG321    CG311     9   180.000000     0.711280     2
  CG2R61    CG2O5    CG321    CG311     9   180.000000     0.543920     3
  CG2R61    CG2O5    CG321    CG311     9   180.000000     0.418400     6
  CG2R61    CG2O5    CG321    CG321     9     0.000000     1.673600     1
  CG2R61    CG2O5    CG321    CG321     9   180.000000     0.711280     2
  CG2R61    CG2O5    CG321    CG321     9   180.000000     0.543920     3
  CG2R61    CG2O5    CG321    CG321     9   180.000000     0.418400     6
  CG2R61    CG2O5    CG321    CG331     9     0.000000     1.673600     1
  CG2R61    CG2O5    CG321    CG331     9   180.000000     0.711280     2
  CG2R61    CG2O5    CG321    CG331     9   180.000000     0.543920     3
  CG2R61    CG2O5    CG321    CG331     9   180.000000     0.418400     6
  CG2R61    CG2O5    CG321     HGA2     9     0.000000     0.418400     3
  CG2R61    CG2O5    CG331     HGA3     9     0.000000     0.418400     3
  CG2R61   CG2R61   CG2R61    CG301     9   180.000000    12.970400     2
  CG2R61   CG2R61   CG2R61    CG311     9   180.000000    12.970400     2
  CG2R61   CG2R61   CG2R61    CG314     9   180.000000    12.970400     2
  CG2R61   CG2R61   CG2R61    CG321     9   180.000000    12.970400     2
  CG2R61   CG2R61   CG2R61    CG331     9   180.000000    12.970400     2
  CG2R61   CG2R61   CG2R61    OG301     9   180.000000    12.970400     2
  CG2R61   CG2R61   CG2R61    OG311     9   180.000000    12.970400     2
  CG2R61   CG2R61    CG301    CG301     9   180.000000     0.962320     2
  CG2R61   CG2R61    CG301    CG321     9   180.000000     0.962320     2
  CG2R61   CG2R61    CG301    CG331     9   180.000000     0.962320     2
  CG2R61   CG2R61    CG301    OG311     9   180.000000     2.928800     2
  CG2R61   CG2R61    CG311    CG2O5     9     0.000000     0.836800     2
  CG2R61   CG2R61    CG311   CG2R61     9   180.000000     0.962320     2
  CG2R61   CG2R61    CG311    CG301     9   180.000000     0.962320     2
  CG2R61   CG2R61    CG311    CG311     9   180.000000     0.962320     2
  CG2R61   CG2R61    CG311    CG314     9   180.000000     0.962320     2
  CG2R61   CG2R61    CG311    CG321     9   180.000000     0.962320     2
  CG2R61   CG2R61    CG311    CG331     9   180.000000     0.962320     2
  CG2R61   CG2R61    CG311    OG311     9   180.000000     2.928800     2
  CG2R61   CG2R61    CG311   OG3C61     9   180.000000     1.673600     2
  CG2R61   CG2R61    CG311   OG3C61     9     0.000000     1.882800     4
  CG2R61   CG2R61    CG311   OG3C61     9   180.000000     1.255200     6
  CG2R61   CG2R61    CG311     HGA1     9   180.000000     0.418400     6
  CG2R61   CG2R61    CG314    CG311     9   180.000000     0.962320     2
  CG2R61   CG2R61    CG314    CG321     9   180.000000     0.962320     2
  CG2R61   CG2R61    CG314    CG331     9   180.000000     0.962320     2
  CG2R61   CG2R61    CG314    NG3P3     9     0.000000     1.380720     2
  CG2R61   CG2R61    CG314     HGA1     9   180.000000     0.418400     6
  CG2R61   CG2R61    CG321   CG2R61     9   180.000000     0.962320     2
  CG2R61   CG2R61    CG321    CG301     9   180.000000     0.962320     2
  CG2R61   CG2R61    CG321    CG311     9   180.000000     0.962320     2
  CG2R61   CG2R61    CG321    CG314     9   180.000000     0.962320     2
  CG2R61   CG2R61    CG321    CG321     9   180.000000     0.962320     2
  CG2R61   CG2R61    CG321    CG331     9   180.000000     0.962320     2
  CG2R61   CG2R61    CG321    OG301     9     0.000000     0.000000     2
  CG2R61   CG2R61    CG321    OG311     9     0.000000     0.000000     2
  CG2R61   CG2R61    CG321   OG3C61     9     0.000000     0.000000     2
  CG2R61   CG2R61    CG321     HGA2     9     0.000000     0.008368     6
  CG2R61   CG2R61    CG331     HGA3     9     0.000000     0.008368     6
  CG2R61   CG2R61    OG301   CG2R61     9   180.000000     5.020800     2
  CG2R61   CG2R61    OG301    CG311     9   180.000000     6.778080     2
  CG2R61   CG2R61    OG301    CG311     9   180.000000     0.794960     4
  CG2R61   CG2R61    OG301    CG321     9   180.000000     6.778080     2
  CG2R61   CG2R61    OG301    CG321     9   180.000000     0.794960     4
  CG2R61   CG2R61    OG301    CG331     9   180.000000     6.610720     2
  CG2R61   CG2R61    OG301    CG331     9   180.000000     0.836800     4
  CG2R61   CG2R61    OG311     HGP1     9   180.000000     4.142160     2
  CG2R61    CG301    CG301   CG2R61     9     0.000000     0.794960     3
  CG2R61    CG301    CG301    CG331     9     0.000000     1.715440     3
  CG2R61    CG301    CG301    OG311     9   180.000000     0.000000     3
  CG2R61    CG301    CG321    CG301     9     0.000000     0.083680     2
  CG2R61    CG301    CG321    CG301     9   180.000000     4.895280     3
  CG2R61    CG301    CG321    CG311     9   180.000000     0.167360     2
  CG2R61    CG301    CG321    CG311     9   180.000000     0.292880     3
  CG2R61    CG301    CG321    CG321     9     0.000000    12.217280     3
  CG2R61    CG301    CG321     HGA2     9     0.000000     0.167360     3
  CG2R61    CG301    CG331     HGA3     9     0.000000     0.167360     3
  CG2R61    CG301    OG311     HGP1     9     0.000000     4.518720     1
  CG2R61    CG301    OG311     HGP1     9     0.000000     2.259360     2
  CG2R61    CG301    OG311     HGP1     9     0.000000     3.221680     3
  CG2R61    CG311    CG311    CG321     9     0.000000     0.167360     3
  CG2R61    CG311    CG311    CG331     9     0.000000     0.167360     3
  CG2R61    CG311    CG311    OG311     9   180.000000     0.502080     3
  CG2R61    CG311    CG311     HGA1     9     0.000000     0.000000     3
  CG2R61    CG311    CG314    CG321     9     0.000000     0.167360     3
  CG2R61    CG311    CG314    NG3P3     9     0.000000     0.836800     3
  CG2R61    CG311    CG314     HGA1     9     0.000000     0.167360     3
  CG2R61    CG311    CG321   CG2R61     9     0.000000     4.309520     3
  CG2R61    CG311    CG321    CG301     9     0.000000     0.167360     3
  CG2R61    CG311    CG321    CG321     9     0.000000     0.167360     3
  CG2R61    CG311    CG321    OG311     9     0.000000     7.154640     3
  CG2R61    CG311    CG321     HGA2     9     0.000000     0.000000     3
  CG2R61    CG311    CG331     HGA3     9     0.000000     0.167360     3
  CG2R61    CG311    OG311     HGP1     9     0.000000     4.518720     1
  CG2R61    CG311    OG311     HGP1     9     0.000000     2.259360     2
  CG2R61    CG311    OG311     HGP1     9     0.000000     3.221680     3
  CG2R61    CG311   OG3C61    CG321     9   180.000000     0.711280     1
  CG2R61    CG311   OG3C61    CG321     9     0.000000     0.000000     2
  CG2R61    CG311   OG3C61    CG321     9     0.000000     1.673600     3
  CG2R61    CG314    CG321    CG311     9     0.000000     0.167360     3
  CG2R61    CG314    CG321    CG321     9     0.000000     0.167360     3
  CG2R61    CG314    CG321    OG311     9     0.000000     7.029120     3
  CG2R61    CG314    CG321     HGA2     9     0.000000     0.000000     3
  CG2R61    CG314    CG331     HGA3     9     0.000000     0.167360     3
  CG2R61    CG314    NG3P3     HGP2     9     0.000000     0.167360     3
  CG2R61    CG321    CG321   CG2R61     9     0.000000     3.891120     2
  CG2R61    CG321    CG321   CG2R61     9     0.000000     2.803280     3
  CG2R61    CG321    CG321    CG301     9     0.000000     0.167360     3
  CG2R61    CG321    CG321    CG311     9     0.000000     0.167360     3
  CG2R61    CG321    CG321    CG321     9     0.000000     0.167360     3
  CG2R61    CG321    CG321   OG3C61     9     0.000000     0.083680     1
  CG2R61    CG321    CG321   OG3C61     9     0.000000     5.188160     3
  CG2R61    CG321    CG321     HGA2     9     0.000000     0.167360     3
  CG2R61    CG321    CG331     HGA3     9     0.000000     0.167360     3
  CG2R61    CG321    OG301    CG321     9   180.000000     2.343040     1
  CG2R61    CG321    OG301    CG321     9   180.000000     1.087840     2
  CG2R61    CG321    OG301    CG321     9     0.000000     1.924640     3
  CG2R61    CG321    OG311     HGP1     9     0.000000     8.786400     1
  CG2R61    CG321    OG311     HGP1     9     0.000000     5.857600     2
  CG2R61    CG321    OG311     HGP1     9     0.000000     3.096160     3
  CG2R61    CG321   OG3C61    CG301     9     0.000000     0.711280     1
  CG2R61    CG321   OG3C61    CG301     9     0.000000     1.338880     2
  CG2R61    CG321   OG3C61    CG301     9   180.000000     0.083680     3
  CG2R61    CG321   OG3C61    CG311     9     0.000000     0.041840     1
  CG2R61    CG321   OG3C61    CG311     9     0.000000     1.087840     2
  CG2R61    CG321   OG3C61    CG311     9   180.000000     0.000000     3
  CG2R61    CG321   OG3C61    CG311     9   180.000000     0.083680     4
   OG2D3    CG2O5    CG2O5    OG2D3     9   180.000000     0.977382     2
   OG2D3    CG2O5   CG2R61   CG2R61     9   180.000000     6.631640     2
   OG2D3    CG2O5    CG301    CG321     9     0.000000     0.083680     1
   OG2D3    CG2O5    CG301    CG321     9     0.000000     2.217520     2
   OG2D3    CG2O5    CG301    CG321     9     0.000000     5.313680     3
   OG2D3    CG2O5    CG301    CG321     9   180.000000     1.422560     6
   OG2D3    CG2O5    CG301    CG331     9     0.000000     0.000000     1
   OG2D3    CG2O5    CG301    CG331     9     0.000000     0.083680     2
   OG2D3    CG2O5    CG301    CG331     9   180.000000     0.460240     3
   OG2D3    CG2O5    CG301    CG331     9   180.000000     1.171520     4
   OG2D3    CG2O5    CG301    CG331     9     0.000000     0.543920     6
   OG2D3    CG2O5    CG301    OG311     9     0.000000     0.000000     2
   OG2D3    CG2O5    CG311    CG2O5     9   180.000000     0.125520     2
   OG2D3    CG2O5    CG311    CG2O5     9     0.000000     0.543920     3
   OG2D3    CG2O5    CG311   CG2R61     9     0.000000     0.000000     1
   OG2D3    CG2O5    CG311   CG2R61     9     0.000000     0.000000     2
   OG2D3    CG2O5    CG311   CG2R61     9   180.000000     2.677760     3
   OG2D3    CG2O5    CG311    CG301     9   180.000000     3.138000     1
   OG2D3    CG2O5    CG311    CG301     9   180.000000     0.753120     2
   OG2D3    CG2O5    CG311    CG301     9   180.000000     0.292880     3
   OG2D3    CG2O5    CG311    CG301     9     0.000000     0.125520     6
   OG2D3    CG2O5    CG311    CG311     9   180.000000     3.138000     1
   OG2D3    CG2O5    CG311    CG311     9   180.000000     0.753120     2
   OG2D3    CG2O5    CG311    CG311     9   180.000000     0.292880     3
   OG2D3    CG2O5    CG311    CG311     9     0.000000     0.125520     6
   OG2D3    CG2O5    CG311    CG314     9     0.000000     0.460240     1
   OG2D3    CG2O5    CG311    CG314     9   180.000000     2.050160     2
   OG2D3    CG2O5    CG311    CG314     9   180.000000     2.928800     3
   OG2D3    CG2O5    CG311    CG314     9     0.000000     0.334720     6
   OG2D3    CG2O5    CG311    CG321     9   180.000000     3.138000     1
   OG2D3    CG2O5    CG311    CG321     9   180.000000     0.753120     2
   OG2D3    CG2O5    CG311    CG321     9   180.000000     0.292880     3
   OG2D3    CG2O5    CG311    CG321     9     0.000000     0.125520     6
   OG2D3    CG2O5    CG311    CG331     9   180.000000     3.138000     1
   OG2D3    CG2O5    CG311    CG331     9   180.000000     0.753120     2
   OG2D3    CG2O5    CG311    CG331     9   180.000000     0.292880     3
   OG2D3    CG2O5    CG311    CG331     9     0.000000     0.125520     6
   OG2D3    CG2O5    CG311    OG311     9     0.000000     0.000000     2
   OG2D3    CG2O5    CG311   OG3C61     9   180.000000     0.711280     2
   OG2D3    CG2O5    CG311   OG3C61     9     0.000000     0.251040     6
   OG2D3    CG2O5    CG311     HGA1     9     0.000000     0.000000     1
   OG2D3    CG2O5    CG314    CG331     9   180.000000     3.138000     1
   OG2D3    CG2O5    CG314    CG331     9   180.000000     0.753120     2
   OG2D3    CG2O5    CG314    CG331     9   180.000000     0.292880     3
   OG2D3    CG2O5    CG314    CG331     9     0.000000     0.125520     6
   OG2D3    CG2O5    CG314     HGA1     9     0.000000     0.000000     1
   OG2D3    CG2O5    CG321    CG2O5     9     0.000000     3.598240     2
   OG2D3    CG2O5    CG321    CG2O5     9     0.000000     5.564720     3
   OG2D3    CG2O5    CG321    CG2O5     9     0.000000     1.548080     4
   OG2D3    CG2O5    CG321    CG301     9   180.000000     3.138000     1
   OG2D3    CG2O5    CG321    CG301     9   180.000000     0.753120     2
   OG2D3    CG2O5    CG321    CG301     9   180.000000     0.292880     3
   OG2D3    CG2O5    CG321    CG301     9     0.000000     0.125520     6
   OG2D3    CG2O5    CG321    CG311     9   180.000000     3.138000     1
   OG2D3    CG2O5    CG321    CG311     9   180.000000     0.753120     2
   OG2D3    CG2O5    CG321    CG311     9   180.000000     0.292880     3
   OG2D3    CG2O5    CG321    CG311     9     0.000000     0.125520     6
   OG2D3    CG2O5    CG321    CG314     9     0.000000     0.418400     1
   OG2D3    CG2O5    CG321    CG314     9   180.000000     0.000000     2
   OG2D3    CG2O5    CG321    CG314     9     0.000000     0.000000     3
   OG2D3    CG2O5    CG321    CG314     9     0.000000     0.334720     6
   OG2D3    CG2O5    CG321    CG321     9   180.000000     3.138000     1
   OG2D3    CG2O5    CG321    CG321     9   180.000000     0.753120     2
   OG2D3    CG2O5    CG321    CG321     9   180.000000     0.271960     3
   OG2D3    CG2O5    CG321    CG321     9     0.000000     0.125520     6
   OG2D3    CG2O5    CG321    CG331     9   180.000000     3.138000     1
   OG2D3    CG2O5    CG321    CG331     9   180.000000     0.753120     2
   OG2D3    CG2O5    CG321    CG331     9   180.000000     0.271960     3
   OG2D3    CG2O5    CG321    CG331     9     0.000000     0.125520     6
   OG2D3    CG2O5    CG321     HGA2     9     0.000000     0.000000     3
   OG2D3    CG2O5    CG331     HGA3     9     0.000000     0.000000     3
   CG301    CG2O5    CG301    CG321     9   180.000000     0.502080     1
   CG301    CG2O5    CG301    CG321     9   180.000000     0.585760     2
   CG301    CG2O5    CG301    CG321     9     0.000000     3.221680     3
   CG301    CG2O5    CG301    CG321     9     0.000000     0.920480     6
   CG301    CG2O5    CG301    CG331     9     0.000000     4.560560     1
   CG301    CG2O5    CG301    CG331     9     0.000000     1.338880     2
   CG301    CG2O5    CG301    CG331     9     0.000000     0.502080     3
   CG301    CG2O5    CG301    CG331     9     0.000000     3.430880     6
   CG301    CG2O5    CG311    CG321     9     0.000000     3.138000     1
   CG301    CG2O5    CG311    CG321     9   180.000000     0.753120     2
   CG301    CG2O5    CG311    CG321     9     0.000000     0.292880     3
   CG301    CG2O5    CG311    CG321     9     0.000000     0.125520     6
   CG301    CG2O5    CG311     HGA1     9     0.000000     0.418400     3
   CG301    CG2O5    CG321    CG321     9     0.000000     3.138000     1
   CG301    CG2O5    CG321    CG321     9   180.000000     0.753120     2
   CG301    CG2O5    CG321    CG321     9     0.000000     0.292880     3
   CG301    CG2O5    CG321    CG321     9     0.000000     0.125520     6
   CG301    CG2O5    CG321     HGA2     9     0.000000     0.418400     3
   CG301    CG2O5    CG331     HGA3     9     0.000000     0.418400     3
   CG301   CG2R61   CG2R61    CG321     9   180.000000    10.041600     2
   CG301   CG2R61   CG2R61    CG331     9   180.000000    10.041600     2
   CG301   CG2R61   CG2R61    HGR61     9   180.000000    10.041600     2
   CG301    CG301    CG301    CG321     9     0.000000     0.836800     3
   CG301    CG301    CG301    CG331     9     0.000000     0.836800     3
   CG301    CG301    CG321    CG321     9     0.000000     0.836800     3
   CG301    CG301    CG321     HGA2     9     0.000000     0.836800     3
   CG301    CG301    CG331     HGA3     9     0.000000     0.669440     3
   CG301    CG301    OG311     HGP1     9     0.000000     4.727920     1
   CG301    CG301    OG311     HGP1     9     0.000000     0.585760     2
   CG301    CG301    OG311     HGP1     9     0.000000     1.004160     3
   CG301    CG301   OG3C61    CG321     9   180.000000     2.217520     1
   CG301    CG301   OG3C61    CG321     9     0.000000     2.845120     2
   CG301    CG301   OG3C61    CG321     9   180.000000     0.878640     3
   CG301    CG301   OG3C61    CG321     9     0.000000     0.627600     4
   CG301    CG311    CG311    CG311     9     0.000000     0.836800     3
   CG301    CG311    CG311    CG321     9     0.000000     0.836800     3
   CG301    CG311    CG311    OG311     9     0.000000     0.585760     3
   CG301    CG311    CG311     HGA1     9     0.000000     0.815880     3
   CG301    CG311    CG314    CG331     9     0.000000     0.836800     3
   CG301    CG311    CG314     HGA1     9     0.000000     0.836800     3
   CG301    CG311    CG321    CG311     9     0.000000     0.836800     3
   CG301    CG311    CG321    CG321     9     0.000000     0.836800     3
   CG301    CG311    CG321     HGA2     9     0.000000     0.815880     3
   CG301    CG311    CG331     HGA3     9     0.000000     0.836800     3
   CG301    CG311    OG311     HGP1     9     0.000000     5.564720     1
   CG301    CG311    OG311     HGP1     9     0.000000     0.753120     2
   CG301    CG311    OG311     HGP1     9     0.000000     1.924640     3
   CG301    CG311   OG3C61    CG301     9   180.000000     2.217520     1
   CG301    CG311   OG3C61    CG301     9     0.000000     2.845120     2
   CG301    CG311   OG3C61    CG301     9   180.000000     0.878640     3
   CG301    CG311   OG3C61    CG301     9     0.000000     0.627600     4
   CG301    CG314    CG321    CG321     9     0.000000     0.836800     3
   CG301    CG314    CG321     HGA2     9     0.000000     0.836800     3
   CG301    CG314    CG331     HGA3     9     0.000000     0.836800     3
   CG301    CG314    NG3P3     HGP2     9     0.000000     0.418400     3
   CG301    CG321    CG321    CG311     9     0.000000     0.836800     3
   CG301    CG321    CG321    CG321     9     0.000000     0.815880     3
   CG301    CG321    CG321   OG3C61     9   180.000000     0.794960     1
   CG301    CG321    CG321   OG3C61     9   180.000000     4.184000     2
   CG301    CG321    CG321   OG3C61     9     0.000000     2.510400     3
   CG301    CG321    CG321   OG3C61     9   180.000000     0.334720     4
   CG301    CG321    CG321     HGA2     9     0.000000     0.815880     3
   CG301    CG321    CG331     HGA3     9     0.000000     0.669440     3
   CG301    CG321    OG311     HGP1     9     0.000000     4.727920     1
   CG301    CG321    OG311     HGP1     9     0.000000     0.585760     2
   CG301    CG321    OG311     HGP1     9     0.000000     1.004160     3
   CG311    CG2O5    CG2O5    CG321     9     0.000000     0.125520     2
   CG311    CG2O5    CG2O5    CG321     9     0.000000     0.836800     4
   CG311    CG2O5    CG2O5    OG2D3     9   180.000000     8.116960     2
   CG311    CG2O5    CG2O5    OG2D3     9     0.000000     0.041840     4
   CG311    CG2O5   CG2R61   CG2R61     9   180.000000     6.631640     2
   CG311    CG2O5    CG301    CG321     9   180.000000     0.000000     1
   CG311    CG2O5    CG301    CG321     9   180.000000     1.046000     2
   CG311    CG2O5    CG301    CG321     9     0.000000     1.338880     3
   CG311    CG2O5    CG301    CG321     9     0.000000     3.179840     6
   CG311    CG2O5    CG311    CG311     9     0.000000     3.138000     1
   CG311    CG2O5    CG311    CG311     9   180.000000     0.753120     2
   CG311    CG2O5    CG311    CG311     9     0.000000     0.292880     3
   CG311    CG2O5    CG311    CG311     9     0.000000     0.125520     6
   CG311    CG2O5    CG311    CG321     9     0.000000     3.138000     1
   CG311    CG2O5    CG311    CG321     9   180.000000     0.753120     2
   CG311    CG2O5    CG311    CG321     9     0.000000     0.292880     3
   CG311    CG2O5    CG311    CG321     9     0.000000     0.125520     6
   CG311    CG2O5    CG311     HGA1     9     0.000000     0.418400     3
   CG311    CG2O5    CG321    CG2O5     9     0.000000     0.502080     1
   CG311    CG2O5    CG321    CG2O5     9     0.000000     9.999760     2
   CG311    CG2O5    CG321    CG2O5     9   180.000000     4.727920     3
   CG311    CG2O5    CG321    CG2O5     9     0.000000     1.799120     4
   CG311    CG2O5    CG321    CG2O5     9   180.000000     1.631760     6
   CG311    CG2O5    CG321    CG301     9     0.000000     3.138000     1
   CG311    CG2O5    CG321    CG301     9   180.000000     0.753120     2
   CG311    CG2O5    CG321    CG301     9     0.000000     0.292880     3
   CG311    CG2O5    CG321    CG301     9     0.000000     0.125520     6
   CG311    CG2O5    CG321    CG311     9     0.000000     3.138000     1
   CG311    CG2O5    CG321    CG311     9   180.000000     0.753120     2
   CG311    CG2O5    CG321    CG311     9     0.000000     0.292880     3
   CG311    CG2O5    CG321    CG311     9     0.000000     0.125520     6
   CG311    CG2O5    CG321    CG314     9   180.000000     0.460240     1
   CG311    CG2O5    CG321    CG314     9     0.000000     0.000000     2
   CG311    CG2O5    CG321    CG314     9     0.000000     1.464400     3
   CG311    CG2O5    CG321    CG314     9     0.000000     1.840960     6
   CG311    CG2O5    CG321    CG321     9     0.000000     3.138000     1
   CG311    CG2O5    CG321    CG321     9   180.000000     0.753120     2
   CG311    CG2O5    CG321    CG321     9     0.000000     0.292880     3
   CG311    CG2O5    CG321    CG321     9     0.000000     0.125520     6
   CG311    CG2O5    CG321     HGA2     9     0.000000     0.418400     3
   CG311    CG2O5    CG331     HGA3     9     0.000000     0.418400     3
   CG311   CG2R61   CG2R61    CG311     9   180.000000    10.041600     2
   CG311   CG2R61   CG2R61    CG314     9   180.000000     5.313680     2
   CG311   CG2R61   CG2R61    CG321     9   180.000000    10.041600     2
   CG311   CG2R61   CG2R61    CG331     9   180.000000    10.041600     2
   CG311   CG2R61   CG2R61    OG301     9   180.000000    10.041600     2
   CG311   CG2R61   CG2R61    OG311     9   180.000000    10.041600     2
   CG311   CG2R61   CG2R61    HGR61     9   180.000000    10.041600     2
   CG311    CG301    CG311    CG311     9     0.000000     0.836800     3
   CG311    CG301    CG311    CG321     9     0.000000     0.836800     3
   CG311    CG301    CG311     HGA1     9     0.000000     0.815880     3
   CG311    CG301    CG321    CG311     9     0.000000     0.836800     3
   CG311    CG301    CG321    CG321     9     0.000000     0.836800     3
   CG311    CG301    CG321    CG331     9     0.000000     0.836800     3
   CG311    CG301    CG321    OG311     9     0.000000     0.585760     3
   CG311    CG301    CG321     HGA2     9     0.000000     0.815880     3
   CG311    CG301    CG331     HGA3     9     0.000000     0.669440     3
   CG311    CG301    OG311     HGP1     9     0.000000     4.727920     1
   CG311    CG301    OG311     HGP1     9     0.000000     0.585760     2
   CG311    CG301    OG311     HGP1     9     0.000000     1.004160     3
   CG311    CG301   OG3C61    CG311     9   180.000000     2.217520     1
   CG311    CG301   OG3C61    CG311     9     0.000000     2.845120     2
   CG311    CG301   OG3C61    CG311     9   180.000000     0.878640     3
   CG311    CG301   OG3C61    CG311     9     0.000000     0.627600     4
   CG311    CG311    CG311    CG311     9   180.000000     2.092000     4
   CG311    CG311    CG311    CG314     9     0.000000     0.836800     3
   CG311    CG311    CG311    CG321     9   180.000000     2.092000     4
   CG311    CG311    CG311    CG331     9   180.000000     2.092000     4
   CG311    CG311    CG311    OG301     9   180.000000     0.669440     1
   CG311    CG311    CG311    OG301     9     0.000000     1.631760     2
   CG311    CG311    CG311    OG311     9     0.000000     0.585760     3
   CG311    CG311    CG311   OG3C61     9   180.000000     0.794960     1
   CG311    CG311    CG311   OG3C61     9   180.000000     4.184000     2
   CG311    CG311    CG311   OG3C61     9     0.000000     2.510400     3
   CG311    CG311    CG311   OG3C61     9   180.000000     0.334720     4
   CG311    CG311    CG311     HGA1     9     0.000000     0.815880     3
   CG311    CG311    CG314    CG311     9   180.000000     2.092000     4
   CG311    CG311    CG314    CG321     9   180.000000     2.092000     4
   CG311    CG311    CG314    NG3P3     9     0.000000     0.836800     3
   CG311    CG311    CG314   OG3C61     9   180.000000     0.794960     1
   CG311    CG311    CG314   OG3C61     9   180.000000     4.184000     2
   CG311    CG311    CG314   OG3C61     9     0.000000     2.510400     3
   CG311    CG311    CG314   OG3C61     9   180.000000     0.334720     4
   CG311    CG311    CG314     HGA1     9     0.000000     0.836800     3
   CG311    CG311    CG321    CG2O5     9     0.000000     0.836800     3
   CG311    CG311    CG321    CG301     9     0.000000     0.836800     3
   CG311    CG311    CG321    CG311     9     0.000000     0.836800     3
   CG311    CG311    CG321    CG314     9     0.000000     0.836800     3
   CG311    CG311    CG321    CG321     9     0.000000     0.836800     3
   CG311    CG311    CG321    CG331     9     0.000000     0.836800     3
   CG311    CG311    CG321    OG311     9   180.000000     0.836800     3
   CG311    CG311    CG321   OG3C61     9   180.000000     0.794960     1
   CG311    CG311    CG321   OG3C61     9   180.000000     4.184000     2
   CG311    CG311    CG321   OG3C61     9     0.000000     2.510400     3
   CG311    CG311    CG321   OG3C61     9   180.000000     0.334720     4
   CG311    CG311    CG321     HGA2     9     0.000000     0.815880     3
   CG311    CG311    CG331     HGA3     9     0.000000     0.836800     3
   CG311    CG311    OG301    CG321     9     0.000000     1.673600     1
   CG311    CG311    OG301    CG321     9     0.000000     2.050160     3
   CG311    CG311    OG301    CG331     9     0.000000     1.673600     1
   CG311    CG311    OG301    CG331     9     0.000000     2.050160     3
   CG311    CG311    OG301    OG311     9   180.000000     4.602400     1
   CG311    CG311    OG301    OG311     9     0.000000     2.092000     3
   CG311    CG311    OG311     HGP1     9     0.000000     5.564720     1
   CG311    CG311    OG311     HGP1     9     0.000000     0.753120     2
   CG311    CG311    OG311     HGP1     9     0.000000     1.924640     3
   CG311    CG311   OG3C61    CG311     9   180.000000     2.217520     1
   CG311    CG311   OG3C61    CG311     9     0.000000     2.845120     2
   CG311    CG311   OG3C61    CG311     9   180.000000     0.878640     3
   CG311    CG311   OG3C61    CG311     9     0.000000     0.627600     4
   CG311    CG311   OG3C61    CG321     9   180.000000     2.217520     1
   CG311    CG311   OG3C61    CG321     9     0.000000     2.845120     2
   CG311    CG311   OG3C61    CG321     9   180.000000     0.878640     3
   CG311    CG311   OG3C61    CG321     9     0.000000     0.627600     4
   CG311    CG314    CG321    CG311     9     0.000000     0.836800     3
   CG311    CG314    CG321    CG321     9     0.000000     0.836800     3
   CG311    CG314    CG321     HGA2     9     0.000000     0.836800     3
   CG311    CG314    CG331     HGA3     9     0.000000     0.836800     3
   CG311    CG314    NG3P3     HGP2     9     0.000000     0.418400     3
   CG311    CG314    OG311     HGP1     9     0.000000     5.564720     1
   CG311    CG314    OG311     HGP1     9     0.000000     0.753120     2
   CG311    CG314    OG311     HGP1     9     0.000000     1.924640     3
   CG311    CG314   OG3C61    CG321     9   180.000000     2.217520     1
   CG311    CG314   OG3C61    CG321     9     0.000000     2.845120     2
   CG311    CG314   OG3C61    CG321     9   180.000000     0.878640     3
   CG311    CG314   OG3C61    CG321     9     0.000000     0.627600     4
   CG311    CG321    CG321    CG311     9     0.000000     0.815880     3
   CG311    CG321    CG321    CG314     9     0.000000     0.836800     3
   CG311    CG321    CG321    CG321     9     0.000000     2.092000     3
   CG311    CG321    CG321    CG321     9   180.000000     2.092000     6
   CG311    CG321    CG321   OG3C61     9   180.000000     0.794960     1
   CG311    CG321    CG321   OG3C61     9   180.000000     4.184000     2
   CG311    CG321    CG321   OG3C61     9     0.000000     2.510400     3
   CG311    CG321    CG321   OG3C61     9   180.000000     0.334720     4
   CG311    CG321    CG321     HGA2     9     0.000000     0.815880     3
   CG311    CG321    CG331     HGA3     9     0.000000     0.669440     3
   CG311    CG321    OG311     HGP1     9     0.000000     4.727920     1
   CG311    CG321    OG311     HGP1     9     0.000000     0.585760     2
   CG311    CG321    OG311     HGP1     9     0.000000     1.004160     3
   CG311    CG321   OG3C61    CG301     9   180.000000     2.217520     1
   CG311    CG321   OG3C61    CG301     9     0.000000     2.845120     2
   CG311    CG321   OG3C61    CG301     9   180.000000     0.878640     3
   CG311    CG321   OG3C61    CG301     9     0.000000     0.627600     4
   CG311    CG321   OG3C61    CG311     9   180.000000     2.217520     1
   CG311    CG321   OG3C61    CG311     9     0.000000     2.845120     2
   CG311    CG321   OG3C61    CG311     9   180.000000     0.878640     3
   CG311    CG321   OG3C61    CG311     9     0.000000     0.627600     4
   CG311    CG321   OG3C61    CG314     9   180.000000     0.669440     1
   CG311    CG321   OG3C61    CG314     9   180.000000     1.338880     2
   CG311    CG321   OG3C61    CG314     9   180.000000     0.292880     3
   CG311    CG321   OG3C61    CG314     9     0.000000     1.213360     4
   CG311    CG321   OG3C61    CG321     9   180.000000     2.217520     1
   CG311    CG321   OG3C61    CG321     9     0.000000     2.845120     2
   CG311    CG321   OG3C61    CG321     9   180.000000     0.878640     3
   CG311    CG321   OG3C61    CG321     9     0.000000     0.627600     4
   CG311    OG301    OG311     HGP1     9     0.000000     1.673600     1
   CG311    OG301    OG311     HGP1     9     0.000000     4.811600     2
   CG311    OG301    OG311     HGP1     9     0.000000     0.502080     3
   CG314    CG2O5    CG321    CG321     9     0.000000     0.711280     1
   CG314    CG2O5    CG321    CG321     9     0.000000     3.012480     2
   CG314    CG2O5    CG321    CG321     9   180.000000     0.000000     3
   CG314    CG2O5    CG321    CG321     9   180.000000     1.715440     4
   CG314    CG2O5    CG321    CG321     9     0.000000     0.167360     6
   CG314    CG2O5    CG321     HGA2     9     0.000000     0.000000     3
   CG314   CG2R61   CG2R61    CG314     9   180.000000     2.886960     2
   CG314   CG2R61   CG2R61    CG321     9   180.000000    10.292640     2
   CG314   CG2R61   CG2R61    OG301     9     0.000000     0.000000     2
   CG314   CG2R61   CG2R61    OG311     9   180.000000    12.217280     2
   CG314   CG2R61   CG2R61    HGR61     9   180.000000    10.041600     2
   CG314    CG301    CG321     HGA2     9     0.000000     0.836800     3
   CG314    CG301    CG331     HGA3     9     0.000000     0.836800     3
   CG314    CG301    OG311     HGP1     9     0.000000     2.092000     1
   CG314    CG301    OG311     HGP1     9     0.000000     2.928800     2
   CG314    CG301   OG3C61    CG321     9   180.000000     1.297040     3
   CG314    CG311    CG311    CG321     9     0.000000     0.836800     3
   CG314    CG311    CG311    CG331     9     0.000000     0.836800     3
   CG314    CG311    CG311    OG311     9   180.000000     2.092000     1
   CG314    CG311    CG311    OG311     9     0.000000     2.928800     2
   CG314    CG311    CG311    OG311     9     0.000000     1.673600     3
   CG314    CG311    CG311    OG311     9     0.000000     1.673600     5
   CG314    CG311    CG311   OG3C61     9     0.000000     0.251040     1
   CG314    CG311    CG311   OG3C61     9     0.000000     1.589920     2
   CG314    CG311    CG311   OG3C61     9   180.000000     4.937120     3
   CG314    CG311    CG311   OG3C61     9   180.000000     1.757280     4
   CG314    CG311    CG311   OG3C61     9     0.000000     0.627600     5
   CG314    CG311    CG311     HGA1     9     0.000000     0.836800     3
   CG314    CG311    CG314    CG321     9     0.000000     0.836800     3
   CG314    CG311    CG314    NG3P3     9   180.000000     4.978960     3
   CG314    CG311    CG314    NG3P3     9     0.000000     3.221680     4
   CG314    CG311    CG314     HGA1     9     0.000000     0.836800     3
   CG314    CG311    CG321    CG311     9     0.000000     0.836800     3
   CG314    CG311    CG321    CG321     9     0.000000     0.836800     3
   CG314    CG311    CG321    CG331     9     0.000000     0.836800     3
   CG314    CG311    CG321   OG3C61     9   180.000000     0.000000     1
   CG314    CG311    CG321   OG3C61     9   180.000000     3.305360     2
   CG314    CG311    CG321   OG3C61     9   180.000000     3.723760     3
   CG314    CG311    CG321   OG3C61     9   180.000000     0.627600     4
   CG314    CG311    CG321   OG3C61     9     0.000000     1.171520     6
   CG314    CG311    CG321     HGA2     9     0.000000     0.815880     3
   CG314    CG311    CG331     HGA3     9     0.000000     0.836800     3
   CG314    CG311    OG311     HGP1     9     0.000000     2.092000     1
   CG314    CG311    OG311     HGP1     9     0.000000     2.928800     2
   CG314    CG311   OG3C61    CG321     9     0.000000     2.092000     3
   CG314    CG314    CG321    CG311     9     0.000000     0.836800     3
   CG314    CG314    CG321     HGA2     9     0.000000     0.836800     3
   CG314    CG314    CG331     HGA3     9     0.000000     0.836800     3
   CG314    CG314    NG3P3     HGP2     9     0.000000     1.046000     3
   CG314    CG321    CG321    CG314     9     0.000000     0.836800     3
   CG314    CG321    CG321    CG321     9     0.000000     2.092000     3
   CG314    CG321    CG321    CG321     9   180.000000     2.092000     6
   CG314    CG321    CG321    CG331     9     0.000000     2.092000     3
   CG314    CG321    CG321    CG331     9   180.000000     2.092000     6
   CG314    CG321    CG321     HGA2     9     0.000000     0.815880     3
   CG314    CG321    CG331     HGA3     9     0.000000     0.836800     3
   CG314    CG321    OG311     HGP1     9     0.000000     4.727920     1
   CG314    CG321    OG311     HGP1     9     0.000000     0.585760     2
   CG314    CG321    OG311     HGP1     9     0.000000     1.004160     3
   CG314    CG321   OG3C61    CG321     9     0.000000     2.092000     3
   CG321    CG2O5    CG2O5    OG2D3     9   180.000000     0.460240     2
   CG321    CG2O5    CG2O5    OG2D3     9   180.000000     0.794960     4
   CG321    CG2O5   CG2R61   CG2R61     9   180.000000     1.129680     2
   CG321    CG2O5    CG301    CG321     9     0.000000     0.292880     1
   CG321    CG2O5    CG301    CG321     9     0.000000     7.154640     2
   CG321    CG2O5    CG301    CG321     9     0.000000     1.129680     3
   CG321    CG2O5    CG301    CG321     9     0.000000     1.799120     6
   CG321    CG2O5    CG301    CG331     9     0.000000     0.125520     1
   CG321    CG2O5    CG301    CG331     9   180.000000     0.334720     2
   CG321    CG2O5    CG301    CG331     9   180.000000     1.422560     3
   CG321    CG2O5    CG301    CG331     9     0.000000     1.338880     4
   CG321    CG2O5    CG301    CG331     9     0.000000     0.041840     6
   CG321    CG2O5    CG301    OG311     9   180.000000     0.251040     1
   CG321    CG2O5    CG301    OG311     9   180.000000     1.799120     2
   CG321    CG2O5    CG301    OG311     9     0.000000     0.794960     3
   CG321    CG2O5    CG301    OG311     9     0.000000     1.422560     6
   CG321    CG2O5    CG311    CG2O5     9   180.000000     0.334720     1
   CG321    CG2O5    CG311    CG2O5     9     0.000000     1.046000     2
   CG321    CG2O5    CG311    CG2O5     9   180.000000     0.167360     4
   CG321    CG2O5    CG311   CG2R61     9     0.000000     0.000000     2
   CG321    CG2O5    CG311   CG2R61     9   180.000000     0.209200     3
   CG321    CG2O5    CG311    CG311     9     0.000000     3.138000     1
   CG321    CG2O5    CG311    CG311     9   180.000000     0.753120     2
   CG321    CG2O5    CG311    CG311     9     0.000000     0.292880     3
   CG321    CG2O5    CG311    CG311     9     0.000000     0.125520     6
   CG321    CG2O5    CG311    CG314     9   180.000000     0.167360     1
   CG321    CG2O5    CG311    CG314     9     0.000000     0.292880     2
   CG321    CG2O5    CG311    CG314     9     0.000000     1.840960     3
   CG321    CG2O5    CG311    CG314     9     0.000000     2.343040     6
   CG321    CG2O5    CG311    CG321     9     0.000000     3.138000     1
   CG321    CG2O5    CG311    CG321     9   180.000000     0.753120     2
   CG321    CG2O5    CG311    CG321     9     0.000000     0.292880     3
   CG321    CG2O5    CG311    CG321     9     0.000000     0.125520     6
   CG321    CG2O5    CG311    CG331     9     0.000000     3.138000     1
   CG321    CG2O5    CG311    CG331     9   180.000000     0.753120     2
   CG321    CG2O5    CG311    CG331     9     0.000000     0.292880     3
   CG321    CG2O5    CG311    CG331     9     0.000000     0.125520     6
   CG321    CG2O5    CG311    OG311     9     0.000000     2.510400     1
   CG321    CG2O5    CG311    OG311     9   180.000000     0.334720     2
   CG321    CG2O5    CG311    OG311     9   180.000000     0.460240     3
   CG321    CG2O5    CG311    OG311     9     0.000000     1.129680     6
   CG321    CG2O5    CG311   OG3C61     9   180.000000     0.209200     1
   CG321    CG2O5    CG311   OG3C61     9     0.000000     3.305360     2
   CG321    CG2O5    CG311   OG3C61     9   180.000000     0.669440     3
   CG321    CG2O5    CG311   OG3C61     9   180.000000     3.012480     4
   CG321    CG2O5    CG311   OG3C61     9     0.000000     1.129680     6
   CG321    CG2O5    CG311     HGA1     9     0.000000     0.418400     3
   CG321    CG2O5    CG314    CG331     9     0.000000     3.138000     1
   CG321    CG2O5    CG314    CG331     9   180.000000     0.753120     2
   CG321    CG2O5    CG314    CG331     9     0.000000     0.292880     3
   CG321    CG2O5    CG314    CG331     9     0.000000     0.125520     6
   CG321    CG2O5    CG314     HGA1     9     0.000000     0.418400     3
   CG321    CG2O5    CG321    CG2O5     9     0.000000     0.000000     1
   CG321    CG2O5    CG321    CG2O5     9     0.000000     1.757280     2
   CG321    CG2O5    CG321    CG2O5     9   180.000000     3.054320     3
   CG321    CG2O5    CG321    CG2O5     9     0.000000     1.129680     4
   CG321    CG2O5    CG321    CG2O5     9   180.000000     0.627600     6
   CG321    CG2O5    CG321    CG301     9     0.000000     3.138000     1
   CG321    CG2O5    CG321    CG301     9   180.000000     0.753120     2
   CG321    CG2O5    CG321    CG301     9     0.000000     0.292880     3
   CG321    CG2O5    CG321    CG301     9     0.000000     0.125520     6
   CG321    CG2O5    CG321    CG311     9     0.000000     3.138000     1
   CG321    CG2O5    CG321    CG311     9   180.000000     0.753120     2
   CG321    CG2O5    CG321    CG311     9     0.000000     0.292880     3
   CG321    CG2O5    CG321    CG311     9     0.000000     0.125520     6
   CG321    CG2O5    CG321    CG321     9     0.000000     3.138000     1
   CG321    CG2O5    CG321    CG321     9   180.000000     0.753120     2
   CG321    CG2O5    CG321    CG321     9     0.000000     0.271960     3
   CG321    CG2O5    CG321    CG321     9     0.000000     0.125520     6
   CG321    CG2O5    CG321     HGA2     9     0.000000     0.418400     3
   CG321    CG2O5    CG331     HGA3     9     0.000000     0.418400     3
   CG321   CG2R61   CG2R61    CG321     9   180.000000    10.041600     2
   CG321   CG2R61   CG2R61    CG331     9   180.000000    10.041600     2
   CG321   CG2R61   CG2R61    OG301     9   180.000000    10.041600     2
   CG321   CG2R61   CG2R61    OG311     9   180.000000    10.041600     2
   CG321   CG2R61   CG2R61    HGR61     9   180.000000    10.041600     2
   CG321    CG301    CG301    CG321     9     0.000000     0.836800     3
   CG321    CG301    CG301    OG311     9     0.000000     0.585760     3
   CG321    CG301    CG301   OG3C61     9   180.000000     3.681920     3
   CG321    CG301    CG311    CG301     9     0.000000     0.836800     3
   CG321    CG301    CG311    CG311     9     0.000000     0.836800     3
   CG321    CG301    CG311    CG314     9   180.000000     6.610720     3
   CG321    CG301    CG311    CG321     9     0.000000     0.836800     3
   CG321    CG301    CG311    OG311     9     0.000000     0.585760     3
   CG321    CG301    CG311   OG3C61     9   180.000000     7.322000     1
   CG321    CG301    CG311   OG3C61     9     0.000000     4.435040     2
   CG321    CG301    CG311   OG3C61     9     0.000000     1.966480     3
   CG321    CG301    CG311   OG3C61     9     0.000000     3.556400     4
   CG321    CG301    CG311     HGA1     9     0.000000     0.815880     3
   CG321    CG301    CG314    CG301     9     0.000000     0.836800     3
   CG321    CG301    CG314    NG3P3     9     0.000000     0.836800     3
   CG321    CG301    CG314     HGA1     9     0.000000     0.836800     3
   CG321    CG301    CG321    CG2O5     9     0.000000     0.836800     3
   CG321    CG301    CG321   CG2R61     9     0.000000     0.167360     3
   CG321    CG301    CG321    CG301     9     0.000000     0.836800     3
   CG321    CG301    CG321    CG311     9     0.000000     0.836800     3
   CG321    CG301    CG321    CG321     9     0.000000     0.836800     3
   CG321    CG301    CG321    CG331     9     0.000000     0.836800     3
   CG321    CG301    CG321    OG311     9     0.000000     0.585760     3
   CG321    CG301    CG321     HGA2     9     0.000000     0.815880     3
   CG321    CG301    CG331     HGA3     9     0.000000     0.669440     3
   CG321    CG301    NG3P3     HGP2     9     0.000000     0.418400     3
   CG321    CG301    OG301    CG321     9     0.000000     4.811600     1
   CG321    CG301    OG301    CG321     9   180.000000     0.962320     2
   CG321    CG301    OG301    CG321     9     0.000000     2.050160     3
   CG321    CG301    OG301    CG331     9     0.000000     4.811600     1
   CG321    CG301    OG301    CG331     9   180.000000     0.962320     2
   CG321    CG301    OG301    CG331     9     0.000000     2.050160     3
   CG321    CG301    OG311     HGP1     9     0.000000     4.727920     1
   CG321    CG301    OG311     HGP1     9     0.000000     0.585760     2
   CG321    CG301    OG311     HGP1     9     0.000000     1.004160     3
   CG321    CG301   OG3C61    CG301     9   180.000000     2.217520     1
   CG321    CG301   OG3C61    CG301     9     0.000000     2.845120     2
   CG321    CG301   OG3C61    CG301     9   180.000000     0.878640     3
   CG321    CG301   OG3C61    CG301     9     0.000000     0.627600     4
   CG321    CG301   OG3C61    CG311     9   180.000000     2.217520     1
   CG321    CG301   OG3C61    CG311     9     0.000000     2.845120     2
   CG321    CG301   OG3C61    CG311     9   180.000000     0.878640     3
   CG321    CG301   OG3C61    CG311     9     0.000000     0.627600     4
   CG321    CG301   OG3C61    CG321     9   180.000000     2.217520     1
   CG321    CG301   OG3C61    CG321     9     0.000000     2.845120     2
   CG321    CG301   OG3C61    CG321     9   180.000000     0.878640     3
   CG321    CG301   OG3C61    CG321     9     0.000000     0.627600     4
   CG321    CG311    CG311    CG321     9   180.000000     2.092000     4
   CG321    CG311    CG311    CG331     9   180.000000     2.092000     4
   CG321    CG311    CG311    OG301     9   180.000000     0.669440     1
   CG321    CG311    CG311    OG301     9     0.000000     1.631760     2
   CG321    CG311    CG311    OG311     9     0.000000     0.585760     3
   CG321    CG311    CG311   OG3C61     9   180.000000     0.794960     1
   CG321    CG311    CG311   OG3C61     9   180.000000     4.184000     2
   CG321    CG311    CG311   OG3C61     9     0.000000     2.510400     3
   CG321    CG311    CG311   OG3C61     9   180.000000     0.334720     4
   CG321    CG311    CG311     HGA1     9     0.000000     0.815880     3
   CG321    CG311    CG314    CG311     9   180.000000     2.092000     4
   CG321    CG311    CG314    CG321     9   180.000000     2.092000     4
   CG321    CG311    CG314    CG331     9   180.000000     2.092000     4
   CG321    CG311    CG314    NG3P3     9     0.000000     0.836800     3
   CG321    CG311    CG314    OG311     9     0.000000     0.585760     3
   CG321    CG311    CG314     HGA1     9     0.000000     0.815880     3
   CG321    CG311    CG321    CG2O5     9     0.000000     0.836800     3
   CG321    CG311    CG321   CG2R61     9     0.000000     0.167360     3
   CG321    CG311    CG321    CG301     9     0.000000     0.836800     3
   CG321    CG311    CG321    CG311     9     0.000000     0.836800     3
   CG321    CG311    CG321    CG314     9     0.000000     0.836800     3
   CG321    CG311    CG321    CG321     9     0.000000     0.836800     3
   CG321    CG311    CG321    CG331     9     0.000000     0.836800     3
   CG321    CG311    CG321    OG311     9   180.000000     0.836800     3
   CG321    CG311    CG321   OG3C61     9   180.000000     0.794960     1
   CG321    CG311    CG321   OG3C61     9   180.000000     4.184000     2
   CG321    CG311    CG321   OG3C61     9     0.000000     2.510400     3
   CG321    CG311    CG321   OG3C61     9   180.000000     0.334720     4
   CG321    CG311    CG321     HGA2     9     0.000000     0.815880     1
   CG321    CG311    OG301    CG331     9     0.000000     1.673600     1
   CG321    CG311    OG301    CG331     9     0.000000     2.050160     3
   CG321    CG311    OG301    OG311     9   180.000000     4.602400     1
   CG321    CG311    OG301    OG311     9     0.000000     2.092000     3
   CG321    CG311    OG311     HGP1     9     0.000000     1.255200     1
   CG321    CG311    OG311     HGP1     9     0.000000     1.255200     3
   CG321    CG311   OG3C61    CG301     9   180.000000     2.217520     1
   CG321    CG311   OG3C61    CG301     9     0.000000     2.845120     2
   CG321    CG311   OG3C61    CG301     9   180.000000     0.878640     3
   CG321    CG311   OG3C61    CG301     9     0.000000     0.627600     4
   CG321    CG311   OG3C61    CG311     9   180.000000     2.217520     1
   CG321    CG311   OG3C61    CG311     9     0.000000     2.845120     2
   CG321    CG311   OG3C61    CG311     9   180.000000     0.878640     3
   CG321    CG311   OG3C61    CG311     9     0.000000     0.627600     4
   CG321    CG311   OG3C61    CG321     9   180.000000     2.217520     1
   CG321    CG311   OG3C61    CG321     9     0.000000     2.845120     2
   CG321    CG311   OG3C61    CG321     9   180.000000     0.878640     3
   CG321    CG311   OG3C61    CG321     9     0.000000     0.627600     4
   CG321    CG314    CG314    CG331     9   180.000000     2.092000     4
   CG321    CG314    CG314     HGA1     9     0.000000     0.836800     3
   CG321    CG314    CG321    CG311     9     0.000000     0.836800     3
   CG321    CG314    CG321    CG314     9     0.000000     0.836800     3
   CG321    CG314    CG321    CG321     9     0.000000     0.836800     3
   CG321    CG314    CG321    OG311     9   180.000000     0.836800     3
   CG321    CG314    CG321   OG3C61     9   180.000000     0.794960     1
   CG321    CG314    CG321   OG3C61     9   180.000000     4.184000     2
   CG321    CG314    CG321   OG3C61     9     0.000000     2.510400     3
   CG321    CG314    CG321   OG3C61     9   180.000000     0.334720     4
   CG321    CG314    CG321     HGA2     9     0.000000     0.815880     3
   CG321    CG314    CG331     HGA3     9     0.000000     0.836800     3
   CG321    CG314    NG3P3     HGP2     9     0.000000     0.418400     3
   CG321    CG321    CG321    CG321     9     0.000000     0.269868     2
   CG321    CG321    CG321    CG321     9   180.000000     0.626554     3
   CG321    CG321    CG321    CG321     9     0.000000     0.395723     4
   CG321    CG321    CG321    CG321     9     0.000000     0.470742     5
   CG321    CG321    CG321    CG331     9     0.000000     0.629734     2
   CG321    CG321    CG321    CG331     9   180.000000     0.340285     3
   CG321    CG321    CG321    CG331     9     0.000000     0.452876     4
   CG321    CG321    CG321    CG331     9     0.000000     0.853159     5
   CG321    CG321    CG321    OG301     9   180.000000     0.669440     1
   CG321    CG321    CG321    OG301     9     0.000000     1.631760     2
   CG321    CG321    CG321    OG311     9     0.000000     0.815880     3
   CG321    CG321    CG321   OG3C61     9   180.000000     0.794960     1
   CG321    CG321    CG321   OG3C61     9   180.000000     4.184000     2
   CG321    CG321    CG321   OG3C61     9     0.000000     2.510400     3
   CG321    CG321    CG321   OG3C61     9   180.000000     0.334720     4
   CG321    CG321    CG321     HGA2     9     0.000000     0.815880     3
   CG321    CG321    CG331     HGA3     9     0.000000     0.669440     3
   CG321    CG321    OG301   CG2R61     9     0.000000     1.004160     1
   CG321    CG321    OG301   CG2R61     9     0.000000     1.213360     2
   CG321    CG321    OG301   CG2R61     9     0.000000     0.083680     3
   CG321    CG321    OG301    CG301     9     0.000000     2.384880     1
   CG321    CG321    OG301    CG301     9     0.000000     1.213360     2
   CG321    CG321    OG301    CG301     9     0.000000     1.799120     3
   CG321    CG321    OG301    CG331     9     0.000000     2.384880     1
   CG321    CG321    OG301    CG331     9     0.000000     1.213360     2
   CG321    CG321    OG301    CG331     9     0.000000     1.799120     3
   CG321    CG321   OG3C61    CG301     9   180.000000     2.217520     1
   CG321    CG321   OG3C61    CG301     9     0.000000     2.845120     2
   CG321    CG321   OG3C61    CG301     9   180.000000     0.878640     3
   CG321    CG321   OG3C61    CG301     9     0.000000     0.627600     4
   CG321    CG321   OG3C61    CG311     9   180.000000     2.217520     1
   CG321    CG321   OG3C61    CG311     9     0.000000     2.845120     2
   CG321    CG321   OG3C61    CG311     9   180.000000     0.878640     3
   CG321    CG321   OG3C61    CG311     9     0.000000     0.627600     4
   CG321    CG321   OG3C61    CG321     9   180.000000     2.217520     1
   CG321    CG321   OG3C61    CG321     9     0.000000     2.845120     2
   CG321    CG321   OG3C61    CG321     9   180.000000     0.878640     3
   CG321    CG321   OG3C61    CG321     9     0.000000     0.627600     4
   CG331    CG2O5   CG2R61   CG2R61     9   180.000000     1.046000     2
   CG331    CG2O5    CG301    CG321     9     0.000000     0.334720     1
   CG331    CG2O5    CG301    CG321     9   180.000000     3.723760     2
   CG331    CG2O5    CG301    CG321     9     0.000000     0.460240     3
   CG331    CG2O5    CG301    CG321     9   180.000000     0.334720     6
   CG331    CG2O5    CG301    CG331     9   180.000000     0.962320     1
   CG331    CG2O5    CG301    CG331     9   180.000000     0.376560     2
   CG331    CG2O5    CG301    CG331     9     0.000000    11.045760     3
   CG331    CG2O5    CG301    CG331     9   180.000000     0.962320     6
   CG331    CG2O5    CG311    CG301     9     0.000000     3.138000     1
   CG331    CG2O5    CG311    CG301     9   180.000000     0.753120     2
   CG331    CG2O5    CG311    CG301     9     0.000000     0.292880     3
   CG331    CG2O5    CG311    CG301     9     0.000000     0.125520     6
   CG331    CG2O5    CG311    CG321     9     0.000000     3.138000     1
   CG331    CG2O5    CG311    CG321     9   180.000000     0.753120     2
   CG331    CG2O5    CG311    CG321     9     0.000000     0.292880     3
   CG331    CG2O5    CG311    CG321     9     0.000000     0.125520     6
   CG331    CG2O5    CG311     HGA1     9     0.000000     0.418400     3
   CG331    CG2O5    CG321    CG321     9     0.000000     3.138000     1
   CG331    CG2O5    CG321    CG321     9   180.000000     0.753120     2
   CG331    CG2O5    CG321    CG321     9     0.000000     0.271960     3
   CG331    CG2O5    CG321    CG321     9     0.000000     0.125520     6
   CG331    CG2O5    CG321    CG331     9     0.000000     3.138000     1
   CG331    CG2O5    CG321    CG331     9   180.000000     0.753120     2
   CG331    CG2O5    CG321    CG331     9     0.000000     0.271960     3
   CG331    CG2O5    CG321    CG331     9     0.000000     0.125520     6
   CG331    CG2O5    CG321     HGA2     9     0.000000     0.418400     3
   CG331    CG2O5    CG331     HGA3     9     0.000000     0.418400     3
   CG331   CG2R61   CG2R61    CG331     9   180.000000    10.041600     2
   CG331   CG2R61   CG2R61    OG301     9   180.000000    10.041600     2
   CG331   CG2R61   CG2R61    OG311     9   180.000000    10.041600     2
   CG331   CG2R61   CG2R61    HGR61     9   180.000000    10.041600     2
   CG331    CG301    CG301    CG331     9     0.000000     0.836800     3
   CG331    CG301    CG301    OG311     9     0.000000     0.585760     3
   CG331    CG301    CG311    CG2O5     9     0.000000     0.836800     3
   CG331    CG301    CG311   CG2R61     9     0.000000     0.292880     3
   CG331    CG301    CG311    CG301     9     0.000000     0.836800     3
   CG331    CG301    CG311    CG311     9     0.000000     0.836800     3
   CG331    CG301    CG311    CG321     9     0.000000     0.836800     3
   CG331    CG301    CG311    CG331     9     0.000000     0.836800     3
   CG331    CG301    CG311    OG311     9     0.000000     0.585760     3
   CG331    CG301    CG311     HGA1     9     0.000000     0.815880     3
   CG331    CG301    CG314    CG301     9     0.000000     0.836800     3
   CG331    CG301    CG314    CG321     9     0.000000     0.836800     3
   CG331    CG301    CG314    CG331     9     0.000000     0.836800     3
   CG331    CG301    CG314    NG3P3     9     0.000000     0.836800     3
   CG331    CG301    CG314     HGA1     9     0.000000     0.836800     3
   CG331    CG301    CG321    CG2O5     9     0.000000     0.836800     3
   CG331    CG301    CG321   CG2R61     9     0.000000     0.167360     3
   CG331    CG301    CG321    CG301     9     0.000000     1.840960     1
   CG331    CG301    CG321    CG301     9   180.000000     0.083680     2
   CG331    CG301    CG321    CG301     9     0.000000     0.836800     3
   CG331    CG301    CG321    CG311     9     0.000000     0.836800     3
   CG331    CG301    CG321    CG321     9     0.000000     0.836800     3
   CG331    CG301    CG321    CG331     9     0.000000     1.840960     1
   CG331    CG301    CG321    CG331     9   180.000000     0.083680     2
   CG331    CG301    CG321    CG331     9   180.000000     3.054320     3
   CG331    CG301    CG321     HGA2     9     0.000000     0.815880     3
   CG331    CG301    CG331     HGA3     9     0.000000     0.669440     3
   CG331    CG301    NG3P3     HGP2     9     0.000000     0.418400     3
   CG331    CG301    OG301    CG321     9     0.000000     1.673600     1
   CG331    CG301    OG301    CG321     9     0.000000     2.050160     3
   CG331    CG301    OG301    CG331     9     0.000000     1.673600     1
   CG331    CG301    OG301    CG331     9     0.000000     2.050160     3
   CG331    CG301    OG311     HGP1     9     0.000000     4.727920     1
   CG331    CG301    OG311     HGP1     9     0.000000     0.585760     2
   CG331    CG301    OG311     HGP1     9     0.000000     1.004160     3
   CG331    CG301   OG3C61    CG301     9   180.000000     4.142160     1
   CG331    CG301   OG3C61    CG301     9   180.000000     2.719600     2
   CG331    CG301   OG3C61    CG301     9     0.000000     0.083680     3
   CG331    CG301   OG3C61    CG301     9     0.000000     0.083680     4
   CG331    CG301   OG3C61    CG301     9   180.000000     0.083680     6
   CG331    CG301   OG3C61    CG311     9   180.000000     2.217520     1
   CG331    CG301   OG3C61    CG311     9     0.000000     2.845120     2
   CG331    CG301   OG3C61    CG311     9   180.000000     0.878640     3
   CG331    CG301   OG3C61    CG311     9     0.000000     0.627600     4
   CG331    CG301   OG3C61    CG321     9   180.000000     2.217520     1
   CG331    CG301   OG3C61    CG321     9     0.000000     2.845120     2
   CG331    CG301   OG3C61    CG321     9   180.000000     0.878640     3
   CG331    CG301   OG3C61    CG321     9     0.000000     0.627600     4
   CG331    CG311    CG311    CG331     9   180.000000     2.092000     4
   CG331    CG311    CG311    OG311     9     0.000000     0.585760     3
   CG331    CG311    CG311   OG3C61     9   180.000000     0.794960     1
   CG331    CG311    CG311   OG3C61     9   180.000000     4.184000     2
   CG331    CG311    CG311   OG3C61     9     0.000000     2.510400     3
   CG331    CG311    CG311   OG3C61     9   180.000000     0.334720     4
   CG331    CG311    CG311     HGA1     9     0.000000     0.815880     3
   CG331    CG311    CG314   CG2R61     9     0.000000     0.167360     3
   CG331    CG311    CG314    CG321     9   180.000000     2.092000     4
   CG331    CG311    CG314    CG331     9   180.000000     2.092000     4
   CG331    CG311    CG314    NG3P3     9     0.000000     0.836800     3
   CG331    CG311    CG314     HGA1     9     0.000000     0.815880     3
   CG331    CG311    CG321    CG2O5     9     0.000000     0.836800     3
   CG331    CG311    CG321   CG2R61     9     0.000000     0.167360     3
   CG331    CG311    CG321    CG301     9     0.000000     0.836800     3
   CG331    CG311    CG321    CG311     9     0.000000     0.836800     3
   CG331    CG311    CG321    CG314     9     0.000000     0.836800     3
   CG331    CG311    CG321    CG321     9     0.000000     0.836800     3
   CG331    CG311    CG321    CG331     9     0.000000     0.836800     3
   CG331    CG311    CG321   OG3C61     9   180.000000     0.794960     1
   CG331    CG311    CG321   OG3C61     9   180.000000     4.184000     2
   CG331    CG311    CG321   OG3C61     9     0.000000     2.510400     3
   CG331    CG311    CG321   OG3C61     9   180.000000     0.334720     4
   CG331    CG311    CG331     HGA3     9     0.000000     0.815880     3
   CG331    CG311    OG301   CG2R61     9     0.000000     1.004160     1
   CG331    CG311    OG301   CG2R61     9     0.000000     1.213360     2
   CG331    CG311    OG301   CG2R61     9     0.000000     0.083680     3
   CG331    CG311    OG301    CG331     9     0.000000     1.673600     1
   CG331    CG311    OG301    CG331     9     0.000000     2.050160     3
   CG331    CG311    OG301    OG311     9   180.000000     4.602400     1
   CG331    CG311    OG301    OG311     9     0.000000     2.092000     3
   CG331    CG311    OG311     HGP1     9     0.000000     5.564720     1
   CG331    CG311    OG311     HGP1     9     0.000000     0.753120     2
   CG331    CG311    OG311     HGP1     9     0.000000     1.924640     3
   CG331    CG311   OG3C61    CG301     9   180.000000     2.217520     1
   CG331    CG311   OG3C61    CG301     9     0.000000     2.845120     2
   CG331    CG311   OG3C61    CG301     9   180.000000     0.878640     3
   CG331    CG311   OG3C61    CG301     9     0.000000     0.627600     4
   CG331    CG311   OG3C61    CG311     9   180.000000     2.217520     1
   CG331    CG311   OG3C61    CG311     9     0.000000     2.845120     2
   CG331    CG311   OG3C61    CG311     9   180.000000     0.878640     3
   CG331    CG311   OG3C61    CG311     9     0.000000     0.627600     4
   CG331    CG311   OG3C61    CG321     9   180.000000     2.217520     1
   CG331    CG311   OG3C61    CG321     9     0.000000     2.845120     2
   CG331    CG311   OG3C61    CG321     9   180.000000     0.878640     3
   CG331    CG311   OG3C61    CG321     9     0.000000     0.627600     4
   CG331    CG314    CG314    NG3P3     9     0.000000     0.836800     3
   CG331    CG314    CG314     HGA1     9     0.000000     0.836800     3
   CG331    CG314    CG321    CG2O5     9     0.000000     0.836800     3
   CG331    CG314    CG321    CG311     9     0.000000     0.836800     3
   CG331    CG314    CG321    CG314     9     0.000000     0.836800     3
   CG331    CG314    CG321    CG321     9     0.000000     0.836800     3
   CG331    CG314    CG321    CG331     9     0.000000     0.836800     3
   CG331    CG314    CG321     HGA2     9     0.000000     0.815880     3
   CG331    CG314    CG331     HGA3     9     0.000000     0.815880     3
   CG331    CG314    NG3P3     HGP2     9     0.000000     0.418400     3
   CG331    CG321    CG321    CG331     9     0.000000     0.159787     2
   CG331    CG321    CG321    CG331     9   180.000000     0.132968     6
   CG331    CG321    CG321    OG301     9   180.000000     0.669440     1
   CG331    CG321    CG321    OG301     9     0.000000     1.631760     2
   CG331    CG321    CG321    OG311     9     0.000000     0.815880     3
   CG331    CG321    CG321     HGA2     9     0.000000     0.753120     3
   CG331    CG321    CG331     HGA3     9     0.000000     0.669440     3
   CG331    CG321    OG301   CG2R61     9     0.000000     1.004160     1
   CG331    CG321    OG301   CG2R61     9     0.000000     1.213360     2
   CG331    CG321    OG301   CG2R61     9     0.000000     0.083680     3
   CG331    CG321    OG301    CG321     9     0.000000     1.673600     1
   CG331    CG321    OG301    CG321     9     0.000000     2.050160     3
   CG331    CG321    OG301    CG331     9     0.000000     1.673600     1
   CG331    CG321    OG301    CG331     9     0.000000     2.050160     3
   CG331    CG321    OG311     HGP1     9     0.000000     4.727920     1
   CG331    CG321    OG311     HGP1     9     0.000000     0.585760     2
   CG331    CG321    OG311     HGP1     9     0.000000     1.004160     3
   CG331    OG301    OG311     HGP1     9     0.000000     1.673600     1
   CG331    OG301    OG311     HGP1     9     0.000000     4.811600     2
   CG331    OG301    OG311     HGP1     9     0.000000     0.502080     3
   CG2O5    CG2O5    CG311    CG321     9     0.000000     0.041840     1
   CG2O5    CG2O5    CG311    CG321     9     0.000000     0.083680     2
   CG2O5    CG2O5    CG311    CG321     9     0.000000     0.292880     3
   CG2O5    CG2O5    CG311    CG321     9   180.000000     1.380720     4
   CG2O5    CG2O5    CG311    CG331     9     0.000000     2.384880     1
   CG2O5    CG2O5    CG311    CG331     9     0.000000     2.803280     2
   CG2O5    CG2O5    CG311    CG331     9   180.000000     0.962320     3
   CG2O5    CG2O5    CG311    CG331     9     0.000000     0.376560     4
   CG2O5    CG2O5    CG311     HGA1     9   180.000000     0.000000     3
   CG2O5    CG2O5    CG321    CG301     9   180.000000     3.347200     1
   CG2O5    CG2O5    CG321    CG301     9     0.000000     8.326160     2
   CG2O5    CG2O5    CG321    CG301     9   180.000000     1.840960     3
   CG2O5    CG2O5    CG321     HGA2     9   180.000000     0.000000     3
   CG2O5   CG2R61   CG2R61   CG2R61     9   180.000000    12.970400     2
   CG2O5   CG2R61   CG2R61    CG311     9     0.000000     0.000000     2
   CG2O5   CG2R61   CG2R61    CG321     9   180.000000     7.698560     2
   CG2O5   CG2R61   CG2R61    CG331     9   180.000000    12.300960     2
   CG2O5   CG2R61   CG2R61    OG311     9   180.000000     7.824080     2
   CG2O5   CG2R61   CG2R61    HGR61     9   180.000000    10.041600     2
   CG2O5    CG301    CG321    CG301     9   180.000000    16.024720     3
   CG2O5    CG301    CG321    CG301     9   180.000000     0.878640     6
   CG2O5    CG301    CG321    CG311     9     0.000000     0.920480     3
   CG2O5    CG301    CG321    CG321     9   180.000000     1.799120     3
   CG2O5    CG301    CG321    CG321     9     0.000000     2.468560     4
   CG2O5    CG301    CG321    CG331     9   180.000000     6.861760     3
   CG2O5    CG301    CG321     HGA2     9     0.000000     0.836800     3
   CG2O5    CG301    CG331     HGA3     9     0.000000     0.836800     3
   CG2O5    CG301    OG311     HGP1     9     0.000000     1.464400     1
   CG2O5    CG301    OG311     HGP1     9     0.000000     1.548080     2
   CG2O5    CG301    OG311     HGP1     9   180.000000     0.041840     3
   CG2O5    CG311    CG311    CG321     9     0.000000     0.836800     3
   CG2O5    CG311    CG311    CG331     9     0.000000     0.836800     3
   CG2O5    CG311    CG311     HGA1     9     0.000000     0.836800     3
   CG2O5    CG311    CG314    CG321     9     0.000000     0.836800     3
   CG2O5    CG311    CG314     HGA1     9     0.000000     0.836800     3
   CG2O5    CG311    CG321    CG2O5     9     0.000000     0.836800     3
   CG2O5    CG311    CG321    CG301     9     0.000000     0.836800     3
   CG2O5    CG311    CG321    CG311     9     0.000000     0.836800     3
   CG2O5    CG311    CG321    CG321     9     0.000000     0.836800     3
   CG2O5    CG311    CG321   OG3C61     9     0.000000     0.000000     1
   CG2O5    CG311    CG321   OG3C61     9   180.000000     7.405680     2
   CG2O5    CG311    CG321   OG3C61     9     0.000000     1.213360     6
   CG2O5    CG311    CG321     HGA2     9     0.000000     0.836800     3
   CG2O5    CG311    CG331     HGA3     9     0.000000     0.836800     3
   CG2O5    CG311    OG311     HGP1     9     0.000000     1.464400     1
   CG2O5    CG311    OG311     HGP1     9     0.000000     1.548080     2
   CG2O5    CG311    OG311     HGP1     9   180.000000     0.041840     3
   CG2O5    CG311   OG3C61    CG311     9     0.000000     4.560560     1
   CG2O5    CG311   OG3C61    CG311     9   180.000000     0.836800     2
   CG2O5    CG311   OG3C61    CG311     9   180.000000     0.878640     3
   CG2O5    CG314    CG331     HGA3     9     0.000000     0.836800     3
   CG2O5    CG321    CG321    CG301     9   180.000000     0.878640     1
   CG2O5    CG321    CG321    CG301     9     0.000000     1.631760     2
   CG2O5    CG321    CG321    CG301     9   180.000000     1.464400     3
   CG2O5    CG321    CG321    CG301     9     0.000000     0.460240     4
   CG2O5    CG321    CG321    CG301     9   180.000000     0.376560     6
   CG2O5    CG321    CG321    CG311     9   180.000000     0.878640     1
   CG2O5    CG321    CG321    CG311     9     0.000000     1.631760     2
   CG2O5    CG321    CG321    CG311     9   180.000000     1.464400     3
   CG2O5    CG321    CG321    CG311     9     0.000000     0.460240     4
   CG2O5    CG321    CG321    CG311     9   180.000000     0.376560     6
   CG2O5    CG321    CG321    CG314     9     0.000000     0.815880     3
   CG2O5    CG321    CG321    CG321     9   180.000000     0.878640     1
   CG2O5    CG321    CG321    CG321     9     0.000000     1.631760     2
   CG2O5    CG321    CG321    CG321     9   180.000000     1.464400     3
   CG2O5    CG321    CG321    CG321     9     0.000000     0.460240     4
   CG2O5    CG321    CG321    CG321     9   180.000000     0.376560     6
   CG2O5    CG321    CG321    CG331     9   180.000000     0.878640     1
   CG2O5    CG321    CG321    CG331     9     0.000000     1.631760     2
   CG2O5    CG321    CG321    CG331     9   180.000000     1.464400     3
   CG2O5    CG321    CG321    CG331     9     0.000000     0.460240     4
   CG2O5    CG321    CG321    CG331     9   180.000000     0.376560     6
   CG2O5    CG321    CG321   OG3C61     9   180.000000     0.000000     1
   CG2O5    CG321    CG321   OG3C61     9   180.000000     0.209200     2
   CG2O5    CG321    CG321   OG3C61     9   180.000000     0.794960     3
   CG2O5    CG321    CG321     HGA2     9     0.000000     0.815880     3
   CG2O5    CG321    CG331     HGA3     9     0.000000     0.669440     3
   OG301   CG2R61   CG2R61    OG301     9     0.000000     0.000000     2
   OG301   CG2R61   CG2R61    OG311     9   180.000000     2.426720     2
   OG301   CG2R61   CG2R61    HGR61     9   180.000000    10.041600     2
   OG301    CG301    CG321    CG331     9     0.000000     3.347200     3
   OG301    CG301    CG321     HGA2     9     0.000000     0.669440     3
   OG301    CG301    CG331     HGA3     9     0.000000     0.669440     3
   OG301    CG301    OG301    CG331     9     0.000000     2.133840     1
   OG301    CG301    OG301    CG331     9     0.000000     2.803280     2
   OG301    CG301    OG301    CG331     9     0.000000     1.087840     3
   OG301    CG301    OG311     HGP1     9     0.000000     6.485200     1
   OG301    CG301    OG311     HGP1     9     0.000000     4.895280     2
   OG301    CG301    OG311     HGP1     9     0.000000     4.476880     3
   OG301    CG311    CG311   OG3C61     9     0.000000     7.782240     3
   OG301    CG311    CG311   OG3C61     9     0.000000     0.418400     6
   OG301    CG311    CG311     HGA1     9     0.000000     0.815880     3
   OG301    CG311    CG321    CG314     9   180.000000     0.125520     1
   OG301    CG311    CG321    CG314     9     0.000000     0.920480     2
   OG301    CG311    CG321    CG314     9   180.000000     5.397360     3
   OG301    CG311    CG321    CG314     9     0.000000     1.673600     5
   OG301    CG311    CG321    CG321     9   180.000000     0.669440     1
   OG301    CG311    CG321    CG321     9     0.000000     1.631760     2
   OG301    CG311    CG321   OG3C61     9     0.000000     0.836800     3
   OG301    CG311   OG3C61    CG311     9     0.000000     0.836800     3
   OG301    CG311   OG3C61    CG321     9     0.000000     0.836800     3
   OG301    CG321    CG331     HGA3     9     0.000000     0.669440     3
   OG301    CG321    OG301    CG311     9   180.000000     1.380720     1
   OG301    CG321    OG301    CG311     9     0.000000     0.292880     2
   OG301    CG321    OG301    CG311     9     0.000000     5.397360     3
   OG301    CG321    OG301    CG311     9   180.000000     3.221680     6
   OG311   CG2R61   CG2R61    OG311     9   180.000000    14.145267     2
   OG311   CG2R61   CG2R61    HGR61     9   180.000000    10.041600     2
   OG311    CG301    CG301    OG311     9   180.000000     3.389040     1
   OG311    CG301    CG301    OG311     9     0.000000     2.008320     3
   OG311    CG301    CG311    CG2O5     9   180.000000     2.384880     3
   OG311    CG301    CG311    CG311     9     0.000000     3.347200     3
   OG311    CG301    CG311    CG314     9   180.000000     3.138000     1
   OG311    CG301    CG311    CG314     9   180.000000     5.690240     2
   OG311    CG301    CG311    CG314     9   180.000000     0.836800     3
   OG311    CG301    CG311    CG314     9     0.000000    21.631280     5
   OG311    CG301    CG311    CG321     9     0.000000     3.347200     3
   OG311    CG301    CG311    CG331     9     0.000000     3.347200     3
   OG311    CG301    CG311    OG311     9   180.000000     3.379417     1
   OG311    CG301    CG311    OG311     9     0.000000     1.993676     3
   OG311    CG301    CG311   OG3C61     9   180.000000     0.418400     1
   OG311    CG301    CG311   OG3C61     9     0.000000     0.794960     3
   OG311    CG301    CG311     HGA1     9     0.000000     0.815880     3
   OG311    CG301    CG314    CG331     9     0.000000     3.347200     3
   OG311    CG301    CG314     HGA1     9     0.000000     0.836800     3
   OG311    CG301    CG321    CG2O5     9     0.000000     0.711280     3
   OG311    CG301    CG321   CG2R61     9   180.000000     0.041840     1
   OG311    CG301    CG321   CG2R61     9     0.000000     3.723760     3
   OG311    CG301    CG321    CG311     9     0.000000     3.347200     3
   OG311    CG301    CG321    CG321     9     0.000000     3.347200     3
   OG311    CG301    CG321    CG331     9     0.000000     3.347200     3
   OG311    CG301    CG321     HGA2     9     0.000000     0.836800     3
   OG311    CG301    CG331     HGA3     9     0.000000     0.585760     3
   OG311    CG301    OG301    CG331     9   180.000000     1.715440     1
   OG311    CG301    OG301    CG331     9     0.000000     3.723760     2
   OG311    CG301    OG301    CG331     9     0.000000     0.209200     3
   OG311    CG301    OG311     HGP1     9     0.000000     6.485200     1
   OG311    CG301    OG311     HGP1     9     0.000000     4.895280     2
   OG311    CG301    OG311     HGP1     9     0.000000     4.476880     3
   OG311    CG301   OG3C61    CG301     9   180.000000     1.129680     2
   OG311    CG301   OG3C61    CG301     9     0.000000     3.096160     3
   OG311    CG301   OG3C61    CG311     9   180.000000     0.376560     3
   OG311    CG301   OG3C61    CG321     9   180.000000     0.878640     3
   OG311    CG311    CG311    OG311     9     0.000000     0.836800     3
   OG311    CG311    CG311   OG3C61     9     0.000000     4.267680     2
   OG311    CG311    CG311   OG3C61     9   180.000000     0.334720     3
   OG311    CG311    CG311   OG3C61     9   180.000000     0.209200     4
   OG311    CG311    CG311     HGA1     9     0.000000     0.815880     3
   OG311    CG311    CG314    CG311     9     0.000000     0.585760     3
   OG311    CG311    CG314    CG321     9     0.000000     0.585760     3
   OG311    CG311    CG314    NG3P3     9     0.000000     0.836800     3
   OG311    CG311    CG314   OG3C61     9     0.000000     0.251040     2
   OG311    CG311    CG314   OG3C61     9   180.000000     2.886960     3
   OG311    CG311    CG314     HGA1     9     0.000000     0.815880     3
   OG311    CG311    CG321    CG2O5     9     0.000000     0.836800     3
   OG311    CG311    CG321    CG301     9   180.000000     8.368000     3
   OG311    CG311    CG321    CG301     9     0.000000     1.673600     5
   OG311    CG311    CG321    CG301     9     0.000000     3.347200     6
   OG311    CG311    CG321    CG311     9   180.000000     8.368000     3
   OG311    CG311    CG321    CG311     9     0.000000     1.673600     5
   OG311    CG311    CG321    CG311     9     0.000000     3.347200     6
   OG311    CG311    CG321    CG314     9   180.000000     2.092000     1
   OG311    CG311    CG321    CG314     9     0.000000     2.928800     2
   OG311    CG311    CG321    CG314     9     0.000000     1.673600     3
   OG311    CG311    CG321    CG314     9     0.000000     1.673600     5
   OG311    CG311    CG321    CG321     9   180.000000     2.092000     1
   OG311    CG311    CG321    CG321     9     0.000000     2.928800     2
   OG311    CG311    CG321    CG321     9     0.000000     1.673600     3
   OG311    CG311    CG321    CG321     9     0.000000     1.673600     5
   OG311    CG311    CG321    CG331     9     0.000000     0.585760     3
   OG311    CG311    CG321    OG311     9     0.000000     0.836800     3
   OG311    CG311    CG321   OG3C61     9     0.000000     0.836800     3
   OG311    CG311    CG321     HGA2     9   180.000000     0.815880     3
   OG311    CG311    CG331     HGA3     9     0.000000     0.836800     3
   OG311    CG311    OG311     HGP1     9     0.000000     7.673038     1
   OG311    CG311    OG311     HGP1     9     0.000000     4.413702     2
   OG311    CG311    OG311     HGP1     9     0.000000     1.163570     3
   OG311    CG311   OG3C61    CG311     9     0.000000     0.836800     3
   OG311    CG321    CG331     HGA3     9     0.000000     0.669440     3
  OG3C61    CG301    CG311    CG301     9   180.000000     1.840960     3
  OG3C61    CG301    CG311    CG301     9     0.000000     0.125520     4
  OG3C61    CG301    CG311    CG321     9     0.000000     1.673600     3
  OG3C61    CG301    CG311    CG321     9   180.000000     0.376560     4
  OG3C61    CG301    CG311   OG3C61     9     0.000000     0.376560     3
  OG3C61    CG301    CG311     HGA1     9     0.000000     0.000000     3
  OG3C61    CG301    CG314    CG331     9     0.000000     1.924640     3
  OG3C61    CG301    CG314     HGA1     9     0.000000     0.000000     3
  OG3C61    CG301    CG321    CG2O5     9   180.000000     1.004160     1
  OG3C61    CG301    CG321    CG2O5     9     0.000000     3.598240     2
  OG3C61    CG301    CG321    CG2O5     9   180.000000     0.753120     4
  OG3C61    CG301    CG321    CG311     9     0.000000     3.347200     3
  OG3C61    CG301    CG321    CG321     9     0.000000     3.347200     3
  OG3C61    CG301    CG321     HGA2     9     0.000000     0.669440     3
  OG3C61    CG301    CG331     HGA3     9     0.000000     0.669440     3
  OG3C61    CG301    OG311     HGP1     9     0.000000     6.485200     1
  OG3C61    CG301    OG311     HGP1     9     0.000000     4.895280     2
  OG3C61    CG301    OG311     HGP1     9     0.000000     4.476880     3
  OG3C61    CG301   OG3C61    CG311     9     0.000000     4.853440     3
  OG3C61    CG301   OG3C61    CG311     9     0.000000     7.907760     4
  OG3C61    CG301   OG3C61    CG321     9     0.000000    11.547840     3
  OG3C61    CG311    CG311   OG3C61     9     0.000000     0.836800     3
  OG3C61    CG311    CG311     HGA1     9     0.000000     0.836800     3
  OG3C61    CG311    CG314    CG321     9   180.000000     0.794960     1
  OG3C61    CG311    CG314    CG321     9   180.000000     4.184000     2
  OG3C61    CG311    CG314    CG321     9     0.000000     2.510400     3
  OG3C61    CG311    CG314    CG321     9   180.000000     0.334720     4
  OG3C61    CG311    CG314     HGA1     9     0.000000     0.836800     3
  OG3C61    CG311    CG321   CG2R61     9     0.000000     0.167360     1
  OG3C61    CG311    CG321   CG2R61     9   180.000000     0.334720     3
  OG3C61    CG311    CG321   CG2R61     9   180.000000     0.292880     4
  OG3C61    CG311    CG321    CG301     9   180.000000     0.794960     1
  OG3C61    CG311    CG321    CG301     9   180.000000     4.184000     2
  OG3C61    CG311    CG321    CG301     9     0.000000     2.510400     3
  OG3C61    CG311    CG321    CG301     9   180.000000     0.334720     4
  OG3C61    CG311    CG321    CG311     9   180.000000     0.794960     1
  OG3C61    CG311    CG321    CG311     9   180.000000     4.184000     2
  OG3C61    CG311    CG321    CG311     9     0.000000     2.510400     3
  OG3C61    CG311    CG321    CG311     9   180.000000     0.334720     4
  OG3C61    CG311    CG321    CG314     9   180.000000     0.041840     1
  OG3C61    CG311    CG321    CG314     9     0.000000     0.125520     2
  OG3C61    CG311    CG321    CG314     9   180.000000     0.460240     3
  OG3C61    CG311    CG321    CG314     9     0.000000     2.050160     5
  OG3C61    CG311    CG321    CG321     9   180.000000     0.794960     1
  OG3C61    CG311    CG321    CG321     9   180.000000     4.184000     2
  OG3C61    CG311    CG321    CG321     9     0.000000     2.510400     3
  OG3C61    CG311    CG321    CG321     9   180.000000     0.334720     4
  OG3C61    CG311    CG321    OG311     9     0.000000     3.221680     3
  OG3C61    CG311    CG321   OG3C61     9     0.000000     0.836800     3
  OG3C61    CG311    CG321     HGA2     9     0.000000     0.815880     3
  OG3C61    CG311    CG331     HGA3     9     0.000000     0.836800     3
  OG3C61    CG311    OG301    CG331     9     0.000000     5.983120     1
  OG3C61    CG311    OG301    CG331     9     0.000000     3.640080     2
  OG3C61    CG311    OG301    CG331     9     0.000000     5.606560     3
  OG3C61    CG311    OG311     HGP1     9     0.000000     9.414000     2
  OG3C61    CG311    OG311     HGP1     9     0.000000     2.677760     3
  OG3C61    CG311   OG3C61    CG301     9     0.000000     4.184000     3
  OG3C61    CG311   OG3C61    CG311     9     0.000000     4.184000     3
  OG3C61    CG314    NG3P3     HGP2     9     0.000000     1.506240     3
  OG3C61    CG321    CG321   OG3C61     9     0.000000     0.815880     3
  OG3C61    CG321    CG321     HGA2     9     0.000000     0.815880     3
  OG3C61    CG321   OG3C61    CG311     9     0.000000     4.184000     3
  OG3C61    CG321   OG3C61    CG321     9     0.000000     4.184000     3
   NG3P3    CG301    CG321    CG321     9     0.000000     0.836800     3
   NG3P3    CG301    CG321     HGA2     9     0.000000     0.836800     3
   NG3P3    CG301    CG331     HGA3     9     0.000000     0.836800     3
   NG3P3    CG314    CG314     HGA1     9     0.000000     0.836800     3
   NG3P3    CG314    CG321   CG2R61     9     0.000000     0.836800     3
   NG3P3    CG314    CG321    CG311     9     0.000000     0.836800     3
   NG3P3    CG314    CG321    CG314     9   180.000000     4.435040     3
   NG3P3    CG314    CG321    CG321     9     0.000000     0.836800     3
   NG3P3    CG314    CG321    OG311     9     0.000000     0.836800     3
   NG3P3    CG314    CG321     HGA2     9     0.000000     0.836800     3
   NG3P3    CG314    CG331     HGA3     9     0.000000     0.836800     3
   NG3P3    CG314   OG3C61    CG321     9     0.000000     4.518720     2
   NG3P3    CG314   OG3C61    CG321     9     0.000000     2.761440     3
    HGA1    CG311    CG311     HGA1     9     0.000000     0.815880     3
    HGA1    CG311    CG314   CG2R61     9     0.000000     0.000000     3
    HGA1    CG311    CG314    CG311     9     0.000000     0.836800     3
    HGA1    CG311    CG314    CG321     9     0.000000     0.836800     3
    HGA1    CG311    CG314    CG331     9     0.000000     0.836800     3
    HGA1    CG311    CG314    NG3P3     9     0.000000     0.836800     3
    HGA1    CG311    CG314    OG311     9     0.000000     0.836800     3
    HGA1    CG311    CG314   OG3C61     9     0.000000     0.836800     3
    HGA1    CG311    CG314     HGA1     9     0.000000     0.815880     3
    HGA1    CG311    CG321    CG2O5     9     0.000000     0.836800     3
    HGA1    CG311    CG321   CG2R61     9     0.000000     0.167360     3
    HGA1    CG311    CG321    CG301     9     0.000000     0.815880     3
    HGA1    CG311    CG321    CG311     9     0.000000     0.815880     3
    HGA1    CG311    CG321    CG314     9     0.000000     0.815880     3
    HGA1    CG311    CG321    CG321     9     0.000000     0.815880     3
    HGA1    CG311    CG321    CG331     9     0.000000     0.836800     3
    HGA1    CG311    CG321    OG311     9     0.000000     0.815880     3
    HGA1    CG311    CG321   OG3C61     9     0.000000     0.836800     3
    HGA1    CG311    OG301   CG2R61     9     0.000000     0.418400     3
    HGA1    CG311    OG301    CG331     9     0.000000     1.188256     3
    HGA1    CG311    OG301    OG311     9     0.000000     0.836800     3
    HGA1    CG311    OG311     HGP1     9     0.000000     0.000000     3
    HGA1    CG311   OG3C61    CG301     9     0.000000     0.836800     3
    HGA1    CG311   OG3C61    CG311     9     0.000000     0.836800     3
    HGA1    CG311   OG3C61    CG321     9     0.000000     0.815880     3
    HGA1    CG314    CG314     HGA1     9     0.000000     0.836800     3
    HGA1    CG314    CG321    CG2O5     9     0.000000     0.836800     3
    HGA1    CG314    CG321   CG2R61     9     0.000000     0.167360     3
    HGA1    CG314    CG321    CG311     9     0.000000     0.815880     3
    HGA1    CG314    CG321    CG314     9     0.000000     0.836800     3
    HGA1    CG314    CG321    CG321     9     0.000000     0.815880     3
    HGA1    CG314    CG321    CG331     9     0.000000     0.815880     3
    HGA1    CG314    CG321    OG311     9     0.000000     0.815880     3
    HGA1    CG314    CG321   OG3C61     9     0.000000     0.836800     3
    HGA1    CG314    CG321     HGA2     9     0.000000     0.815880     3
    HGA1    CG314    CG331     HGA3     9     0.000000     0.815880     3
    HGA1    CG314    NG3P3     HGP2     9     0.000000     0.418400     3
    HGA1    CG314    OG311     HGP1     9     0.000000     0.000000     3
    HGA1    CG314   OG3C61    CG321     9     0.000000     0.836800     3
    HGA2    CG321    CG331     HGA3     9     0.000000     0.669440     3
    HGA2    CG321    OG301   CG2R61     9     0.000000     0.397480     3
    HGA2    CG321    OG301    CG301     9     0.000000     1.171520     3
    HGA2    CG321    OG301    CG331     9     0.000000     1.188256     3
    HGA2    CG321   OG3C61    CG301     9     0.000000     0.836800     3
    HGA2    CG321   OG3C61    CG311     9     0.000000     0.815880     3
    HGA2    CG321   OG3C61    CG314     9     0.000000     0.000000     3
    HGA2    CG321   OG3C61    CG321     9     0.000000     0.815880     3
    HGA3    CG331    CG331     HGA3     9     0.000000     0.648520     3
    HGA3    CG331    OG301   CG2R61     9     0.000000     0.355640     3
    HGA3    CG331    OG301    CG301     9     0.000000     1.188256     3
    HGA3    CG331    OG301    CG311     9     0.000000     1.188256     3
    HGA3    CG331    OG301    CG321     9     0.000000     1.188256     3
    HGA3    CG331    OG301    CG331     9     0.000000     1.188256     3
    HGA3    CG331    OG301    OG311     9     0.000000     0.836800     3
    HGA3    CG331    OG311     HGP1     9     0.000000     0.753120     3
   CG2O5    CG2O5    CG311    OG2D3     2     0.000000   738.894400
   CG2O5    CG2O5    CG321    OG2D3     2     0.000000   663.833440
   CG2O5   CG2R61   CG2R61    OG2D3     2     0.000000   778.554536
   CG2O5   CG2R61    CG311    OG2D3     2     0.000000   602.496000
   CG2O5   CG2R61    CG321    OG2D3     2     0.000000   602.496000
   CG2O5   CG2R61    CG331    OG2D3     2     0.000000   502.080000
   CG2O5    CG301    CG301    OG2D3     2     0.000000   585.760000
   CG2O5    CG301    CG311    OG2D3     2     0.000000   585.760000
   CG2O5    CG301    CG321    OG2D3     2     0.000000   585.760000
   CG2O5    CG301    CG331    OG2D3     2     0.000000   585.760000
   CG2O5    CG311    CG311    OG2D3     2     0.000000   585.760000
   CG2O5    CG311    CG321    OG2D3     2     0.000000   585.760000
   CG2O5    CG311    CG331    OG2D3     2     0.000000   585.760000
   CG2O5    CG314    CG321    OG2D3     2     0.000000   585.760000
   CG2O5    CG321    CG321    OG2D3     2     0.000000   585.760000
   CG2O5    CG321    CG331    OG2D3     2     0.000000   585.760000
   CG2O5    CG331    CG331    OG2D3     2     0.000000   585.760000
  CG2O5   CG2O5   CG321   CG321     9  0.000000e+00  1.673600e+00      1
  CG2O5   CG2O5   CG321   CG321     9  1.800000e+02  4.184000e-01      6
  CG2O5   CG2O5   CG321   CG321     9  1.800000e+02  5.439200e-01      3
  CG2O5   CG2O5   CG321   CG321     9  1.800000e+02  7.112800e-01      2
  CG2O5   CG2O5   CG321   CG331     9  0.000000e+00  1.673600e+00      1
  CG2O5   CG2O5   CG321   CG331     9  1.800000e+02  4.184000e-01      6
  CG2O5   CG2O5   CG321   CG331     9  1.800000e+02  5.439200e-01      3
  CG2O5   CG2O5   CG321   CG331     9  1.800000e+02  7.112800e-01      2
  CG2O5  CG2R61  CG2R61   CG2O5     9  0.000000e+00  1.464400e+00      2
  CG2O5  CG2R61  CG2R61   CG2O5     9  1.800000e+02  1.297040e+01      2
  CG2O5  CG2R61  CG2R61   OG301     9  1.800000e+02  5.564720e+00      2
  CG2O5   CG301   CG321  CG2R61     9  0.000000e+00  1.673600e-01      3
  CG2O5   CG311   CG321   CG331     9  0.000000e+00  8.368000e-01      3
  CG2O5   CG311   CG321   OG301     9  0.000000e+00  8.368000e-01      3
  CG2O5   CG311   CG321   OG311     9  0.000000e+00  8.368000e-01      3
  CG2O5   CG311   OG301   CG321     9  0.000000e+00  8.368000e-01      3
  CG2O5   CG321   CG321   CG2O5     9  0.000000e+00  8.368000e-01      3
  CG2O5   CG321   CG321  CG2R61     9  0.000000e+00  1.673600e-01      3
  CG2O5   CG321   CG321   OG301     9  0.000000e+00  8.368000e-01      3
  CG2O5   CG321   CG321   OG311     9  0.000000e+00  8.368000e-01      3
  CG2O5   CG321   OG311    HGP1     9  0.000000e+00  1.464400e+00      1
  CG2O5   CG321   OG311    HGP1     9  0.000000e+00  1.548080e+00      2
  CG2O5   CG321   OG311    HGP1     9  1.800000e+02  4.184000e-02      3
 CG2R61  CG2R61   CG311   OG301     9  0.000000e+00  0.000000e+00      2
 CG2R61   CG311   CG321   CG2O5     9  0.000000e+00  1.673600e-01      3
 CG2R61   CG311   CG321   CG311     9  0.000000e+00  1.673600e-01      3
 CG2R61   CG311   CG321   CG331     9  0.000000e+00  1.673600e-01      3
 CG2R61   CG311   CG321   OG301     9  0.000000e+00  8.368000e-01      3
 CG2R61   CG311   OG301   CG311     9  0.000000e+00  1.924640e+00      3
 CG2R61   CG311   OG301   CG311     9  1.800000e+02  1.087840e+00      2
 CG2R61   CG311   OG301   CG311     9  1.800000e+02  2.343040e+00      1
 CG2R61   CG311   OG301   CG321     9  0.000000e+00  8.368000e-01      3
 CG2R61   CG321   CG321   CG331     9  0.000000e+00  1.673600e-01      3
 CG2R61   CG321   CG321   OG301     9  0.000000e+00  8.368000e-01      3
 CG2R61   CG321   CG321   OG311     9  0.000000e+00  8.368000e-01      3
  CG301   CG2O5   CG321   CG331     9  0.000000e+00  1.255200e-01      6
  CG301   CG2O5   CG321   CG331     9  0.000000e+00  2.719600e-01      3
  CG301   CG2O5   CG321   CG331     9  0.000000e+00  3.138000e+00      1
  CG301   CG2O5   CG321   CG331     9  1.800000e+02  7.531200e-01      2
  CG301   CG2O5   CG321   OG311     9  0.000000e+00  1.129680e+00      6
  CG301   CG2O5   CG321   OG311     9  0.000000e+00  2.510400e+00      1
  CG301   CG2O5   CG321   OG311     9  1.800000e+02  3.347200e-01      2
  CG301   CG2O5   CG321   OG311     9  1.800000e+02  4.602400e-01      3
  CG301  CG2R61  CG2R61   CG301     9  1.800000e+02  1.255200e+01      2
  CG301   CG301   CG311   CG301     9  0.000000e+00  8.368000e-01      3
  CG301   CG301   CG311   CG321     9  0.000000e+00  8.368000e-01      3
  CG301   CG301   CG311    HGA1     9  0.000000e+00  8.158800e-01      3
  CG301   CG311   CG321   OG301     9  1.800000e+02  8.368000e-01      3
  CG301   CG311   CG321   OG311     9  1.800000e+02  8.368000e-01      3
  CG301   CG321   CG321   CG331     9  0.000000e+00  8.158800e-01      3
  CG301   CG321   CG321   OG301     9  0.000000e+00  1.631760e+00      2
  CG301   CG321   CG321   OG301     9  1.800000e+02  6.694400e-01      1
  CG301   CG321   CG321   OG311     9  0.000000e+00  8.158800e-01      3
  CG301   CG321   OG301   CG321     9  0.000000e+00  1.213360e+00      2
  CG301   CG321   OG301   CG321     9  0.000000e+00  1.799120e+00      3
  CG301   CG321   OG301   CG321     9  0.000000e+00  2.384880e+00      1
  CG311   CG2O5   CG321   CG331     9  0.000000e+00  1.255200e-01      6
  CG311   CG2O5   CG321   CG331     9  0.000000e+00  2.719600e-01      3
  CG311   CG2O5   CG321   CG331     9  0.000000e+00  3.138000e+00      1
  CG311   CG2O5   CG321   CG331     9  1.800000e+02  7.531200e-01      2
  CG311   CG301   CG301   CG311     9  0.000000e+00  8.368000e-01      3
  CG311   CG301   CG301   CG321     9  0.000000e+00  8.368000e-01      3
  CG311   CG301   CG301   CG331     9  0.000000e+00  8.368000e-01      3
  CG311   CG301   CG311   CG301     9  0.000000e+00  8.368000e-01      3
  CG311   CG311   CG321   OG301     9  1.800000e+02  8.368000e-01      3
  CG311   CG321   CG321   CG331     9  0.000000e+00  4.527088e-01      4
  CG311   CG321   CG321   CG331     9  0.000000e+00  6.296920e-01      2
  CG311   CG321   CG321   CG331     9  0.000000e+00  8.531176e-01      5
  CG311   CG321   CG321   CG331     9  1.800000e+02  3.401592e-01      3
  CG311   CG321   CG321   OG301     9  0.000000e+00  1.631760e+00      2
  CG311   CG321   CG321   OG301     9  1.800000e+02  6.694400e-01      1
  CG311   CG321   CG321   OG311     9  0.000000e+00  8.158800e-01      3
  CG311   CG321   OG301   CG301     9  0.000000e+00  1.213360e+00      2
  CG311   CG321   OG301   CG301     9  0.000000e+00  1.799120e+00      3
  CG311   CG321   OG301   CG301     9  0.000000e+00  2.384880e+00      1
  CG311   CG321   OG301   CG331     9  0.000000e+00  1.213360e+00      2
  CG311   CG321   OG301   CG331     9  0.000000e+00  1.799120e+00      3
  CG311   CG321   OG301   CG331     9  0.000000e+00  2.384880e+00      1
  CG321   CG2O5   CG2O5   CG321     9  1.800000e+02  5.857600e+00      2
  CG321   CG2O5   CG321   CG331     9  0.000000e+00  1.255200e-01      6
  CG321   CG2O5   CG321   CG331     9  0.000000e+00  2.719600e-01      3
  CG321   CG2O5   CG321   CG331     9  0.000000e+00  3.138000e+00      1
  CG321   CG2O5   CG321   CG331     9  1.800000e+02  7.531200e-01      2
  CG321   CG301   CG301   CG331     9  0.000000e+00  8.368000e-01      3
  CG321   CG301   CG311   CG331     9  0.000000e+00  8.368000e-01      3
  CG321   CG301   CG321   OG301     9  1.800000e+02  8.368000e-01      3
  CG321   CG311   CG321   OG301     9  1.800000e+02  8.368000e-01      3
  CG321   CG311   OG301   CG311     9  0.000000e+00  1.673600e+00      1
  CG321   CG311   OG301   CG311     9  0.000000e+00  2.050160e+00      3
  CG331   CG2O5   CG311   CG2O5     9  0.000000e+00  1.255200e-01      6
  CG331   CG2O5   CG311   CG2O5     9  0.000000e+00  2.719600e-01      3
  CG331   CG2O5   CG311   CG2O5     9  0.000000e+00  3.138000e+00      1
  CG331   CG2O5   CG311   CG2O5     9  1.800000e+02  7.531200e-01      2
  CG331   CG2O5   CG311   CG311     9  0.000000e+00  1.255200e-01      6
  CG331   CG2O5   CG311   CG311     9  0.000000e+00  2.719600e-01      3
  CG331   CG2O5   CG311   CG311     9  0.000000e+00  3.138000e+00      1
  CG331   CG2O5   CG311   CG311     9  1.800000e+02  7.531200e-01      2
  CG331   CG2O5   CG311   CG331     9  0.000000e+00  1.255200e-01      6
  CG331   CG2O5   CG311   CG331     9  0.000000e+00  2.719600e-01      3
  CG331   CG2O5   CG311   CG331     9  0.000000e+00  3.138000e+00      1
  CG331   CG2O5   CG311   CG331     9  1.800000e+02  7.531200e-01      2
  CG331   CG2O5   CG311   OG301     9  0.000000e+00  1.255200e-01      6
  CG331   CG2O5   CG311   OG301     9  0.000000e+00  2.719600e-01      3
  CG331   CG2O5   CG311   OG301     9  0.000000e+00  3.138000e+00      1
  CG331   CG2O5   CG311   OG301     9  1.800000e+02  7.531200e-01      2
  CG331   CG2O5   CG311   OG311     9  0.000000e+00  1.255200e-01      6
  CG331   CG2O5   CG311   OG311     9  0.000000e+00  2.719600e-01      3
  CG331   CG2O5   CG311   OG311     9  0.000000e+00  3.138000e+00      1
  CG331   CG2O5   CG311   OG311     9  1.800000e+02  7.531200e-01      2
  CG331   CG301   CG321   OG301     9  0.000000e+00  8.368000e-01      3
  CG331   CG301   CG321   OG311     9  1.800000e+02  8.368000e-01      3
  CG331   CG311   CG321   OG311     9  1.800000e+02  8.368000e-01      3
  CG331   CG321   OG301   CG301     9  0.000000e+00  1.673600e+00      1
  CG331   CG321   OG301   CG301     9  0.000000e+00  2.050160e+00      3
  CG331   CG321   OG301   CG311     9  0.000000e+00  1.673600e+00      1
  CG331   CG321   OG301   CG311     9  0.000000e+00  2.050160e+00      3
   HGA1   CG311   OG301   CG311     9  0.000000e+00  1.171520e+00      3
  OG2D3   CG2O5   CG311   OG301     9  0.000000e+00  0.000000e+00      2
  OG2D3   CG2O5   CG321   OG311     9  0.000000e+00  0.000000e+00      2
  OG301   CG301   CG321   CG301     9  0.000000e+00  3.347200e+00      3
  OG301   CG301   CG321   CG311     9  0.000000e+00  3.347200e+00      3
  OG301   CG301   CG321   CG321     9  0.000000e+00  3.347200e+00      3
  OG301   CG311   CG321   CG2O5     9  0.000000e+00  8.368000e-01      3
  OG301   CG311   CG321   CG301     9  0.000000e+00  1.631760e+00      2
  OG301   CG311   CG321   CG301     9  1.800000e+02  6.694400e-01      1
  OG301   CG311   CG321   CG311     9  0.000000e+00  1.631760e+00      2
  OG301   CG311   CG321   CG311     9  1.800000e+02  6.694400e-01      1
  OG301   CG311   CG321   CG331     9  0.000000e+00  1.631760e+00      2
  OG301   CG311   CG321   CG331     9  1.800000e+02  6.694400e-01      1
  OG301   CG311   CG321   OG311     9  0.000000e+00  8.368000e-01      3
  OG301   CG311   OG311    HGP1     9  0.000000e+00  4.476880e+00      3
  OG301   CG311   OG311    HGP1     9  0.000000e+00  4.895280e+00      2
  OG301   CG311   OG311    HGP1     9  0.000000e+00  6.485200e+00      1
  OG311   CG301   CG321   CG301     9  0.000000e+00  3.347200e+00      3
  OG311   CG311   CG321   OG301     9  0.000000e+00  8.368000e-01      3
  OG311   CG311   OG301   CG321     9  0.000000e+00  2.092000e-01      3
  OG311   CG311   OG301   CG321     9  0.000000e+00  3.723760e+00      2
  OG311   CG311   OG301   CG321     9  1.800000e+02  1.715440e+00      1
  OG311   CG321   CG321   OG311     9  0.000000e+00  8.368000e-01      3
 OG3C61   CG311   OG301   CG311     9  0.000000e+00  3.640080e+00      2
 OG3C61   CG311   OG301   CG311     9  0.000000e+00  5.606560e+00      3
 OG3C61   CG311   OG301   CG311     9  0.000000e+00  5.983120e+00      1
 CG2R61  CG2R61  CG2R61   OG311     2  0.000000e+00  1.255200e+02
