;;
;; Generated by CHARMM-GUI (http://www.charmm-gui.org) v1.7
;;
;; psf2itp_mol.py
;;
;; Correspondance:
;; jul316@lehigh.edu or wonpil@lehigh.edu
;;
;; GROMACS topology file for CUR
;;


[ moleculetype ]
; name	nrexcl
CUR	     3

[ atoms ]
; nr	type	resnr	residu	atom	cgnr	charge	mass
     1     CG2R61      1      CUR     C1      1     -0.111    12.0110   ; qtot -0.111
     2     CG2R61      1      CUR     C2      2      0.107    12.0110   ; qtot -0.004
     3     CG2R61      1      CUR     C3      3      0.222    12.0110   ; qtot  0.218
     4     CG2R61      1      CUR     C4      4     -0.123    12.0110   ; qtot  0.095
     5     CG2R61      1      CUR     C5      5      0.012    12.0110   ; qtot  0.107
     6     CG2R61      1      CUR     C6      6     -0.118    12.0110   ; qtot -0.011
     7     CG2DC1      1      CUR     C7      7     -0.031    12.0110   ; qtot -0.042
     8     CG2DC1      1      CUR     C8      8     -0.181    12.0110   ; qtot -0.223
     9      CG2O5      1      CUR     C9      9      0.305    12.0110   ; qtot  0.082
    10      OG2D3      1      CUR     O1     10     -0.376    15.9994   ; qtot -0.294
    11      CG321      1      CUR    C10     11     -0.180    12.0110   ; qtot -0.474
    12      CG2O5      1      CUR    C11     12      0.305    12.0110   ; qtot -0.169
    13      OG2D3      1      CUR     O2     13     -0.376    15.9994   ; qtot -0.545
    14     CG2DC1      1      CUR    C12     14     -0.181    12.0110   ; qtot -0.726
    15     CG2DC1      1      CUR    C13     15     -0.031    12.0110   ; qtot -0.757
    16     CG2R61      1      CUR    C14     16      0.012    12.0110   ; qtot -0.745
    17     CG2R61      1      CUR    C15     17     -0.123    12.0110   ; qtot -0.868
    18     CG2R61      1      CUR    C16     18      0.222    12.0110   ; qtot -0.646
    19     CG2R61      1      CUR    C17     19      0.107    12.0110   ; qtot -0.539
    20     CG2R61      1      CUR    C18     20     -0.111    12.0110   ; qtot -0.650
    21     CG2R61      1      CUR    C19     21     -0.118    12.0110   ; qtot -0.768
    22      OG301      1      CUR     O3     22     -0.378    15.9994   ; qtot -1.146
    23      CG331      1      CUR    C20     23     -0.094    12.0110   ; qtot -1.240
    24      OG301      1      CUR     O4     24     -0.378    15.9994   ; qtot -1.618
    25      CG331      1      CUR    C21     25     -0.094    12.0110   ; qtot -1.712
    26      OG311      1      CUR     O5     26     -0.549    15.9994   ; qtot -2.261
    27      OG311      1      CUR     O6     27     -0.549    15.9994   ; qtot -2.810
    28      HGR61      1      CUR     H1     28      0.116     1.0080   ; qtot -2.694
    29      HGR61      1      CUR     H2     29      0.116     1.0080   ; qtot -2.578
    30      HGR61      1      CUR     H3     30      0.116     1.0080   ; qtot -2.462
    31       HGA4      1      CUR     H4     31      0.147     1.0080   ; qtot -2.315
    32       HGA4      1      CUR     H5     32      0.129     1.0080   ; qtot -2.186
    33       HGA2      1      CUR     H6     33      0.090     1.0080   ; qtot -2.096
    34       HGA2      1      CUR     H7     34      0.090     1.0080   ; qtot -2.006
    35       HGA4      1      CUR     H8     35      0.129     1.0080   ; qtot -1.877
    36       HGA4      1      CUR     H9     36      0.147     1.0080   ; qtot -1.730
    37      HGR61      1      CUR    H10     37      0.116     1.0080   ; qtot -1.614
    38      HGR61      1      CUR    H11     38      0.116     1.0080   ; qtot -1.498
    39      HGR61      1      CUR    H12     39      0.116     1.0080   ; qtot -1.382
    40       HGA3      1      CUR    H13     40      0.090     1.0080   ; qtot -1.292
    41       HGA3      1      CUR    H14     41      0.090     1.0080   ; qtot -1.202
    42       HGA3      1      CUR    H15     42      0.090     1.0080   ; qtot -1.112
    43       HGA3      1      CUR    H16     43      0.090     1.0080   ; qtot -1.022
    44       HGA3      1      CUR    H17     44      0.090     1.0080   ; qtot -0.932
    45       HGA3      1      CUR    H18     45      0.090     1.0080   ; qtot -0.842
    46       HGP1      1      CUR    H19     46      0.421     1.0080   ; qtot -0.421
    47       HGP1      1      CUR    H20     47      0.421     1.0080   ; qtot  0.000

[ bonds ]
; ai	aj	funct	b0	Kb
    1     2     1
    1     6     1
    1    28     1
    2     3     1
    2    27     1
    3     4     1
    3    24     1
    4     5     1
    4    29     1
    5     6     1
    5     7     1
    6    30     1
    7     8     1
    7    31     1
    8     9     1
    8    32     1
    9    10     1
    9    11     1
   11    12     1
   11    33     1
   11    34     1
   12    13     1
   12    14     1
   14    15     1
   14    35     1
   15    16     1
   15    36     1
   16    17     1
   16    21     1
   17    18     1
   17    37     1
   18    19     1
   18    22     1
   19    20     1
   19    26     1
   20    21     1
   20    38     1
   21    39     1
   22    23     1
   23    40     1
   23    41     1
   23    42     1
   24    25     1
   25    43     1
   25    44     1
   25    45     1
   26    46     1
   27    47     1

[ pairs ]
; ai	aj	funct	c6	c12
    1     4     1 
    1     7     1 
    1    24     1 
    1    47     1 
    2     5     1 
    2    25     1 
    2    29     1 
    2    30     1 
    3     6     1 
    3     7     1 
    3    28     1 
    3    43     1 
    3    44     1 
    3    45     1 
    3    47     1 
    4     8     1 
    4    25     1 
    4    27     1 
    4    30     1 
    4    31     1 
    5     9     1 
    5    24     1 
    5    28     1 
    5    32     1 
    6     8     1 
    6    27     1 
    6    29     1 
    6    31     1 
    7    10     1 
    7    11     1 
    7    29     1 
    7    30     1 
    8    12     1 
    8    33     1 
    8    34     1 
    9    13     1 
    9    14     1 
    9    31     1 
   10    12     1 
   10    32     1 
   10    33     1 
   10    34     1 
   11    15     1 
   11    32     1 
   11    35     1 
   12    16     1 
   12    36     1 
   13    15     1 
   13    33     1 
   13    34     1 
   13    35     1 
   14    17     1 
   14    21     1 
   14    33     1 
   14    34     1 
   15    18     1 
   15    20     1 
   15    37     1 
   15    39     1 
   16    19     1 
   16    22     1 
   16    35     1 
   16    38     1 
   17    20     1 
   17    23     1 
   17    26     1 
   17    36     1 
   17    39     1 
   18    21     1 
   18    38     1 
   18    40     1 
   18    41     1 
   18    42     1 
   18    46     1 
   19    23     1 
   19    37     1 
   19    39     1 
   20    22     1 
   20    46     1 
   21    26     1 
   21    36     1 
   21    37     1 
   22    26     1 
   22    37     1 
   24    27     1 
   24    29     1 
   26    38     1 
   27    28     1 
   28    30     1 
   31    32     1 
   35    36     1 
   38    39     1 

[ angles ] 
; ai	aj	ak	funct	th0	cth	S0	Kub
    2     1     6     5
    2     1    28     5
    6     1    28     5
    1     2     3     5
    1     2    27     5
    3     2    27     5
    2     3     4     5
    2     3    24     5
    4     3    24     5
    3     4     5     5
    3     4    29     5
    5     4    29     5
    4     5     6     5
    4     5     7     5
    6     5     7     5
    1     6     5     5
    1     6    30     5
    5     6    30     5
    5     7     8     5
    5     7    31     5
    8     7    31     5
    7     8     9     5
    7     8    32     5
    9     8    32     5
    8     9    10     5
    8     9    11     5
   10     9    11     5
    9    11    12     5
    9    11    33     5
    9    11    34     5
   12    11    33     5
   12    11    34     5
   33    11    34     5
   11    12    13     5
   11    12    14     5
   13    12    14     5
   12    14    15     5
   12    14    35     5
   15    14    35     5
   14    15    16     5
   14    15    36     5
   16    15    36     5
   15    16    17     5
   15    16    21     5
   17    16    21     5
   16    17    18     5
   16    17    37     5
   18    17    37     5
   17    18    19     5
   17    18    22     5
   19    18    22     5
   18    19    20     5
   18    19    26     5
   20    19    26     5
   19    20    21     5
   19    20    38     5
   21    20    38     5
   16    21    20     5
   16    21    39     5
   20    21    39     5
   18    22    23     5
   22    23    40     5
   22    23    41     5
   22    23    42     5
   40    23    41     5
   40    23    42     5
   41    23    42     5
    3    24    25     5
   24    25    43     5
   24    25    44     5
   24    25    45     5
   43    25    44     5
   43    25    45     5
   44    25    45     5
   19    26    46     5
    2    27    47     5

[ dihedrals ]
; ai	aj	ak	al	funct	phi0	cp	mult
    6     1     2    27     9
    2     1     6     5     9
    2     1     6    30     9
   28     1     6    30     9
    3     2     1     6     9
    3     2     1    28     9
   27     2     1    28     9
    1     2     3     4     9
    1     2     3    24     9
    1     2    27    47     9
    3     2    27    47     9
    4     3     2    27     9
   24     3     2    27     9
    2     3     4     5     9
    2     3     4    29     9
   24     3     4    29     9
    2     3    24    25     9
    4     3    24    25     9
    5     4     3    24     9
    3     4     5     6     9
    3     4     5     7     9
    6     5     4    29     9
    7     5     4    29     9
    4     5     6    30     9
    7     5     6    30     9
    4     5     7     8     9
    4     5     7    31     9
    6     5     7     8     9
    6     5     7    31     9
    5     6     1    28     9
    1     6     5     4     9
    1     6     5     7     9
    5     7     8     9     9
    5     7     8    32     9
   31     7     8    32     9
    9     8     7    31     9
    7     8     9    10     9
    7     8     9    11     9
   10     9     8    32     9
   11     9     8    32     9
    8     9    11    12     9
    8     9    11    33     9
    8     9    11    34     9
   10     9    11    12     9
   10     9    11    33     9
   10     9    11    34     9
    9    11    12    13     9
    9    11    12    14     9
   13    12    11    33     9
   13    12    11    34     9
   14    12    11    33     9
   14    12    11    34     9
   11    12    14    15     9
   11    12    14    35     9
   13    12    14    15     9
   13    12    14    35     9
   12    14    15    16     9
   12    14    15    36     9
   35    14    15    36     9
   16    15    14    35     9
   14    15    16    17     9
   14    15    16    21     9
   17    16    15    36     9
   21    16    15    36     9
   15    16    17    18     9
   15    16    17    37     9
   21    16    17    37     9
   15    16    21    20     9
   15    16    21    39     9
   17    16    21    20     9
   17    16    21    39     9
   18    17    16    21     9
   16    17    18    19     9
   16    17    18    22     9
   19    18    17    37     9
   22    18    17    37     9
   17    18    19    20     9
   17    18    19    26     9
   22    18    19    26     9
   17    18    22    23     9
   19    18    22    23     9
   20    19    18    22     9
   18    19    20    21     9
   18    19    20    38     9
   26    19    20    38     9
   18    19    26    46     9
   20    19    26    46     9
   21    20    19    26     9
   19    20    21    39     9
   38    20    21    39     9
   16    21    20    19     9
   16    21    20    38     9
   18    22    23    40     9
   18    22    23    41     9
   18    22    23    42     9
    3    24    25    43     9
    3    24    25    44     9
    3    24    25    45     9

[ dihedrals ]
; ai	aj	ak	al	funct	q0	cq
    9     8    11    10     2
   12    14    11    13     2
