; parameters for CUR that data/toppar/forcefield.itp does not carry.
; new atom types: CG2DC1 CG2O5 HGA4 OG2D3
; a line is here only because it mentions one of them, so nothing the
; polymer already defines is redefined.

[ atomtypes ]
  CG2DC1     6    12.0110     -0.031     A    3.72395664183e-01    2.845120e-01
   CG2O5     6    12.0110      0.305     A    3.56359487256e-01    3.765600e-01
    HGA4     1     1.0080      0.147     A    2.22724679535e-01    1.297040e-01
   OG2D3     8    15.9994     -0.376     A    3.02905564168e-01    2.092000e-01 ;   2.49451641079e-01    5.020800e-01

[ bondtypes ]
 CG2DC1  CG2DC1     1  1.340000e-01  3.681920e+05
 CG2DC1   CG2O5     1  1.480000e-01  2.510400e+05
 CG2DC1  CG2R61     1  1.450000e-01  3.054320e+05
 CG2DC1   CG321     1  1.502000e-01  3.054320e+05
 CG2DC1   CG331     1  1.504000e-01  3.204944e+05
 CG2DC1    HGA4     1  1.100000e-01  3.016664e+05
  CG2O5   CG2O5     1  1.502600e-01  1.931753e+05
  CG2O5  CG2R61     1  1.460000e-01  2.125472e+05
  CG2O5   CG321     1  1.500000e-01  2.761440e+05
  CG2O5   CG331     1  1.500000e-01  2.761440e+05
  CG2O5   OG2D3     1  1.230000e-01  5.857600e+05
 CG2R61   CG321     1  1.490000e-01  1.924640e+05
 CG2R61   CG331     1  1.490000e-01  1.924640e+05
 CG2R61   OG301     1  1.382000e-01  1.924640e+05
 CG2R61   OG311     1  1.411000e-01  2.797422e+05
  CG321   CG331     1  1.528000e-01  1.861880e+05
  CG331   CG331     1  1.530000e-01  1.861880e+05
  CG331   OG301     1  1.415000e-01  3.012480e+05
  CG331   OG311     1  1.420000e-01  3.581504e+05
  OG301   OG311     1  1.513000e-01  1.395782e+05

[ pairtypes ]
 CG2DC1   CG321     1  3.55468588538e-01  1.09105371453e-01
 CG2DC1   CG331     1  3.55468588538e-01  1.09105371453e-01
 CG2DC1   OG2D3     1  3.10923652631e-01  3.77952093472e-01
  CG2O5   CG321     1  3.47450500075e-01  1.25520000000e-01
  CG2O5   CG331     1  3.47450500075e-01  1.25520000000e-01
  CG2O5   OG2D3     1  3.02905564168e-01  4.34814034732e-01
 CG2R61   CG321     1  3.46773417049e-01  1.10698234855e-01
 CG2R61   CG331     1  3.46773417049e-01  1.10698234855e-01
 CG2R61   OG2D3     1  3.02228481142e-01  3.83469934154e-01
  CG321    HGA4     1  2.80633096214e-01  7.36669217492e-02
  CG321   HGR61     1  2.90272620344e-01  7.24690057887e-02
  CG321   OG2D3     1  2.93996576986e-01  1.44938011577e-01
  CG331    HGA4     1  2.80633096214e-01  7.36669217492e-02
  CG331   HGR61     1  2.90272620344e-01  7.24690057887e-02
  CG331   OG2D3     1  2.93996576986e-01  1.44938011577e-01
   HGA2   OG2D3     1  2.44106248770e-01  2.71154190821e-01
   HGA3   OG2D3     1  2.44106248770e-01  2.24537002029e-01
   HGA4   OG2D3     1  2.36088160307e-01  2.55189702614e-01
   HGP1   OG2D3     1  1.44726496762e-01  3.10857403193e-01
  HGR61   OG2D3     1  2.45727684437e-01  2.51040000000e-01
  OG2D3   OG2D3     1  2.49451641079e-01  5.02080000000e-01
  OG2D3   OG301     1  2.71724109033e-01  4.58334236120e-01
  OG2D3   OG311     1  2.81969444291e-01  6.35251912639e-01

[ angletypes ]
 CG2DC1  CG2DC1   CG2O5     5  1.2000000e+02  5.0208000e+02  0.0000000e+00  0.0000000e+00
 CG2DC1  CG2DC1  CG2R61     5  1.2200000e+02  2.4267200e+02  0.0000000e+00  0.0000000e+00
 CG2DC1  CG2DC1   CG321     5  1.2350000e+02  4.0166400e+02  0.0000000e+00  0.0000000e+00
 CG2DC1  CG2DC1   CG331     5  1.2350000e+02  4.0166400e+02  0.0000000e+00  0.0000000e+00
 CG2DC1  CG2DC1    HGA4     5  1.1900000e+02  3.5145600e+02  0.0000000e+00  0.0000000e+00
 CG2DC1   CG2O5  CG2DC1     5  1.0284000e+02  3.0124800e+02  0.0000000e+00  0.0000000e+00
 CG2DC1   CG2O5   CG2O5     5  1.1743000e+02  3.0836080e+02  0.0000000e+00  0.0000000e+00
 CG2DC1   CG2O5  CG2R61     5  1.1720000e+02  3.3472000e+02  0.0000000e+00  0.0000000e+00
 CG2DC1   CG2O5   CG321     5  1.1600000e+02  2.9288000e+02  0.0000000e+00  0.0000000e+00
 CG2DC1   CG2O5   CG331     5  1.1600000e+02  2.9288000e+02  0.0000000e+00  0.0000000e+00
 CG2DC1   CG2O5   OG2D3     5  1.2180000e+02  5.8576000e+02  0.0000000e+00  0.0000000e+00
 CG2DC1  CG2R61  CG2R61     5  1.2000000e+02  3.0124800e+02  0.0000000e+00  0.0000000e+00
 CG2DC1   CG321  CG2DC1     5  1.0800000e+02  1.0460000e+03  0.0000000e+00  0.0000000e+00
 CG2DC1   CG321   CG321     5  1.1220000e+02  2.6777600e+02  0.0000000e+00  0.0000000e+00
 CG2DC1   CG321   CG331     5  1.1220000e+02  2.6777600e+02  0.0000000e+00  0.0000000e+00
 CG2DC1   CG321    HGA2     5  1.1150000e+02  3.7656000e+02  0.0000000e+00  0.0000000e+00
 CG2DC1   CG321   OG311     5  1.1010000e+02  6.3345760e+02  0.0000000e+00  0.0000000e+00
 CG2DC1   CG331    HGA3     5  1.1150000e+02  3.5145600e+02  0.0000000e+00  0.0000000e+00
  CG2O5  CG2DC1  CG2R61     5  1.1760570e+02  2.5815280e+02  0.0000000e+00  0.0000000e+00
  CG2O5  CG2DC1   CG321     5  1.2350000e+02  5.4392000e+02  0.0000000e+00  0.0000000e+00
  CG2O5  CG2DC1    HGA4     5  1.2340000e+02  2.6777600e+02  0.0000000e+00  0.0000000e+00
  CG2O5   CG2O5   CG321     5  1.1650000e+02  1.6736000e+02  0.0000000e+00  0.0000000e+00
  CG2O5   CG2O5   OG2D3     5  1.1655000e+02  7.5178112e+02  0.0000000e+00  0.0000000e+00
  CG2O5  CG2R61  CG2R61     5  1.2000000e+02  3.7656000e+02  0.0000000e+00  0.0000000e+00
  CG2O5   CG321   CG2O5     5  1.0159470e+02  8.3680000e+00  0.0000000e+00  0.0000000e+00
  CG2O5   CG321   CG321     5  1.1380000e+02  5.0208000e+02  0.0000000e+00  0.0000000e+00
  CG2O5   CG321   CG331     5  1.1150000e+02  5.0208000e+02  0.0000000e+00  0.0000000e+00
  CG2O5   CG321    HGA2     5  1.0950000e+02  4.1840000e+02  0.0000000e+00  0.0000000e+00
  CG2O5   CG331    HGA3     5  1.0950000e+02  4.1840000e+02  0.0000000e+00  0.0000000e+00
 CG2R61  CG2DC1   CG321     5  1.2592710e+02  1.1572944e+02  0.0000000e+00  0.0000000e+00
 CG2R61  CG2DC1   CG331     5  1.3080050e+02  5.3337632e+02  0.0000000e+00  0.0000000e+00
 CG2R61  CG2DC1    HGA4     5  1.2000000e+02  2.6777600e+02  0.0000000e+00  0.0000000e+00
 CG2R61   CG2O5  CG2R61     5  1.0775000e+02  3.3413424e+02  0.0000000e+00  0.0000000e+00
 CG2R61   CG2O5   CG321     5  1.1650000e+02  1.6736000e+02  0.0000000e+00  0.0000000e+00
 CG2R61   CG2O5   CG331     5  1.1650000e+02  5.0208000e+02  0.0000000e+00  0.0000000e+00
 CG2R61   CG2O5   OG2D3     5  1.2130000e+02  5.8576000e+02  0.0000000e+00  0.0000000e+00
 CG2R61  CG2R61   CG321     5  1.2000000e+02  3.8325440e+02  0.0000000e+00  0.0000000e+00
 CG2R61  CG2R61   CG331     5  1.2000000e+02  3.8325440e+02  0.0000000e+00  0.0000000e+00
 CG2R61  CG2R61   OG301     5  1.2000000e+02  9.2048000e+02  0.0000000e+00  0.0000000e+00
 CG2R61  CG2R61   OG311     5  1.2000000e+02  3.7823360e+02  0.0000000e+00  0.0000000e+00
 CG2R61   CG321  CG2R61     5  1.0750000e+02  4.3346240e+02  0.0000000e+00  0.0000000e+00
 CG2R61   CG321   CG321     5  1.0750000e+02  4.3346240e+02  0.0000000e+00  0.0000000e+00
 CG2R61   CG321   CG331     5  1.0750000e+02  4.3346240e+02  0.0000000e+00  0.0000000e+00
 CG2R61   CG321    HGA2     5  1.0750000e+02  4.1254240e+02  0.0000000e+00  0.0000000e+00
 CG2R61   CG321   OG301     5  1.1010000e+02  6.3345760e+02  0.0000000e+00  0.0000000e+00
 CG2R61   CG321   OG311     5  1.1010000e+02  6.3345760e+02  0.0000000e+00  0.0000000e+00
 CG2R61   CG331    HGA3     5  1.0750000e+02  4.1254240e+02  0.0000000e+00  0.0000000e+00
 CG2R61   OG301  CG2R61     5  1.2000000e+02  1.5480800e+03  0.0000000e+00  0.0000000e+00
 CG2R61   OG301   CG321     5  1.0800000e+02  5.4392000e+02  0.0000000e+00  0.0000000e+00
 CG2R61   OG301   CG331     5  1.0800000e+02  5.4392000e+02  0.0000000e+00  0.0000000e+00
 CG2R61   OG311    HGP1     5  1.0800000e+02  5.4392000e+02  0.0000000e+00  0.0000000e+00
  CG321  CG2DC1   CG321     5  1.2350000e+02  4.0166400e+02  0.0000000e+00  0.0000000e+00
  CG321  CG2DC1   CG331     5  1.2350000e+02  4.0166400e+02  0.0000000e+00  0.0000000e+00
  CG321  CG2DC1    HGA4     5  1.1600000e+02  3.3472000e+02  0.0000000e+00  0.0000000e+00
  CG321   CG2O5   CG321     5  1.1560000e+02  2.9288000e+02  0.0000000e+00  0.0000000e+00
  CG321   CG2O5   CG331     5  1.1560000e+02  2.9288000e+02  0.0000000e+00  0.0000000e+00
  CG321   CG2O5   OG2D3     5  1.2220000e+02  6.2760000e+02  0.0000000e+00  0.0000000e+00
  CG321   CG321   CG321     5  1.1360000e+02  4.8827280e+02  2.5610000e-01  9.3386880e+03
  CG321   CG321   CG331     5  1.1500000e+02  4.8534400e+02  2.5610000e-01  6.6944000e+03
  CG321   CG331    HGA3     5  1.1010000e+02  2.8953280e+02  2.1790000e-01  1.8853104e+04
  CG321   OG301   CG331     5  1.0970000e+02  7.9496000e+02  0.0000000e+00  0.0000000e+00
  CG321   OG301   OG311     5  1.0400000e+02  6.0249600e+02  0.0000000e+00  0.0000000e+00
  CG331  CG2DC1   CG331     5  1.1300000e+02  3.9329600e+02  0.0000000e+00  0.0000000e+00
  CG331  CG2DC1    HGA4     5  1.1750000e+02  3.5145600e+02  0.0000000e+00  0.0000000e+00
  CG331   CG2O5   CG331     5  1.1560000e+02  2.9288000e+02  0.0000000e+00  0.0000000e+00
  CG331   CG2O5   OG2D3     5  1.2220000e+02  6.2760000e+02  0.0000000e+00  0.0000000e+00
  CG331   CG321   CG331     5  1.1400000e+02  4.4643280e+02  2.5610000e-01  6.6944000e+03
  CG331   CG321    HGA2     5  1.1010000e+02  2.8953280e+02  2.1790000e-01  1.8853104e+04
  CG331   CG321   OG301     5  1.1150000e+02  3.7656000e+02  0.0000000e+00  0.0000000e+00
  CG331   CG321   OG311     5  1.1010000e+02  6.3345760e+02  0.0000000e+00  0.0000000e+00
  CG331   CG331    HGA3     5  1.1010000e+02  3.1380000e+02  2.1790000e-01  1.8853104e+04
  CG331   OG301   CG331     5  1.0970000e+02  7.9496000e+02  0.0000000e+00  0.0000000e+00
  CG331   OG301   OG311     5  1.0400000e+02  6.0249600e+02  0.0000000e+00  0.0000000e+00
  CG331   OG311    HGP1     5  1.0600000e+02  4.8116000e+02  0.0000000e+00  0.0000000e+00
  OG301   CG321   OG301     5  1.1349650e+02  8.1663312e+02  0.0000000e+00  0.0000000e+00
  OG301   CG331    HGA3     5  1.0889000e+02  3.8409120e+02  0.0000000e+00  0.0000000e+00
  OG301   OG311    HGP1     5  9.8300000e+01  5.1044800e+02  0.0000000e+00  0.0000000e+00
  OG311   CG331    HGA3     5  1.0889000e+02  3.8409120e+02  0.0000000e+00  0.0000000e+00

[ dihedraltypes ]
 CG2DC1  CG2DC1   CG2O5  CG2DC1     9  1.800000e+02  4.229606e+00      2
 CG2DC1  CG2DC1   CG2O5   CG2O5     9  1.800000e+02  5.230000e-02      2
 CG2DC1  CG2DC1   CG2O5  CG2R61     9  1.800000e+02  5.857600e+00      2
 CG2DC1  CG2DC1   CG2O5   CG321     9  1.800000e+02  5.857600e+00      2
 CG2DC1  CG2DC1   CG2O5   OG2D3     9  1.800000e+02  5.857600e+00      2
 CG2DC1  CG2DC1  CG2R61  CG2R61     9  0.000000e+00  7.949600e-01      4
 CG2DC1  CG2DC1  CG2R61  CG2R61     9  1.800000e+02  3.138000e+00      2
 CG2DC1  CG2DC1   CG321  CG2DC1     9  1.800000e+02  0.000000e+00      3
 CG2DC1  CG2DC1   CG321   CG321     9  0.000000e+00  1.255200e+00      3
 CG2DC1  CG2DC1   CG321   CG321     9  0.000000e+00  2.092000e+00      2
 CG2DC1  CG2DC1   CG321   CG331     9  0.000000e+00  1.255200e+00      3
 CG2DC1  CG2DC1   CG321   CG331     9  0.000000e+00  2.092000e+00      2
 CG2DC1  CG2DC1   CG321    HGA2     9  0.000000e+00  1.255200e-01      3
 CG2DC1  CG2DC1   CG321   OG311     9  1.800000e+02  1.673600e+00      2
 CG2DC1  CG2DC1   CG321   OG311     9  1.800000e+02  2.510400e+00      3
 CG2DC1  CG2DC1   CG321   OG311     9  1.800000e+02  7.949600e+00      1
 CG2DC1  CG2DC1   CG331    HGA3     9  1.800000e+02  1.255200e+00      3
 CG2DC1   CG2O5   CG2O5   OG2D3     9  1.800000e+02  1.008344e-01      2
 CG2DC1   CG2O5  CG2R61  CG2R61     9  0.000000e+00  0.000000e+00      2
 CG2DC1   CG2O5  CG2R61  CG2R61     9  1.800000e+02  6.631640e+00      2
 CG2DC1   CG2O5   CG321   CG2O5     9  0.000000e+00  1.213360e+00      6
 CG2DC1   CG2O5   CG321   CG2O5     9  0.000000e+00  1.631760e+00      4
 CG2DC1   CG2O5   CG321   CG2O5     9  0.000000e+00  2.092000e+00      3
 CG2DC1   CG2O5   CG321   CG2O5     9  0.000000e+00  4.644240e+00      2
 CG2DC1   CG2O5   CG321   CG2O5     9  0.000000e+00  8.116960e+00      1
 CG2DC1   CG2O5   CG321   CG321     9  0.000000e+00  7.531200e-01      1
 CG2DC1   CG2O5   CG321   CG321     9  0.000000e+00  7.991440e+00      4
 CG2DC1   CG2O5   CG321   CG321     9  1.800000e+02  3.974800e+00      6
 CG2DC1   CG2O5   CG321   CG321     9  1.800000e+02  4.225840e+00      3
 CG2DC1   CG2O5   CG321   CG321     9  1.800000e+02  8.702720e+00      2
 CG2DC1   CG2O5   CG321    HGA2     9  0.000000e+00  4.184000e-01      3
 CG2DC1   CG2O5   CG331    HGA3     9  0.000000e+00  4.184000e-01      3
 CG2DC1  CG2R61  CG2R61  CG2DC1     9  1.800000e+02  7.447520e+00      2
 CG2DC1  CG2R61  CG2R61   CG2O5     9  0.000000e+00  1.464400e+00      2
 CG2DC1  CG2R61  CG2R61  CG2R61     9  1.800000e+02  1.297040e+01      2
 CG2DC1  CG2R61  CG2R61   CG321     9  1.800000e+02  1.131939e+01      2
 CG2DC1  CG2R61  CG2R61   CG331     9  1.800000e+02  1.131939e+01      2
 CG2DC1  CG2R61  CG2R61   HGR61     9  1.800000e+02  1.004160e+01      2
 CG2DC1  CG2R61  CG2R61   OG311     9  1.800000e+02  1.031021e+01      2
 CG2DC1   CG321   CG321   CG321     9  0.000000e+00  7.949600e-01      3
 CG2DC1   CG321   CG321   CG331     9  0.000000e+00  7.112800e-01      2
 CG2DC1   CG321   CG321   CG331     9  1.800000e+02  2.092000e-01      3
 CG2DC1   CG321   CG321   CG331     9  1.800000e+02  5.857600e-01      1
 CG2DC1   CG321   CG321    HGA2     9  0.000000e+00  7.949600e-01      3
 CG2DC1   CG321   CG331    HGA3     9  0.000000e+00  6.694400e-01      3
 CG2DC1   CG321   OG311    HGP1     9  0.000000e+00  5.857600e-01      3
 CG2DC1   CG321   OG311    HGP1     9  0.000000e+00  2.928800e+00      2
 CG2DC1   CG321   OG311    HGP1     9  0.000000e+00  5.439200e+00      1
  CG2O5  CG2DC1  CG2DC1   CG2O5     9  1.800000e+02  8.501888e-01      2
  CG2O5  CG2DC1  CG2DC1   CG2O5     9  1.800000e+02  2.343040e+00      1
  CG2O5  CG2DC1  CG2DC1  CG2R61     9  1.800000e+02  7.029120e+00      2
  CG2O5  CG2DC1  CG2DC1   CG321     9  1.800000e+02  2.343040e+00      1
  CG2O5  CG2DC1  CG2DC1   CG321     9  1.800000e+02  2.928800e+01      2
  CG2O5  CG2DC1  CG2DC1    HGA4     9  1.800000e+02  4.537548e+00      2
  CG2O5  CG2DC1  CG2R61  CG2R61     9  0.000000e+00  0.000000e+00      2
  CG2O5  CG2DC1  CG2R61  CG2R61     9  0.000000e+00  5.439200e-01      4
  CG2O5  CG2DC1   CG321   CG331     9  0.000000e+00  2.798678e+00      2
  CG2O5  CG2DC1   CG321   CG331     9  0.000000e+00  3.810787e+00      1
  CG2O5  CG2DC1   CG321   CG331     9  0.000000e+00  7.303172e+00      3
  CG2O5  CG2DC1   CG321    HGA2     9  0.000000e+00  0.000000e+00      3
  CG2O5   CG2O5   CG321   CG321     9  0.000000e+00  1.673600e+00      1
  CG2O5   CG2O5   CG321   CG321     9  1.800000e+02  4.184000e-01      6
  CG2O5   CG2O5   CG321   CG321     9  1.800000e+02  5.439200e-01      3
  CG2O5   CG2O5   CG321   CG321     9  1.800000e+02  7.112800e-01      2
  CG2O5   CG2O5   CG321   CG331     9  0.000000e+00  1.673600e+00      1
  CG2O5   CG2O5   CG321   CG331     9  1.800000e+02  4.184000e-01      6
  CG2O5   CG2O5   CG321   CG331     9  1.800000e+02  5.439200e-01      3
  CG2O5   CG2O5   CG321   CG331     9  1.800000e+02  7.112800e-01      2
  CG2O5   CG2O5   CG321    HGA2     9  0.000000e+00  4.184000e-01      3
  CG2O5   CG2O5   CG321    HGA2     9  1.800000e+02  0.000000e+00      3
  CG2O5  CG2R61  CG2R61   CG2O5     9  1.800000e+02  1.297040e+01      2
  CG2O5  CG2R61  CG2R61  CG2R61     9  1.800000e+02  1.297040e+01      2
  CG2O5  CG2R61  CG2R61   CG321     9  1.800000e+02  7.698560e+00      2
  CG2O5  CG2R61  CG2R61   CG331     9  1.800000e+02  1.230096e+01      2
  CG2O5  CG2R61  CG2R61   HGR61     9  1.800000e+02  1.004160e+01      2
  CG2O5  CG2R61  CG2R61   OG311     9  1.800000e+02  7.824080e+00      2
  CG2O5   CG321   CG321   CG2O5     9  0.000000e+00  8.368000e-01      3
  CG2O5   CG321   CG321  CG2R61     9  0.000000e+00  1.673600e-01      3
  CG2O5   CG321   CG321   CG321     9  0.000000e+00  4.602400e-01      4
  CG2O5   CG321   CG321   CG321     9  0.000000e+00  1.631760e+00      2
  CG2O5   CG321   CG321   CG321     9  1.800000e+02  3.765600e-01      6
  CG2O5   CG321   CG321   CG321     9  1.800000e+02  8.786400e-01      1
  CG2O5   CG321   CG321   CG321     9  1.800000e+02  1.464400e+00      3
  CG2O5   CG321   CG321   CG331     9  0.000000e+00  4.602400e-01      4
  CG2O5   CG321   CG321   CG331     9  0.000000e+00  1.631760e+00      2
  CG2O5   CG321   CG321   CG331     9  1.800000e+02  3.765600e-01      6
  CG2O5   CG321   CG321   CG331     9  1.800000e+02  8.786400e-01      1
  CG2O5   CG321   CG321   CG331     9  1.800000e+02  1.464400e+00      3
  CG2O5   CG321   CG321    HGA2     9  0.000000e+00  8.158800e-01      3
  CG2O5   CG321   CG321   OG301     9  0.000000e+00  8.368000e-01      3
  CG2O5   CG321   CG321   OG311     9  0.000000e+00  8.368000e-01      3
  CG2O5   CG321   CG331    HGA3     9  0.000000e+00  6.694400e-01      3
 CG2R61  CG2DC1  CG2DC1   CG321     9  1.800000e+02  2.345132e+00      1
 CG2R61  CG2DC1  CG2DC1   CG321     9  1.800000e+02  2.915913e+01      2
 CG2R61  CG2DC1  CG2DC1   CG331     9  1.800000e+02  2.345132e+00      1
 CG2R61  CG2DC1  CG2DC1   CG331     9  1.800000e+02  2.915913e+01      2
 CG2R61  CG2DC1  CG2DC1    HGA4     9  1.800000e+02  2.175178e+01      2
 CG2R61  CG2DC1   CG2O5  CG2DC1     9  0.000000e+00  0.000000e+00      2
 CG2R61  CG2DC1   CG2O5   OG2D3     9  1.800000e+02  8.284320e+00      2
 CG2R61  CG2DC1   CG321   CG321     9  1.800000e+02  5.773920e+00      3
 CG2R61  CG2DC1   CG321   CG321     9  1.800000e+02  1.330512e+01      2
 CG2R61  CG2DC1   CG321    HGA2     9  1.800000e+02  0.000000e+00      3
 CG2R61  CG2DC1   CG331    HGA3     9  1.800000e+02  2.510400e+00      3
 CG2R61   CG2O5  CG2R61  CG2R61     9  1.800000e+02  3.792796e+00      2
 CG2R61   CG2O5   CG321   CG321     9  0.000000e+00  1.673600e+00      1
 CG2R61   CG2O5   CG321   CG321     9  1.800000e+02  4.184000e-01      6
 CG2R61   CG2O5   CG321   CG321     9  1.800000e+02  5.439200e-01      3
 CG2R61   CG2O5   CG321   CG321     9  1.800000e+02  7.112800e-01      2
 CG2R61   CG2O5   CG321   CG331     9  0.000000e+00  1.673600e+00      1
 CG2R61   CG2O5   CG321   CG331     9  1.800000e+02  4.184000e-01      6
 CG2R61   CG2O5   CG321   CG331     9  1.800000e+02  5.439200e-01      3
 CG2R61   CG2O5   CG321   CG331     9  1.800000e+02  7.112800e-01      2
 CG2R61   CG2O5   CG321    HGA2     9  0.000000e+00  4.184000e-01      3
 CG2R61   CG2O5   CG331    HGA3     9  0.000000e+00  4.184000e-01      3
 CG2R61  CG2R61  CG2R61   CG321     9  1.800000e+02  1.297040e+01      2
 CG2R61  CG2R61  CG2R61   CG331     9  1.800000e+02  1.297040e+01      2
 CG2R61  CG2R61  CG2R61   OG301     9  1.800000e+02  1.297040e+01      2
 CG2R61  CG2R61  CG2R61   OG311     9  1.800000e+02  1.297040e+01      2
 CG2R61  CG2R61   CG321  CG2R61     9  1.800000e+02  9.623200e-01      2
 CG2R61  CG2R61   CG321   CG321     9  1.800000e+02  9.623200e-01      2
 CG2R61  CG2R61   CG321   CG331     9  1.800000e+02  9.623200e-01      2
 CG2R61  CG2R61   CG321    HGA2     9  0.000000e+00  8.368000e-03      6
 CG2R61  CG2R61   CG321   OG301     9  0.000000e+00  0.000000e+00      2
 CG2R61  CG2R61   CG321   OG311     9  0.000000e+00  0.000000e+00      2
 CG2R61  CG2R61   CG331    HGA3     9  0.000000e+00  8.368000e-03      6
 CG2R61  CG2R61   OG301  CG2R61     9  1.800000e+02  5.020800e+00      2
 CG2R61  CG2R61   OG301   CG321     9  1.800000e+02  7.949600e-01      4
 CG2R61  CG2R61   OG301   CG321     9  1.800000e+02  6.778080e+00      2
 CG2R61  CG2R61   OG301   CG331     9  1.800000e+02  8.368000e-01      4
 CG2R61  CG2R61   OG301   CG331     9  1.800000e+02  6.610720e+00      2
 CG2R61  CG2R61   OG311    HGP1     9  1.800000e+02  4.142160e+00      2
 CG2R61   CG321   CG321  CG2R61     9  0.000000e+00  2.803280e+00      3
 CG2R61   CG321   CG321  CG2R61     9  0.000000e+00  3.891120e+00      2
 CG2R61   CG321   CG321   CG321     9  0.000000e+00  1.673600e-01      3
 CG2R61   CG321   CG321   CG331     9  0.000000e+00  1.673600e-01      3
 CG2R61   CG321   CG321    HGA2     9  0.000000e+00  1.673600e-01      3
 CG2R61   CG321   CG321   OG301     9  0.000000e+00  8.368000e-01      3
 CG2R61   CG321   CG321   OG311     9  0.000000e+00  8.368000e-01      3
 CG2R61   CG321   CG331    HGA3     9  0.000000e+00  1.673600e-01      3
 CG2R61   CG321   OG301   CG321     9  0.000000e+00  1.924640e+00      3
 CG2R61   CG321   OG301   CG321     9  1.800000e+02  1.087840e+00      2
 CG2R61   CG321   OG301   CG321     9  1.800000e+02  2.343040e+00      1
 CG2R61   CG321   OG311    HGP1     9  0.000000e+00  3.096160e+00      3
 CG2R61   CG321   OG311    HGP1     9  0.000000e+00  5.857600e+00      2
 CG2R61   CG321   OG311    HGP1     9  0.000000e+00  8.786400e+00      1
  CG321  CG2DC1  CG2DC1   CG321     9  1.800000e+02  4.184000e+01      2
  CG321  CG2DC1  CG2DC1   CG331     9  1.800000e+02  4.184000e+01      2
  CG321  CG2DC1  CG2DC1    HGA4     9  1.800000e+02  2.175680e+01      2
  CG321  CG2DC1   CG2O5  CG2DC1     9  1.800000e+02  5.020800e-03      2
  CG321  CG2DC1   CG2O5   CG331     9  1.800000e+02  1.782384e+01      2
  CG321  CG2DC1   CG2O5   OG2D3     9  1.800000e+02  3.782754e+00      2
  CG321  CG2DC1  CG2R61  CG2R61     9  1.800000e+02  4.184000e-02      4
  CG321  CG2DC1  CG2R61  CG2R61     9  1.800000e+02  3.347200e+00      2
  CG321  CG2DC1   CG321   CG321     9  0.000000e+00  7.949600e-01      3
  CG321  CG2DC1   CG321    HGA2     9  0.000000e+00  7.949600e-01      3
  CG321  CG2DC1   CG331    HGA3     9  0.000000e+00  6.694400e-01      3
  CG321   CG2O5   CG2O5   CG321     9  1.800000e+02  5.857600e+00      2
  CG321   CG2O5   CG2O5   OG2D3     9  1.800000e+02  4.602400e-01      2
  CG321   CG2O5   CG2O5   OG2D3     9  1.800000e+02  7.949600e-01      4
  CG321   CG2O5   CG2O5   OG2D3     9  1.800000e+02  5.857600e+00      2
  CG321   CG2O5  CG2R61  CG2R61     9  1.800000e+02  1.129680e+00      2
  CG321   CG2O5   CG321   CG2O5     9  0.000000e+00  0.000000e+00      1
  CG321   CG2O5   CG321   CG2O5     9  0.000000e+00  1.129680e+00      4
  CG321   CG2O5   CG321   CG2O5     9  0.000000e+00  1.757280e+00      2
  CG321   CG2O5   CG321   CG2O5     9  1.800000e+02  6.276000e-01      6
  CG321   CG2O5   CG321   CG2O5     9  1.800000e+02  3.054320e+00      3
  CG321   CG2O5   CG321   CG321     9  0.000000e+00  1.255200e-01      6
  CG321   CG2O5   CG321   CG321     9  0.000000e+00  2.719600e-01      3
  CG321   CG2O5   CG321   CG321     9  0.000000e+00  3.138000e+00      1
  CG321   CG2O5   CG321   CG321     9  1.800000e+02  7.531200e-01      2
  CG321   CG2O5   CG321   CG331     9  0.000000e+00  1.255200e-01      6
  CG321   CG2O5   CG321   CG331     9  0.000000e+00  2.719600e-01      3
  CG321   CG2O5   CG321   CG331     9  0.000000e+00  3.138000e+00      1
  CG321   CG2O5   CG321   CG331     9  1.800000e+02  7.531200e-01      2
  CG321   CG2O5   CG321    HGA2     9  0.000000e+00  4.184000e-01      3
  CG321   CG2O5   CG331    HGA3     9  0.000000e+00  4.184000e-01      3
  CG321  CG2R61  CG2R61   CG321     9  1.800000e+02  1.004160e+01      2
  CG321  CG2R61  CG2R61   CG331     9  1.800000e+02  1.004160e+01      2
  CG321  CG2R61  CG2R61   HGR61     9  1.800000e+02  1.004160e+01      2
  CG321  CG2R61  CG2R61   OG301     9  1.800000e+02  1.004160e+01      2
  CG321  CG2R61  CG2R61   OG311     9  1.800000e+02  1.004160e+01      2
  CG321   CG321   CG321   CG321     9  0.000000e+00  2.698680e-01      2
  CG321   CG321   CG321   CG321     9  0.000000e+00  3.957227e-01      4
  CG321   CG321   CG321   CG321     9  0.000000e+00  4.707418e-01      5
  CG321   CG321   CG321   CG321     9  1.800000e+02  6.265540e-01      3
  CG321   CG321   CG321   CG331     9  0.000000e+00  4.528762e-01      4
  CG321   CG321   CG321   CG331     9  0.000000e+00  6.297338e-01      2
  CG321   CG321   CG321   CG331     9  0.000000e+00  8.531594e-01      5
  CG321   CG321   CG321   CG331     9  1.800000e+02  3.402847e-01      3
  CG321   CG321   CG321    HGA2     9  0.000000e+00  8.158800e-01      3
  CG321   CG321   CG321   OG301     9  0.000000e+00  1.631760e+00      2
  CG321   CG321   CG321   OG301     9  1.800000e+02  6.694400e-01      1
  CG321   CG321   CG321   OG311     9  0.000000e+00  8.158800e-01      3
  CG321   CG321   CG331    HGA3     9  0.000000e+00  6.694400e-01      3
  CG321   CG321   OG301  CG2R61     9  0.000000e+00  8.368000e-02      3
  CG321   CG321   OG301  CG2R61     9  0.000000e+00  1.004160e+00      1
  CG321   CG321   OG301  CG2R61     9  0.000000e+00  1.213360e+00      2
  CG321   CG321   OG301   CG331     9  0.000000e+00  1.213360e+00      2
  CG321   CG321   OG301   CG331     9  0.000000e+00  1.799120e+00      3
  CG321   CG321   OG301   CG331     9  0.000000e+00  2.384880e+00      1
  CG331  CG2DC1  CG2DC1   CG331     9  1.800000e+02  4.184000e+01      2
  CG331  CG2DC1  CG2DC1    HGA4     9  1.800000e+02  2.175680e+01      2
  CG331  CG2DC1   CG2O5  CG2DC1     9  1.800000e+02  5.020800e-03      2
  CG331  CG2DC1   CG2O5   OG2D3     9  1.800000e+02  3.782754e+00      2
  CG331  CG2DC1  CG2R61  CG2R61     9  1.800000e+02  1.631760e+00      4
  CG331  CG2DC1  CG2R61  CG2R61     9  1.800000e+02  6.527040e+00      2
  CG331  CG2DC1   CG321   CG321     9  0.000000e+00  7.949600e-01      3
  CG331  CG2DC1   CG321    HGA2     9  0.000000e+00  7.949600e-01      3
  CG331  CG2DC1   CG331    HGA3     9  0.000000e+00  1.255200e+00      3
  CG331   CG2O5  CG2R61  CG2R61     9  1.800000e+02  1.046000e+00      2
  CG331   CG2O5   CG321   CG321     9  0.000000e+00  1.255200e-01      6
  CG331   CG2O5   CG321   CG321     9  0.000000e+00  2.719600e-01      3
  CG331   CG2O5   CG321   CG321     9  0.000000e+00  3.138000e+00      1
  CG331   CG2O5   CG321   CG321     9  1.800000e+02  7.531200e-01      2
  CG331   CG2O5   CG321   CG331     9  0.000000e+00  1.255200e-01      6
  CG331   CG2O5   CG321   CG331     9  0.000000e+00  2.719600e-01      3
  CG331   CG2O5   CG321   CG331     9  0.000000e+00  3.138000e+00      1
  CG331   CG2O5   CG321   CG331     9  1.800000e+02  7.531200e-01      2
  CG331   CG2O5   CG321    HGA2     9  0.000000e+00  4.184000e-01      3
  CG331   CG2O5   CG331    HGA3     9  0.000000e+00  4.184000e-01      3
  CG331  CG2R61  CG2R61   CG331     9  1.800000e+02  1.004160e+01      2
  CG331  CG2R61  CG2R61   HGR61     9  1.800000e+02  1.004160e+01      2
  CG331  CG2R61  CG2R61   OG301     9  1.800000e+02  1.004160e+01      2
  CG331  CG2R61  CG2R61   OG311     9  1.800000e+02  1.004160e+01      2
  CG331   CG321   CG321   CG331     9  0.000000e+00  1.597870e-01      2
  CG331   CG321   CG321   CG331     9  1.800000e+02  1.329675e-01      6
  CG331   CG321   CG321    HGA2     9  0.000000e+00  7.531200e-01      3
  CG331   CG321   CG321   OG301     9  0.000000e+00  1.631760e+00      2
  CG331   CG321   CG321   OG301     9  1.800000e+02  6.694400e-01      1
  CG331   CG321   CG321   OG311     9  0.000000e+00  8.158800e-01      3
  CG331   CG321   CG331    HGA3     9  0.000000e+00  6.694400e-01      3
  CG331   CG321   OG301  CG2R61     9  0.000000e+00  8.368000e-02      3
  CG331   CG321   OG301  CG2R61     9  0.000000e+00  1.004160e+00      1
  CG331   CG321   OG301  CG2R61     9  0.000000e+00  1.213360e+00      2
  CG331   CG321   OG301   CG321     9  0.000000e+00  1.673600e+00      1
  CG331   CG321   OG301   CG321     9  0.000000e+00  2.050160e+00      3
  CG331   CG321   OG301   CG331     9  0.000000e+00  1.673600e+00      1
  CG331   CG321   OG301   CG331     9  0.000000e+00  2.050160e+00      3
  CG331   CG321   OG311    HGP1     9  0.000000e+00  5.857600e-01      2
  CG331   CG321   OG311    HGP1     9  0.000000e+00  1.004160e+00      3
  CG331   CG321   OG311    HGP1     9  0.000000e+00  4.727920e+00      1
  CG331   OG301   OG311    HGP1     9  0.000000e+00  5.020800e-01      3
  CG331   OG301   OG311    HGP1     9  0.000000e+00  1.673600e+00      1
  CG331   OG301   OG311    HGP1     9  0.000000e+00  4.811600e+00      2
   HGA2   CG321   CG331    HGA3     9  0.000000e+00  6.694400e-01      3
   HGA2   CG321   OG301  CG2R61     9  0.000000e+00  3.974800e-01      3
   HGA2   CG321   OG301   CG331     9  0.000000e+00  1.188256e+00      3
   HGA3   CG331   CG331    HGA3     9  0.000000e+00  6.485200e-01      3
   HGA3   CG331   OG301  CG2R61     9  0.000000e+00  3.556400e-01      3
   HGA3   CG331   OG301   CG321     9  0.000000e+00  1.188256e+00      3
   HGA3   CG331   OG301   CG331     9  0.000000e+00  1.188256e+00      3
   HGA3   CG331   OG301   OG311     9  0.000000e+00  8.368000e-01      3
   HGA3   CG331   OG311    HGP1     9  0.000000e+00  7.531200e-01      3
   HGA4  CG2DC1  CG2DC1    HGA4     9  1.800000e+02  2.175680e+01      2
   HGA4  CG2DC1   CG2O5  CG2DC1     9  1.800000e+02  1.296245e+01      2
   HGA4  CG2DC1   CG2O5   CG2O5     9  1.800000e+02  2.196600e-01      2
   HGA4  CG2DC1   CG2O5  CG2R61     9  1.800000e+02  1.263568e+01      2
   HGA4  CG2DC1   CG2O5   CG321     9  1.800000e+02  0.000000e+00      2
   HGA4  CG2DC1   CG2O5   CG331     9  1.800000e+02  0.000000e+00      2
   HGA4  CG2DC1   CG2O5   OG2D3     9  1.800000e+02  0.000000e+00      2
   HGA4  CG2DC1  CG2R61  CG2R61     9  1.800000e+02  2.510400e+00      2
   HGA4  CG2DC1   CG321   CG321     9  1.800000e+02  7.112800e-01      2
   HGA4  CG2DC1   CG321   CG321     9  1.800000e+02  2.301200e+00      3
   HGA4  CG2DC1   CG321    HGA2     9  0.000000e+00  8.368000e-01      3
   HGA4  CG2DC1   CG321   OG311     9  0.000000e+00  8.368000e-01      3
   HGA4  CG2DC1   CG331    HGA3     9  0.000000e+00  0.000000e+00      3
  OG2D3   CG2O5   CG2O5   OG2D3     9  1.800000e+02  9.773824e-01      2
  OG2D3   CG2O5  CG2R61  CG2R61     9  1.800000e+02  6.631640e+00      2
  OG2D3   CG2O5   CG321   CG2O5     9  0.000000e+00  1.548080e+00      4
  OG2D3   CG2O5   CG321   CG2O5     9  0.000000e+00  3.598240e+00      2
  OG2D3   CG2O5   CG321   CG2O5     9  0.000000e+00  5.564720e+00      3
  OG2D3   CG2O5   CG321   CG321     9  0.000000e+00  1.255200e-01      6
  OG2D3   CG2O5   CG321   CG321     9  1.800000e+02  2.719600e-01      3
  OG2D3   CG2O5   CG321   CG321     9  1.800000e+02  7.531200e-01      2
  OG2D3   CG2O5   CG321   CG321     9  1.800000e+02  3.138000e+00      1
  OG2D3   CG2O5   CG321   CG331     9  0.000000e+00  1.255200e-01      6
  OG2D3   CG2O5   CG321   CG331     9  1.800000e+02  2.719600e-01      3
  OG2D3   CG2O5   CG321   CG331     9  1.800000e+02  7.531200e-01      2
  OG2D3   CG2O5   CG321   CG331     9  1.800000e+02  3.138000e+00      1
  OG2D3   CG2O5   CG321    HGA2     9  0.000000e+00  0.000000e+00      3
  OG2D3   CG2O5   CG331    HGA3     9  0.000000e+00  0.000000e+00      3
  OG301  CG2R61  CG2R61   HGR61     9  1.800000e+02  1.004160e+01      2
  OG301  CG2R61  CG2R61   OG301     9  0.000000e+00  0.000000e+00      2
  OG301  CG2R61  CG2R61   OG301     9  1.800000e+02  0.000000e+00      2
  OG301  CG2R61  CG2R61   OG311     9  1.800000e+02  0.000000e+00      2
  OG301  CG2R61  CG2R61   OG311     9  1.800000e+02  2.426720e+00      2
  OG301   CG321   CG331    HGA3     9  0.000000e+00  6.694400e-01      3
  OG311  CG2R61  CG2R61   HGR61     9  1.800000e+02  1.004160e+01      2
  OG311  CG2R61  CG2R61   OG311     9  1.800000e+02  1.414527e+01      2
  OG311   CG321   CG321   OG311     9  0.000000e+00  8.368000e-01      3
  OG311   CG321   CG331    HGA3     9  0.000000e+00  6.694400e-01      3

[ dihedraltypes ]
  CG2O5  CG2DC1  CG2DC1   OG2D3     2  0.000000e+00  3.418721e+02
  CG2O5  CG2DC1   CG2O5   OG2D3     2  0.000000e+00  6.024960e+02
  CG2O5  CG2DC1  CG2R61   OG2D3     2  0.000000e+00  6.024960e+02
  CG2O5  CG2DC1   CG321   OG2D3     2  0.000000e+00  7.363840e+02
  CG2O5  CG2DC1   CG331   OG2D3     2  0.000000e+00  7.363840e+02
  CG2O5   CG2O5   CG321   OG2D3     2  0.000000e+00  7.363840e+02
  CG2O5  CG2R61  CG2R61   OG2D3     2  0.000000e+00  7.785545e+02
  CG2O5  CG2R61   CG321   OG2D3     2  0.000000e+00  6.024960e+02
  CG2O5  CG2R61   CG331   OG2D3     2  0.000000e+00  5.020800e+02
  CG2O5   CG321   CG321   OG2D3     2  0.000000e+00  5.857600e+02
  CG2O5   CG321   CG331   OG2D3     2  0.000000e+00  5.857600e+02
  CG2O5   CG331   CG331   OG2D3     2  0.000000e+00  5.857600e+02
 CG2R61  CG2R61  CG2R61   OG311     2  0.000000e+00  1.255200e+02
