; parameters for TAX that data/toppar/forcefield.itp does not carry.
; new atom types: CG2D1 CG2O1 CG2O2 CG2O5 CG301 CG3C41 CG3RC1 NG2S1 OG2D1 OG2D3 OG302 OG3C51
; a line is here only because it mentions one of them, so nothing the
; polymer already defines is redefined.

[ atomtypes ]
   CG2D1     6    12.0110     -0.206     A    3.72395664183e-01    2.845120e-01
   CG2O1     6    12.0110      0.301     A    3.56359487256e-01    4.602400e-01
   CG2O2     6    12.0110      0.366     A    3.02905564168e-01    4.100320e-01
   CG2O5     6    12.0110     -0.047     A    3.56359487256e-01    3.765600e-01
   CG301     6    12.0110      0.080     A    3.56359487256e-01    1.338880e-01 ;   3.38541512893e-01    4.184000e-02
  CG3C41     6    12.0110     -0.072     A    3.59923082129e-01    2.719600e-01 ;   3.38541512893e-01    4.184000e-02
  CG3RC1     6    12.0110      0.390     A    3.56359487256e-01    1.338880e-01 ;   3.38541512893e-01    4.184000e-02
   NG2S1     7    14.0070     -0.334     A    3.29632525712e-01    8.368000e-01 ;   2.76178602624e-01    8.368000e-01
   OG2D1     8    15.9994     -0.495     A    3.02905564168e-01    5.020800e-01 ;   2.49451641079e-01    5.020800e-01
   OG2D3     8    15.9994     -0.360     A    3.02905564168e-01    2.092000e-01 ;   2.49451641079e-01    5.020800e-01
   OG302     8    15.9994     -0.234     A    2.93996576986e-01    4.184000e-01
  OG3C51     8    15.9994     -0.073     A    2.93996576986e-01    4.184000e-01

[ bondtypes ]
  CG2D1   CG2D1     1  1.340000e-01  3.681920e+05
  CG2D1   CG301     1  1.502000e-01  2.008320e+05
  CG2D1   CG311     1  1.502000e-01  3.054320e+05
  CG2D1   CG321     1  1.502000e-01  3.054320e+05
  CG2D1   CG331     1  1.504000e-01  3.204944e+05
  CG2D1  CG3RC1     1  1.466900e-01  2.618012e+05
  CG2O1   CG2O1     1  1.484900e-01  1.849579e+05
  CG2O1  CG2R61     1  1.475000e-01  2.510400e+05
  CG2O1   CG301     1  1.490000e-01  2.092000e+05
  CG2O1   CG311     1  1.490000e-01  2.092000e+05
  CG2O1   CG321     1  1.490000e-01  2.092000e+05
  CG2O1   CG331     1  1.490000e-01  2.092000e+05
  CG2O1  CG3C41     1  1.474000e-01  2.168818e+05
  CG2O1  CG3RC1     1  1.511000e-01  2.123882e+05
  CG2O1   NG2S1     1  1.345000e-01  3.096160e+05
  CG2O1   OG2D1     1  1.230000e-01  5.188160e+05
  CG2O2  CG2R61     1  1.480000e-01  2.125472e+05
  CG2O2   CG301     1  1.522000e-01  1.673600e+05
  CG2O2   CG311     1  1.522000e-01  1.673600e+05
  CG2O2   CG321     1  1.522000e-01  1.673600e+05
  CG2O2   CG331     1  1.522000e-01  1.673600e+05
  CG2O2  CG3C41     1  1.470800e-01  2.330655e+05
  CG2O2  CG3RC1     1  1.450900e-01  2.288481e+05
  CG2O2   OG2D1     1  1.220000e-01  6.276000e+05
  CG2O2   OG302     1  1.334000e-01  1.255200e+05
  CG2O2   OG311     1  1.400000e-01  1.924640e+05
  CG2O5   CG2O5     1  1.502600e-01  1.931753e+05
  CG2O5  CG2R61     1  1.460000e-01  2.125472e+05
  CG2O5   CG301     1  1.500000e-01  2.761440e+05
  CG2O5   CG311     1  1.500000e-01  2.761440e+05
  CG2O5   CG321     1  1.500000e-01  2.761440e+05
  CG2O5   CG331     1  1.500000e-01  2.761440e+05
  CG2O5  CG3RC1     1  1.491700e-01  2.322371e+05
  CG2O5   OG2D3     1  1.230000e-01  5.857600e+05
 CG2R61   CG301     1  1.490000e-01  1.924640e+05
 CG2R61   CG311     1  1.490000e-01  1.924640e+05
 CG2R61   CG321     1  1.490000e-01  1.924640e+05
 CG2R61   CG331     1  1.490000e-01  1.924640e+05
 CG2R61  CG3C41     1  1.469700e-01  2.365383e+05
 CG2R61  CG3RC1     1  1.466900e-01  2.419942e+05
 CG2R61   NG2S1     1  1.414000e-01  2.552240e+05
 CG2R61   OG302     1  1.382000e-01  1.924640e+05
 CG2R61   OG311     1  1.411000e-01  2.797422e+05
  CG301   CG301     1  1.500000e-01  1.861880e+05
  CG301   CG311     1  1.500000e-01  1.861880e+05
  CG301   CG321     1  1.538000e-01  1.861880e+05
  CG301   CG331     1  1.538000e-01  1.861880e+05
  CG301  CG3C41     1  1.503900e-01  2.087983e+05
  CG301  CG3RC1     1  1.524000e-01  1.861880e+05
  CG301   NG2S1     1  1.430000e-01  2.677760e+05
  CG301   OG302     1  1.430000e-01  2.845120e+05
  CG301   OG311     1  1.420000e-01  3.581504e+05
  CG311   CG311     1  1.500000e-01  1.861880e+05
  CG311  CG3C41     1  1.510700e-01  2.063214e+05
  CG311  CG3RC1     1  1.524000e-01  1.861880e+05
  CG311    HGA3     1  1.111000e-01  2.694496e+05
  CG311   NG2S1     1  1.430000e-01  2.677760e+05
  CG311   OG302     1  1.430000e-01  2.845120e+05
  CG311   OG311     1  1.420000e-01  3.581504e+05
  CG321   CG331     1  1.528000e-01  1.861880e+05
  CG321  CG3C41     1  1.504100e-01  2.144969e+05
  CG321  CG3RC1     1  1.524000e-01  1.861880e+05
  CG321   NG2S1     1  1.430000e-01  2.677760e+05
  CG321   OG302     1  1.440000e-01  2.677760e+05
  CG331   CG331     1  1.530000e-01  1.861880e+05
  CG331  CG3C41     1  1.499800e-01  2.109322e+05
  CG331  CG3RC1     1  1.538000e-01  1.861880e+05
  CG331   NG2S1     1  1.430000e-01  2.677760e+05
  CG331   OG302     1  1.430000e-01  2.845120e+05
  CG331   OG311     1  1.420000e-01  3.581504e+05
 CG3C41  CG3C41     1  1.540000e-01  2.259360e+05
 CG3C41  CG3RC1     1  1.510400e-01  1.684478e+05
 CG3C41    HGA1     1  1.093000e-01  2.912064e+05
 CG3C41    HGA2     1  1.093000e-01  2.912064e+05
 CG3C41   NG2S1     1  1.443600e-01  2.582867e+05
 CG3C41   OG311     1  1.371400e-01  2.812736e+05
 CG3C41  OG3C51     1  1.422300e-01  2.928800e+05
 CG3RC1  CG3RC1     1  1.523000e-01  1.861880e+05
 CG3RC1    HGA1     1  1.111000e-01  2.585712e+05
 CG3RC1   NG2S1     1  1.433700e-01  2.636673e+05
 CG3RC1   OG302     1  1.409900e-01  2.471824e+05
 CG3RC1   OG311     1  1.409900e-01  2.471824e+05
 CG3RC1  OG3C51     1  1.420000e-01  2.175680e+05
  NG2S1    HGP1     1  9.970000e-02  3.681920e+05
  NG2S1   NG2S1     1  1.360000e-01  4.602400e+05
  NG2S1   OG311     1  1.403200e-01  2.661275e+05

[ pairtypes ]
  CG2D1   CG301     1  3.55468588538e-01  1.09105371453e-01
  CG2D1   CG311     1  3.55468588538e-01  1.09105371453e-01
  CG2D1   CG321     1  3.55468588538e-01  1.09105371453e-01
  CG2D1   CG331     1  3.55468588538e-01  1.09105371453e-01
  CG2D1  CG3C41     1  3.55468588538e-01  1.09105371453e-01
  CG2D1  CG3RC1     1  3.55468588538e-01  1.09105371453e-01
  CG2D1   NG2S1     1  3.24287133403e-01  4.87934054561e-01
  CG2D1   OG2D1     1  3.10923652631e-01  3.77952093472e-01
  CG2D1   OG2D3     1  3.10923652631e-01  3.77952093472e-01
  CG2O1   CG301     1  3.47450500075e-01  1.38767581228e-01
  CG2O1   CG311     1  3.47450500075e-01  1.38767581228e-01
  CG2O1   CG321     1  3.47450500075e-01  1.38767581228e-01
  CG2O1   CG331     1  3.47450500075e-01  1.38767581228e-01
  CG2O1  CG3C41     1  3.47450500075e-01  1.38767581228e-01
  CG2O1  CG3RC1     1  3.47450500075e-01  1.38767581228e-01
  CG2O1   NG2S1     1  3.16269044940e-01  6.20587489400e-01
  CG2O1   OG2D1     1  3.02905564168e-01  4.80705002262e-01
  CG2O1   OG2D3     1  3.02905564168e-01  4.80705002262e-01
  CG2O2   CG301     1  3.20723538531e-01  1.30979917850e-01
  CG2O2   CG311     1  3.20723538531e-01  1.30979917850e-01
  CG2O2   CG321     1  3.20723538531e-01  1.30979917850e-01
  CG2O2   CG331     1  3.20723538531e-01  1.30979917850e-01
  CG2O2  CG3C41     1  3.20723538531e-01  1.30979917850e-01
  CG2O2  CG3RC1     1  3.20723538531e-01  1.30979917850e-01
  CG2O2   NG2S1     1  2.89542083396e-01  5.85760000000e-01
  CG2O2   OG2D1     1  2.76178602624e-01  4.53727744975e-01
  CG2O2   OG2D3     1  2.76178602624e-01  4.53727744975e-01
  CG2O5   CG301     1  3.47450500075e-01  1.25520000000e-01
  CG2O5   CG311     1  3.47450500075e-01  1.25520000000e-01
  CG2O5   CG321     1  3.47450500075e-01  1.25520000000e-01
  CG2O5   CG331     1  3.47450500075e-01  1.25520000000e-01
  CG2O5  CG3C41     1  3.47450500075e-01  1.25520000000e-01
  CG2O5  CG3RC1     1  3.47450500075e-01  1.25520000000e-01
  CG2O5   NG2S1     1  3.16269044940e-01  5.61342505072e-01
  CG2O5   OG2D1     1  3.02905564168e-01  4.34814034732e-01
  CG2O5   OG2D3     1  3.02905564168e-01  4.34814034732e-01
 CG2R61   CG301     1  3.46773417049e-01  1.10698234855e-01
 CG2R61   CG311     1  3.46773417049e-01  1.10698234855e-01
 CG2R61   CG321     1  3.46773417049e-01  1.10698234855e-01
 CG2R61   CG331     1  3.46773417049e-01  1.10698234855e-01
 CG2R61  CG3C41     1  3.46773417049e-01  1.10698234855e-01
 CG2R61  CG3RC1     1  3.46773417049e-01  1.10698234855e-01
 CG2R61   NG2S1     1  3.15591961914e-01  4.95057556250e-01
 CG2R61   OG2D1     1  3.02228481142e-01  3.83469934154e-01
 CG2R61   OG2D3     1  3.02228481142e-01  3.83469934154e-01
  CG301   CG301     1  3.38541512893e-01  4.18400000000e-02
  CG301   CG311     1  3.38541512893e-01  4.18400000000e-02
  CG301   CG321     1  3.38541512893e-01  4.18400000000e-02
  CG301   CG331     1  3.38541512893e-01  4.18400000000e-02
  CG301  CG3C41     1  3.38541512893e-01  4.18400000000e-02
  CG301  CG3RC1     1  3.38541512893e-01  4.18400000000e-02
  CG301    HGA1     1  2.88651184677e-01  8.87560431745e-02
  CG301    HGA2     1  2.88651184677e-01  7.82754725313e-02
  CG301    HGA3     1  2.88651184677e-01  6.48182492821e-02
  CG301    HGP1     1  1.89271432669e-01  8.97368027066e-02
  CG301   HGR61     1  2.90272620344e-01  7.24690057887e-02
  CG301   NG2S1     1  3.07360057758e-01  1.87114168357e-01
  CG301   OG2D1     1  2.93996576986e-01  1.44938011577e-01
  CG301   OG2D3     1  2.93996576986e-01  1.44938011577e-01
  CG301   OG302     1  3.16269044940e-01  1.32309697301e-01
  CG301   OG311     1  3.26514380198e-01  1.83381431383e-01
  CG301  OG3C51     1  3.16269044940e-01  1.32309697301e-01
  CG311  CG3C41     1  3.38541512893e-01  4.18400000000e-02
  CG311  CG3RC1     1  3.38541512893e-01  4.18400000000e-02
  CG311   HGR61     1  2.90272620344e-01  7.24690057887e-02
  CG311   NG2S1     1  3.07360057758e-01  1.87114168357e-01
  CG311   OG2D1     1  2.93996576986e-01  1.44938011577e-01
  CG311   OG2D3     1  2.93996576986e-01  1.44938011577e-01
  CG311   OG302     1  3.16269044940e-01  1.32309697301e-01
  CG311  OG3C51     1  3.16269044940e-01  1.32309697301e-01
  CG321  CG3C41     1  3.38541512893e-01  4.18400000000e-02
  CG321  CG3RC1     1  3.38541512893e-01  4.18400000000e-02
  CG321   HGR61     1  2.90272620344e-01  7.24690057887e-02
  CG321   NG2S1     1  3.07360057758e-01  1.87114168357e-01
  CG321   OG2D1     1  2.93996576986e-01  1.44938011577e-01
  CG321   OG2D3     1  2.93996576986e-01  1.44938011577e-01
  CG321   OG302     1  3.16269044940e-01  1.32309697301e-01
  CG321  OG3C51     1  3.16269044940e-01  1.32309697301e-01
  CG331  CG3C41     1  3.38541512893e-01  4.18400000000e-02
  CG331  CG3RC1     1  3.38541512893e-01  4.18400000000e-02
  CG331   HGR61     1  2.90272620344e-01  7.24690057887e-02
  CG331   NG2S1     1  3.07360057758e-01  1.87114168357e-01
  CG331   OG2D1     1  2.93996576986e-01  1.44938011577e-01
  CG331   OG2D3     1  2.93996576986e-01  1.44938011577e-01
  CG331   OG302     1  3.16269044940e-01  1.32309697301e-01
  CG331  OG3C51     1  3.16269044940e-01  1.32309697301e-01
 CG3C41  CG3C41     1  3.38541512893e-01  4.18400000000e-02
 CG3C41  CG3RC1     1  3.38541512893e-01  4.18400000000e-02
 CG3C41    HGA1     1  2.88651184677e-01  8.87560431745e-02
 CG3C41    HGA2     1  2.88651184677e-01  7.82754725313e-02
 CG3C41    HGA3     1  2.88651184677e-01  6.48182492821e-02
 CG3C41    HGP1     1  1.89271432669e-01  8.97368027066e-02
 CG3C41   HGR61     1  2.90272620344e-01  7.24690057887e-02
 CG3C41   NG2S1     1  3.07360057758e-01  1.87114168357e-01
 CG3C41   OG2D1     1  2.93996576986e-01  1.44938011577e-01
 CG3C41   OG2D3     1  2.93996576986e-01  1.44938011577e-01
 CG3C41   OG302     1  3.16269044940e-01  1.32309697301e-01
 CG3C41   OG311     1  3.26514380198e-01  1.83381431383e-01
 CG3C41  OG3C51     1  3.16269044940e-01  1.32309697301e-01
 CG3RC1  CG3RC1     1  3.38541512893e-01  4.18400000000e-02
 CG3RC1    HGA1     1  2.88651184677e-01  8.87560431745e-02
 CG3RC1    HGA2     1  2.88651184677e-01  7.82754725313e-02
 CG3RC1    HGA3     1  2.88651184677e-01  6.48182492821e-02
 CG3RC1    HGP1     1  1.89271432669e-01  8.97368027066e-02
 CG3RC1   HGR61     1  2.90272620344e-01  7.24690057887e-02
 CG3RC1   NG2S1     1  3.07360057758e-01  1.87114168357e-01
 CG3RC1   OG2D1     1  2.93996576986e-01  1.44938011577e-01
 CG3RC1   OG2D3     1  2.93996576986e-01  1.44938011577e-01
 CG3RC1   OG302     1  3.16269044940e-01  1.32309697301e-01
 CG3RC1   OG311     1  3.26514380198e-01  1.83381431383e-01
 CG3RC1  OG3C51     1  3.16269044940e-01  1.32309697301e-01
   HGA1   NG2S1     1  2.57469729543e-01  3.96929091904e-01
   HGA1   OG2D1     1  2.44106248770e-01  3.07459952514e-01
   HGA1   OG2D3     1  2.44106248770e-01  3.07459952514e-01
   HGA2   NG2S1     1  2.57469729543e-01  3.50058555102e-01
   HGA2   OG2D1     1  2.44106248770e-01  2.71154190821e-01
   HGA2   OG2D3     1  2.44106248770e-01  2.71154190821e-01
   HGA3   NG2S1     1  2.57469729543e-01  2.89876023155e-01
   HGA3   OG2D1     1  2.44106248770e-01  2.24537002029e-01
   HGA3   OG2D3     1  2.44106248770e-01  2.24537002029e-01
   HGP1   NG2S1     1  1.58089977534e-01  4.01315181871e-01
   HGP1   OG2D1     1  1.44726496762e-01  3.10857403193e-01
   HGP1   OG2D3     1  1.44726496762e-01  3.10857403193e-01
  HGR61   NG2S1     1  2.59091165210e-01  3.24091246411e-01
  HGR61   OG2D1     1  2.45727684437e-01  2.51040000000e-01
  HGR61   OG2D3     1  2.45727684437e-01  2.51040000000e-01
  NG2S1   NG2S1     1  2.76178602624e-01  8.36800000000e-01
  NG2S1   OG2D1     1  2.62815121851e-01  6.48182492821e-01
  NG2S1   OG2D3     1  2.62815121851e-01  6.48182492821e-01
  NG2S1   OG302     1  2.85087589805e-01  5.91706954497e-01
  NG2S1   OG311     1  2.95332925064e-01  8.20106692766e-01
  NG2S1  OG3C51     1  2.85087589805e-01  5.91706954497e-01
  OG2D1   OG2D1     1  2.49451641079e-01  5.02080000000e-01
  OG2D1   OG2D3     1  2.49451641079e-01  5.02080000000e-01
  OG2D1   OG302     1  2.71724109033e-01  4.58334236120e-01
  OG2D1   OG311     1  2.81969444291e-01  6.35251912639e-01
  OG2D1  OG3C51     1  2.71724109033e-01  4.58334236120e-01
  OG2D3   OG2D3     1  2.49451641079e-01  5.02080000000e-01
  OG2D3   OG302     1  2.71724109033e-01  4.58334236120e-01
  OG2D3   OG311     1  2.81969444291e-01  6.35251912639e-01
  OG2D3  OG3C51     1  2.71724109033e-01  4.58334236120e-01

[ angletypes ]
  CG2D1   CG2D1   CG301     5  1.2350000e+02  4.0166400e+02  0.0000000e+00  0.0000000e+00
  CG2D1   CG2D1   CG311     5  1.2350000e+02  4.0166400e+02  0.0000000e+00  0.0000000e+00
  CG2D1   CG2D1   CG321     5  1.2350000e+02  4.0166400e+02  0.0000000e+00  0.0000000e+00
  CG2D1   CG2D1   CG331     5  1.2350000e+02  4.0166400e+02  0.0000000e+00  0.0000000e+00
  CG2D1   CG2D1  CG3RC1     5  1.1305470e+02  3.8467696e+02  0.0000000e+00  0.0000000e+00
  CG2D1   CG301   CG301     5  1.1220000e+02  2.6777600e+02  0.0000000e+00  0.0000000e+00
  CG2D1   CG301   CG311     5  1.1220000e+02  2.6777600e+02  0.0000000e+00  0.0000000e+00
  CG2D1   CG301   CG321     5  1.1220000e+02  2.6777600e+02  0.0000000e+00  0.0000000e+00
  CG2D1   CG301   CG331     5  1.1220000e+02  2.6777600e+02  0.0000000e+00  0.0000000e+00
  CG2D1   CG301   OG311     5  1.1343990e+02  5.3973600e+02  0.0000000e+00  0.0000000e+00
  CG2D1   CG311   CG2D1     5  1.1400000e+02  2.5104000e+02  0.0000000e+00  0.0000000e+00
  CG2D1   CG311   CG2O1     5  1.0312440e+02  2.5940800e+02  0.0000000e+00  0.0000000e+00
  CG2D1   CG311   CG2O5     5  9.8199600e+01  1.8652272e+02  0.0000000e+00  0.0000000e+00
  CG2D1   CG311  CG2R61     5  1.0804120e+02  3.2108016e+02  0.0000000e+00  0.0000000e+00
  CG2D1   CG311   CG301     5  1.1220000e+02  2.6777600e+02  0.0000000e+00  0.0000000e+00
  CG2D1   CG311   CG311     5  1.1220000e+02  2.6777600e+02  0.0000000e+00  0.0000000e+00
  CG2D1   CG311   CG321     5  1.1220000e+02  2.6777600e+02  0.0000000e+00  0.0000000e+00
  CG2D1   CG311   CG331     5  1.1220000e+02  2.6777600e+02  0.0000000e+00  0.0000000e+00
  CG2D1   CG311    HGA1     5  1.1150000e+02  3.7656000e+02  0.0000000e+00  0.0000000e+00
  CG2D1   CG311   NG2S1     5  1.1444600e+02  4.7111840e+02  0.0000000e+00  0.0000000e+00
  CG2D1   CG311   OG302     5  9.9000000e+01  1.6736000e+02  0.0000000e+00  0.0000000e+00
  CG2D1   CG311   OG311     5  1.1010000e+02  6.3345760e+02  0.0000000e+00  0.0000000e+00
  CG2D1   CG321   CG2D1     5  1.1400000e+02  2.5104000e+02  0.0000000e+00  0.0000000e+00
  CG2D1   CG321   CG2O1     5  1.0362430e+02  3.1313056e+02  0.0000000e+00  0.0000000e+00
  CG2D1   CG321   CG2O5     5  1.1400000e+02  2.5104000e+02  0.0000000e+00  0.0000000e+00
  CG2D1   CG321   CG301     5  1.1220000e+02  2.6777600e+02  0.0000000e+00  0.0000000e+00
  CG2D1   CG321   CG311     5  1.1220000e+02  2.6777600e+02  0.0000000e+00  0.0000000e+00
  CG2D1   CG321   CG321     5  1.1220000e+02  2.6777600e+02  0.0000000e+00  0.0000000e+00
  CG2D1   CG321   CG331     5  1.1220000e+02  2.6777600e+02  0.0000000e+00  0.0000000e+00
  CG2D1   CG321  CG3RC1     5  1.0568640e+02  2.4786016e+02  0.0000000e+00  0.0000000e+00
  CG2D1   CG321    HGA2     5  1.1150000e+02  3.7656000e+02  0.0000000e+00  0.0000000e+00
  CG2D1   CG321   NG2S1     5  1.1520000e+02  4.4350400e+02  0.0000000e+00  0.0000000e+00
  CG2D1   CG321   OG302     5  9.9000000e+01  1.6736000e+02  0.0000000e+00  0.0000000e+00
  CG2D1   CG321   OG311     5  1.1010000e+02  6.3345760e+02  0.0000000e+00  0.0000000e+00
  CG2D1   CG331    HGA3     5  1.1150000e+02  3.5145600e+02  0.0000000e+00  0.0000000e+00
  CG2D1  CG3RC1  CG3RC1     5  1.2439160e+02  3.5254384e+02  0.0000000e+00  0.0000000e+00
  CG2D1  CG3RC1    HGA1     5  1.0404390e+02  3.3254432e+02  0.0000000e+00  0.0000000e+00
  CG2O1   CG2O1   NG2S1     5  1.0803920e+02  4.7839856e+02  0.0000000e+00  0.0000000e+00
  CG2O1   CG2O1   OG2D1     5  1.1176450e+02  4.5563760e+02  0.0000000e+00  0.0000000e+00
  CG2O1  CG2R61  CG2R61     5  1.1900000e+02  3.7656000e+02  0.0000000e+00  0.0000000e+00
  CG2O1   CG301   CG311     5  1.0800000e+02  4.3513600e+02  0.0000000e+00  0.0000000e+00
  CG2O1   CG301   CG321     5  1.0800000e+02  4.3513600e+02  0.0000000e+00  0.0000000e+00
  CG2O1   CG301   CG331     5  1.0800000e+02  4.3513600e+02  0.0000000e+00  0.0000000e+00
  CG2O1   CG301  CG3RC1     5  1.1274440e+02  3.9170608e+02  0.0000000e+00  0.0000000e+00
  CG2O1   CG301   OG311     5  1.1100000e+02  9.3721600e+02  0.0000000e+00  0.0000000e+00
  CG2O1   CG311   CG2O1     5  1.0120910e+02  8.3680000e+00  0.0000000e+00  0.0000000e+00
  CG2O1   CG311   CG2O5     5  1.0750000e+02  4.3346240e+02  0.0000000e+00  0.0000000e+00
  CG2O1   CG311  CG2R61     5  1.0750000e+02  3.3472000e+02  0.0000000e+00  0.0000000e+00
  CG2O1   CG311   CG301     5  1.0800000e+02  4.3513600e+02  0.0000000e+00  0.0000000e+00
  CG2O1   CG311   CG311     5  1.0800000e+02  4.3513600e+02  0.0000000e+00  0.0000000e+00
  CG2O1   CG311   CG321     5  1.0800000e+02  4.3513600e+02  0.0000000e+00  0.0000000e+00
  CG2O1   CG311   CG331     5  1.0800000e+02  4.3513600e+02  0.0000000e+00  0.0000000e+00
  CG2O1   CG311    HGA1     5  1.0950000e+02  4.1840000e+02  0.0000000e+00  0.0000000e+00
  CG2O1   CG311   NG2S1     5  1.0700000e+02  4.1840000e+02  0.0000000e+00  0.0000000e+00
  CG2O1   CG311   OG302     5  1.0900000e+02  3.7656000e+02  0.0000000e+00  0.0000000e+00
  CG2O1   CG311   OG311     5  1.1100000e+02  9.3721600e+02  0.0000000e+00  0.0000000e+00
  CG2O1   CG321   CG2O1     5  1.2394500e+02  5.1739344e+02  0.0000000e+00  0.0000000e+00
  CG2O1   CG321   CG2O5     5  1.0750000e+02  4.3346240e+02  0.0000000e+00  0.0000000e+00
  CG2O1   CG321  CG2R61     5  1.0750000e+02  4.3346240e+02  0.0000000e+00  0.0000000e+00
  CG2O1   CG321   CG301     5  1.0800000e+02  4.3513600e+02  0.0000000e+00  0.0000000e+00
  CG2O1   CG321   CG311     5  1.0800000e+02  4.3513600e+02  0.0000000e+00  0.0000000e+00
  CG2O1   CG321   CG321     5  1.0800000e+02  4.3513600e+02  0.0000000e+00  0.0000000e+00
  CG2O1   CG321   CG331     5  1.0800000e+02  4.3513600e+02  0.0000000e+00  0.0000000e+00
  CG2O1   CG321    HGA2     5  1.0950000e+02  2.7614400e+02  2.1630000e-01  2.5104000e+04
  CG2O1   CG321   NG2S1     5  1.0700000e+02  4.1840000e+02  0.0000000e+00  0.0000000e+00
  CG2O1   CG321   OG302     5  1.0900000e+02  3.7656000e+02  0.0000000e+00  0.0000000e+00
  CG2O1   CG321   OG311     5  1.1100000e+02  9.3721600e+02  0.0000000e+00  0.0000000e+00
  CG2O1   CG331    HGA3     5  1.0950000e+02  2.7614400e+02  2.1630000e-01  2.5104000e+04
  CG2O1  CG3C41  CG3C41     5  1.0100000e+02  7.9496000e+02  0.0000000e+00  0.0000000e+00
  CG2O1  CG3C41    HGA1     5  1.1300000e+02  6.0249600e+02  0.0000000e+00  0.0000000e+00
  CG2O1  CG3C41   NG2S1     5  9.5908200e+01  5.3530096e+02  0.0000000e+00  0.0000000e+00
  CG2O1  CG3RC1  CG3RC1     5  1.1327430e+02  5.3889920e+02  0.0000000e+00  0.0000000e+00
  CG2O1  CG3RC1    HGA1     5  1.0753420e+02  3.7957248e+02  0.0000000e+00  0.0000000e+00
  CG2O1   NG2S1   CG2O1     5  1.2000000e+02  4.1840000e+02  0.0000000e+00  0.0000000e+00
  CG2O1   NG2S1  CG2R61     5  1.2000000e+02  4.1840000e+02  0.0000000e+00  0.0000000e+00
  CG2O1   NG2S1   CG301     5  1.2000000e+02  4.1840000e+02  0.0000000e+00  0.0000000e+00
  CG2O1   NG2S1   CG311     5  1.2000000e+02  4.1840000e+02  0.0000000e+00  0.0000000e+00
  CG2O1   NG2S1   CG321     5  1.2000000e+02  4.1840000e+02  0.0000000e+00  0.0000000e+00
  CG2O1   NG2S1   CG331     5  1.2000000e+02  4.1840000e+02  0.0000000e+00  0.0000000e+00
  CG2O1   NG2S1  CG3C41     5  1.2000000e+02  4.1840000e+02  0.0000000e+00  0.0000000e+00
  CG2O1   NG2S1  CG3RC1     5  1.2000000e+02  4.1840000e+02  0.0000000e+00  0.0000000e+00
  CG2O1   NG2S1    HGP1     5  1.2300000e+02  2.8451200e+02  0.0000000e+00  0.0000000e+00
  CG2O1   NG2S1   NG2S1     5  1.1500000e+02  4.1840000e+02  0.0000000e+00  0.0000000e+00
  CG2O1   NG2S1   OG311     5  1.0586000e+02  4.5622336e+02  0.0000000e+00  0.0000000e+00
  CG2O2  CG2R61  CG2R61     5  1.2000000e+02  3.7656000e+02  0.0000000e+00  0.0000000e+00
  CG2O2   CG301   CG2O2     5  1.0750000e+02  4.3346240e+02  0.0000000e+00  0.0000000e+00
  CG2O2   CG301   CG2O5     5  1.0750000e+02  4.3346240e+02  0.0000000e+00  0.0000000e+00
  CG2O2   CG301   CG311     5  1.0800000e+02  4.3513600e+02  0.0000000e+00  0.0000000e+00
  CG2O2   CG301   CG321     5  1.0800000e+02  4.3513600e+02  0.0000000e+00  0.0000000e+00
  CG2O2   CG301   CG331     5  1.0800000e+02  4.3513600e+02  0.0000000e+00  0.0000000e+00
  CG2O2   CG301   NG2S1     5  1.0700000e+02  4.1840000e+02  0.0000000e+00  0.0000000e+00
  CG2O2   CG301   OG302     5  1.0900000e+02  3.7656000e+02  0.0000000e+00  0.0000000e+00
  CG2O2   CG301   OG311     5  1.1100000e+02  9.3721600e+02  0.0000000e+00  0.0000000e+00
  CG2O2   CG311   CG2O2     5  1.0750000e+02  4.3346240e+02  0.0000000e+00  0.0000000e+00
  CG2O2   CG311   CG2O5     5  1.0750000e+02  4.3346240e+02  0.0000000e+00  0.0000000e+00
  CG2O2   CG311  CG2R61     5  1.0750000e+02  3.3472000e+02  0.0000000e+00  0.0000000e+00
  CG2O2   CG311   CG301     5  1.0800000e+02  4.3513600e+02  0.0000000e+00  0.0000000e+00
  CG2O2   CG311   CG311     5  1.0800000e+02  4.3513600e+02  0.0000000e+00  0.0000000e+00
  CG2O2   CG311   CG321     5  1.0800000e+02  4.3513600e+02  0.0000000e+00  0.0000000e+00
  CG2O2   CG311   CG331     5  1.0800000e+02  4.3513600e+02  0.0000000e+00  0.0000000e+00
  CG2O2   CG311  CG3RC1     5  1.0967390e+02  3.4861088e+02  0.0000000e+00  0.0000000e+00
  CG2O2   CG311    HGA1     5  1.0950000e+02  4.1840000e+02  0.0000000e+00  0.0000000e+00
  CG2O2   CG311   NG2S1     5  1.0700000e+02  4.1840000e+02  0.0000000e+00  0.0000000e+00
  CG2O2   CG311   OG302     5  1.0900000e+02  3.7656000e+02  0.0000000e+00  0.0000000e+00
  CG2O2   CG311   OG311     5  1.0670000e+02  9.2048000e+02  0.0000000e+00  0.0000000e+00
  CG2O2   CG321  CG2R61     5  1.0750000e+02  4.3346240e+02  0.0000000e+00  0.0000000e+00
  CG2O2   CG321   CG301     5  1.0800000e+02  4.3513600e+02  0.0000000e+00  0.0000000e+00
  CG2O2   CG321   CG311     5  1.0800000e+02  4.3513600e+02  0.0000000e+00  0.0000000e+00
  CG2O2   CG321   CG321     5  1.0800000e+02  4.3513600e+02  0.0000000e+00  0.0000000e+00
  CG2O2   CG321   CG331     5  1.0800000e+02  4.3513600e+02  0.0000000e+00  0.0000000e+00
  CG2O2   CG321    HGA2     5  1.0950000e+02  2.7614400e+02  2.1630000e-01  2.5104000e+04
  CG2O2   CG321   NG2S1     5  1.0700000e+02  4.1840000e+02  0.0000000e+00  0.0000000e+00
  CG2O2   CG331    HGA3     5  1.0950000e+02  2.7614400e+02  2.1630000e-01  2.5104000e+04
  CG2O2  CG3C41  CG3C41     5  1.0100000e+02  7.9496000e+02  0.0000000e+00  0.0000000e+00
  CG2O2  CG3C41  CG3RC1     5  1.1278480e+02  3.2074544e+02  0.0000000e+00  0.0000000e+00
  CG2O2  CG3C41    HGA1     5  1.1300000e+02  6.0249600e+02  0.0000000e+00  0.0000000e+00
  CG2O2  CG3RC1   NG2S1     5  1.0528480e+02  6.9153152e+02  0.0000000e+00  0.0000000e+00
  CG2O2   OG302   CG2O2     5  1.2000000e+02  1.5480800e+03  0.0000000e+00  0.0000000e+00
  CG2O2   OG302  CG2R61     5  1.0288920e+02  3.2451104e+02  0.0000000e+00  0.0000000e+00
  CG2O2   OG302   CG301     5  1.0960000e+02  3.3472000e+02  2.2651000e-01  2.5104000e+04
  CG2O2   OG302   CG311     5  1.0960000e+02  3.3472000e+02  2.2651000e-01  2.5104000e+04
  CG2O2   OG302   CG321     5  1.0960000e+02  3.3472000e+02  2.2651000e-01  2.5104000e+04
  CG2O2   OG302   CG331     5  1.0960000e+02  3.3472000e+02  2.2651000e-01  2.5104000e+04
  CG2O2   OG302  CG3RC1     5  1.0960000e+02  3.3472000e+02  2.2651000e-01  2.5104000e+04
  CG2O2   OG311    HGP1     5  1.1500000e+02  4.6024000e+02  0.0000000e+00  0.0000000e+00
  CG2O5   CG2O5   CG311     5  1.0581690e+02  2.7606032e+02  0.0000000e+00  0.0000000e+00
  CG2O5   CG2O5   CG321     5  1.1650000e+02  1.6736000e+02  0.0000000e+00  0.0000000e+00
  CG2O5   CG2O5  CG3RC1     5  1.0819000e+02  1.6736000e+02  0.0000000e+00  0.0000000e+00
  CG2O5   CG2O5   OG2D3     5  1.1655000e+02  7.5178112e+02  0.0000000e+00  0.0000000e+00
  CG2O5  CG2R61  CG2R61     5  1.2000000e+02  3.7656000e+02  0.0000000e+00  0.0000000e+00
  CG2O5   CG301   CG311     5  1.0800000e+02  4.3513600e+02  0.0000000e+00  0.0000000e+00
  CG2O5   CG301   CG321     5  1.0800000e+02  4.3513600e+02  0.0000000e+00  0.0000000e+00
  CG2O5   CG301   CG331     5  1.0800000e+02  4.3513600e+02  0.0000000e+00  0.0000000e+00
  CG2O5   CG301   OG311     5  1.1100000e+02  9.3721600e+02  0.0000000e+00  0.0000000e+00
  CG2O5   CG311   CG2O5     5  1.0750000e+02  4.3346240e+02  0.0000000e+00  0.0000000e+00
  CG2O5   CG311  CG2R61     5  1.0750000e+02  4.3346240e+02  0.0000000e+00  0.0000000e+00
  CG2O5   CG311   CG301     5  1.0800000e+02  4.3513600e+02  0.0000000e+00  0.0000000e+00
  CG2O5   CG311   CG311     5  1.0800000e+02  4.3513600e+02  0.0000000e+00  0.0000000e+00
  CG2O5   CG311   CG321     5  1.0800000e+02  4.3513600e+02  0.0000000e+00  0.0000000e+00
  CG2O5   CG311   CG331     5  1.0800000e+02  4.3513600e+02  0.0000000e+00  0.0000000e+00
  CG2O5   CG311    HGA1     5  1.0950000e+02  4.1840000e+02  0.0000000e+00  0.0000000e+00
  CG2O5   CG311   NG2S1     5  1.0700000e+02  4.1840000e+02  0.0000000e+00  0.0000000e+00
  CG2O5   CG311   OG302     5  1.0900000e+02  5.8576000e+02  0.0000000e+00  0.0000000e+00
  CG2O5   CG311   OG311     5  1.1100000e+02  9.3721600e+02  0.0000000e+00  0.0000000e+00
  CG2O5   CG321   CG2O5     5  1.0159470e+02  8.3680000e+00  0.0000000e+00  0.0000000e+00
  CG2O5   CG321   CG301     5  1.1380000e+02  5.0208000e+02  0.0000000e+00  0.0000000e+00
  CG2O5   CG321   CG311     5  1.1380000e+02  5.0208000e+02  0.0000000e+00  0.0000000e+00
  CG2O5   CG321   CG321     5  1.1380000e+02  5.0208000e+02  0.0000000e+00  0.0000000e+00
  CG2O5   CG321   CG331     5  1.1150000e+02  5.0208000e+02  0.0000000e+00  0.0000000e+00
  CG2O5   CG321  CG3RC1     5  9.4122100e+01  1.4844832e+02  0.0000000e+00  0.0000000e+00
  CG2O5   CG321    HGA2     5  1.0950000e+02  4.1840000e+02  0.0000000e+00  0.0000000e+00
  CG2O5   CG331    HGA3     5  1.0950000e+02  4.1840000e+02  0.0000000e+00  0.0000000e+00
  CG2O5  CG3RC1   CG321     5  9.7070300e+01  2.9036960e+02  0.0000000e+00  0.0000000e+00
  CG2O5  CG3RC1   CG331     5  1.0142370e+02  3.4333904e+02  0.0000000e+00  0.0000000e+00
  CG2O5  CG3RC1  CG3RC1     5  1.1131100e+02  3.2041072e+02  0.0000000e+00  0.0000000e+00
  CG2O5  CG3RC1    HGA1     5  1.0488470e+02  2.9631088e+02  0.0000000e+00  0.0000000e+00
 CG2R61   CG2O1   NG2S1     5  1.1650000e+02  6.6944000e+02  0.0000000e+00  0.0000000e+00
 CG2R61   CG2O1   OG2D1     5  1.2100000e+02  2.5104000e+02  0.0000000e+00  0.0000000e+00
 CG2R61   CG2O2   OG2D1     5  1.2310000e+02  5.8576000e+02  2.4420000e-01  1.6736000e+04
 CG2R61   CG2O2   OG302     5  1.1100000e+02  4.1840000e+02  2.3600000e-01  1.6736000e+04
 CG2R61   CG2O2   OG311     5  1.1390000e+02  3.3472000e+02  2.3700000e-01  2.5104000e+04
 CG2R61   CG2O5  CG2R61     5  1.0775000e+02  3.3413424e+02  0.0000000e+00  0.0000000e+00
 CG2R61   CG2O5   CG311     5  1.1720000e+02  3.3472000e+02  0.0000000e+00  0.0000000e+00
 CG2R61   CG2O5   CG321     5  1.1650000e+02  1.6736000e+02  0.0000000e+00  0.0000000e+00
 CG2R61   CG2O5   CG331     5  1.1650000e+02  5.0208000e+02  0.0000000e+00  0.0000000e+00
 CG2R61   CG2O5  CG3RC1     5  1.0704100e+02  4.1781424e+02  0.0000000e+00  0.0000000e+00
 CG2R61   CG2O5   OG2D3     5  1.2130000e+02  5.8576000e+02  0.0000000e+00  0.0000000e+00
 CG2R61  CG2R61   CG301     5  1.2000000e+02  3.8325440e+02  0.0000000e+00  0.0000000e+00
 CG2R61  CG2R61   CG311     5  1.2000000e+02  3.8325440e+02  0.0000000e+00  0.0000000e+00
 CG2R61  CG2R61   CG321     5  1.2000000e+02  3.8325440e+02  0.0000000e+00  0.0000000e+00
 CG2R61  CG2R61   CG331     5  1.2000000e+02  3.8325440e+02  0.0000000e+00  0.0000000e+00
 CG2R61  CG2R61  CG3C41     5  1.2000000e+02  3.8325440e+02  0.0000000e+00  0.0000000e+00
 CG2R61  CG2R61  CG3RC1     5  1.1690000e+02  2.5396880e+02  0.0000000e+00  0.0000000e+00
 CG2R61  CG2R61   NG2S1     5  1.2000000e+02  3.3472000e+02  2.4162000e-01  2.9288000e+04
 CG2R61  CG2R61   OG302     5  1.2000000e+02  9.2048000e+02  0.0000000e+00  0.0000000e+00
 CG2R61  CG2R61   OG311     5  1.2000000e+02  3.7823360e+02  0.0000000e+00  0.0000000e+00
 CG2R61   CG301   CG301     5  1.0750000e+02  4.3346240e+02  0.0000000e+00  0.0000000e+00
 CG2R61   CG301   CG321     5  1.0750000e+02  4.3346240e+02  0.0000000e+00  0.0000000e+00
 CG2R61   CG301   CG331     5  1.0750000e+02  4.3346240e+02  0.0000000e+00  0.0000000e+00
 CG2R61   CG301   NG2S1     5  1.0083360e+02  5.1002960e+02  0.0000000e+00  0.0000000e+00
 CG2R61   CG301   OG311     5  1.1280000e+02  6.8617600e+02  0.0000000e+00  0.0000000e+00
 CG2R61   CG311  CG2R61     5  1.0750000e+02  4.3346240e+02  0.0000000e+00  0.0000000e+00
 CG2R61   CG311   CG301     5  1.0750000e+02  4.3346240e+02  0.0000000e+00  0.0000000e+00
 CG2R61   CG311   CG311     5  1.0750000e+02  4.3346240e+02  0.0000000e+00  0.0000000e+00
 CG2R61   CG311   CG321     5  1.0750000e+02  4.3346240e+02  0.0000000e+00  0.0000000e+00
 CG2R61   CG311   CG331     5  1.0750000e+02  4.3346240e+02  0.0000000e+00  0.0000000e+00
 CG2R61   CG311  CG3RC1     5  9.9937600e+01  2.8124848e+02  0.0000000e+00  0.0000000e+00
 CG2R61   CG311    HGA1     5  1.1100000e+02  3.5982400e+02  0.0000000e+00  0.0000000e+00
 CG2R61   CG311   NG2S1     5  1.1520000e+02  4.4350400e+02  0.0000000e+00  0.0000000e+00
 CG2R61   CG311   OG302     5  1.1010000e+02  6.3345760e+02  0.0000000e+00  0.0000000e+00
 CG2R61   CG311   OG311     5  1.1280000e+02  6.8617600e+02  0.0000000e+00  0.0000000e+00
 CG2R61   CG321  CG2R61     5  1.0750000e+02  4.3346240e+02  0.0000000e+00  0.0000000e+00
 CG2R61   CG321   CG301     5  1.0750000e+02  4.3346240e+02  0.0000000e+00  0.0000000e+00
 CG2R61   CG321   CG311     5  1.0750000e+02  4.3346240e+02  0.0000000e+00  0.0000000e+00
 CG2R61   CG321   CG321     5  1.0750000e+02  4.3346240e+02  0.0000000e+00  0.0000000e+00
 CG2R61   CG321   CG331     5  1.0750000e+02  4.3346240e+02  0.0000000e+00  0.0000000e+00
 CG2R61   CG321    HGA2     5  1.0750000e+02  4.1254240e+02  0.0000000e+00  0.0000000e+00
 CG2R61   CG321   NG2S1     5  1.1520000e+02  4.4350400e+02  0.0000000e+00  0.0000000e+00
 CG2R61   CG321   OG302     5  1.1010000e+02  6.3345760e+02  0.0000000e+00  0.0000000e+00
 CG2R61   CG321   OG311     5  1.1010000e+02  6.3345760e+02  0.0000000e+00  0.0000000e+00
 CG2R61   CG331    HGA3     5  1.0750000e+02  4.1254240e+02  0.0000000e+00  0.0000000e+00
 CG2R61  CG3C41   CG321     5  1.0545100e+02  5.5856400e+02  0.0000000e+00  0.0000000e+00
 CG2R61  CG3C41  CG3C41     5  1.0142480e+02  4.8333568e+02  0.0000000e+00  0.0000000e+00
 CG2R61  CG3C41    HGA1     5  9.8756700e+01  3.5212544e+02  0.0000000e+00  0.0000000e+00
 CG2R61  CG3C41   OG311     5  1.0142400e+02  5.8324960e+02  0.0000000e+00  0.0000000e+00
 CG2R61  CG3RC1  CG3RC1     5  9.9198400e+01  3.5271120e+02  0.0000000e+00  0.0000000e+00
 CG2R61  CG3RC1    HGA1     5  1.1748320e+02  2.8718976e+02  0.0000000e+00  0.0000000e+00
 CG2R61   NG2S1    HGP1     5  1.1700000e+02  2.8451200e+02  0.0000000e+00  0.0000000e+00
 CG2R61   OG311    HGP1     5  1.0800000e+02  5.4392000e+02  0.0000000e+00  0.0000000e+00
  CG301   CG2D1   CG311     5  1.1300000e+02  4.1840000e+02  0.0000000e+00  0.0000000e+00
  CG301   CG2D1   CG321     5  1.1300000e+02  4.1840000e+02  0.0000000e+00  0.0000000e+00
  CG301   CG2D1   CG331     5  1.2350000e+02  4.0166400e+02  0.0000000e+00  0.0000000e+00
  CG301   CG2O1   NG2S1     5  1.1650000e+02  6.6944000e+02  0.0000000e+00  0.0000000e+00
  CG301   CG2O1   OG2D1     5  1.2100000e+02  6.6944000e+02  0.0000000e+00  0.0000000e+00
  CG301   CG2O2   OG2D1     5  1.2500000e+02  5.8576000e+02  2.4420000e-01  1.6736000e+04
  CG301   CG2O2   OG302     5  1.0900000e+02  4.6024000e+02  2.3260000e-01  1.6736000e+04
  CG301   CG2O2   OG311     5  1.1050000e+02  4.6024000e+02  0.0000000e+00  0.0000000e+00
  CG301   CG2O5   CG301     5  1.1560000e+02  2.9288000e+02  0.0000000e+00  0.0000000e+00
  CG301   CG2O5   CG311     5  1.1560000e+02  2.9288000e+02  0.0000000e+00  0.0000000e+00
  CG301   CG2O5   CG321     5  1.1560000e+02  2.9288000e+02  0.0000000e+00  0.0000000e+00
  CG301   CG2O5   CG331     5  1.1560000e+02  2.9288000e+02  0.0000000e+00  0.0000000e+00
  CG301   CG2O5   OG2D3     5  1.2150000e+02  7.9496000e+02  0.0000000e+00  0.0000000e+00
  CG301   CG301   CG301     5  1.1350000e+02  4.8827280e+02  2.5610000e-01  9.3386880e+03
  CG301   CG301   CG311     5  1.1350000e+02  4.8827280e+02  2.5610000e-01  9.3386880e+03
  CG301   CG301   CG321     5  1.1350000e+02  4.8827280e+02  2.5610000e-01  9.3386880e+03
  CG301   CG301   CG331     5  1.1350000e+02  4.8827280e+02  2.5610000e-01  9.3386880e+03
  CG301   CG301   OG311     5  1.1010000e+02  6.3345760e+02  0.0000000e+00  0.0000000e+00
  CG301   CG311   CG301     5  1.0800000e+02  4.3513600e+02  0.0000000e+00  0.0000000e+00
  CG301   CG311   CG311     5  1.0800000e+02  4.3513600e+02  0.0000000e+00  0.0000000e+00
  CG301   CG311   CG321     5  1.1350000e+02  4.8827280e+02  2.5610000e-01  9.3386880e+03
  CG301   CG311   CG331     5  1.1350000e+02  4.8827280e+02  2.5610000e-01  9.3386880e+03
  CG301   CG311  CG3RC1     5  1.0370000e+02  4.4643280e+02  2.5610000e-01  6.6944000e+03
  CG301   CG311    HGA1     5  1.1010000e+02  2.8953280e+02  2.1790000e-01  1.8853104e+04
  CG301   CG311   OG302     5  1.0970000e+02  9.6232000e+02  0.0000000e+00  0.0000000e+00
  CG301   CG311   OG311     5  1.1010000e+02  6.3345760e+02  0.0000000e+00  0.0000000e+00
  CG301   CG321   CG301     5  1.1350000e+02  4.8827280e+02  2.5610000e-01  9.3386880e+03
  CG301   CG321   CG311     5  1.1350000e+02  4.8827280e+02  2.5610000e-01  9.3386880e+03
  CG301   CG321   CG321     5  1.1350000e+02  4.8827280e+02  2.5610000e-01  9.3386880e+03
  CG301   CG321   CG331     5  1.1350000e+02  5.4684880e+02  0.0000000e+00  0.0000000e+00
  CG301   CG321  CG3RC1     5  1.1100000e+02  4.4643280e+02  2.5610000e-01  6.6944000e+03
  CG301   CG321    HGA2     5  1.1010000e+02  2.2175200e+02  2.1790000e-01  1.8853104e+04
  CG301   CG321   NG2S1     5  1.1350000e+02  5.8576000e+02  0.0000000e+00  0.0000000e+00
  CG301   CG321   OG311     5  1.1010000e+02  6.3345760e+02  0.0000000e+00  0.0000000e+00
  CG301   CG331    HGA3     5  1.1010000e+02  2.7974224e+02  2.1790000e-01  1.8853104e+04
  CG301  CG3C41  CG3C41     5  1.1636250e+02  5.5454736e+02  0.0000000e+00  0.0000000e+00
  CG301  CG3C41    HGA1     5  1.0710800e+02  3.5722992e+02  0.0000000e+00  0.0000000e+00
  CG301  CG3RC1  CG3RC1     5  1.0800000e+02  4.4643280e+02  2.5610000e-01  6.6944000e+03
  CG301  CG3RC1    HGA1     5  1.1010000e+02  2.8869600e+02  2.1790000e-01  1.8853104e+04
  CG301  CG3RC1  OG3C51     5  1.0756070e+02  4.4408976e+02  0.0000000e+00  0.0000000e+00
  CG301   NG2S1    HGP1     5  1.1700000e+02  2.9288000e+02  0.0000000e+00  0.0000000e+00
  CG301   OG311    HGP1     5  1.0600000e+02  4.1840000e+02  0.0000000e+00  0.0000000e+00
  CG311   CG2D1   CG311     5  1.1300000e+02  4.1840000e+02  0.0000000e+00  0.0000000e+00
  CG311   CG2D1   CG321     5  1.1300000e+02  4.1840000e+02  0.0000000e+00  0.0000000e+00
  CG311   CG2D1   CG331     5  1.2350000e+02  4.0166400e+02  0.0000000e+00  0.0000000e+00
  CG311   CG2O1   NG2S1     5  1.1650000e+02  6.6944000e+02  0.0000000e+00  0.0000000e+00
  CG311   CG2O1   OG2D1     5  1.2100000e+02  6.6944000e+02  0.0000000e+00  0.0000000e+00
  CG311   CG2O2   OG2D1     5  1.2500000e+02  5.8576000e+02  2.4420000e-01  1.6736000e+04
  CG311   CG2O2   OG302     5  1.0900000e+02  4.6024000e+02  2.3260000e-01  1.6736000e+04
  CG311   CG2O2   OG311     5  1.1050000e+02  4.6024000e+02  0.0000000e+00  0.0000000e+00
  CG311   CG2O5   CG311     5  1.1560000e+02  2.9288000e+02  0.0000000e+00  0.0000000e+00
  CG311   CG2O5   CG321     5  1.1560000e+02  2.9288000e+02  0.0000000e+00  0.0000000e+00
  CG311   CG2O5   CG331     5  1.1560000e+02  2.9288000e+02  0.0000000e+00  0.0000000e+00
  CG311   CG2O5   OG2D3     5  1.2150000e+02  7.9496000e+02  0.0000000e+00  0.0000000e+00
  CG311   CG301   CG311     5  1.1350000e+02  4.8827280e+02  2.5610000e-01  9.3386880e+03
  CG311   CG301   CG321     5  1.1350000e+02  4.8827280e+02  2.5610000e-01  9.3386880e+03
  CG311   CG301   CG331     5  1.1350000e+02  4.8827280e+02  2.5610000e-01  9.3386880e+03
  CG311   CG301  CG3RC1     5  1.0370000e+02  4.4643280e+02  2.5610000e-01  6.6944000e+03
  CG311   CG301   NG2S1     5  1.1350000e+02  5.8576000e+02  0.0000000e+00  0.0000000e+00
  CG311   CG301   OG311     5  1.1010000e+02  6.3345760e+02  0.0000000e+00  0.0000000e+00
  CG311   CG311   CG311     5  1.1100000e+02  4.4643280e+02  2.5610000e-01  6.6944000e+03
  CG311   CG311   CG321     5  1.1100000e+02  4.4643280e+02  2.5610000e-01  6.6944000e+03
  CG311   CG311   CG331     5  1.0850000e+02  4.4643280e+02  2.5610000e-01  6.6944000e+03
  CG311   CG311  CG3RC1     5  1.0370000e+02  4.4643280e+02  2.5610000e-01  6.6944000e+03
  CG311   CG311    HGA1     5  1.1010000e+02  2.8869600e+02  2.1790000e-01  1.8853104e+04
  CG311   CG311   NG2S1     5  1.1350000e+02  5.8576000e+02  0.0000000e+00  0.0000000e+00
  CG311   CG311   OG302     5  1.0970000e+02  9.6232000e+02  0.0000000e+00  0.0000000e+00
  CG311   CG311   OG311     5  1.1010000e+02  6.3345760e+02  0.0000000e+00  0.0000000e+00
  CG311   CG321   CG311     5  1.1350000e+02  4.8827280e+02  2.5610000e-01  9.3386880e+03
  CG311   CG321   CG321     5  1.1350000e+02  4.8827280e+02  2.5610000e-01  9.3386880e+03
  CG311   CG321   CG331     5  1.1350000e+02  4.8827280e+02  2.5610000e-01  9.3386880e+03
  CG311   CG321  CG3C41     5  1.1100000e+02  4.4643280e+02  0.0000000e+00  0.0000000e+00
  CG311   CG321  CG3RC1     5  1.1100000e+02  4.4643280e+02  2.5610000e-01  6.6944000e+03
  CG311   CG321   NG2S1     5  1.1350000e+02  5.8576000e+02  0.0000000e+00  0.0000000e+00
  CG311   CG321   OG302     5  1.1010000e+02  6.3345760e+02  0.0000000e+00  0.0000000e+00
  CG311   CG321   OG311     5  1.1010000e+02  6.3345760e+02  0.0000000e+00  0.0000000e+00
  CG311  CG3C41  CG3C41     5  1.1601360e+02  4.7923536e+02  0.0000000e+00  0.0000000e+00
  CG311  CG3RC1   CG331     5  1.1350000e+02  4.8827280e+02  2.5610000e-01  9.3386880e+03
  CG311  CG3RC1  CG3C41     5  1.2806930e+02  1.5991248e+02  0.0000000e+00  0.0000000e+00
  CG311  CG3RC1  CG3RC1     5  1.0800000e+02  4.4643280e+02  2.5610000e-01  6.6944000e+03
  CG311  CG3RC1    HGA1     5  1.1010000e+02  2.8869600e+02  2.1790000e-01  1.8853104e+04
  CG311  CG3RC1   OG302     5  1.0302000e+02  5.7864720e+02  0.0000000e+00  0.0000000e+00
  CG311  CG3RC1   OG311     5  1.1678320e+02  6.2224448e+02  0.0000000e+00  0.0000000e+00
  CG311  CG3RC1  OG3C51     5  9.8376200e+01  4.4584704e+02  0.0000000e+00  0.0000000e+00
  CG311   NG2S1    HGP1     5  1.1700000e+02  2.9288000e+02  0.0000000e+00  0.0000000e+00
  CG311   OG311    HGP1     5  1.0600000e+02  4.1840000e+02  0.0000000e+00  0.0000000e+00
  CG321   CG2D1   CG321     5  1.2350000e+02  4.0166400e+02  0.0000000e+00  0.0000000e+00
  CG321   CG2D1   CG331     5  1.2350000e+02  4.0166400e+02  0.0000000e+00  0.0000000e+00
  CG321   CG2O1   NG2S1     5  1.1650000e+02  6.6944000e+02  0.0000000e+00  0.0000000e+00
  CG321   CG2O1   OG2D1     5  1.2100000e+02  6.6944000e+02  0.0000000e+00  0.0000000e+00
  CG321   CG2O2   OG2D1     5  1.2500000e+02  5.8576000e+02  2.4420000e-01  1.6736000e+04
  CG321   CG2O2   OG302     5  1.0900000e+02  4.6024000e+02  2.3260000e-01  1.6736000e+04
  CG321   CG2O2   OG311     5  1.1050000e+02  4.6024000e+02  0.0000000e+00  0.0000000e+00
  CG321   CG2O5   CG321     5  1.1560000e+02  2.9288000e+02  0.0000000e+00  0.0000000e+00
  CG321   CG2O5   CG331     5  1.1560000e+02  2.9288000e+02  0.0000000e+00  0.0000000e+00
  CG321   CG2O5  CG3RC1     5  1.1545330e+02  3.8040928e+02  0.0000000e+00  0.0000000e+00
  CG321   CG2O5   OG2D3     5  1.2220000e+02  6.2760000e+02  0.0000000e+00  0.0000000e+00
  CG321   CG301   CG321     5  1.1350000e+02  4.8827280e+02  2.5610000e-01  9.3386880e+03
  CG321   CG301   CG331     5  1.1350000e+02  4.8827280e+02  2.5610000e-01  9.3386880e+03
  CG321   CG301  CG3C41     5  1.1350000e+02  4.8827280e+02  2.5610000e-01  9.3386880e+03
  CG321   CG301  CG3RC1     5  1.0370000e+02  4.4643280e+02  2.5610000e-01  6.6944000e+03
  CG321   CG301   NG2S1     5  1.1350000e+02  5.8576000e+02  0.0000000e+00  0.0000000e+00
  CG321   CG301   OG302     5  1.1450000e+02  3.8074400e+02  0.0000000e+00  0.0000000e+00
  CG321   CG301   OG311     5  1.1010000e+02  6.3345760e+02  0.0000000e+00  0.0000000e+00
  CG321   CG311   CG321     5  1.1350000e+02  4.8827280e+02  2.5610000e-01  9.3386880e+03
  CG321   CG311  CG3C41     5  1.1100000e+02  4.4643280e+02  0.0000000e+00  0.0000000e+00
  CG321   CG311  CG3RC1     5  1.0370000e+02  4.4643280e+02  2.5610000e-01  6.6944000e+03
  CG321   CG311   NG2S1     5  1.1350000e+02  5.8576000e+02  0.0000000e+00  0.0000000e+00
  CG321   CG311   OG302     5  1.0970000e+02  9.6232000e+02  0.0000000e+00  0.0000000e+00
  CG321   CG311   OG311     5  1.1000000e+02  6.3345760e+02  0.0000000e+00  0.0000000e+00
  CG321   CG321   CG321     5  1.1360000e+02  4.8827280e+02  2.5610000e-01  9.3386880e+03
  CG321   CG321   CG331     5  1.1500000e+02  4.8534400e+02  2.5610000e-01  6.6944000e+03
  CG321   CG321  CG3C41     5  1.1100000e+02  4.4643280e+02  0.0000000e+00  0.0000000e+00
  CG321   CG321  CG3RC1     5  1.1100000e+02  4.4643280e+02  2.5610000e-01  6.6944000e+03
  CG321   CG321   NG2S1     5  1.1350000e+02  5.8576000e+02  0.0000000e+00  0.0000000e+00
  CG321   CG321   OG302     5  1.1010000e+02  6.3345760e+02  0.0000000e+00  0.0000000e+00
  CG321   CG331    HGA3     5  1.1010000e+02  2.8953280e+02  2.1790000e-01  1.8853104e+04
  CG321  CG3C41   CG321     5  1.1985360e+02  5.2986176e+02  0.0000000e+00  0.0000000e+00
  CG321  CG3C41  CG3C41     5  1.2235170e+02  4.0919520e+02  0.0000000e+00  0.0000000e+00
  CG321  CG3C41    HGA1     5  1.1112290e+02  2.9354944e+02  0.0000000e+00  0.0000000e+00
  CG321  CG3C41  OG3C51     5  1.0749720e+02  6.3605168e+02  0.0000000e+00  0.0000000e+00
  CG321  CG3RC1   CG321     5  1.1350000e+02  4.8827280e+02  2.5610000e-01  9.3386880e+03
  CG321  CG3RC1   CG331     5  1.1350000e+02  4.8827280e+02  2.5610000e-01  9.3386880e+03
  CG321  CG3RC1  CG3C41     5  1.1116020e+02  2.2124992e+02  0.0000000e+00  0.0000000e+00
  CG321  CG3RC1  CG3RC1     5  1.1100000e+02  4.4643280e+02  2.5610000e-01  6.6944000e+03
  CG321  CG3RC1    HGA1     5  1.1010000e+02  2.8869600e+02  2.1790000e-01  1.8853104e+04
  CG321  CG3RC1  OG3C51     5  1.0890010e+02  5.5739248e+02  0.0000000e+00  0.0000000e+00
  CG321   NG2S1    HGP1     5  1.1700000e+02  2.9288000e+02  0.0000000e+00  0.0000000e+00
  CG331   CG2D1   CG331     5  1.1900000e+02  4.6024000e+02  0.0000000e+00  0.0000000e+00
  CG331   CG2D1  CG3RC1     5  1.3313020e+02  2.6434512e+02  0.0000000e+00  0.0000000e+00
  CG331   CG2O1   NG2S1     5  1.1650000e+02  6.6944000e+02  0.0000000e+00  0.0000000e+00
  CG331   CG2O1   OG2D1     5  1.2100000e+02  6.6944000e+02  0.0000000e+00  0.0000000e+00
  CG331   CG2O2   OG2D1     5  1.2500000e+02  5.8576000e+02  2.4420000e-01  1.6736000e+04
  CG331   CG2O2   OG302     5  1.0900000e+02  4.6024000e+02  2.3260000e-01  1.6736000e+04
  CG331   CG2O2   OG311     5  1.1050000e+02  4.6024000e+02  0.0000000e+00  0.0000000e+00
  CG331   CG2O5   CG331     5  1.1560000e+02  2.9288000e+02  0.0000000e+00  0.0000000e+00
  CG331   CG2O5   OG2D3     5  1.2220000e+02  6.2760000e+02  0.0000000e+00  0.0000000e+00
  CG331   CG301   CG331     5  1.1350000e+02  4.8827280e+02  2.5610000e-01  9.3386880e+03
  CG331   CG301  CG3RC1     5  1.0370000e+02  4.4643280e+02  2.5610000e-01  6.6944000e+03
  CG331   CG301   NG2S1     5  1.1350000e+02  5.8576000e+02  0.0000000e+00  0.0000000e+00
  CG331   CG301   OG302     5  1.1010000e+02  6.3345760e+02  0.0000000e+00  0.0000000e+00
  CG331   CG301   OG311     5  1.1010000e+02  6.3345760e+02  0.0000000e+00  0.0000000e+00
  CG331   CG311   CG331     5  1.1400000e+02  4.4643280e+02  2.5610000e-01  6.6944000e+03
  CG331   CG311  CG3C41     5  1.1100000e+02  4.4643280e+02  0.0000000e+00  0.0000000e+00
  CG331   CG311  CG3RC1     5  1.0370000e+02  4.4643280e+02  2.5610000e-01  6.6944000e+03
  CG331   CG311   NG2S1     5  1.1350000e+02  5.8576000e+02  0.0000000e+00  0.0000000e+00
  CG331   CG311   OG302     5  1.1010000e+02  6.3345760e+02  0.0000000e+00  0.0000000e+00
  CG331   CG311   OG311     5  1.1010000e+02  6.3345760e+02  0.0000000e+00  0.0000000e+00
  CG331   CG321   CG331     5  1.1400000e+02  4.4643280e+02  2.5610000e-01  6.6944000e+03
  CG331   CG321    HGA2     5  1.1010000e+02  2.8953280e+02  2.1790000e-01  1.8853104e+04
  CG331   CG321   NG2S1     5  1.2000000e+02  5.8576000e+02  0.0000000e+00  0.0000000e+00
  CG331   CG321   OG302     5  1.1010000e+02  6.3345760e+02  0.0000000e+00  0.0000000e+00
  CG331   CG321   OG311     5  1.1010000e+02  6.3345760e+02  0.0000000e+00  0.0000000e+00
  CG331   CG331    HGA3     5  1.1010000e+02  3.1380000e+02  2.1790000e-01  1.8853104e+04
  CG331  CG3C41   CG331     5  1.1941730e+02  4.6325248e+02  0.0000000e+00  0.0000000e+00
  CG331  CG3C41  CG3C41     5  1.1736980e+02  3.9379808e+02  0.0000000e+00  0.0000000e+00
  CG331  CG3C41    HGA1     5  1.1370420e+02  2.9145744e+02  0.0000000e+00  0.0000000e+00
  CG331  CG3RC1  CG3RC1     5  1.1350000e+02  4.8827280e+02  2.5610000e-01  9.3386880e+03
  CG331  CG3RC1  OG3C51     5  1.1373540e+02  6.3236976e+02  0.0000000e+00  0.0000000e+00
  CG331   NG2S1    HGP1     5  1.1700000e+02  2.9288000e+02  0.0000000e+00  0.0000000e+00
  CG331   OG311    HGP1     5  1.0600000e+02  4.8116000e+02  0.0000000e+00  0.0000000e+00
 CG3C41   CG2O1   OG2D1     5  1.1800000e+02  6.6944000e+02  0.0000000e+00  0.0000000e+00
 CG3C41   CG2O2   OG2D1     5  1.2500000e+02  5.8576000e+02  2.4420000e-01  1.6736000e+04
 CG3C41   CG2O2   OG311     5  1.1050000e+02  4.6024000e+02  0.0000000e+00  0.0000000e+00
 CG3C41   CG301   OG311     5  1.1010000e+02  6.3345760e+02  0.0000000e+00  0.0000000e+00
 CG3C41   CG311    HGA1     5  1.0900000e+02  3.5145600e+02  0.0000000e+00  0.0000000e+00
 CG3C41   CG321    HGA2     5  1.0900000e+02  3.5145600e+02  0.0000000e+00  0.0000000e+00
 CG3C41   CG331    HGA3     5  1.1010000e+02  2.8953280e+02  2.1790000e-01  1.8853104e+04
 CG3C41  CG3C41  CG3C41     5  1.0600000e+02  5.8576000e+02  0.0000000e+00  0.0000000e+00
 CG3C41  CG3C41  CG3RC1     5  8.1672600e+01  6.6391712e+02  0.0000000e+00  0.0000000e+00
 CG3C41  CG3C41    HGA1     5  1.1050000e+02  3.8492800e+02  0.0000000e+00  0.0000000e+00
 CG3C41  CG3C41    HGA2     5  1.1050000e+02  3.8492800e+02  0.0000000e+00  0.0000000e+00
 CG3C41  CG3C41   NG2S1     5  1.1515880e+02  6.2617744e+02  0.0000000e+00  0.0000000e+00
 CG3C41  CG3C41   OG311     5  1.1247440e+02  5.8492320e+02  0.0000000e+00  0.0000000e+00
 CG3C41  CG3C41  OG3C51     5  9.9490000e+01  7.4475200e+02  0.0000000e+00  0.0000000e+00
 CG3C41  CG3RC1  CG3C41     5  7.2271500e+01  9.2056368e+02  0.0000000e+00  0.0000000e+00
 CG3C41  CG3RC1  CG3RC1     5  8.6903900e+01  5.0810496e+02  0.0000000e+00  0.0000000e+00
 CG3C41  CG3RC1    HGA1     5  1.1809970e+02  3.2852768e+02  0.0000000e+00  0.0000000e+00
 CG3C41  CG3RC1   OG302     5  1.1413000e+02  5.6818720e+02  0.0000000e+00  0.0000000e+00
 CG3C41   NG2S1    HGP1     5  1.1700000e+02  2.9288000e+02  0.0000000e+00  0.0000000e+00
 CG3C41   OG311    HGP1     5  1.0900000e+02  4.1840000e+02  0.0000000e+00  0.0000000e+00
 CG3C41  OG3C51  CG3C41     5  8.9120000e+01  4.6024000e+02  0.0000000e+00  0.0000000e+00
 CG3C41  OG3C51  CG3RC1     5  1.0636000e+02  6.7688752e+02  0.0000000e+00  0.0000000e+00
 CG3RC1   CG2O1   NG2S1     5  1.1650000e+02  6.6944000e+02  0.0000000e+00  0.0000000e+00
 CG3RC1   CG2O1   OG2D1     5  1.1800000e+02  6.6944000e+02  0.0000000e+00  0.0000000e+00
 CG3RC1   CG2O2   OG2D1     5  1.1513450e+02  5.0609664e+02  0.0000000e+00  0.0000000e+00
 CG3RC1   CG2O2   OG311     5  9.3765300e+01  4.0693584e+02  0.0000000e+00  0.0000000e+00
 CG3RC1   CG2O5  CG3RC1     5  1.0460250e+02  9.1144256e+02  0.0000000e+00  0.0000000e+00
 CG3RC1   CG2O5   OG2D3     5  1.1750660e+02  4.8601344e+02  0.0000000e+00  0.0000000e+00
 CG3RC1   CG301   OG311     5  1.1010000e+02  6.3345760e+02  0.0000000e+00  0.0000000e+00
 CG3RC1   CG311  CG3RC1     5  1.0024060e+02  8.3680000e+00  0.0000000e+00  0.0000000e+00
 CG3RC1   CG311    HGA1     5  1.1010000e+02  2.8869600e+02  2.1790000e-01  1.8853104e+04
 CG3RC1   CG311   OG311     5  1.1010000e+02  6.3345760e+02  0.0000000e+00  0.0000000e+00
 CG3RC1   CG321    HGA2     5  1.1010000e+02  2.8869600e+02  2.1790000e-01  1.8853104e+04
 CG3RC1   CG331    HGA3     5  1.1010000e+02  2.7974224e+02  2.1790000e-01  1.8853104e+04
 CG3RC1  CG3C41  CG3RC1     5  8.9740400e+01  3.3053600e+01  0.0000000e+00  0.0000000e+00
 CG3RC1  CG3C41    HGA1     5  1.1131370e+02  3.0944864e+02  0.0000000e+00  0.0000000e+00
 CG3RC1  CG3C41    HGA2     5  1.0948980e+02  3.4735568e+02  0.0000000e+00  0.0000000e+00
 CG3RC1  CG3C41  OG3C51     5  9.9490000e+01  7.4475200e+02  0.0000000e+00  0.0000000e+00
 CG3RC1  CG3RC1  CG3RC1     5  8.3080200e+01  6.4132352e+02  0.0000000e+00  0.0000000e+00
 CG3RC1  CG3RC1    HGA1     5  1.1010000e+02  2.8869600e+02  2.1790000e-01  1.8853104e+04
 CG3RC1  CG3RC1   OG302     5  1.0617000e+02  7.1169840e+02  0.0000000e+00  0.0000000e+00
 CG3RC1  CG3RC1   OG311     5  1.0463580e+02  5.2935968e+02  0.0000000e+00  0.0000000e+00
 CG3RC1  CG3RC1  OG3C51     5  1.0900000e+02  4.1840000e+02  0.0000000e+00  0.0000000e+00
 CG3RC1   NG2S1    HGP1     5  1.1700000e+02  2.9288000e+02  0.0000000e+00  0.0000000e+00
 CG3RC1   OG311    HGP1     5  1.0900000e+02  4.1840000e+02  0.0000000e+00  0.0000000e+00
   HGA2  CG3C41    HGA2     5  1.0500000e+02  2.3430400e+02  1.8067000e-01  4.5187200e+03
  NG2S1   CG2O1   OG2D1     5  1.2250000e+02  6.6944000e+02  0.0000000e+00  0.0000000e+00
  NG2S1   CG301   OG311     5  1.1105770e+02  7.4968912e+02  0.0000000e+00  0.0000000e+00
  NG2S1   CG311    HGA1     5  1.0800000e+02  4.0166400e+02  0.0000000e+00  0.0000000e+00
  NG2S1   CG311   NG2S1     5  1.1102670e+02  7.4458464e+02  0.0000000e+00  0.0000000e+00
  NG2S1   CG311   OG311     5  1.1350000e+02  5.8576000e+02  0.0000000e+00  0.0000000e+00
  NG2S1   CG321    HGA2     5  1.0950000e+02  4.3095200e+02  0.0000000e+00  0.0000000e+00
  NG2S1   CG331    HGA3     5  1.0950000e+02  4.3095200e+02  0.0000000e+00  0.0000000e+00
  NG2S1   NG2S1    HGP1     5  1.2200000e+02  2.8451200e+02  0.0000000e+00  0.0000000e+00
  NG2S1   OG311    HGP1     5  9.8890000e+01  5.4383632e+02  0.0000000e+00  0.0000000e+00
  OG2D1   CG2O2   OG302     5  1.2590000e+02  7.5312000e+02  2.2576000e-01  1.3388800e+05
  OG2D1   CG2O2   OG311     5  1.2300000e+02  4.1840000e+02  2.2620000e-01  1.7572800e+05
  OG302   CG311    HGA1     5  1.0950000e+02  5.0208000e+02  0.0000000e+00  0.0000000e+00
  OG302   CG311   OG311     5  1.1650000e+02  3.7656000e+02  0.0000000e+00  0.0000000e+00
  OG302   CG321    HGA2     5  1.0950000e+02  5.0208000e+02  0.0000000e+00  0.0000000e+00
  OG302   CG331    HGA3     5  1.0950000e+02  5.0208000e+02  0.0000000e+00  0.0000000e+00
  OG311   CG301   OG311     5  1.1650000e+02  3.7656000e+02  0.0000000e+00  0.0000000e+00
  OG311   CG311    HGA1     5  1.0889000e+02  3.8409120e+02  0.0000000e+00  0.0000000e+00
  OG311   CG311   OG311     5  1.1715000e+02  8.4098400e+02  0.0000000e+00  0.0000000e+00
  OG311   CG331    HGA3     5  1.0889000e+02  3.8409120e+02  0.0000000e+00  0.0000000e+00
  OG311  CG3RC1  OG3C51     5  1.0826730e+02  7.2190736e+02  0.0000000e+00  0.0000000e+00
  OG311   NG2S1    HGP1     5  9.8230000e+01  3.1380000e+02  0.0000000e+00  0.0000000e+00
 OG3C51  CG3C41    HGA2     5  1.1200000e+02  4.6024000e+02  0.0000000e+00  0.0000000e+00
 OG3C51  CG3RC1    HGA1     5  1.0600000e+02  4.6024000e+02  0.0000000e+00  0.0000000e+00
 OG3C51  CG3RC1  OG3C51     5  1.0500000e+02  5.8576000e+02  0.0000000e+00  0.0000000e+00

[ dihedraltypes ]
  CG2D1   CG2D1   CG301   CG301     9  1.800000e+02  2.092000e+00      1
  CG2D1   CG2D1   CG301   CG301     9  1.800000e+02  5.439200e+00      3
  CG2D1   CG2D1   CG301   CG311     9  1.800000e+02  2.092000e+00      1
  CG2D1   CG2D1   CG301   CG311     9  1.800000e+02  5.439200e+00      3
  CG2D1   CG2D1   CG301   CG321     9  1.800000e+02  2.092000e+00      1
  CG2D1   CG2D1   CG301   CG321     9  1.800000e+02  5.439200e+00      3
  CG2D1   CG2D1   CG301   CG331     9  1.800000e+02  2.092000e+00      1
  CG2D1   CG2D1   CG301   CG331     9  1.800000e+02  5.439200e+00      3
  CG2D1   CG2D1   CG301   OG311     9  0.000000e+00  1.255200e-01      2
  CG2D1   CG2D1   CG301   OG311     9  0.000000e+00  3.389040e+00      3
  CG2D1   CG2D1   CG301   OG311     9  1.800000e+02  0.000000e+00      1
  CG2D1   CG2D1   CG311   CG2D1     9  0.000000e+00  4.184000e-01      2
  CG2D1   CG2D1   CG311   CG2D1     9  1.800000e+02  1.255200e+00      3
  CG2D1   CG2D1   CG311   CG2D1     9  1.800000e+02  4.184000e+00      1
  CG2D1   CG2D1   CG311   CG2O1     9  0.000000e+00  4.811600e+00      1
  CG2D1   CG2D1   CG311   CG2O1     9  1.800000e+02  3.221680e+00      2
  CG2D1   CG2D1   CG311   CG2O1     9  1.800000e+02  3.807440e+00      3
  CG2D1   CG2D1   CG311   CG2O5     9  0.000000e+00  0.000000e+00      2
  CG2D1   CG2D1   CG311   CG2O5     9  0.000000e+00  8.368000e-02      1
  CG2D1   CG2D1   CG311   CG2O5     9  0.000000e+00  1.087840e+00      3
  CG2D1   CG2D1   CG311  CG2R61     9  0.000000e+00  1.506240e+00      1
  CG2D1   CG2D1   CG311  CG2R61     9  0.000000e+00  4.225840e+00      6
  CG2D1   CG2D1   CG311  CG2R61     9  1.800000e+02  1.004160e+00      3
  CG2D1   CG2D1   CG311  CG2R61     9  1.800000e+02  1.380720e+00      2
  CG2D1   CG2D1   CG311   CG311     9  1.800000e+02  2.510400e+00      1
  CG2D1   CG2D1   CG311   CG321     9  1.800000e+02  2.510400e+00      1
  CG2D1   CG2D1   CG311   CG331     9  1.800000e+02  2.510400e+00      1
  CG2D1   CG2D1   CG311    HGA1     9  1.800000e+02  1.255200e+00      3
  CG2D1   CG2D1   CG311   NG2S1     9  0.000000e+00  3.347200e-01      2
  CG2D1   CG2D1   CG311   NG2S1     9  0.000000e+00  1.577368e+01      3
  CG2D1   CG2D1   CG311   NG2S1     9  1.800000e+02  2.468560e+00      1
  CG2D1   CG2D1   CG311   OG302     9  0.000000e+00  8.368000e-02      2
  CG2D1   CG2D1   CG311   OG302     9  0.000000e+00  1.213360e+00      3
  CG2D1   CG2D1   CG311   OG302     9  1.800000e+02  5.439200e-01      6
  CG2D1   CG2D1   CG311   OG302     9  1.800000e+02  5.062640e+00      1
  CG2D1   CG2D1   CG311   OG311     9  1.800000e+02  1.673600e+00      2
  CG2D1   CG2D1   CG311   OG311     9  1.800000e+02  2.510400e+00      3
  CG2D1   CG2D1   CG311   OG311     9  1.800000e+02  7.949600e+00      1
  CG2D1   CG2D1   CG321   CG2D1     9  0.000000e+00  4.184000e-01      2
  CG2D1   CG2D1   CG321   CG2D1     9  0.000000e+00  8.368000e-01      4
  CG2D1   CG2D1   CG321   CG2D1     9  1.800000e+02  1.255200e+00      3
  CG2D1   CG2D1   CG321   CG2D1     9  1.800000e+02  4.184000e+00      1
  CG2D1   CG2D1   CG321   CG2O1     9  0.000000e+00  8.368000e-01      1
  CG2D1   CG2D1   CG321   CG2O1     9  0.000000e+00  1.464400e+00      3
  CG2D1   CG2D1   CG321   CG2O1     9  0.000000e+00  3.765600e+00      4
  CG2D1   CG2D1   CG321   CG2O1     9  1.800000e+02  6.276000e-01      2
  CG2D1   CG2D1   CG321   CG2O5     9  0.000000e+00  4.184000e-01      2
  CG2D1   CG2D1   CG321   CG2O5     9  0.000000e+00  7.112800e-01      2
  CG2D1   CG2D1   CG321   CG2O5     9  0.000000e+00  8.368000e-01      4
  CG2D1   CG2D1   CG321   CG2O5     9  0.000000e+00  1.171520e+00      6
  CG2D1   CG2D1   CG321   CG2O5     9  0.000000e+00  1.380720e+00      1
  CG2D1   CG2D1   CG321   CG2O5     9  0.000000e+00  3.723760e+00      4
  CG2D1   CG2D1   CG321   CG2O5     9  0.000000e+00  4.476880e+00      3
  CG2D1   CG2D1   CG321   CG2O5     9  1.800000e+02  1.255200e+00      3
  CG2D1   CG2D1   CG321   CG2O5     9  1.800000e+02  4.184000e+00      1
  CG2D1   CG2D1   CG321   CG301     9  1.800000e+02  2.092000e+00      1
  CG2D1   CG2D1   CG321   CG301     9  1.800000e+02  5.439200e+00      3
  CG2D1   CG2D1   CG321   CG311     9  1.800000e+02  2.092000e+00      1
  CG2D1   CG2D1   CG321   CG311     9  1.800000e+02  5.439200e+00      3
  CG2D1   CG2D1   CG321   CG321     9  1.800000e+02  2.510400e+00      1
  CG2D1   CG2D1   CG321   CG331     9  1.800000e+02  8.368000e-01      2
  CG2D1   CG2D1   CG321   CG331     9  1.800000e+02  3.765600e+00      1
  CG2D1   CG2D1   CG321  CG3RC1     9  1.800000e+02  0.000000e+00      1
  CG2D1   CG2D1   CG321  CG3RC1     9  1.800000e+02  7.363840e+00      2
  CG2D1   CG2D1   CG321    HGA2     9  1.800000e+02  1.255200e+00      3
  CG2D1   CG2D1   CG321   NG2S1     9  0.000000e+00  4.184000e-01      2
  CG2D1   CG2D1   CG321   NG2S1     9  0.000000e+00  8.368000e-01      4
  CG2D1   CG2D1   CG321   NG2S1     9  1.800000e+02  1.255200e+00      3
  CG2D1   CG2D1   CG321   NG2S1     9  1.800000e+02  4.184000e+00      1
  CG2D1   CG2D1   CG321   OG302     9  0.000000e+00  8.368000e-02      2
  CG2D1   CG2D1   CG321   OG302     9  0.000000e+00  1.213360e+00      3
  CG2D1   CG2D1   CG321   OG302     9  1.800000e+02  5.439200e-01      6
  CG2D1   CG2D1   CG321   OG302     9  1.800000e+02  1.673600e+00      2
  CG2D1   CG2D1   CG321   OG302     9  1.800000e+02  2.510400e+00      3
  CG2D1   CG2D1   CG321   OG302     9  1.800000e+02  5.062640e+00      1
  CG2D1   CG2D1   CG321   OG302     9  1.800000e+02  7.949600e+00      1
  CG2D1   CG2D1   CG321   OG311     9  1.800000e+02  1.673600e+00      2
  CG2D1   CG2D1   CG321   OG311     9  1.800000e+02  2.510400e+00      3
  CG2D1   CG2D1   CG321   OG311     9  1.800000e+02  7.949600e+00      1
  CG2D1   CG2D1   CG331    HGA3     9  1.800000e+02  1.255200e+00      3
  CG2D1   CG2D1  CG3RC1    HGA1     9  1.800000e+02  0.000000e+00      3
  CG2D1   CG301   CG301   CG301     9  0.000000e+00  8.368000e-01      3
  CG2D1   CG301   CG301   CG311     9  0.000000e+00  8.368000e-01      3
  CG2D1   CG301   CG301   CG321     9  0.000000e+00  8.368000e-01      3
  CG2D1   CG301   CG301   OG311     9  1.800000e+02  2.510400e-01      3
  CG2D1   CG301   CG311   CG311     9  0.000000e+00  8.368000e-01      3
  CG2D1   CG301   CG311   CG321     9  0.000000e+00  8.368000e-01      3
  CG2D1   CG301   CG311    HGA1     9  0.000000e+00  8.158800e-01      3
  CG2D1   CG301   CG321   CG2O1     9  0.000000e+00  5.606560e+00      3
  CG2D1   CG301   CG321   CG2O1     9  0.000000e+00  1.439296e+01      2
  CG2D1   CG301   CG321   CG2O5     9  0.000000e+00  3.012480e+00      3
  CG2D1   CG301   CG321   CG301     9  0.000000e+00  8.368000e-01      3
  CG2D1   CG301   CG321   CG311     9  0.000000e+00  8.368000e-01      3
  CG2D1   CG301   CG321   CG321     9  0.000000e+00  8.368000e-01      3
  CG2D1   CG301   CG321    HGA2     9  0.000000e+00  8.158800e-01      3
  CG2D1   CG301   CG331    HGA3     9  0.000000e+00  6.694400e-01      3
  CG2D1   CG301   OG311    HGP1     9  0.000000e+00  1.004160e+00      3
  CG2D1   CG301   OG311    HGP1     9  0.000000e+00  5.522880e+00      1
  CG2D1   CG301   OG311    HGP1     9  1.800000e+02  1.213360e+00      2
  CG2D1   CG311   CG311   CG2D1     9  1.800000e+02  1.255200e+00      3
  CG2D1   CG311   CG311   CG2D1     9  1.800000e+02  3.765600e+00      1
  CG2D1   CG311   CG311   CG311     9  0.000000e+00  8.368000e-01      3
  CG2D1   CG311   CG311   CG321     9  0.000000e+00  7.112800e-01      2
  CG2D1   CG311   CG311   CG321     9  1.800000e+02  2.092000e-01      3
  CG2D1   CG311   CG311   CG321     9  1.800000e+02  5.857600e-01      1
  CG2D1   CG311   CG311   CG331     9  0.000000e+00  7.112800e-01      2
  CG2D1   CG311   CG311   CG331     9  1.800000e+02  2.092000e-01      3
  CG2D1   CG311   CG311   CG331     9  1.800000e+02  5.857600e-01      1
  CG2D1   CG311   CG311    HGA1     9  0.000000e+00  8.368000e-01      3
  CG2D1   CG311   CG311   NG2S1     9  0.000000e+00  0.000000e+00      2
  CG2D1   CG311   CG311   NG2S1     9  0.000000e+00  1.251016e+01      3
  CG2D1   CG311   CG321   CG2D1     9  1.800000e+02  1.255200e+00      3
  CG2D1   CG311   CG321   CG2D1     9  1.800000e+02  3.765600e+00      1
  CG2D1   CG311   CG321   CG301     9  0.000000e+00  7.112800e-01      2
  CG2D1   CG311   CG321   CG301     9  1.800000e+02  2.092000e-01      3
  CG2D1   CG311   CG321   CG301     9  1.800000e+02  5.857600e-01      1
  CG2D1   CG311   CG321   CG311     9  0.000000e+00  7.112800e-01      2
  CG2D1   CG311   CG321   CG311     9  1.800000e+02  2.092000e-01      3
  CG2D1   CG311   CG321   CG311     9  1.800000e+02  5.857600e-01      1
  CG2D1   CG311   CG321   CG321     9  0.000000e+00  7.112800e-01      2
  CG2D1   CG311   CG321   CG321     9  1.800000e+02  2.092000e-01      3
  CG2D1   CG311   CG321   CG321     9  1.800000e+02  5.857600e-01      1
  CG2D1   CG311   CG321   CG331     9  0.000000e+00  7.112800e-01      2
  CG2D1   CG311   CG321   CG331     9  1.800000e+02  2.092000e-01      3
  CG2D1   CG311   CG321   CG331     9  1.800000e+02  5.857600e-01      1
  CG2D1   CG311   CG321    HGA2     9  0.000000e+00  8.158800e-01      3
  CG2D1   CG311   CG321   OG311     9  0.000000e+00  8.368000e-01      3
  CG2D1   CG311   CG331    HGA3     9  0.000000e+00  6.694400e-01      3
  CG2D1   CG311   NG2S1   CG2O1     9  0.000000e+00  1.297040e+00      6
  CG2D1   CG311   NG2S1   CG2O1     9  0.000000e+00  4.727920e+00      4
  CG2D1   CG311   NG2S1   CG2O1     9  0.000000e+00  5.104480e+00      3
  CG2D1   CG311   NG2S1   CG2O1     9  1.800000e+02  6.108640e+00      1
  CG2D1   CG311   NG2S1   CG2O1     9  1.800000e+02  7.322000e+00      2
  CG2D1   CG311   NG2S1    HGP1     9  0.000000e+00  1.882800e+00      1
  CG2D1   CG311   NG2S1    HGP1     9  1.800000e+02  6.192320e+00      2
  CG2D1   CG311   OG302   CG2O2     9  0.000000e+00  9.246640e+00      3
  CG2D1   CG311   OG302   CG2O2     9  1.800000e+02  1.154784e+01      2
  CG2D1   CG311   OG311    HGP1     9  0.000000e+00  5.857600e-01      3
  CG2D1   CG311   OG311    HGP1     9  0.000000e+00  2.928800e+00      2
  CG2D1   CG311   OG311    HGP1     9  0.000000e+00  5.439200e+00      1
  CG2D1   CG321   CG321   CG2D1     9  1.800000e+02  1.255200e+00      3
  CG2D1   CG321   CG321   CG2D1     9  1.800000e+02  3.765600e+00      1
  CG2D1   CG321   CG321   CG2O1     9  0.000000e+00  8.368000e-01      3
  CG2D1   CG321   CG321   CG301     9  0.000000e+00  7.112800e-01      2
  CG2D1   CG321   CG321   CG301     9  1.800000e+02  2.092000e-01      3
  CG2D1   CG321   CG321   CG301     9  1.800000e+02  5.857600e-01      1
  CG2D1   CG321   CG321   CG311     9  0.000000e+00  7.112800e-01      2
  CG2D1   CG321   CG321   CG311     9  1.800000e+02  2.092000e-01      3
  CG2D1   CG321   CG321   CG311     9  1.800000e+02  5.857600e-01      1
  CG2D1   CG321   CG321   CG321     9  0.000000e+00  7.112800e-01      2
  CG2D1   CG321   CG321   CG321     9  1.800000e+02  2.092000e-01      3
  CG2D1   CG321   CG321   CG321     9  1.800000e+02  5.857600e-01      1
  CG2D1   CG321   CG321   CG331     9  0.000000e+00  7.112800e-01      2
  CG2D1   CG321   CG321   CG331     9  1.800000e+02  2.092000e-01      3
  CG2D1   CG321   CG321   CG331     9  1.800000e+02  5.857600e-01      1
  CG2D1   CG321   CG321  CG3C41     9  0.000000e+00  7.112800e-01      2
  CG2D1   CG321   CG321  CG3C41     9  1.800000e+02  2.092000e-01      3
  CG2D1   CG321   CG321  CG3C41     9  1.800000e+02  5.857600e-01      1
  CG2D1   CG321   CG321    HGA2     9  0.000000e+00  8.158800e-01      3
  CG2D1   CG321   CG331    HGA3     9  0.000000e+00  6.694400e-01      3
  CG2D1   CG321  CG3RC1    HGA1     9  0.000000e+00  0.000000e+00      3
  CG2D1   CG321   NG2S1   CG2O1     9  0.000000e+00  6.276000e-02      1
  CG2D1   CG321   NG2S1   CG2O1     9  0.000000e+00  6.192320e-01      6
  CG2D1   CG321   NG2S1   CG2O1     9  0.000000e+00  1.246832e+00      2
  CG2D1   CG321   NG2S1   CG2O1     9  0.000000e+00  2.589896e+00      4
  CG2D1   CG321   NG2S1   CG2O1     9  1.800000e+02  3.179840e-01      3
  CG2D1   CG321   NG2S1    HGP1     9  0.000000e+00  0.000000e+00      1
  CG2D1   CG321   OG302   CG2O2     9  0.000000e+00  0.000000e+00      3
  CG2D1   CG321   OG302   CG2O2     9  0.000000e+00  9.246640e+00      3
  CG2D1   CG321   OG302   CG2O2     9  1.800000e+02  1.154784e+01      2
  CG2D1   CG321   OG311    HGP1     9  0.000000e+00  5.857600e-01      3
  CG2D1   CG321   OG311    HGP1     9  0.000000e+00  2.928800e+00      2
  CG2D1   CG321   OG311    HGP1     9  0.000000e+00  5.439200e+00      1
  CG2D1  CG3RC1  CG3RC1   CG2O1     9  1.800000e+02  5.857600e-01      3
  CG2D1  CG3RC1  CG3RC1   CG2O1     9  1.800000e+02  9.832400e+00      2
  CG2D1  CG3RC1  CG3RC1    HGA1     9  0.000000e+00  0.000000e+00      3
  CG2O1   CG2O1   NG2S1   CG321     9  0.000000e+00  1.046000e+00      2
  CG2O1   CG2O1   NG2S1   CG321     9  0.000000e+00  1.238464e+01      1
  CG2O1   CG2O1   NG2S1    HGP1     9  1.800000e+02  7.070960e+00      2
  CG2O1  CG2R61  CG2R61  CG2R61     9  1.800000e+02  1.297040e+01      2
  CG2O1  CG2R61  CG2R61   CG301     9  0.000000e+00  0.000000e+00      2
  CG2O1  CG2R61  CG2R61   CG311     9  1.800000e+02  4.016640e+00      2
  CG2O1  CG2R61  CG2R61   CG321     9  0.000000e+00  0.000000e+00      2
  CG2O1  CG2R61  CG2R61   CG331     9  1.800000e+02  1.138048e+01      2
  CG2O1  CG2R61  CG2R61   HGR61     9  1.800000e+02  1.004160e+01      2
  CG2O1  CG2R61  CG2R61   NG2S1     9  0.000000e+00  0.000000e+00      2
  CG2O1  CG2R61  CG2R61   OG311     9  1.800000e+02  1.631760e+00      2
  CG2O1   CG301   CG311   CG321     9  0.000000e+00  8.368000e-01      3
  CG2O1   CG301   CG311    HGA1     9  0.000000e+00  8.368000e-01      3
  CG2O1   CG301   CG321   CG311     9  0.000000e+00  8.368000e-01      3
  CG2O1   CG301   CG321   CG321     9  0.000000e+00  8.368000e-01      3
  CG2O1   CG301   CG321    HGA2     9  0.000000e+00  8.368000e-01      3
  CG2O1   CG301   CG331    HGA3     9  0.000000e+00  8.368000e-01      3
  CG2O1   CG301  CG3RC1    HGA1     9  0.000000e+00  0.000000e+00      3
  CG2O1   CG301   OG311    HGP1     9  0.000000e+00  1.464400e+00      1
  CG2O1   CG301   OG311    HGP1     9  0.000000e+00  1.548080e+00      2
  CG2O1   CG301   OG311    HGP1     9  1.800000e+02  4.184000e-02      3
  CG2O1   CG311   CG311   CG321     9  0.000000e+00  8.368000e-01      3
  CG2O1   CG311   CG311   CG331     9  0.000000e+00  8.368000e-01      3
  CG2O1   CG311   CG311    HGA1     9  0.000000e+00  8.368000e-01      3
  CG2O1   CG311   CG311   OG311     9  0.000000e+00  8.368000e-01      3
  CG2O1   CG311   CG321   CG2D1     9  0.000000e+00  8.368000e-01      3
  CG2O1   CG311   CG321   CG2O1     9  0.000000e+00  8.368000e-01      3
  CG2O1   CG311   CG321   CG2O5     9  0.000000e+00  8.368000e-01      3
  CG2O1   CG311   CG321  CG2R61     9  0.000000e+00  1.673600e-01      3
  CG2O1   CG311   CG321   CG301     9  0.000000e+00  8.368000e-01      3
  CG2O1   CG311   CG321   CG311     9  0.000000e+00  8.368000e-01      3
  CG2O1   CG311   CG321   CG321     9  0.000000e+00  8.368000e-01      3
  CG2O1   CG311   CG321   CG331     9  0.000000e+00  8.368000e-01      3
  CG2O1   CG311   CG321  CG3RC1     9  0.000000e+00  1.422560e+00      3
  CG2O1   CG311   CG321  CG3RC1     9  1.800000e+02  8.368000e-02      2
  CG2O1   CG311   CG321    HGA2     9  0.000000e+00  8.368000e-01      3
  CG2O1   CG311   CG321   NG2S1     9  0.000000e+00  8.368000e-01      3
  CG2O1   CG311   CG321   NG2S1     9  0.000000e+00  1.882800e+00      3
  CG2O1   CG311   CG321   OG311     9  0.000000e+00  8.368000e-01      3
  CG2O1   CG311   CG331    HGA3     9  0.000000e+00  8.368000e-01      3
  CG2O1   CG311   NG2S1   CG2O1     9  1.800000e+02  8.368000e-01      1
  CG2O1   CG311   NG2S1    HGP1     9  0.000000e+00  0.000000e+00      1
  CG2O1   CG311   OG302   CG2O2     9  0.000000e+00  0.000000e+00      3
  CG2O1   CG311   OG311    HGP1     9  0.000000e+00  1.464400e+00      1
  CG2O1   CG311   OG311    HGP1     9  0.000000e+00  1.548080e+00      2
  CG2O1   CG311   OG311    HGP1     9  1.800000e+02  4.184000e-02      3
  CG2O1   CG321   CG321   CG2O1     9  0.000000e+00  8.368000e-01      3
  CG2O1   CG321   CG321   CG2O5     9  0.000000e+00  8.368000e-01      3
  CG2O1   CG321   CG321  CG2R61     9  0.000000e+00  1.673600e-01      3
  CG2O1   CG321   CG321   CG301     9  0.000000e+00  8.158800e-01      3
  CG2O1   CG321   CG321   CG311     9  0.000000e+00  8.158800e-01      3
  CG2O1   CG321   CG321   CG321     9  0.000000e+00  8.158800e-01      3
  CG2O1   CG321   CG321   CG331     9  0.000000e+00  8.158800e-01      3
  CG2O1   CG321   CG321    HGA2     9  0.000000e+00  8.158800e-01      3
  CG2O1   CG321   CG321   NG2S1     9  0.000000e+00  8.368000e-01      3
  CG2O1   CG321   CG321   OG302     9  0.000000e+00  8.368000e-01      3
  CG2O1   CG321   CG321   OG311     9  0.000000e+00  8.368000e-01      3
  CG2O1   CG321   CG331    HGA3     9  0.000000e+00  6.694400e-01      3
  CG2O1   CG321   NG2S1   CG2O1     9  1.800000e+02  8.368000e-01      1
  CG2O1   CG321   NG2S1    HGP1     9  0.000000e+00  0.000000e+00      1
  CG2O1   CG321   OG302   CG2O2     9  0.000000e+00  0.000000e+00      3
  CG2O1   CG321   OG311    HGP1     9  0.000000e+00  1.464400e+00      1
  CG2O1   CG321   OG311    HGP1     9  0.000000e+00  1.548080e+00      2
  CG2O1   CG321   OG311    HGP1     9  1.800000e+02  4.184000e-02      3
  CG2O1  CG3C41  CG3C41  CG3C41     9  0.000000e+00  4.602400e-01      2
  CG2O1  CG3C41  CG3C41  CG3C41     9  0.000000e+00  6.108640e+00      3
  CG2O1  CG3C41  CG3C41  CG3C41     9  1.800000e+02  2.092000e+00      6
  CG2O1  CG3C41  CG3C41    HGA2     9  1.800000e+02  7.112800e-01      3
  CG2O1  CG3C41   NG2S1   CG2O1     9  0.000000e+00  8.828240e+00      3
  CG2O1  CG3C41   NG2S1    HGP1     9  0.000000e+00  1.673600e+00      2
  CG2O1  CG3C41   NG2S1    HGP1     9  1.800000e+02  1.518792e+01      1
  CG2O1  CG3RC1  CG3RC1   CG321     9  0.000000e+00  2.092000e-01      2
  CG2O1  CG3RC1  CG3RC1   CG321     9  1.800000e+02  5.355520e+00      3
  CG2O1  CG3RC1  CG3RC1    HGA1     9  0.000000e+00  0.000000e+00      3
  CG2O1   NG2S1   NG2S1   CG2O1     9  1.800000e+02  5.439200e+00      2
  CG2O1   NG2S1   NG2S1   CG2O1     9  1.800000e+02  1.422560e+01      1
  CG2O1   NG2S1   NG2S1    HGP1     9  1.800000e+02  6.652560e+00      2
  CG2O1   NG2S1   NG2S1    HGP1     9  1.800000e+02  1.046000e+01      2
  CG2O1   NG2S1   OG311    HGP1     9  0.000000e+00  3.445524e+00      2
  CG2O1   NG2S1   OG311    HGP1     9  0.000000e+00  8.773848e+00      1
  CG2O2  CG2R61  CG2R61   CG2O2     9  1.800000e+02  1.297040e+01      2
  CG2O2  CG2R61  CG2R61  CG2R61     9  1.800000e+02  1.297040e+01      2
  CG2O2  CG2R61  CG2R61   HGR61     9  1.800000e+02  1.004160e+01      2
  CG2O2  CG2R61  CG2R61   OG311     9  1.800000e+02  1.778200e+01      2
  CG2O2   CG301   CG311   CG321     9  0.000000e+00  8.368000e-01      3
  CG2O2   CG301   CG311   CG331     9  0.000000e+00  8.368000e-01      3
  CG2O2   CG301   CG311    HGA1     9  0.000000e+00  8.368000e-01      3
  CG2O2   CG301   CG321   CG2D1     9  0.000000e+00  8.368000e-01      3
  CG2O2   CG301   CG321   CG2O1     9  0.000000e+00  8.368000e-01      3
  CG2O2   CG301   CG321   CG2O5     9  0.000000e+00  8.368000e-01      3
  CG2O2   CG301   CG321   CG2O5     9  0.000000e+00  9.623200e-01      4
  CG2O2   CG301   CG321   CG2O5     9  1.800000e+02  7.112800e-01      3
  CG2O2   CG301   CG321   CG301     9  0.000000e+00  8.368000e-01      3
  CG2O2   CG301   CG321   CG311     9  0.000000e+00  8.368000e-01      3
  CG2O2   CG301   CG321   CG321     9  0.000000e+00  8.368000e-01      3
  CG2O2   CG301   CG321   CG331     9  0.000000e+00  8.368000e-01      3
  CG2O2   CG301   CG321    HGA2     9  0.000000e+00  8.368000e-01      3
  CG2O2   CG301   CG321   NG2S1     9  0.000000e+00  8.368000e-01      3
  CG2O2   CG301   CG321   OG311     9  0.000000e+00  8.368000e-01      3
  CG2O2   CG301   CG331    HGA3     9  0.000000e+00  8.368000e-01      3
  CG2O2   CG301   NG2S1   CG2O1     9  1.800000e+02  8.368000e-01      1
  CG2O2   CG301   NG2S1    HGP1     9  0.000000e+00  0.000000e+00      1
  CG2O2   CG301   OG302   CG2O2     9  0.000000e+00  0.000000e+00      3
  CG2O2   CG301   OG311    HGP1     9  0.000000e+00  1.464400e+00      1
  CG2O2   CG301   OG311    HGP1     9  0.000000e+00  1.548080e+00      2
  CG2O2   CG301   OG311    HGP1     9  1.800000e+02  4.184000e-02      3
  CG2O2   CG311   CG311  CG2R61     9  0.000000e+00  1.673600e-01      3
  CG2O2   CG311   CG311   CG321     9  0.000000e+00  8.368000e-01      3
  CG2O2   CG311   CG311   CG331     9  0.000000e+00  8.368000e-01      3
  CG2O2   CG311   CG311    HGA1     9  0.000000e+00  8.368000e-01      3
  CG2O2   CG311   CG311   NG2S1     9  0.000000e+00  1.882800e+00      3
  CG2O2   CG311   CG311   OG311     9  0.000000e+00  8.368000e-01      3
  CG2O2   CG311   CG321   CG2D1     9  0.000000e+00  8.368000e-01      3
  CG2O2   CG311   CG321   CG2O1     9  0.000000e+00  8.368000e-01      3
  CG2O2   CG311   CG321   CG2O2     9  0.000000e+00  8.368000e-01      3
  CG2O2   CG311   CG321   CG2O5     9  0.000000e+00  8.368000e-01      3
  CG2O2   CG311   CG321  CG2R61     9  0.000000e+00  1.673600e-01      3
  CG2O2   CG311   CG321   CG301     9  0.000000e+00  8.368000e-01      3
  CG2O2   CG311   CG321   CG311     9  0.000000e+00  8.368000e-01      3
  CG2O2   CG311   CG321   CG321     9  0.000000e+00  8.368000e-01      3
  CG2O2   CG311   CG321   CG331     9  0.000000e+00  8.368000e-01      3
  CG2O2   CG311   CG321  CG3RC1     9  0.000000e+00  2.343040e+00      3
  CG2O2   CG311   CG321  CG3RC1     9  1.800000e+02  4.978960e+00      2
  CG2O2   CG311   CG321    HGA2     9  0.000000e+00  8.368000e-01      3
  CG2O2   CG311   CG321   NG2S1     9  0.000000e+00  8.368000e-01      3
  CG2O2   CG311   CG321   OG311     9  0.000000e+00  8.368000e-01      3
  CG2O2   CG311   CG331    HGA3     9  0.000000e+00  8.368000e-01      3
  CG2O2   CG311  CG3RC1    HGA1     9  0.000000e+00  0.000000e+00      3
  CG2O2   CG311   NG2S1   CG2O1     9  1.800000e+02  8.368000e-01      1
  CG2O2   CG311   NG2S1    HGP1     9  0.000000e+00  0.000000e+00      1
  CG2O2   CG311   OG302   CG2O2     9  0.000000e+00  0.000000e+00      3
  CG2O2   CG311   OG311    HGP1     9  0.000000e+00  1.464400e+00      3
  CG2O2   CG311   OG311    HGP1     9  1.800000e+02  1.589920e+00      2
  CG2O2   CG311   OG311    HGP1     9  1.800000e+02  3.556400e+00      1
  CG2O2   CG321   CG321   CG2O5     9  0.000000e+00  8.368000e-01      3
  CG2O2   CG321   CG321   CG301     9  0.000000e+00  8.158800e-01      3
  CG2O2   CG321   CG321   CG311     9  0.000000e+00  8.158800e-01      3
  CG2O2   CG321   CG321   CG321     9  0.000000e+00  4.602400e-01      4
  CG2O2   CG321   CG321   CG321     9  0.000000e+00  1.631760e+00      2
  CG2O2   CG321   CG321   CG321     9  1.800000e+02  3.765600e-01      6
  CG2O2   CG321   CG321   CG321     9  1.800000e+02  8.786400e-01      1
  CG2O2   CG321   CG321   CG321     9  1.800000e+02  1.464400e+00      3
  CG2O2   CG321   CG321   CG331     9  0.000000e+00  4.602400e-01      4
  CG2O2   CG321   CG321   CG331     9  0.000000e+00  1.631760e+00      2
  CG2O2   CG321   CG321   CG331     9  1.800000e+02  3.765600e-01      6
  CG2O2   CG321   CG321   CG331     9  1.800000e+02  8.786400e-01      1
  CG2O2   CG321   CG321   CG331     9  1.800000e+02  1.464400e+00      3
  CG2O2   CG321   CG321    HGA2     9  0.000000e+00  8.158800e-01      3
  CG2O2   CG321   CG321   NG2S1     9  0.000000e+00  8.368000e-01      3
  CG2O2   CG321   CG321   OG311     9  0.000000e+00  8.368000e-01      3
  CG2O2   CG321   CG331    HGA3     9  0.000000e+00  6.694400e-01      3
  CG2O2   CG321   NG2S1   CG2O1     9  1.800000e+02  8.368000e-01      1
  CG2O2   CG321   NG2S1    HGP1     9  0.000000e+00  0.000000e+00      1
  CG2O2  CG3C41  CG3C41  CG3RC1     9  0.000000e+00  1.673600e+00      3
  CG2O2  CG3C41  CG3C41  CG3RC1     9  1.800000e+02  2.928800e+00      6
  CG2O2  CG3C41  CG3C41    HGA2     9  1.800000e+02  7.112800e-01      3
  CG2O2  CG3C41  CG3RC1   CG321     9  0.000000e+00  1.857696e+01      6
  CG2O2  CG3C41  CG3RC1   CG321     9  1.800000e+02  6.276000e-01      3
  CG2O2  CG3C41  CG3RC1  CG3RC1     9  1.800000e+02  7.280160e+00      6
  CG2O2  CG3C41  CG3RC1  CG3RC1     9  1.800000e+02  1.702888e+01      3
  CG2O2  CG3C41  CG3RC1    HGA1     9  1.800000e+02  0.000000e+00      3
  CG2O2  CG3RC1   NG2S1   CG2O1     9  0.000000e+00  8.368000e-02      2
  CG2O2  CG3RC1   NG2S1   CG2O1     9  1.800000e+02  1.924640e+00      3
  CG2O2  CG3RC1   NG2S1    HGP1     9  0.000000e+00  1.255200e-01      2
  CG2O2  CG3RC1   NG2S1    HGP1     9  0.000000e+00  7.280160e+00      1
  CG2O5   CG2O5   CG311   CG321     9  0.000000e+00  4.184000e-02      1
  CG2O5   CG2O5   CG311   CG321     9  0.000000e+00  8.368000e-02      2
  CG2O5   CG2O5   CG311   CG321     9  0.000000e+00  2.928800e-01      3
  CG2O5   CG2O5   CG311   CG321     9  1.800000e+02  1.380720e+00      4
  CG2O5   CG2O5   CG311   CG331     9  0.000000e+00  3.765600e-01      4
  CG2O5   CG2O5   CG311   CG331     9  0.000000e+00  2.384880e+00      1
  CG2O5   CG2O5   CG311   CG331     9  0.000000e+00  2.803280e+00      2
  CG2O5   CG2O5   CG311   CG331     9  1.800000e+02  9.623200e-01      3
  CG2O5   CG2O5   CG311    HGA1     9  1.800000e+02  0.000000e+00      3
  CG2O5   CG2O5   CG321   CG301     9  0.000000e+00  8.326160e+00      2
  CG2O5   CG2O5   CG321   CG301     9  1.800000e+02  1.840960e+00      3
  CG2O5   CG2O5   CG321   CG301     9  1.800000e+02  3.347200e+00      1
  CG2O5   CG2O5   CG321   CG321     9  0.000000e+00  1.673600e+00      1
  CG2O5   CG2O5   CG321   CG321     9  1.800000e+02  4.184000e-01      6
  CG2O5   CG2O5   CG321   CG321     9  1.800000e+02  5.439200e-01      3
  CG2O5   CG2O5   CG321   CG321     9  1.800000e+02  7.112800e-01      2
  CG2O5   CG2O5   CG321   CG331     9  0.000000e+00  1.673600e+00      1
  CG2O5   CG2O5   CG321   CG331     9  1.800000e+02  4.184000e-01      6
  CG2O5   CG2O5   CG321   CG331     9  1.800000e+02  5.439200e-01      3
  CG2O5   CG2O5   CG321   CG331     9  1.800000e+02  7.112800e-01      2
  CG2O5   CG2O5   CG321    HGA2     9  0.000000e+00  4.184000e-01      3
  CG2O5   CG2O5   CG321    HGA2     9  1.800000e+02  0.000000e+00      3
  CG2O5   CG2O5  CG3RC1  CG3RC1     9  0.000000e+00  2.510400e-01      3
  CG2O5   CG2O5  CG3RC1  CG3RC1     9  0.000000e+00  5.020800e-01      2
  CG2O5   CG2O5  CG3RC1  CG3RC1     9  1.800000e+02  2.133840e+00      1
  CG2O5   CG2O5  CG3RC1    HGA1     9  1.800000e+02  4.184000e-02      3
  CG2O5  CG2R61  CG2R61   CG2O5     9  1.800000e+02  1.297040e+01      2
  CG2O5  CG2R61  CG2R61  CG2R61     9  1.800000e+02  1.297040e+01      2
  CG2O5  CG2R61  CG2R61   CG311     9  0.000000e+00  0.000000e+00      2
  CG2O5  CG2R61  CG2R61   CG321     9  1.800000e+02  7.698560e+00      2
  CG2O5  CG2R61  CG2R61   CG331     9  1.800000e+02  1.230096e+01      2
  CG2O5  CG2R61  CG2R61   HGR61     9  1.800000e+02  1.004160e+01      2
  CG2O5  CG2R61  CG2R61   NG2S1     9  1.800000e+02  5.397360e+00      2
  CG2O5  CG2R61  CG2R61   OG311     9  1.800000e+02  7.824080e+00      2
  CG2O5   CG301   CG311   CG311     9  0.000000e+00  8.368000e-01      3
  CG2O5   CG301   CG311   CG321     9  0.000000e+00  8.368000e-01      3
  CG2O5   CG301   CG311  CG3RC1     9  0.000000e+00  3.765600e-01      2
  CG2O5   CG301   CG311  CG3RC1     9  1.800000e+02  2.217520e+00      3
  CG2O5   CG301   CG311    HGA1     9  0.000000e+00  8.368000e-01      3
  CG2O5   CG301   CG311   OG311     9  0.000000e+00  8.368000e-01      3
  CG2O5   CG301   CG321   CG2D1     9  0.000000e+00  2.008320e+00      3
  CG2O5   CG301   CG321   CG2D1     9  0.000000e+00  1.163152e+01      4
  CG2O5   CG301   CG321   CG301     9  0.000000e+00  8.368000e-01      3
  CG2O5   CG301   CG321   CG301     9  1.800000e+02  8.786400e-01      6
  CG2O5   CG301   CG321   CG301     9  1.800000e+02  1.602472e+01      3
  CG2O5   CG301   CG321   CG311     9  0.000000e+00  8.368000e-01      3
  CG2O5   CG301   CG321   CG311     9  0.000000e+00  9.204800e-01      3
  CG2O5   CG301   CG321   CG321     9  0.000000e+00  8.368000e-01      3
  CG2O5   CG301   CG321   CG321     9  0.000000e+00  2.468560e+00      4
  CG2O5   CG301   CG321   CG321     9  1.800000e+02  1.799120e+00      3
  CG2O5   CG301   CG321   CG331     9  1.800000e+02  6.861760e+00      3
  CG2O5   CG301   CG321    HGA2     9  0.000000e+00  8.368000e-01      3
  CG2O5   CG301   CG331    HGA3     9  0.000000e+00  8.368000e-01      3
  CG2O5   CG301   OG311    HGP1     9  0.000000e+00  1.464400e+00      1
  CG2O5   CG301   OG311    HGP1     9  0.000000e+00  1.548080e+00      2
  CG2O5   CG301   OG311    HGP1     9  1.800000e+02  4.184000e-02      3
  CG2O5   CG311   CG311   CG321     9  0.000000e+00  8.368000e-01      3
  CG2O5   CG311   CG311   CG331     9  0.000000e+00  8.368000e-01      3
  CG2O5   CG311   CG311    HGA1     9  0.000000e+00  8.368000e-01      3
  CG2O5   CG311   CG321   CG2D1     9  0.000000e+00  8.368000e-01      3
  CG2O5   CG311   CG321   CG2O1     9  0.000000e+00  8.368000e-01      3
  CG2O5   CG311   CG321   CG2O5     9  0.000000e+00  8.368000e-01      3
  CG2O5   CG311   CG321   CG301     9  0.000000e+00  8.368000e-01      3
  CG2O5   CG311   CG321   CG311     9  0.000000e+00  8.368000e-01      3
  CG2O5   CG311   CG321   CG321     9  0.000000e+00  8.368000e-01      3
  CG2O5   CG311   CG321   CG331     9  0.000000e+00  8.368000e-01      3
  CG2O5   CG311   CG321  CG3RC1     9  0.000000e+00  3.765600e-01      2
  CG2O5   CG311   CG321  CG3RC1     9  1.800000e+02  2.217520e+00      3
  CG2O5   CG311   CG321    HGA2     9  0.000000e+00  8.368000e-01      3
  CG2O5   CG311   CG321   NG2S1     9  0.000000e+00  8.368000e-01      3
  CG2O5   CG311   CG321   NG2S1     9  0.000000e+00  1.882800e+00      3
  CG2O5   CG311   CG321   OG302     9  0.000000e+00  8.368000e-01      3
  CG2O5   CG311   CG321   OG311     9  0.000000e+00  8.368000e-01      3
  CG2O5   CG311   CG331    HGA3     9  0.000000e+00  8.368000e-01      3
  CG2O5   CG311   NG2S1   CG2O1     9  1.800000e+02  8.368000e-01      1
  CG2O5   CG311   NG2S1    HGP1     9  0.000000e+00  0.000000e+00      1
  CG2O5   CG311   OG302   CG2O2     9  0.000000e+00  0.000000e+00      3
  CG2O5   CG311   OG302   CG2O2     9  0.000000e+00  4.738380e+00      3
  CG2O5   CG311   OG311    HGP1     9  0.000000e+00  1.464400e+00      1
  CG2O5   CG311   OG311    HGP1     9  0.000000e+00  1.548080e+00      2
  CG2O5   CG311   OG311    HGP1     9  1.800000e+02  4.184000e-02      3
  CG2O5   CG321   CG321   CG2O5     9  0.000000e+00  8.368000e-01      3
  CG2O5   CG321   CG321  CG2R61     9  0.000000e+00  1.673600e-01      3
  CG2O5   CG321   CG321   CG301     9  0.000000e+00  4.602400e-01      4
  CG2O5   CG321   CG321   CG301     9  0.000000e+00  1.631760e+00      2
  CG2O5   CG321   CG321   CG301     9  1.800000e+02  3.765600e-01      6
  CG2O5   CG321   CG321   CG301     9  1.800000e+02  8.786400e-01      1
  CG2O5   CG321   CG321   CG301     9  1.800000e+02  1.464400e+00      3
  CG2O5   CG321   CG321   CG311     9  0.000000e+00  4.602400e-01      4
  CG2O5   CG321   CG321   CG311     9  0.000000e+00  1.631760e+00      2
  CG2O5   CG321   CG321   CG311     9  1.800000e+02  3.765600e-01      6
  CG2O5   CG321   CG321   CG311     9  1.800000e+02  8.786400e-01      1
  CG2O5   CG321   CG321   CG311     9  1.800000e+02  1.464400e+00      3
  CG2O5   CG321   CG321   CG321     9  0.000000e+00  4.602400e-01      4
  CG2O5   CG321   CG321   CG321     9  0.000000e+00  1.631760e+00      2
  CG2O5   CG321   CG321   CG321     9  1.800000e+02  3.765600e-01      6
  CG2O5   CG321   CG321   CG321     9  1.800000e+02  8.786400e-01      1
  CG2O5   CG321   CG321   CG321     9  1.800000e+02  1.464400e+00      3
  CG2O5   CG321   CG321   CG331     9  0.000000e+00  4.602400e-01      4
  CG2O5   CG321   CG321   CG331     9  0.000000e+00  1.631760e+00      2
  CG2O5   CG321   CG321   CG331     9  1.800000e+02  3.765600e-01      6
  CG2O5   CG321   CG321   CG331     9  1.800000e+02  8.786400e-01      1
  CG2O5   CG321   CG321   CG331     9  1.800000e+02  1.464400e+00      3
  CG2O5   CG321   CG321    HGA2     9  0.000000e+00  8.158800e-01      3
  CG2O5   CG321   CG321   NG2S1     9  0.000000e+00  8.368000e-01      3
  CG2O5   CG321   CG321   OG302     9  0.000000e+00  8.368000e-01      3
  CG2O5   CG321   CG321   OG311     9  0.000000e+00  8.368000e-01      3
  CG2O5   CG321   CG331    HGA3     9  0.000000e+00  6.694400e-01      3
  CG2O5   CG321  CG3RC1  CG3RC1     9  1.800000e+02  2.133840e+00      3
  CG2O5   CG321  CG3RC1    HGA1     9  0.000000e+00  0.000000e+00      3
  CG2O5  CG3RC1  CG3RC1   CG321     9  0.000000e+00  0.000000e+00      2
  CG2O5  CG3RC1  CG3RC1   CG321     9  1.800000e+02  2.008320e+00      3
  CG2O5  CG3RC1  CG3RC1   CG331     9  0.000000e+00  8.368000e-02      2
  CG2O5  CG3RC1  CG3RC1   CG331     9  0.000000e+00  4.058480e+00      3
  CG2O5  CG3RC1  CG3RC1  CG3RC1     9  0.000000e+00  6.276000e-01      3
  CG2O5  CG3RC1  CG3RC1    HGA1     9  0.000000e+00  0.000000e+00      3
  CG2O5  CG3RC1  CG3RC1  OG3C51     9  0.000000e+00  3.347200e-01      2
  CG2O5  CG3RC1  CG3RC1  OG3C51     9  1.800000e+02  1.372352e+01      3
 CG2R61   CG2O1   NG2S1  CG2R61     9  0.000000e+00  0.000000e+00      2
 CG2R61   CG2O1   NG2S1  CG2R61     9  1.800000e+02  8.368000e-01      1
 CG2R61   CG2O1   NG2S1   CG301     9  0.000000e+00  6.694400e+00      1
 CG2R61   CG2O1   NG2S1   CG301     9  1.800000e+02  1.673600e+01      2
 CG2R61   CG2O1   NG2S1   CG311     9  0.000000e+00  6.694400e+00      1
 CG2R61   CG2O1   NG2S1   CG311     9  1.800000e+02  1.673600e+01      2
 CG2R61   CG2O1   NG2S1   CG321     9  0.000000e+00  6.694400e+00      1
 CG2R61   CG2O1   NG2S1   CG321     9  1.800000e+02  1.673600e+01      2
 CG2R61   CG2O1   NG2S1    HGP1     9  1.800000e+02  1.046000e+01      2
 CG2R61   CG2O1   NG2S1   NG2S1     9  0.000000e+00  3.138000e+00      1
 CG2R61   CG2O1   NG2S1   NG2S1     9  1.800000e+02  1.255200e+01      2
 CG2R61   CG2O2   OG302   CG2O2     9  1.800000e+02  2.092000e-01      6
 CG2R61   CG2O2   OG302   CG2O2     9  1.800000e+02  5.230000e+00      1
 CG2R61   CG2O2   OG302   CG2O2     9  1.800000e+02  6.276000e+00      2
 CG2R61   CG2O2   OG302   CG301     9  1.800000e+02  2.092000e-01      6
 CG2R61   CG2O2   OG302   CG301     9  1.800000e+02  5.230000e+00      1
 CG2R61   CG2O2   OG302   CG301     9  1.800000e+02  6.276000e+00      2
 CG2R61   CG2O2   OG302   CG311     9  1.800000e+02  2.092000e-01      6
 CG2R61   CG2O2   OG302   CG311     9  1.800000e+02  5.230000e+00      1
 CG2R61   CG2O2   OG302   CG311     9  1.800000e+02  6.276000e+00      2
 CG2R61   CG2O2   OG302   CG321     9  1.800000e+02  2.092000e-01      6
 CG2R61   CG2O2   OG302   CG321     9  1.800000e+02  5.230000e+00      1
 CG2R61   CG2O2   OG302   CG321     9  1.800000e+02  6.276000e+00      2
 CG2R61   CG2O2   OG302   CG331     9  1.800000e+02  2.092000e-01      6
 CG2R61   CG2O2   OG302   CG331     9  1.800000e+02  5.230000e+00      1
 CG2R61   CG2O2   OG302   CG331     9  1.800000e+02  6.276000e+00      2
 CG2R61   CG2O2   OG311    HGP1     9  1.800000e+02  2.092000e-01      3
 CG2R61   CG2O2   OG311    HGP1     9  1.800000e+02  1.046000e+00      6
 CG2R61   CG2O2   OG311    HGP1     9  1.800000e+02  4.079400e+00      1
 CG2R61   CG2O2   OG311    HGP1     9  1.800000e+02  1.129680e+01      2
 CG2R61   CG2O5  CG2R61  CG2R61     9  1.800000e+02  3.792796e+00      2
 CG2R61   CG2O5   CG311   CG2O1     9  0.000000e+00  1.213360e+00      6
 CG2R61   CG2O5   CG311   CG2O1     9  0.000000e+00  1.631760e+00      4
 CG2R61   CG2O5   CG311   CG2O1     9  0.000000e+00  2.092000e+00      3
 CG2R61   CG2O5   CG311   CG2O1     9  0.000000e+00  4.644240e+00      2
 CG2R61   CG2O5   CG311   CG2O1     9  0.000000e+00  8.116960e+00      1
 CG2R61   CG2O5   CG311   CG331     9  0.000000e+00  1.673600e+00      1
 CG2R61   CG2O5   CG311   CG331     9  1.800000e+02  4.184000e-01      6
 CG2R61   CG2O5   CG311   CG331     9  1.800000e+02  5.439200e-01      3
 CG2R61   CG2O5   CG311   CG331     9  1.800000e+02  7.112800e-01      2
 CG2R61   CG2O5   CG311    HGA1     9  1.800000e+02  0.000000e+00      1
 CG2R61   CG2O5   CG311   OG311     9  1.800000e+02  0.000000e+00      2
 CG2R61   CG2O5   CG321   CG311     9  0.000000e+00  1.673600e+00      1
 CG2R61   CG2O5   CG321   CG311     9  1.800000e+02  4.184000e-01      6
 CG2R61   CG2O5   CG321   CG311     9  1.800000e+02  5.439200e-01      3
 CG2R61   CG2O5   CG321   CG311     9  1.800000e+02  7.112800e-01      2
 CG2R61   CG2O5   CG321   CG321     9  0.000000e+00  1.673600e+00      1
 CG2R61   CG2O5   CG321   CG321     9  1.800000e+02  4.184000e-01      6
 CG2R61   CG2O5   CG321   CG321     9  1.800000e+02  5.439200e-01      3
 CG2R61   CG2O5   CG321   CG321     9  1.800000e+02  7.112800e-01      2
 CG2R61   CG2O5   CG321   CG331     9  0.000000e+00  1.673600e+00      1
 CG2R61   CG2O5   CG321   CG331     9  1.800000e+02  4.184000e-01      6
 CG2R61   CG2O5   CG321   CG331     9  1.800000e+02  5.439200e-01      3
 CG2R61   CG2O5   CG321   CG331     9  1.800000e+02  7.112800e-01      2
 CG2R61   CG2O5   CG321    HGA2     9  0.000000e+00  4.184000e-01      3
 CG2R61   CG2O5   CG331    HGA3     9  0.000000e+00  4.184000e-01      3
 CG2R61   CG2O5  CG3RC1  CG3RC1     9  0.000000e+00  3.347200e-01      2
 CG2R61   CG2O5  CG3RC1  CG3RC1     9  0.000000e+00  1.380720e+00      3
 CG2R61   CG2O5  CG3RC1  CG3RC1     9  0.000000e+00  1.840960e+00      1
 CG2R61   CG2O5  CG3RC1  CG3RC1     9  1.800000e+02  3.765600e-01      6
 CG2R61   CG2O5  CG3RC1    HGA1     9  0.000000e+00  0.000000e+00      3
 CG2R61  CG2R61  CG2R61   CG301     9  1.800000e+02  1.297040e+01      2
 CG2R61  CG2R61  CG2R61   CG311     9  1.800000e+02  1.297040e+01      2
 CG2R61  CG2R61  CG2R61   CG321     9  1.800000e+02  1.297040e+01      2
 CG2R61  CG2R61  CG2R61   CG331     9  1.800000e+02  1.297040e+01      2
 CG2R61  CG2R61  CG2R61  CG3C41     9  1.800000e+02  1.297040e+01      2
 CG2R61  CG2R61  CG2R61  CG3RC1     9  1.800000e+02  1.849328e+01      2
 CG2R61  CG2R61  CG2R61   NG2S1     9  1.800000e+02  1.297040e+01      2
 CG2R61  CG2R61  CG2R61   OG302     9  1.800000e+02  1.297040e+01      2
 CG2R61  CG2R61  CG2R61   OG311     9  1.800000e+02  1.297040e+01      2
 CG2R61  CG2R61   CG301   CG301     9  1.800000e+02  9.623200e-01      2
 CG2R61  CG2R61   CG301   CG321     9  1.800000e+02  9.623200e-01      2
 CG2R61  CG2R61   CG301   CG331     9  1.800000e+02  9.623200e-01      2
 CG2R61  CG2R61   CG301   NG2S1     9  0.000000e+00  4.184000e-02      4
 CG2R61  CG2R61   CG301   NG2S1     9  0.000000e+00  7.531200e-01      2
 CG2R61  CG2R61   CG301   NG2S1     9  0.000000e+00  2.677760e+00      6
 CG2R61  CG2R61   CG301   OG311     9  1.800000e+02  2.928800e+00      2
 CG2R61  CG2R61   CG311   CG2D1     9  0.000000e+00  1.673600e-01      2
 CG2R61  CG2R61   CG311   CG2D1     9  1.800000e+02  1.464400e+00      6
 CG2R61  CG2R61   CG311   CG2O1     9  0.000000e+00  8.368000e-01      2
 CG2R61  CG2R61   CG311   CG2O2     9  0.000000e+00  8.368000e-01      2
 CG2R61  CG2R61   CG311   CG2O5     9  0.000000e+00  8.368000e-01      2
 CG2R61  CG2R61   CG311   CG2O5     9  1.800000e+02  9.623200e-01      2
 CG2R61  CG2R61   CG311  CG2R61     9  1.800000e+02  9.623200e-01      2
 CG2R61  CG2R61   CG311   CG301     9  1.800000e+02  9.623200e-01      2
 CG2R61  CG2R61   CG311   CG311     9  1.800000e+02  9.623200e-01      2
 CG2R61  CG2R61   CG311   CG321     9  1.800000e+02  9.623200e-01      2
 CG2R61  CG2R61   CG311   CG331     9  1.800000e+02  9.623200e-01      2
 CG2R61  CG2R61   CG311  CG3RC1     9  0.000000e+00  1.840960e+00      4
 CG2R61  CG2R61   CG311  CG3RC1     9  0.000000e+00  6.359680e+00      2
 CG2R61  CG2R61   CG311    HGA1     9  1.800000e+02  4.184000e-01      6
 CG2R61  CG2R61   CG311   NG2S1     9  0.000000e+00  4.978960e-01      2
 CG2R61  CG2R61   CG311   NG2S1     9  0.000000e+00  5.020800e-01      2
 CG2R61  CG2R61   CG311   NG2S1     9  1.800000e+02  4.184000e-02      6
 CG2R61  CG2R61   CG311   NG2S1     9  1.800000e+02  5.439200e-02      6
 CG2R61  CG2R61   CG311   NG2S1     9  1.800000e+02  5.439200e-01      4
 CG2R61  CG2R61   CG311   NG2S1     9  1.800000e+02  5.522880e-01      4
 CG2R61  CG2R61   CG311   OG302     9  0.000000e+00  0.000000e+00      2
 CG2R61  CG2R61   CG311   OG311     9  1.800000e+02  2.928800e+00      2
 CG2R61  CG2R61   CG321   CG2O1     9  0.000000e+00  4.184000e-01      2
 CG2R61  CG2R61   CG321   CG2O2     9  0.000000e+00  4.184000e-01      2
 CG2R61  CG2R61   CG321  CG2R61     9  1.800000e+02  9.623200e-01      2
 CG2R61  CG2R61   CG321   CG301     9  1.800000e+02  9.623200e-01      2
 CG2R61  CG2R61   CG321   CG311     9  1.800000e+02  9.623200e-01      2
 CG2R61  CG2R61   CG321   CG321     9  1.800000e+02  9.623200e-01      2
 CG2R61  CG2R61   CG321   CG331     9  1.800000e+02  9.623200e-01      2
 CG2R61  CG2R61   CG321    HGA2     9  0.000000e+00  8.368000e-03      6
 CG2R61  CG2R61   CG321   NG2S1     9  0.000000e+00  4.978960e-01      2
 CG2R61  CG2R61   CG321   NG2S1     9  1.800000e+02  5.439200e-02      6
 CG2R61  CG2R61   CG321   NG2S1     9  1.800000e+02  5.522880e-01      4
 CG2R61  CG2R61   CG321   OG302     9  0.000000e+00  0.000000e+00      2
 CG2R61  CG2R61   CG321   OG311     9  0.000000e+00  0.000000e+00      2
 CG2R61  CG2R61   CG331    HGA3     9  0.000000e+00  8.368000e-03      6
 CG2R61  CG2R61  CG3C41   CG321     9  0.000000e+00  1.422560e+00      4
 CG2R61  CG2R61  CG3C41   CG321     9  1.800000e+02  2.510400e-01      2
 CG2R61  CG2R61  CG3C41  CG3C41     9  0.000000e+00  6.276000e-01      4
 CG2R61  CG2R61  CG3C41  CG3C41     9  0.000000e+00  7.656720e+00      2
 CG2R61  CG2R61  CG3C41    HGA1     9  0.000000e+00  0.000000e+00      3
 CG2R61  CG2R61  CG3C41   OG311     9  1.800000e+02  1.673600e+00      4
 CG2R61  CG2R61  CG3C41   OG311     9  1.800000e+02  4.769760e+00      2
 CG2R61  CG2R61  CG3RC1  CG3RC1     9  0.000000e+00  2.928800e-01      2
 CG2R61  CG2R61  CG3RC1    HGA1     9  0.000000e+00  0.000000e+00      6
 CG2R61  CG2R61   NG2S1   CG2O1     9  1.800000e+02  5.020800e+00      2
 CG2R61  CG2R61   NG2S1    HGP1     9  1.800000e+02  2.092000e+00      2
 CG2R61  CG2R61   OG302   CG2O2     9  0.000000e+00  1.255200e+00      4
 CG2R61  CG2R61   OG302   CG2O2     9  1.800000e+02  3.347200e+00      2
 CG2R61  CG2R61   OG311    HGP1     9  1.800000e+02  4.142160e+00      2
 CG2R61   CG301   CG301  CG2R61     9  0.000000e+00  7.949600e-01      3
 CG2R61   CG301   CG301   CG331     9  0.000000e+00  1.715440e+00      3
 CG2R61   CG301   CG301   OG311     9  1.800000e+02  0.000000e+00      3
 CG2R61   CG301   CG321   CG301     9  0.000000e+00  8.368000e-02      2
 CG2R61   CG301   CG321   CG301     9  0.000000e+00  1.673600e-01      3
 CG2R61   CG301   CG321   CG301     9  1.800000e+02  4.895280e+00      3
 CG2R61   CG301   CG321   CG311     9  1.800000e+02  1.673600e-01      2
 CG2R61   CG301   CG321   CG311     9  1.800000e+02  2.928800e-01      3
 CG2R61   CG301   CG321   CG321     9  0.000000e+00  1.221728e+01      3
 CG2R61   CG301   CG321    HGA2     9  0.000000e+00  1.673600e-01      3
 CG2R61   CG301   CG321   NG2S1     9  0.000000e+00  1.840960e+00      3
 CG2R61   CG301   CG321   NG2S1     9  0.000000e+00  2.886960e+00      2
 CG2R61   CG301   CG331    HGA3     9  0.000000e+00  1.673600e-01      3
 CG2R61   CG301   NG2S1   CG2O1     9  0.000000e+00  8.786400e-01      1
 CG2R61   CG301   NG2S1   CG2O1     9  0.000000e+00  5.271840e+00      2
 CG2R61   CG301   NG2S1   CG2O1     9  1.800000e+02  9.204800e-01      3
 CG2R61   CG301   NG2S1   CG2O1     9  1.800000e+02  1.255200e+00      6
 CG2R61   CG301   NG2S1   CG2O1     9  1.800000e+02  4.978960e+00      4
 CG2R61   CG301   NG2S1    HGP1     9  0.000000e+00  0.000000e+00      2
 CG2R61   CG301   NG2S1    HGP1     9  1.800000e+02  9.832400e+00      1
 CG2R61   CG301   OG311    HGP1     9  0.000000e+00  2.259360e+00      2
 CG2R61   CG301   OG311    HGP1     9  0.000000e+00  3.221680e+00      3
 CG2R61   CG301   OG311    HGP1     9  0.000000e+00  4.518720e+00      1
 CG2R61   CG311   CG311   CG321     9  0.000000e+00  1.673600e-01      3
 CG2R61   CG311   CG311   CG331     9  0.000000e+00  1.673600e-01      3
 CG2R61   CG311   CG311    HGA1     9  0.000000e+00  0.000000e+00      3
 CG2R61   CG311   CG311   OG311     9  1.800000e+02  5.020800e-01      3
 CG2R61   CG311   CG321   CG2D1     9  0.000000e+00  1.673600e-01      3
 CG2R61   CG311   CG321   CG2O1     9  0.000000e+00  1.673600e-01      3
 CG2R61   CG311   CG321   CG2O5     9  0.000000e+00  1.673600e-01      3
 CG2R61   CG311   CG321  CG2R61     9  0.000000e+00  4.309520e+00      3
 CG2R61   CG311   CG321   CG301     9  0.000000e+00  1.673600e-01      3
 CG2R61   CG311   CG321   CG311     9  0.000000e+00  1.673600e-01      3
 CG2R61   CG311   CG321   CG321     9  0.000000e+00  1.673600e-01      3
 CG2R61   CG311   CG321   CG331     9  0.000000e+00  1.673600e-01      3
 CG2R61   CG311   CG321    HGA2     9  0.000000e+00  0.000000e+00      3
 CG2R61   CG311   CG321   NG2S1     9  0.000000e+00  7.949600e-01      3
 CG2R61   CG311   CG321   OG311     9  0.000000e+00  8.368000e-01      3
 CG2R61   CG311   CG321   OG311     9  0.000000e+00  7.154640e+00      3
 CG2R61   CG311   CG331    HGA3     9  0.000000e+00  1.673600e-01      3
 CG2R61   CG311  CG3RC1  CG3C41     9  1.800000e+02  4.225840e+00      4
 CG2R61   CG311  CG3RC1  CG3C41     9  1.800000e+02  1.188256e+01      3
 CG2R61   CG311  CG3RC1  CG3RC1     9  0.000000e+00  2.803280e+00      2
 CG2R61   CG311  CG3RC1  CG3RC1     9  1.800000e+02  3.681920e+00      3
 CG2R61   CG311  CG3RC1    HGA1     9  0.000000e+00  0.000000e+00      3
 CG2R61   CG311   NG2S1   CG2O1     9  0.000000e+00  6.276000e-02      1
 CG2R61   CG311   NG2S1   CG2O1     9  0.000000e+00  6.192320e-01      6
 CG2R61   CG311   NG2S1   CG2O1     9  0.000000e+00  1.246832e+00      2
 CG2R61   CG311   NG2S1   CG2O1     9  0.000000e+00  2.589896e+00      4
 CG2R61   CG311   NG2S1   CG2O1     9  1.800000e+02  3.179840e-01      3
 CG2R61   CG311   NG2S1    HGP1     9  0.000000e+00  0.000000e+00      1
 CG2R61   CG311   OG302   CG2O2     9  0.000000e+00  0.000000e+00      3
 CG2R61   CG311   OG311    HGP1     9  0.000000e+00  2.259360e+00      2
 CG2R61   CG311   OG311    HGP1     9  0.000000e+00  3.221680e+00      3
 CG2R61   CG311   OG311    HGP1     9  0.000000e+00  4.518720e+00      1
 CG2R61   CG321   CG321  CG2R61     9  0.000000e+00  2.803280e+00      3
 CG2R61   CG321   CG321  CG2R61     9  0.000000e+00  3.891120e+00      2
 CG2R61   CG321   CG321   CG301     9  0.000000e+00  1.673600e-01      3
 CG2R61   CG321   CG321   CG311     9  0.000000e+00  1.673600e-01      3
 CG2R61   CG321   CG321   CG321     9  0.000000e+00  1.673600e-01      3
 CG2R61   CG321   CG321   CG331     9  0.000000e+00  1.673600e-01      3
 CG2R61   CG321   CG321  CG3C41     9  0.000000e+00  1.673600e-01      3
 CG2R61   CG321   CG321    HGA2     9  0.000000e+00  1.673600e-01      3
 CG2R61   CG321   CG321   NG2S1     9  0.000000e+00  7.949600e-01      3
 CG2R61   CG321   CG321   OG311     9  0.000000e+00  8.368000e-01      3
 CG2R61   CG321   CG331    HGA3     9  0.000000e+00  1.673600e-01      3
 CG2R61   CG321   NG2S1   CG2O1     9  0.000000e+00  6.276000e-02      1
 CG2R61   CG321   NG2S1   CG2O1     9  0.000000e+00  6.192320e-01      6
 CG2R61   CG321   NG2S1   CG2O1     9  0.000000e+00  1.246832e+00      2
 CG2R61   CG321   NG2S1   CG2O1     9  0.000000e+00  2.589896e+00      4
 CG2R61   CG321   NG2S1   CG2O1     9  1.800000e+02  3.179840e-01      3
 CG2R61   CG321   NG2S1    HGP1     9  0.000000e+00  0.000000e+00      1
 CG2R61   CG321   OG302   CG2O2     9  0.000000e+00  0.000000e+00      3
 CG2R61   CG321   OG311    HGP1     9  0.000000e+00  3.096160e+00      3
 CG2R61   CG321   OG311    HGP1     9  0.000000e+00  5.857600e+00      2
 CG2R61   CG321   OG311    HGP1     9  0.000000e+00  8.786400e+00      1
 CG2R61  CG3C41  CG3C41  CG3C41     9  0.000000e+00  1.673600e-01      2
 CG2R61  CG3C41  CG3C41  CG3C41     9  0.000000e+00  1.171520e+00      3
 CG2R61  CG3C41  CG3C41  CG3C41     9  1.800000e+02  1.715440e+00      6
 CG2R61  CG3C41  CG3C41    HGA2     9  1.800000e+02  0.000000e+00      3
 CG2R61  CG3C41  CG3C41  OG3C51     9  0.000000e+00  1.673600e-01      3
 CG2R61  CG3C41  CG3C41  OG3C51     9  1.800000e+02  2.928800e-01      2
 CG2R61  CG3C41   OG311    HGP1     9  0.000000e+00  8.368000e-02      6
 CG2R61  CG3C41   OG311    HGP1     9  0.000000e+00  1.464400e+00      3
 CG2R61  CG3C41   OG311    HGP1     9  1.800000e+02  0.000000e+00      1
 CG2R61  CG3C41   OG311    HGP1     9  1.800000e+02  4.644240e+00      2
 CG2R61  CG3RC1  CG3RC1  CG2R61     9  0.000000e+00  0.000000e+00      3
 CG2R61  CG3RC1  CG3RC1  CG2R61     9  1.800000e+02  0.000000e+00      2
 CG2R61  CG3RC1  CG3RC1   CG331     9  1.800000e+02  8.368000e-02      2
 CG2R61  CG3RC1  CG3RC1   CG331     9  1.800000e+02  4.058480e+00      3
 CG2R61  CG3RC1  CG3RC1  CG3RC1     9  1.800000e+02  0.000000e+00      3
 CG2R61  CG3RC1  CG3RC1  CG3RC1     9  1.800000e+02  1.251016e+01      6
 CG2R61  CG3RC1  CG3RC1    HGA1     9  0.000000e+00  0.000000e+00      3
  CG301   CG2D1   CG2D1   CG311     9  1.800000e+02  1.882800e+00      1
  CG301   CG2D1   CG2D1   CG311     9  1.800000e+02  3.556400e+01      2
  CG301   CG2D1   CG2D1   CG321     9  1.800000e+02  1.882800e+00      1
  CG301   CG2D1   CG2D1   CG321     9  1.800000e+02  3.556400e+01      2
  CG301   CG2D1   CG2D1   CG331     9  1.800000e+02  4.184000e+01      2
  CG301   CG2D1   CG311   CG2O5     9  0.000000e+00  8.368000e-01      2
  CG301   CG2D1   CG311   CG2O5     9  0.000000e+00  1.184072e+01      3
  CG301   CG2D1   CG311    HGA1     9  0.000000e+00  1.255200e-01      3
  CG301   CG2D1   CG311   OG302     9  1.800000e+02  9.623200e-01      3
  CG301   CG2D1   CG311   OG302     9  1.800000e+02  1.046000e+00      1
  CG301   CG2D1   CG311   OG302     9  1.800000e+02  2.175680e+00      2
  CG301   CG2D1   CG321   CG311     9  1.800000e+02  1.255200e+00      3
  CG301   CG2D1   CG321   CG321     9  1.800000e+02  1.255200e+00      3
  CG301   CG2D1   CG321    HGA2     9  0.000000e+00  1.255200e-01      3
  CG301   CG2D1   CG331    HGA3     9  0.000000e+00  6.694400e-01      3
  CG301   CG2O1   NG2S1   CG2O1     9  1.800000e+02  3.096160e+00      2
  CG301   CG2O1   NG2S1   CG321     9  0.000000e+00  6.694400e+00      1
  CG301   CG2O1   NG2S1   CG321     9  1.800000e+02  1.046000e+01      2
  CG301   CG2O1   NG2S1  CG3RC1     9  0.000000e+00  6.694400e+00      1
  CG301   CG2O1   NG2S1  CG3RC1     9  1.800000e+02  1.046000e+01      2
  CG301   CG2O1   NG2S1    HGP1     9  1.800000e+02  1.046000e+01      2
  CG301   CG2O2   OG302   CG331     9  1.800000e+02  8.577200e+00      2
  CG301   CG2O2   OG311    HGP1     9  1.800000e+02  8.577200e+00      2
  CG301   CG2O5   CG301   CG321     9  0.000000e+00  9.204800e-01      6
  CG301   CG2O5   CG301   CG321     9  0.000000e+00  3.221680e+00      3
  CG301   CG2O5   CG301   CG321     9  1.800000e+02  5.020800e-01      1
  CG301   CG2O5   CG301   CG321     9  1.800000e+02  5.857600e-01      2
  CG301   CG2O5   CG301   CG331     9  0.000000e+00  5.020800e-01      3
  CG301   CG2O5   CG301   CG331     9  0.000000e+00  1.338880e+00      2
  CG301   CG2O5   CG301   CG331     9  0.000000e+00  3.430880e+00      6
  CG301   CG2O5   CG301   CG331     9  0.000000e+00  4.560560e+00      1
  CG301   CG2O5   CG311   CG2D1     9  0.000000e+00  8.368000e-01      1
  CG301   CG2O5   CG311   CG2D1     9  0.000000e+00  1.213360e+00      2
  CG301   CG2O5   CG311   CG2D1     9  0.000000e+00  2.845120e+00      6
  CG301   CG2O5   CG311   CG2D1     9  1.800000e+02  3.472720e+00      3
  CG301   CG2O5   CG311   CG321     9  0.000000e+00  1.255200e-01      6
  CG301   CG2O5   CG311   CG321     9  0.000000e+00  2.928800e-01      3
  CG301   CG2O5   CG311   CG321     9  0.000000e+00  3.138000e+00      1
  CG301   CG2O5   CG311   CG321     9  1.800000e+02  7.531200e-01      2
  CG301   CG2O5   CG311    HGA1     9  0.000000e+00  4.184000e-01      3
  CG301   CG2O5   CG311   OG302     9  0.000000e+00  1.129680e+00      6
  CG301   CG2O5   CG311   OG302     9  0.000000e+00  3.305360e+00      2
  CG301   CG2O5   CG311   OG302     9  1.800000e+02  2.092000e-01      1
  CG301   CG2O5   CG311   OG302     9  1.800000e+02  6.694400e-01      3
  CG301   CG2O5   CG311   OG302     9  1.800000e+02  3.012480e+00      4
  CG301   CG2O5   CG321   CG321     9  0.000000e+00  1.255200e-01      6
  CG301   CG2O5   CG321   CG321     9  0.000000e+00  2.719600e-01      3
  CG301   CG2O5   CG321   CG321     9  0.000000e+00  2.928800e-01      3
  CG301   CG2O5   CG321   CG321     9  0.000000e+00  3.138000e+00      1
  CG301   CG2O5   CG321   CG321     9  1.800000e+02  7.531200e-01      2
  CG301   CG2O5   CG321   CG331     9  0.000000e+00  1.255200e-01      6
  CG301   CG2O5   CG321   CG331     9  0.000000e+00  2.719600e-01      3
  CG301   CG2O5   CG321   CG331     9  0.000000e+00  3.138000e+00      1
  CG301   CG2O5   CG321   CG331     9  1.800000e+02  7.531200e-01      2
  CG301   CG2O5   CG321    HGA2     9  0.000000e+00  4.184000e-01      3
  CG301   CG2O5   CG331    HGA3     9  0.000000e+00  4.184000e-01      3
  CG301  CG2R61  CG2R61   CG301     9  1.800000e+02  1.255200e+01      2
  CG301  CG2R61  CG2R61   CG321     9  1.800000e+02  1.004160e+01      2
  CG301  CG2R61  CG2R61   CG331     9  1.800000e+02  1.004160e+01      2
  CG301  CG2R61  CG2R61   HGR61     9  1.800000e+02  1.004160e+01      2
  CG301   CG301   CG301   CG321     9  0.000000e+00  8.368000e-01      3
  CG301   CG301   CG301   CG331     9  0.000000e+00  8.368000e-01      3
  CG301   CG301   CG311   CG301     9  0.000000e+00  8.368000e-01      3
  CG301   CG301   CG311   CG311     9  0.000000e+00  8.368000e-01      3
  CG301   CG301   CG311   CG321     9  0.000000e+00  8.368000e-01      3
  CG301   CG301   CG311  CG3RC1     9  0.000000e+00  8.368000e-01      3
  CG301   CG301   CG311    HGA1     9  0.000000e+00  8.158800e-01      3
  CG301   CG301   CG311   OG302     9  1.800000e+02  8.368000e-01      3
  CG301   CG301   CG321   CG2D1     9  0.000000e+00  8.368000e-01      3
  CG301   CG301   CG321   CG311     9  0.000000e+00  8.368000e-01      3
  CG301   CG301   CG321   CG321     9  0.000000e+00  8.368000e-01      3
  CG301   CG301   CG321    HGA2     9  0.000000e+00  8.158800e-01      3
  CG301   CG301   CG321    HGA2     9  0.000000e+00  8.368000e-01      3
  CG301   CG301   CG331    HGA3     9  0.000000e+00  6.694400e-01      3
  CG301   CG301   OG311    HGP1     9  0.000000e+00  5.857600e-01      2
  CG301   CG301   OG311    HGP1     9  0.000000e+00  1.004160e+00      3
  CG301   CG301   OG311    HGP1     9  0.000000e+00  4.727920e+00      1
  CG301   CG311   CG311   CG301     9  0.000000e+00  8.368000e-01      3
  CG301   CG311   CG311   CG311     9  0.000000e+00  8.368000e-01      3
  CG301   CG311   CG311   CG321     9  0.000000e+00  8.368000e-01      3
  CG301   CG311   CG311  CG3RC1     9  0.000000e+00  8.368000e-01      3
  CG301   CG311   CG311    HGA1     9  0.000000e+00  8.158800e-01      3
  CG301   CG311   CG311   OG302     9  0.000000e+00  1.631760e+00      2
  CG301   CG311   CG311   OG302     9  1.800000e+02  6.694400e-01      1
  CG301   CG311   CG311   OG311     9  0.000000e+00  5.857600e-01      3
  CG301   CG311   CG321   CG311     9  0.000000e+00  8.368000e-01      3
  CG301   CG311   CG321   CG321     9  0.000000e+00  8.368000e-01      3
  CG301   CG311   CG321  CG3RC1     9  0.000000e+00  8.368000e-01      3
  CG301   CG311   CG321    HGA2     9  0.000000e+00  8.158800e-01      3
  CG301   CG311   CG321   NG2S1     9  0.000000e+00  8.368000e-01      3
  CG301   CG311   CG321   OG311     9  1.800000e+02  8.368000e-01      3
  CG301   CG311   CG331    HGA3     9  0.000000e+00  8.368000e-01      3
  CG301   CG311  CG3RC1   CG331     9  0.000000e+00  2.092000e-01      3
  CG301   CG311  CG3RC1  CG3C41     9  0.000000e+00  2.092000e-01      6
  CG301   CG311  CG3RC1  CG3C41     9  0.000000e+00  5.773920e+00      3
  CG301   CG311  CG3RC1  CG3C41     9  1.800000e+02  1.213360e+00      4
  CG301   CG311  CG3RC1  CG3RC1     9  0.000000e+00  6.276000e-01      3
  CG301   CG311  CG3RC1   OG302     9  0.000000e+00  1.129680e+00      4
  CG301   CG311  CG3RC1   OG302     9  1.800000e+02  6.276000e-01      3
  CG301   CG311   OG302   CG2O2     9  1.800000e+02  2.928800e+00      1
  CG301   CG311   OG311    HGP1     9  0.000000e+00  7.531200e-01      2
  CG301   CG311   OG311    HGP1     9  0.000000e+00  1.924640e+00      3
  CG301   CG311   OG311    HGP1     9  0.000000e+00  5.564720e+00      1
  CG301   CG321   CG321   CG311     9  0.000000e+00  8.368000e-01      3
  CG301   CG321   CG321   CG321     9  0.000000e+00  8.158800e-01      3
  CG301   CG321   CG321   CG331     9  0.000000e+00  8.158800e-01      3
  CG301   CG321   CG321  CG3RC1     9  0.000000e+00  6.276000e-01      3
  CG301   CG321   CG321    HGA2     9  0.000000e+00  8.158800e-01      3
  CG301   CG321   CG321   NG2S1     9  0.000000e+00  8.368000e-01      3
  CG301   CG321   CG321   OG302     9  0.000000e+00  8.158800e-01      3
  CG301   CG321   CG321   OG311     9  0.000000e+00  8.158800e-01      3
  CG301   CG321   CG331    HGA3     9  0.000000e+00  6.694400e-01      3
  CG301   CG321  CG3RC1   CG321     9  0.000000e+00  8.368000e-01      3
  CG301   CG321  CG3RC1   CG331     9  0.000000e+00  8.368000e-01      3
  CG301   CG321  CG3RC1  CG3RC1     9  0.000000e+00  6.276000e-01      3
  CG301   CG321  CG3RC1    HGA1     9  0.000000e+00  6.276000e-01      3
  CG301   CG321   NG2S1   CG2O1     9  0.000000e+00  7.531200e+00      1
  CG301   CG321   NG2S1    HGP1     9  0.000000e+00  0.000000e+00      1
  CG301   CG321   OG311    HGP1     9  0.000000e+00  5.857600e-01      2
  CG301   CG321   OG311    HGP1     9  0.000000e+00  1.004160e+00      3
  CG301   CG321   OG311    HGP1     9  0.000000e+00  4.727920e+00      1
  CG301  CG3C41  CG3C41  CG3C41     9  0.000000e+00  2.552240e+00      3
  CG301  CG3C41  CG3C41  CG3C41     9  1.800000e+02  3.514560e+00      6
  CG301  CG3C41  CG3C41    HGA2     9  0.000000e+00  0.000000e+00      3
  CG301  CG3RC1  CG3RC1   CG321     9  0.000000e+00  1.673600e+01      3
  CG301  CG3RC1  CG3RC1   CG331     9  0.000000e+00  6.694400e-01      3
  CG301  CG3RC1  CG3RC1    HGA1     9  0.000000e+00  6.276000e-01      3
  CG301  CG3RC1  CG3RC1  OG3C51     9  0.000000e+00  1.380720e+00      2
  CG301  CG3RC1  CG3RC1  OG3C51     9  1.800000e+02  1.389088e+01      3
  CG311   CG2D1   CG2D1   CG311     9  1.800000e+02  1.882800e+00      1
  CG311   CG2D1   CG2D1   CG311     9  1.800000e+02  3.556400e+01      2
  CG311   CG2D1   CG2D1   CG321     9  1.800000e+02  1.882800e+00      1
  CG311   CG2D1   CG2D1   CG321     9  1.800000e+02  3.556400e+01      2
  CG311   CG2D1   CG2D1   CG331     9  1.800000e+02  1.882800e+00      1
  CG311   CG2D1   CG2D1   CG331     9  1.800000e+02  3.556400e+01      2
  CG311   CG2D1   CG301   CG301     9  1.800000e+02  0.000000e+00      3
  CG311   CG2D1   CG301   CG331     9  1.800000e+02  0.000000e+00      3
  CG311   CG2D1   CG311  CG2R61     9  0.000000e+00  0.000000e+00      2
  CG311   CG2D1   CG311  CG2R61     9  0.000000e+00  3.179840e+00      3
  CG311   CG2D1   CG311   CG321     9  0.000000e+00  7.949600e-01      3
  CG311   CG2D1   CG311   CG331     9  0.000000e+00  7.949600e-01      3
  CG311   CG2D1   CG311    HGA1     9  0.000000e+00  1.255200e-01      3
  CG311   CG2D1   CG311   OG311     9  1.800000e+02  9.623200e-01      3
  CG311   CG2D1   CG311   OG311     9  1.800000e+02  1.046000e+00      1
  CG311   CG2D1   CG311   OG311     9  1.800000e+02  2.175680e+00      2
  CG311   CG2D1   CG321   CG2O1     9  0.000000e+00  1.882800e+00      2
  CG311   CG2D1   CG321   CG2O1     9  0.000000e+00  2.677760e+00      3
  CG311   CG2D1   CG321   CG321     9  0.000000e+00  7.949600e-01      3
  CG311   CG2D1   CG321    HGA2     9  0.000000e+00  1.255200e-01      3
  CG311   CG2D1   CG331    HGA3     9  0.000000e+00  6.694400e-01      3
  CG311   CG2O1   NG2S1  CG2R61     9  0.000000e+00  6.694400e+00      1
  CG311   CG2O1   NG2S1  CG2R61     9  1.800000e+02  1.046000e+01      2
  CG311   CG2O1   NG2S1   CG301     9  0.000000e+00  6.694400e+00      1
  CG311   CG2O1   NG2S1   CG301     9  1.800000e+02  1.046000e+01      2
  CG311   CG2O1   NG2S1   CG311     9  0.000000e+00  6.694400e+00      1
  CG311   CG2O1   NG2S1   CG311     9  1.800000e+02  1.046000e+01      2
  CG311   CG2O1   NG2S1   CG321     9  0.000000e+00  6.694400e+00      1
  CG311   CG2O1   NG2S1   CG321     9  1.800000e+02  1.046000e+01      2
  CG311   CG2O1   NG2S1   CG331     9  0.000000e+00  6.694400e+00      1
  CG311   CG2O1   NG2S1   CG331     9  1.800000e+02  1.046000e+01      2
  CG311   CG2O1   NG2S1    HGP1     9  1.800000e+02  1.046000e+01      2
  CG311   CG2O2   OG302   CG301     9  1.800000e+02  8.577200e+00      2
  CG311   CG2O2   OG302   CG311     9  1.800000e+02  8.577200e+00      2
  CG311   CG2O2   OG302   CG321     9  1.800000e+02  8.577200e+00      2
  CG311   CG2O2   OG302   CG331     9  1.800000e+02  8.577200e+00      2
  CG311   CG2O2   OG311    HGP1     9  1.800000e+02  8.577200e+00      2
  CG311   CG2O5   CG2O5   CG321     9  0.000000e+00  1.255200e-01      2
  CG311   CG2O5   CG2O5   CG321     9  0.000000e+00  8.368000e-01      4
  CG311   CG2O5   CG2O5   OG2D3     9  0.000000e+00  4.184000e-02      4
  CG311   CG2O5   CG2O5   OG2D3     9  1.800000e+02  8.116960e+00      2
  CG311   CG2O5  CG2R61  CG2R61     9  1.800000e+02  6.631640e+00      2
  CG311   CG2O5   CG301   CG311     9  0.000000e+00  1.338880e+00      3
  CG311   CG2O5   CG301   CG311     9  0.000000e+00  3.179840e+00      6
  CG311   CG2O5   CG301   CG311     9  1.800000e+02  0.000000e+00      1
  CG311   CG2O5   CG301   CG311     9  1.800000e+02  1.046000e+00      2
  CG311   CG2O5   CG301   CG321     9  0.000000e+00  1.338880e+00      3
  CG311   CG2O5   CG301   CG321     9  0.000000e+00  3.179840e+00      6
  CG311   CG2O5   CG301   CG321     9  1.800000e+02  0.000000e+00      1
  CG311   CG2O5   CG301   CG321     9  1.800000e+02  1.046000e+00      2
  CG311   CG2O5   CG301   CG331     9  0.000000e+00  4.184000e-02      6
  CG311   CG2O5   CG301   CG331     9  0.000000e+00  1.255200e-01      1
  CG311   CG2O5   CG301   CG331     9  0.000000e+00  1.338880e+00      4
  CG311   CG2O5   CG301   CG331     9  1.800000e+02  3.347200e-01      2
  CG311   CG2O5   CG301   CG331     9  1.800000e+02  1.422560e+00      3
  CG311   CG2O5   CG311   CG2D1     9  0.000000e+00  8.368000e-01      1
  CG311   CG2O5   CG311   CG2D1     9  0.000000e+00  1.213360e+00      2
  CG311   CG2O5   CG311   CG2D1     9  0.000000e+00  2.845120e+00      6
  CG311   CG2O5   CG311   CG2D1     9  1.800000e+02  3.472720e+00      3
  CG311   CG2O5   CG311   CG311     9  0.000000e+00  1.255200e-01      6
  CG311   CG2O5   CG311   CG311     9  0.000000e+00  2.928800e-01      3
  CG311   CG2O5   CG311   CG311     9  0.000000e+00  3.138000e+00      1
  CG311   CG2O5   CG311   CG311     9  1.800000e+02  7.531200e-01      2
  CG311   CG2O5   CG311   CG321     9  0.000000e+00  1.255200e-01      6
  CG311   CG2O5   CG311   CG321     9  0.000000e+00  2.928800e-01      3
  CG311   CG2O5   CG311   CG321     9  0.000000e+00  3.138000e+00      1
  CG311   CG2O5   CG311   CG321     9  1.800000e+02  7.531200e-01      2
  CG311   CG2O5   CG311    HGA1     9  0.000000e+00  4.184000e-01      3
  CG311   CG2O5   CG321   CG2D1     9  0.000000e+00  3.765600e-01      1
  CG311   CG2O5   CG321   CG2D1     9  0.000000e+00  2.468560e+00      2
  CG311   CG2O5   CG321   CG2D1     9  1.800000e+02  1.548080e+00      6
  CG311   CG2O5   CG321   CG2D1     9  1.800000e+02  3.054320e+00      3
  CG311   CG2O5   CG321   CG2O5     9  0.000000e+00  5.020800e-01      1
  CG311   CG2O5   CG321   CG2O5     9  0.000000e+00  1.799120e+00      4
  CG311   CG2O5   CG321   CG2O5     9  0.000000e+00  9.999760e+00      2
  CG311   CG2O5   CG321   CG2O5     9  1.800000e+02  1.631760e+00      6
  CG311   CG2O5   CG321   CG2O5     9  1.800000e+02  4.727920e+00      3
  CG311   CG2O5   CG321   CG301     9  0.000000e+00  1.255200e-01      6
  CG311   CG2O5   CG321   CG301     9  0.000000e+00  2.928800e-01      3
  CG311   CG2O5   CG321   CG301     9  0.000000e+00  3.138000e+00      1
  CG311   CG2O5   CG321   CG301     9  1.800000e+02  7.531200e-01      2
  CG311   CG2O5   CG321   CG311     9  0.000000e+00  1.255200e-01      6
  CG311   CG2O5   CG321   CG311     9  0.000000e+00  2.928800e-01      3
  CG311   CG2O5   CG321   CG311     9  0.000000e+00  3.138000e+00      1
  CG311   CG2O5   CG321   CG311     9  1.800000e+02  7.531200e-01      2
  CG311   CG2O5   CG321   CG321     9  0.000000e+00  1.255200e-01      6
  CG311   CG2O5   CG321   CG321     9  0.000000e+00  2.719600e-01      3
  CG311   CG2O5   CG321   CG321     9  0.000000e+00  2.928800e-01      3
  CG311   CG2O5   CG321   CG321     9  0.000000e+00  3.138000e+00      1
  CG311   CG2O5   CG321   CG321     9  1.800000e+02  7.531200e-01      2
  CG311   CG2O5   CG321   CG331     9  0.000000e+00  1.255200e-01      6
  CG311   CG2O5   CG321   CG331     9  0.000000e+00  2.719600e-01      3
  CG311   CG2O5   CG321   CG331     9  0.000000e+00  3.138000e+00      1
  CG311   CG2O5   CG321   CG331     9  1.800000e+02  7.531200e-01      2
  CG311   CG2O5   CG321  CG3RC1     9  0.000000e+00  7.112800e-01      3
  CG311   CG2O5   CG321  CG3RC1     9  0.000000e+00  1.004160e+00      1
  CG311   CG2O5   CG321  CG3RC1     9  0.000000e+00  1.255200e+00      6
  CG311   CG2O5   CG321  CG3RC1     9  1.800000e+02  6.066800e+00      2
  CG311   CG2O5   CG321    HGA2     9  0.000000e+00  4.184000e-01      3
  CG311   CG2O5   CG331    HGA3     9  0.000000e+00  4.184000e-01      3
  CG311  CG2R61  CG2R61   CG311     9  1.800000e+02  1.004160e+01      2
  CG311  CG2R61  CG2R61   CG321     9  1.800000e+02  1.004160e+01      2
  CG311  CG2R61  CG2R61   CG331     9  1.800000e+02  1.004160e+01      2
  CG311  CG2R61  CG2R61   HGR61     9  1.800000e+02  1.004160e+01      2
  CG311  CG2R61  CG2R61   OG311     9  1.800000e+02  1.004160e+01      2
  CG311   CG301   CG301   CG311     9  0.000000e+00  8.368000e-01      3
  CG311   CG301   CG301   CG321     9  0.000000e+00  8.368000e-01      3
  CG311   CG301   CG301   CG331     9  0.000000e+00  8.368000e-01      3
  CG311   CG301   CG311   CG301     9  0.000000e+00  8.368000e-01      3
  CG311   CG301   CG311   CG311     9  0.000000e+00  8.368000e-01      3
  CG311   CG301   CG311   CG321     9  0.000000e+00  8.368000e-01      3
  CG311   CG301   CG311  CG3RC1     9  1.800000e+02  1.255200e-01      3
  CG311   CG301   CG311    HGA1     9  0.000000e+00  8.158800e-01      3
  CG311   CG301   CG311   OG311     9  0.000000e+00  5.857600e-01      3
  CG311   CG301   CG321   CG311     9  0.000000e+00  8.368000e-01      3
  CG311   CG301   CG321   CG321     9  0.000000e+00  8.368000e-01      3
  CG311   CG301   CG321   CG331     9  0.000000e+00  8.368000e-01      3
  CG311   CG301   CG321  CG3RC1     9  1.800000e+02  1.255200e-01      3
  CG311   CG301   CG321    HGA2     9  0.000000e+00  8.158800e-01      3
  CG311   CG301   CG321   OG311     9  0.000000e+00  5.857600e-01      3
  CG311   CG301   CG331    HGA3     9  0.000000e+00  6.694400e-01      3
  CG311   CG301  CG3RC1  CG3RC1     9  0.000000e+00  6.276000e-01      3
  CG311   CG301  CG3RC1    HGA1     9  0.000000e+00  6.276000e-01      3
  CG311   CG301  CG3RC1  OG3C51     9  0.000000e+00  1.380720e+00      3
  CG311   CG301  CG3RC1  OG3C51     9  1.800000e+02  7.112800e-01      2
  CG311   CG301   NG2S1   CG2O1     9  0.000000e+00  7.531200e+00      1
  CG311   CG301   NG2S1    HGP1     9  0.000000e+00  0.000000e+00      1
  CG311   CG301   OG311    HGP1     9  0.000000e+00  5.857600e-01      2
  CG311   CG301   OG311    HGP1     9  0.000000e+00  1.004160e+00      3
  CG311   CG301   OG311    HGP1     9  0.000000e+00  4.727920e+00      1
  CG311   CG311   CG311   CG311     9  1.800000e+02  2.092000e+00      4
  CG311   CG311   CG311   CG321     9  1.800000e+02  2.092000e+00      4
  CG311   CG311   CG311   CG331     9  1.800000e+02  2.092000e+00      4
  CG311   CG311   CG311  CG3RC1     9  0.000000e+00  6.276000e-01      3
  CG311   CG311   CG311    HGA1     9  0.000000e+00  8.158800e-01      3
  CG311   CG311   CG311   NG2S1     9  0.000000e+00  8.368000e-01      3
  CG311   CG311   CG311   OG311     9  0.000000e+00  5.857600e-01      3
  CG311   CG311   CG321   CG2D1     9  0.000000e+00  8.368000e-01      3
  CG311   CG311   CG321   CG2O5     9  0.000000e+00  4.602400e-01      4
  CG311   CG311   CG321   CG2O5     9  0.000000e+00  8.368000e-01      3
  CG311   CG311   CG321   CG2O5     9  0.000000e+00  1.631760e+00      2
  CG311   CG311   CG321   CG2O5     9  1.800000e+02  3.765600e-01      6
  CG311   CG311   CG321   CG2O5     9  1.800000e+02  8.786400e-01      1
  CG311   CG311   CG321   CG2O5     9  1.800000e+02  1.464400e+00      3
  CG311   CG311   CG321   CG301     9  0.000000e+00  8.368000e-01      3
  CG311   CG311   CG321   CG311     9  0.000000e+00  8.368000e-01      3
  CG311   CG311   CG321   CG321     9  0.000000e+00  8.368000e-01      3
  CG311   CG311   CG321   CG331     9  0.000000e+00  8.368000e-01      3
  CG311   CG311   CG321  CG3RC1     9  0.000000e+00  6.276000e-01      3
  CG311   CG311   CG321    HGA2     9  0.000000e+00  8.158800e-01      3
  CG311   CG311   CG321   NG2S1     9  0.000000e+00  8.368000e-01      3
  CG311   CG311   CG321   OG302     9  1.800000e+02  8.368000e-01      3
  CG311   CG311   CG321   OG311     9  1.800000e+02  8.368000e-01      3
  CG311   CG311   CG331    HGA3     9  0.000000e+00  8.368000e-01      3
  CG311   CG311  CG3RC1  CG3C41     9  0.000000e+00  2.092000e-01      6
  CG311   CG311  CG3RC1  CG3C41     9  0.000000e+00  5.773920e+00      3
  CG311   CG311  CG3RC1  CG3C41     9  1.800000e+02  1.213360e+00      4
  CG311   CG311  CG3RC1  CG3RC1     9  0.000000e+00  6.276000e-01      3
  CG311   CG311  CG3RC1    HGA1     9  0.000000e+00  6.276000e-01      3
  CG311   CG311  CG3RC1   OG302     9  0.000000e+00  1.129680e+00      4
  CG311   CG311  CG3RC1   OG302     9  1.800000e+02  6.276000e-01      3
  CG311   CG311   NG2S1   CG2O1     9  0.000000e+00  7.531200e+00      1
  CG311   CG311   NG2S1    HGP1     9  0.000000e+00  0.000000e+00      1
  CG311   CG311   OG302   CG2O2     9  1.800000e+02  2.928800e+00      1
  CG311   CG311   OG311    HGP1     9  0.000000e+00  7.531200e-01      2
  CG311   CG311   OG311    HGP1     9  0.000000e+00  1.924640e+00      3
  CG311   CG311   OG311    HGP1     9  0.000000e+00  5.564720e+00      1
  CG311   CG321   CG321   CG311     9  0.000000e+00  8.158800e-01      3
  CG311   CG321   CG321   CG321     9  0.000000e+00  2.092000e+00      3
  CG311   CG321   CG321   CG321     9  1.800000e+02  2.092000e+00      6
  CG311   CG321   CG321   CG331     9  0.000000e+00  4.527088e-01      4
  CG311   CG321   CG321   CG331     9  0.000000e+00  6.296920e-01      2
  CG311   CG321   CG321   CG331     9  0.000000e+00  8.531176e-01      5
  CG311   CG321   CG321   CG331     9  1.800000e+02  3.401592e-01      3
  CG311   CG321   CG321  CG3RC1     9  0.000000e+00  6.276000e-01      3
  CG311   CG321   CG321    HGA2     9  0.000000e+00  8.158800e-01      3
  CG311   CG321   CG321   NG2S1     9  0.000000e+00  8.368000e-01      3
  CG311   CG321   CG321   OG302     9  0.000000e+00  8.158800e-01      3
  CG311   CG321   CG321   OG311     9  0.000000e+00  8.158800e-01      3
  CG311   CG321   CG331    HGA3     9  0.000000e+00  6.694400e-01      3
  CG311   CG321  CG3C41  CG3C41     9  1.800000e+02  3.849280e+00      3
  CG311   CG321  CG3C41  CG3C41     9  1.800000e+02  4.142160e+00      4
  CG311   CG321  CG3RC1   CG2O5     9  1.800000e+02  4.518720e+00      4
  CG311   CG321  CG3RC1  CG3RC1     9  0.000000e+00  6.276000e-01      3
  CG311   CG321  CG3RC1    HGA1     9  0.000000e+00  6.276000e-01      3
  CG311   CG321  CG3RC1  OG3C51     9  1.800000e+02  0.000000e+00      3
  CG311   CG321  CG3RC1  OG3C51     9  1.800000e+02  9.037440e+00      2
  CG311   CG321   NG2S1   CG2O1     9  0.000000e+00  7.531200e+00      1
  CG311   CG321   NG2S1    HGP1     9  0.000000e+00  0.000000e+00      1
  CG311   CG321   OG302   CG2O2     9  0.000000e+00  0.000000e+00      3
  CG311   CG321   OG311    HGP1     9  0.000000e+00  5.857600e-01      2
  CG311   CG321   OG311    HGP1     9  0.000000e+00  1.004160e+00      3
  CG311   CG321   OG311    HGP1     9  0.000000e+00  4.727920e+00      1
  CG311  CG3C41  CG3C41  CG3C41     9  0.000000e+00  7.112800e-01      3
  CG311  CG3C41  CG3C41  CG3C41     9  1.800000e+02  3.598240e+00      4
  CG311  CG3C41  CG3C41    HGA2     9  0.000000e+00  0.000000e+00      3
  CG311  CG3RC1  CG3RC1   CG311     9  0.000000e+00  6.276000e-01      3
  CG311  CG3RC1  CG3RC1   CG321     9  0.000000e+00  1.673600e+01      3
  CG311  CG3RC1  CG3RC1   CG331     9  0.000000e+00  6.610720e-01      3
  CG311  CG3RC1  CG3RC1  CG3C41     9  0.000000e+00  6.317840e+00      3
  CG311  CG3RC1  CG3RC1  CG3C41     9  1.800000e+02  2.008320e+01      2
  CG311  CG3RC1  CG3RC1  CG3RC1     9  0.000000e+00  0.000000e+00      2
  CG311  CG3RC1  CG3RC1  CG3RC1     9  0.000000e+00  2.845120e+00      3
  CG311  CG3RC1  CG3RC1    HGA1     9  0.000000e+00  6.276000e-01      3
  CG311  CG3RC1  CG3RC1  OG3C51     9  0.000000e+00  9.623200e+00      2
  CG311  CG3RC1  CG3RC1  OG3C51     9  1.800000e+02  2.845120e+00      3
  CG311  CG3RC1   OG302   CG2O2     9  0.000000e+00  7.949600e-01      6
  CG311  CG3RC1   OG302   CG2O2     9  1.800000e+02  1.673600e-01      1
  CG311  CG3RC1   OG302   CG2O2     9  1.800000e+02  2.510400e-01      2
  CG311  CG3RC1   OG302   CG2O2     9  1.800000e+02  1.129680e+00      3
  CG311  CG3RC1   OG311    HGP1     9  0.000000e+00  4.602400e-01      2
  CG311  CG3RC1   OG311    HGP1     9  0.000000e+00  1.840960e+00      1
  CG311  CG3RC1   OG311    HGP1     9  0.000000e+00  2.468560e+00      3
  CG321   CG2D1   CG2D1   CG321     9  1.800000e+02  1.882800e+00      1
  CG321   CG2D1   CG2D1   CG321     9  1.800000e+02  3.556400e+01      2
  CG321   CG2D1   CG2D1   CG331     9  1.800000e+02  1.882800e+00      1
  CG321   CG2D1   CG2D1   CG331     9  1.800000e+02  3.556400e+01      2
  CG321   CG2D1   CG2D1  CG3RC1     9  1.800000e+02  0.000000e+00      1
  CG321   CG2D1   CG2D1  CG3RC1     9  1.800000e+02  2.083632e+01      2
  CG321   CG2D1   CG301   CG311     9  1.800000e+02  0.000000e+00      3
  CG321   CG2D1   CG301   CG321     9  1.800000e+02  1.255200e+00      3
  CG321   CG2D1   CG301   CG331     9  1.800000e+02  0.000000e+00      3
  CG321   CG2D1   CG311   CG2D1     9  0.000000e+00  0.000000e+00      2
  CG321   CG2D1   CG311   CG2D1     9  1.800000e+02  5.857600e-01      3
  CG321   CG2D1   CG311  CG2R61     9  0.000000e+00  1.380720e+00      2
  CG321   CG2D1   CG311  CG2R61     9  1.800000e+02  6.276000e+00      3
  CG321   CG2D1   CG311   CG311     9  0.000000e+00  7.949600e-01      3
  CG321   CG2D1   CG311   CG321     9  0.000000e+00  7.949600e-01      3
  CG321   CG2D1   CG311    HGA1     9  0.000000e+00  7.949600e-01      3
  CG321   CG2D1   CG311   OG311     9  1.800000e+02  9.623200e-01      3
  CG321   CG2D1   CG311   OG311     9  1.800000e+02  1.046000e+00      1
  CG321   CG2D1   CG311   OG311     9  1.800000e+02  2.175680e+00      2
  CG321   CG2D1   CG321   CG321     9  0.000000e+00  7.949600e-01      3
  CG321   CG2D1   CG321    HGA2     9  0.000000e+00  7.949600e-01      3
  CG321   CG2D1   CG331    HGA3     9  0.000000e+00  6.694400e-01      3
  CG321   CG2O1   NG2S1   CG2O1     9  0.000000e+00  6.694400e+00      1
  CG321   CG2O1   NG2S1   CG2O1     9  1.800000e+02  6.903600e+00      2
  CG321   CG2O1   NG2S1   CG2O1     9  1.800000e+02  1.046000e+01      2
  CG321   CG2O1   NG2S1  CG2R61     9  0.000000e+00  6.694400e+00      1
  CG321   CG2O1   NG2S1  CG2R61     9  1.800000e+02  1.046000e+01      2
  CG321   CG2O1   NG2S1   CG301     9  0.000000e+00  6.694400e+00      1
  CG321   CG2O1   NG2S1   CG301     9  1.800000e+02  1.046000e+01      2
  CG321   CG2O1   NG2S1   CG311     9  0.000000e+00  6.694400e+00      1
  CG321   CG2O1   NG2S1   CG311     9  1.800000e+02  1.046000e+01      2
  CG321   CG2O1   NG2S1   CG321     9  0.000000e+00  6.694400e+00      1
  CG321   CG2O1   NG2S1   CG321     9  1.800000e+02  1.046000e+01      2
  CG321   CG2O1   NG2S1   CG331     9  0.000000e+00  6.694400e+00      1
  CG321   CG2O1   NG2S1   CG331     9  1.800000e+02  1.046000e+01      2
  CG321   CG2O1   NG2S1    HGP1     9  1.800000e+02  1.046000e+01      2
  CG321   CG2O1   NG2S1   OG311     9  0.000000e+00  1.252355e+01      1
  CG321   CG2O1   NG2S1   OG311     9  1.800000e+02  2.946582e+01      2
  CG321   CG2O2   OG302   CG2O2     9  1.800000e+02  8.577200e+00      2
  CG321   CG2O2   OG302  CG2R61     9  1.800000e+02  2.025056e+01      2
  CG321   CG2O2   OG302   CG301     9  1.800000e+02  8.577200e+00      2
  CG321   CG2O2   OG302   CG311     9  1.800000e+02  8.577200e+00      2
  CG321   CG2O2   OG302   CG321     9  1.800000e+02  8.577200e+00      2
  CG321   CG2O2   OG302   CG331     9  1.800000e+02  8.577200e+00      2
  CG321   CG2O2   OG311    HGP1     9  1.800000e+02  8.577200e+00      2
  CG321   CG2O5   CG2O5   CG321     9  1.800000e+02  5.857600e+00      2
  CG321   CG2O5   CG2O5   OG2D3     9  1.800000e+02  4.602400e-01      2
  CG321   CG2O5   CG2O5   OG2D3     9  1.800000e+02  7.949600e-01      4
  CG321   CG2O5   CG2O5   OG2D3     9  1.800000e+02  5.857600e+00      2
  CG321   CG2O5  CG2R61  CG2R61     9  1.800000e+02  1.129680e+00      2
  CG321   CG2O5   CG301   CG2O2     9  0.000000e+00  1.255200e-01      6
  CG321   CG2O5   CG301   CG2O2     9  0.000000e+00  2.719600e-01      3
  CG321   CG2O5   CG301   CG2O2     9  0.000000e+00  3.138000e+00      1
  CG321   CG2O5   CG301   CG2O2     9  1.800000e+02  7.531200e-01      2
  CG321   CG2O5   CG301   CG321     9  0.000000e+00  1.255200e-01      6
  CG321   CG2O5   CG301   CG321     9  0.000000e+00  2.719600e-01      3
  CG321   CG2O5   CG301   CG321     9  0.000000e+00  2.928800e-01      1
  CG321   CG2O5   CG301   CG321     9  0.000000e+00  1.129680e+00      3
  CG321   CG2O5   CG301   CG321     9  0.000000e+00  1.799120e+00      6
  CG321   CG2O5   CG301   CG321     9  0.000000e+00  3.138000e+00      1
  CG321   CG2O5   CG301   CG321     9  0.000000e+00  7.154640e+00      2
  CG321   CG2O5   CG301   CG321     9  1.800000e+02  7.531200e-01      2
  CG321   CG2O5   CG301   CG331     9  0.000000e+00  4.184000e-02      6
  CG321   CG2O5   CG301   CG331     9  0.000000e+00  1.255200e-01      1
  CG321   CG2O5   CG301   CG331     9  0.000000e+00  1.255200e-01      6
  CG321   CG2O5   CG301   CG331     9  0.000000e+00  2.719600e-01      3
  CG321   CG2O5   CG301   CG331     9  0.000000e+00  1.338880e+00      4
  CG321   CG2O5   CG301   CG331     9  0.000000e+00  3.138000e+00      1
  CG321   CG2O5   CG301   CG331     9  1.800000e+02  3.347200e-01      2
  CG321   CG2O5   CG301   CG331     9  1.800000e+02  7.531200e-01      2
  CG321   CG2O5   CG301   CG331     9  1.800000e+02  1.422560e+00      3
  CG321   CG2O5   CG301   OG311     9  0.000000e+00  7.949600e-01      3
  CG321   CG2O5   CG301   OG311     9  0.000000e+00  1.422560e+00      6
  CG321   CG2O5   CG301   OG311     9  1.800000e+02  2.510400e-01      1
  CG321   CG2O5   CG301   OG311     9  1.800000e+02  1.799120e+00      2
  CG321   CG2O5   CG311   CG2O1     9  0.000000e+00  1.255200e-01      6
  CG321   CG2O5   CG311   CG2O1     9  0.000000e+00  2.719600e-01      3
  CG321   CG2O5   CG311   CG2O1     9  0.000000e+00  3.138000e+00      1
  CG321   CG2O5   CG311   CG2O1     9  1.800000e+02  7.531200e-01      2
  CG321   CG2O5   CG311   CG2O2     9  0.000000e+00  1.255200e-01      6
  CG321   CG2O5   CG311   CG2O2     9  0.000000e+00  2.510400e-01      2
  CG321   CG2O5   CG311   CG2O2     9  0.000000e+00  2.719600e-01      3
  CG321   CG2O5   CG311   CG2O2     9  0.000000e+00  4.184000e-01      1
  CG321   CG2O5   CG311   CG2O2     9  0.000000e+00  3.138000e+00      1
  CG321   CG2O5   CG311   CG2O2     9  1.800000e+02  7.531200e-01      2
  CG321   CG2O5   CG311   CG2O2     9  1.800000e+02  1.087840e+00      6
  CG321   CG2O5   CG311   CG2O5     9  0.000000e+00  1.255200e-01      6
  CG321   CG2O5   CG311   CG2O5     9  0.000000e+00  2.719600e-01      3
  CG321   CG2O5   CG311   CG2O5     9  0.000000e+00  1.046000e+00      2
  CG321   CG2O5   CG311   CG2O5     9  0.000000e+00  3.138000e+00      1
  CG321   CG2O5   CG311   CG2O5     9  1.800000e+02  1.673600e-01      4
  CG321   CG2O5   CG311   CG2O5     9  1.800000e+02  3.347200e-01      1
  CG321   CG2O5   CG311   CG2O5     9  1.800000e+02  7.531200e-01      2
  CG321   CG2O5   CG311  CG2R61     9  0.000000e+00  0.000000e+00      2
  CG321   CG2O5   CG311  CG2R61     9  0.000000e+00  1.255200e-01      6
  CG321   CG2O5   CG311  CG2R61     9  0.000000e+00  2.719600e-01      3
  CG321   CG2O5   CG311  CG2R61     9  0.000000e+00  3.138000e+00      1
  CG321   CG2O5   CG311  CG2R61     9  1.800000e+02  2.092000e-01      3
  CG321   CG2O5   CG311  CG2R61     9  1.800000e+02  7.531200e-01      2
  CG321   CG2O5   CG311   CG311     9  0.000000e+00  1.255200e-01      6
  CG321   CG2O5   CG311   CG311     9  0.000000e+00  2.928800e-01      3
  CG321   CG2O5   CG311   CG311     9  0.000000e+00  3.138000e+00      1
  CG321   CG2O5   CG311   CG311     9  1.800000e+02  7.531200e-01      2
  CG321   CG2O5   CG311   CG321     9  0.000000e+00  1.255200e-01      6
  CG321   CG2O5   CG311   CG321     9  0.000000e+00  2.719600e-01      3
  CG321   CG2O5   CG311   CG321     9  0.000000e+00  2.928800e-01      3
  CG321   CG2O5   CG311   CG321     9  0.000000e+00  3.138000e+00      1
  CG321   CG2O5   CG311   CG321     9  1.800000e+02  7.531200e-01      2
  CG321   CG2O5   CG311   CG331     9  0.000000e+00  1.255200e-01      6
  CG321   CG2O5   CG311   CG331     9  0.000000e+00  2.719600e-01      3
  CG321   CG2O5   CG311   CG331     9  0.000000e+00  2.928800e-01      3
  CG321   CG2O5   CG311   CG331     9  0.000000e+00  3.138000e+00      1
  CG321   CG2O5   CG311   CG331     9  1.800000e+02  7.531200e-01      2
  CG321   CG2O5   CG311    HGA1     9  0.000000e+00  4.184000e-01      3
  CG321   CG2O5   CG311   OG311     9  0.000000e+00  1.255200e-01      6
  CG321   CG2O5   CG311   OG311     9  0.000000e+00  2.719600e-01      3
  CG321   CG2O5   CG311   OG311     9  0.000000e+00  1.129680e+00      6
  CG321   CG2O5   CG311   OG311     9  0.000000e+00  2.510400e+00      1
  CG321   CG2O5   CG311   OG311     9  0.000000e+00  3.138000e+00      1
  CG321   CG2O5   CG311   OG311     9  1.800000e+02  3.347200e-01      2
  CG321   CG2O5   CG311   OG311     9  1.800000e+02  4.602400e-01      3
  CG321   CG2O5   CG311   OG311     9  1.800000e+02  7.531200e-01      2
  CG321   CG2O5   CG321   CG2D1     9  0.000000e+00  1.255200e-01      6
  CG321   CG2O5   CG321   CG2D1     9  0.000000e+00  2.719600e-01      3
  CG321   CG2O5   CG321   CG2D1     9  0.000000e+00  3.138000e+00      1
  CG321   CG2O5   CG321   CG2D1     9  1.800000e+02  7.531200e-01      2
  CG321   CG2O5   CG321   CG2O1     9  0.000000e+00  1.255200e-01      6
  CG321   CG2O5   CG321   CG2O1     9  0.000000e+00  2.719600e-01      3
  CG321   CG2O5   CG321   CG2O1     9  0.000000e+00  1.757280e+00      4
  CG321   CG2O5   CG321   CG2O1     9  0.000000e+00  3.138000e+00      1
  CG321   CG2O5   CG321   CG2O1     9  0.000000e+00  4.058480e+00      2
  CG321   CG2O5   CG321   CG2O1     9  0.000000e+00  6.987280e+00      1
  CG321   CG2O5   CG321   CG2O1     9  1.800000e+02  2.510400e-01      6
  CG321   CG2O5   CG321   CG2O1     9  1.800000e+02  7.531200e-01      2
  CG321   CG2O5   CG321   CG2O1     9  1.800000e+02  4.100320e+00      3
  CG321   CG2O5   CG321   CG2O5     9  0.000000e+00  0.000000e+00      1
  CG321   CG2O5   CG321   CG2O5     9  0.000000e+00  1.129680e+00      4
  CG321   CG2O5   CG321   CG2O5     9  0.000000e+00  1.757280e+00      2
  CG321   CG2O5   CG321   CG2O5     9  1.800000e+02  6.276000e-01      6
  CG321   CG2O5   CG321   CG2O5     9  1.800000e+02  3.054320e+00      3
  CG321   CG2O5   CG321   CG301     9  0.000000e+00  1.255200e-01      6
  CG321   CG2O5   CG321   CG301     9  0.000000e+00  2.719600e-01      3
  CG321   CG2O5   CG321   CG301     9  0.000000e+00  2.928800e-01      3
  CG321   CG2O5   CG321   CG301     9  0.000000e+00  3.138000e+00      1
  CG321   CG2O5   CG321   CG301     9  1.800000e+02  7.531200e-01      2
  CG321   CG2O5   CG321   CG311     9  0.000000e+00  1.255200e-01      6
  CG321   CG2O5   CG321   CG311     9  0.000000e+00  2.719600e-01      3
  CG321   CG2O5   CG321   CG311     9  0.000000e+00  2.928800e-01      3
  CG321   CG2O5   CG321   CG311     9  0.000000e+00  3.138000e+00      1
  CG321   CG2O5   CG321   CG311     9  1.800000e+02  7.531200e-01      2
  CG321   CG2O5   CG321   CG321     9  0.000000e+00  1.255200e-01      6
  CG321   CG2O5   CG321   CG321     9  0.000000e+00  2.719600e-01      3
  CG321   CG2O5   CG321   CG321     9  0.000000e+00  3.138000e+00      1
  CG321   CG2O5   CG321   CG321     9  1.800000e+02  7.531200e-01      2
  CG321   CG2O5   CG321   CG331     9  0.000000e+00  1.255200e-01      6
  CG321   CG2O5   CG321   CG331     9  0.000000e+00  2.719600e-01      3
  CG321   CG2O5   CG321   CG331     9  0.000000e+00  3.138000e+00      1
  CG321   CG2O5   CG321   CG331     9  1.800000e+02  7.531200e-01      2
  CG321   CG2O5   CG321  CG3RC1     9  0.000000e+00  6.359680e+00      4
  CG321   CG2O5   CG321  CG3RC1     9  1.800000e+02  4.602400e-01      3
  CG321   CG2O5   CG321  CG3RC1     9  1.800000e+02  6.276000e-01      6
  CG321   CG2O5   CG321  CG3RC1     9  1.800000e+02  4.351360e+00      1
  CG321   CG2O5   CG321  CG3RC1     9  1.800000e+02  9.288480e+00      2
  CG321   CG2O5   CG321    HGA2     9  0.000000e+00  4.184000e-01      3
  CG321   CG2O5   CG331    HGA3     9  0.000000e+00  4.184000e-01      3
  CG321   CG2O5  CG3RC1   CG331     9  0.000000e+00  6.276000e-01      6
  CG321   CG2O5  CG3RC1   CG331     9  0.000000e+00  8.200640e+00      3
  CG321   CG2O5  CG3RC1   CG331     9  1.800000e+02  1.004160e+00      1
  CG321   CG2O5  CG3RC1   CG331     9  1.800000e+02  4.142160e+00      2
  CG321   CG2O5  CG3RC1  CG3RC1     9  0.000000e+00  5.857600e-01      1
  CG321   CG2O5  CG3RC1  CG3RC1     9  0.000000e+00  1.004160e+00      6
  CG321   CG2O5  CG3RC1  CG3RC1     9  0.000000e+00  1.171520e+00      3
  CG321   CG2O5  CG3RC1  CG3RC1     9  1.800000e+02  4.937120e+00      2
  CG321   CG2O5  CG3RC1    HGA1     9  0.000000e+00  0.000000e+00      3
  CG321  CG2R61  CG2R61   CG321     9  1.800000e+02  1.004160e+01      2
  CG321  CG2R61  CG2R61   CG331     9  1.800000e+02  1.004160e+01      2
  CG321  CG2R61  CG2R61  CG3C41     9  1.800000e+02  1.004160e+01      2
  CG321  CG2R61  CG2R61   HGR61     9  1.800000e+02  1.004160e+01      2
  CG321  CG2R61  CG2R61   NG2S1     9  1.800000e+02  1.004160e+01      2
  CG321  CG2R61  CG2R61   OG302     9  1.800000e+02  1.004160e+01      2
  CG321  CG2R61  CG2R61   OG311     9  1.800000e+02  1.004160e+01      2
  CG321   CG301   CG301   CG321     9  0.000000e+00  8.368000e-01      3
  CG321   CG301   CG301   CG331     9  0.000000e+00  8.368000e-01      3
  CG321   CG301   CG301   OG311     9  0.000000e+00  5.857600e-01      3
  CG321   CG301   CG311   CG2D1     9  0.000000e+00  1.184072e+01      2
  CG321   CG301   CG311   CG2D1     9  1.800000e+02  2.594080e+00      3
  CG321   CG301   CG311   CG2D1     9  1.800000e+02  6.736240e+00      4
  CG321   CG301   CG311   CG2D1     9  1.800000e+02  9.037440e+00      1
  CG321   CG301   CG311   CG2O1     9  0.000000e+00  8.368000e-01      3
  CG321   CG301   CG311   CG2O2     9  0.000000e+00  8.368000e-01      3
  CG321   CG301   CG311   CG301     9  0.000000e+00  8.368000e-01      3
  CG321   CG301   CG311   CG311     9  0.000000e+00  8.368000e-01      3
  CG321   CG301   CG311   CG321     9  0.000000e+00  8.368000e-01      3
  CG321   CG301   CG311   CG331     9  0.000000e+00  8.368000e-01      3
  CG321   CG301   CG311  CG3RC1     9  0.000000e+00  6.276000e-01      3
  CG321   CG301   CG311    HGA1     9  0.000000e+00  8.158800e-01      3
  CG321   CG301   CG311   OG302     9  1.800000e+02  8.368000e-01      3
  CG321   CG301   CG311   OG311     9  0.000000e+00  5.857600e-01      3
  CG321   CG301   CG321   CG2D1     9  0.000000e+00  8.368000e-01      3
  CG321   CG301   CG321   CG2O1     9  0.000000e+00  8.368000e-01      3
  CG321   CG301   CG321   CG2O2     9  0.000000e+00  8.368000e-01      3
  CG321   CG301   CG321   CG2O5     9  0.000000e+00  4.602400e-01      4
  CG321   CG301   CG321   CG2O5     9  0.000000e+00  8.368000e-01      3
  CG321   CG301   CG321   CG2O5     9  0.000000e+00  1.631760e+00      2
  CG321   CG301   CG321   CG2O5     9  1.800000e+02  3.765600e-01      6
  CG321   CG301   CG321   CG2O5     9  1.800000e+02  8.786400e-01      1
  CG321   CG301   CG321   CG2O5     9  1.800000e+02  1.464400e+00      3
  CG321   CG301   CG321  CG2R61     9  0.000000e+00  1.673600e-01      3
  CG321   CG301   CG321   CG301     9  0.000000e+00  8.368000e-01      3
  CG321   CG301   CG321   CG311     9  0.000000e+00  8.368000e-01      3
  CG321   CG301   CG321   CG321     9  0.000000e+00  8.368000e-01      3
  CG321   CG301   CG321   CG331     9  0.000000e+00  8.368000e-01      3
  CG321   CG301   CG321  CG3RC1     9  0.000000e+00  4.393200e+00      4
  CG321   CG301   CG321  CG3RC1     9  1.800000e+02  4.184000e+00      3
  CG321   CG301   CG321    HGA2     9  0.000000e+00  8.158800e-01      3
  CG321   CG301   CG321   NG2S1     9  0.000000e+00  8.368000e-01      3
  CG321   CG301   CG321   OG311     9  0.000000e+00  5.857600e-01      3
  CG321   CG301   CG321   OG311     9  1.800000e+02  8.368000e-01      3
  CG321   CG301   CG331    HGA3     9  0.000000e+00  6.694400e-01      3
  CG321   CG301  CG3C41  CG3C41     9  0.000000e+00  0.000000e+00      4
  CG321   CG301  CG3C41  CG3C41     9  0.000000e+00  2.970640e+00      3
  CG321   CG301  CG3C41    HGA1     9  0.000000e+00  0.000000e+00      3
  CG321   CG301  CG3RC1  CG3RC1     9  0.000000e+00  6.276000e-01      3
  CG321   CG301  CG3RC1    HGA1     9  0.000000e+00  6.276000e-01      3
  CG321   CG301   NG2S1   CG2O1     9  0.000000e+00  7.531200e+00      1
  CG321   CG301   NG2S1    HGP1     9  0.000000e+00  0.000000e+00      1
  CG321   CG301   OG302   CG2O2     9  0.000000e+00  0.000000e+00      3
  CG321   CG301   OG311    HGP1     9  0.000000e+00  5.857600e-01      2
  CG321   CG301   OG311    HGP1     9  0.000000e+00  1.004160e+00      3
  CG321   CG301   OG311    HGP1     9  0.000000e+00  4.727920e+00      1
  CG321   CG311   CG311   CG321     9  1.800000e+02  2.092000e+00      4
  CG321   CG311   CG311   CG331     9  1.800000e+02  2.092000e+00      4
  CG321   CG311   CG311  CG3RC1     9  0.000000e+00  6.276000e-01      3
  CG321   CG311   CG311    HGA1     9  0.000000e+00  8.158800e-01      3
  CG321   CG311   CG311   NG2S1     9  0.000000e+00  8.368000e-01      3
  CG321   CG311   CG311   OG311     9  0.000000e+00  5.857600e-01      3
  CG321   CG311   CG321   CG2D1     9  0.000000e+00  8.368000e-01      3
  CG321   CG311   CG321   CG2O1     9  0.000000e+00  8.368000e-01      3
  CG321   CG311   CG321   CG2O5     9  0.000000e+00  4.602400e-01      4
  CG321   CG311   CG321   CG2O5     9  0.000000e+00  8.368000e-01      3
  CG321   CG311   CG321   CG2O5     9  0.000000e+00  1.631760e+00      2
  CG321   CG311   CG321   CG2O5     9  1.800000e+02  3.765600e-01      6
  CG321   CG311   CG321   CG2O5     9  1.800000e+02  8.786400e-01      1
  CG321   CG311   CG321   CG2O5     9  1.800000e+02  1.464400e+00      3
  CG321   CG311   CG321  CG2R61     9  0.000000e+00  1.673600e-01      3
  CG321   CG311   CG321   CG301     9  0.000000e+00  8.368000e-01      3
  CG321   CG311   CG321   CG311     9  0.000000e+00  8.368000e-01      3
  CG321   CG311   CG321   CG321     9  0.000000e+00  8.368000e-01      3
  CG321   CG311   CG321   CG331     9  0.000000e+00  8.368000e-01      3
  CG321   CG311   CG321  CG3C41     9  0.000000e+00  8.368000e-01      3
  CG321   CG311   CG321  CG3RC1     9  0.000000e+00  6.276000e-01      3
  CG321   CG311   CG321    HGA2     9  0.000000e+00  8.158800e-01      1
  CG321   CG311   CG321   NG2S1     9  0.000000e+00  8.368000e-01      3
  CG321   CG311   CG321   OG302     9  1.800000e+02  8.368000e-01      3
  CG321   CG311   CG321   OG311     9  1.800000e+02  8.368000e-01      3
  CG321   CG311  CG3C41  CG3C41     9  0.000000e+00  1.673600e-01      3
  CG321   CG311  CG3C41  CG3C41     9  0.000000e+00  1.882800e+00      4
  CG321   CG311  CG3RC1   CG331     9  0.000000e+00  2.092000e-01      3
  CG321   CG311  CG3RC1  CG3RC1     9  0.000000e+00  6.276000e-01      3
  CG321   CG311  CG3RC1    HGA1     9  0.000000e+00  6.276000e-01      3
  CG321   CG311  CG3RC1   OG311     9  0.000000e+00  1.129680e+00      4
  CG321   CG311  CG3RC1   OG311     9  1.800000e+02  6.276000e-01      3
  CG321   CG311  CG3RC1  OG3C51     9  0.000000e+00  3.430880e+00      3
  CG321   CG311  CG3RC1  OG3C51     9  1.800000e+02  7.112800e-01      4
  CG321   CG311   NG2S1   CG2O1     9  0.000000e+00  7.531200e+00      1
  CG321   CG311   NG2S1    HGP1     9  0.000000e+00  0.000000e+00      1
  CG321   CG311   OG302   CG2O2     9  1.800000e+02  2.928800e+00      1
  CG321   CG311   OG311    HGP1     9  0.000000e+00  1.255200e+00      1
  CG321   CG311   OG311    HGP1     9  0.000000e+00  1.255200e+00      3
  CG321   CG321   CG321   CG321     9  0.000000e+00  2.698680e-01      2
  CG321   CG321   CG321   CG321     9  0.000000e+00  3.957227e-01      4
  CG321   CG321   CG321   CG321     9  0.000000e+00  4.707418e-01      5
  CG321   CG321   CG321   CG321     9  1.800000e+02  6.265540e-01      3
  CG321   CG321   CG321   CG331     9  0.000000e+00  4.528762e-01      4
  CG321   CG321   CG321   CG331     9  0.000000e+00  6.297338e-01      2
  CG321   CG321   CG321   CG331     9  0.000000e+00  8.531594e-01      5
  CG321   CG321   CG321   CG331     9  1.800000e+02  3.402847e-01      3
  CG321   CG321   CG321  CG3C41     9  0.000000e+00  1.673600e+00      3
  CG321   CG321   CG321  CG3RC1     9  0.000000e+00  6.276000e-01      3
  CG321   CG321   CG321    HGA2     9  0.000000e+00  8.158800e-01      3
  CG321   CG321   CG321   NG2S1     9  0.000000e+00  8.368000e-01      3
  CG321   CG321   CG321   OG302     9  0.000000e+00  8.158800e-01      3
  CG321   CG321   CG321   OG311     9  0.000000e+00  8.158800e-01      3
  CG321   CG321   CG331    HGA3     9  0.000000e+00  6.694400e-01      3
  CG321   CG321  CG3C41   CG321     9  0.000000e+00  1.464400e+00      3
  CG321   CG321  CG3C41   CG321     9  1.800000e+02  8.284320e+00      4
  CG321   CG321  CG3C41  CG3C41     9  0.000000e+00  2.510400e+00      3
  CG321   CG321  CG3C41  CG3C41     9  1.800000e+02  4.309520e+00      2
  CG321   CG321  CG3C41    HGA1     9  0.000000e+00  0.000000e+00      3
  CG321   CG321  CG3C41  OG3C51     9  0.000000e+00  5.439200e-01      3
  CG321   CG321  CG3C41  OG3C51     9  1.800000e+02  1.422560e+00      1
  CG321   CG321  CG3RC1   CG321     9  0.000000e+00  8.368000e-01      3
  CG321   CG321  CG3RC1   CG331     9  0.000000e+00  8.368000e-01      3
  CG321   CG321  CG3RC1  CG3C41     9  0.000000e+00  2.092000e-01      6
  CG321   CG321  CG3RC1  CG3C41     9  0.000000e+00  5.773920e+00      3
  CG321   CG321  CG3RC1  CG3C41     9  1.800000e+02  1.213360e+00      4
  CG321   CG321  CG3RC1  CG3RC1     9  0.000000e+00  6.276000e-01      3
  CG321   CG321  CG3RC1    HGA1     9  0.000000e+00  6.276000e-01      3
  CG321   CG321  CG3RC1  OG3C51     9  0.000000e+00  3.054320e+00      3
  CG321   CG321  CG3RC1  OG3C51     9  1.800000e+02  1.004160e+01      2
  CG321   CG321   NG2S1   CG2O1     9  0.000000e+00  7.531200e+00      1
  CG321   CG321   NG2S1    HGP1     9  0.000000e+00  0.000000e+00      1
  CG321   CG321   OG302   CG2O2     9  0.000000e+00  0.000000e+00      3
  CG321  CG3C41  CG3C41   CG321     9  0.000000e+00  3.221680e+00      3
  CG321  CG3C41  CG3C41   CG321     9  1.800000e+02  3.849280e+00      2
  CG321  CG3C41  CG3C41  CG3C41     9  0.000000e+00  7.112800e-01      3
  CG321  CG3C41  CG3C41  CG3C41     9  1.800000e+02  1.087840e+00      4
  CG321  CG3C41  CG3C41    HGA1     9  0.000000e+00  0.000000e+00      3
  CG321  CG3C41  CG3C41    HGA2     9  0.000000e+00  0.000000e+00      3
  CG321  CG3C41  OG3C51  CG3C41     9  0.000000e+00  1.924640e+00      3
  CG321  CG3RC1  CG3RC1   CG321     9  0.000000e+00  6.276000e-01      3
  CG321  CG3RC1  CG3RC1   CG331     9  0.000000e+00  2.092000e-01      3
  CG321  CG3RC1  CG3RC1  CG3C41     9  0.000000e+00  1.882800e+00      6
  CG321  CG3RC1  CG3RC1  CG3C41     9  1.800000e+02  2.343040e+00      3
  CG321  CG3RC1  CG3RC1  CG3RC1     9  0.000000e+00  4.184000e-01      6
  CG321  CG3RC1  CG3RC1  CG3RC1     9  0.000000e+00  1.464400e+00      3
  CG321  CG3RC1  CG3RC1  CG3RC1     9  1.800000e+02  7.614880e+00      2
  CG321  CG3RC1  CG3RC1    HGA1     9  0.000000e+00  6.276000e-01      3
  CG321  CG3RC1  CG3RC1   OG302     9  0.000000e+00  5.857600e+00      3
  CG321  CG3RC1  CG3RC1   OG302     9  1.800000e+02  1.464400e+00      6
  CG321  CG3RC1  CG3RC1   OG311     9  0.000000e+00  1.012528e+01      4
  CG321  CG3RC1  CG3RC1   OG311     9  1.800000e+02  5.815760e+00      3
  CG321  CG3RC1  CG3RC1  OG3C51     9  1.800000e+02  2.092000e-01      6
  CG321  CG3RC1  CG3RC1  OG3C51     9  1.800000e+02  7.949600e-01      3
  CG321  CG3RC1  CG3RC1  OG3C51     9  1.800000e+02  1.297040e+00      4
  CG321  CG3RC1  OG3C51  CG3C41     9  0.000000e+00  6.694400e-01      3
  CG321  CG3RC1  OG3C51  CG3C41     9  0.000000e+00  8.368000e-01      2
  CG331   CG2D1   CG2D1   CG331     9  1.800000e+02  1.882800e+00      1
  CG331   CG2D1   CG2D1   CG331     9  1.800000e+02  3.556400e+01      2
  CG331   CG2D1   CG301   CG321     9  0.000000e+00  1.673600e+00      3
  CG331   CG2D1   CG301   CG331     9  0.000000e+00  1.673600e+00      3
  CG331   CG2D1   CG311   CG2O1     9  0.000000e+00  8.368000e-01      2
  CG331   CG2D1   CG311   CG2O1     9  0.000000e+00  1.184072e+01      3
  CG331   CG2D1   CG311   CG301     9  0.000000e+00  7.949600e-01      3
  CG331   CG2D1   CG311   CG311     9  0.000000e+00  7.949600e-01      3
  CG331   CG2D1   CG311   CG321     9  0.000000e+00  7.949600e-01      3
  CG331   CG2D1   CG311    HGA1     9  0.000000e+00  7.949600e-01      3
  CG331   CG2D1   CG311   OG302     9  1.800000e+02  9.623200e-01      3
  CG331   CG2D1   CG311   OG302     9  1.800000e+02  1.046000e+00      1
  CG331   CG2D1   CG311   OG302     9  1.800000e+02  2.175680e+00      2
  CG331   CG2D1   CG311   OG311     9  1.800000e+02  9.623200e-01      3
  CG331   CG2D1   CG311   OG311     9  1.800000e+02  1.046000e+00      1
  CG331   CG2D1   CG311   OG311     9  1.800000e+02  2.175680e+00      2
  CG331   CG2D1   CG321   CG2O5     9  0.000000e+00  1.673600e-01      3
  CG331   CG2D1   CG321   CG2O5     9  0.000000e+00  7.949600e-01      3
  CG331   CG2D1   CG321   CG2O5     9  1.800000e+02  2.928800e-01      6
  CG331   CG2D1   CG321   CG301     9  0.000000e+00  7.949600e-01      3
  CG331   CG2D1   CG321   CG311     9  0.000000e+00  7.949600e-01      3
  CG331   CG2D1   CG321   CG321     9  0.000000e+00  7.949600e-01      3
  CG331   CG2D1   CG321   CG331     9  0.000000e+00  7.949600e-01      3
  CG331   CG2D1   CG321    HGA2     9  0.000000e+00  7.949600e-01      3
  CG331   CG2D1   CG321   NG2S1     9  0.000000e+00  7.949600e-01      3
  CG331   CG2D1   CG321   OG311     9  1.800000e+02  9.623200e-01      3
  CG331   CG2D1   CG321   OG311     9  1.800000e+02  1.046000e+00      1
  CG331   CG2D1   CG321   OG311     9  1.800000e+02  2.175680e+00      2
  CG331   CG2D1   CG331    HGA3     9  0.000000e+00  6.694400e-01      3
  CG331   CG2D1  CG3RC1  CG3RC1     9  0.000000e+00  0.000000e+00      2
  CG331   CG2D1  CG3RC1  CG3RC1     9  1.800000e+02  1.589920e+00      3
  CG331   CG2D1  CG3RC1    HGA1     9  0.000000e+00  0.000000e+00      3
  CG331   CG2O1   NG2S1   CG2O1     9  0.000000e+00  6.694400e+00      1
  CG331   CG2O1   NG2S1   CG2O1     9  1.800000e+02  1.046000e+01      2
  CG331   CG2O1   NG2S1  CG2R61     9  0.000000e+00  6.694400e+00      1
  CG331   CG2O1   NG2S1  CG2R61     9  1.800000e+02  1.046000e+01      2
  CG331   CG2O1   NG2S1   CG301     9  0.000000e+00  6.694400e+00      1
  CG331   CG2O1   NG2S1   CG301     9  1.800000e+02  1.046000e+01      2
  CG331   CG2O1   NG2S1   CG311     9  0.000000e+00  6.694400e+00      1
  CG331   CG2O1   NG2S1   CG311     9  1.800000e+02  1.046000e+01      2
  CG331   CG2O1   NG2S1   CG321     9  0.000000e+00  6.694400e+00      1
  CG331   CG2O1   NG2S1   CG321     9  1.800000e+02  1.046000e+01      2
  CG331   CG2O1   NG2S1   CG331     9  0.000000e+00  6.694400e+00      1
  CG331   CG2O1   NG2S1   CG331     9  1.800000e+02  1.046000e+01      2
  CG331   CG2O1   NG2S1    HGP1     9  1.800000e+02  1.046000e+01      2
  CG331   CG2O2   OG302   CG311     9  1.800000e+02  8.577200e+00      2
  CG331   CG2O2   OG302   CG321     9  1.800000e+02  8.577200e+00      2
  CG331   CG2O2   OG302   CG331     9  1.800000e+02  8.577200e+00      2
  CG331   CG2O2   OG302  CG3RC1     9  1.800000e+02  8.577200e+00      2
  CG331   CG2O2   OG311    HGP1     9  1.800000e+02  8.577200e+00      2
  CG331   CG2O5  CG2R61  CG2R61     9  1.800000e+02  1.046000e+00      2
  CG331   CG2O5   CG301   CG321     9  0.000000e+00  3.347200e-01      1
  CG331   CG2O5   CG301   CG321     9  0.000000e+00  4.602400e-01      3
  CG331   CG2O5   CG301   CG321     9  1.800000e+02  3.347200e-01      6
  CG331   CG2O5   CG301   CG321     9  1.800000e+02  3.723760e+00      2
  CG331   CG2O5   CG301   CG331     9  0.000000e+00  1.104576e+01      3
  CG331   CG2O5   CG301   CG331     9  1.800000e+02  3.765600e-01      2
  CG331   CG2O5   CG301   CG331     9  1.800000e+02  9.623200e-01      1
  CG331   CG2O5   CG301   CG331     9  1.800000e+02  9.623200e-01      6
  CG331   CG2O5   CG311   CG2O5     9  0.000000e+00  1.255200e-01      6
  CG331   CG2O5   CG311   CG2O5     9  0.000000e+00  2.719600e-01      3
  CG331   CG2O5   CG311   CG2O5     9  0.000000e+00  3.138000e+00      1
  CG331   CG2O5   CG311   CG2O5     9  1.800000e+02  7.531200e-01      2
  CG331   CG2O5   CG311   CG301     9  0.000000e+00  1.255200e-01      6
  CG331   CG2O5   CG311   CG301     9  0.000000e+00  2.928800e-01      3
  CG331   CG2O5   CG311   CG301     9  0.000000e+00  3.138000e+00      1
  CG331   CG2O5   CG311   CG301     9  1.800000e+02  7.531200e-01      2
  CG331   CG2O5   CG311   CG311     9  0.000000e+00  1.255200e-01      6
  CG331   CG2O5   CG311   CG311     9  0.000000e+00  2.719600e-01      3
  CG331   CG2O5   CG311   CG311     9  0.000000e+00  3.138000e+00      1
  CG331   CG2O5   CG311   CG311     9  1.800000e+02  7.531200e-01      2
  CG331   CG2O5   CG311   CG321     9  0.000000e+00  1.255200e-01      6
  CG331   CG2O5   CG311   CG321     9  0.000000e+00  2.719600e-01      3
  CG331   CG2O5   CG311   CG321     9  0.000000e+00  2.928800e-01      3
  CG331   CG2O5   CG311   CG321     9  0.000000e+00  3.138000e+00      1
  CG331   CG2O5   CG311   CG321     9  1.800000e+02  7.531200e-01      2
  CG331   CG2O5   CG311   CG331     9  0.000000e+00  1.255200e-01      6
  CG331   CG2O5   CG311   CG331     9  0.000000e+00  2.719600e-01      3
  CG331   CG2O5   CG311   CG331     9  0.000000e+00  3.138000e+00      1
  CG331   CG2O5   CG311   CG331     9  1.800000e+02  7.531200e-01      2
  CG331   CG2O5   CG311    HGA1     9  0.000000e+00  4.184000e-01      3
  CG331   CG2O5   CG311   NG2S1     9  0.000000e+00  0.000000e+00      1
  CG331   CG2O5   CG311   OG302     9  0.000000e+00  1.255200e-01      6
  CG331   CG2O5   CG311   OG302     9  0.000000e+00  2.719600e-01      3
  CG331   CG2O5   CG311   OG302     9  0.000000e+00  3.138000e+00      1
  CG331   CG2O5   CG311   OG302     9  1.800000e+02  7.531200e-01      2
  CG331   CG2O5   CG311   OG311     9  0.000000e+00  1.255200e-01      6
  CG331   CG2O5   CG311   OG311     9  0.000000e+00  2.719600e-01      3
  CG331   CG2O5   CG311   OG311     9  0.000000e+00  3.138000e+00      1
  CG331   CG2O5   CG311   OG311     9  1.800000e+02  7.531200e-01      2
  CG331   CG2O5   CG321   CG321     9  0.000000e+00  1.255200e-01      6
  CG331   CG2O5   CG321   CG321     9  0.000000e+00  2.719600e-01      3
  CG331   CG2O5   CG321   CG321     9  0.000000e+00  3.138000e+00      1
  CG331   CG2O5   CG321   CG321     9  1.800000e+02  7.531200e-01      2
  CG331   CG2O5   CG321   CG331     9  0.000000e+00  1.255200e-01      6
  CG331   CG2O5   CG321   CG331     9  0.000000e+00  2.719600e-01      3
  CG331   CG2O5   CG321   CG331     9  0.000000e+00  3.138000e+00      1
  CG331   CG2O5   CG321   CG331     9  1.800000e+02  7.531200e-01      2
  CG331   CG2O5   CG321    HGA2     9  0.000000e+00  4.184000e-01      3
  CG331   CG2O5   CG331    HGA3     9  0.000000e+00  4.184000e-01      3
  CG331  CG2R61  CG2R61   CG331     9  1.800000e+02  1.004160e+01      2
  CG331  CG2R61  CG2R61   HGR61     9  1.800000e+02  1.004160e+01      2
  CG331  CG2R61  CG2R61   NG2S1     9  1.800000e+02  1.004160e+01      2
  CG331  CG2R61  CG2R61   OG311     9  1.800000e+02  1.004160e+01      2
  CG331   CG301   CG301   CG331     9  0.000000e+00  8.368000e-01      3
  CG331   CG301   CG301   OG311     9  0.000000e+00  5.857600e-01      3
  CG331   CG301   CG311   CG2O1     9  0.000000e+00  8.368000e-01      3
  CG331   CG301   CG311   CG2O2     9  0.000000e+00  8.368000e-01      3
  CG331   CG301   CG311   CG2O5     9  0.000000e+00  8.368000e-01      3
  CG331   CG301   CG311  CG2R61     9  0.000000e+00  2.928800e-01      3
  CG331   CG301   CG311   CG301     9  0.000000e+00  8.368000e-01      3
  CG331   CG301   CG311   CG311     9  0.000000e+00  8.368000e-01      3
  CG331   CG301   CG311   CG321     9  0.000000e+00  8.368000e-01      3
  CG331   CG301   CG311   CG331     9  0.000000e+00  8.368000e-01      3
  CG331   CG301   CG311  CG3RC1     9  0.000000e+00  6.276000e-01      3
  CG331   CG301   CG311  CG3RC1     9  1.800000e+02  0.000000e+00      3
  CG331   CG301   CG311    HGA1     9  0.000000e+00  8.158800e-01      3
  CG331   CG301   CG311   OG311     9  0.000000e+00  5.857600e-01      3
  CG331   CG301   CG321   CG2D1     9  0.000000e+00  8.368000e-01      3
  CG331   CG301   CG321   CG2O1     9  0.000000e+00  8.368000e-01      3
  CG331   CG301   CG321   CG2O2     9  0.000000e+00  8.368000e-01      3
  CG331   CG301   CG321   CG2O5     9  0.000000e+00  4.602400e-01      4
  CG331   CG301   CG321   CG2O5     9  0.000000e+00  8.368000e-01      3
  CG331   CG301   CG321   CG2O5     9  0.000000e+00  1.631760e+00      2
  CG331   CG301   CG321   CG2O5     9  1.800000e+02  3.765600e-01      6
  CG331   CG301   CG321   CG2O5     9  1.800000e+02  8.786400e-01      1
  CG331   CG301   CG321   CG2O5     9  1.800000e+02  1.464400e+00      3
  CG331   CG301   CG321  CG2R61     9  0.000000e+00  1.673600e-01      3
  CG331   CG301   CG321   CG301     9  0.000000e+00  8.368000e-01      3
  CG331   CG301   CG321   CG311     9  0.000000e+00  8.368000e-01      3
  CG331   CG301   CG321   CG321     9  0.000000e+00  8.368000e-01      3
  CG331   CG301   CG321   CG331     9  0.000000e+00  1.840960e+00      1
  CG331   CG301   CG321   CG331     9  1.800000e+02  8.368000e-02      2
  CG331   CG301   CG321   CG331     9  1.800000e+02  3.054320e+00      3
  CG331   CG301   CG321  CG3RC1     9  1.800000e+02  0.000000e+00      3
  CG331   CG301   CG321    HGA2     9  0.000000e+00  8.158800e-01      3
  CG331   CG301   CG321   NG2S1     9  0.000000e+00  8.368000e-01      3
  CG331   CG301   CG321   OG311     9  1.800000e+02  8.368000e-01      3
  CG331   CG301   CG331    HGA3     9  0.000000e+00  6.694400e-01      3
  CG331   CG301  CG3RC1  CG3RC1     9  0.000000e+00  6.276000e-01      3
  CG331   CG301  CG3RC1    HGA1     9  0.000000e+00  6.276000e-01      3
  CG331   CG301  CG3RC1  OG3C51     9  0.000000e+00  3.347200e-01      4
  CG331   CG301  CG3RC1  OG3C51     9  1.800000e+02  6.192320e+00      3
  CG331   CG301   NG2S1   CG2O1     9  0.000000e+00  7.531200e+00      1
  CG331   CG301   NG2S1    HGP1     9  0.000000e+00  0.000000e+00      1
  CG331   CG301   OG302   CG2O2     9  0.000000e+00  0.000000e+00      3
  CG331   CG301   OG311    HGP1     9  0.000000e+00  5.857600e-01      2
  CG331   CG301   OG311    HGP1     9  0.000000e+00  1.004160e+00      3
  CG331   CG301   OG311    HGP1     9  0.000000e+00  4.727920e+00      1
  CG331   CG311   CG311   CG331     9  1.800000e+02  2.092000e+00      4
  CG331   CG311   CG311    HGA1     9  0.000000e+00  8.158800e-01      3
  CG331   CG311   CG311   NG2S1     9  0.000000e+00  8.368000e-01      3
  CG331   CG311   CG311   OG311     9  0.000000e+00  5.857600e-01      3
  CG331   CG311   CG321   CG2D1     9  0.000000e+00  8.368000e-01      3
  CG331   CG311   CG321   CG2O1     9  0.000000e+00  8.368000e-01      3
  CG331   CG311   CG321   CG2O2     9  0.000000e+00  4.602400e-01      4
  CG331   CG311   CG321   CG2O2     9  0.000000e+00  1.631760e+00      2
  CG331   CG311   CG321   CG2O2     9  1.800000e+02  3.765600e-01      6
  CG331   CG311   CG321   CG2O2     9  1.800000e+02  8.786400e-01      1
  CG331   CG311   CG321   CG2O2     9  1.800000e+02  1.464400e+00      3
  CG331   CG311   CG321   CG2O5     9  0.000000e+00  4.602400e-01      4
  CG331   CG311   CG321   CG2O5     9  0.000000e+00  8.368000e-01      3
  CG331   CG311   CG321   CG2O5     9  0.000000e+00  1.631760e+00      2
  CG331   CG311   CG321   CG2O5     9  1.800000e+02  3.765600e-01      6
  CG331   CG311   CG321   CG2O5     9  1.800000e+02  8.786400e-01      1
  CG331   CG311   CG321   CG2O5     9  1.800000e+02  1.464400e+00      3
  CG331   CG311   CG321  CG2R61     9  0.000000e+00  1.673600e-01      3
  CG331   CG311   CG321   CG301     9  0.000000e+00  8.368000e-01      3
  CG331   CG311   CG321   CG311     9  0.000000e+00  8.368000e-01      3
  CG331   CG311   CG321   CG321     9  0.000000e+00  8.368000e-01      3
  CG331   CG311   CG321   CG331     9  0.000000e+00  8.368000e-01      3
  CG331   CG311   CG321  CG3RC1     9  0.000000e+00  6.276000e-01      3
  CG331   CG311   CG321   NG2S1     9  0.000000e+00  8.368000e-01      3
  CG331   CG311   CG321   OG302     9  0.000000e+00  8.368000e-01      3
  CG331   CG311   CG321   OG311     9  1.800000e+02  8.368000e-01      3
  CG331   CG311   CG331    HGA3     9  0.000000e+00  8.158800e-01      3
  CG331   CG311  CG3C41  CG3C41     9  1.800000e+02  3.765600e-01      3
  CG331   CG311  CG3C41  CG3C41     9  1.800000e+02  1.757280e+00      4
  CG331   CG311  CG3RC1  CG3RC1     9  0.000000e+00  6.276000e-01      3
  CG331   CG311  CG3RC1    HGA1     9  0.000000e+00  6.276000e-01      3
  CG331   CG311  CG3RC1   OG311     9  0.000000e+00  5.439200e-01      3
  CG331   CG311  CG3RC1  OG3C51     9  1.800000e+02  6.694400e-01      4
  CG331   CG311   NG2S1   CG2O1     9  0.000000e+00  7.531200e+00      1
  CG331   CG311   NG2S1    HGP1     9  0.000000e+00  0.000000e+00      1
  CG331   CG311   OG302   CG2O2     9  0.000000e+00  0.000000e+00      3
  CG331   CG311   OG311    HGP1     9  0.000000e+00  7.531200e-01      2
  CG331   CG311   OG311    HGP1     9  0.000000e+00  1.924640e+00      3
  CG331   CG311   OG311    HGP1     9  0.000000e+00  5.564720e+00      1
  CG331   CG321   CG321   CG331     9  0.000000e+00  1.597870e-01      2
  CG331   CG321   CG321   CG331     9  1.800000e+02  1.329675e-01      6
  CG331   CG321   CG321    HGA2     9  0.000000e+00  7.531200e-01      3
  CG331   CG321   CG321   NG2S1     9  0.000000e+00  8.368000e-01      3
  CG331   CG321   CG321   OG302     9  0.000000e+00  1.631760e+00      2
  CG331   CG321   CG321   OG302     9  1.800000e+02  6.694400e-01      1
  CG331   CG321   CG321   OG311     9  0.000000e+00  8.158800e-01      3
  CG331   CG321   CG331    HGA3     9  0.000000e+00  6.694400e-01      3
  CG331   CG321   NG2S1   CG2O1     9  0.000000e+00  2.592406e+00      2
  CG331   CG321   NG2S1   CG2O1     9  1.800000e+02  7.455888e-01      3
  CG331   CG321   NG2S1    HGP1     9  0.000000e+00  0.000000e+00      1
  CG331   CG321   OG302   CG2O2     9  0.000000e+00  0.000000e+00      3
  CG331   CG321   OG311    HGP1     9  0.000000e+00  5.857600e-01      2
  CG331   CG321   OG311    HGP1     9  0.000000e+00  1.004160e+00      3
  CG331   CG321   OG311    HGP1     9  0.000000e+00  4.727920e+00      1
  CG331  CG3C41  CG3C41   CG331     9  0.000000e+00  3.514560e+00      3
  CG331  CG3C41  CG3C41   CG331     9  1.800000e+02  4.560560e+00      2
  CG331  CG3C41  CG3C41  CG3C41     9  0.000000e+00  0.000000e+00      3
  CG331  CG3C41  CG3C41  CG3C41     9  1.800000e+02  5.439200e+00      2
  CG331  CG3C41  CG3C41    HGA1     9  0.000000e+00  0.000000e+00      3
  CG331  CG3C41  CG3C41    HGA2     9  0.000000e+00  0.000000e+00      3
  CG331  CG3RC1  CG3RC1  CG3RC1     9  1.800000e+02  3.765600e-01      6
  CG331  CG3RC1  CG3RC1  CG3RC1     9  1.800000e+02  4.184000e-01      3
  CG331  CG3RC1  CG3RC1    HGA1     9  0.000000e+00  2.092000e-01      3
 CG3C41   CG2O2   OG311    HGP1     9  1.800000e+02  8.577200e+00      2
 CG3C41  CG2R61  CG2R61   HGR61     9  1.800000e+02  1.004160e+01      2
 CG3C41   CG301   CG321    HGA2     9  0.000000e+00  8.368000e-01      3
 CG3C41   CG301   OG311    HGP1     9  0.000000e+00  5.857600e-01      2
 CG3C41   CG301   OG311    HGP1     9  0.000000e+00  1.004160e+00      3
 CG3C41   CG301   OG311    HGP1     9  0.000000e+00  4.727920e+00      1
 CG3C41   CG311   CG321    HGA2     9  0.000000e+00  8.368000e-01      3
 CG3C41   CG311   CG331    HGA3     9  0.000000e+00  6.694400e-01      3
 CG3C41   CG321   CG321    HGA2     9  0.000000e+00  2.092000e+00      3
 CG3C41  CG3C41  CG3C41  CG3C41     9  0.000000e+00  5.983120e+00      3
 CG3C41  CG3C41  CG3C41    HGA1     9  0.000000e+00  2.384880e+00      3
 CG3C41  CG3C41  CG3C41    HGA2     9  0.000000e+00  2.384880e+00      3
 CG3C41  CG3C41  CG3C41   NG2S1     9  0.000000e+00  2.133840e+00      3
 CG3C41  CG3C41  CG3C41   NG2S1     9  1.800000e+02  4.351360e+00      4
 CG3C41  CG3C41  CG3C41  OG3C51     9  0.000000e+00  0.000000e+00      3
 CG3C41  CG3C41  CG3RC1   CG311     9  0.000000e+00  8.368000e-02      2
 CG3C41  CG3C41  CG3RC1   CG311     9  0.000000e+00  2.343040e+00      3
 CG3C41  CG3C41  CG3RC1   CG321     9  1.800000e+02  7.531200e-01      6
 CG3C41  CG3C41  CG3RC1   CG321     9  1.800000e+02  4.016640e+00      3
 CG3C41  CG3C41  CG3RC1  CG3RC1     9  0.000000e+00  0.000000e+00      2
 CG3C41  CG3C41  CG3RC1  CG3RC1     9  0.000000e+00  5.857600e+00      3
 CG3C41  CG3C41  CG3RC1    HGA1     9  0.000000e+00  0.000000e+00      3
 CG3C41  CG3C41   NG2S1   CG2O1     9  0.000000e+00  1.589920e+00      4
 CG3C41  CG3C41   NG2S1   CG2O1     9  1.800000e+02  3.389040e+00      3
 CG3C41  CG3C41   NG2S1    HGP1     9  0.000000e+00  4.184000e-01      4
 CG3C41  CG3C41   NG2S1    HGP1     9  0.000000e+00  2.050160e+00      1
 CG3C41  CG3C41   OG311    HGP1     9  0.000000e+00  8.368000e-02      3
 CG3C41  CG3C41   OG311    HGP1     9  0.000000e+00  1.673600e-01      2
 CG3C41  CG3C41   OG311    HGP1     9  0.000000e+00  2.092000e-01      4
 CG3C41  CG3C41   OG311    HGP1     9  0.000000e+00  5.564720e+00      1
 CG3C41  CG3C41  OG3C51  CG3C41     9  0.000000e+00  2.092000e+00      3
 CG3C41  CG3RC1  CG3RC1  CG3C41     9  1.800000e+02  1.673600e-01      3
 CG3C41  CG3RC1  CG3RC1  CG3C41     9  1.800000e+02  3.041768e+01      2
 CG3C41  CG3RC1  CG3RC1  CG3RC1     9  1.800000e+02  1.276120e+01      3
 CG3C41  CG3RC1  CG3RC1    HGA1     9  0.000000e+00  0.000000e+00      3
 CG3C41  CG3RC1  CG3RC1  OG3C51     9  0.000000e+00  5.020800e+00      3
 CG3C41  CG3RC1   OG302   CG2O2     9  0.000000e+00  4.602400e-01      1
 CG3C41  CG3RC1   OG302   CG2O2     9  1.800000e+02  0.000000e+00      6
 CG3C41  CG3RC1   OG302   CG2O2     9  1.800000e+02  2.803280e+00      3
 CG3RC1   CG2D1   CG331    HGA3     9  0.000000e+00  6.694400e-01      3
 CG3RC1   CG2O1   NG2S1  CG3C41     9  0.000000e+00  6.907784e+01      1
 CG3RC1   CG2O1   NG2S1  CG3C41     9  1.800000e+02  3.083608e+01      2
 CG3RC1   CG2O1   NG2S1    HGP1     9  1.800000e+02  1.046000e+01      2
 CG3RC1   CG2O2   OG311    HGP1     9  1.800000e+02  1.188256e+01      2
 CG3RC1   CG2O5   CG2O5  CG3RC1     9  1.800000e+02  8.368000e-02      2
 CG3RC1   CG2O5   CG2O5   OG2D3     9  1.800000e+02  8.368000e-02      2
 CG3RC1   CG2O5  CG2R61  CG2R61     9  0.000000e+00  0.000000e+00      2
 CG3RC1   CG2O5   CG321   CG301     9  0.000000e+00  8.368000e-01      6
 CG3RC1   CG2O5   CG321   CG301     9  0.000000e+00  6.443360e+00      2
 CG3RC1   CG2O5   CG321   CG301     9  1.800000e+02  2.092000e-01      1
 CG3RC1   CG2O5   CG321   CG301     9  1.800000e+02  5.439200e-01      3
 CG3RC1   CG2O5   CG321   CG311     9  0.000000e+00  3.932960e+00      2
 CG3RC1   CG2O5   CG321   CG311     9  0.000000e+00  1.192440e+01      1
 CG3RC1   CG2O5   CG321   CG311     9  1.800000e+02  4.184000e-01      6
 CG3RC1   CG2O5   CG321   CG311     9  1.800000e+02  1.673600e+00      3
 CG3RC1   CG2O5   CG321   CG321     9  0.000000e+00  7.531200e-01      2
 CG3RC1   CG2O5   CG321   CG321     9  0.000000e+00  4.184000e+00      1
 CG3RC1   CG2O5   CG321   CG321     9  1.800000e+02  2.343040e+00      3
 CG3RC1   CG2O5   CG321   CG321     9  1.800000e+02  3.765600e+00      6
 CG3RC1   CG2O5   CG321    HGA2     9  0.000000e+00  0.000000e+00      3
 CG3RC1   CG2O5  CG3RC1   CG321     9  1.800000e+02  1.380720e+00      6
 CG3RC1   CG2O5  CG3RC1   CG321     9  1.800000e+02  1.924640e+00      3
 CG3RC1   CG2O5  CG3RC1   CG321     9  1.800000e+02  3.472720e+00      2
 CG3RC1   CG2O5  CG3RC1   CG321     9  1.800000e+02  4.895280e+00      1
 CG3RC1   CG2O5  CG3RC1    HGA1     9  1.800000e+02  0.000000e+00      3
 CG3RC1  CG2R61  CG2R61   HGR61     9  1.800000e+02  5.983120e+00      2
 CG3RC1   CG301   CG311   CG301     9  0.000000e+00  8.368000e-01      3
 CG3RC1   CG301   CG311   CG321     9  0.000000e+00  6.276000e-01      3
 CG3RC1   CG301   CG311   CG331     9  0.000000e+00  6.276000e-01      3
 CG3RC1   CG301   CG311    HGA1     9  0.000000e+00  6.276000e-01      3
 CG3RC1   CG301   CG321   CG321     9  0.000000e+00  6.276000e-01      3
 CG3RC1   CG301   CG321    HGA2     9  0.000000e+00  6.276000e-01      3
 CG3RC1   CG301   CG331    HGA3     9  0.000000e+00  8.368000e-01      3
 CG3RC1   CG301   OG311    HGP1     9  0.000000e+00  2.092000e+00      3
 CG3RC1   CG301   OG311    HGP1     9  0.000000e+00  6.276000e+00      1
 CG3RC1   CG301   OG311    HGP1     9  1.800000e+02  1.255200e+00      2
 CG3RC1   CG311   CG311    HGA1     9  0.000000e+00  6.276000e-01      3
 CG3RC1   CG311   CG311   OG302     9  0.000000e+00  1.213360e+00      6
 CG3RC1   CG311   CG311   OG302     9  0.000000e+00  3.598240e+00      4
 CG3RC1   CG311   CG311   OG302     9  0.000000e+00  3.723760e+00      1
 CG3RC1   CG311   CG311   OG302     9  1.800000e+02  2.092000e-01      3
 CG3RC1   CG311   CG311   OG302     9  1.800000e+02  1.757280e+00      2
 CG3RC1   CG311   CG311   OG311     9  0.000000e+00  2.510400e+00      1
 CG3RC1   CG311   CG311   OG311     9  0.000000e+00  2.928800e+00      3
 CG3RC1   CG311   CG321   CG2D1     9  0.000000e+00  8.368000e-01      3
 CG3RC1   CG311   CG321   CG311     9  0.000000e+00  6.276000e-01      3
 CG3RC1   CG311   CG321   CG321     9  0.000000e+00  6.276000e-01      3
 CG3RC1   CG311   CG321    HGA2     9  0.000000e+00  6.276000e-01      3
 CG3RC1   CG311   CG331    HGA3     9  0.000000e+00  8.368000e-01      3
 CG3RC1   CG311  CG3RC1  CG3RC1     9  0.000000e+00  7.949600e-01      3
 CG3RC1   CG311  CG3RC1    HGA1     9  0.000000e+00  0.000000e+00      3
 CG3RC1   CG311   OG311    HGP1     9  0.000000e+00  2.092000e+00      3
 CG3RC1   CG311   OG311    HGP1     9  0.000000e+00  6.276000e+00      1
 CG3RC1   CG311   OG311    HGP1     9  1.800000e+02  1.255200e+00      2
 CG3RC1   CG321   CG321    HGA2     9  0.000000e+00  8.158800e-01      3
 CG3RC1  CG3C41  CG3C41  CG3RC1     9  0.000000e+00  1.757280e+00      3
 CG3RC1  CG3C41  CG3C41  CG3RC1     9  1.800000e+02  1.589920e+00      2
 CG3RC1  CG3C41  CG3C41    HGA1     9  0.000000e+00  0.000000e+00      3
 CG3RC1  CG3C41  CG3C41    HGA2     9  0.000000e+00  0.000000e+00      3
 CG3RC1  CG3C41  CG3RC1  CG3C41     9  1.800000e+02  4.727920e+00      4
 CG3RC1  CG3C41  CG3RC1  CG3C41     9  1.800000e+02  4.033376e+01      3
 CG3RC1  CG3C41  CG3RC1  CG3RC1     9  0.000000e+00  0.000000e+00      2
 CG3RC1  CG3C41  CG3RC1  CG3RC1     9  0.000000e+00  3.138000e+00      3
 CG3RC1  CG3C41  CG3RC1    HGA1     9  0.000000e+00  0.000000e+00      3
 CG3RC1  CG3C41  OG3C51  CG3RC1     9  0.000000e+00  9.204800e-01      4
 CG3RC1  CG3C41  OG3C51  CG3RC1     9  0.000000e+00  2.552240e+00      3
 CG3RC1  CG3RC1  CG3RC1  CG3RC1     9  0.000000e+00  2.259360e+00      3
 CG3RC1  CG3RC1  CG3RC1  CG3RC1     9  1.800000e+02  9.497680e+00      2
 CG3RC1  CG3RC1  CG3RC1    HGA1     9  0.000000e+00  0.000000e+00      3
 CG3RC1  CG3RC1   OG302   CG2O2     9  0.000000e+00  1.255200e-01      2
 CG3RC1  CG3RC1   OG302   CG2O2     9  0.000000e+00  7.949600e-01      1
 CG3RC1  CG3RC1   OG302   CG2O2     9  0.000000e+00  9.623200e-01      3
 CG3RC1  CG3RC1   OG311    HGP1     9  0.000000e+00  1.087840e+00      3
 CG3RC1  CG3RC1   OG311    HGP1     9  1.800000e+02  8.786400e-01      1
 CG3RC1  CG3RC1   OG311    HGP1     9  1.800000e+02  1.840960e+00      2
 CG3RC1  CG3RC1  OG3C51  CG3C41     9  0.000000e+00  0.000000e+00      3
   HGA1   CG311   CG311    HGA1     9  0.000000e+00  8.158800e-01      3
   HGA1   CG311   CG321   CG2D1     9  0.000000e+00  8.368000e-01      3
   HGA1   CG311   CG321   CG2O1     9  0.000000e+00  8.368000e-01      3
   HGA1   CG311   CG321   CG2O2     9  0.000000e+00  8.368000e-01      3
   HGA1   CG311   CG321   CG2O5     9  0.000000e+00  8.368000e-01      3
   HGA1   CG311   CG321  CG2R61     9  0.000000e+00  1.673600e-01      3
   HGA1   CG311   CG321   CG301     9  0.000000e+00  8.158800e-01      3
   HGA1   CG311   CG321   CG311     9  0.000000e+00  8.158800e-01      3
   HGA1   CG311   CG321   CG321     9  0.000000e+00  8.158800e-01      3
   HGA1   CG311   CG321   CG331     9  0.000000e+00  8.368000e-01      3
   HGA1   CG311   CG321  CG3C41     9  0.000000e+00  8.368000e-01      3
   HGA1   CG311   CG321  CG3RC1     9  0.000000e+00  6.276000e-01      3
   HGA1   CG311   CG321   NG2S1     9  0.000000e+00  8.368000e-01      3
   HGA1   CG311   CG321   OG302     9  0.000000e+00  8.158800e-01      3
   HGA1   CG311   CG321   OG311     9  0.000000e+00  8.158800e-01      3
   HGA1   CG311  CG3C41  CG3C41     9  0.000000e+00  0.000000e+00      3
   HGA1   CG311  CG3RC1   CG331     9  0.000000e+00  2.092000e-01      3
   HGA1   CG311  CG3RC1  CG3C41     9  0.000000e+00  0.000000e+00      3
   HGA1   CG311  CG3RC1  CG3RC1     9  0.000000e+00  6.276000e-01      3
   HGA1   CG311  CG3RC1    HGA1     9  0.000000e+00  6.276000e-01      3
   HGA1   CG311  CG3RC1   OG302     9  0.000000e+00  0.000000e+00      3
   HGA1   CG311  CG3RC1   OG311     9  0.000000e+00  0.000000e+00      3
   HGA1   CG311  CG3RC1  OG3C51     9  0.000000e+00  0.000000e+00      3
   HGA1   CG311   NG2S1   CG2O1     9  0.000000e+00  0.000000e+00      1
   HGA1   CG311   NG2S1    HGP1     9  0.000000e+00  0.000000e+00      1
   HGA1   CG311   OG302   CG2O2     9  0.000000e+00  0.000000e+00      3
   HGA1   CG311   OG311    HGP1     9  0.000000e+00  0.000000e+00      3
   HGA1   CG321   NG2S1   CG2O1     9  0.000000e+00  0.000000e+00      1
   HGA1   CG321   NG2S1    HGP1     9  0.000000e+00  0.000000e+00      1
   HGA1  CG3C41  CG3C41    HGA1     9  0.000000e+00  0.000000e+00      3
   HGA1  CG3C41  CG3C41    HGA2     9  0.000000e+00  0.000000e+00      3
   HGA1  CG3C41  CG3RC1   CG321     9  0.000000e+00  0.000000e+00      3
   HGA1  CG3C41  CG3RC1  CG3RC1     9  0.000000e+00  0.000000e+00      3
   HGA1  CG3C41  CG3RC1    HGA1     9  0.000000e+00  0.000000e+00      3
   HGA1  CG3RC1  CG3RC1    HGA1     9  0.000000e+00  6.276000e-01      3
   HGA1  CG3RC1  OG3C51  CG3C41     9  0.000000e+00  1.255200e+00      3
   HGA2   CG321   CG331    HGA3     9  0.000000e+00  6.694400e-01      3
   HGA2   CG321  CG3C41  CG2R61     9  0.000000e+00  0.000000e+00      3
   HGA2   CG321  CG3C41   CG321     9  0.000000e+00  0.000000e+00      3
   HGA2   CG321  CG3C41  CG3C41     9  0.000000e+00  0.000000e+00      3
   HGA2   CG321  CG3C41    HGA1     9  0.000000e+00  0.000000e+00      3
   HGA2   CG321  CG3C41  OG3C51     9  0.000000e+00  0.000000e+00      1
   HGA2   CG321  CG3C41  OG3C51     9  0.000000e+00  0.000000e+00      3
   HGA2   CG321  CG3RC1   CG2O5     9  0.000000e+00  0.000000e+00      3
   HGA2   CG321  CG3RC1   CG321     9  0.000000e+00  7.949600e-01      3
   HGA2   CG321  CG3RC1   CG331     9  0.000000e+00  7.949600e-01      3
   HGA2   CG321  CG3RC1  CG3C41     9  0.000000e+00  0.000000e+00      3
   HGA2   CG321  CG3RC1  CG3RC1     9  0.000000e+00  6.276000e-01      3
   HGA2   CG321  CG3RC1    HGA1     9  0.000000e+00  6.276000e-01      3
   HGA2   CG321  CG3RC1  OG3C51     9  0.000000e+00  0.000000e+00      3
   HGA2   CG321   NG2S1   CG2O1     9  0.000000e+00  0.000000e+00      3
   HGA2   CG321   NG2S1    HGP1     9  0.000000e+00  0.000000e+00      3
   HGA2   CG321   OG302   CG2O2     9  0.000000e+00  0.000000e+00      3
   HGA2  CG3C41  CG3C41    HGA2     9  0.000000e+00  0.000000e+00      3
   HGA2  CG3C41  CG3RC1   CG311     9  0.000000e+00  0.000000e+00      3
   HGA2  CG3C41  CG3RC1   CG321     9  0.000000e+00  0.000000e+00      3
   HGA2  CG3C41  CG3RC1  CG3C41     9  0.000000e+00  0.000000e+00      3
   HGA2  CG3C41  CG3RC1  CG3RC1     9  0.000000e+00  0.000000e+00      3
   HGA2  CG3C41  CG3RC1    HGA1     9  0.000000e+00  0.000000e+00      3
   HGA2  CG3C41  CG3RC1   OG302     9  0.000000e+00  0.000000e+00      3
   HGA2  CG3C41  OG3C51  CG3C41     9  0.000000e+00  1.255200e+00      3
   HGA2  CG3C41  OG3C51  CG3RC1     9  0.000000e+00  1.255200e+00      3
   HGA3   CG331   CG331    HGA3     9  0.000000e+00  6.485200e-01      3
   HGA3   CG331  CG3C41   CG331     9  0.000000e+00  6.694400e-01      3
   HGA3   CG331  CG3C41  CG3C41     9  1.800000e+02  6.276000e-01      3
   HGA3   CG331  CG3C41    HGA1     9  0.000000e+00  6.276000e-01      3
   HGA3   CG331  CG3RC1   CG2O5     9  0.000000e+00  0.000000e+00      3
   HGA3   CG331  CG3RC1   CG311     9  1.800000e+02  6.276000e-01      3
   HGA3   CG331  CG3RC1   CG321     9  0.000000e+00  6.694400e-01      3
   HGA3   CG331  CG3RC1  CG3RC1     9  1.800000e+02  6.276000e-01      3
   HGA3   CG331  CG3RC1  OG3C51     9  0.000000e+00  6.694400e-01      3
   HGA3   CG331   NG2S1   CG2O1     9  0.000000e+00  0.000000e+00      3
   HGA3   CG331   NG2S1    HGP1     9  0.000000e+00  0.000000e+00      3
   HGA3   CG331   OG302   CG2O2     9  0.000000e+00  0.000000e+00      3
   HGA3   CG331   OG311    HGP1     9  0.000000e+00  7.531200e-01      3
   HGP1   NG2S1   NG2S1    HGP1     9  0.000000e+00  9.623200e-01      2
   HGP1   NG2S1   NG2S1    HGP1     9  0.000000e+00  1.213360e+00      3
   HGP1   NG2S1   NG2S1    HGP1     9  0.000000e+00  1.460216e+01      1
   HGP1   NG2S1   NG2S1    HGP1     9  1.800000e+02  1.046000e+01      2
   HGP1   NG2S1   OG311    HGP1     9  0.000000e+00  6.845024e+00      1
   HGP1   NG2S1   OG311    HGP1     9  1.800000e+02  2.180701e+00      2
  NG2S1   CG2O1   CG2O1   OG2D1     9  0.000000e+00  8.368000e-02      2
  NG2S1   CG2O1   CG2O1   OG2D1     9  0.000000e+00  5.857600e-01      6
  NG2S1   CG2O1   CG2O1   OG2D1     9  0.000000e+00  2.133840e+00      3
  NG2S1   CG2O1  CG2R61  CG2R61     9  1.800000e+02  4.184000e+00      2
  NG2S1   CG2O1   CG301   CG321     9  0.000000e+00  0.000000e+00      1
  NG2S1   CG2O1   CG301   CG331     9  0.000000e+00  0.000000e+00      1
  NG2S1   CG2O1   CG301  CG3RC1     9  0.000000e+00  2.301200e+00      2
  NG2S1   CG2O1   CG301  CG3RC1     9  0.000000e+00  2.447640e+01      1
  NG2S1   CG2O1   CG311   CG2D1     9  1.800000e+02  4.184000e-01      1
  NG2S1   CG2O1   CG311   CG2D1     9  1.800000e+02  6.066800e+00      3
  NG2S1   CG2O1   CG311   CG2O5     9  0.000000e+00  5.020800e-01      1
  NG2S1   CG2O1   CG311   CG2O5     9  0.000000e+00  1.171520e+00      3
  NG2S1   CG2O1   CG311   CG2O5     9  0.000000e+00  2.510400e+00      1
  NG2S1   CG2O1   CG311   CG2O5     9  0.000000e+00  4.769760e+00      2
  NG2S1   CG2O1   CG311   CG2O5     9  1.800000e+02  1.213360e+00      4
  NG2S1   CG2O1   CG311   CG301     9  0.000000e+00  0.000000e+00      1
  NG2S1   CG2O1   CG311   CG311     9  0.000000e+00  0.000000e+00      1
  NG2S1   CG2O1   CG311   CG321     9  0.000000e+00  0.000000e+00      1
  NG2S1   CG2O1   CG311   CG331     9  0.000000e+00  0.000000e+00      1
  NG2S1   CG2O1   CG311    HGA1     9  0.000000e+00  0.000000e+00      1
  NG2S1   CG2O1   CG311   NG2S1     9  0.000000e+00  2.510400e+00      1
  NG2S1   CG2O1   CG311   OG302     9  0.000000e+00  2.510400e+00      1
  NG2S1   CG2O1   CG311   OG311     9  0.000000e+00  1.908741e+00      3
  NG2S1   CG2O1   CG311   OG311     9  0.000000e+00  1.074619e+01      1
  NG2S1   CG2O1   CG321   CG2D1     9  0.000000e+00  0.000000e+00      2
  NG2S1   CG2O1   CG321   CG2D1     9  0.000000e+00  2.552240e+00      3
  NG2S1   CG2O1   CG321   CG2D1     9  0.000000e+00  2.845120e+00      1
  NG2S1   CG2O1   CG321   CG2O1     9  0.000000e+00  2.092000e-01      4
  NG2S1   CG2O1   CG321   CG2O1     9  0.000000e+00  7.824080e+00      2
  NG2S1   CG2O1   CG321   CG2O1     9  0.000000e+00  1.255200e+01      1
  NG2S1   CG2O1   CG321   CG2O1     9  1.800000e+02  1.171520e+00      3
  NG2S1   CG2O1   CG321   CG2O5     9  0.000000e+00  0.000000e+00      2
  NG2S1   CG2O1   CG321   CG2O5     9  0.000000e+00  1.255200e-01      3
  NG2S1   CG2O1   CG321   CG2O5     9  0.000000e+00  9.204800e-01      1
  NG2S1   CG2O1   CG321   CG2O5     9  0.000000e+00  2.510400e+00      1
  NG2S1   CG2O1   CG321  CG2R61     9  0.000000e+00  2.301200e+00      3
  NG2S1   CG2O1   CG321  CG2R61     9  1.800000e+02  8.786400e-01      1
  NG2S1   CG2O1   CG321   CG301     9  0.000000e+00  0.000000e+00      1
  NG2S1   CG2O1   CG321   CG311     9  0.000000e+00  0.000000e+00      1
  NG2S1   CG2O1   CG321   CG321     9  0.000000e+00  0.000000e+00      1
  NG2S1   CG2O1   CG321   CG331     9  0.000000e+00  0.000000e+00      1
  NG2S1   CG2O1   CG321    HGA1     9  0.000000e+00  0.000000e+00      1
  NG2S1   CG2O1   CG321    HGA2     9  0.000000e+00  0.000000e+00      3
  NG2S1   CG2O1   CG321   NG2S1     9  0.000000e+00  2.510400e+00      1
  NG2S1   CG2O1   CG321   OG302     9  0.000000e+00  1.673600e+00      1
  NG2S1   CG2O1   CG321   OG311     9  0.000000e+00  1.673600e+00      1
  NG2S1   CG2O1   CG331    HGA3     9  0.000000e+00  0.000000e+00      3
  NG2S1   CG2O1  CG3RC1    HGA1     9  0.000000e+00  0.000000e+00      2
  NG2S1   CG2O1  CG3RC1    HGA1     9  1.800000e+02  0.000000e+00      1
  NG2S1  CG2R61  CG2R61   HGR61     9  1.800000e+02  1.004160e+01      2
  NG2S1  CG2R61  CG2R61   OG311     9  1.800000e+02  1.004160e+01      2
  NG2S1   CG301   CG311   CG2O5     9  0.000000e+00  2.217520e+00      3
  NG2S1   CG301   CG311  CG2R61     9  1.800000e+02  0.000000e+00      3
  NG2S1   CG301   CG311   CG311     9  0.000000e+00  8.368000e-01      3
  NG2S1   CG301   CG311   CG321     9  0.000000e+00  8.368000e-01      3
  NG2S1   CG301   CG311    HGA1     9  0.000000e+00  8.368000e-01      3
  NG2S1   CG301   CG311   OG311     9  0.000000e+00  8.368000e-01      3
  NG2S1   CG301   CG321   CG2O5     9  0.000000e+00  1.924640e+00      3
  NG2S1   CG301   CG321   CG301     9  0.000000e+00  8.368000e-01      3
  NG2S1   CG301   CG321   CG311     9  0.000000e+00  8.368000e-01      3
  NG2S1   CG301   CG321   CG321     9  0.000000e+00  8.368000e-01      3
  NG2S1   CG301   CG321   CG331     9  0.000000e+00  8.368000e-01      3
  NG2S1   CG301   CG321    HGA2     9  0.000000e+00  8.368000e-01      3
  NG2S1   CG301   CG331    HGA3     9  0.000000e+00  8.368000e-01      3
  NG2S1   CG301   OG311    HGP1     9  0.000000e+00  2.970640e+00      3
  NG2S1   CG301   OG311    HGP1     9  0.000000e+00  3.514560e+00      2
  NG2S1   CG301   OG311    HGP1     9  1.800000e+02  1.297040e+00      1
  NG2S1   CG311   CG311    HGA1     9  0.000000e+00  8.368000e-01      3
  NG2S1   CG311   CG311   OG311     9  0.000000e+00  8.368000e-01      3
  NG2S1   CG311   CG321   CG2D1     9  1.800000e+02  5.020800e-01      3
  NG2S1   CG311   CG321   CG2D1     9  1.800000e+02  4.602400e+00      2
  NG2S1   CG311   CG321   CG2O1     9  0.000000e+00  8.368000e-01      3
  NG2S1   CG311   CG321   CG2O5     9  0.000000e+00  8.368000e-01      3
  NG2S1   CG311   CG321  CG2R61     9  0.000000e+00  8.368000e-01      3
  NG2S1   CG311   CG321   CG301     9  0.000000e+00  8.368000e-01      3
  NG2S1   CG311   CG321   CG311     9  0.000000e+00  8.368000e-01      3
  NG2S1   CG311   CG321   CG321     9  0.000000e+00  8.368000e-01      3
  NG2S1   CG311   CG321   CG331     9  0.000000e+00  8.368000e-01      3
  NG2S1   CG311   CG321    HGA2     9  0.000000e+00  8.368000e-01      3
  NG2S1   CG311   CG321   NG2S1     9  0.000000e+00  8.368000e-01      3
  NG2S1   CG311   CG321   OG302     9  0.000000e+00  8.368000e-01      3
  NG2S1   CG311   CG321   OG311     9  0.000000e+00  8.368000e-01      3
  NG2S1   CG311   CG331    HGA3     9  0.000000e+00  8.368000e-01      3
  NG2S1   CG311   NG2S1    HGP1     9  0.000000e+00  7.531200e-01      1
  NG2S1   CG311   NG2S1    HGP1     9  0.000000e+00  4.476880e+00      2
  NG2S1   CG311   OG311    HGP1     9  0.000000e+00  5.857600e-01      3
  NG2S1   CG311   OG311    HGP1     9  0.000000e+00  2.928800e+00      2
  NG2S1   CG311   OG311    HGP1     9  0.000000e+00  5.439200e+00      1
  NG2S1   CG321   CG321    HGA2     9  0.000000e+00  8.158800e-01      3
  NG2S1   CG321   CG321   NG2S1     9  0.000000e+00  7.949600e-01      3
  NG2S1   CG321   CG321   OG302     9  0.000000e+00  8.368000e-01      3
  NG2S1   CG321   CG321   OG311     9  0.000000e+00  8.368000e-01      3
  NG2S1   CG321   CG331    HGA3     9  0.000000e+00  8.158800e-01      3
  NG2S1  CG3C41  CG3C41    HGA2     9  0.000000e+00  0.000000e+00      3
  OG2D1   CG2O1   CG2O1   OG2D1     9  0.000000e+00  2.928800e-01      6
  OG2D1   CG2O1   CG2O1   OG2D1     9  0.000000e+00  8.368000e-01      2
  OG2D1   CG2O1   CG2O1   OG2D1     9  1.800000e+02  1.673600e+00      3
  OG2D1   CG2O1  CG2R61  CG2R61     9  1.800000e+02  4.184000e+00      2
  OG2D1   CG2O1   CG301   CG311     9  0.000000e+00  5.857600e+00      1
  OG2D1   CG2O1   CG301   CG321     9  0.000000e+00  5.857600e+00      1
  OG2D1   CG2O1   CG301   CG331     9  0.000000e+00  5.857600e+00      1
  OG2D1   CG2O1   CG301  CG3RC1     9  0.000000e+00  4.602400e-01      2
  OG2D1   CG2O1   CG301  CG3RC1     9  1.800000e+02  1.673600e-01      1
  OG2D1   CG2O1   CG301   OG311     9  1.800000e+02  7.029120e+00      2
  OG2D1   CG2O1   CG311   CG2D1     9  0.000000e+00  5.648400e+00      3
  OG2D1   CG2O1   CG311   CG2D1     9  1.800000e+02  1.192440e+01      2
  OG2D1   CG2O1   CG311   CG2O1     9  0.000000e+00  1.506240e+00      4
  OG2D1   CG2O1   CG311   CG2O1     9  0.000000e+00  1.548080e+00      2
  OG2D1   CG2O1   CG311   CG2O1     9  1.800000e+02  5.439200e-01      3
  OG2D1   CG2O1   CG311   CG2O5     9  0.000000e+00  0.000000e+00      1
  OG2D1   CG2O1   CG311   CG2O5     9  0.000000e+00  1.673600e-01      2
  OG2D1   CG2O1   CG311   CG2O5     9  0.000000e+00  8.368000e-01      3
  OG2D1   CG2O1   CG311  CG2R61     9  0.000000e+00  3.932960e+00      3
  OG2D1   CG2O1   CG311  CG2R61     9  1.800000e+02  2.803280e+00      2
  OG2D1   CG2O1   CG311   CG301     9  0.000000e+00  5.857600e+00      1
  OG2D1   CG2O1   CG311   CG311     9  0.000000e+00  5.857600e+00      1
  OG2D1   CG2O1   CG311   CG321     9  0.000000e+00  5.857600e+00      1
  OG2D1   CG2O1   CG311   CG331     9  0.000000e+00  5.857600e+00      1
  OG2D1   CG2O1   CG311    HGA1     9  0.000000e+00  0.000000e+00      1
  OG2D1   CG2O1   CG311   NG2S1     9  0.000000e+00  0.000000e+00      1
  OG2D1   CG2O1   CG311   OG302     9  1.800000e+02  2.301200e+00      2
  OG2D1   CG2O1   CG311   OG311     9  1.800000e+02  7.028702e+00      2
  OG2D1   CG2O1   CG321   CG2D1     9  0.000000e+00  0.000000e+00      2
  OG2D1   CG2O1   CG321   CG2D1     9  0.000000e+00  4.100320e+00      3
  OG2D1   CG2O1   CG321   CG2O1     9  0.000000e+00  3.138000e+00      2
  OG2D1   CG2O1   CG321   CG2O1     9  1.800000e+02  0.000000e+00      4
  OG2D1   CG2O1   CG321   CG2O1     9  1.800000e+02  2.092000e-01      3
  OG2D1   CG2O1   CG321   CG2O5     9  0.000000e+00  0.000000e+00      1
  OG2D1   CG2O1   CG321   CG2O5     9  1.800000e+02  2.217520e+00      3
  OG2D1   CG2O1   CG321   CG2O5     9  1.800000e+02  1.025080e+01      2
  OG2D1   CG2O1   CG321  CG2R61     9  0.000000e+00  3.932960e+00      3
  OG2D1   CG2O1   CG321  CG2R61     9  1.800000e+02  2.803280e+00      2
  OG2D1   CG2O1   CG321   CG301     9  1.800000e+02  2.092000e-01      6
  OG2D1   CG2O1   CG321   CG311     9  1.800000e+02  2.092000e-01      6
  OG2D1   CG2O1   CG321   CG321     9  1.800000e+02  2.092000e-01      6
  OG2D1   CG2O1   CG321   CG331     9  1.800000e+02  2.092000e-01      6
  OG2D1   CG2O1   CG321    HGA2     9  1.800000e+02  0.000000e+00      3
  OG2D1   CG2O1   CG321   NG2S1     9  0.000000e+00  0.000000e+00      1
  OG2D1   CG2O1   CG321   OG302     9  1.800000e+02  2.301200e+00      2
  OG2D1   CG2O1   CG321   OG311     9  1.800000e+02  2.301200e+00      2
  OG2D1   CG2O1   CG331    HGA3     9  1.800000e+02  0.000000e+00      3
  OG2D1   CG2O1  CG3C41  CG3C41     9  0.000000e+00  4.184000e-01      6
  OG2D1   CG2O1  CG3C41  CG3C41     9  0.000000e+00  9.497680e+00      2
  OG2D1   CG2O1  CG3C41  CG3C41     9  1.800000e+02  6.694400e-01      4
  OG2D1   CG2O1  CG3C41  CG3C41     9  1.800000e+02  7.531200e-01      1
  OG2D1   CG2O1  CG3C41    HGA1     9  0.000000e+00  0.000000e+00      1
  OG2D1   CG2O1  CG3C41    HGA1     9  0.000000e+00  0.000000e+00      2
  OG2D1   CG2O1  CG3C41   NG2S1     9  0.000000e+00  4.058480e+00      4
  OG2D1   CG2O1  CG3C41   NG2S1     9  1.800000e+02  8.284320e+00      2
  OG2D1   CG2O1  CG3RC1  CG3RC1     9  0.000000e+00  1.171520e+00      2
  OG2D1   CG2O1  CG3RC1  CG3RC1     9  1.800000e+02  6.192320e+00      1
  OG2D1   CG2O1  CG3RC1    HGA1     9  0.000000e+00  0.000000e+00      1
  OG2D1   CG2O1  CG3RC1    HGA1     9  0.000000e+00  0.000000e+00      2
  OG2D1   CG2O1   NG2S1   CG2O1     9  1.800000e+02  2.426720e+00      2
  OG2D1   CG2O1   NG2S1   CG2O1     9  1.800000e+02  1.046000e+01      2
  OG2D1   CG2O1   NG2S1  CG2R61     9  1.800000e+02  1.046000e+01      2
  OG2D1   CG2O1   NG2S1   CG301     9  1.800000e+02  1.046000e+01      2
  OG2D1   CG2O1   NG2S1   CG311     9  1.800000e+02  1.046000e+01      2
  OG2D1   CG2O1   NG2S1   CG321     9  1.800000e+02  1.046000e+01      2
  OG2D1   CG2O1   NG2S1   CG331     9  1.800000e+02  1.046000e+01      2
  OG2D1   CG2O1   NG2S1  CG3C41     9  1.800000e+02  1.046000e+01      2
  OG2D1   CG2O1   NG2S1  CG3RC1     9  1.800000e+02  1.046000e+01      2
  OG2D1   CG2O1   NG2S1    HGP1     9  1.800000e+02  1.046000e+01      2
  OG2D1   CG2O1   NG2S1   NG2S1     9  1.800000e+02  9.706880e+00      2
  OG2D1   CG2O1   NG2S1   NG2S1     9  1.800000e+02  1.046000e+01      2
  OG2D1   CG2O1   NG2S1   OG311     9  1.800000e+02  2.372328e-01      2
  OG2D1   CG2O2  CG2R61  CG2R61     9  1.800000e+02  4.288600e+00      2
  OG2D1   CG2O2   CG301   CG2O2     9  0.000000e+00  0.000000e+00      1
  OG2D1   CG2O2   CG301   CG2O5     9  0.000000e+00  0.000000e+00      1
  OG2D1   CG2O2   CG301   CG311     9  1.800000e+02  2.092000e-01      6
  OG2D1   CG2O2   CG301   CG321     9  1.800000e+02  2.092000e-01      6
  OG2D1   CG2O2   CG301   CG331     9  1.800000e+02  2.092000e-01      6
  OG2D1   CG2O2   CG301   NG2S1     9  0.000000e+00  0.000000e+00      1
  OG2D1   CG2O2   CG301   OG302     9  0.000000e+00  0.000000e+00      2
  OG2D1   CG2O2   CG301   OG311     9  0.000000e+00  0.000000e+00      2
  OG2D1   CG2O2   CG311   CG2O2     9  0.000000e+00  0.000000e+00      1
  OG2D1   CG2O2   CG311   CG2O5     9  0.000000e+00  0.000000e+00      1
  OG2D1   CG2O2   CG311   CG2O5     9  1.800000e+02  5.439200e-01      6
  OG2D1   CG2O2   CG311   CG2O5     9  1.800000e+02  1.046000e+00      2
  OG2D1   CG2O2   CG311  CG2R61     9  0.000000e+00  2.928800e+00      1
  OG2D1   CG2O2   CG311  CG2R61     9  1.800000e+02  1.255200e+00      3
  OG2D1   CG2O2   CG311   CG301     9  1.800000e+02  2.092000e-01      6
  OG2D1   CG2O2   CG311   CG311     9  1.800000e+02  2.092000e-01      6
  OG2D1   CG2O2   CG311   CG321     9  1.800000e+02  2.092000e-01      6
  OG2D1   CG2O2   CG311   CG331     9  1.800000e+02  2.092000e-01      6
  OG2D1   CG2O2   CG311  CG3RC1     9  0.000000e+00  3.723760e+00      4
  OG2D1   CG2O2   CG311  CG3RC1     9  1.800000e+02  2.343040e+00      6
  OG2D1   CG2O2   CG311    HGA1     9  0.000000e+00  0.000000e+00      3
  OG2D1   CG2O2   CG311   NG2S1     9  0.000000e+00  0.000000e+00      1
  OG2D1   CG2O2   CG311   OG302     9  0.000000e+00  0.000000e+00      2
  OG2D1   CG2O2   CG311   OG311     9  1.800000e+02  2.301200e+00      2
  OG2D1   CG2O2   CG321  CG2R61     9  0.000000e+00  3.556400e+00      1
  OG2D1   CG2O2   CG321   CG301     9  1.800000e+02  0.000000e+00      6
  OG2D1   CG2O2   CG321   CG311     9  1.800000e+02  0.000000e+00      6
  OG2D1   CG2O2   CG321   CG321     9  1.800000e+02  2.092000e-01      6
  OG2D1   CG2O2   CG321   CG331     9  1.800000e+02  2.092000e-01      6
  OG2D1   CG2O2   CG321    HGA2     9  1.800000e+02  0.000000e+00      6
  OG2D1   CG2O2   CG321   NG2S1     9  0.000000e+00  0.000000e+00      1
  OG2D1   CG2O2   CG331    HGA3     9  1.800000e+02  0.000000e+00      6
  OG2D1   CG2O2  CG3C41  CG3C41     9  1.800000e+02  1.464400e+00      3
  OG2D1   CG2O2  CG3C41  CG3C41     9  1.800000e+02  1.715440e+00      2
  OG2D1   CG2O2  CG3C41  CG3RC1     9  0.000000e+00  7.949600e-01      2
  OG2D1   CG2O2  CG3C41  CG3RC1     9  1.800000e+02  3.347200e-01      6
  OG2D1   CG2O2  CG3C41    HGA1     9  1.800000e+02  0.000000e+00      3
  OG2D1   CG2O2  CG3RC1   NG2S1     9  1.800000e+02  2.175680e+00      1
  OG2D1   CG2O2  CG3RC1   NG2S1     9  1.800000e+02  5.564720e+00      2
  OG2D1   CG2O2   OG302   CG2O2     9  1.800000e+02  4.037560e+00      1
  OG2D1   CG2O2   OG302   CG2O2     9  1.800000e+02  1.610840e+01      2
  OG2D1   CG2O2   OG302  CG2R61     9  0.000000e+00  0.000000e+00      2
  OG2D1   CG2O2   OG302  CG2R61     9  0.000000e+00  7.907760e+00      1
  OG2D1   CG2O2   OG302   CG301     9  1.800000e+02  4.037560e+00      1
  OG2D1   CG2O2   OG302   CG301     9  1.800000e+02  1.610840e+01      2
  OG2D1   CG2O2   OG302   CG311     9  1.800000e+02  4.037560e+00      1
  OG2D1   CG2O2   OG302   CG311     9  1.800000e+02  1.610840e+01      2
  OG2D1   CG2O2   OG302   CG321     9  1.800000e+02  4.037560e+00      1
  OG2D1   CG2O2   OG302   CG321     9  1.800000e+02  1.610840e+01      2
  OG2D1   CG2O2   OG302   CG331     9  1.800000e+02  4.037560e+00      1
  OG2D1   CG2O2   OG302   CG331     9  1.800000e+02  1.610840e+01      2
  OG2D1   CG2O2   OG302  CG3RC1     9  1.800000e+02  4.037560e+00      1
  OG2D1   CG2O2   OG302  CG3RC1     9  1.800000e+02  1.610840e+01      2
  OG2D1   CG2O2   OG311    HGP1     9  1.800000e+02  8.577200e+00      2
  OG2D3   CG2O5   CG2O5   OG2D3     9  1.800000e+02  9.773824e-01      2
  OG2D3   CG2O5  CG2R61  CG2R61     9  1.800000e+02  6.631640e+00      2
  OG2D3   CG2O5   CG301   CG2O2     9  0.000000e+00  0.000000e+00      1
  OG2D3   CG2O5   CG301   CG311     9  0.000000e+00  8.368000e-02      1
  OG2D3   CG2O5   CG301   CG311     9  0.000000e+00  2.217520e+00      2
  OG2D3   CG2O5   CG301   CG311     9  0.000000e+00  5.313680e+00      3
  OG2D3   CG2O5   CG301   CG311     9  1.800000e+02  1.422560e+00      6
  OG2D3   CG2O5   CG301   CG321     9  0.000000e+00  8.368000e-02      1
  OG2D3   CG2O5   CG301   CG321     9  0.000000e+00  1.255200e-01      6
  OG2D3   CG2O5   CG301   CG321     9  0.000000e+00  2.217520e+00      2
  OG2D3   CG2O5   CG301   CG321     9  0.000000e+00  5.313680e+00      3
  OG2D3   CG2O5   CG301   CG321     9  1.800000e+02  2.719600e-01      3
  OG2D3   CG2O5   CG301   CG321     9  1.800000e+02  7.531200e-01      2
  OG2D3   CG2O5   CG301   CG321     9  1.800000e+02  1.422560e+00      6
  OG2D3   CG2O5   CG301   CG321     9  1.800000e+02  3.138000e+00      1
  OG2D3   CG2O5   CG301   CG331     9  0.000000e+00  0.000000e+00      1
  OG2D3   CG2O5   CG301   CG331     9  0.000000e+00  8.368000e-02      2
  OG2D3   CG2O5   CG301   CG331     9  0.000000e+00  1.255200e-01      6
  OG2D3   CG2O5   CG301   CG331     9  0.000000e+00  5.439200e-01      6
  OG2D3   CG2O5   CG301   CG331     9  1.800000e+02  2.719600e-01      3
  OG2D3   CG2O5   CG301   CG331     9  1.800000e+02  4.602400e-01      3
  OG2D3   CG2O5   CG301   CG331     9  1.800000e+02  7.531200e-01      2
  OG2D3   CG2O5   CG301   CG331     9  1.800000e+02  1.171520e+00      4
  OG2D3   CG2O5   CG301   CG331     9  1.800000e+02  3.138000e+00      1
  OG2D3   CG2O5   CG301   OG311     9  0.000000e+00  0.000000e+00      2
  OG2D3   CG2O5   CG311   CG2D1     9  0.000000e+00  1.087840e+00      3
  OG2D3   CG2O5   CG311   CG2D1     9  1.800000e+02  5.564720e+00      1
  OG2D3   CG2O5   CG311   CG2O1     9  0.000000e+00  0.000000e+00      1
  OG2D3   CG2O5   CG311   CG2O1     9  0.000000e+00  4.476880e+00      2
  OG2D3   CG2O5   CG311   CG2O1     9  1.800000e+02  1.799120e+00      4
  OG2D3   CG2O5   CG311   CG2O2     9  0.000000e+00  0.000000e+00      1
  OG2D3   CG2O5   CG311   CG2O2     9  0.000000e+00  7.531200e-01      2
  OG2D3   CG2O5   CG311   CG2O2     9  1.800000e+02  4.184000e-01      6
  OG2D3   CG2O5   CG311   CG2O5     9  0.000000e+00  0.000000e+00      1
  OG2D3   CG2O5   CG311   CG2O5     9  0.000000e+00  5.439200e-01      3
  OG2D3   CG2O5   CG311   CG2O5     9  1.800000e+02  1.255200e-01      2
  OG2D3   CG2O5   CG311  CG2R61     9  0.000000e+00  0.000000e+00      1
  OG2D3   CG2O5   CG311  CG2R61     9  0.000000e+00  0.000000e+00      2
  OG2D3   CG2O5   CG311  CG2R61     9  1.800000e+02  2.677760e+00      3
  OG2D3   CG2O5   CG311   CG301     9  0.000000e+00  1.255200e-01      6
  OG2D3   CG2O5   CG311   CG301     9  1.800000e+02  2.928800e-01      3
  OG2D3   CG2O5   CG311   CG301     9  1.800000e+02  7.531200e-01      2
  OG2D3   CG2O5   CG311   CG301     9  1.800000e+02  3.138000e+00      1
  OG2D3   CG2O5   CG311   CG311     9  0.000000e+00  1.255200e-01      6
  OG2D3   CG2O5   CG311   CG311     9  1.800000e+02  2.719600e-01      3
  OG2D3   CG2O5   CG311   CG311     9  1.800000e+02  2.928800e-01      3
  OG2D3   CG2O5   CG311   CG311     9  1.800000e+02  7.531200e-01      2
  OG2D3   CG2O5   CG311   CG311     9  1.800000e+02  3.138000e+00      1
  OG2D3   CG2O5   CG311   CG321     9  0.000000e+00  1.255200e-01      6
  OG2D3   CG2O5   CG311   CG321     9  1.800000e+02  2.719600e-01      3
  OG2D3   CG2O5   CG311   CG321     9  1.800000e+02  2.928800e-01      3
  OG2D3   CG2O5   CG311   CG321     9  1.800000e+02  7.531200e-01      2
  OG2D3   CG2O5   CG311   CG321     9  1.800000e+02  3.138000e+00      1
  OG2D3   CG2O5   CG311   CG331     9  0.000000e+00  1.255200e-01      6
  OG2D3   CG2O5   CG311   CG331     9  1.800000e+02  2.719600e-01      3
  OG2D3   CG2O5   CG311   CG331     9  1.800000e+02  2.928800e-01      3
  OG2D3   CG2O5   CG311   CG331     9  1.800000e+02  7.531200e-01      2
  OG2D3   CG2O5   CG311   CG331     9  1.800000e+02  3.138000e+00      1
  OG2D3   CG2O5   CG311    HGA1     9  0.000000e+00  0.000000e+00      1
  OG2D3   CG2O5   CG311   NG2S1     9  0.000000e+00  0.000000e+00      1
  OG2D3   CG2O5   CG311   OG302     9  0.000000e+00  0.000000e+00      2
  OG2D3   CG2O5   CG311   OG302     9  0.000000e+00  2.510400e-01      6
  OG2D3   CG2O5   CG311   OG302     9  1.800000e+02  7.112800e-01      2
  OG2D3   CG2O5   CG311   OG311     9  0.000000e+00  0.000000e+00      2
  OG2D3   CG2O5   CG321   CG2D1     9  0.000000e+00  0.000000e+00      1
  OG2D3   CG2O5   CG321   CG2D1     9  1.800000e+02  2.468560e+00      1
  OG2D3   CG2O5   CG321   CG2D1     9  1.800000e+02  3.347200e+00      2
  OG2D3   CG2O5   CG321   CG2O1     9  0.000000e+00  0.000000e+00      1
  OG2D3   CG2O5   CG321   CG2O1     9  0.000000e+00  2.594080e+00      4
  OG2D3   CG2O5   CG321   CG2O1     9  0.000000e+00  3.054320e+00      2
  OG2D3   CG2O5   CG321   CG2O1     9  0.000000e+00  4.602400e+00      3
  OG2D3   CG2O5   CG321   CG2O5     9  0.000000e+00  1.548080e+00      4
  OG2D3   CG2O5   CG321   CG2O5     9  0.000000e+00  3.598240e+00      2
  OG2D3   CG2O5   CG321   CG2O5     9  0.000000e+00  5.564720e+00      3
  OG2D3   CG2O5   CG321   CG301     9  0.000000e+00  1.255200e-01      6
  OG2D3   CG2O5   CG321   CG301     9  1.800000e+02  2.719600e-01      3
  OG2D3   CG2O5   CG321   CG301     9  1.800000e+02  2.928800e-01      3
  OG2D3   CG2O5   CG321   CG301     9  1.800000e+02  7.531200e-01      2
  OG2D3   CG2O5   CG321   CG301     9  1.800000e+02  3.138000e+00      1
  OG2D3   CG2O5   CG321   CG311     9  0.000000e+00  1.255200e-01      6
  OG2D3   CG2O5   CG321   CG311     9  1.800000e+02  2.719600e-01      3
  OG2D3   CG2O5   CG321   CG311     9  1.800000e+02  2.928800e-01      3
  OG2D3   CG2O5   CG321   CG311     9  1.800000e+02  7.531200e-01      2
  OG2D3   CG2O5   CG321   CG311     9  1.800000e+02  3.138000e+00      1
  OG2D3   CG2O5   CG321   CG321     9  0.000000e+00  1.255200e-01      6
  OG2D3   CG2O5   CG321   CG321     9  1.800000e+02  2.719600e-01      3
  OG2D3   CG2O5   CG321   CG321     9  1.800000e+02  7.531200e-01      2
  OG2D3   CG2O5   CG321   CG321     9  1.800000e+02  3.138000e+00      1
  OG2D3   CG2O5   CG321   CG331     9  0.000000e+00  1.255200e-01      6
  OG2D3   CG2O5   CG321   CG331     9  1.800000e+02  2.719600e-01      3
  OG2D3   CG2O5   CG321   CG331     9  1.800000e+02  7.531200e-01      2
  OG2D3   CG2O5   CG321   CG331     9  1.800000e+02  3.138000e+00      1
  OG2D3   CG2O5   CG321  CG3RC1     9  0.000000e+00  1.673600e-01      6
  OG2D3   CG2O5   CG321  CG3RC1     9  0.000000e+00  2.928800e+00      2
  OG2D3   CG2O5   CG321  CG3RC1     9  0.000000e+00  3.681920e+00      1
  OG2D3   CG2O5   CG321  CG3RC1     9  1.800000e+02  2.259360e+00      3
  OG2D3   CG2O5   CG321  CG3RC1     9  1.800000e+02  3.305360e+00      4
  OG2D3   CG2O5   CG321    HGA2     9  0.000000e+00  0.000000e+00      3
  OG2D3   CG2O5   CG331    HGA3     9  0.000000e+00  0.000000e+00      3
  OG2D3   CG2O5  CG3RC1   CG321     9  0.000000e+00  8.368000e-01      3
  OG2D3   CG2O5  CG3RC1   CG321     9  0.000000e+00  2.468560e+00      2
  OG2D3   CG2O5  CG3RC1   CG321     9  1.800000e+02  1.380720e+00      1
  OG2D3   CG2O5  CG3RC1   CG321     9  1.800000e+02  1.548080e+00      6
  OG2D3   CG2O5  CG3RC1   CG331     9  0.000000e+00  1.924640e+00      1
  OG2D3   CG2O5  CG3RC1   CG331     9  1.800000e+02  8.368000e-02      3
  OG2D3   CG2O5  CG3RC1   CG331     9  1.800000e+02  3.765600e-01      6
  OG2D3   CG2O5  CG3RC1   CG331     9  1.800000e+02  1.104576e+01      2
  OG2D3   CG2O5  CG3RC1  CG3RC1     9  0.000000e+00  0.000000e+00      2
  OG2D3   CG2O5  CG3RC1    HGA1     9  0.000000e+00  0.000000e+00      3
  OG302   CG2O2  CG2R61  CG2R61     9  1.800000e+02  3.556400e+00      2
  OG302   CG2O2   CG301   CG2O2     9  0.000000e+00  0.000000e+00      1
  OG302   CG2O2   CG301   CG2O5     9  0.000000e+00  0.000000e+00      1
  OG302   CG2O2   CG301   CG311     9  1.800000e+02  2.092000e-01      6
  OG302   CG2O2   CG301   CG321     9  1.800000e+02  2.092000e-01      6
  OG302   CG2O2   CG301   CG331     9  1.800000e+02  2.092000e-01      6
  OG302   CG2O2   CG301   NG2S1     9  0.000000e+00  0.000000e+00      1
  OG302   CG2O2   CG301   OG302     9  1.800000e+02  2.092000e-01      6
  OG302   CG2O2   CG301   OG311     9  1.800000e+02  2.092000e-01      6
  OG302   CG2O2   CG311   CG2O2     9  0.000000e+00  0.000000e+00      1
  OG302   CG2O2   CG311   CG2O5     9  0.000000e+00  0.000000e+00      1
  OG302   CG2O2   CG311  CG2R61     9  0.000000e+00  1.255200e+00      3
  OG302   CG2O2   CG311   CG311     9  1.800000e+02  2.092000e-01      6
  OG302   CG2O2   CG311   CG321     9  1.800000e+02  2.092000e-01      6
  OG302   CG2O2   CG311   CG331     9  1.800000e+02  2.092000e-01      6
  OG302   CG2O2   CG311    HGA1     9  0.000000e+00  0.000000e+00      1
  OG302   CG2O2   CG311   NG2S1     9  0.000000e+00  0.000000e+00      1
  OG302   CG2O2   CG311   OG302     9  1.800000e+02  2.092000e-01      6
  OG302   CG2O2   CG311   OG311     9  0.000000e+00  4.184000e-01      6
  OG302   CG2O2   CG311   OG311     9  1.800000e+02  1.673600e+00      2
  OG302   CG2O2   CG321  CG2R61     9  0.000000e+00  1.255200e+00      1
  OG302   CG2O2   CG321  CG2R61     9  1.800000e+02  4.184000e+00      2
  OG302   CG2O2   CG321   CG301     9  1.800000e+02  2.217520e+00      2
  OG302   CG2O2   CG321   CG311     9  1.800000e+02  2.217520e+00      2
  OG302   CG2O2   CG321   CG321     9  1.800000e+02  2.217520e+00      2
  OG302   CG2O2   CG321   CG331     9  1.800000e+02 -6.276000e-01      1
  OG302   CG2O2   CG321    HGA2     9  0.000000e+00  0.000000e+00      3
  OG302   CG2O2   CG331    HGA3     9  0.000000e+00  0.000000e+00      3
  OG302  CG2R61  CG2R61   HGR61     9  1.800000e+02  1.004160e+01      2
  OG302   CG301   CG321   CG301     9  0.000000e+00  3.347200e+00      3
  OG302   CG301   CG321   CG311     9  0.000000e+00  3.347200e+00      3
  OG302   CG301   CG321   CG321     9  0.000000e+00  3.347200e+00      3
  OG302   CG301   CG321   CG331     9  0.000000e+00  3.347200e+00      3
  OG302   CG301   CG321    HGA2     9  0.000000e+00  6.694400e-01      3
  OG302   CG301   CG331    HGA3     9  0.000000e+00  6.694400e-01      3
  OG302   CG311   CG311    HGA1     9  0.000000e+00  8.158800e-01      3
  OG302   CG311   CG321   CG2O2     9  0.000000e+00  8.368000e-01      3
  OG302   CG311   CG321   CG2O5     9  0.000000e+00  8.368000e-01      3
  OG302   CG311   CG321   CG301     9  0.000000e+00  8.158800e-01      3
  OG302   CG311   CG321   CG301     9  0.000000e+00  1.631760e+00      2
  OG302   CG311   CG321   CG301     9  1.800000e+02  6.694400e-01      1
  OG302   CG311   CG321   CG311     9  0.000000e+00  8.158800e-01      3
  OG302   CG311   CG321   CG311     9  0.000000e+00  1.631760e+00      2
  OG302   CG311   CG321   CG311     9  1.800000e+02  6.694400e-01      1
  OG302   CG311   CG321   CG321     9  0.000000e+00  8.158800e-01      3
  OG302   CG311   CG321   CG331     9  0.000000e+00  1.631760e+00      2
  OG302   CG311   CG321   CG331     9  1.800000e+02  6.694400e-01      1
  OG302   CG311   CG321    HGA2     9  0.000000e+00  8.158800e-01      3
  OG302   CG311   CG321   NG2S1     9  0.000000e+00  8.368000e-01      3
  OG302   CG311   CG321   OG302     9  0.000000e+00  8.368000e-01      3
  OG302   CG311   CG321   OG311     9  0.000000e+00  8.368000e-01      3
  OG302   CG311   CG331    HGA3     9  0.000000e+00  8.368000e-01      3
  OG302   CG311   OG311    HGP1     9  0.000000e+00  4.476880e+00      3
  OG302   CG311   OG311    HGP1     9  0.000000e+00  4.895280e+00      2
  OG302   CG311   OG311    HGP1     9  0.000000e+00  6.485200e+00      1
  OG302   CG321   CG321    HGA2     9  0.000000e+00  8.158800e-01      3
  OG302   CG321   CG321   OG302     9  0.000000e+00  5.188160e+00      2
  OG302   CG321   CG321   OG302     9  1.800000e+02  1.046000e+00      1
  OG302   CG321   CG321   OG311     9  0.000000e+00  8.368000e-01      3
  OG302   CG321   CG331    HGA3     9  0.000000e+00  8.158800e-01      3
  OG302  CG3RC1  CG3RC1    HGA1     9  0.000000e+00  0.000000e+00      3
  OG302  CG3RC1  CG3RC1  OG3C51     9  1.800000e+02  2.092000e-01      6
  OG302  CG3RC1  CG3RC1  OG3C51     9  1.800000e+02  7.949600e-01      3
  OG302  CG3RC1  CG3RC1  OG3C51     9  1.800000e+02  1.297040e+00      4
  OG311   CG2O2  CG2R61  CG2R61     9  1.800000e+02  4.288600e+00      2
  OG311   CG2O2   CG301   CG2O5     9  0.000000e+00  0.000000e+00      1
  OG311   CG2O2   CG301   CG311     9  1.800000e+02  2.092000e-01      6
  OG311   CG2O2   CG301   CG321     9  1.800000e+02  2.092000e-01      6
  OG311   CG2O2   CG301   CG331     9  1.800000e+02  2.092000e-01      6
  OG311   CG2O2   CG301   NG2S1     9  0.000000e+00  0.000000e+00      1
  OG311   CG2O2   CG301   OG302     9  1.800000e+02  0.000000e+00      6
  OG311   CG2O2   CG301   OG311     9  1.800000e+02  0.000000e+00      6
  OG311   CG2O2   CG311   CG2O5     9  0.000000e+00  0.000000e+00      1
  OG311   CG2O2   CG311   CG2O5     9  0.000000e+00  1.380720e+00      6
  OG311   CG2O2   CG311   CG2O5     9  1.800000e+02  7.949600e-01      2
  OG311   CG2O2   CG311   CG2O5     9  1.800000e+02  5.146320e+00      1
  OG311   CG2O2   CG311  CG2R61     9  1.800000e+02  5.020800e-01      3
  OG311   CG2O2   CG311  CG2R61     9  1.800000e+02  3.891120e+00      2
  OG311   CG2O2   CG311   CG301     9  1.800000e+02  2.092000e-01      6
  OG311   CG2O2   CG311   CG311     9  1.800000e+02  2.092000e-01      6
  OG311   CG2O2   CG311   CG321     9  1.800000e+02  2.092000e-01      6
  OG311   CG2O2   CG311   CG331     9  1.800000e+02  2.092000e-01      6
  OG311   CG2O2   CG311  CG3RC1     9  0.000000e+00  2.928800e+00      6
  OG311   CG2O2   CG311  CG3RC1     9  1.800000e+02  2.217520e+00      4
  OG311   CG2O2   CG311    HGA1     9  1.800000e+02  2.092000e-01      6
  OG311   CG2O2   CG311   NG2S1     9  0.000000e+00  0.000000e+00      1
  OG311   CG2O2   CG311   OG302     9  1.800000e+02  0.000000e+00      6
  OG311   CG2O2   CG311   OG311     9  1.800000e+02  1.924640e+00      2
  OG311   CG2O2   CG321  CG2R61     9  1.800000e+02  5.020800e-01      3
  OG311   CG2O2   CG321  CG2R61     9  1.800000e+02  3.891120e+00      2
  OG311   CG2O2   CG321   CG311     9  1.800000e+02  0.000000e+00      6
  OG311   CG2O2   CG321   CG321     9  1.800000e+02  0.000000e+00      6
  OG311   CG2O2   CG321   CG331     9  1.800000e+02  0.000000e+00      6
  OG311   CG2O2   CG321    HGA2     9  1.800000e+02  0.000000e+00      6
  OG311   CG2O2   CG321   NG2S1     9  0.000000e+00  0.000000e+00      1
  OG311   CG2O2   CG331    HGA3     9  1.800000e+02  0.000000e+00      6
  OG311   CG2O2  CG3C41  CG3C41     9  1.800000e+02  1.171520e+00      3
  OG311   CG2O2  CG3C41  CG3RC1     9  0.000000e+00  2.510400e-01      3
  OG311   CG2O2  CG3C41    HGA1     9  1.800000e+02  0.000000e+00      3
  OG311   CG2O2  CG3RC1   NG2S1     9  0.000000e+00  8.786400e-01      2
  OG311   CG2O2  CG3RC1   NG2S1     9  1.800000e+02  1.380720e+00      1
  OG311  CG2R61  CG2R61   HGR61     9  1.800000e+02  1.004160e+01      2
  OG311  CG2R61  CG2R61   OG311     9  1.800000e+02  1.414527e+01      2
  OG311   CG301   CG301   OG311     9  0.000000e+00  2.008320e+00      3
  OG311   CG301   CG301   OG311     9  1.800000e+02  3.389040e+00      1
  OG311   CG301   CG311   CG2O5     9  1.800000e+02  2.384880e+00      3
  OG311   CG301   CG311   CG311     9  0.000000e+00  3.347200e+00      3
  OG311   CG301   CG311   CG321     9  0.000000e+00  3.347200e+00      3
  OG311   CG301   CG311   CG331     9  0.000000e+00  3.347200e+00      3
  OG311   CG301   CG311    HGA1     9  0.000000e+00  8.158800e-01      3
  OG311   CG301   CG311   OG302     9  0.000000e+00  7.949600e-01      3
  OG311   CG301   CG311   OG302     9  1.800000e+02  4.184000e-01      1
  OG311   CG301   CG311   OG311     9  0.000000e+00  1.993676e+00      3
  OG311   CG301   CG311   OG311     9  1.800000e+02  3.379417e+00      1
  OG311   CG301   CG321   CG2O5     9  0.000000e+00  7.112800e-01      3
  OG311   CG301   CG321  CG2R61     9  0.000000e+00  3.723760e+00      3
  OG311   CG301   CG321  CG2R61     9  1.800000e+02  4.184000e-02      1
  OG311   CG301   CG321   CG301     9  0.000000e+00  3.347200e+00      3
  OG311   CG301   CG321   CG311     9  0.000000e+00  3.347200e+00      3
  OG311   CG301   CG321   CG321     9  0.000000e+00  3.347200e+00      3
  OG311   CG301   CG321   CG331     9  0.000000e+00  3.347200e+00      3
  OG311   CG301   CG321    HGA2     9  0.000000e+00  6.694400e-01      3
  OG311   CG301   CG321    HGA2     9  0.000000e+00  8.368000e-01      3
  OG311   CG301   CG331    HGA3     9  0.000000e+00  5.857600e-01      3
  OG311   CG301  CG3C41  CG3C41     9  1.800000e+02  2.050160e+00      3
  OG311   CG301  CG3C41    HGA1     9  0.000000e+00  0.000000e+00      3
  OG311   CG301  CG3RC1  CG3RC1     9  0.000000e+00  1.882800e+00      2
  OG311   CG301  CG3RC1    HGA1     9  0.000000e+00  0.000000e+00      3
  OG311   CG301   NG2S1    HGP1     9  0.000000e+00  2.259360e+00      4
  OG311   CG301   NG2S1    HGP1     9  0.000000e+00  6.276000e+00      1
  OG311   CG301   OG311    HGP1     9  0.000000e+00  4.476880e+00      3
  OG311   CG301   OG311    HGP1     9  0.000000e+00  4.895280e+00      2
  OG311   CG301   OG311    HGP1     9  0.000000e+00  6.485200e+00      1
  OG311   CG311   CG311    HGA1     9  0.000000e+00  8.158800e-01      3
  OG311   CG311   CG311   OG311     9  0.000000e+00  8.368000e-01      3
  OG311   CG311   CG321   CG2D1     9  0.000000e+00  8.368000e-01      3
  OG311   CG311   CG321   CG2O1     9  0.000000e+00  8.368000e-01      3
  OG311   CG311   CG321   CG2O5     9  0.000000e+00  8.368000e-01      3
  OG311   CG311   CG321   CG301     9  0.000000e+00  1.673600e+00      5
  OG311   CG311   CG321   CG301     9  0.000000e+00  3.347200e+00      6
  OG311   CG311   CG321   CG301     9  1.800000e+02  8.368000e+00      3
  OG311   CG311   CG321   CG311     9  0.000000e+00  1.673600e+00      5
  OG311   CG311   CG321   CG311     9  0.000000e+00  3.347200e+00      6
  OG311   CG311   CG321   CG311     9  1.800000e+02  8.368000e+00      3
  OG311   CG311   CG321   CG321     9  0.000000e+00  1.673600e+00      3
  OG311   CG311   CG321   CG321     9  0.000000e+00  1.673600e+00      5
  OG311   CG311   CG321   CG321     9  0.000000e+00  2.928800e+00      2
  OG311   CG311   CG321   CG321     9  1.800000e+02  2.092000e+00      1
  OG311   CG311   CG321   CG331     9  0.000000e+00  5.857600e-01      3
  OG311   CG311   CG321  CG3RC1     9  0.000000e+00  2.510400e+00      1
  OG311   CG311   CG321  CG3RC1     9  0.000000e+00  2.928800e+00      3
  OG311   CG311   CG321    HGA2     9  1.800000e+02  8.158800e-01      3
  OG311   CG311   CG321   NG2S1     9  0.000000e+00  8.368000e-01      3
  OG311   CG311   CG321   OG311     9  0.000000e+00  8.368000e-01      3
  OG311   CG311   CG331    HGA3     9  0.000000e+00  8.368000e-01      3
  OG311   CG311  CG3RC1   CG331     9  0.000000e+00  6.610720e-01      3
  OG311   CG311  CG3RC1  CG3RC1     9  0.000000e+00  1.882800e+00      2
  OG311   CG311  CG3RC1    HGA1     9  0.000000e+00  0.000000e+00      3
  OG311   CG311   NG2S1   CG2O1     9  0.000000e+00  7.531200e+00      1
  OG311   CG311   NG2S1    HGP1     9  0.000000e+00  0.000000e+00      1
  OG311   CG311   OG302   CG2O2     9  1.800000e+02  2.928800e+00      1
  OG311   CG311   OG311    HGP1     9  0.000000e+00  1.163570e+00      3
  OG311   CG311   OG311    HGP1     9  0.000000e+00  4.413702e+00      2
  OG311   CG311   OG311    HGP1     9  0.000000e+00  7.673038e+00      1
  OG311   CG321   CG321   OG311     9  0.000000e+00  8.368000e-01      3
  OG311   CG321   CG331    HGA3     9  0.000000e+00  6.694400e-01      3
  OG311  CG3C41  CG3C41    HGA2     9  0.000000e+00  0.000000e+00      3
  OG311  CG3RC1  CG3RC1    HGA1     9  0.000000e+00  0.000000e+00      3
 OG3C51  CG3C41  CG3C41    HGA2     9  0.000000e+00  7.949600e-01      3
 OG3C51  CG3C41  CG3C41  OG3C51     9  0.000000e+00  2.050160e+01      3
 OG3C51  CG3C41  CG3C41  OG3C51     9  1.800000e+02  3.347200e-01      4
 OG3C51  CG3C41  CG3RC1   CG311     9  0.000000e+00  8.368000e-02      2
 OG3C51  CG3C41  CG3RC1   CG311     9  0.000000e+00  2.343040e+00      3
 OG3C51  CG3C41  CG3RC1  CG3RC1     9  0.000000e+00  0.000000e+00      2
 OG3C51  CG3C41  CG3RC1  CG3RC1     9  0.000000e+00  3.138000e+00      3
 OG3C51  CG3C41  CG3RC1   OG302     9  0.000000e+00  2.050160e+01      3
 OG3C51  CG3C41  CG3RC1   OG302     9  1.800000e+02  3.347200e-01      4
 OG3C51  CG3RC1  CG3RC1    HGA1     9  0.000000e+00  6.276000e-01      3
 OG3C51  CG3RC1  CG3RC1  OG3C51     9  0.000000e+00  2.426720e+00      6
 OG3C51  CG3RC1  CG3RC1  OG3C51     9  1.800000e+02  3.765600e+00      3
 OG3C51  CG3RC1  CG3RC1  OG3C51     9  1.800000e+02  1.146416e+01      2
 OG3C51  CG3RC1   OG311    HGP1     9  0.000000e+00  1.087840e+00      2
 OG3C51  CG3RC1   OG311    HGP1     9  0.000000e+00  8.242480e+00      1
 OG3C51  CG3RC1   OG311    HGP1     9  1.800000e+02  3.765600e-01      3
      X  CG3RC1  CG3RC1       X     9  1.800000e+02  1.882800e+00      1
      X  CG3RC1  CG3RC1       X     9  1.800000e+02  3.556400e+01      2

[ dihedraltypes ]
  CG2O1   CG2O1   NG2S1   OG2D1     2  0.000000e+00  1.004160e+03
  CG2O1  CG2R61   NG2S1   OG2D1     2  0.000000e+00  1.004160e+03
  CG2O1   CG301   NG2S1   OG2D1     2  0.000000e+00  1.004160e+03
  CG2O1   CG311   NG2S1   OG2D1     2  0.000000e+00  1.004160e+03
  CG2O1   CG321   NG2S1   OG2D1     2  0.000000e+00  1.004160e+03
  CG2O1   CG331   NG2S1   OG2D1     2  0.000000e+00  1.004160e+03
  CG2O1  CG3RC1   NG2S1   OG2D1     2  0.000000e+00  1.004160e+03
  CG2O2  CG2R61   OG2D1   OG302     2  0.000000e+00  6.024960e+02
  CG2O2  CG2R61   OG2D1   OG311     2  0.000000e+00  4.435040e+02
  CG2O2   CG301   OG2D1   OG302     2  0.000000e+00  5.188160e+02
  CG2O2   CG301   OG2D1   OG311     2  0.000000e+00  5.439200e+02
  CG2O2   CG311   OG2D1   OG302     2  0.000000e+00  5.188160e+02
  CG2O2   CG311   OG2D1   OG311     2  0.000000e+00  5.439200e+02
  CG2O2   CG321   OG2D1   OG302     2  0.000000e+00  5.188160e+02
  CG2O2   CG321   OG2D1   OG311     2  0.000000e+00  5.439200e+02
  CG2O2   CG331   OG2D1   OG302     2  0.000000e+00  5.188160e+02
  CG2O2   CG331   OG2D1   OG311     2  0.000000e+00  5.439200e+02
  CG2O2  CG3C41   OG2D1   OG311     2  0.000000e+00  4.865992e+02
  CG2O2  CG3RC1   OG2D1   OG311     2  0.000000e+00  5.439200e+02
  CG2O5   CG2O5   CG311   OG2D3     2  0.000000e+00  7.388944e+02
  CG2O5   CG2O5   CG321   OG2D3     2  0.000000e+00  7.363840e+02
  CG2O5   CG2O5  CG3RC1   OG2D3     2  0.000000e+00  7.363840e+02
  CG2O5  CG2R61  CG2R61   OG2D3     2  0.000000e+00  7.785545e+02
  CG2O5  CG2R61   CG311   OG2D3     2  0.000000e+00  6.024960e+02
  CG2O5  CG2R61   CG321   OG2D3     2  0.000000e+00  6.024960e+02
  CG2O5  CG2R61   CG331   OG2D3     2  0.000000e+00  5.020800e+02
  CG2O5  CG2R61  CG3RC1   OG2D3     2  0.000000e+00  6.024960e+02
  CG2O5   CG301   CG301   OG2D3     2  0.000000e+00  5.857600e+02
  CG2O5   CG301   CG311   OG2D3     2  0.000000e+00  5.857600e+02
  CG2O5   CG301   CG321   OG2D3     2  0.000000e+00  5.857600e+02
  CG2O5   CG301   CG331   OG2D3     2  0.000000e+00  5.857600e+02
  CG2O5   CG311   CG311   OG2D3     2  0.000000e+00  5.857600e+02
  CG2O5   CG311   CG321   OG2D3     2  0.000000e+00  5.857600e+02
  CG2O5   CG311   CG331   OG2D3     2  0.000000e+00  5.857600e+02
  CG2O5   CG321   CG321   OG2D3     2  0.000000e+00  5.857600e+02
  CG2O5   CG321   CG331   OG2D3     2  0.000000e+00  5.857600e+02
  CG2O5   CG321  CG3RC1   OG2D3     2  0.000000e+00  5.857600e+02
  CG2O5   CG331   CG331   OG2D3     2  0.000000e+00  5.857600e+02
  CG2O5  CG3RC1  CG3RC1   OG2D3     2  0.000000e+00  8.849160e+02
 CG2R61  CG2R61  CG2R61   OG311     2  0.000000e+00  1.255200e+02
