;;
;; Generated by CHARMM-GUI (http://www.charmm-gui.org) v1.7
;;
;; psf2itp_mol.py
;;
;; Correspondance:
;; jul316@lehigh.edu or wonpil@lehigh.edu
;;
;; GROMACS topology file for TAX
;;


[ moleculetype ]
; name	nrexcl
TAX	     3

[ atoms ]
; nr	type	resnr	residu	atom	cgnr	charge	mass
     1      OG311      1      TAX     O1      1     -0.522    15.9994   ; qtot -0.522
     2      CG301      1      TAX     C1      2      0.080    12.0110   ; qtot -0.442
     3      CG311      1      TAX     C2      3      0.082    12.0110   ; qtot -0.360
     4      OG302      1      TAX     O2      4     -0.234    15.9994   ; qtot -0.594
     5      CG2O2      1      TAX     C3      5      0.366    12.0110   ; qtot -0.228
     6      OG2D1      1      TAX     O3      6     -0.495    15.9994   ; qtot -0.723
     7     CG2R61      1      TAX     C4      7      0.201    12.0110   ; qtot -0.522
     8     CG2R61      1      TAX     C5      8     -0.116    12.0110   ; qtot -0.638
     9     CG2R61      1      TAX     C6      9     -0.113    12.0110   ; qtot -0.751
    10     CG2R61      1      TAX     C7     10     -0.116    12.0110   ; qtot -0.867
    11     CG2R61      1      TAX     C8     11     -0.113    12.0110   ; qtot -0.980
    12     CG2R61      1      TAX     C9     12     -0.116    12.0110   ; qtot -1.096
    13      CG311      1      TAX    C10     13     -0.268    12.0110   ; qtot -1.364
    14     CG3RC1      1      TAX    C11     14      0.390    12.0110   ; qtot -0.974
    15      OG302      1      TAX     O4     15     -0.400    15.9994   ; qtot -1.374
    16      CG2O2      1      TAX    C12     16      0.914    12.0110   ; qtot -0.460
    17      OG2D1      1      TAX     O5     17     -0.617    15.9994   ; qtot -1.077
    18      CG331      1      TAX    C13     18     -0.313    12.0110   ; qtot -1.390
    19     CG3C41      1      TAX    C14     19     -0.072    12.0110   ; qtot -1.462
    20     OG3C51      1      TAX     O6     20     -0.073    15.9994   ; qtot -1.535
    21     CG3RC1      1      TAX    C15     21     -0.254    12.0110   ; qtot -1.789
    22      CG321      1      TAX    C16     22     -0.199    12.0110   ; qtot -1.988
    23      CG311      1      TAX    C17     23      0.066    12.0110   ; qtot -1.922
    24      OG311      1      TAX     O7     24     -0.620    15.9994   ; qtot -2.542
    25      CG301      1      TAX    C18     25      0.541    12.0110   ; qtot -2.001
    26      CG331      1      TAX    C19     26     -0.344    12.0110   ; qtot -2.345
    27      CG2O5      1      TAX    C20     27     -0.047    12.0110   ; qtot -2.392
    28      OG2D3      1      TAX     O8     28     -0.360    15.9994   ; qtot -2.752
    29      CG311      1      TAX    C21     29      0.165    12.0110   ; qtot -2.587
    30      OG302      1      TAX     O9     30     -0.362    15.9994   ; qtot -2.949
    31      CG2O2      1      TAX    C22     31      0.918    12.0110   ; qtot -2.031
    32      OG2D1      1      TAX    O10     32     -0.625    15.9994   ; qtot -2.656
    33      CG331      1      TAX    C23     33     -0.311    12.0110   ; qtot -2.967
    34      CG2D1      1      TAX    C24     34     -0.206    12.0110   ; qtot -3.173
    35      CG2D1      1      TAX    C25     35     -0.139    12.0110   ; qtot -3.312
    36      CG311      1      TAX    C26     36      0.288    12.0110   ; qtot -3.024
    37      OG302      1      TAX    O11     37     -0.426    15.9994   ; qtot -3.450
    38      CG2O2      1      TAX    C27     38      0.893    12.0110   ; qtot -2.557
    39      OG2D1      1      TAX    O12     39     -0.631    15.9994   ; qtot -3.188
    40      CG311      1      TAX    C28     40      0.134    12.0110   ; qtot -3.054
    41      OG311      1      TAX    O13     41     -0.658    15.9994   ; qtot -3.712
    42      CG311      1      TAX    C29     42      0.192    12.0110   ; qtot -3.520
    43      NG2S1      1      TAX      N     43     -0.334    14.0070   ; qtot -3.854
    44      CG2O1      1      TAX    C30     44      0.301    12.0110   ; qtot -3.553
    45      OG2D1      1      TAX    O14     45     -0.463    15.9994   ; qtot -4.016
    46     CG2R61      1      TAX    C31     46     -0.107    12.0110   ; qtot -4.123
    47     CG2R61      1      TAX    C32     47     -0.060    12.0110   ; qtot -4.183
    48     CG2R61      1      TAX    C33     48     -0.114    12.0110   ; qtot -4.297
    49     CG2R61      1      TAX    C34     49     -0.116    12.0110   ; qtot -4.413
    50     CG2R61      1      TAX    C35     50     -0.114    12.0110   ; qtot -4.527
    51     CG2R61      1      TAX    C36     51     -0.060    12.0110   ; qtot -4.587
    52     CG2R61      1      TAX    C37     52     -0.125    12.0110   ; qtot -4.712
    53     CG2R61      1      TAX    C38     53     -0.085    12.0110   ; qtot -4.797
    54     CG2R61      1      TAX    C39     54     -0.114    12.0110   ; qtot -4.911
    55     CG2R61      1      TAX    C40     55     -0.116    12.0110   ; qtot -5.027
    56     CG2R61      1      TAX    C41     56     -0.114    12.0110   ; qtot -5.141
    57     CG2R61      1      TAX    C42     57     -0.085    12.0110   ; qtot -5.226
    58      CG321      1      TAX    C43     58     -0.154    12.0110   ; qtot -5.380
    59      CG331      1      TAX    C44     59     -0.266    12.0110   ; qtot -5.646
    60      CG301      1      TAX    C45     60      0.142    12.0110   ; qtot -5.504
    61      CG331      1      TAX    C46     61     -0.294    12.0110   ; qtot -5.798
    62      CG331      1      TAX    C47     62     -0.294    12.0110   ; qtot -6.092
    63       HGP1      1      TAX     H1     63      0.379     1.0080   ; qtot -5.713
    64       HGA1      1      TAX     H2     64      0.090     1.0080   ; qtot -5.623
    65      HGR61      1      TAX     H3     65      0.116     1.0080   ; qtot -5.507
    66      HGR61      1      TAX     H4     66      0.116     1.0080   ; qtot -5.391
    67      HGR61      1      TAX     H5     67      0.116     1.0080   ; qtot -5.275
    68      HGR61      1      TAX     H6     68      0.116     1.0080   ; qtot -5.159
    69      HGR61      1      TAX     H7     69      0.116     1.0080   ; qtot -5.043
    70       HGA1      1      TAX     H8     70      0.090     1.0080   ; qtot -4.953
    71       HGA3      1      TAX     H9     71      0.090     1.0080   ; qtot -4.863
    72       HGA3      1      TAX    H10     72      0.090     1.0080   ; qtot -4.773
    73       HGA3      1      TAX    H11     73      0.090     1.0080   ; qtot -4.683
    74       HGA2      1      TAX    H12     74      0.090     1.0080   ; qtot -4.593
    75       HGA2      1      TAX    H13     75      0.090     1.0080   ; qtot -4.503
    76       HGA1      1      TAX    H14     76      0.090     1.0080   ; qtot -4.413
    77       HGA2      1      TAX    H15     77      0.090     1.0080   ; qtot -4.323
    78       HGA2      1      TAX    H16     78      0.090     1.0080   ; qtot -4.233
    79       HGA1      1      TAX    H17     79      0.090     1.0080   ; qtot -4.143
    80       HGP1      1      TAX    H18     80      0.400     1.0080   ; qtot -3.743
    81       HGA3      1      TAX    H19     81      0.090     1.0080   ; qtot -3.653
    82       HGA3      1      TAX    H20     82      0.090     1.0080   ; qtot -3.563
    83       HGA3      1      TAX    H21     83      0.090     1.0080   ; qtot -3.473
    84       HGA1      1      TAX    H22     84      0.090     1.0080   ; qtot -3.383
    85       HGA3      1      TAX    H23     85      0.090     1.0080   ; qtot -3.293
    86       HGA3      1      TAX    H24     86      0.090     1.0080   ; qtot -3.203
    87       HGA3      1      TAX    H25     87      0.090     1.0080   ; qtot -3.113
    88       HGA1      1      TAX    H26     88      0.090     1.0080   ; qtot -3.023
    89       HGA1      1      TAX    H27     89      0.090     1.0080   ; qtot -2.933
    90       HGP1      1      TAX    H28     90      0.426     1.0080   ; qtot -2.507
    91       HGA1      1      TAX    H29     91      0.090     1.0080   ; qtot -2.417
    92       HGP1      1      TAX    H30     92      0.267     1.0080   ; qtot -2.150
    93      HGR61      1      TAX    H31     93      0.116     1.0080   ; qtot -2.034
    94      HGR61      1      TAX    H32     94      0.116     1.0080   ; qtot -1.918
    95      HGR61      1      TAX    H33     95      0.116     1.0080   ; qtot -1.802
    96      HGR61      1      TAX    H34     96      0.116     1.0080   ; qtot -1.686
    97      HGR61      1      TAX    H35     97      0.116     1.0080   ; qtot -1.570
    98      HGR61      1      TAX    H36     98      0.116     1.0080   ; qtot -1.454
    99      HGR61      1      TAX    H37     99      0.116     1.0080   ; qtot -1.338
   100      HGR61      1      TAX    H38    100      0.116     1.0080   ; qtot -1.222
   101      HGR61      1      TAX    H39    101      0.116     1.0080   ; qtot -1.106
   102      HGR61      1      TAX    H40    102      0.116     1.0080   ; qtot -0.990
   103       HGA2      1      TAX    H41    103      0.090     1.0080   ; qtot -0.900
   104       HGA2      1      TAX    H42    104      0.090     1.0080   ; qtot -0.810
   105       HGA3      1      TAX    H43    105      0.090     1.0080   ; qtot -0.720
   106       HGA3      1      TAX    H44    106      0.090     1.0080   ; qtot -0.630
   107       HGA3      1      TAX    H45    107      0.090     1.0080   ; qtot -0.540
   108       HGA3      1      TAX    H46    108      0.090     1.0080   ; qtot -0.450
   109       HGA3      1      TAX    H47    109      0.090     1.0080   ; qtot -0.360
   110       HGA3      1      TAX    H48    110      0.090     1.0080   ; qtot -0.270
   111       HGA3      1      TAX    H49    111      0.090     1.0080   ; qtot -0.180
   112       HGA3      1      TAX    H50    112      0.090     1.0080   ; qtot -0.090
   113       HGA3      1      TAX    H51    113      0.090     1.0080   ; qtot  0.000

[ bonds ]
; ai	aj	funct	b0	Kb
    1     2     1
    1    63     1
    2     3     1
    2    58     1
    2    60     1
    3     4     1
    3    13     1
    3    64     1
    4     5     1
    5     6     1
    5     7     1
    7     8     1
    7    12     1
    8     9     1
    8    65     1
    9    10     1
    9    66     1
   10    11     1
   10    67     1
   11    12     1
   11    68     1
   12    69     1
   13    14     1
   13    25     1
   13    70     1
   14    15     1
   14    19     1
   14    21     1
   15    16     1
   16    17     1
   16    18     1
   18    71     1
   18    72     1
   18    73     1
   19    20     1
   19    74     1
   19    75     1
   20    21     1
   21    22     1
   21    76     1
   22    23     1
   22    77     1
   22    78     1
   23    24     1
   23    25     1
   23    79     1
   24    80     1
   25    26     1
   25    27     1
   26    81     1
   26    82     1
   26    83     1
   27    28     1
   27    29     1
   29    30     1
   29    34     1
   29    84     1
   30    31     1
   31    32     1
   31    33     1
   33    85     1
   33    86     1
   33    87     1
   34    35     1
   34    60     1
   35    36     1
   35    59     1
   36    37     1
   36    58     1
   36    88     1
   37    38     1
   38    39     1
   38    40     1
   40    41     1
   40    42     1
   40    89     1
   41    90     1
   42    43     1
   42    52     1
   42    91     1
   43    44     1
   43    92     1
   44    45     1
   44    46     1
   46    47     1
   46    51     1
   47    48     1
   47    93     1
   48    49     1
   48    94     1
   49    50     1
   49    95     1
   50    51     1
   50    96     1
   51    97     1
   52    53     1
   52    57     1
   53    54     1
   53    98     1
   54    55     1
   54    99     1
   55    56     1
   55   100     1
   56    57     1
   56   101     1
   57   102     1
   58   103     1
   58   104     1
   59   105     1
   59   106     1
   59   107     1
   60    61     1
   60    62     1
   61   108     1
   61   109     1
   61   110     1
   62   111     1
   62   112     1
   62   113     1

[ pairs ]
; ai	aj	funct	c6	c12
    1     4     1 
    1    13     1 
    1    34     1 
    1    36     1 
    1    61     1 
    1    62     1 
    1    64     1 
    1   103     1 
    1   104     1 
    2     5     1 
    2    14     1 
    2    25     1 
    2    29     1 
    2    35     1 
    2    37     1 
    2    70     1 
    2    88     1 
    2   108     1 
    2   109     1 
    2   110     1 
    2   111     1 
    2   112     1 
    2   113     1 
    3     6     1 
    3     7     1 
    3    15     1 
    3    19     1 
    3    21     1 
    3    23     1 
    3    26     1 
    3    27     1 
    3    34     1 
    3    36     1 
    3    61     1 
    3    62     1 
    3    63     1 
    3   103     1 
    3   104     1 
    4     8     1 
    4    12     1 
    4    14     1 
    4    25     1 
    4    58     1 
    4    60     1 
    4    70     1 
    5     9     1 
    5    11     1 
    5    13     1 
    5    64     1 
    5    65     1 
    5    69     1 
    6     8     1 
    6    12     1 
    7    10     1 
    7    66     1 
    7    68     1 
    8    11     1 
    8    67     1 
    8    69     1 
    9    12     1 
    9    68     1 
   10    65     1 
   10    69     1 
   11    66     1 
   12    65     1 
   12    67     1 
   13    16     1 
   13    20     1 
   13    22     1 
   13    24     1 
   13    28     1 
   13    29     1 
   13    58     1 
   13    60     1 
   13    74     1 
   13    75     1 
   13    76     1 
   13    79     1 
   13    81     1 
   13    82     1 
   13    83     1 
   14    17     1 
   14    18     1 
   14    19     1 
   14    21     1 
   14    23     1 
   14    26     1 
   14    27     1 
   14    64     1 
   14    77     1 
   14    78     1 
   15    20     1 
   15    22     1 
   15    25     1 
   15    70     1 
   15    71     1 
   15    72     1 
   15    73     1 
   15    74     1 
   15    75     1 
   15    76     1 
   16    19     1 
   16    21     1 
   17    71     1 
   17    72     1 
   17    73     1 
   19    20     1 
   19    22     1 
   19    25     1 
   19    70     1 
   19    76     1 
   20    21     1 
   20    23     1 
   20    77     1 
   20    78     1 
   21    24     1 
   21    25     1 
   21    70     1 
   21    74     1 
   21    75     1 
   21    79     1 
   22    26     1 
   22    27     1 
   22    80     1 
   23    28     1 
   23    29     1 
   23    70     1 
   23    76     1 
   23    81     1 
   23    82     1 
   23    83     1 
   24    26     1 
   24    27     1 
   24    77     1 
   24    78     1 
   25    30     1 
   25    34     1 
   25    64     1 
   25    77     1 
   25    78     1 
   25    80     1 
   25    84     1 
   26    28     1 
   26    29     1 
   26    70     1 
   26    79     1 
   27    31     1 
   27    35     1 
   27    60     1 
   27    70     1 
   27    79     1 
   27    81     1 
   27    82     1 
   27    83     1 
   28    30     1 
   28    34     1 
   28    84     1 
   29    32     1 
   29    33     1 
   29    36     1 
   29    59     1 
   29    61     1 
   29    62     1 
   30    35     1 
   30    60     1 
   30    85     1 
   30    86     1 
   30    87     1 
   31    34     1 
   31    84     1 
   32    85     1 
   32    86     1 
   32    87     1 
   34    37     1 
   34    58     1 
   34    88     1 
   34   105     1 
   34   106     1 
   34   107     1 
   34   108     1 
   34   109     1 
   34   110     1 
   34   111     1 
   34   112     1 
   34   113     1 
   35    38     1 
   35    61     1 
   35    62     1 
   35    84     1 
   35   103     1 
   35   104     1 
   36    39     1 
   36    40     1 
   36    60     1 
   36   105     1 
   36   106     1 
   36   107     1 
   37    41     1 
   37    42     1 
   37    59     1 
   37    89     1 
   37   103     1 
   37   104     1 
   38    43     1 
   38    52     1 
   38    58     1 
   38    88     1 
   38    90     1 
   38    91     1 
   39    41     1 
   39    42     1 
   39    89     1 
   40    44     1 
   40    53     1 
   40    57     1 
   40    92     1 
   41    43     1 
   41    52     1 
   41    91     1 
   42    45     1 
   42    46     1 
   42    54     1 
   42    56     1 
   42    90     1 
   42    98     1 
   42   102     1 
   43    47     1 
   43    51     1 
   43    53     1 
   43    57     1 
   43    89     1 
   44    48     1 
   44    50     1 
   44    52     1 
   44    91     1 
   44    93     1 
   44    97     1 
   45    47     1 
   45    51     1 
   45    92     1 
   46    49     1 
   46    92     1 
   46    94     1 
   46    96     1 
   47    50     1 
   47    95     1 
   47    97     1 
   48    51     1 
   48    96     1 
   49    93     1 
   49    97     1 
   50    94     1 
   51    93     1 
   51    95     1 
   52    55     1 
   52    89     1 
   52    92     1 
   52    99     1 
   52   101     1 
   53    56     1 
   53    91     1 
   53   100     1 
   53   102     1 
   54    57     1 
   54   101     1 
   55    98     1 
   55   102     1 
   56    99     1 
   57    91     1 
   57    98     1 
   57   100     1 
   58    59     1 
   58    61     1 
   58    62     1 
   58    63     1 
   58    64     1 
   59    60     1 
   59    88     1 
   60    63     1 
   60    64     1 
   60    84     1 
   60   103     1 
   60   104     1 
   61   111     1 
   61   112     1 
   61   113     1 
   62   108     1 
   62   109     1 
   62   110     1 
   64    70     1 
   65    66     1 
   66    67     1 
   67    68     1 
   68    69     1 
   76    77     1 
   76    78     1 
   77    79     1 
   78    79     1 
   79    80     1 
   88   103     1 
   88   104     1 
   89    90     1 
   89    91     1 
   91    92     1 
   93    94     1 
   94    95     1 
   95    96     1 
   96    97     1 
   98    99     1 
   99   100     1 
  100   101     1 
  101   102     1 

[ angles ] 
; ai	aj	ak	funct	th0	cth	S0	Kub
    2     1    63     5
    1     2     3     5
    1     2    58     5
    1     2    60     5
    3     2    58     5
    3     2    60     5
   58     2    60     5
    2     3     4     5
    2     3    13     5
    2     3    64     5
    4     3    13     5
    4     3    64     5
   13     3    64     5
    3     4     5     5
    4     5     6     5
    4     5     7     5
    6     5     7     5
    5     7     8     5
    5     7    12     5
    8     7    12     5
    7     8     9     5
    7     8    65     5
    9     8    65     5
    8     9    10     5
    8     9    66     5
   10     9    66     5
    9    10    11     5
    9    10    67     5
   11    10    67     5
   10    11    12     5
   10    11    68     5
   12    11    68     5
    7    12    11     5
    7    12    69     5
   11    12    69     5
    3    13    14     5
    3    13    25     5
    3    13    70     5
   14    13    25     5
   14    13    70     5
   25    13    70     5
   13    14    15     5
   13    14    19     5
   13    14    21     5
   15    14    19     5
   15    14    21     5
   19    14    21     5
   14    15    16     5
   15    16    17     5
   15    16    18     5
   17    16    18     5
   16    18    71     5
   16    18    72     5
   16    18    73     5
   71    18    72     5
   71    18    73     5
   72    18    73     5
   14    19    20     5
   14    19    74     5
   14    19    75     5
   20    19    74     5
   20    19    75     5
   74    19    75     5
   19    20    21     5
   14    21    20     5
   14    21    22     5
   14    21    76     5
   20    21    22     5
   20    21    76     5
   22    21    76     5
   21    22    23     5
   21    22    77     5
   21    22    78     5
   23    22    77     5
   23    22    78     5
   77    22    78     5
   22    23    24     5
   22    23    25     5
   22    23    79     5
   24    23    25     5
   24    23    79     5
   25    23    79     5
   23    24    80     5
   13    25    23     5
   13    25    26     5
   13    25    27     5
   23    25    26     5
   23    25    27     5
   26    25    27     5
   25    26    81     5
   25    26    82     5
   25    26    83     5
   81    26    82     5
   81    26    83     5
   82    26    83     5
   25    27    28     5
   25    27    29     5
   28    27    29     5
   27    29    30     5
   27    29    34     5
   27    29    84     5
   30    29    34     5
   30    29    84     5
   34    29    84     5
   29    30    31     5
   30    31    32     5
   30    31    33     5
   32    31    33     5
   31    33    85     5
   31    33    86     5
   31    33    87     5
   85    33    86     5
   85    33    87     5
   86    33    87     5
   29    34    35     5
   29    34    60     5
   35    34    60     5
   34    35    36     5
   34    35    59     5
   36    35    59     5
   35    36    37     5
   35    36    58     5
   35    36    88     5
   37    36    58     5
   37    36    88     5
   58    36    88     5
   36    37    38     5
   37    38    39     5
   37    38    40     5
   39    38    40     5
   38    40    41     5
   38    40    42     5
   38    40    89     5
   41    40    42     5
   41    40    89     5
   42    40    89     5
   40    41    90     5
   40    42    43     5
   40    42    52     5
   40    42    91     5
   43    42    52     5
   43    42    91     5
   52    42    91     5
   42    43    44     5
   42    43    92     5
   44    43    92     5
   43    44    45     5
   43    44    46     5
   45    44    46     5
   44    46    47     5
   44    46    51     5
   47    46    51     5
   46    47    48     5
   46    47    93     5
   48    47    93     5
   47    48    49     5
   47    48    94     5
   49    48    94     5
   48    49    50     5
   48    49    95     5
   50    49    95     5
   49    50    51     5
   49    50    96     5
   51    50    96     5
   46    51    50     5
   46    51    97     5
   50    51    97     5
   42    52    53     5
   42    52    57     5
   53    52    57     5
   52    53    54     5
   52    53    98     5
   54    53    98     5
   53    54    55     5
   53    54    99     5
   55    54    99     5
   54    55    56     5
   54    55   100     5
   56    55   100     5
   55    56    57     5
   55    56   101     5
   57    56   101     5
   52    57    56     5
   52    57   102     5
   56    57   102     5
    2    58    36     5
    2    58   103     5
    2    58   104     5
   36    58   103     5
   36    58   104     5
  103    58   104     5
   35    59   105     5
   35    59   106     5
   35    59   107     5
  105    59   106     5
  105    59   107     5
  106    59   107     5
    2    60    34     5
    2    60    61     5
    2    60    62     5
   34    60    61     5
   34    60    62     5
   61    60    62     5
   60    61   108     5
   60    61   109     5
   60    61   110     5
  108    61   109     5
  108    61   110     5
  109    61   110     5
   60    62   111     5
   60    62   112     5
   60    62   113     5
  111    62   112     5
  111    62   113     5
  112    62   113     5

[ dihedrals ]
; ai	aj	ak	al	funct	phi0	cp	mult
    3     2     1    63     9
   58     2     1    63     9
   60     2     1    63     9
    1     2     3     4     9
    1     2     3    13     9
    1     2     3    64     9
   58     2     3    64     9
   60     2     3    64     9
    1     2    58    36     9
    1     2    58   103     9
    1     2    58   104     9
    3     2    58    36     9
    3     2    58   103     9
    3     2    58   104     9
   60     2    58   103     9
   60     2    58   104     9
    1     2    60    34     9
    1     2    60    61     9
    1     2    60    62     9
    3     2    60    34     9
    3     2    60    61     9
    3     2    60    62     9
   58     2    60    61     9
   58     2    60    62     9
    4     3     2    58     9
    4     3     2    60     9
   13     3     2    58     9
   13     3     2    60     9
    2     3     4     5     9
    2     3    13    14     9
    2     3    13    25     9
    2     3    13    70     9
    4     3    13    14     9
    4     3    13    25     9
    4     3    13    70     9
   64     3    13    70     9
    5     4     3    13     9
    5     4     3    64     9
    3     4     5     6     9
    3     4     5     7     9
    4     5     7     8     9
    4     5     7    12     9
    6     5     7     8     9
    6     5     7    12     9
    5     7     8     9     9
    5     7     8    65     9
   12     7     8    65     9
    5     7    12    11     9
    5     7    12    69     9
    8     7    12    11     9
    8     7    12    69     9
    9     8     7    12     9
    7     8     9    10     9
    7     8     9    66     9
   65     8     9    66     9
   10     9     8    65     9
    8     9    10    11     9
    8     9    10    67     9
   66     9    10    67     9
   11    10     9    66     9
    9    10    11    12     9
    9    10    11    68     9
   67    10    11    68     9
   12    11    10    67     9
   10    11    12    69     9
   68    11    12    69     9
    7    12    11    10     9
    7    12    11    68     9
   14    13     3    64     9
   25    13     3    64     9
    3    13    14    15     9
    3    13    14    19     9
    3    13    14    21     9
    3    13    25    23     9
    3    13    25    26     9
    3    13    25    27     9
   14    13    25    23     9
   14    13    25    26     9
   14    13    25    27     9
   15    14    13    25     9
   15    14    13    70     9
   19    14    13    25     9
   19    14    13    70     9
   21    14    13    25     9
   21    14    13    70     9
   13    14    15    16     9
   13    14    19    20     9
   13    14    19    74     9
   13    14    19    75     9
   15    14    19    20     9
   15    14    19    74     9
   15    14    19    75     9
   21    14    19    74     9
   21    14    19    75     9
   13    14    21    20     9
   13    14    21    22     9
   13    14    21    76     9
   15    14    21    20     9
   15    14    21    22     9
   15    14    21    76     9
   19    14    21    20     9
   19    14    21    22     9
   19    14    21    76     9
   16    15    14    19     9
   16    15    14    21     9
   14    15    16    17     9
   14    15    16    18     9
   15    16    18    71     9
   15    16    18    72     9
   15    16    18    73     9
   17    16    18    71     9
   17    16    18    72     9
   17    16    18    73     9
   20    19    14    21     9
   14    19    20    21     9
   21    20    19    74     9
   21    20    19    75     9
   19    20    21    22     9
   19    20    21    76     9
   14    21    20    19     9
   14    21    22    23     9
   14    21    22    77     9
   14    21    22    78     9
   20    21    22    23     9
   20    21    22    77     9
   20    21    22    78     9
   76    21    22    77     9
   76    21    22    78     9
   23    22    21    76     9
   21    22    23    24     9
   21    22    23    25     9
   21    22    23    79     9
   77    22    23    79     9
   78    22    23    79     9
   24    23    22    77     9
   24    23    22    78     9
   25    23    22    77     9
   25    23    22    78     9
   22    23    24    80     9
   25    23    24    80     9
   79    23    24    80     9
   22    23    25    26     9
   22    23    25    27     9
   24    23    25    26     9
   24    23    25    27     9
   23    25    13    70     9
   26    25    13    70     9
   27    25    13    70     9
   13    25    23    22     9
   13    25    23    24     9
   13    25    23    79     9
   26    25    23    79     9
   27    25    23    79     9
   13    25    26    81     9
   13    25    26    82     9
   13    25    26    83     9
   23    25    26    81     9
   23    25    26    82     9
   23    25    26    83     9
   27    25    26    81     9
   27    25    26    82     9
   27    25    26    83     9
   13    25    27    28     9
   13    25    27    29     9
   23    25    27    28     9
   23    25    27    29     9
   26    25    27    28     9
   26    25    27    29     9
   25    27    29    30     9
   25    27    29    34     9
   25    27    29    84     9
   28    27    29    30     9
   28    27    29    34     9
   28    27    29    84     9
   27    29    30    31     9
   27    29    34    35     9
   27    29    34    60     9
   30    29    34    35     9
   30    29    34    60     9
   31    30    29    34     9
   31    30    29    84     9
   29    30    31    32     9
   29    30    31    33     9
   30    31    33    85     9
   30    31    33    86     9
   30    31    33    87     9
   32    31    33    85     9
   32    31    33    86     9
   32    31    33    87     9
   35    34    29    84     9
   60    34    29    84     9
   29    34    35    36     9
   29    34    35    59     9
   29    34    60    61     9
   29    34    60    62     9
   35    34    60    61     9
   35    34    60    62     9
   36    35    34    60     9
   59    35    34    60     9
   34    35    36    37     9
   34    35    36    58     9
   34    35    36    88     9
   59    35    36    88     9
   34    35    59   105     9
   34    35    59   106     9
   34    35    59   107     9
   36    35    59   105     9
   36    35    59   106     9
   36    35    59   107     9
   37    36    35    59     9
   58    36    35    59     9
   35    36    37    38     9
   35    36    58   103     9
   35    36    58   104     9
   37    36    58   103     9
   37    36    58   104     9
   88    36    58   103     9
   88    36    58   104     9
   38    37    36    58     9
   38    37    36    88     9
   36    37    38    39     9
   36    37    38    40     9
   37    38    40    41     9
   37    38    40    42     9
   37    38    40    89     9
   39    38    40    41     9
   39    38    40    42     9
   39    38    40    89     9
   38    40    41    90     9
   42    40    41    90     9
   89    40    41    90     9
   38    40    42    43     9
   38    40    42    52     9
   38    40    42    91     9
   41    40    42    43     9
   41    40    42    52     9
   41    40    42    91     9
   89    40    42    91     9
   43    42    40    89     9
   52    42    40    89     9
   40    42    43    44     9
   40    42    43    92     9
   52    42    43    92     9
   91    42    43    92     9
   40    42    52    53     9
   40    42    52    57     9
   43    42    52    53     9
   43    42    52    57     9
   44    43    42    52     9
   44    43    42    91     9
   42    43    44    45     9
   42    43    44    46     9
   45    44    43    92     9
   46    44    43    92     9
   43    44    46    47     9
   43    44    46    51     9
   45    44    46    47     9
   45    44    46    51     9
   44    46    47    48     9
   44    46    47    93     9
   51    46    47    93     9
   44    46    51    50     9
   44    46    51    97     9
   47    46    51    50     9
   47    46    51    97     9
   48    47    46    51     9
   46    47    48    49     9
   46    47    48    94     9
   93    47    48    94     9
   49    48    47    93     9
   47    48    49    50     9
   47    48    49    95     9
   94    48    49    95     9
   50    49    48    94     9
   48    49    50    51     9
   48    49    50    96     9
   95    49    50    96     9
   51    50    49    95     9
   49    50    51    97     9
   96    50    51    97     9
   46    51    50    49     9
   46    51    50    96     9
   53    52    42    91     9
   57    52    42    91     9
   42    52    53    54     9
   42    52    53    98     9
   57    52    53    98     9
   42    52    57    56     9
   42    52    57   102     9
   53    52    57    56     9
   53    52    57   102     9
   54    53    52    57     9
   52    53    54    55     9
   52    53    54    99     9
   98    53    54    99     9
   55    54    53    98     9
   53    54    55    56     9
   53    54    55   100     9
   99    54    55   100     9
   56    55    54    99     9
   54    55    56    57     9
   54    55    56   101     9
  100    55    56   101     9
   57    56    55   100     9
   55    56    57   102     9
  101    56    57   102     9
   52    57    56    55     9
   52    57    56   101     9
   36    58     2    60     9
    2    58    36    35     9
    2    58    36    37     9
    2    58    36    88     9
   34    60     2    58     9
    2    60    34    29     9
    2    60    34    35     9
    2    60    61   108     9
    2    60    61   109     9
    2    60    61   110     9
   34    60    61   108     9
   34    60    61   109     9
   34    60    61   110     9
   62    60    61   108     9
   62    60    61   109     9
   62    60    61   110     9
    2    60    62   111     9
    2    60    62   112     9
    2    60    62   113     9
   34    60    62   111     9
   34    60    62   112     9
   34    60    62   113     9
   61    60    62   111     9
   61    60    62   112     9
   61    60    62   113     9

[ dihedrals ]
; ai	aj	ak	al	funct	q0	cq
    5     7     6     4     2
   16    18    17    15     2
   27    25    29    28     2
   31    33    32    30     2
   38    40    39    37     2
   44    46    43    45     2
