;;
;; Generated by CHARMM-GUI FF-Converter
;;
;; Correspondance:
;; jul316@lehigh.edu or wonpil@lehigh.edu
;;
;; GROMACS topology file for S1P1
;;


[ moleculetype ]
; name	nrexcl
S1P1	     3

[ atoms ]
; nr	type	resnr	residu	atom	cgnr	charge	mass
     1      OG311      1    ETHOX     O1      1    -0.650000    15.9994   ; qtot -0.650
     2       HGP1      1    ETHOX    HO1      2     0.420000     1.0080   ; qtot -0.230
     3      CG321      1    ETHOX     C1      3     0.050000    12.0110   ; qtot -0.180
     4       HGA2      1    ETHOX    H11      4     0.090000     1.0080   ; qtot -0.090
     5       HGA2      1    ETHOX    H13      5     0.090000     1.0080   ; qtot -0.000
     6      CG321      1    ETHOX     C2      6    -0.010000    12.0110   ; qtot -0.010
     7       HGA2      1    ETHOX    H21      7     0.090000     1.0080   ; qtot  0.080
     8       HGA2      1    ETHOX    H23      8     0.090000     1.0080   ; qtot  0.170
     9      OG301      2    ETHOX     O1      9    -0.340000    15.9994   ; qtot -0.170
    10      CG321      2    ETHOX     C1     10    -0.010000    12.0110   ; qtot -0.180
    11       HGA2      2    ETHOX    H11     11     0.090000     1.0080   ; qtot -0.090
    12       HGA2      2    ETHOX    H13     12     0.090000     1.0080   ; qtot -0.000
    13      CG321      2    ETHOX     C2     13    -0.010000    12.0110   ; qtot -0.010
    14       HGA2      2    ETHOX    H21     14     0.090000     1.0080   ; qtot  0.080
    15       HGA2      2    ETHOX    H23     15     0.090000     1.0080   ; qtot  0.170
    16      OG301      3    ETHOX     O1     16    -0.340000    15.9994   ; qtot -0.170
    17      CG321      3    ETHOX     C1     17    -0.010000    12.0110   ; qtot -0.180
    18       HGA2      3    ETHOX    H11     18     0.090000     1.0080   ; qtot -0.090
    19       HGA2      3    ETHOX    H13     19     0.090000     1.0080   ; qtot -0.000
    20      CG321      3    ETHOX     C2     20    -0.010000    12.0110   ; qtot -0.010
    21       HGA2      3    ETHOX    H21     21     0.090000     1.0080   ; qtot  0.080
    22       HGA2      3    ETHOX    H23     22     0.090000     1.0080   ; qtot  0.170
    23      OG301      4    ETHOX     O1     23    -0.340000    15.9994   ; qtot -0.170
    24      CG321      4    ETHOX     C1     24    -0.010000    12.0110   ; qtot -0.180
    25       HGA2      4    ETHOX    H11     25     0.090000     1.0080   ; qtot -0.090
    26       HGA2      4    ETHOX    H13     26     0.090000     1.0080   ; qtot -0.000
    27      CG321      4    ETHOX     C2     27    -0.010000    12.0110   ; qtot -0.010
    28       HGA2      4    ETHOX    H21     28     0.090000     1.0080   ; qtot  0.080
    29       HGA2      4    ETHOX    H23     29     0.090000     1.0080   ; qtot  0.170
    30      OG301      5    ETHOX     O1     30    -0.340000    15.9994   ; qtot -0.170
    31      CG321      5    ETHOX     C1     31    -0.010000    12.0110   ; qtot -0.180
    32       HGA2      5    ETHOX    H11     32     0.090000     1.0080   ; qtot -0.090
    33       HGA2      5    ETHOX    H13     33     0.090000     1.0080   ; qtot -0.000
    34      CG321      5    ETHOX     C2     34    -0.010000    12.0110   ; qtot -0.010
    35       HGA2      5    ETHOX    H21     35     0.090000     1.0080   ; qtot  0.080
    36       HGA2      5    ETHOX    H23     36     0.090000     1.0080   ; qtot  0.170
    37      OG301      6    ETHOX     O1     37    -0.340000    15.9994   ; qtot -0.170
    38      CG321      6    ETHOX     C1     38    -0.010000    12.0110   ; qtot -0.180
    39       HGA2      6    ETHOX    H11     39     0.090000     1.0080   ; qtot -0.090
    40       HGA2      6    ETHOX    H13     40     0.090000     1.0080   ; qtot -0.000
    41      CG321      6    ETHOX     C2     41    -0.010000    12.0110   ; qtot -0.010
    42       HGA2      6    ETHOX    H21     42     0.090000     1.0080   ; qtot  0.080
    43       HGA2      6    ETHOX    H23     43     0.090000     1.0080   ; qtot  0.170
    44      OG301      7    ETHOX     O1     44    -0.340000    15.9994   ; qtot -0.170
    45      CG321      7    ETHOX     C1     45    -0.010000    12.0110   ; qtot -0.180
    46       HGA2      7    ETHOX    H11     46     0.090000     1.0080   ; qtot -0.090
    47       HGA2      7    ETHOX    H13     47     0.090000     1.0080   ; qtot -0.000
    48      CG321      7    ETHOX     C2     48    -0.010000    12.0110   ; qtot -0.010
    49       HGA2      7    ETHOX    H21     49     0.090000     1.0080   ; qtot  0.080
    50       HGA2      7    ETHOX    H23     50     0.090000     1.0080   ; qtot  0.170
    51      OG301      8    ETHOX     O1     51    -0.340000    15.9994   ; qtot -0.170
    52      CG321      8    ETHOX     C1     52    -0.010000    12.0110   ; qtot -0.180
    53       HGA2      8    ETHOX    H11     53     0.090000     1.0080   ; qtot -0.090
    54       HGA2      8    ETHOX    H13     54     0.090000     1.0080   ; qtot -0.000
    55      CG321      8    ETHOX     C2     55    -0.010000    12.0110   ; qtot -0.010
    56       HGA2      8    ETHOX    H21     56     0.090000     1.0080   ; qtot  0.080
    57       HGA2      8    ETHOX    H23     57     0.090000     1.0080   ; qtot  0.170
    58      OG301      9    ETHOX     O1     58    -0.340000    15.9994   ; qtot -0.170
    59      CG321      9    ETHOX     C1     59    -0.010000    12.0110   ; qtot -0.180
    60       HGA2      9    ETHOX    H11     60     0.090000     1.0080   ; qtot -0.090
    61       HGA2      9    ETHOX    H13     61     0.090000     1.0080   ; qtot -0.000
    62      CG321      9    ETHOX     C2     62    -0.010000    12.0110   ; qtot -0.010
    63       HGA2      9    ETHOX    H21     63     0.090000     1.0080   ; qtot  0.080
    64       HGA2      9    ETHOX    H23     64     0.090000     1.0080   ; qtot  0.170
    65      OG301     10    ETHOX     O1     65    -0.340000    15.9994   ; qtot -0.170
    66      CG321     10    ETHOX     C1     66    -0.010000    12.0110   ; qtot -0.180
    67       HGA2     10    ETHOX    H11     67     0.090000     1.0080   ; qtot -0.090
    68       HGA2     10    ETHOX    H13     68     0.090000     1.0080   ; qtot -0.000
    69      CG321     10    ETHOX     C2     69    -0.010000    12.0110   ; qtot -0.010
    70       HGA2     10    ETHOX    H21     70     0.090000     1.0080   ; qtot  0.080
    71       HGA2     10    ETHOX    H23     71     0.090000     1.0080   ; qtot  0.170
    72      OG301     11    ETHOX     O1     72    -0.340000    15.9994   ; qtot -0.170
    73      CG321     11    ETHOX     C1     73    -0.010000    12.0110   ; qtot -0.180
    74       HGA2     11    ETHOX    H11     74     0.090000     1.0080   ; qtot -0.090
    75       HGA2     11    ETHOX    H13     75     0.090000     1.0080   ; qtot -0.000
    76      CG321     11    ETHOX     C2     76    -0.010000    12.0110   ; qtot -0.010
    77       HGA2     11    ETHOX    H21     77     0.090000     1.0080   ; qtot  0.080
    78       HGA2     11    ETHOX    H23     78     0.090000     1.0080   ; qtot  0.170
    79      OG301     12    ETHOX     O1     79    -0.340000    15.9994   ; qtot -0.170
    80      CG321     12    ETHOX     C1     80    -0.010000    12.0110   ; qtot -0.180
    81       HGA2     12    ETHOX    H11     81     0.090000     1.0080   ; qtot -0.090
    82       HGA2     12    ETHOX    H13     82     0.090000     1.0080   ; qtot -0.000
    83      CG321     12    ETHOX     C2     83    -0.010000    12.0110   ; qtot -0.010
    84       HGA2     12    ETHOX    H21     84     0.090000     1.0080   ; qtot  0.080
    85       HGA2     12    ETHOX    H23     85     0.090000     1.0080   ; qtot  0.170
    86      OG301     13    ETHOX     O1     86    -0.340000    15.9994   ; qtot -0.170
    87      CG321     13    ETHOX     C1     87    -0.010000    12.0110   ; qtot -0.180
    88       HGA2     13    ETHOX    H11     88     0.090000     1.0080   ; qtot -0.090
    89       HGA2     13    ETHOX    H13     89     0.090000     1.0080   ; qtot -0.000
    90      CG321     13    ETHOX     C2     90    -0.010000    12.0110   ; qtot -0.010
    91       HGA2     13    ETHOX    H21     91     0.090000     1.0080   ; qtot  0.080
    92       HGA2     13    ETHOX    H23     92     0.090000     1.0080   ; qtot  0.170
    93      OG301     14    ETHOX     O1     93    -0.340000    15.9994   ; qtot -0.170
    94      CG321     14    ETHOX     C1     94    -0.010000    12.0110   ; qtot -0.180
    95       HGA2     14    ETHOX    H11     95     0.090000     1.0080   ; qtot -0.090
    96       HGA2     14    ETHOX    H13     96     0.090000     1.0080   ; qtot -0.000
    97      CG321     14    ETHOX     C2     97    -0.010000    12.0110   ; qtot -0.010
    98       HGA2     14    ETHOX    H21     98     0.090000     1.0080   ; qtot  0.080
    99       HGA2     14    ETHOX    H23     99     0.090000     1.0080   ; qtot  0.170
   100      OG301     15    ETHOX     O1    100    -0.340000    15.9994   ; qtot -0.170
   101      CG321     15    ETHOX     C1    101    -0.010000    12.0110   ; qtot -0.180
   102       HGA2     15    ETHOX    H11    102     0.090000     1.0080   ; qtot -0.090
   103       HGA2     15    ETHOX    H13    103     0.090000     1.0080   ; qtot -0.000
   104      CG321     15    ETHOX     C2    104    -0.010000    12.0110   ; qtot -0.010
   105       HGA2     15    ETHOX    H21    105     0.090000     1.0080   ; qtot  0.080
   106       HGA2     15    ETHOX    H23    106     0.090000     1.0080   ; qtot  0.170
   107      OG301     16    ETHOX     O1    107    -0.340000    15.9994   ; qtot -0.170
   108      CG321     16    ETHOX     C1    108    -0.010000    12.0110   ; qtot -0.180
   109       HGA2     16    ETHOX    H11    109     0.090000     1.0080   ; qtot -0.090
   110       HGA2     16    ETHOX    H13    110     0.090000     1.0080   ; qtot -0.000
   111      CG321     16    ETHOX     C2    111    -0.010000    12.0110   ; qtot -0.010
   112       HGA2     16    ETHOX    H21    112     0.090000     1.0080   ; qtot  0.080
   113       HGA2     16    ETHOX    H23    113     0.090000     1.0080   ; qtot  0.170
   114      OG301     17    ETHOX     O1    114    -0.340000    15.9994   ; qtot -0.170
   115      CG321     17    ETHOX     C1    115    -0.010000    12.0110   ; qtot -0.180
   116       HGA2     17    ETHOX    H11    116     0.090000     1.0080   ; qtot -0.090
   117       HGA2     17    ETHOX    H13    117     0.090000     1.0080   ; qtot -0.000
   118      CG321     17    ETHOX     C2    118    -0.010000    12.0110   ; qtot -0.010
   119       HGA2     17    ETHOX    H21    119     0.090000     1.0080   ; qtot  0.080
   120       HGA2     17    ETHOX    H23    120     0.090000     1.0080   ; qtot  0.170
   121      OG301     18    ETHOX     O1    121    -0.340000    15.9994   ; qtot -0.170
   122      CG321     18    ETHOX     C1    122    -0.010000    12.0110   ; qtot -0.180
   123       HGA2     18    ETHOX    H11    123     0.090000     1.0080   ; qtot -0.090
   124       HGA2     18    ETHOX    H13    124     0.090000     1.0080   ; qtot -0.000
   125      CG321     18    ETHOX     C2    125    -0.010000    12.0110   ; qtot -0.010
   126       HGA2     18    ETHOX    H21    126     0.090000     1.0080   ; qtot  0.080
   127       HGA2     18    ETHOX    H23    127     0.090000     1.0080   ; qtot  0.170
   128      OG301     19    ETHOX     O1    128    -0.340000    15.9994   ; qtot -0.170
   129      CG321     19    ETHOX     C1    129    -0.010000    12.0110   ; qtot -0.180
   130       HGA2     19    ETHOX    H11    130     0.090000     1.0080   ; qtot -0.090
   131       HGA2     19    ETHOX    H13    131     0.090000     1.0080   ; qtot -0.000
   132      CG321     19    ETHOX     C2    132    -0.010000    12.0110   ; qtot -0.010
   133       HGA2     19    ETHOX    H21    133     0.090000     1.0080   ; qtot  0.080
   134       HGA2     19    ETHOX    H23    134     0.090000     1.0080   ; qtot  0.170
   135      OG301     20    ETHOX     O1    135    -0.340000    15.9994   ; qtot -0.170
   136      CG321     20    ETHOX     C1    136    -0.010000    12.0110   ; qtot -0.180
   137       HGA2     20    ETHOX    H11    137     0.090000     1.0080   ; qtot -0.090
   138       HGA2     20    ETHOX    H13    138     0.090000     1.0080   ; qtot -0.000
   139      CG321     20    ETHOX     C2    139    -0.010000    12.0110   ; qtot -0.010
   140       HGA2     20    ETHOX    H21    140     0.090000     1.0080   ; qtot  0.080
   141       HGA2     20    ETHOX    H23    141     0.090000     1.0080   ; qtot  0.170
   142      OG301     21    ETHOX     O1    142    -0.340000    15.9994   ; qtot -0.170
   143      CG321     21    ETHOX     C1    143    -0.010000    12.0110   ; qtot -0.180
   144       HGA2     21    ETHOX    H11    144     0.090000     1.0080   ; qtot -0.090
   145       HGA2     21    ETHOX    H13    145     0.090000     1.0080   ; qtot -0.000
   146      CG321     21    ETHOX     C2    146    -0.010000    12.0110   ; qtot -0.010
   147       HGA2     21    ETHOX    H21    147     0.090000     1.0080   ; qtot  0.080
   148       HGA2     21    ETHOX    H23    148     0.090000     1.0080   ; qtot  0.170
   149      OG301     22    ETHOX     O1    149    -0.340000    15.9994   ; qtot -0.170
   150      CG321     22    ETHOX     C1    150    -0.010000    12.0110   ; qtot -0.180
   151       HGA2     22    ETHOX    H11    151     0.090000     1.0080   ; qtot -0.090
   152       HGA2     22    ETHOX    H13    152     0.090000     1.0080   ; qtot -0.000
   153      CG321     22    ETHOX     C2    153    -0.010000    12.0110   ; qtot -0.010
   154       HGA2     22    ETHOX    H21    154     0.090000     1.0080   ; qtot  0.080
   155       HGA2     22    ETHOX    H23    155     0.090000     1.0080   ; qtot  0.170
   156      OG301     23    ETHOX     O1    156    -0.340000    15.9994   ; qtot -0.170
   157      CG321     23    ETHOX     C1    157    -0.010000    12.0110   ; qtot -0.180
   158       HGA2     23    ETHOX    H11    158     0.090000     1.0080   ; qtot -0.090
   159       HGA2     23    ETHOX    H13    159     0.090000     1.0080   ; qtot -0.000
   160      CG321     23    ETHOX     C2    160    -0.010000    12.0110   ; qtot -0.010
   161       HGA2     23    ETHOX    H21    161     0.090000     1.0080   ; qtot  0.080
   162       HGA2     23    ETHOX    H23    162     0.090000     1.0080   ; qtot  0.170
   163      OG301     24    ETHOX     O1    163    -0.340000    15.9994   ; qtot -0.170
   164      CG321     24    ETHOX     C1    164    -0.010000    12.0110   ; qtot -0.180
   165       HGA2     24    ETHOX    H11    165     0.090000     1.0080   ; qtot -0.090
   166       HGA2     24    ETHOX    H13    166     0.090000     1.0080   ; qtot -0.000
   167      CG321     24    ETHOX     C2    167    -0.010000    12.0110   ; qtot -0.010
   168       HGA2     24    ETHOX    H21    168     0.090000     1.0080   ; qtot  0.080
   169       HGA2     24    ETHOX    H23    169     0.090000     1.0080   ; qtot  0.170
   170      OG301     25    ETHOX     O1    170    -0.340000    15.9994   ; qtot -0.170
   171      CG321     25    ETHOX     C1    171    -0.010000    12.0110   ; qtot -0.180
   172       HGA2     25    ETHOX    H11    172     0.090000     1.0080   ; qtot -0.090
   173       HGA2     25    ETHOX    H13    173     0.090000     1.0080   ; qtot -0.000
   174      CG321     25    ETHOX     C2    174    -0.010000    12.0110   ; qtot -0.010
   175       HGA2     25    ETHOX    H21    175     0.090000     1.0080   ; qtot  0.080
   176       HGA2     25    ETHOX    H23    176     0.090000     1.0080   ; qtot  0.170
   177      OG301     26    ETHOX     O1    177    -0.340000    15.9994   ; qtot -0.170
   178      CG321     26    ETHOX     C1    178    -0.010000    12.0110   ; qtot -0.180
   179       HGA2     26    ETHOX    H11    179     0.090000     1.0080   ; qtot -0.090
   180       HGA2     26    ETHOX    H13    180     0.090000     1.0080   ; qtot -0.000
   181      CG321     26    ETHOX     C2    181    -0.010000    12.0110   ; qtot -0.010
   182       HGA2     26    ETHOX    H21    182     0.090000     1.0080   ; qtot  0.080
   183       HGA2     26    ETHOX    H23    183     0.090000     1.0080   ; qtot  0.170
   184      OG301     27    ETHOX     O1    184    -0.340000    15.9994   ; qtot -0.170
   185      CG321     27    ETHOX     C1    185    -0.010000    12.0110   ; qtot -0.180
   186       HGA2     27    ETHOX    H11    186     0.090000     1.0080   ; qtot -0.090
   187       HGA2     27    ETHOX    H13    187     0.090000     1.0080   ; qtot -0.000
   188      CG321     27    ETHOX     C2    188    -0.010000    12.0110   ; qtot -0.010
   189       HGA2     27    ETHOX    H21    189     0.090000     1.0080   ; qtot  0.080
   190       HGA2     27    ETHOX    H23    190     0.090000     1.0080   ; qtot  0.170
   191      OG301     28    ETHOX     O1    191    -0.340000    15.9994   ; qtot -0.170
   192      CG321     28    ETHOX     C1    192    -0.010000    12.0110   ; qtot -0.180
   193       HGA2     28    ETHOX    H11    193     0.090000     1.0080   ; qtot -0.090
   194       HGA2     28    ETHOX    H13    194     0.090000     1.0080   ; qtot -0.000
   195      CG321     28    ETHOX     C2    195    -0.010000    12.0110   ; qtot -0.010
   196       HGA2     28    ETHOX    H21    196     0.090000     1.0080   ; qtot  0.080
   197       HGA2     28    ETHOX    H23    197     0.090000     1.0080   ; qtot  0.170
   198      OG301     29    ETHOX     O1    198    -0.340000    15.9994   ; qtot -0.170
   199      CG321     29    ETHOX     C1    199    -0.010000    12.0110   ; qtot -0.180
   200       HGA2     29    ETHOX    H11    200     0.090000     1.0080   ; qtot -0.090
   201       HGA2     29    ETHOX    H13    201     0.090000     1.0080   ; qtot -0.000
   202      CG321     29    ETHOX     C2    202    -0.010000    12.0110   ; qtot -0.010
   203       HGA2     29    ETHOX    H21    203     0.090000     1.0080   ; qtot  0.080
   204       HGA2     29    ETHOX    H23    204     0.090000     1.0080   ; qtot  0.170
   205      OG301     30    ETHOX     O1    205    -0.340000    15.9994   ; qtot -0.170
   206      CG321     30    ETHOX     C1    206    -0.010000    12.0110   ; qtot -0.180
   207       HGA2     30    ETHOX    H11    207     0.090000     1.0080   ; qtot -0.090
   208       HGA2     30    ETHOX    H13    208     0.090000     1.0080   ; qtot -0.000
   209      CG321     30    ETHOX     C2    209    -0.010000    12.0110   ; qtot -0.010
   210       HGA2     30    ETHOX    H21    210     0.090000     1.0080   ; qtot  0.080
   211       HGA2     30    ETHOX    H23    211     0.090000     1.0080   ; qtot  0.170
   212      OG301     31    ETHOX     O1    212    -0.340000    15.9994   ; qtot -0.170
   213      CG321     31    ETHOX     C1    213    -0.010000    12.0110   ; qtot -0.180
   214       HGA2     31    ETHOX    H11    214     0.090000     1.0080   ; qtot -0.090
   215       HGA2     31    ETHOX    H13    215     0.090000     1.0080   ; qtot -0.000
   216      CG321     31    ETHOX     C2    216    -0.010000    12.0110   ; qtot -0.010
   217       HGA2     31    ETHOX    H21    217     0.090000     1.0080   ; qtot  0.080
   218       HGA2     31    ETHOX    H23    218     0.090000     1.0080   ; qtot  0.170
   219      OG301     32    ETHOX     O1    219    -0.340000    15.9994   ; qtot -0.170
   220      CG321     32    ETHOX     C1    220    -0.010000    12.0110   ; qtot -0.180
   221       HGA2     32    ETHOX    H11    221     0.090000     1.0080   ; qtot -0.090
   222       HGA2     32    ETHOX    H13    222     0.090000     1.0080   ; qtot -0.000
   223      CG321     32    ETHOX     C2    223    -0.010000    12.0110   ; qtot -0.010
   224       HGA2     32    ETHOX    H21    224     0.090000     1.0080   ; qtot  0.080
   225       HGA2     32    ETHOX    H23    225     0.090000     1.0080   ; qtot  0.170
   226      OG301     33    ETHOX     O1    226    -0.340000    15.9994   ; qtot -0.170
   227      CG321     33    ETHOX     C1    227    -0.010000    12.0110   ; qtot -0.180
   228       HGA2     33    ETHOX    H11    228     0.090000     1.0080   ; qtot -0.090
   229       HGA2     33    ETHOX    H13    229     0.090000     1.0080   ; qtot -0.000
   230      CG321     33    ETHOX     C2    230    -0.010000    12.0110   ; qtot -0.010
   231       HGA2     33    ETHOX    H21    231     0.090000     1.0080   ; qtot  0.080
   232       HGA2     33    ETHOX    H23    232     0.090000     1.0080   ; qtot  0.170
   233      OG301     34    ETHOX     O1    233    -0.340000    15.9994   ; qtot -0.170
   234      CG321     34    ETHOX     C1    234    -0.010000    12.0110   ; qtot -0.180
   235       HGA2     34    ETHOX    H11    235     0.090000     1.0080   ; qtot -0.090
   236       HGA2     34    ETHOX    H13    236     0.090000     1.0080   ; qtot -0.000
   237      CG321     34    ETHOX     C2    237    -0.010000    12.0110   ; qtot -0.010
   238       HGA2     34    ETHOX    H21    238     0.090000     1.0080   ; qtot  0.080
   239       HGA2     34    ETHOX    H23    239     0.090000     1.0080   ; qtot  0.170
   240      OG301     35    ETHOX     O1    240    -0.340000    15.9994   ; qtot -0.170
   241      CG321     35    ETHOX     C1    241    -0.010000    12.0110   ; qtot -0.180
   242       HGA2     35    ETHOX    H11    242     0.090000     1.0080   ; qtot -0.090
   243       HGA2     35    ETHOX    H13    243     0.090000     1.0080   ; qtot -0.000
   244      CG321     35    ETHOX     C2    244    -0.010000    12.0110   ; qtot -0.010
   245       HGA2     35    ETHOX    H21    245     0.090000     1.0080   ; qtot  0.080
   246       HGA2     35    ETHOX    H23    246     0.090000     1.0080   ; qtot  0.170
   247      OG301     36    ETHOX     O1    247    -0.340000    15.9994   ; qtot -0.170
   248      CG321     36    ETHOX     C1    248    -0.010000    12.0110   ; qtot -0.180
   249       HGA2     36    ETHOX    H11    249     0.090000     1.0080   ; qtot -0.090
   250       HGA2     36    ETHOX    H13    250     0.090000     1.0080   ; qtot -0.000
   251      CG321     36    ETHOX     C2    251    -0.010000    12.0110   ; qtot -0.010
   252       HGA2     36    ETHOX    H21    252     0.090000     1.0080   ; qtot  0.080
   253       HGA2     36    ETHOX    H23    253     0.090000     1.0080   ; qtot  0.170
   254      OG301     37    ETHOX     O1    254    -0.340000    15.9994   ; qtot -0.170
   255      CG321     37    ETHOX     C1    255    -0.010000    12.0110   ; qtot -0.180
   256       HGA2     37    ETHOX    H11    256     0.090000     1.0080   ; qtot -0.090
   257       HGA2     37    ETHOX    H13    257     0.090000     1.0080   ; qtot -0.000
   258      CG321     37    ETHOX     C2    258    -0.010000    12.0110   ; qtot -0.010
   259       HGA2     37    ETHOX    H21    259     0.090000     1.0080   ; qtot  0.080
   260       HGA2     37    ETHOX    H23    260     0.090000     1.0080   ; qtot  0.170
   261      OG301     38    ETHOX     O1    261    -0.340000    15.9994   ; qtot -0.170
   262      CG321     38    ETHOX     C1    262    -0.010000    12.0110   ; qtot -0.180
   263       HGA2     38    ETHOX    H11    263     0.090000     1.0080   ; qtot -0.090
   264       HGA2     38    ETHOX    H13    264     0.090000     1.0080   ; qtot -0.000
   265      CG321     38    ETHOX     C2    265    -0.010000    12.0110   ; qtot -0.010
   266       HGA2     38    ETHOX    H21    266     0.090000     1.0080   ; qtot  0.080
   267       HGA2     38    ETHOX    H23    267     0.090000     1.0080   ; qtot  0.170
   268      OG301     39    ETHOX     O1    268    -0.340000    15.9994   ; qtot -0.170
   269      CG321     39    ETHOX     C1    269    -0.010000    12.0110   ; qtot -0.180
   270       HGA2     39    ETHOX    H11    270     0.090000     1.0080   ; qtot -0.090
   271       HGA2     39    ETHOX    H13    271     0.090000     1.0080   ; qtot -0.000
   272      CG321     39    ETHOX     C2    272    -0.010000    12.0110   ; qtot -0.010
   273       HGA2     39    ETHOX    H21    273     0.090000     1.0080   ; qtot  0.080
   274       HGA2     39    ETHOX    H23    274     0.090000     1.0080   ; qtot  0.170
   275      OG301     40    ETHOX     O1    275    -0.340000    15.9994   ; qtot -0.170
   276      CG321     40    ETHOX     C1    276    -0.010000    12.0110   ; qtot -0.180
   277       HGA2     40    ETHOX    H11    277     0.090000     1.0080   ; qtot -0.090
   278       HGA2     40    ETHOX    H13    278     0.090000     1.0080   ; qtot -0.000
   279      CG321     40    ETHOX     C2    279    -0.010000    12.0110   ; qtot -0.010
   280       HGA2     40    ETHOX    H21    280     0.090000     1.0080   ; qtot  0.080
   281       HGA2     40    ETHOX    H23    281     0.090000     1.0080   ; qtot  0.170
   282      OG301     41    ETHOX     O1    282    -0.340000    15.9994   ; qtot -0.170
   283      CG321     41    ETHOX     C1    283    -0.010000    12.0110   ; qtot -0.180
   284       HGA2     41    ETHOX    H11    284     0.090000     1.0080   ; qtot -0.090
   285       HGA2     41    ETHOX    H13    285     0.090000     1.0080   ; qtot -0.000
   286      CG321     41    ETHOX     C2    286    -0.010000    12.0110   ; qtot -0.010
   287       HGA2     41    ETHOX    H21    287     0.090000     1.0080   ; qtot  0.080
   288       HGA2     41    ETHOX    H23    288     0.090000     1.0080   ; qtot  0.170
   289      OG301     42    ETHOX     O1    289    -0.340000    15.9994   ; qtot -0.170
   290      CG321     42    ETHOX     C1    290    -0.010000    12.0110   ; qtot -0.180
   291       HGA2     42    ETHOX    H11    291     0.090000     1.0080   ; qtot -0.090
   292       HGA2     42    ETHOX    H13    292     0.090000     1.0080   ; qtot -0.000
   293      CG321     42    ETHOX     C2    293    -0.010000    12.0110   ; qtot -0.010
   294       HGA2     42    ETHOX    H21    294     0.090000     1.0080   ; qtot  0.080
   295       HGA2     42    ETHOX    H23    295     0.090000     1.0080   ; qtot  0.170
   296      OG301     43    ETHOX     O1    296    -0.340000    15.9994   ; qtot -0.170
   297      CG321     43    ETHOX     C1    297    -0.010000    12.0110   ; qtot -0.180
   298       HGA2     43    ETHOX    H11    298     0.090000     1.0080   ; qtot -0.090
   299       HGA2     43    ETHOX    H13    299     0.090000     1.0080   ; qtot -0.000
   300      CG321     43    ETHOX     C2    300    -0.010000    12.0110   ; qtot -0.010
   301       HGA2     43    ETHOX    H21    301     0.090000     1.0080   ; qtot  0.080
   302       HGA2     43    ETHOX    H23    302     0.090000     1.0080   ; qtot  0.170
   303      OG301     44    ETHOX     O1    303    -0.340000    15.9994   ; qtot -0.170
   304      CG321     44    ETHOX     C1    304    -0.010000    12.0110   ; qtot -0.180
   305       HGA2     44    ETHOX    H11    305     0.090000     1.0080   ; qtot -0.090
   306       HGA2     44    ETHOX    H13    306     0.090000     1.0080   ; qtot -0.000
   307      CG321     44    ETHOX     C2    307    -0.010000    12.0110   ; qtot -0.010
   308       HGA2     44    ETHOX    H21    308     0.090000     1.0080   ; qtot  0.080
   309       HGA2     44    ETHOX    H23    309     0.090000     1.0080   ; qtot  0.170
   310      OG301     45    ETHOX     O1    310    -0.340000    15.9994   ; qtot -0.170
   311      CG321     45    ETHOX     C1    311    -0.010000    12.0110   ; qtot -0.180
   312       HGA2     45    ETHOX    H11    312     0.090000     1.0080   ; qtot -0.090
   313       HGA2     45    ETHOX    H13    313     0.090000     1.0080   ; qtot -0.000
   314      CG321     45    ETHOX     C2    314    -0.010000    12.0110   ; qtot -0.010
   315       HGA2     45    ETHOX    H21    315     0.090000     1.0080   ; qtot  0.080
   316       HGA2     45    ETHOX    H23    316     0.090000     1.0080   ; qtot  0.170
   317      OG301     46    ETHOX     O1    317    -0.340000    15.9994   ; qtot -0.170
   318      CG321     46    ETHOX     C1    318    -0.010000    12.0110   ; qtot -0.180
   319       HGA2     46    ETHOX    H11    319     0.090000     1.0080   ; qtot -0.090
   320       HGA2     46    ETHOX    H13    320     0.090000     1.0080   ; qtot -0.000
   321      CG321     46    ETHOX     C2    321    -0.010000    12.0110   ; qtot -0.010
   322       HGA2     46    ETHOX    H21    322     0.090000     1.0080   ; qtot  0.080
   323       HGA2     46    ETHOX    H23    323     0.090000     1.0080   ; qtot  0.170
   324      OG301     47    ETHOX     O1    324    -0.340000    15.9994   ; qtot -0.170
   325      CG321     47    ETHOX     C1    325    -0.010000    12.0110   ; qtot -0.180
   326       HGA2     47    ETHOX    H11    326     0.090000     1.0080   ; qtot -0.090
   327       HGA2     47    ETHOX    H13    327     0.090000     1.0080   ; qtot -0.000
   328      CG321     47    ETHOX     C2    328    -0.010000    12.0110   ; qtot -0.010
   329       HGA2     47    ETHOX    H21    329     0.090000     1.0080   ; qtot  0.080
   330       HGA2     47    ETHOX    H23    330     0.090000     1.0080   ; qtot  0.170
   331      OG301     48    ETHOX     O1    331    -0.340000    15.9994   ; qtot -0.170
   332      CG321     48    ETHOX     C1    332    -0.010000    12.0110   ; qtot -0.180
   333       HGA2     48    ETHOX    H11    333     0.090000     1.0080   ; qtot -0.090
   334       HGA2     48    ETHOX    H13    334     0.090000     1.0080   ; qtot -0.000
   335      CG321     48    ETHOX     C2    335    -0.010000    12.0110   ; qtot -0.010
   336       HGA2     48    ETHOX    H21    336     0.090000     1.0080   ; qtot  0.080
   337       HGA2     48    ETHOX    H23    337     0.090000     1.0080   ; qtot  0.170
   338      OG301     49    ETHOX     O1    338    -0.340000    15.9994   ; qtot -0.170
   339      CG321     49    ETHOX     C1    339    -0.010000    12.0110   ; qtot -0.180
   340       HGA2     49    ETHOX    H11    340     0.090000     1.0080   ; qtot -0.090
   341       HGA2     49    ETHOX    H13    341     0.090000     1.0080   ; qtot -0.000
   342      CG321     49    ETHOX     C2    342    -0.010000    12.0110   ; qtot -0.010
   343       HGA2     49    ETHOX    H21    343     0.090000     1.0080   ; qtot  0.080
   344       HGA2     49    ETHOX    H23    344     0.090000     1.0080   ; qtot  0.170
   345      OG301     50    ETHOX     O1    345    -0.340000    15.9994   ; qtot -0.170
   346      CG321     50    ETHOX     C1    346    -0.010000    12.0110   ; qtot -0.180
   347       HGA2     50    ETHOX    H11    347     0.090000     1.0080   ; qtot -0.090
   348       HGA2     50    ETHOX    H13    348     0.090000     1.0080   ; qtot -0.000
   349      CG321     50    ETHOX     C2    349    -0.010000    12.0110   ; qtot -0.010
   350       HGA2     50    ETHOX    H21    350     0.090000     1.0080   ; qtot  0.080
   351       HGA2     50    ETHOX    H23    351     0.090000     1.0080   ; qtot  0.170
   352      OG301     51    ETHOX     O1    352    -0.340000    15.9994   ; qtot -0.170
   353      CG321     51    ETHOX     C1    353    -0.010000    12.0110   ; qtot -0.180
   354       HGA2     51    ETHOX    H11    354     0.090000     1.0080   ; qtot -0.090
   355       HGA2     51    ETHOX    H13    355     0.090000     1.0080   ; qtot -0.000
   356      CG321     51    ETHOX     C2    356    -0.010000    12.0110   ; qtot -0.010
   357       HGA2     51    ETHOX    H21    357     0.090000     1.0080   ; qtot  0.080
   358       HGA2     51    ETHOX    H23    358     0.090000     1.0080   ; qtot  0.170
   359      OG301     52    ETHOX     O1    359    -0.340000    15.9994   ; qtot -0.170
   360      CG321     52    ETHOX     C1    360    -0.010000    12.0110   ; qtot -0.180
   361       HGA2     52    ETHOX    H11    361     0.090000     1.0080   ; qtot -0.090
   362       HGA2     52    ETHOX    H13    362     0.090000     1.0080   ; qtot -0.000
   363      CG321     52    ETHOX     C2    363    -0.010000    12.0110   ; qtot -0.010
   364       HGA2     52    ETHOX    H21    364     0.090000     1.0080   ; qtot  0.080
   365       HGA2     52    ETHOX    H23    365     0.090000     1.0080   ; qtot  0.170
   366      OG301     53    ETHOX     O1    366    -0.340000    15.9994   ; qtot -0.170
   367      CG321     53    ETHOX     C1    367    -0.010000    12.0110   ; qtot -0.180
   368       HGA2     53    ETHOX    H11    368     0.090000     1.0080   ; qtot -0.090
   369       HGA2     53    ETHOX    H13    369     0.090000     1.0080   ; qtot -0.000
   370      CG321     53    ETHOX     C2    370    -0.010000    12.0110   ; qtot -0.010
   371       HGA2     53    ETHOX    H21    371     0.090000     1.0080   ; qtot  0.080
   372       HGA2     53    ETHOX    H23    372     0.090000     1.0080   ; qtot  0.170
   373      OG301     54    ETHOX     O1    373    -0.340000    15.9994   ; qtot -0.170
   374      CG321     54    ETHOX     C1    374    -0.010000    12.0110   ; qtot -0.180
   375       HGA2     54    ETHOX    H11    375     0.090000     1.0080   ; qtot -0.090
   376       HGA2     54    ETHOX    H13    376     0.090000     1.0080   ; qtot -0.000
   377      CG321     54    ETHOX     C2    377    -0.010000    12.0110   ; qtot -0.010
   378       HGA2     54    ETHOX    H21    378     0.090000     1.0080   ; qtot  0.080
   379       HGA2     54    ETHOX    H23    379     0.090000     1.0080   ; qtot  0.170
   380      OG301     55    ETHOX     O1    380    -0.340000    15.9994   ; qtot -0.170
   381      CG321     55    ETHOX     C1    381    -0.010000    12.0110   ; qtot -0.180
   382       HGA2     55    ETHOX    H11    382     0.090000     1.0080   ; qtot -0.090
   383       HGA2     55    ETHOX    H13    383     0.090000     1.0080   ; qtot -0.000
   384      CG321     55    ETHOX     C2    384    -0.010000    12.0110   ; qtot -0.010
   385       HGA2     55    ETHOX    H21    385     0.090000     1.0080   ; qtot  0.080
   386       HGA2     55    ETHOX    H23    386     0.090000     1.0080   ; qtot  0.170
   387      OG301     56    ETHOX     O1    387    -0.340000    15.9994   ; qtot -0.170
   388      CG321     56    ETHOX     C1    388    -0.010000    12.0110   ; qtot -0.180
   389       HGA2     56    ETHOX    H11    389     0.090000     1.0080   ; qtot -0.090
   390       HGA2     56    ETHOX    H13    390     0.090000     1.0080   ; qtot -0.000
   391      CG321     56    ETHOX     C2    391    -0.010000    12.0110   ; qtot -0.010
   392       HGA2     56    ETHOX    H21    392     0.090000     1.0080   ; qtot  0.080
   393       HGA2     56    ETHOX    H23    393     0.090000     1.0080   ; qtot  0.170
   394      OG301     57    ETHOX     O1    394    -0.340000    15.9994   ; qtot -0.170
   395      CG321     57    ETHOX     C1    395    -0.010000    12.0110   ; qtot -0.180
   396       HGA2     57    ETHOX    H11    396     0.090000     1.0080   ; qtot -0.090
   397       HGA2     57    ETHOX    H13    397     0.090000     1.0080   ; qtot -0.000
   398      CG321     57    ETHOX     C2    398    -0.010000    12.0110   ; qtot -0.010
   399       HGA2     57    ETHOX    H21    399     0.090000     1.0080   ; qtot  0.080
   400       HGA2     57    ETHOX    H23    400     0.090000     1.0080   ; qtot  0.170
   401      OG301     58    ETHOX     O1    401    -0.340000    15.9994   ; qtot -0.170
   402      CG321     58    ETHOX     C1    402    -0.010000    12.0110   ; qtot -0.180
   403       HGA2     58    ETHOX    H11    403     0.090000     1.0080   ; qtot -0.090
   404       HGA2     58    ETHOX    H13    404     0.090000     1.0080   ; qtot -0.000
   405      CG321     58    ETHOX     C2    405    -0.010000    12.0110   ; qtot -0.010
   406       HGA2     58    ETHOX    H21    406     0.090000     1.0080   ; qtot  0.080
   407       HGA2     58    ETHOX    H23    407     0.090000     1.0080   ; qtot  0.170
   408      OG301     59    ETHOX     O1    408    -0.340000    15.9994   ; qtot -0.170
   409      CG321     59    ETHOX     C1    409    -0.010000    12.0110   ; qtot -0.180
   410       HGA2     59    ETHOX    H11    410     0.090000     1.0080   ; qtot -0.090
   411       HGA2     59    ETHOX    H13    411     0.090000     1.0080   ; qtot -0.000
   412      CG321     59    ETHOX     C2    412    -0.010000    12.0110   ; qtot -0.010
   413       HGA2     59    ETHOX    H21    413     0.090000     1.0080   ; qtot  0.080
   414       HGA2     59    ETHOX    H23    414     0.090000     1.0080   ; qtot  0.170
   415      OG301     60    ETHOX     O1    415    -0.340000    15.9994   ; qtot -0.170
   416      CG321     60    ETHOX     C1    416    -0.010000    12.0110   ; qtot -0.180
   417       HGA2     60    ETHOX    H11    417     0.090000     1.0080   ; qtot -0.090
   418       HGA2     60    ETHOX    H13    418     0.090000     1.0080   ; qtot -0.000
   419      CG321     60    ETHOX     C2    419    -0.010000    12.0110   ; qtot -0.010
   420       HGA2     60    ETHOX    H21    420     0.090000     1.0080   ; qtot  0.080
   421       HGA2     60    ETHOX    H23    421     0.090000     1.0080   ; qtot  0.170
   422      OG301     61    ETHOX     O1    422    -0.340000    15.9994   ; qtot -0.170
   423      CG321     61    ETHOX     C1    423    -0.010000    12.0110   ; qtot -0.180
   424       HGA2     61    ETHOX    H11    424     0.090000     1.0080   ; qtot -0.090
   425       HGA2     61    ETHOX    H13    425     0.090000     1.0080   ; qtot -0.000
   426      CG321     61    ETHOX     C2    426    -0.010000    12.0110   ; qtot -0.010
   427       HGA2     61    ETHOX    H21    427     0.090000     1.0080   ; qtot  0.080
   428       HGA2     61    ETHOX    H23    428     0.090000     1.0080   ; qtot  0.170
   429      OG301     62    ETHOX     O1    429    -0.340000    15.9994   ; qtot -0.170
   430      CG321     62    ETHOX     C1    430    -0.010000    12.0110   ; qtot -0.180
   431       HGA2     62    ETHOX    H11    431     0.090000     1.0080   ; qtot -0.090
   432       HGA2     62    ETHOX    H13    432     0.090000     1.0080   ; qtot -0.000
   433      CG321     62    ETHOX     C2    433    -0.010000    12.0110   ; qtot -0.010
   434       HGA2     62    ETHOX    H21    434     0.090000     1.0080   ; qtot  0.080
   435       HGA2     62    ETHOX    H23    435     0.090000     1.0080   ; qtot  0.170
   436      OG301     63    ETHOX     O1    436    -0.340000    15.9994   ; qtot -0.170
   437      CG321     63    ETHOX     C1    437    -0.010000    12.0110   ; qtot -0.180
   438       HGA2     63    ETHOX    H11    438     0.090000     1.0080   ; qtot -0.090
   439       HGA2     63    ETHOX    H13    439     0.090000     1.0080   ; qtot -0.000
   440      CG321     63    ETHOX     C2    440    -0.010000    12.0110   ; qtot -0.010
   441       HGA2     63    ETHOX    H21    441     0.090000     1.0080   ; qtot  0.080
   442       HGA2     63    ETHOX    H23    442     0.090000     1.0080   ; qtot  0.170
   443      OG301     64    ETHOX     O1    443    -0.340000    15.9994   ; qtot -0.170
   444      CG321     64    ETHOX     C1    444    -0.010000    12.0110   ; qtot -0.180
   445       HGA2     64    ETHOX    H11    445     0.090000     1.0080   ; qtot -0.090
   446       HGA2     64    ETHOX    H13    446     0.090000     1.0080   ; qtot -0.000
   447      CG321     64    ETHOX     C2    447    -0.010000    12.0110   ; qtot -0.010
   448       HGA2     64    ETHOX    H21    448     0.090000     1.0080   ; qtot  0.080
   449       HGA2     64    ETHOX    H23    449     0.090000     1.0080   ; qtot  0.170
   450      OG301     65    ETHOX     O1    450    -0.340000    15.9994   ; qtot -0.170
   451      CG321     65    ETHOX     C1    451    -0.010000    12.0110   ; qtot -0.180
   452       HGA2     65    ETHOX    H11    452     0.090000     1.0080   ; qtot -0.090
   453       HGA2     65    ETHOX    H13    453     0.090000     1.0080   ; qtot -0.000
   454      CG321     65    ETHOX     C2    454    -0.010000    12.0110   ; qtot -0.010
   455       HGA2     65    ETHOX    H21    455     0.090000     1.0080   ; qtot  0.080
   456       HGA2     65    ETHOX    H23    456     0.090000     1.0080   ; qtot  0.170
   457      OG301     66    ETHOX     O1    457    -0.340000    15.9994   ; qtot -0.170
   458      CG321     66    ETHOX     C1    458    -0.010000    12.0110   ; qtot -0.180
   459       HGA2     66    ETHOX    H11    459     0.090000     1.0080   ; qtot -0.090
   460       HGA2     66    ETHOX    H13    460     0.090000     1.0080   ; qtot -0.000
   461      CG321     66    ETHOX     C2    461    -0.010000    12.0110   ; qtot -0.010
   462       HGA2     66    ETHOX    H21    462     0.090000     1.0080   ; qtot  0.080
   463       HGA2     66    ETHOX    H23    463     0.090000     1.0080   ; qtot  0.170
   464      OG301     67    ETHOX     O1    464    -0.340000    15.9994   ; qtot -0.170
   465      CG321     67    ETHOX     C1    465    -0.010000    12.0110   ; qtot -0.180
   466       HGA2     67    ETHOX    H11    466     0.090000     1.0080   ; qtot -0.090
   467       HGA2     67    ETHOX    H13    467     0.090000     1.0080   ; qtot -0.000
   468      CG321     67    ETHOX     C2    468    -0.010000    12.0110   ; qtot -0.010
   469       HGA2     67    ETHOX    H21    469     0.090000     1.0080   ; qtot  0.080
   470       HGA2     67    ETHOX    H23    470     0.090000     1.0080   ; qtot  0.170
   471      OG301     68    ETHOX     O1    471    -0.340000    15.9994   ; qtot -0.170
   472      CG321     68    ETHOX     C1    472    -0.010000    12.0110   ; qtot -0.180
   473       HGA2     68    ETHOX    H11    473     0.090000     1.0080   ; qtot -0.090
   474       HGA2     68    ETHOX    H13    474     0.090000     1.0080   ; qtot -0.000
   475      CG321     68    ETHOX     C2    475    -0.010000    12.0110   ; qtot -0.010
   476       HGA2     68    ETHOX    H21    476     0.090000     1.0080   ; qtot  0.080
   477       HGA2     68    ETHOX    H23    477     0.090000     1.0080   ; qtot  0.170
   478      OG301     69    ETHOX     O1    478    -0.340000    15.9994   ; qtot -0.170
   479      CG321     69    ETHOX     C1    479    -0.010000    12.0110   ; qtot -0.180
   480       HGA2     69    ETHOX    H11    480     0.090000     1.0080   ; qtot -0.090
   481       HGA2     69    ETHOX    H13    481     0.090000     1.0080   ; qtot -0.000
   482      CG321     69    ETHOX     C2    482    -0.010000    12.0110   ; qtot -0.010
   483       HGA2     69    ETHOX    H21    483     0.090000     1.0080   ; qtot  0.080
   484       HGA2     69    ETHOX    H23    484     0.090000     1.0080   ; qtot  0.170
   485      OG301     70    ETHOX     O1    485    -0.340000    15.9994   ; qtot -0.170
   486      CG321     70    ETHOX     C1    486    -0.010000    12.0110   ; qtot -0.180
   487       HGA2     70    ETHOX    H11    487     0.090000     1.0080   ; qtot -0.090
   488       HGA2     70    ETHOX    H13    488     0.090000     1.0080   ; qtot -0.000
   489      CG321     70    ETHOX     C2    489    -0.010000    12.0110   ; qtot -0.010
   490       HGA2     70    ETHOX    H21    490     0.090000     1.0080   ; qtot  0.080
   491       HGA2     70    ETHOX    H23    491     0.090000     1.0080   ; qtot  0.170
   492      OG301     71    ETHOX     O1    492    -0.340000    15.9994   ; qtot -0.170
   493      CG321     71    ETHOX     C1    493    -0.010000    12.0110   ; qtot -0.180
   494       HGA2     71    ETHOX    H11    494     0.090000     1.0080   ; qtot -0.090
   495       HGA2     71    ETHOX    H13    495     0.090000     1.0080   ; qtot -0.000
   496      CG321     71    ETHOX     C2    496    -0.010000    12.0110   ; qtot -0.010
   497       HGA2     71    ETHOX    H21    497     0.090000     1.0080   ; qtot  0.080
   498       HGA2     71    ETHOX    H23    498     0.090000     1.0080   ; qtot  0.170
   499      OG301     72    ETHOX     O1    499    -0.340000    15.9994   ; qtot -0.170
   500      CG321     72    ETHOX     C1    500    -0.010000    12.0110   ; qtot -0.180
   501       HGA2     72    ETHOX    H11    501     0.090000     1.0080   ; qtot -0.090
   502       HGA2     72    ETHOX    H13    502     0.090000     1.0080   ; qtot -0.000
   503      CG321     72    ETHOX     C2    503    -0.010000    12.0110   ; qtot -0.010
   504       HGA2     72    ETHOX    H21    504     0.090000     1.0080   ; qtot  0.080
   505       HGA2     72    ETHOX    H23    505     0.090000     1.0080   ; qtot  0.170
   506      OG301     73    ETHOX     O1    506    -0.340000    15.9994   ; qtot -0.170
   507      CG321     73    ETHOX     C1    507    -0.010000    12.0110   ; qtot -0.180
   508       HGA2     73    ETHOX    H11    508     0.090000     1.0080   ; qtot -0.090
   509       HGA2     73    ETHOX    H13    509     0.090000     1.0080   ; qtot -0.000
   510      CG321     73    ETHOX     C2    510    -0.010000    12.0110   ; qtot -0.010
   511       HGA2     73    ETHOX    H21    511     0.090000     1.0080   ; qtot  0.080
   512       HGA2     73    ETHOX    H23    512     0.090000     1.0080   ; qtot  0.170
   513      OG301     74    ETHOX     O1    513    -0.340000    15.9994   ; qtot -0.170
   514      CG321     74    ETHOX     C1    514    -0.010000    12.0110   ; qtot -0.180
   515       HGA2     74    ETHOX    H11    515     0.090000     1.0080   ; qtot -0.090
   516       HGA2     74    ETHOX    H13    516     0.090000     1.0080   ; qtot -0.000
   517      CG321     74    ETHOX     C2    517    -0.010000    12.0110   ; qtot -0.010
   518       HGA2     74    ETHOX    H21    518     0.090000     1.0080   ; qtot  0.080
   519       HGA2     74    ETHOX    H23    519     0.090000     1.0080   ; qtot  0.170
   520      OG301     75    ETHOX     O1    520    -0.340000    15.9994   ; qtot -0.170
   521      CG321     75    ETHOX     C1    521    -0.010000    12.0110   ; qtot -0.180
   522       HGA2     75    ETHOX    H11    522     0.090000     1.0080   ; qtot -0.090
   523       HGA2     75    ETHOX    H13    523     0.090000     1.0080   ; qtot -0.000
   524      CG321     75    ETHOX     C2    524    -0.010000    12.0110   ; qtot -0.010
   525       HGA2     75    ETHOX    H21    525     0.090000     1.0080   ; qtot  0.080
   526       HGA2     75    ETHOX    H23    526     0.090000     1.0080   ; qtot  0.170
   527      OG301     76    ETHOX     O1    527    -0.340000    15.9994   ; qtot -0.170
   528      CG321     76    ETHOX     C1    528    -0.010000    12.0110   ; qtot -0.180
   529       HGA2     76    ETHOX    H11    529     0.090000     1.0080   ; qtot -0.090
   530       HGA2     76    ETHOX    H13    530     0.090000     1.0080   ; qtot -0.000
   531      CG321     76    ETHOX     C2    531    -0.010000    12.0110   ; qtot -0.010
   532       HGA2     76    ETHOX    H21    532     0.090000     1.0080   ; qtot  0.080
   533       HGA2     76    ETHOX    H23    533     0.090000     1.0080   ; qtot  0.170
   534      OG301     77    ETHOX     O1    534    -0.340000    15.9994   ; qtot -0.170
   535      CG321     77    ETHOX     C1    535    -0.010000    12.0110   ; qtot -0.180
   536       HGA2     77    ETHOX    H11    536     0.090000     1.0080   ; qtot -0.090
   537       HGA2     77    ETHOX    H13    537     0.090000     1.0080   ; qtot -0.000
   538      CG321     77    ETHOX     C2    538    -0.010000    12.0110   ; qtot -0.010
   539       HGA2     77    ETHOX    H21    539     0.090000     1.0080   ; qtot  0.080
   540       HGA2     77    ETHOX    H23    540     0.090000     1.0080   ; qtot  0.170
   541      OG301     78    ETHOX     O1    541    -0.340000    15.9994   ; qtot -0.170
   542      CG321     78    ETHOX     C1    542    -0.010000    12.0110   ; qtot -0.180
   543       HGA2     78    ETHOX    H11    543     0.090000     1.0080   ; qtot -0.090
   544       HGA2     78    ETHOX    H13    544     0.090000     1.0080   ; qtot -0.000
   545      CG321     78    ETHOX     C2    545    -0.010000    12.0110   ; qtot -0.010
   546       HGA2     78    ETHOX    H21    546     0.090000     1.0080   ; qtot  0.080
   547       HGA2     78    ETHOX    H23    547     0.090000     1.0080   ; qtot  0.170
   548      OG301     79    ETHOX     O1    548    -0.340000    15.9994   ; qtot -0.170
   549      CG321     79    ETHOX     C1    549    -0.010000    12.0110   ; qtot -0.180
   550       HGA2     79    ETHOX    H11    550     0.090000     1.0080   ; qtot -0.090
   551       HGA2     79    ETHOX    H13    551     0.090000     1.0080   ; qtot -0.000
   552      CG321     79    ETHOX     C2    552    -0.010000    12.0110   ; qtot -0.010
   553       HGA2     79    ETHOX    H21    553     0.090000     1.0080   ; qtot  0.080
   554       HGA2     79    ETHOX    H23    554     0.090000     1.0080   ; qtot  0.170
   555      OG301     80    ETHOX     O1    555    -0.340000    15.9994   ; qtot -0.170
   556      CG321     80    ETHOX     C1    556    -0.010000    12.0110   ; qtot -0.180
   557       HGA2     80    ETHOX    H11    557     0.090000     1.0080   ; qtot -0.090
   558       HGA2     80    ETHOX    H13    558     0.090000     1.0080   ; qtot -0.000
   559      CG321     80    ETHOX     C2    559    -0.010000    12.0110   ; qtot -0.010
   560       HGA2     80    ETHOX    H21    560     0.090000     1.0080   ; qtot  0.080
   561       HGA2     80    ETHOX    H23    561     0.090000     1.0080   ; qtot  0.170
   562      OG301     81    ETHOX     O1    562    -0.340000    15.9994   ; qtot -0.170
   563      CG321     81    ETHOX     C1    563    -0.010000    12.0110   ; qtot -0.180
   564       HGA2     81    ETHOX    H11    564     0.090000     1.0080   ; qtot -0.090
   565       HGA2     81    ETHOX    H13    565     0.090000     1.0080   ; qtot -0.000
   566      CG321     81    ETHOX     C2    566    -0.010000    12.0110   ; qtot -0.010
   567       HGA2     81    ETHOX    H21    567     0.090000     1.0080   ; qtot  0.080
   568       HGA2     81    ETHOX    H23    568     0.090000     1.0080   ; qtot  0.170
   569      OG301     82    ETHOX     O1    569    -0.340000    15.9994   ; qtot -0.170
   570      CG321     82    ETHOX     C1    570    -0.010000    12.0110   ; qtot -0.180
   571       HGA2     82    ETHOX    H11    571     0.090000     1.0080   ; qtot -0.090
   572       HGA2     82    ETHOX    H13    572     0.090000     1.0080   ; qtot -0.000
   573      CG321     82    ETHOX     C2    573    -0.010000    12.0110   ; qtot -0.010
   574       HGA2     82    ETHOX    H21    574     0.090000     1.0080   ; qtot  0.080
   575       HGA2     82    ETHOX    H23    575     0.090000     1.0080   ; qtot  0.170
   576      OG301     83    ETHOX     O1    576    -0.340000    15.9994   ; qtot -0.170
   577      CG321     83    ETHOX     C1    577    -0.010000    12.0110   ; qtot -0.180
   578       HGA2     83    ETHOX    H11    578     0.090000     1.0080   ; qtot -0.090
   579       HGA2     83    ETHOX    H13    579     0.090000     1.0080   ; qtot -0.000
   580      CG321     83    ETHOX     C2    580    -0.010000    12.0110   ; qtot -0.010
   581       HGA2     83    ETHOX    H21    581     0.090000     1.0080   ; qtot  0.080
   582       HGA2     83    ETHOX    H23    582     0.090000     1.0080   ; qtot  0.170
   583      OG301     84    ETHOX     O1    583    -0.340000    15.9994   ; qtot -0.170
   584      CG321     84    ETHOX     C1    584    -0.010000    12.0110   ; qtot -0.180
   585       HGA2     84    ETHOX    H11    585     0.090000     1.0080   ; qtot -0.090
   586       HGA2     84    ETHOX    H13    586     0.090000     1.0080   ; qtot -0.000
   587      CG321     84    ETHOX     C2    587    -0.010000    12.0110   ; qtot -0.010
   588       HGA2     84    ETHOX    H21    588     0.090000     1.0080   ; qtot  0.080
   589       HGA2     84    ETHOX    H23    589     0.090000     1.0080   ; qtot  0.170
   590      OG301     85    ETHOX     O1    590    -0.340000    15.9994   ; qtot -0.170
   591      CG321     85    ETHOX     C1    591    -0.010000    12.0110   ; qtot -0.180
   592       HGA2     85    ETHOX    H11    592     0.090000     1.0080   ; qtot -0.090
   593       HGA2     85    ETHOX    H13    593     0.090000     1.0080   ; qtot -0.000
   594      CG321     85    ETHOX     C2    594    -0.010000    12.0110   ; qtot -0.010
   595       HGA2     85    ETHOX    H21    595     0.090000     1.0080   ; qtot  0.080
   596       HGA2     85    ETHOX    H23    596     0.090000     1.0080   ; qtot  0.170
   597      OG301     86    ETHOX     O1    597    -0.340000    15.9994   ; qtot -0.170
   598      CG321     86    ETHOX     C1    598    -0.010000    12.0110   ; qtot -0.180
   599       HGA2     86    ETHOX    H11    599     0.090000     1.0080   ; qtot -0.090
   600       HGA2     86    ETHOX    H13    600     0.090000     1.0080   ; qtot -0.000
   601      CG321     86    ETHOX     C2    601    -0.010000    12.0110   ; qtot -0.010
   602       HGA2     86    ETHOX    H21    602     0.090000     1.0080   ; qtot  0.080
   603       HGA2     86    ETHOX    H23    603     0.090000     1.0080   ; qtot  0.170
   604      OG301     87    ETHOX     O1    604    -0.340000    15.9994   ; qtot -0.170
   605      CG321     87    ETHOX     C1    605    -0.010000    12.0110   ; qtot -0.180
   606       HGA2     87    ETHOX    H11    606     0.090000     1.0080   ; qtot -0.090
   607       HGA2     87    ETHOX    H13    607     0.090000     1.0080   ; qtot -0.000
   608      CG321     87    ETHOX     C2    608    -0.010000    12.0110   ; qtot -0.010
   609       HGA2     87    ETHOX    H21    609     0.090000     1.0080   ; qtot  0.080
   610       HGA2     87    ETHOX    H23    610     0.090000     1.0080   ; qtot  0.170
   611      OG301     88    ETHOX     O1    611    -0.340000    15.9994   ; qtot -0.170
   612      CG321     88    ETHOX     C1    612    -0.010000    12.0110   ; qtot -0.180
   613       HGA2     88    ETHOX    H11    613     0.090000     1.0080   ; qtot -0.090
   614       HGA2     88    ETHOX    H13    614     0.090000     1.0080   ; qtot -0.000
   615      CG321     88    ETHOX     C2    615    -0.010000    12.0110   ; qtot -0.010
   616       HGA2     88    ETHOX    H21    616     0.090000     1.0080   ; qtot  0.080
   617       HGA2     88    ETHOX    H23    617     0.090000     1.0080   ; qtot  0.170
   618      OG301     89    ETHOX     O1    618    -0.340000    15.9994   ; qtot -0.170
   619      CG321     89    ETHOX     C1    619    -0.010000    12.0110   ; qtot -0.180
   620       HGA2     89    ETHOX    H11    620     0.090000     1.0080   ; qtot -0.090
   621       HGA2     89    ETHOX    H13    621     0.090000     1.0080   ; qtot -0.000
   622      CG321     89    ETHOX     C2    622    -0.010000    12.0110   ; qtot -0.010
   623       HGA2     89    ETHOX    H21    623     0.090000     1.0080   ; qtot  0.080
   624       HGA2     89    ETHOX    H23    624     0.090000     1.0080   ; qtot  0.170
   625      OG301     90    ETHOX     O1    625    -0.340000    15.9994   ; qtot -0.170
   626      CG321     90    ETHOX     C1    626    -0.010000    12.0110   ; qtot -0.180
   627       HGA2     90    ETHOX    H11    627     0.090000     1.0080   ; qtot -0.090
   628       HGA2     90    ETHOX    H13    628     0.090000     1.0080   ; qtot -0.000
   629      CG321     90    ETHOX     C2    629    -0.010000    12.0110   ; qtot -0.010
   630       HGA2     90    ETHOX    H21    630     0.090000     1.0080   ; qtot  0.080
   631       HGA2     90    ETHOX    H23    631     0.090000     1.0080   ; qtot  0.170
   632      OG301     91    ETHOX     O1    632    -0.340000    15.9994   ; qtot -0.170
   633      CG321     91    ETHOX     C1    633    -0.010000    12.0110   ; qtot -0.180
   634       HGA2     91    ETHOX    H11    634     0.090000     1.0080   ; qtot -0.090
   635       HGA2     91    ETHOX    H13    635     0.090000     1.0080   ; qtot -0.000
   636      CG321     91    ETHOX     C2    636    -0.010000    12.0110   ; qtot -0.010
   637       HGA2     91    ETHOX    H21    637     0.090000     1.0080   ; qtot  0.080
   638       HGA2     91    ETHOX    H23    638     0.090000     1.0080   ; qtot  0.170
   639      OG301     92    ETHOX     O1    639    -0.340000    15.9994   ; qtot -0.170
   640      CG321     92    ETHOX     C1    640    -0.010000    12.0110   ; qtot -0.180
   641       HGA2     92    ETHOX    H11    641     0.090000     1.0080   ; qtot -0.090
   642       HGA2     92    ETHOX    H13    642     0.090000     1.0080   ; qtot -0.000
   643      CG321     92    ETHOX     C2    643    -0.010000    12.0110   ; qtot -0.010
   644       HGA2     92    ETHOX    H21    644     0.090000     1.0080   ; qtot  0.080
   645       HGA2     92    ETHOX    H23    645     0.090000     1.0080   ; qtot  0.170
   646      OG301     93    ETHOX     O1    646    -0.340000    15.9994   ; qtot -0.170
   647      CG321     93    ETHOX     C1    647    -0.010000    12.0110   ; qtot -0.180
   648       HGA2     93    ETHOX    H11    648     0.090000     1.0080   ; qtot -0.090
   649       HGA2     93    ETHOX    H13    649     0.090000     1.0080   ; qtot -0.000
   650      CG321     93    ETHOX     C2    650    -0.010000    12.0110   ; qtot -0.010
   651       HGA2     93    ETHOX    H21    651     0.090000     1.0080   ; qtot  0.080
   652       HGA2     93    ETHOX    H23    652     0.090000     1.0080   ; qtot  0.170
   653      OG301     94    ETHOX     O1    653    -0.340000    15.9994   ; qtot -0.170
   654      CG321     94    ETHOX     C1    654    -0.010000    12.0110   ; qtot -0.180
   655       HGA2     94    ETHOX    H11    655     0.090000     1.0080   ; qtot -0.090
   656       HGA2     94    ETHOX    H13    656     0.090000     1.0080   ; qtot -0.000
   657      CG321     94    ETHOX     C2    657    -0.010000    12.0110   ; qtot -0.010
   658       HGA2     94    ETHOX    H21    658     0.090000     1.0080   ; qtot  0.080
   659       HGA2     94    ETHOX    H23    659     0.090000     1.0080   ; qtot  0.170
   660      OG301     95    ETHOX     O1    660    -0.340000    15.9994   ; qtot -0.170
   661      CG321     95    ETHOX     C1    661    -0.010000    12.0110   ; qtot -0.180
   662       HGA2     95    ETHOX    H11    662     0.090000     1.0080   ; qtot -0.090
   663       HGA2     95    ETHOX    H13    663     0.090000     1.0080   ; qtot -0.000
   664      CG321     95    ETHOX     C2    664    -0.010000    12.0110   ; qtot -0.010
   665       HGA2     95    ETHOX    H21    665     0.090000     1.0080   ; qtot  0.080
   666       HGA2     95    ETHOX    H23    666     0.090000     1.0080   ; qtot  0.170
   667      OG301     96    ETHOX     O1    667    -0.340000    15.9994   ; qtot -0.170
   668      CG321     96    ETHOX     C1    668    -0.010000    12.0110   ; qtot -0.180
   669       HGA2     96    ETHOX    H11    669     0.090000     1.0080   ; qtot -0.090
   670       HGA2     96    ETHOX    H13    670     0.090000     1.0080   ; qtot -0.000
   671      CG321     96    ETHOX     C2    671    -0.010000    12.0110   ; qtot -0.010
   672       HGA2     96    ETHOX    H21    672     0.090000     1.0080   ; qtot  0.080
   673       HGA2     96    ETHOX    H23    673     0.090000     1.0080   ; qtot  0.170
   674      OG301     97    ETHOX     O1    674    -0.340000    15.9994   ; qtot -0.170
   675      CG321     97    ETHOX     C1    675    -0.010000    12.0110   ; qtot -0.180
   676       HGA2     97    ETHOX    H11    676     0.090000     1.0080   ; qtot -0.090
   677       HGA2     97    ETHOX    H13    677     0.090000     1.0080   ; qtot -0.000
   678      CG321     97    ETHOX     C2    678    -0.010000    12.0110   ; qtot -0.010
   679       HGA2     97    ETHOX    H21    679     0.090000     1.0080   ; qtot  0.080
   680       HGA2     97    ETHOX    H23    680     0.090000     1.0080   ; qtot  0.170
   681      OG301     98    ETHOX     O1    681    -0.340000    15.9994   ; qtot -0.170
   682      CG321     98    ETHOX     C1    682    -0.010000    12.0110   ; qtot -0.180
   683       HGA2     98    ETHOX    H11    683     0.090000     1.0080   ; qtot -0.090
   684       HGA2     98    ETHOX    H13    684     0.090000     1.0080   ; qtot -0.000
   685      CG321     98    ETHOX     C2    685    -0.010000    12.0110   ; qtot -0.010
   686       HGA2     98    ETHOX    H21    686     0.090000     1.0080   ; qtot  0.080
   687       HGA2     98    ETHOX    H23    687     0.090000     1.0080   ; qtot  0.170
   688      OG301     99    ETHOX     O1    688    -0.340000    15.9994   ; qtot -0.170
   689      CG321     99    ETHOX     C1    689    -0.010000    12.0110   ; qtot -0.180
   690       HGA2     99    ETHOX    H11    690     0.090000     1.0080   ; qtot -0.090
   691       HGA2     99    ETHOX    H13    691     0.090000     1.0080   ; qtot -0.000
   692      CG321     99    ETHOX     C2    692    -0.010000    12.0110   ; qtot -0.010
   693       HGA2     99    ETHOX    H21    693     0.090000     1.0080   ; qtot  0.080
   694       HGA2     99    ETHOX    H23    694     0.090000     1.0080   ; qtot  0.170
   695      OG301    100    ETHOX     O1    695    -0.340000    15.9994   ; qtot -0.170
   696      CG321    100    ETHOX     C1    696    -0.010000    12.0110   ; qtot -0.180
   697       HGA2    100    ETHOX    H11    697     0.090000     1.0080   ; qtot -0.090
   698       HGA2    100    ETHOX    H13    698     0.090000     1.0080   ; qtot -0.000
   699      CG321    100    ETHOX     C2    699    -0.010000    12.0110   ; qtot -0.010
   700       HGA2    100    ETHOX    H21    700     0.090000     1.0080   ; qtot  0.080
   701       HGA2    100    ETHOX    H23    701     0.090000     1.0080   ; qtot  0.170
   702      OG301    101    PROXS     O1    702    -0.340000    15.9994   ; qtot -0.170
   703      CG321    101    PROXS     C1    703    -0.010000    12.0110   ; qtot -0.180
   704       HGA2    101    PROXS    H11    704     0.090000     1.0080   ; qtot -0.090
   705       HGA2    101    PROXS    H13    705     0.090000     1.0080   ; qtot -0.000
   706      CG311    101    PROXS     C2    706     0.080000    12.0110   ; qtot  0.080
   707       HGA1    101    PROXS    H21    707     0.090000     1.0080   ; qtot  0.170
   708      CG331    101    PROXS     C3    708    -0.270000    12.0110   ; qtot -0.100
   709       HGA3    101    PROXS    H31    709     0.090000     1.0080   ; qtot -0.010
   710       HGA3    101    PROXS    H32    710     0.090000     1.0080   ; qtot  0.080
   711       HGA3    101    PROXS    H33    711     0.090000     1.0080   ; qtot  0.170
   712      OG301    102    PROXS     O1    712    -0.340000    15.9994   ; qtot -0.170
   713      CG321    102    PROXS     C1    713    -0.010000    12.0110   ; qtot -0.180
   714       HGA2    102    PROXS    H11    714     0.090000     1.0080   ; qtot -0.090
   715       HGA2    102    PROXS    H13    715     0.090000     1.0080   ; qtot -0.000
   716      CG311    102    PROXS     C2    716     0.080000    12.0110   ; qtot  0.080
   717       HGA1    102    PROXS    H21    717     0.090000     1.0080   ; qtot  0.170
   718      CG331    102    PROXS     C3    718    -0.270000    12.0110   ; qtot -0.100
   719       HGA3    102    PROXS    H31    719     0.090000     1.0080   ; qtot -0.010
   720       HGA3    102    PROXS    H32    720     0.090000     1.0080   ; qtot  0.080
   721       HGA3    102    PROXS    H33    721     0.090000     1.0080   ; qtot  0.170
   722      OG301    103    PROXR     O1    722    -0.340000    15.9994   ; qtot -0.170
   723      CG321    103    PROXR     C1    723    -0.010000    12.0110   ; qtot -0.180
   724       HGA2    103    PROXR    H11    724     0.090000     1.0080   ; qtot -0.090
   725       HGA2    103    PROXR    H13    725     0.090000     1.0080   ; qtot -0.000
   726      CG311    103    PROXR     C2    726     0.080000    12.0110   ; qtot  0.080
   727       HGA1    103    PROXR    H21    727     0.090000     1.0080   ; qtot  0.170
   728      CG331    103    PROXR     C3    728    -0.270000    12.0110   ; qtot -0.100
   729       HGA3    103    PROXR    H31    729     0.090000     1.0080   ; qtot -0.010
   730       HGA3    103    PROXR    H32    730     0.090000     1.0080   ; qtot  0.080
   731       HGA3    103    PROXR    H33    731     0.090000     1.0080   ; qtot  0.170
   732      OG301    104    PROXS     O1    732    -0.340000    15.9994   ; qtot -0.170
   733      CG321    104    PROXS     C1    733    -0.010000    12.0110   ; qtot -0.180
   734       HGA2    104    PROXS    H11    734     0.090000     1.0080   ; qtot -0.090
   735       HGA2    104    PROXS    H13    735     0.090000     1.0080   ; qtot -0.000
   736      CG311    104    PROXS     C2    736     0.080000    12.0110   ; qtot  0.080
   737       HGA1    104    PROXS    H21    737     0.090000     1.0080   ; qtot  0.170
   738      CG331    104    PROXS     C3    738    -0.270000    12.0110   ; qtot -0.100
   739       HGA3    104    PROXS    H31    739     0.090000     1.0080   ; qtot -0.010
   740       HGA3    104    PROXS    H32    740     0.090000     1.0080   ; qtot  0.080
   741       HGA3    104    PROXS    H33    741     0.090000     1.0080   ; qtot  0.170
   742      OG301    105    PROXS     O1    742    -0.340000    15.9994   ; qtot -0.170
   743      CG321    105    PROXS     C1    743    -0.010000    12.0110   ; qtot -0.180
   744       HGA2    105    PROXS    H11    744     0.090000     1.0080   ; qtot -0.090
   745       HGA2    105    PROXS    H13    745     0.090000     1.0080   ; qtot -0.000
   746      CG311    105    PROXS     C2    746     0.080000    12.0110   ; qtot  0.080
   747       HGA1    105    PROXS    H21    747     0.090000     1.0080   ; qtot  0.170
   748      CG331    105    PROXS     C3    748    -0.270000    12.0110   ; qtot -0.100
   749       HGA3    105    PROXS    H31    749     0.090000     1.0080   ; qtot -0.010
   750       HGA3    105    PROXS    H32    750     0.090000     1.0080   ; qtot  0.080
   751       HGA3    105    PROXS    H33    751     0.090000     1.0080   ; qtot  0.170
   752      OG301    106    PROXS     O1    752    -0.340000    15.9994   ; qtot -0.170
   753      CG321    106    PROXS     C1    753    -0.010000    12.0110   ; qtot -0.180
   754       HGA2    106    PROXS    H11    754     0.090000     1.0080   ; qtot -0.090
   755       HGA2    106    PROXS    H13    755     0.090000     1.0080   ; qtot -0.000
   756      CG311    106    PROXS     C2    756     0.080000    12.0110   ; qtot  0.080
   757       HGA1    106    PROXS    H21    757     0.090000     1.0080   ; qtot  0.170
   758      CG331    106    PROXS     C3    758    -0.270000    12.0110   ; qtot -0.100
   759       HGA3    106    PROXS    H31    759     0.090000     1.0080   ; qtot -0.010
   760       HGA3    106    PROXS    H32    760     0.090000     1.0080   ; qtot  0.080
   761       HGA3    106    PROXS    H33    761     0.090000     1.0080   ; qtot  0.170
   762      OG301    107    PROXR     O1    762    -0.340000    15.9994   ; qtot -0.170
   763      CG321    107    PROXR     C1    763    -0.010000    12.0110   ; qtot -0.180
   764       HGA2    107    PROXR    H11    764     0.090000     1.0080   ; qtot -0.090
   765       HGA2    107    PROXR    H13    765     0.090000     1.0080   ; qtot -0.000
   766      CG311    107    PROXR     C2    766     0.080000    12.0110   ; qtot  0.080
   767       HGA1    107    PROXR    H21    767     0.090000     1.0080   ; qtot  0.170
   768      CG331    107    PROXR     C3    768    -0.270000    12.0110   ; qtot -0.100
   769       HGA3    107    PROXR    H31    769     0.090000     1.0080   ; qtot -0.010
   770       HGA3    107    PROXR    H32    770     0.090000     1.0080   ; qtot  0.080
   771       HGA3    107    PROXR    H33    771     0.090000     1.0080   ; qtot  0.170
   772      OG301    108    PROXS     O1    772    -0.340000    15.9994   ; qtot -0.170
   773      CG321    108    PROXS     C1    773    -0.010000    12.0110   ; qtot -0.180
   774       HGA2    108    PROXS    H11    774     0.090000     1.0080   ; qtot -0.090
   775       HGA2    108    PROXS    H13    775     0.090000     1.0080   ; qtot -0.000
   776      CG311    108    PROXS     C2    776     0.080000    12.0110   ; qtot  0.080
   777       HGA1    108    PROXS    H21    777     0.090000     1.0080   ; qtot  0.170
   778      CG331    108    PROXS     C3    778    -0.270000    12.0110   ; qtot -0.100
   779       HGA3    108    PROXS    H31    779     0.090000     1.0080   ; qtot -0.010
   780       HGA3    108    PROXS    H32    780     0.090000     1.0080   ; qtot  0.080
   781       HGA3    108    PROXS    H33    781     0.090000     1.0080   ; qtot  0.170
   782      OG301    109    PROXS     O1    782    -0.340000    15.9994   ; qtot -0.170
   783      CG321    109    PROXS     C1    783    -0.010000    12.0110   ; qtot -0.180
   784       HGA2    109    PROXS    H11    784     0.090000     1.0080   ; qtot -0.090
   785       HGA2    109    PROXS    H13    785     0.090000     1.0080   ; qtot -0.000
   786      CG311    109    PROXS     C2    786     0.080000    12.0110   ; qtot  0.080
   787       HGA1    109    PROXS    H21    787     0.090000     1.0080   ; qtot  0.170
   788      CG331    109    PROXS     C3    788    -0.270000    12.0110   ; qtot -0.100
   789       HGA3    109    PROXS    H31    789     0.090000     1.0080   ; qtot -0.010
   790       HGA3    109    PROXS    H32    790     0.090000     1.0080   ; qtot  0.080
   791       HGA3    109    PROXS    H33    791     0.090000     1.0080   ; qtot  0.170
   792      OG301    110    PROXR     O1    792    -0.340000    15.9994   ; qtot -0.170
   793      CG321    110    PROXR     C1    793    -0.010000    12.0110   ; qtot -0.180
   794       HGA2    110    PROXR    H11    794     0.090000     1.0080   ; qtot -0.090
   795       HGA2    110    PROXR    H13    795     0.090000     1.0080   ; qtot -0.000
   796      CG311    110    PROXR     C2    796     0.080000    12.0110   ; qtot  0.080
   797       HGA1    110    PROXR    H21    797     0.090000     1.0080   ; qtot  0.170
   798      CG331    110    PROXR     C3    798    -0.270000    12.0110   ; qtot -0.100
   799       HGA3    110    PROXR    H31    799     0.090000     1.0080   ; qtot -0.010
   800       HGA3    110    PROXR    H32    800     0.090000     1.0080   ; qtot  0.080
   801       HGA3    110    PROXR    H33    801     0.090000     1.0080   ; qtot  0.170
   802      OG301    111    PROXS     O1    802    -0.340000    15.9994   ; qtot -0.170
   803      CG321    111    PROXS     C1    803    -0.010000    12.0110   ; qtot -0.180
   804       HGA2    111    PROXS    H11    804     0.090000     1.0080   ; qtot -0.090
   805       HGA2    111    PROXS    H13    805     0.090000     1.0080   ; qtot -0.000
   806      CG311    111    PROXS     C2    806     0.080000    12.0110   ; qtot  0.080
   807       HGA1    111    PROXS    H21    807     0.090000     1.0080   ; qtot  0.170
   808      CG331    111    PROXS     C3    808    -0.270000    12.0110   ; qtot -0.100
   809       HGA3    111    PROXS    H31    809     0.090000     1.0080   ; qtot -0.010
   810       HGA3    111    PROXS    H32    810     0.090000     1.0080   ; qtot  0.080
   811       HGA3    111    PROXS    H33    811     0.090000     1.0080   ; qtot  0.170
   812      OG301    112    PROXR     O1    812    -0.340000    15.9994   ; qtot -0.170
   813      CG321    112    PROXR     C1    813    -0.010000    12.0110   ; qtot -0.180
   814       HGA2    112    PROXR    H11    814     0.090000     1.0080   ; qtot -0.090
   815       HGA2    112    PROXR    H13    815     0.090000     1.0080   ; qtot -0.000
   816      CG311    112    PROXR     C2    816     0.080000    12.0110   ; qtot  0.080
   817       HGA1    112    PROXR    H21    817     0.090000     1.0080   ; qtot  0.170
   818      CG331    112    PROXR     C3    818    -0.270000    12.0110   ; qtot -0.100
   819       HGA3    112    PROXR    H31    819     0.090000     1.0080   ; qtot -0.010
   820       HGA3    112    PROXR    H32    820     0.090000     1.0080   ; qtot  0.080
   821       HGA3    112    PROXR    H33    821     0.090000     1.0080   ; qtot  0.170
   822      OG301    113    PROXS     O1    822    -0.340000    15.9994   ; qtot -0.170
   823      CG321    113    PROXS     C1    823    -0.010000    12.0110   ; qtot -0.180
   824       HGA2    113    PROXS    H11    824     0.090000     1.0080   ; qtot -0.090
   825       HGA2    113    PROXS    H13    825     0.090000     1.0080   ; qtot -0.000
   826      CG311    113    PROXS     C2    826     0.080000    12.0110   ; qtot  0.080
   827       HGA1    113    PROXS    H21    827     0.090000     1.0080   ; qtot  0.170
   828      CG331    113    PROXS     C3    828    -0.270000    12.0110   ; qtot -0.100
   829       HGA3    113    PROXS    H31    829     0.090000     1.0080   ; qtot -0.010
   830       HGA3    113    PROXS    H32    830     0.090000     1.0080   ; qtot  0.080
   831       HGA3    113    PROXS    H33    831     0.090000     1.0080   ; qtot  0.170
   832      OG301    114    PROXR     O1    832    -0.340000    15.9994   ; qtot -0.170
   833      CG321    114    PROXR     C1    833    -0.010000    12.0110   ; qtot -0.180
   834       HGA2    114    PROXR    H11    834     0.090000     1.0080   ; qtot -0.090
   835       HGA2    114    PROXR    H13    835     0.090000     1.0080   ; qtot -0.000
   836      CG311    114    PROXR     C2    836     0.080000    12.0110   ; qtot  0.080
   837       HGA1    114    PROXR    H21    837     0.090000     1.0080   ; qtot  0.170
   838      CG331    114    PROXR     C3    838    -0.270000    12.0110   ; qtot -0.100
   839       HGA3    114    PROXR    H31    839     0.090000     1.0080   ; qtot -0.010
   840       HGA3    114    PROXR    H32    840     0.090000     1.0080   ; qtot  0.080
   841       HGA3    114    PROXR    H33    841     0.090000     1.0080   ; qtot  0.170
   842      OG301    115    PROXR     O1    842    -0.340000    15.9994   ; qtot -0.170
   843      CG321    115    PROXR     C1    843    -0.010000    12.0110   ; qtot -0.180
   844       HGA2    115    PROXR    H11    844     0.090000     1.0080   ; qtot -0.090
   845       HGA2    115    PROXR    H13    845     0.090000     1.0080   ; qtot -0.000
   846      CG311    115    PROXR     C2    846     0.080000    12.0110   ; qtot  0.080
   847       HGA1    115    PROXR    H21    847     0.090000     1.0080   ; qtot  0.170
   848      CG331    115    PROXR     C3    848    -0.270000    12.0110   ; qtot -0.100
   849       HGA3    115    PROXR    H31    849     0.090000     1.0080   ; qtot -0.010
   850       HGA3    115    PROXR    H32    850     0.090000     1.0080   ; qtot  0.080
   851       HGA3    115    PROXR    H33    851     0.090000     1.0080   ; qtot  0.170
   852      OG301    116    PROXS     O1    852    -0.340000    15.9994   ; qtot -0.170
   853      CG321    116    PROXS     C1    853    -0.010000    12.0110   ; qtot -0.180
   854       HGA2    116    PROXS    H11    854     0.090000     1.0080   ; qtot -0.090
   855       HGA2    116    PROXS    H13    855     0.090000     1.0080   ; qtot -0.000
   856      CG311    116    PROXS     C2    856     0.080000    12.0110   ; qtot  0.080
   857       HGA1    116    PROXS    H21    857     0.090000     1.0080   ; qtot  0.170
   858      CG331    116    PROXS     C3    858    -0.270000    12.0110   ; qtot -0.100
   859       HGA3    116    PROXS    H31    859     0.090000     1.0080   ; qtot -0.010
   860       HGA3    116    PROXS    H32    860     0.090000     1.0080   ; qtot  0.080
   861       HGA3    116    PROXS    H33    861     0.090000     1.0080   ; qtot  0.170
   862      OG301    117    PROXS     O1    862    -0.340000    15.9994   ; qtot -0.170
   863      CG321    117    PROXS     C1    863    -0.010000    12.0110   ; qtot -0.180
   864       HGA2    117    PROXS    H11    864     0.090000     1.0080   ; qtot -0.090
   865       HGA2    117    PROXS    H13    865     0.090000     1.0080   ; qtot -0.000
   866      CG311    117    PROXS     C2    866     0.080000    12.0110   ; qtot  0.080
   867       HGA1    117    PROXS    H21    867     0.090000     1.0080   ; qtot  0.170
   868      CG331    117    PROXS     C3    868    -0.270000    12.0110   ; qtot -0.100
   869       HGA3    117    PROXS    H31    869     0.090000     1.0080   ; qtot -0.010
   870       HGA3    117    PROXS    H32    870     0.090000     1.0080   ; qtot  0.080
   871       HGA3    117    PROXS    H33    871     0.090000     1.0080   ; qtot  0.170
   872      OG301    118    PROXR     O1    872    -0.340000    15.9994   ; qtot -0.170
   873      CG321    118    PROXR     C1    873    -0.010000    12.0110   ; qtot -0.180
   874       HGA2    118    PROXR    H11    874     0.090000     1.0080   ; qtot -0.090
   875       HGA2    118    PROXR    H13    875     0.090000     1.0080   ; qtot -0.000
   876      CG311    118    PROXR     C2    876     0.080000    12.0110   ; qtot  0.080
   877       HGA1    118    PROXR    H21    877     0.090000     1.0080   ; qtot  0.170
   878      CG331    118    PROXR     C3    878    -0.270000    12.0110   ; qtot -0.100
   879       HGA3    118    PROXR    H31    879     0.090000     1.0080   ; qtot -0.010
   880       HGA3    118    PROXR    H32    880     0.090000     1.0080   ; qtot  0.080
   881       HGA3    118    PROXR    H33    881     0.090000     1.0080   ; qtot  0.170
   882      OG301    119    PROXR     O1    882    -0.340000    15.9994   ; qtot -0.170
   883      CG321    119    PROXR     C1    883    -0.010000    12.0110   ; qtot -0.180
   884       HGA2    119    PROXR    H11    884     0.090000     1.0080   ; qtot -0.090
   885       HGA2    119    PROXR    H13    885     0.090000     1.0080   ; qtot -0.000
   886      CG311    119    PROXR     C2    886     0.080000    12.0110   ; qtot  0.080
   887       HGA1    119    PROXR    H21    887     0.090000     1.0080   ; qtot  0.170
   888      CG331    119    PROXR     C3    888    -0.270000    12.0110   ; qtot -0.100
   889       HGA3    119    PROXR    H31    889     0.090000     1.0080   ; qtot -0.010
   890       HGA3    119    PROXR    H32    890     0.090000     1.0080   ; qtot  0.080
   891       HGA3    119    PROXR    H33    891     0.090000     1.0080   ; qtot  0.170
   892      OG301    120    PROXS     O1    892    -0.340000    15.9994   ; qtot -0.170
   893      CG321    120    PROXS     C1    893    -0.010000    12.0110   ; qtot -0.180
   894       HGA2    120    PROXS    H11    894     0.090000     1.0080   ; qtot -0.090
   895       HGA2    120    PROXS    H13    895     0.090000     1.0080   ; qtot -0.000
   896      CG311    120    PROXS     C2    896     0.080000    12.0110   ; qtot  0.080
   897       HGA1    120    PROXS    H21    897     0.090000     1.0080   ; qtot  0.170
   898      CG331    120    PROXS     C3    898    -0.270000    12.0110   ; qtot -0.100
   899       HGA3    120    PROXS    H31    899     0.090000     1.0080   ; qtot -0.010
   900       HGA3    120    PROXS    H32    900     0.090000     1.0080   ; qtot  0.080
   901       HGA3    120    PROXS    H33    901     0.090000     1.0080   ; qtot  0.170
   902      OG301    121    PROXS     O1    902    -0.340000    15.9994   ; qtot -0.170
   903      CG321    121    PROXS     C1    903    -0.010000    12.0110   ; qtot -0.180
   904       HGA2    121    PROXS    H11    904     0.090000     1.0080   ; qtot -0.090
   905       HGA2    121    PROXS    H13    905     0.090000     1.0080   ; qtot -0.000
   906      CG311    121    PROXS     C2    906     0.080000    12.0110   ; qtot  0.080
   907       HGA1    121    PROXS    H21    907     0.090000     1.0080   ; qtot  0.170
   908      CG331    121    PROXS     C3    908    -0.270000    12.0110   ; qtot -0.100
   909       HGA3    121    PROXS    H31    909     0.090000     1.0080   ; qtot -0.010
   910       HGA3    121    PROXS    H32    910     0.090000     1.0080   ; qtot  0.080
   911       HGA3    121    PROXS    H33    911     0.090000     1.0080   ; qtot  0.170
   912      OG301    122    PROXS     O1    912    -0.340000    15.9994   ; qtot -0.170
   913      CG321    122    PROXS     C1    913    -0.010000    12.0110   ; qtot -0.180
   914       HGA2    122    PROXS    H11    914     0.090000     1.0080   ; qtot -0.090
   915       HGA2    122    PROXS    H13    915     0.090000     1.0080   ; qtot -0.000
   916      CG311    122    PROXS     C2    916     0.080000    12.0110   ; qtot  0.080
   917       HGA1    122    PROXS    H21    917     0.090000     1.0080   ; qtot  0.170
   918      CG331    122    PROXS     C3    918    -0.270000    12.0110   ; qtot -0.100
   919       HGA3    122    PROXS    H31    919     0.090000     1.0080   ; qtot -0.010
   920       HGA3    122    PROXS    H32    920     0.090000     1.0080   ; qtot  0.080
   921       HGA3    122    PROXS    H33    921     0.090000     1.0080   ; qtot  0.170
   922      OG301    123    PROXS     O1    922    -0.340000    15.9994   ; qtot -0.170
   923      CG321    123    PROXS     C1    923    -0.010000    12.0110   ; qtot -0.180
   924       HGA2    123    PROXS    H11    924     0.090000     1.0080   ; qtot -0.090
   925       HGA2    123    PROXS    H13    925     0.090000     1.0080   ; qtot -0.000
   926      CG311    123    PROXS     C2    926     0.080000    12.0110   ; qtot  0.080
   927       HGA1    123    PROXS    H21    927     0.090000     1.0080   ; qtot  0.170
   928      CG331    123    PROXS     C3    928    -0.270000    12.0110   ; qtot -0.100
   929       HGA3    123    PROXS    H31    929     0.090000     1.0080   ; qtot -0.010
   930       HGA3    123    PROXS    H32    930     0.090000     1.0080   ; qtot  0.080
   931       HGA3    123    PROXS    H33    931     0.090000     1.0080   ; qtot  0.170
   932      OG301    124    PROXR     O1    932    -0.340000    15.9994   ; qtot -0.170
   933      CG321    124    PROXR     C1    933    -0.010000    12.0110   ; qtot -0.180
   934       HGA2    124    PROXR    H11    934     0.090000     1.0080   ; qtot -0.090
   935       HGA2    124    PROXR    H13    935     0.090000     1.0080   ; qtot -0.000
   936      CG311    124    PROXR     C2    936     0.080000    12.0110   ; qtot  0.080
   937       HGA1    124    PROXR    H21    937     0.090000     1.0080   ; qtot  0.170
   938      CG331    124    PROXR     C3    938    -0.270000    12.0110   ; qtot -0.100
   939       HGA3    124    PROXR    H31    939     0.090000     1.0080   ; qtot -0.010
   940       HGA3    124    PROXR    H32    940     0.090000     1.0080   ; qtot  0.080
   941       HGA3    124    PROXR    H33    941     0.090000     1.0080   ; qtot  0.170
   942      OG301    125    PROXS     O1    942    -0.340000    15.9994   ; qtot -0.170
   943      CG321    125    PROXS     C1    943    -0.010000    12.0110   ; qtot -0.180
   944       HGA2    125    PROXS    H11    944     0.090000     1.0080   ; qtot -0.090
   945       HGA2    125    PROXS    H13    945     0.090000     1.0080   ; qtot -0.000
   946      CG311    125    PROXS     C2    946     0.080000    12.0110   ; qtot  0.080
   947       HGA1    125    PROXS    H21    947     0.090000     1.0080   ; qtot  0.170
   948      CG331    125    PROXS     C3    948    -0.270000    12.0110   ; qtot -0.100
   949       HGA3    125    PROXS    H31    949     0.090000     1.0080   ; qtot -0.010
   950       HGA3    125    PROXS    H32    950     0.090000     1.0080   ; qtot  0.080
   951       HGA3    125    PROXS    H33    951     0.090000     1.0080   ; qtot  0.170
   952      OG301    126    PROXS     O1    952    -0.340000    15.9994   ; qtot -0.170
   953      CG321    126    PROXS     C1    953    -0.010000    12.0110   ; qtot -0.180
   954       HGA2    126    PROXS    H11    954     0.090000     1.0080   ; qtot -0.090
   955       HGA2    126    PROXS    H13    955     0.090000     1.0080   ; qtot -0.000
   956      CG311    126    PROXS     C2    956     0.080000    12.0110   ; qtot  0.080
   957       HGA1    126    PROXS    H21    957     0.090000     1.0080   ; qtot  0.170
   958      CG331    126    PROXS     C3    958    -0.270000    12.0110   ; qtot -0.100
   959       HGA3    126    PROXS    H31    959     0.090000     1.0080   ; qtot -0.010
   960       HGA3    126    PROXS    H32    960     0.090000     1.0080   ; qtot  0.080
   961       HGA3    126    PROXS    H33    961     0.090000     1.0080   ; qtot  0.170
   962      OG301    127    PROXR     O1    962    -0.340000    15.9994   ; qtot -0.170
   963      CG321    127    PROXR     C1    963    -0.010000    12.0110   ; qtot -0.180
   964       HGA2    127    PROXR    H11    964     0.090000     1.0080   ; qtot -0.090
   965       HGA2    127    PROXR    H13    965     0.090000     1.0080   ; qtot -0.000
   966      CG311    127    PROXR     C2    966     0.080000    12.0110   ; qtot  0.080
   967       HGA1    127    PROXR    H21    967     0.090000     1.0080   ; qtot  0.170
   968      CG331    127    PROXR     C3    968    -0.270000    12.0110   ; qtot -0.100
   969       HGA3    127    PROXR    H31    969     0.090000     1.0080   ; qtot -0.010
   970       HGA3    127    PROXR    H32    970     0.090000     1.0080   ; qtot  0.080
   971       HGA3    127    PROXR    H33    971     0.090000     1.0080   ; qtot  0.170
   972      OG301    128    PROXR     O1    972    -0.340000    15.9994   ; qtot -0.170
   973      CG321    128    PROXR     C1    973    -0.010000    12.0110   ; qtot -0.180
   974       HGA2    128    PROXR    H11    974     0.090000     1.0080   ; qtot -0.090
   975       HGA2    128    PROXR    H13    975     0.090000     1.0080   ; qtot -0.000
   976      CG311    128    PROXR     C2    976     0.080000    12.0110   ; qtot  0.080
   977       HGA1    128    PROXR    H21    977     0.090000     1.0080   ; qtot  0.170
   978      CG331    128    PROXR     C3    978    -0.270000    12.0110   ; qtot -0.100
   979       HGA3    128    PROXR    H31    979     0.090000     1.0080   ; qtot -0.010
   980       HGA3    128    PROXR    H32    980     0.090000     1.0080   ; qtot  0.080
   981       HGA3    128    PROXR    H33    981     0.090000     1.0080   ; qtot  0.170
   982      OG301    129    PROXS     O1    982    -0.340000    15.9994   ; qtot -0.170
   983      CG321    129    PROXS     C1    983    -0.010000    12.0110   ; qtot -0.180
   984       HGA2    129    PROXS    H11    984     0.090000     1.0080   ; qtot -0.090
   985       HGA2    129    PROXS    H13    985     0.090000     1.0080   ; qtot -0.000
   986      CG311    129    PROXS     C2    986     0.080000    12.0110   ; qtot  0.080
   987       HGA1    129    PROXS    H21    987     0.090000     1.0080   ; qtot  0.170
   988      CG331    129    PROXS     C3    988    -0.270000    12.0110   ; qtot -0.100
   989       HGA3    129    PROXS    H31    989     0.090000     1.0080   ; qtot -0.010
   990       HGA3    129    PROXS    H32    990     0.090000     1.0080   ; qtot  0.080
   991       HGA3    129    PROXS    H33    991     0.090000     1.0080   ; qtot  0.170
   992      OG301    130    PROXS     O1    992    -0.340000    15.9994   ; qtot -0.170
   993      CG321    130    PROXS     C1    993    -0.010000    12.0110   ; qtot -0.180
   994       HGA2    130    PROXS    H11    994     0.090000     1.0080   ; qtot -0.090
   995       HGA2    130    PROXS    H13    995     0.090000     1.0080   ; qtot -0.000
   996      CG311    130    PROXS     C2    996     0.080000    12.0110   ; qtot  0.080
   997       HGA1    130    PROXS    H21    997     0.090000     1.0080   ; qtot  0.170
   998      CG331    130    PROXS     C3    998    -0.270000    12.0110   ; qtot -0.100
   999       HGA3    130    PROXS    H31    999     0.090000     1.0080   ; qtot -0.010
  1000       HGA3    130    PROXS    H32   1000     0.090000     1.0080   ; qtot  0.080
  1001       HGA3    130    PROXS    H33   1001     0.090000     1.0080   ; qtot  0.170
  1002      OG301    131    PROXS     O1   1002    -0.340000    15.9994   ; qtot -0.170
  1003      CG321    131    PROXS     C1   1003    -0.010000    12.0110   ; qtot -0.180
  1004       HGA2    131    PROXS    H11   1004     0.090000     1.0080   ; qtot -0.090
  1005       HGA2    131    PROXS    H13   1005     0.090000     1.0080   ; qtot -0.000
  1006      CG311    131    PROXS     C2   1006     0.080000    12.0110   ; qtot  0.080
  1007       HGA1    131    PROXS    H21   1007     0.090000     1.0080   ; qtot  0.170
  1008      CG331    131    PROXS     C3   1008    -0.270000    12.0110   ; qtot -0.100
  1009       HGA3    131    PROXS    H31   1009     0.090000     1.0080   ; qtot -0.010
  1010       HGA3    131    PROXS    H32   1010     0.090000     1.0080   ; qtot  0.080
  1011       HGA3    131    PROXS    H33   1011     0.090000     1.0080   ; qtot  0.170
  1012      OG301    132    PROXS     O1   1012    -0.340000    15.9994   ; qtot -0.170
  1013      CG321    132    PROXS     C1   1013    -0.010000    12.0110   ; qtot -0.180
  1014       HGA2    132    PROXS    H11   1014     0.090000     1.0080   ; qtot -0.090
  1015       HGA2    132    PROXS    H13   1015     0.090000     1.0080   ; qtot -0.000
  1016      CG311    132    PROXS     C2   1016     0.080000    12.0110   ; qtot  0.080
  1017       HGA1    132    PROXS    H21   1017     0.090000     1.0080   ; qtot  0.170
  1018      CG331    132    PROXS     C3   1018    -0.270000    12.0110   ; qtot -0.100
  1019       HGA3    132    PROXS    H31   1019     0.090000     1.0080   ; qtot -0.010
  1020       HGA3    132    PROXS    H32   1020     0.090000     1.0080   ; qtot  0.080
  1021       HGA3    132    PROXS    H33   1021     0.090000     1.0080   ; qtot  0.170
  1022      OG301    133    PROXS     O1   1022    -0.340000    15.9994   ; qtot -0.170
  1023      CG321    133    PROXS     C1   1023    -0.010000    12.0110   ; qtot -0.180
  1024       HGA2    133    PROXS    H11   1024     0.090000     1.0080   ; qtot -0.090
  1025       HGA2    133    PROXS    H13   1025     0.090000     1.0080   ; qtot -0.000
  1026      CG311    133    PROXS     C2   1026     0.080000    12.0110   ; qtot  0.080
  1027       HGA1    133    PROXS    H21   1027     0.090000     1.0080   ; qtot  0.170
  1028      CG331    133    PROXS     C3   1028    -0.270000    12.0110   ; qtot -0.100
  1029       HGA3    133    PROXS    H31   1029     0.090000     1.0080   ; qtot -0.010
  1030       HGA3    133    PROXS    H32   1030     0.090000     1.0080   ; qtot  0.080
  1031       HGA3    133    PROXS    H33   1031     0.090000     1.0080   ; qtot  0.170
  1032      OG301    134    PROXS     O1   1032    -0.340000    15.9994   ; qtot -0.170
  1033      CG321    134    PROXS     C1   1033    -0.010000    12.0110   ; qtot -0.180
  1034       HGA2    134    PROXS    H11   1034     0.090000     1.0080   ; qtot -0.090
  1035       HGA2    134    PROXS    H13   1035     0.090000     1.0080   ; qtot -0.000
  1036      CG311    134    PROXS     C2   1036     0.080000    12.0110   ; qtot  0.080
  1037       HGA1    134    PROXS    H21   1037     0.090000     1.0080   ; qtot  0.170
  1038      CG331    134    PROXS     C3   1038    -0.270000    12.0110   ; qtot -0.100
  1039       HGA3    134    PROXS    H31   1039     0.090000     1.0080   ; qtot -0.010
  1040       HGA3    134    PROXS    H32   1040     0.090000     1.0080   ; qtot  0.080
  1041       HGA3    134    PROXS    H33   1041     0.090000     1.0080   ; qtot  0.170
  1042      OG301    135    PROXS     O1   1042    -0.340000    15.9994   ; qtot -0.170
  1043      CG321    135    PROXS     C1   1043    -0.010000    12.0110   ; qtot -0.180
  1044       HGA2    135    PROXS    H11   1044     0.090000     1.0080   ; qtot -0.090
  1045       HGA2    135    PROXS    H13   1045     0.090000     1.0080   ; qtot -0.000
  1046      CG311    135    PROXS     C2   1046     0.080000    12.0110   ; qtot  0.080
  1047       HGA1    135    PROXS    H21   1047     0.090000     1.0080   ; qtot  0.170
  1048      CG331    135    PROXS     C3   1048    -0.270000    12.0110   ; qtot -0.100
  1049       HGA3    135    PROXS    H31   1049     0.090000     1.0080   ; qtot -0.010
  1050       HGA3    135    PROXS    H32   1050     0.090000     1.0080   ; qtot  0.080
  1051       HGA3    135    PROXS    H33   1051     0.090000     1.0080   ; qtot  0.170
  1052      OG301    136    PROXS     O1   1052    -0.340000    15.9994   ; qtot -0.170
  1053      CG321    136    PROXS     C1   1053    -0.010000    12.0110   ; qtot -0.180
  1054       HGA2    136    PROXS    H11   1054     0.090000     1.0080   ; qtot -0.090
  1055       HGA2    136    PROXS    H13   1055     0.090000     1.0080   ; qtot -0.000
  1056      CG311    136    PROXS     C2   1056     0.080000    12.0110   ; qtot  0.080
  1057       HGA1    136    PROXS    H21   1057     0.090000     1.0080   ; qtot  0.170
  1058      CG331    136    PROXS     C3   1058    -0.270000    12.0110   ; qtot -0.100
  1059       HGA3    136    PROXS    H31   1059     0.090000     1.0080   ; qtot -0.010
  1060       HGA3    136    PROXS    H32   1060     0.090000     1.0080   ; qtot  0.080
  1061       HGA3    136    PROXS    H33   1061     0.090000     1.0080   ; qtot  0.170
  1062      OG301    137    PROXS     O1   1062    -0.340000    15.9994   ; qtot -0.170
  1063      CG321    137    PROXS     C1   1063    -0.010000    12.0110   ; qtot -0.180
  1064       HGA2    137    PROXS    H11   1064     0.090000     1.0080   ; qtot -0.090
  1065       HGA2    137    PROXS    H13   1065     0.090000     1.0080   ; qtot -0.000
  1066      CG311    137    PROXS     C2   1066     0.080000    12.0110   ; qtot  0.080
  1067       HGA1    137    PROXS    H21   1067     0.090000     1.0080   ; qtot  0.170
  1068      CG331    137    PROXS     C3   1068    -0.270000    12.0110   ; qtot -0.100
  1069       HGA3    137    PROXS    H31   1069     0.090000     1.0080   ; qtot -0.010
  1070       HGA3    137    PROXS    H32   1070     0.090000     1.0080   ; qtot  0.080
  1071       HGA3    137    PROXS    H33   1071     0.090000     1.0080   ; qtot  0.170
  1072      OG301    138    PROXR     O1   1072    -0.340000    15.9994   ; qtot -0.170
  1073      CG321    138    PROXR     C1   1073    -0.010000    12.0110   ; qtot -0.180
  1074       HGA2    138    PROXR    H11   1074     0.090000     1.0080   ; qtot -0.090
  1075       HGA2    138    PROXR    H13   1075     0.090000     1.0080   ; qtot -0.000
  1076      CG311    138    PROXR     C2   1076     0.080000    12.0110   ; qtot  0.080
  1077       HGA1    138    PROXR    H21   1077     0.090000     1.0080   ; qtot  0.170
  1078      CG331    138    PROXR     C3   1078    -0.270000    12.0110   ; qtot -0.100
  1079       HGA3    138    PROXR    H31   1079     0.090000     1.0080   ; qtot -0.010
  1080       HGA3    138    PROXR    H32   1080     0.090000     1.0080   ; qtot  0.080
  1081       HGA3    138    PROXR    H33   1081     0.090000     1.0080   ; qtot  0.170
  1082      OG301    139    PROXS     O1   1082    -0.340000    15.9994   ; qtot -0.170
  1083      CG321    139    PROXS     C1   1083    -0.010000    12.0110   ; qtot -0.180
  1084       HGA2    139    PROXS    H11   1084     0.090000     1.0080   ; qtot -0.090
  1085       HGA2    139    PROXS    H13   1085     0.090000     1.0080   ; qtot -0.000
  1086      CG311    139    PROXS     C2   1086     0.080000    12.0110   ; qtot  0.080
  1087       HGA1    139    PROXS    H21   1087     0.090000     1.0080   ; qtot  0.170
  1088      CG331    139    PROXS     C3   1088    -0.270000    12.0110   ; qtot -0.100
  1089       HGA3    139    PROXS    H31   1089     0.090000     1.0080   ; qtot -0.010
  1090       HGA3    139    PROXS    H32   1090     0.090000     1.0080   ; qtot  0.080
  1091       HGA3    139    PROXS    H33   1091     0.090000     1.0080   ; qtot  0.170
  1092      OG301    140    PROXR     O1   1092    -0.340000    15.9994   ; qtot -0.170
  1093      CG321    140    PROXR     C1   1093    -0.010000    12.0110   ; qtot -0.180
  1094       HGA2    140    PROXR    H11   1094     0.090000     1.0080   ; qtot -0.090
  1095       HGA2    140    PROXR    H13   1095     0.090000     1.0080   ; qtot -0.000
  1096      CG311    140    PROXR     C2   1096     0.080000    12.0110   ; qtot  0.080
  1097       HGA1    140    PROXR    H21   1097     0.090000     1.0080   ; qtot  0.170
  1098      CG331    140    PROXR     C3   1098    -0.270000    12.0110   ; qtot -0.100
  1099       HGA3    140    PROXR    H31   1099     0.090000     1.0080   ; qtot -0.010
  1100       HGA3    140    PROXR    H32   1100     0.090000     1.0080   ; qtot  0.080
  1101       HGA3    140    PROXR    H33   1101     0.090000     1.0080   ; qtot  0.170
  1102      OG301    141    PROXS     O1   1102    -0.340000    15.9994   ; qtot -0.170
  1103      CG321    141    PROXS     C1   1103    -0.010000    12.0110   ; qtot -0.180
  1104       HGA2    141    PROXS    H11   1104     0.090000     1.0080   ; qtot -0.090
  1105       HGA2    141    PROXS    H13   1105     0.090000     1.0080   ; qtot -0.000
  1106      CG311    141    PROXS     C2   1106     0.080000    12.0110   ; qtot  0.080
  1107       HGA1    141    PROXS    H21   1107     0.090000     1.0080   ; qtot  0.170
  1108      CG331    141    PROXS     C3   1108    -0.270000    12.0110   ; qtot -0.100
  1109       HGA3    141    PROXS    H31   1109     0.090000     1.0080   ; qtot -0.010
  1110       HGA3    141    PROXS    H32   1110     0.090000     1.0080   ; qtot  0.080
  1111       HGA3    141    PROXS    H33   1111     0.090000     1.0080   ; qtot  0.170
  1112      OG301    142    PROXS     O1   1112    -0.340000    15.9994   ; qtot -0.170
  1113      CG321    142    PROXS     C1   1113    -0.010000    12.0110   ; qtot -0.180
  1114       HGA2    142    PROXS    H11   1114     0.090000     1.0080   ; qtot -0.090
  1115       HGA2    142    PROXS    H13   1115     0.090000     1.0080   ; qtot -0.000
  1116      CG311    142    PROXS     C2   1116     0.080000    12.0110   ; qtot  0.080
  1117       HGA1    142    PROXS    H21   1117     0.090000     1.0080   ; qtot  0.170
  1118      CG331    142    PROXS     C3   1118    -0.270000    12.0110   ; qtot -0.100
  1119       HGA3    142    PROXS    H31   1119     0.090000     1.0080   ; qtot -0.010
  1120       HGA3    142    PROXS    H32   1120     0.090000     1.0080   ; qtot  0.080
  1121       HGA3    142    PROXS    H33   1121     0.090000     1.0080   ; qtot  0.170
  1122      OG301    143    PROXS     O1   1122    -0.340000    15.9994   ; qtot -0.170
  1123      CG321    143    PROXS     C1   1123    -0.010000    12.0110   ; qtot -0.180
  1124       HGA2    143    PROXS    H11   1124     0.090000     1.0080   ; qtot -0.090
  1125       HGA2    143    PROXS    H13   1125     0.090000     1.0080   ; qtot -0.000
  1126      CG311    143    PROXS     C2   1126     0.080000    12.0110   ; qtot  0.080
  1127       HGA1    143    PROXS    H21   1127     0.090000     1.0080   ; qtot  0.170
  1128      CG331    143    PROXS     C3   1128    -0.270000    12.0110   ; qtot -0.100
  1129       HGA3    143    PROXS    H31   1129     0.090000     1.0080   ; qtot -0.010
  1130       HGA3    143    PROXS    H32   1130     0.090000     1.0080   ; qtot  0.080
  1131       HGA3    143    PROXS    H33   1131     0.090000     1.0080   ; qtot  0.170
  1132      OG301    144    PROXS     O1   1132    -0.340000    15.9994   ; qtot -0.170
  1133      CG321    144    PROXS     C1   1133    -0.010000    12.0110   ; qtot -0.180
  1134       HGA2    144    PROXS    H11   1134     0.090000     1.0080   ; qtot -0.090
  1135       HGA2    144    PROXS    H13   1135     0.090000     1.0080   ; qtot -0.000
  1136      CG311    144    PROXS     C2   1136     0.080000    12.0110   ; qtot  0.080
  1137       HGA1    144    PROXS    H21   1137     0.090000     1.0080   ; qtot  0.170
  1138      CG331    144    PROXS     C3   1138    -0.270000    12.0110   ; qtot -0.100
  1139       HGA3    144    PROXS    H31   1139     0.090000     1.0080   ; qtot -0.010
  1140       HGA3    144    PROXS    H32   1140     0.090000     1.0080   ; qtot  0.080
  1141       HGA3    144    PROXS    H33   1141     0.090000     1.0080   ; qtot  0.170
  1142      OG301    145    PROXR     O1   1142    -0.340000    15.9994   ; qtot -0.170
  1143      CG321    145    PROXR     C1   1143    -0.010000    12.0110   ; qtot -0.180
  1144       HGA2    145    PROXR    H11   1144     0.090000     1.0080   ; qtot -0.090
  1145       HGA2    145    PROXR    H13   1145     0.090000     1.0080   ; qtot -0.000
  1146      CG311    145    PROXR     C2   1146     0.080000    12.0110   ; qtot  0.080
  1147       HGA1    145    PROXR    H21   1147     0.090000     1.0080   ; qtot  0.170
  1148      CG331    145    PROXR     C3   1148    -0.270000    12.0110   ; qtot -0.100
  1149       HGA3    145    PROXR    H31   1149     0.090000     1.0080   ; qtot -0.010
  1150       HGA3    145    PROXR    H32   1150     0.090000     1.0080   ; qtot  0.080
  1151       HGA3    145    PROXR    H33   1151     0.090000     1.0080   ; qtot  0.170
  1152      OG301    146    PROXS     O1   1152    -0.340000    15.9994   ; qtot -0.170
  1153      CG321    146    PROXS     C1   1153    -0.010000    12.0110   ; qtot -0.180
  1154       HGA2    146    PROXS    H11   1154     0.090000     1.0080   ; qtot -0.090
  1155       HGA2    146    PROXS    H13   1155     0.090000     1.0080   ; qtot -0.000
  1156      CG311    146    PROXS     C2   1156     0.080000    12.0110   ; qtot  0.080
  1157       HGA1    146    PROXS    H21   1157     0.090000     1.0080   ; qtot  0.170
  1158      CG331    146    PROXS     C3   1158    -0.270000    12.0110   ; qtot -0.100
  1159       HGA3    146    PROXS    H31   1159     0.090000     1.0080   ; qtot -0.010
  1160       HGA3    146    PROXS    H32   1160     0.090000     1.0080   ; qtot  0.080
  1161       HGA3    146    PROXS    H33   1161     0.090000     1.0080   ; qtot  0.170
  1162      OG301    147    PROXR     O1   1162    -0.340000    15.9994   ; qtot -0.170
  1163      CG321    147    PROXR     C1   1163    -0.010000    12.0110   ; qtot -0.180
  1164       HGA2    147    PROXR    H11   1164     0.090000     1.0080   ; qtot -0.090
  1165       HGA2    147    PROXR    H13   1165     0.090000     1.0080   ; qtot -0.000
  1166      CG311    147    PROXR     C2   1166     0.080000    12.0110   ; qtot  0.080
  1167       HGA1    147    PROXR    H21   1167     0.090000     1.0080   ; qtot  0.170
  1168      CG331    147    PROXR     C3   1168    -0.270000    12.0110   ; qtot -0.100
  1169       HGA3    147    PROXR    H31   1169     0.090000     1.0080   ; qtot -0.010
  1170       HGA3    147    PROXR    H32   1170     0.090000     1.0080   ; qtot  0.080
  1171       HGA3    147    PROXR    H33   1171     0.090000     1.0080   ; qtot  0.170
  1172      OG301    148    PROXR     O1   1172    -0.340000    15.9994   ; qtot -0.170
  1173      CG321    148    PROXR     C1   1173    -0.010000    12.0110   ; qtot -0.180
  1174       HGA2    148    PROXR    H11   1174     0.090000     1.0080   ; qtot -0.090
  1175       HGA2    148    PROXR    H13   1175     0.090000     1.0080   ; qtot -0.000
  1176      CG311    148    PROXR     C2   1176     0.080000    12.0110   ; qtot  0.080
  1177       HGA1    148    PROXR    H21   1177     0.090000     1.0080   ; qtot  0.170
  1178      CG331    148    PROXR     C3   1178    -0.270000    12.0110   ; qtot -0.100
  1179       HGA3    148    PROXR    H31   1179     0.090000     1.0080   ; qtot -0.010
  1180       HGA3    148    PROXR    H32   1180     0.090000     1.0080   ; qtot  0.080
  1181       HGA3    148    PROXR    H33   1181     0.090000     1.0080   ; qtot  0.170
  1182      OG301    149    PROXR     O1   1182    -0.340000    15.9994   ; qtot -0.170
  1183      CG321    149    PROXR     C1   1183    -0.010000    12.0110   ; qtot -0.180
  1184       HGA2    149    PROXR    H11   1184     0.090000     1.0080   ; qtot -0.090
  1185       HGA2    149    PROXR    H13   1185     0.090000     1.0080   ; qtot -0.000
  1186      CG311    149    PROXR     C2   1186     0.080000    12.0110   ; qtot  0.080
  1187       HGA1    149    PROXR    H21   1187     0.090000     1.0080   ; qtot  0.170
  1188      CG331    149    PROXR     C3   1188    -0.270000    12.0110   ; qtot -0.100
  1189       HGA3    149    PROXR    H31   1189     0.090000     1.0080   ; qtot -0.010
  1190       HGA3    149    PROXR    H32   1190     0.090000     1.0080   ; qtot  0.080
  1191       HGA3    149    PROXR    H33   1191     0.090000     1.0080   ; qtot  0.170
  1192      OG301    150    PROXS     O1   1192    -0.340000    15.9994   ; qtot -0.170
  1193      CG321    150    PROXS     C1   1193    -0.010000    12.0110   ; qtot -0.180
  1194       HGA2    150    PROXS    H11   1194     0.090000     1.0080   ; qtot -0.090
  1195       HGA2    150    PROXS    H13   1195     0.090000     1.0080   ; qtot -0.000
  1196      CG311    150    PROXS     C2   1196     0.080000    12.0110   ; qtot  0.080
  1197       HGA1    150    PROXS    H21   1197     0.090000     1.0080   ; qtot  0.170
  1198      CG331    150    PROXS     C3   1198    -0.270000    12.0110   ; qtot -0.100
  1199       HGA3    150    PROXS    H31   1199     0.090000     1.0080   ; qtot -0.010
  1200       HGA3    150    PROXS    H32   1200     0.090000     1.0080   ; qtot  0.080
  1201       HGA3    150    PROXS    H33   1201     0.090000     1.0080   ; qtot  0.170
  1202      OG301    151    PROXR     O1   1202    -0.340000    15.9994   ; qtot -0.170
  1203      CG321    151    PROXR     C1   1203    -0.010000    12.0110   ; qtot -0.180
  1204       HGA2    151    PROXR    H11   1204     0.090000     1.0080   ; qtot -0.090
  1205       HGA2    151    PROXR    H13   1205     0.090000     1.0080   ; qtot -0.000
  1206      CG311    151    PROXR     C2   1206     0.080000    12.0110   ; qtot  0.080
  1207       HGA1    151    PROXR    H21   1207     0.090000     1.0080   ; qtot  0.170
  1208      CG331    151    PROXR     C3   1208    -0.270000    12.0110   ; qtot -0.100
  1209       HGA3    151    PROXR    H31   1209     0.090000     1.0080   ; qtot -0.010
  1210       HGA3    151    PROXR    H32   1210     0.090000     1.0080   ; qtot  0.080
  1211       HGA3    151    PROXR    H33   1211     0.090000     1.0080   ; qtot  0.170
  1212      OG301    152    PROXR     O1   1212    -0.340000    15.9994   ; qtot -0.170
  1213      CG321    152    PROXR     C1   1213    -0.010000    12.0110   ; qtot -0.180
  1214       HGA2    152    PROXR    H11   1214     0.090000     1.0080   ; qtot -0.090
  1215       HGA2    152    PROXR    H13   1215     0.090000     1.0080   ; qtot -0.000
  1216      CG311    152    PROXR     C2   1216     0.080000    12.0110   ; qtot  0.080
  1217       HGA1    152    PROXR    H21   1217     0.090000     1.0080   ; qtot  0.170
  1218      CG331    152    PROXR     C3   1218    -0.270000    12.0110   ; qtot -0.100
  1219       HGA3    152    PROXR    H31   1219     0.090000     1.0080   ; qtot -0.010
  1220       HGA3    152    PROXR    H32   1220     0.090000     1.0080   ; qtot  0.080
  1221       HGA3    152    PROXR    H33   1221     0.090000     1.0080   ; qtot  0.170
  1222      OG301    153    PROXR     O1   1222    -0.340000    15.9994   ; qtot -0.170
  1223      CG321    153    PROXR     C1   1223    -0.010000    12.0110   ; qtot -0.180
  1224       HGA2    153    PROXR    H11   1224     0.090000     1.0080   ; qtot -0.090
  1225       HGA2    153    PROXR    H13   1225     0.090000     1.0080   ; qtot -0.000
  1226      CG311    153    PROXR     C2   1226     0.080000    12.0110   ; qtot  0.080
  1227       HGA1    153    PROXR    H21   1227     0.090000     1.0080   ; qtot  0.170
  1228      CG331    153    PROXR     C3   1228    -0.270000    12.0110   ; qtot -0.100
  1229       HGA3    153    PROXR    H31   1229     0.090000     1.0080   ; qtot -0.010
  1230       HGA3    153    PROXR    H32   1230     0.090000     1.0080   ; qtot  0.080
  1231       HGA3    153    PROXR    H33   1231     0.090000     1.0080   ; qtot  0.170
  1232      OG301    154    PROXS     O1   1232    -0.340000    15.9994   ; qtot -0.170
  1233      CG321    154    PROXS     C1   1233    -0.010000    12.0110   ; qtot -0.180
  1234       HGA2    154    PROXS    H11   1234     0.090000     1.0080   ; qtot -0.090
  1235       HGA2    154    PROXS    H13   1235     0.090000     1.0080   ; qtot -0.000
  1236      CG311    154    PROXS     C2   1236     0.080000    12.0110   ; qtot  0.080
  1237       HGA1    154    PROXS    H21   1237     0.090000     1.0080   ; qtot  0.170
  1238      CG331    154    PROXS     C3   1238    -0.270000    12.0110   ; qtot -0.100
  1239       HGA3    154    PROXS    H31   1239     0.090000     1.0080   ; qtot -0.010
  1240       HGA3    154    PROXS    H32   1240     0.090000     1.0080   ; qtot  0.080
  1241       HGA3    154    PROXS    H33   1241     0.090000     1.0080   ; qtot  0.170
  1242      OG301    155    PROXR     O1   1242    -0.340000    15.9994   ; qtot -0.170
  1243      CG321    155    PROXR     C1   1243    -0.010000    12.0110   ; qtot -0.180
  1244       HGA2    155    PROXR    H11   1244     0.090000     1.0080   ; qtot -0.090
  1245       HGA2    155    PROXR    H13   1245     0.090000     1.0080   ; qtot -0.000
  1246      CG311    155    PROXR     C2   1246     0.080000    12.0110   ; qtot  0.080
  1247       HGA1    155    PROXR    H21   1247     0.090000     1.0080   ; qtot  0.170
  1248      CG331    155    PROXR     C3   1248    -0.270000    12.0110   ; qtot -0.100
  1249       HGA3    155    PROXR    H31   1249     0.090000     1.0080   ; qtot -0.010
  1250       HGA3    155    PROXR    H32   1250     0.090000     1.0080   ; qtot  0.080
  1251       HGA3    155    PROXR    H33   1251     0.090000     1.0080   ; qtot  0.170
  1252      OG301    156    PROXS     O1   1252    -0.340000    15.9994   ; qtot -0.170
  1253      CG321    156    PROXS     C1   1253    -0.010000    12.0110   ; qtot -0.180
  1254       HGA2    156    PROXS    H11   1254     0.090000     1.0080   ; qtot -0.090
  1255       HGA2    156    PROXS    H13   1255     0.090000     1.0080   ; qtot -0.000
  1256      CG311    156    PROXS     C2   1256     0.080000    12.0110   ; qtot  0.080
  1257       HGA1    156    PROXS    H21   1257     0.090000     1.0080   ; qtot  0.170
  1258      CG331    156    PROXS     C3   1258    -0.270000    12.0110   ; qtot -0.100
  1259       HGA3    156    PROXS    H31   1259     0.090000     1.0080   ; qtot -0.010
  1260       HGA3    156    PROXS    H32   1260     0.090000     1.0080   ; qtot  0.080
  1261       HGA3    156    PROXS    H33   1261     0.090000     1.0080   ; qtot  0.170
  1262      OG301    157    PROXS     O1   1262    -0.340000    15.9994   ; qtot -0.170
  1263      CG321    157    PROXS     C1   1263    -0.010000    12.0110   ; qtot -0.180
  1264       HGA2    157    PROXS    H11   1264     0.090000     1.0080   ; qtot -0.090
  1265       HGA2    157    PROXS    H13   1265     0.090000     1.0080   ; qtot -0.000
  1266      CG311    157    PROXS     C2   1266     0.080000    12.0110   ; qtot  0.080
  1267       HGA1    157    PROXS    H21   1267     0.090000     1.0080   ; qtot  0.170
  1268      CG331    157    PROXS     C3   1268    -0.270000    12.0110   ; qtot -0.100
  1269       HGA3    157    PROXS    H31   1269     0.090000     1.0080   ; qtot -0.010
  1270       HGA3    157    PROXS    H32   1270     0.090000     1.0080   ; qtot  0.080
  1271       HGA3    157    PROXS    H33   1271     0.090000     1.0080   ; qtot  0.170
  1272      OG301    158    PROXR     O1   1272    -0.340000    15.9994   ; qtot -0.170
  1273      CG321    158    PROXR     C1   1273    -0.010000    12.0110   ; qtot -0.180
  1274       HGA2    158    PROXR    H11   1274     0.090000     1.0080   ; qtot -0.090
  1275       HGA2    158    PROXR    H13   1275     0.090000     1.0080   ; qtot -0.000
  1276      CG311    158    PROXR     C2   1276     0.080000    12.0110   ; qtot  0.080
  1277       HGA1    158    PROXR    H21   1277     0.090000     1.0080   ; qtot  0.170
  1278      CG331    158    PROXR     C3   1278    -0.270000    12.0110   ; qtot -0.100
  1279       HGA3    158    PROXR    H31   1279     0.090000     1.0080   ; qtot -0.010
  1280       HGA3    158    PROXR    H32   1280     0.090000     1.0080   ; qtot  0.080
  1281       HGA3    158    PROXR    H33   1281     0.090000     1.0080   ; qtot  0.170
  1282      OG301    159    PROXR     O1   1282    -0.340000    15.9994   ; qtot -0.170
  1283      CG321    159    PROXR     C1   1283    -0.010000    12.0110   ; qtot -0.180
  1284       HGA2    159    PROXR    H11   1284     0.090000     1.0080   ; qtot -0.090
  1285       HGA2    159    PROXR    H13   1285     0.090000     1.0080   ; qtot -0.000
  1286      CG311    159    PROXR     C2   1286     0.080000    12.0110   ; qtot  0.080
  1287       HGA1    159    PROXR    H21   1287     0.090000     1.0080   ; qtot  0.170
  1288      CG331    159    PROXR     C3   1288    -0.270000    12.0110   ; qtot -0.100
  1289       HGA3    159    PROXR    H31   1289     0.090000     1.0080   ; qtot -0.010
  1290       HGA3    159    PROXR    H32   1290     0.090000     1.0080   ; qtot  0.080
  1291       HGA3    159    PROXR    H33   1291     0.090000     1.0080   ; qtot  0.170
  1292      OG301    160    PROXS     O1   1292    -0.340000    15.9994   ; qtot -0.170
  1293      CG321    160    PROXS     C1   1293    -0.010000    12.0110   ; qtot -0.180
  1294       HGA2    160    PROXS    H11   1294     0.090000     1.0080   ; qtot -0.090
  1295       HGA2    160    PROXS    H13   1295     0.090000     1.0080   ; qtot -0.000
  1296      CG311    160    PROXS     C2   1296     0.080000    12.0110   ; qtot  0.080
  1297       HGA1    160    PROXS    H21   1297     0.090000     1.0080   ; qtot  0.170
  1298      CG331    160    PROXS     C3   1298    -0.270000    12.0110   ; qtot -0.100
  1299       HGA3    160    PROXS    H31   1299     0.090000     1.0080   ; qtot -0.010
  1300       HGA3    160    PROXS    H32   1300     0.090000     1.0080   ; qtot  0.080
  1301       HGA3    160    PROXS    H33   1301     0.090000     1.0080   ; qtot  0.170
  1302      OG301    161    PROXR     O1   1302    -0.340000    15.9994   ; qtot -0.170
  1303      CG321    161    PROXR     C1   1303    -0.010000    12.0110   ; qtot -0.180
  1304       HGA2    161    PROXR    H11   1304     0.090000     1.0080   ; qtot -0.090
  1305       HGA2    161    PROXR    H13   1305     0.090000     1.0080   ; qtot -0.000
  1306      CG311    161    PROXR     C2   1306     0.080000    12.0110   ; qtot  0.080
  1307       HGA1    161    PROXR    H21   1307     0.090000     1.0080   ; qtot  0.170
  1308      CG331    161    PROXR     C3   1308    -0.270000    12.0110   ; qtot -0.100
  1309       HGA3    161    PROXR    H31   1309     0.090000     1.0080   ; qtot -0.010
  1310       HGA3    161    PROXR    H32   1310     0.090000     1.0080   ; qtot  0.080
  1311       HGA3    161    PROXR    H33   1311     0.090000     1.0080   ; qtot  0.170
  1312      OG301    162    PROXR     O1   1312    -0.340000    15.9994   ; qtot -0.170
  1313      CG321    162    PROXR     C1   1313    -0.010000    12.0110   ; qtot -0.180
  1314       HGA2    162    PROXR    H11   1314     0.090000     1.0080   ; qtot -0.090
  1315       HGA2    162    PROXR    H13   1315     0.090000     1.0080   ; qtot -0.000
  1316      CG311    162    PROXR     C2   1316     0.080000    12.0110   ; qtot  0.080
  1317       HGA1    162    PROXR    H21   1317     0.090000     1.0080   ; qtot  0.170
  1318      CG331    162    PROXR     C3   1318    -0.270000    12.0110   ; qtot -0.100
  1319       HGA3    162    PROXR    H31   1319     0.090000     1.0080   ; qtot -0.010
  1320       HGA3    162    PROXR    H32   1320     0.090000     1.0080   ; qtot  0.080
  1321       HGA3    162    PROXR    H33   1321     0.090000     1.0080   ; qtot  0.170
  1322      OG301    163    PROXS     O1   1322    -0.340000    15.9994   ; qtot -0.170
  1323      CG321    163    PROXS     C1   1323    -0.010000    12.0110   ; qtot -0.180
  1324       HGA2    163    PROXS    H11   1324     0.090000     1.0080   ; qtot -0.090
  1325       HGA2    163    PROXS    H13   1325     0.090000     1.0080   ; qtot -0.000
  1326      CG311    163    PROXS     C2   1326     0.080000    12.0110   ; qtot  0.080
  1327       HGA1    163    PROXS    H21   1327     0.090000     1.0080   ; qtot  0.170
  1328      CG331    163    PROXS     C3   1328    -0.270000    12.0110   ; qtot -0.100
  1329       HGA3    163    PROXS    H31   1329     0.090000     1.0080   ; qtot -0.010
  1330       HGA3    163    PROXS    H32   1330     0.090000     1.0080   ; qtot  0.080
  1331       HGA3    163    PROXS    H33   1331     0.090000     1.0080   ; qtot  0.170
  1332      OG301    164    PROXR     O1   1332    -0.340000    15.9994   ; qtot -0.170
  1333      CG321    164    PROXR     C1   1333    -0.010000    12.0110   ; qtot -0.180
  1334       HGA2    164    PROXR    H11   1334     0.090000     1.0080   ; qtot -0.090
  1335       HGA2    164    PROXR    H13   1335     0.090000     1.0080   ; qtot -0.000
  1336      CG311    164    PROXR     C2   1336     0.080000    12.0110   ; qtot  0.080
  1337       HGA1    164    PROXR    H21   1337     0.090000     1.0080   ; qtot  0.170
  1338      CG331    164    PROXR     C3   1338    -0.270000    12.0110   ; qtot -0.100
  1339       HGA3    164    PROXR    H31   1339     0.090000     1.0080   ; qtot -0.010
  1340       HGA3    164    PROXR    H32   1340     0.090000     1.0080   ; qtot  0.080
  1341       HGA3    164    PROXR    H33   1341     0.090000     1.0080   ; qtot  0.170
  1342      OG301    165    PROXR     O1   1342    -0.340000    15.9994   ; qtot -0.170
  1343      CG321    165    PROXR     C1   1343    -0.010000    12.0110   ; qtot -0.180
  1344       HGA2    165    PROXR    H11   1344     0.090000     1.0080   ; qtot -0.090
  1345       HGA2    165    PROXR    H13   1345     0.090000     1.0080   ; qtot -0.000
  1346      CG311    165    PROXR     C2   1346     0.080000    12.0110   ; qtot  0.080
  1347       HGA1    165    PROXR    H21   1347     0.090000     1.0080   ; qtot  0.170
  1348      CG331    165    PROXR     C3   1348    -0.270000    12.0110   ; qtot -0.100
  1349       HGA3    165    PROXR    H31   1349     0.090000     1.0080   ; qtot -0.010
  1350       HGA3    165    PROXR    H32   1350     0.090000     1.0080   ; qtot  0.080
  1351       HGA3    165    PROXR    H33   1351     0.090000     1.0080   ; qtot  0.170
  1352      OG301    166    ETHOX     O1   1352    -0.340000    15.9994   ; qtot -0.170
  1353      CG321    166    ETHOX     C1   1353    -0.010000    12.0110   ; qtot -0.180
  1354       HGA2    166    ETHOX    H11   1354     0.090000     1.0080   ; qtot -0.090
  1355       HGA2    166    ETHOX    H13   1355     0.090000     1.0080   ; qtot -0.000
  1356      CG321    166    ETHOX     C2   1356    -0.010000    12.0110   ; qtot -0.010
  1357       HGA2    166    ETHOX    H21   1357     0.090000     1.0080   ; qtot  0.080
  1358       HGA2    166    ETHOX    H23   1358     0.090000     1.0080   ; qtot  0.170
  1359      OG301    167    ETHOX     O1   1359    -0.340000    15.9994   ; qtot -0.170
  1360      CG321    167    ETHOX     C1   1360    -0.010000    12.0110   ; qtot -0.180
  1361       HGA2    167    ETHOX    H11   1361     0.090000     1.0080   ; qtot -0.090
  1362       HGA2    167    ETHOX    H13   1362     0.090000     1.0080   ; qtot -0.000
  1363      CG321    167    ETHOX     C2   1363    -0.010000    12.0110   ; qtot -0.010
  1364       HGA2    167    ETHOX    H21   1364     0.090000     1.0080   ; qtot  0.080
  1365       HGA2    167    ETHOX    H23   1365     0.090000     1.0080   ; qtot  0.170
  1366      OG301    168    ETHOX     O1   1366    -0.340000    15.9994   ; qtot -0.170
  1367      CG321    168    ETHOX     C1   1367    -0.010000    12.0110   ; qtot -0.180
  1368       HGA2    168    ETHOX    H11   1368     0.090000     1.0080   ; qtot -0.090
  1369       HGA2    168    ETHOX    H13   1369     0.090000     1.0080   ; qtot -0.000
  1370      CG321    168    ETHOX     C2   1370    -0.010000    12.0110   ; qtot -0.010
  1371       HGA2    168    ETHOX    H21   1371     0.090000     1.0080   ; qtot  0.080
  1372       HGA2    168    ETHOX    H23   1372     0.090000     1.0080   ; qtot  0.170
  1373      OG301    169    ETHOX     O1   1373    -0.340000    15.9994   ; qtot -0.170
  1374      CG321    169    ETHOX     C1   1374    -0.010000    12.0110   ; qtot -0.180
  1375       HGA2    169    ETHOX    H11   1375     0.090000     1.0080   ; qtot -0.090
  1376       HGA2    169    ETHOX    H13   1376     0.090000     1.0080   ; qtot -0.000
  1377      CG321    169    ETHOX     C2   1377    -0.010000    12.0110   ; qtot -0.010
  1378       HGA2    169    ETHOX    H21   1378     0.090000     1.0080   ; qtot  0.080
  1379       HGA2    169    ETHOX    H23   1379     0.090000     1.0080   ; qtot  0.170
  1380      OG301    170    ETHOX     O1   1380    -0.340000    15.9994   ; qtot -0.170
  1381      CG321    170    ETHOX     C1   1381    -0.010000    12.0110   ; qtot -0.180
  1382       HGA2    170    ETHOX    H11   1382     0.090000     1.0080   ; qtot -0.090
  1383       HGA2    170    ETHOX    H13   1383     0.090000     1.0080   ; qtot -0.000
  1384      CG321    170    ETHOX     C2   1384    -0.010000    12.0110   ; qtot -0.010
  1385       HGA2    170    ETHOX    H21   1385     0.090000     1.0080   ; qtot  0.080
  1386       HGA2    170    ETHOX    H23   1386     0.090000     1.0080   ; qtot  0.170
  1387      OG301    171    ETHOX     O1   1387    -0.340000    15.9994   ; qtot -0.170
  1388      CG321    171    ETHOX     C1   1388    -0.010000    12.0110   ; qtot -0.180
  1389       HGA2    171    ETHOX    H11   1389     0.090000     1.0080   ; qtot -0.090
  1390       HGA2    171    ETHOX    H13   1390     0.090000     1.0080   ; qtot -0.000
  1391      CG321    171    ETHOX     C2   1391    -0.010000    12.0110   ; qtot -0.010
  1392       HGA2    171    ETHOX    H21   1392     0.090000     1.0080   ; qtot  0.080
  1393       HGA2    171    ETHOX    H23   1393     0.090000     1.0080   ; qtot  0.170
  1394      OG301    172    ETHOX     O1   1394    -0.340000    15.9994   ; qtot -0.170
  1395      CG321    172    ETHOX     C1   1395    -0.010000    12.0110   ; qtot -0.180
  1396       HGA2    172    ETHOX    H11   1396     0.090000     1.0080   ; qtot -0.090
  1397       HGA2    172    ETHOX    H13   1397     0.090000     1.0080   ; qtot -0.000
  1398      CG321    172    ETHOX     C2   1398    -0.010000    12.0110   ; qtot -0.010
  1399       HGA2    172    ETHOX    H21   1399     0.090000     1.0080   ; qtot  0.080
  1400       HGA2    172    ETHOX    H23   1400     0.090000     1.0080   ; qtot  0.170
  1401      OG301    173    ETHOX     O1   1401    -0.340000    15.9994   ; qtot -0.170
  1402      CG321    173    ETHOX     C1   1402    -0.010000    12.0110   ; qtot -0.180
  1403       HGA2    173    ETHOX    H11   1403     0.090000     1.0080   ; qtot -0.090
  1404       HGA2    173    ETHOX    H13   1404     0.090000     1.0080   ; qtot -0.000
  1405      CG321    173    ETHOX     C2   1405    -0.010000    12.0110   ; qtot -0.010
  1406       HGA2    173    ETHOX    H21   1406     0.090000     1.0080   ; qtot  0.080
  1407       HGA2    173    ETHOX    H23   1407     0.090000     1.0080   ; qtot  0.170
  1408      OG301    174    ETHOX     O1   1408    -0.340000    15.9994   ; qtot -0.170
  1409      CG321    174    ETHOX     C1   1409    -0.010000    12.0110   ; qtot -0.180
  1410       HGA2    174    ETHOX    H11   1410     0.090000     1.0080   ; qtot -0.090
  1411       HGA2    174    ETHOX    H13   1411     0.090000     1.0080   ; qtot -0.000
  1412      CG321    174    ETHOX     C2   1412    -0.010000    12.0110   ; qtot -0.010
  1413       HGA2    174    ETHOX    H21   1413     0.090000     1.0080   ; qtot  0.080
  1414       HGA2    174    ETHOX    H23   1414     0.090000     1.0080   ; qtot  0.170
  1415      OG301    175    ETHOX     O1   1415    -0.340000    15.9994   ; qtot -0.170
  1416      CG321    175    ETHOX     C1   1416    -0.010000    12.0110   ; qtot -0.180
  1417       HGA2    175    ETHOX    H11   1417     0.090000     1.0080   ; qtot -0.090
  1418       HGA2    175    ETHOX    H13   1418     0.090000     1.0080   ; qtot -0.000
  1419      CG321    175    ETHOX     C2   1419    -0.010000    12.0110   ; qtot -0.010
  1420       HGA2    175    ETHOX    H21   1420     0.090000     1.0080   ; qtot  0.080
  1421       HGA2    175    ETHOX    H23   1421     0.090000     1.0080   ; qtot  0.170
  1422      OG301    176    ETHOX     O1   1422    -0.340000    15.9994   ; qtot -0.170
  1423      CG321    176    ETHOX     C1   1423    -0.010000    12.0110   ; qtot -0.180
  1424       HGA2    176    ETHOX    H11   1424     0.090000     1.0080   ; qtot -0.090
  1425       HGA2    176    ETHOX    H13   1425     0.090000     1.0080   ; qtot -0.000
  1426      CG321    176    ETHOX     C2   1426    -0.010000    12.0110   ; qtot -0.010
  1427       HGA2    176    ETHOX    H21   1427     0.090000     1.0080   ; qtot  0.080
  1428       HGA2    176    ETHOX    H23   1428     0.090000     1.0080   ; qtot  0.170
  1429      OG301    177    ETHOX     O1   1429    -0.340000    15.9994   ; qtot -0.170
  1430      CG321    177    ETHOX     C1   1430    -0.010000    12.0110   ; qtot -0.180
  1431       HGA2    177    ETHOX    H11   1431     0.090000     1.0080   ; qtot -0.090
  1432       HGA2    177    ETHOX    H13   1432     0.090000     1.0080   ; qtot -0.000
  1433      CG321    177    ETHOX     C2   1433    -0.010000    12.0110   ; qtot -0.010
  1434       HGA2    177    ETHOX    H21   1434     0.090000     1.0080   ; qtot  0.080
  1435       HGA2    177    ETHOX    H23   1435     0.090000     1.0080   ; qtot  0.170
  1436      OG301    178    ETHOX     O1   1436    -0.340000    15.9994   ; qtot -0.170
  1437      CG321    178    ETHOX     C1   1437    -0.010000    12.0110   ; qtot -0.180
  1438       HGA2    178    ETHOX    H11   1438     0.090000     1.0080   ; qtot -0.090
  1439       HGA2    178    ETHOX    H13   1439     0.090000     1.0080   ; qtot -0.000
  1440      CG321    178    ETHOX     C2   1440    -0.010000    12.0110   ; qtot -0.010
  1441       HGA2    178    ETHOX    H21   1441     0.090000     1.0080   ; qtot  0.080
  1442       HGA2    178    ETHOX    H23   1442     0.090000     1.0080   ; qtot  0.170
  1443      OG301    179    ETHOX     O1   1443    -0.340000    15.9994   ; qtot -0.170
  1444      CG321    179    ETHOX     C1   1444    -0.010000    12.0110   ; qtot -0.180
  1445       HGA2    179    ETHOX    H11   1445     0.090000     1.0080   ; qtot -0.090
  1446       HGA2    179    ETHOX    H13   1446     0.090000     1.0080   ; qtot -0.000
  1447      CG321    179    ETHOX     C2   1447    -0.010000    12.0110   ; qtot -0.010
  1448       HGA2    179    ETHOX    H21   1448     0.090000     1.0080   ; qtot  0.080
  1449       HGA2    179    ETHOX    H23   1449     0.090000     1.0080   ; qtot  0.170
  1450      OG301    180    ETHOX     O1   1450    -0.340000    15.9994   ; qtot -0.170
  1451      CG321    180    ETHOX     C1   1451    -0.010000    12.0110   ; qtot -0.180
  1452       HGA2    180    ETHOX    H11   1452     0.090000     1.0080   ; qtot -0.090
  1453       HGA2    180    ETHOX    H13   1453     0.090000     1.0080   ; qtot -0.000
  1454      CG321    180    ETHOX     C2   1454    -0.010000    12.0110   ; qtot -0.010
  1455       HGA2    180    ETHOX    H21   1455     0.090000     1.0080   ; qtot  0.080
  1456       HGA2    180    ETHOX    H23   1456     0.090000     1.0080   ; qtot  0.170
  1457      OG301    181    ETHOX     O1   1457    -0.340000    15.9994   ; qtot -0.170
  1458      CG321    181    ETHOX     C1   1458    -0.010000    12.0110   ; qtot -0.180
  1459       HGA2    181    ETHOX    H11   1459     0.090000     1.0080   ; qtot -0.090
  1460       HGA2    181    ETHOX    H13   1460     0.090000     1.0080   ; qtot -0.000
  1461      CG321    181    ETHOX     C2   1461    -0.010000    12.0110   ; qtot -0.010
  1462       HGA2    181    ETHOX    H21   1462     0.090000     1.0080   ; qtot  0.080
  1463       HGA2    181    ETHOX    H23   1463     0.090000     1.0080   ; qtot  0.170
  1464      OG301    182    ETHOX     O1   1464    -0.340000    15.9994   ; qtot -0.170
  1465      CG321    182    ETHOX     C1   1465    -0.010000    12.0110   ; qtot -0.180
  1466       HGA2    182    ETHOX    H11   1466     0.090000     1.0080   ; qtot -0.090
  1467       HGA2    182    ETHOX    H13   1467     0.090000     1.0080   ; qtot -0.000
  1468      CG321    182    ETHOX     C2   1468    -0.010000    12.0110   ; qtot -0.010
  1469       HGA2    182    ETHOX    H21   1469     0.090000     1.0080   ; qtot  0.080
  1470       HGA2    182    ETHOX    H23   1470     0.090000     1.0080   ; qtot  0.170
  1471      OG301    183    ETHOX     O1   1471    -0.340000    15.9994   ; qtot -0.170
  1472      CG321    183    ETHOX     C1   1472    -0.010000    12.0110   ; qtot -0.180
  1473       HGA2    183    ETHOX    H11   1473     0.090000     1.0080   ; qtot -0.090
  1474       HGA2    183    ETHOX    H13   1474     0.090000     1.0080   ; qtot -0.000
  1475      CG321    183    ETHOX     C2   1475    -0.010000    12.0110   ; qtot -0.010
  1476       HGA2    183    ETHOX    H21   1476     0.090000     1.0080   ; qtot  0.080
  1477       HGA2    183    ETHOX    H23   1477     0.090000     1.0080   ; qtot  0.170
  1478      OG301    184    ETHOX     O1   1478    -0.340000    15.9994   ; qtot -0.170
  1479      CG321    184    ETHOX     C1   1479    -0.010000    12.0110   ; qtot -0.180
  1480       HGA2    184    ETHOX    H11   1480     0.090000     1.0080   ; qtot -0.090
  1481       HGA2    184    ETHOX    H13   1481     0.090000     1.0080   ; qtot -0.000
  1482      CG321    184    ETHOX     C2   1482    -0.010000    12.0110   ; qtot -0.010
  1483       HGA2    184    ETHOX    H21   1483     0.090000     1.0080   ; qtot  0.080
  1484       HGA2    184    ETHOX    H23   1484     0.090000     1.0080   ; qtot  0.170
  1485      OG301    185    ETHOX     O1   1485    -0.340000    15.9994   ; qtot -0.170
  1486      CG321    185    ETHOX     C1   1486    -0.010000    12.0110   ; qtot -0.180
  1487       HGA2    185    ETHOX    H11   1487     0.090000     1.0080   ; qtot -0.090
  1488       HGA2    185    ETHOX    H13   1488     0.090000     1.0080   ; qtot -0.000
  1489      CG321    185    ETHOX     C2   1489    -0.010000    12.0110   ; qtot -0.010
  1490       HGA2    185    ETHOX    H21   1490     0.090000     1.0080   ; qtot  0.080
  1491       HGA2    185    ETHOX    H23   1491     0.090000     1.0080   ; qtot  0.170
  1492      OG301    186    ETHOX     O1   1492    -0.340000    15.9994   ; qtot -0.170
  1493      CG321    186    ETHOX     C1   1493    -0.010000    12.0110   ; qtot -0.180
  1494       HGA2    186    ETHOX    H11   1494     0.090000     1.0080   ; qtot -0.090
  1495       HGA2    186    ETHOX    H13   1495     0.090000     1.0080   ; qtot -0.000
  1496      CG321    186    ETHOX     C2   1496    -0.010000    12.0110   ; qtot -0.010
  1497       HGA2    186    ETHOX    H21   1497     0.090000     1.0080   ; qtot  0.080
  1498       HGA2    186    ETHOX    H23   1498     0.090000     1.0080   ; qtot  0.170
  1499      OG301    187    ETHOX     O1   1499    -0.340000    15.9994   ; qtot -0.170
  1500      CG321    187    ETHOX     C1   1500    -0.010000    12.0110   ; qtot -0.180
  1501       HGA2    187    ETHOX    H11   1501     0.090000     1.0080   ; qtot -0.090
  1502       HGA2    187    ETHOX    H13   1502     0.090000     1.0080   ; qtot -0.000
  1503      CG321    187    ETHOX     C2   1503    -0.010000    12.0110   ; qtot -0.010
  1504       HGA2    187    ETHOX    H21   1504     0.090000     1.0080   ; qtot  0.080
  1505       HGA2    187    ETHOX    H23   1505     0.090000     1.0080   ; qtot  0.170
  1506      OG301    188    ETHOX     O1   1506    -0.340000    15.9994   ; qtot -0.170
  1507      CG321    188    ETHOX     C1   1507    -0.010000    12.0110   ; qtot -0.180
  1508       HGA2    188    ETHOX    H11   1508     0.090000     1.0080   ; qtot -0.090
  1509       HGA2    188    ETHOX    H13   1509     0.090000     1.0080   ; qtot -0.000
  1510      CG321    188    ETHOX     C2   1510    -0.010000    12.0110   ; qtot -0.010
  1511       HGA2    188    ETHOX    H21   1511     0.090000     1.0080   ; qtot  0.080
  1512       HGA2    188    ETHOX    H23   1512     0.090000     1.0080   ; qtot  0.170
  1513      OG301    189    ETHOX     O1   1513    -0.340000    15.9994   ; qtot -0.170
  1514      CG321    189    ETHOX     C1   1514    -0.010000    12.0110   ; qtot -0.180
  1515       HGA2    189    ETHOX    H11   1515     0.090000     1.0080   ; qtot -0.090
  1516       HGA2    189    ETHOX    H13   1516     0.090000     1.0080   ; qtot -0.000
  1517      CG321    189    ETHOX     C2   1517    -0.010000    12.0110   ; qtot -0.010
  1518       HGA2    189    ETHOX    H21   1518     0.090000     1.0080   ; qtot  0.080
  1519       HGA2    189    ETHOX    H23   1519     0.090000     1.0080   ; qtot  0.170
  1520      OG301    190    ETHOX     O1   1520    -0.340000    15.9994   ; qtot -0.170
  1521      CG321    190    ETHOX     C1   1521    -0.010000    12.0110   ; qtot -0.180
  1522       HGA2    190    ETHOX    H11   1522     0.090000     1.0080   ; qtot -0.090
  1523       HGA2    190    ETHOX    H13   1523     0.090000     1.0080   ; qtot -0.000
  1524      CG321    190    ETHOX     C2   1524    -0.010000    12.0110   ; qtot -0.010
  1525       HGA2    190    ETHOX    H21   1525     0.090000     1.0080   ; qtot  0.080
  1526       HGA2    190    ETHOX    H23   1526     0.090000     1.0080   ; qtot  0.170
  1527      OG301    191    ETHOX     O1   1527    -0.340000    15.9994   ; qtot -0.170
  1528      CG321    191    ETHOX     C1   1528    -0.010000    12.0110   ; qtot -0.180
  1529       HGA2    191    ETHOX    H11   1529     0.090000     1.0080   ; qtot -0.090
  1530       HGA2    191    ETHOX    H13   1530     0.090000     1.0080   ; qtot -0.000
  1531      CG321    191    ETHOX     C2   1531    -0.010000    12.0110   ; qtot -0.010
  1532       HGA2    191    ETHOX    H21   1532     0.090000     1.0080   ; qtot  0.080
  1533       HGA2    191    ETHOX    H23   1533     0.090000     1.0080   ; qtot  0.170
  1534      OG301    192    ETHOX     O1   1534    -0.340000    15.9994   ; qtot -0.170
  1535      CG321    192    ETHOX     C1   1535    -0.010000    12.0110   ; qtot -0.180
  1536       HGA2    192    ETHOX    H11   1536     0.090000     1.0080   ; qtot -0.090
  1537       HGA2    192    ETHOX    H13   1537     0.090000     1.0080   ; qtot -0.000
  1538      CG321    192    ETHOX     C2   1538    -0.010000    12.0110   ; qtot -0.010
  1539       HGA2    192    ETHOX    H21   1539     0.090000     1.0080   ; qtot  0.080
  1540       HGA2    192    ETHOX    H23   1540     0.090000     1.0080   ; qtot  0.170
  1541      OG301    193    ETHOX     O1   1541    -0.340000    15.9994   ; qtot -0.170
  1542      CG321    193    ETHOX     C1   1542    -0.010000    12.0110   ; qtot -0.180
  1543       HGA2    193    ETHOX    H11   1543     0.090000     1.0080   ; qtot -0.090
  1544       HGA2    193    ETHOX    H13   1544     0.090000     1.0080   ; qtot -0.000
  1545      CG321    193    ETHOX     C2   1545    -0.010000    12.0110   ; qtot -0.010
  1546       HGA2    193    ETHOX    H21   1546     0.090000     1.0080   ; qtot  0.080
  1547       HGA2    193    ETHOX    H23   1547     0.090000     1.0080   ; qtot  0.170
  1548      OG301    194    ETHOX     O1   1548    -0.340000    15.9994   ; qtot -0.170
  1549      CG321    194    ETHOX     C1   1549    -0.010000    12.0110   ; qtot -0.180
  1550       HGA2    194    ETHOX    H11   1550     0.090000     1.0080   ; qtot -0.090
  1551       HGA2    194    ETHOX    H13   1551     0.090000     1.0080   ; qtot -0.000
  1552      CG321    194    ETHOX     C2   1552    -0.010000    12.0110   ; qtot -0.010
  1553       HGA2    194    ETHOX    H21   1553     0.090000     1.0080   ; qtot  0.080
  1554       HGA2    194    ETHOX    H23   1554     0.090000     1.0080   ; qtot  0.170
  1555      OG301    195    ETHOX     O1   1555    -0.340000    15.9994   ; qtot -0.170
  1556      CG321    195    ETHOX     C1   1556    -0.010000    12.0110   ; qtot -0.180
  1557       HGA2    195    ETHOX    H11   1557     0.090000     1.0080   ; qtot -0.090
  1558       HGA2    195    ETHOX    H13   1558     0.090000     1.0080   ; qtot -0.000
  1559      CG321    195    ETHOX     C2   1559    -0.010000    12.0110   ; qtot -0.010
  1560       HGA2    195    ETHOX    H21   1560     0.090000     1.0080   ; qtot  0.080
  1561       HGA2    195    ETHOX    H23   1561     0.090000     1.0080   ; qtot  0.170
  1562      OG301    196    ETHOX     O1   1562    -0.340000    15.9994   ; qtot -0.170
  1563      CG321    196    ETHOX     C1   1563    -0.010000    12.0110   ; qtot -0.180
  1564       HGA2    196    ETHOX    H11   1564     0.090000     1.0080   ; qtot -0.090
  1565       HGA2    196    ETHOX    H13   1565     0.090000     1.0080   ; qtot -0.000
  1566      CG321    196    ETHOX     C2   1566    -0.010000    12.0110   ; qtot -0.010
  1567       HGA2    196    ETHOX    H21   1567     0.090000     1.0080   ; qtot  0.080
  1568       HGA2    196    ETHOX    H23   1568     0.090000     1.0080   ; qtot  0.170
  1569      OG301    197    ETHOX     O1   1569    -0.340000    15.9994   ; qtot -0.170
  1570      CG321    197    ETHOX     C1   1570    -0.010000    12.0110   ; qtot -0.180
  1571       HGA2    197    ETHOX    H11   1571     0.090000     1.0080   ; qtot -0.090
  1572       HGA2    197    ETHOX    H13   1572     0.090000     1.0080   ; qtot -0.000
  1573      CG321    197    ETHOX     C2   1573    -0.010000    12.0110   ; qtot -0.010
  1574       HGA2    197    ETHOX    H21   1574     0.090000     1.0080   ; qtot  0.080
  1575       HGA2    197    ETHOX    H23   1575     0.090000     1.0080   ; qtot  0.170
  1576      OG301    198    ETHOX     O1   1576    -0.340000    15.9994   ; qtot -0.170
  1577      CG321    198    ETHOX     C1   1577    -0.010000    12.0110   ; qtot -0.180
  1578       HGA2    198    ETHOX    H11   1578     0.090000     1.0080   ; qtot -0.090
  1579       HGA2    198    ETHOX    H13   1579     0.090000     1.0080   ; qtot -0.000
  1580      CG321    198    ETHOX     C2   1580    -0.010000    12.0110   ; qtot -0.010
  1581       HGA2    198    ETHOX    H21   1581     0.090000     1.0080   ; qtot  0.080
  1582       HGA2    198    ETHOX    H23   1582     0.090000     1.0080   ; qtot  0.170
  1583      OG301    199    ETHOX     O1   1583    -0.340000    15.9994   ; qtot -0.170
  1584      CG321    199    ETHOX     C1   1584    -0.010000    12.0110   ; qtot -0.180
  1585       HGA2    199    ETHOX    H11   1585     0.090000     1.0080   ; qtot -0.090
  1586       HGA2    199    ETHOX    H13   1586     0.090000     1.0080   ; qtot -0.000
  1587      CG321    199    ETHOX     C2   1587    -0.010000    12.0110   ; qtot -0.010
  1588       HGA2    199    ETHOX    H21   1588     0.090000     1.0080   ; qtot  0.080
  1589       HGA2    199    ETHOX    H23   1589     0.090000     1.0080   ; qtot  0.170
  1590      OG301    200    ETHOX     O1   1590    -0.340000    15.9994   ; qtot -0.170
  1591      CG321    200    ETHOX     C1   1591    -0.010000    12.0110   ; qtot -0.180
  1592       HGA2    200    ETHOX    H11   1592     0.090000     1.0080   ; qtot -0.090
  1593       HGA2    200    ETHOX    H13   1593     0.090000     1.0080   ; qtot -0.000
  1594      CG321    200    ETHOX     C2   1594    -0.010000    12.0110   ; qtot -0.010
  1595       HGA2    200    ETHOX    H21   1595     0.090000     1.0080   ; qtot  0.080
  1596       HGA2    200    ETHOX    H23   1596     0.090000     1.0080   ; qtot  0.170
  1597      OG301    201    ETHOX     O1   1597    -0.340000    15.9994   ; qtot -0.170
  1598      CG321    201    ETHOX     C1   1598    -0.010000    12.0110   ; qtot -0.180
  1599       HGA2    201    ETHOX    H11   1599     0.090000     1.0080   ; qtot -0.090
  1600       HGA2    201    ETHOX    H13   1600     0.090000     1.0080   ; qtot -0.000
  1601      CG321    201    ETHOX     C2   1601    -0.010000    12.0110   ; qtot -0.010
  1602       HGA2    201    ETHOX    H21   1602     0.090000     1.0080   ; qtot  0.080
  1603       HGA2    201    ETHOX    H23   1603     0.090000     1.0080   ; qtot  0.170
  1604      OG301    202    ETHOX     O1   1604    -0.340000    15.9994   ; qtot -0.170
  1605      CG321    202    ETHOX     C1   1605    -0.010000    12.0110   ; qtot -0.180
  1606       HGA2    202    ETHOX    H11   1606     0.090000     1.0080   ; qtot -0.090
  1607       HGA2    202    ETHOX    H13   1607     0.090000     1.0080   ; qtot -0.000
  1608      CG321    202    ETHOX     C2   1608    -0.010000    12.0110   ; qtot -0.010
  1609       HGA2    202    ETHOX    H21   1609     0.090000     1.0080   ; qtot  0.080
  1610       HGA2    202    ETHOX    H23   1610     0.090000     1.0080   ; qtot  0.170
  1611      OG301    203    ETHOX     O1   1611    -0.340000    15.9994   ; qtot -0.170
  1612      CG321    203    ETHOX     C1   1612    -0.010000    12.0110   ; qtot -0.180
  1613       HGA2    203    ETHOX    H11   1613     0.090000     1.0080   ; qtot -0.090
  1614       HGA2    203    ETHOX    H13   1614     0.090000     1.0080   ; qtot -0.000
  1615      CG321    203    ETHOX     C2   1615    -0.010000    12.0110   ; qtot -0.010
  1616       HGA2    203    ETHOX    H21   1616     0.090000     1.0080   ; qtot  0.080
  1617       HGA2    203    ETHOX    H23   1617     0.090000     1.0080   ; qtot  0.170
  1618      OG301    204    ETHOX     O1   1618    -0.340000    15.9994   ; qtot -0.170
  1619      CG321    204    ETHOX     C1   1619    -0.010000    12.0110   ; qtot -0.180
  1620       HGA2    204    ETHOX    H11   1620     0.090000     1.0080   ; qtot -0.090
  1621       HGA2    204    ETHOX    H13   1621     0.090000     1.0080   ; qtot -0.000
  1622      CG321    204    ETHOX     C2   1622    -0.010000    12.0110   ; qtot -0.010
  1623       HGA2    204    ETHOX    H21   1623     0.090000     1.0080   ; qtot  0.080
  1624       HGA2    204    ETHOX    H23   1624     0.090000     1.0080   ; qtot  0.170
  1625      OG301    205    ETHOX     O1   1625    -0.340000    15.9994   ; qtot -0.170
  1626      CG321    205    ETHOX     C1   1626    -0.010000    12.0110   ; qtot -0.180
  1627       HGA2    205    ETHOX    H11   1627     0.090000     1.0080   ; qtot -0.090
  1628       HGA2    205    ETHOX    H13   1628     0.090000     1.0080   ; qtot -0.000
  1629      CG321    205    ETHOX     C2   1629    -0.010000    12.0110   ; qtot -0.010
  1630       HGA2    205    ETHOX    H21   1630     0.090000     1.0080   ; qtot  0.080
  1631       HGA2    205    ETHOX    H23   1631     0.090000     1.0080   ; qtot  0.170
  1632      OG301    206    ETHOX     O1   1632    -0.340000    15.9994   ; qtot -0.170
  1633      CG321    206    ETHOX     C1   1633    -0.010000    12.0110   ; qtot -0.180
  1634       HGA2    206    ETHOX    H11   1634     0.090000     1.0080   ; qtot -0.090
  1635       HGA2    206    ETHOX    H13   1635     0.090000     1.0080   ; qtot -0.000
  1636      CG321    206    ETHOX     C2   1636    -0.010000    12.0110   ; qtot -0.010
  1637       HGA2    206    ETHOX    H21   1637     0.090000     1.0080   ; qtot  0.080
  1638       HGA2    206    ETHOX    H23   1638     0.090000     1.0080   ; qtot  0.170
  1639      OG301    207    ETHOX     O1   1639    -0.340000    15.9994   ; qtot -0.170
  1640      CG321    207    ETHOX     C1   1640    -0.010000    12.0110   ; qtot -0.180
  1641       HGA2    207    ETHOX    H11   1641     0.090000     1.0080   ; qtot -0.090
  1642       HGA2    207    ETHOX    H13   1642     0.090000     1.0080   ; qtot -0.000
  1643      CG321    207    ETHOX     C2   1643    -0.010000    12.0110   ; qtot -0.010
  1644       HGA2    207    ETHOX    H21   1644     0.090000     1.0080   ; qtot  0.080
  1645       HGA2    207    ETHOX    H23   1645     0.090000     1.0080   ; qtot  0.170
  1646      OG301    208    ETHOX     O1   1646    -0.340000    15.9994   ; qtot -0.170
  1647      CG321    208    ETHOX     C1   1647    -0.010000    12.0110   ; qtot -0.180
  1648       HGA2    208    ETHOX    H11   1648     0.090000     1.0080   ; qtot -0.090
  1649       HGA2    208    ETHOX    H13   1649     0.090000     1.0080   ; qtot -0.000
  1650      CG321    208    ETHOX     C2   1650    -0.010000    12.0110   ; qtot -0.010
  1651       HGA2    208    ETHOX    H21   1651     0.090000     1.0080   ; qtot  0.080
  1652       HGA2    208    ETHOX    H23   1652     0.090000     1.0080   ; qtot  0.170
  1653      OG301    209    ETHOX     O1   1653    -0.340000    15.9994   ; qtot -0.170
  1654      CG321    209    ETHOX     C1   1654    -0.010000    12.0110   ; qtot -0.180
  1655       HGA2    209    ETHOX    H11   1655     0.090000     1.0080   ; qtot -0.090
  1656       HGA2    209    ETHOX    H13   1656     0.090000     1.0080   ; qtot -0.000
  1657      CG321    209    ETHOX     C2   1657    -0.010000    12.0110   ; qtot -0.010
  1658       HGA2    209    ETHOX    H21   1658     0.090000     1.0080   ; qtot  0.080
  1659       HGA2    209    ETHOX    H23   1659     0.090000     1.0080   ; qtot  0.170
  1660      OG301    210    ETHOX     O1   1660    -0.340000    15.9994   ; qtot -0.170
  1661      CG321    210    ETHOX     C1   1661    -0.010000    12.0110   ; qtot -0.180
  1662       HGA2    210    ETHOX    H11   1662     0.090000     1.0080   ; qtot -0.090
  1663       HGA2    210    ETHOX    H13   1663     0.090000     1.0080   ; qtot -0.000
  1664      CG321    210    ETHOX     C2   1664    -0.010000    12.0110   ; qtot -0.010
  1665       HGA2    210    ETHOX    H21   1665     0.090000     1.0080   ; qtot  0.080
  1666       HGA2    210    ETHOX    H23   1666     0.090000     1.0080   ; qtot  0.170
  1667      OG301    211    ETHOX     O1   1667    -0.340000    15.9994   ; qtot -0.170
  1668      CG321    211    ETHOX     C1   1668    -0.010000    12.0110   ; qtot -0.180
  1669       HGA2    211    ETHOX    H11   1669     0.090000     1.0080   ; qtot -0.090
  1670       HGA2    211    ETHOX    H13   1670     0.090000     1.0080   ; qtot -0.000
  1671      CG321    211    ETHOX     C2   1671    -0.010000    12.0110   ; qtot -0.010
  1672       HGA2    211    ETHOX    H21   1672     0.090000     1.0080   ; qtot  0.080
  1673       HGA2    211    ETHOX    H23   1673     0.090000     1.0080   ; qtot  0.170
  1674      OG301    212    ETHOX     O1   1674    -0.340000    15.9994   ; qtot -0.170
  1675      CG321    212    ETHOX     C1   1675    -0.010000    12.0110   ; qtot -0.180
  1676       HGA2    212    ETHOX    H11   1676     0.090000     1.0080   ; qtot -0.090
  1677       HGA2    212    ETHOX    H13   1677     0.090000     1.0080   ; qtot -0.000
  1678      CG321    212    ETHOX     C2   1678    -0.010000    12.0110   ; qtot -0.010
  1679       HGA2    212    ETHOX    H21   1679     0.090000     1.0080   ; qtot  0.080
  1680       HGA2    212    ETHOX    H23   1680     0.090000     1.0080   ; qtot  0.170
  1681      OG301    213    ETHOX     O1   1681    -0.340000    15.9994   ; qtot -0.170
  1682      CG321    213    ETHOX     C1   1682    -0.010000    12.0110   ; qtot -0.180
  1683       HGA2    213    ETHOX    H11   1683     0.090000     1.0080   ; qtot -0.090
  1684       HGA2    213    ETHOX    H13   1684     0.090000     1.0080   ; qtot -0.000
  1685      CG321    213    ETHOX     C2   1685    -0.010000    12.0110   ; qtot -0.010
  1686       HGA2    213    ETHOX    H21   1686     0.090000     1.0080   ; qtot  0.080
  1687       HGA2    213    ETHOX    H23   1687     0.090000     1.0080   ; qtot  0.170
  1688      OG301    214    ETHOX     O1   1688    -0.340000    15.9994   ; qtot -0.170
  1689      CG321    214    ETHOX     C1   1689    -0.010000    12.0110   ; qtot -0.180
  1690       HGA2    214    ETHOX    H11   1690     0.090000     1.0080   ; qtot -0.090
  1691       HGA2    214    ETHOX    H13   1691     0.090000     1.0080   ; qtot -0.000
  1692      CG321    214    ETHOX     C2   1692    -0.010000    12.0110   ; qtot -0.010
  1693       HGA2    214    ETHOX    H21   1693     0.090000     1.0080   ; qtot  0.080
  1694       HGA2    214    ETHOX    H23   1694     0.090000     1.0080   ; qtot  0.170
  1695      OG301    215    ETHOX     O1   1695    -0.340000    15.9994   ; qtot -0.170
  1696      CG321    215    ETHOX     C1   1696    -0.010000    12.0110   ; qtot -0.180
  1697       HGA2    215    ETHOX    H11   1697     0.090000     1.0080   ; qtot -0.090
  1698       HGA2    215    ETHOX    H13   1698     0.090000     1.0080   ; qtot -0.000
  1699      CG321    215    ETHOX     C2   1699    -0.010000    12.0110   ; qtot -0.010
  1700       HGA2    215    ETHOX    H21   1700     0.090000     1.0080   ; qtot  0.080
  1701       HGA2    215    ETHOX    H23   1701     0.090000     1.0080   ; qtot  0.170
  1702      OG301    216    ETHOX     O1   1702    -0.340000    15.9994   ; qtot -0.170
  1703      CG321    216    ETHOX     C1   1703    -0.010000    12.0110   ; qtot -0.180
  1704       HGA2    216    ETHOX    H11   1704     0.090000     1.0080   ; qtot -0.090
  1705       HGA2    216    ETHOX    H13   1705     0.090000     1.0080   ; qtot -0.000
  1706      CG321    216    ETHOX     C2   1706    -0.010000    12.0110   ; qtot -0.010
  1707       HGA2    216    ETHOX    H21   1707     0.090000     1.0080   ; qtot  0.080
  1708       HGA2    216    ETHOX    H23   1708     0.090000     1.0080   ; qtot  0.170
  1709      OG301    217    ETHOX     O1   1709    -0.340000    15.9994   ; qtot -0.170
  1710      CG321    217    ETHOX     C1   1710    -0.010000    12.0110   ; qtot -0.180
  1711       HGA2    217    ETHOX    H11   1711     0.090000     1.0080   ; qtot -0.090
  1712       HGA2    217    ETHOX    H13   1712     0.090000     1.0080   ; qtot -0.000
  1713      CG321    217    ETHOX     C2   1713    -0.010000    12.0110   ; qtot -0.010
  1714       HGA2    217    ETHOX    H21   1714     0.090000     1.0080   ; qtot  0.080
  1715       HGA2    217    ETHOX    H23   1715     0.090000     1.0080   ; qtot  0.170
  1716      OG301    218    ETHOX     O1   1716    -0.340000    15.9994   ; qtot -0.170
  1717      CG321    218    ETHOX     C1   1717    -0.010000    12.0110   ; qtot -0.180
  1718       HGA2    218    ETHOX    H11   1718     0.090000     1.0080   ; qtot -0.090
  1719       HGA2    218    ETHOX    H13   1719     0.090000     1.0080   ; qtot -0.000
  1720      CG321    218    ETHOX     C2   1720    -0.010000    12.0110   ; qtot -0.010
  1721       HGA2    218    ETHOX    H21   1721     0.090000     1.0080   ; qtot  0.080
  1722       HGA2    218    ETHOX    H23   1722     0.090000     1.0080   ; qtot  0.170
  1723      OG301    219    ETHOX     O1   1723    -0.340000    15.9994   ; qtot -0.170
  1724      CG321    219    ETHOX     C1   1724    -0.010000    12.0110   ; qtot -0.180
  1725       HGA2    219    ETHOX    H11   1725     0.090000     1.0080   ; qtot -0.090
  1726       HGA2    219    ETHOX    H13   1726     0.090000     1.0080   ; qtot -0.000
  1727      CG321    219    ETHOX     C2   1727    -0.010000    12.0110   ; qtot -0.010
  1728       HGA2    219    ETHOX    H21   1728     0.090000     1.0080   ; qtot  0.080
  1729       HGA2    219    ETHOX    H23   1729     0.090000     1.0080   ; qtot  0.170
  1730      OG301    220    ETHOX     O1   1730    -0.340000    15.9994   ; qtot -0.170
  1731      CG321    220    ETHOX     C1   1731    -0.010000    12.0110   ; qtot -0.180
  1732       HGA2    220    ETHOX    H11   1732     0.090000     1.0080   ; qtot -0.090
  1733       HGA2    220    ETHOX    H13   1733     0.090000     1.0080   ; qtot -0.000
  1734      CG321    220    ETHOX     C2   1734    -0.010000    12.0110   ; qtot -0.010
  1735       HGA2    220    ETHOX    H21   1735     0.090000     1.0080   ; qtot  0.080
  1736       HGA2    220    ETHOX    H23   1736     0.090000     1.0080   ; qtot  0.170
  1737      OG301    221    ETHOX     O1   1737    -0.340000    15.9994   ; qtot -0.170
  1738      CG321    221    ETHOX     C1   1738    -0.010000    12.0110   ; qtot -0.180
  1739       HGA2    221    ETHOX    H11   1739     0.090000     1.0080   ; qtot -0.090
  1740       HGA2    221    ETHOX    H13   1740     0.090000     1.0080   ; qtot -0.000
  1741      CG321    221    ETHOX     C2   1741    -0.010000    12.0110   ; qtot -0.010
  1742       HGA2    221    ETHOX    H21   1742     0.090000     1.0080   ; qtot  0.080
  1743       HGA2    221    ETHOX    H23   1743     0.090000     1.0080   ; qtot  0.170
  1744      OG301    222    ETHOX     O1   1744    -0.340000    15.9994   ; qtot -0.170
  1745      CG321    222    ETHOX     C1   1745    -0.010000    12.0110   ; qtot -0.180
  1746       HGA2    222    ETHOX    H11   1746     0.090000     1.0080   ; qtot -0.090
  1747       HGA2    222    ETHOX    H13   1747     0.090000     1.0080   ; qtot -0.000
  1748      CG321    222    ETHOX     C2   1748    -0.010000    12.0110   ; qtot -0.010
  1749       HGA2    222    ETHOX    H21   1749     0.090000     1.0080   ; qtot  0.080
  1750       HGA2    222    ETHOX    H23   1750     0.090000     1.0080   ; qtot  0.170
  1751      OG301    223    ETHOX     O1   1751    -0.340000    15.9994   ; qtot -0.170
  1752      CG321    223    ETHOX     C1   1752    -0.010000    12.0110   ; qtot -0.180
  1753       HGA2    223    ETHOX    H11   1753     0.090000     1.0080   ; qtot -0.090
  1754       HGA2    223    ETHOX    H13   1754     0.090000     1.0080   ; qtot -0.000
  1755      CG321    223    ETHOX     C2   1755    -0.010000    12.0110   ; qtot -0.010
  1756       HGA2    223    ETHOX    H21   1756     0.090000     1.0080   ; qtot  0.080
  1757       HGA2    223    ETHOX    H23   1757     0.090000     1.0080   ; qtot  0.170
  1758      OG301    224    ETHOX     O1   1758    -0.340000    15.9994   ; qtot -0.170
  1759      CG321    224    ETHOX     C1   1759    -0.010000    12.0110   ; qtot -0.180
  1760       HGA2    224    ETHOX    H11   1760     0.090000     1.0080   ; qtot -0.090
  1761       HGA2    224    ETHOX    H13   1761     0.090000     1.0080   ; qtot -0.000
  1762      CG321    224    ETHOX     C2   1762    -0.010000    12.0110   ; qtot -0.010
  1763       HGA2    224    ETHOX    H21   1763     0.090000     1.0080   ; qtot  0.080
  1764       HGA2    224    ETHOX    H23   1764     0.090000     1.0080   ; qtot  0.170
  1765      OG301    225    ETHOX     O1   1765    -0.340000    15.9994   ; qtot -0.170
  1766      CG321    225    ETHOX     C1   1766    -0.010000    12.0110   ; qtot -0.180
  1767       HGA2    225    ETHOX    H11   1767     0.090000     1.0080   ; qtot -0.090
  1768       HGA2    225    ETHOX    H13   1768     0.090000     1.0080   ; qtot -0.000
  1769      CG321    225    ETHOX     C2   1769    -0.010000    12.0110   ; qtot -0.010
  1770       HGA2    225    ETHOX    H21   1770     0.090000     1.0080   ; qtot  0.080
  1771       HGA2    225    ETHOX    H23   1771     0.090000     1.0080   ; qtot  0.170
  1772      OG301    226    ETHOX     O1   1772    -0.340000    15.9994   ; qtot -0.170
  1773      CG321    226    ETHOX     C1   1773    -0.010000    12.0110   ; qtot -0.180
  1774       HGA2    226    ETHOX    H11   1774     0.090000     1.0080   ; qtot -0.090
  1775       HGA2    226    ETHOX    H13   1775     0.090000     1.0080   ; qtot -0.000
  1776      CG321    226    ETHOX     C2   1776    -0.010000    12.0110   ; qtot -0.010
  1777       HGA2    226    ETHOX    H21   1777     0.090000     1.0080   ; qtot  0.080
  1778       HGA2    226    ETHOX    H23   1778     0.090000     1.0080   ; qtot  0.170
  1779      OG301    227    ETHOX     O1   1779    -0.340000    15.9994   ; qtot -0.170
  1780      CG321    227    ETHOX     C1   1780    -0.010000    12.0110   ; qtot -0.180
  1781       HGA2    227    ETHOX    H11   1781     0.090000     1.0080   ; qtot -0.090
  1782       HGA2    227    ETHOX    H13   1782     0.090000     1.0080   ; qtot -0.000
  1783      CG321    227    ETHOX     C2   1783    -0.010000    12.0110   ; qtot -0.010
  1784       HGA2    227    ETHOX    H21   1784     0.090000     1.0080   ; qtot  0.080
  1785       HGA2    227    ETHOX    H23   1785     0.090000     1.0080   ; qtot  0.170
  1786      OG301    228    ETHOX     O1   1786    -0.340000    15.9994   ; qtot -0.170
  1787      CG321    228    ETHOX     C1   1787    -0.010000    12.0110   ; qtot -0.180
  1788       HGA2    228    ETHOX    H11   1788     0.090000     1.0080   ; qtot -0.090
  1789       HGA2    228    ETHOX    H13   1789     0.090000     1.0080   ; qtot -0.000
  1790      CG321    228    ETHOX     C2   1790    -0.010000    12.0110   ; qtot -0.010
  1791       HGA2    228    ETHOX    H21   1791     0.090000     1.0080   ; qtot  0.080
  1792       HGA2    228    ETHOX    H23   1792     0.090000     1.0080   ; qtot  0.170
  1793      OG301    229    ETHOX     O1   1793    -0.340000    15.9994   ; qtot -0.170
  1794      CG321    229    ETHOX     C1   1794    -0.010000    12.0110   ; qtot -0.180
  1795       HGA2    229    ETHOX    H11   1795     0.090000     1.0080   ; qtot -0.090
  1796       HGA2    229    ETHOX    H13   1796     0.090000     1.0080   ; qtot -0.000
  1797      CG321    229    ETHOX     C2   1797    -0.010000    12.0110   ; qtot -0.010
  1798       HGA2    229    ETHOX    H21   1798     0.090000     1.0080   ; qtot  0.080
  1799       HGA2    229    ETHOX    H23   1799     0.090000     1.0080   ; qtot  0.170
  1800      OG301    230    ETHOX     O1   1800    -0.340000    15.9994   ; qtot -0.170
  1801      CG321    230    ETHOX     C1   1801    -0.010000    12.0110   ; qtot -0.180
  1802       HGA2    230    ETHOX    H11   1802     0.090000     1.0080   ; qtot -0.090
  1803       HGA2    230    ETHOX    H13   1803     0.090000     1.0080   ; qtot -0.000
  1804      CG321    230    ETHOX     C2   1804    -0.010000    12.0110   ; qtot -0.010
  1805       HGA2    230    ETHOX    H21   1805     0.090000     1.0080   ; qtot  0.080
  1806       HGA2    230    ETHOX    H23   1806     0.090000     1.0080   ; qtot  0.170
  1807      OG301    231    ETHOX     O1   1807    -0.340000    15.9994   ; qtot -0.170
  1808      CG321    231    ETHOX     C1   1808    -0.010000    12.0110   ; qtot -0.180
  1809       HGA2    231    ETHOX    H11   1809     0.090000     1.0080   ; qtot -0.090
  1810       HGA2    231    ETHOX    H13   1810     0.090000     1.0080   ; qtot -0.000
  1811      CG321    231    ETHOX     C2   1811    -0.010000    12.0110   ; qtot -0.010
  1812       HGA2    231    ETHOX    H21   1812     0.090000     1.0080   ; qtot  0.080
  1813       HGA2    231    ETHOX    H23   1813     0.090000     1.0080   ; qtot  0.170
  1814      OG301    232    ETHOX     O1   1814    -0.340000    15.9994   ; qtot -0.170
  1815      CG321    232    ETHOX     C1   1815    -0.010000    12.0110   ; qtot -0.180
  1816       HGA2    232    ETHOX    H11   1816     0.090000     1.0080   ; qtot -0.090
  1817       HGA2    232    ETHOX    H13   1817     0.090000     1.0080   ; qtot -0.000
  1818      CG321    232    ETHOX     C2   1818    -0.010000    12.0110   ; qtot -0.010
  1819       HGA2    232    ETHOX    H21   1819     0.090000     1.0080   ; qtot  0.080
  1820       HGA2    232    ETHOX    H23   1820     0.090000     1.0080   ; qtot  0.170
  1821      OG301    233    ETHOX     O1   1821    -0.340000    15.9994   ; qtot -0.170
  1822      CG321    233    ETHOX     C1   1822    -0.010000    12.0110   ; qtot -0.180
  1823       HGA2    233    ETHOX    H11   1823     0.090000     1.0080   ; qtot -0.090
  1824       HGA2    233    ETHOX    H13   1824     0.090000     1.0080   ; qtot -0.000
  1825      CG321    233    ETHOX     C2   1825    -0.010000    12.0110   ; qtot -0.010
  1826       HGA2    233    ETHOX    H21   1826     0.090000     1.0080   ; qtot  0.080
  1827       HGA2    233    ETHOX    H23   1827     0.090000     1.0080   ; qtot  0.170
  1828      OG301    234    ETHOX     O1   1828    -0.340000    15.9994   ; qtot -0.170
  1829      CG321    234    ETHOX     C1   1829    -0.010000    12.0110   ; qtot -0.180
  1830       HGA2    234    ETHOX    H11   1830     0.090000     1.0080   ; qtot -0.090
  1831       HGA2    234    ETHOX    H13   1831     0.090000     1.0080   ; qtot -0.000
  1832      CG321    234    ETHOX     C2   1832    -0.010000    12.0110   ; qtot -0.010
  1833       HGA2    234    ETHOX    H21   1833     0.090000     1.0080   ; qtot  0.080
  1834       HGA2    234    ETHOX    H23   1834     0.090000     1.0080   ; qtot  0.170
  1835      OG301    235    ETHOX     O1   1835    -0.340000    15.9994   ; qtot -0.170
  1836      CG321    235    ETHOX     C1   1836    -0.010000    12.0110   ; qtot -0.180
  1837       HGA2    235    ETHOX    H11   1837     0.090000     1.0080   ; qtot -0.090
  1838       HGA2    235    ETHOX    H13   1838     0.090000     1.0080   ; qtot -0.000
  1839      CG321    235    ETHOX     C2   1839    -0.010000    12.0110   ; qtot -0.010
  1840       HGA2    235    ETHOX    H21   1840     0.090000     1.0080   ; qtot  0.080
  1841       HGA2    235    ETHOX    H23   1841     0.090000     1.0080   ; qtot  0.170
  1842      OG301    236    ETHOX     O1   1842    -0.340000    15.9994   ; qtot -0.170
  1843      CG321    236    ETHOX     C1   1843    -0.010000    12.0110   ; qtot -0.180
  1844       HGA2    236    ETHOX    H11   1844     0.090000     1.0080   ; qtot -0.090
  1845       HGA2    236    ETHOX    H13   1845     0.090000     1.0080   ; qtot -0.000
  1846      CG321    236    ETHOX     C2   1846    -0.010000    12.0110   ; qtot -0.010
  1847       HGA2    236    ETHOX    H21   1847     0.090000     1.0080   ; qtot  0.080
  1848       HGA2    236    ETHOX    H23   1848     0.090000     1.0080   ; qtot  0.170
  1849      OG301    237    ETHOX     O1   1849    -0.340000    15.9994   ; qtot -0.170
  1850      CG321    237    ETHOX     C1   1850    -0.010000    12.0110   ; qtot -0.180
  1851       HGA2    237    ETHOX    H11   1851     0.090000     1.0080   ; qtot -0.090
  1852       HGA2    237    ETHOX    H13   1852     0.090000     1.0080   ; qtot -0.000
  1853      CG321    237    ETHOX     C2   1853    -0.010000    12.0110   ; qtot -0.010
  1854       HGA2    237    ETHOX    H21   1854     0.090000     1.0080   ; qtot  0.080
  1855       HGA2    237    ETHOX    H23   1855     0.090000     1.0080   ; qtot  0.170
  1856      OG301    238    ETHOX     O1   1856    -0.340000    15.9994   ; qtot -0.170
  1857      CG321    238    ETHOX     C1   1857    -0.010000    12.0110   ; qtot -0.180
  1858       HGA2    238    ETHOX    H11   1858     0.090000     1.0080   ; qtot -0.090
  1859       HGA2    238    ETHOX    H13   1859     0.090000     1.0080   ; qtot -0.000
  1860      CG321    238    ETHOX     C2   1860    -0.010000    12.0110   ; qtot -0.010
  1861       HGA2    238    ETHOX    H21   1861     0.090000     1.0080   ; qtot  0.080
  1862       HGA2    238    ETHOX    H23   1862     0.090000     1.0080   ; qtot  0.170
  1863      OG301    239    ETHOX     O1   1863    -0.340000    15.9994   ; qtot -0.170
  1864      CG321    239    ETHOX     C1   1864    -0.010000    12.0110   ; qtot -0.180
  1865       HGA2    239    ETHOX    H11   1865     0.090000     1.0080   ; qtot -0.090
  1866       HGA2    239    ETHOX    H13   1866     0.090000     1.0080   ; qtot -0.000
  1867      CG321    239    ETHOX     C2   1867    -0.010000    12.0110   ; qtot -0.010
  1868       HGA2    239    ETHOX    H21   1868     0.090000     1.0080   ; qtot  0.080
  1869       HGA2    239    ETHOX    H23   1869     0.090000     1.0080   ; qtot  0.170
  1870      OG301    240    ETHOX     O1   1870    -0.340000    15.9994   ; qtot -0.170
  1871      CG321    240    ETHOX     C1   1871    -0.010000    12.0110   ; qtot -0.180
  1872       HGA2    240    ETHOX    H11   1872     0.090000     1.0080   ; qtot -0.090
  1873       HGA2    240    ETHOX    H13   1873     0.090000     1.0080   ; qtot -0.000
  1874      CG321    240    ETHOX     C2   1874    -0.010000    12.0110   ; qtot -0.010
  1875       HGA2    240    ETHOX    H21   1875     0.090000     1.0080   ; qtot  0.080
  1876       HGA2    240    ETHOX    H23   1876     0.090000     1.0080   ; qtot  0.170
  1877      OG301    241    ETHOX     O1   1877    -0.340000    15.9994   ; qtot -0.170
  1878      CG321    241    ETHOX     C1   1878    -0.010000    12.0110   ; qtot -0.180
  1879       HGA2    241    ETHOX    H11   1879     0.090000     1.0080   ; qtot -0.090
  1880       HGA2    241    ETHOX    H13   1880     0.090000     1.0080   ; qtot -0.000
  1881      CG321    241    ETHOX     C2   1881    -0.010000    12.0110   ; qtot -0.010
  1882       HGA2    241    ETHOX    H21   1882     0.090000     1.0080   ; qtot  0.080
  1883       HGA2    241    ETHOX    H23   1883     0.090000     1.0080   ; qtot  0.170
  1884      OG301    242    ETHOX     O1   1884    -0.340000    15.9994   ; qtot -0.170
  1885      CG321    242    ETHOX     C1   1885    -0.010000    12.0110   ; qtot -0.180
  1886       HGA2    242    ETHOX    H11   1886     0.090000     1.0080   ; qtot -0.090
  1887       HGA2    242    ETHOX    H13   1887     0.090000     1.0080   ; qtot -0.000
  1888      CG321    242    ETHOX     C2   1888    -0.010000    12.0110   ; qtot -0.010
  1889       HGA2    242    ETHOX    H21   1889     0.090000     1.0080   ; qtot  0.080
  1890       HGA2    242    ETHOX    H23   1890     0.090000     1.0080   ; qtot  0.170
  1891      OG301    243    ETHOX     O1   1891    -0.340000    15.9994   ; qtot -0.170
  1892      CG321    243    ETHOX     C1   1892    -0.010000    12.0110   ; qtot -0.180
  1893       HGA2    243    ETHOX    H11   1893     0.090000     1.0080   ; qtot -0.090
  1894       HGA2    243    ETHOX    H13   1894     0.090000     1.0080   ; qtot -0.000
  1895      CG321    243    ETHOX     C2   1895    -0.010000    12.0110   ; qtot -0.010
  1896       HGA2    243    ETHOX    H21   1896     0.090000     1.0080   ; qtot  0.080
  1897       HGA2    243    ETHOX    H23   1897     0.090000     1.0080   ; qtot  0.170
  1898      OG301    244    ETHOX     O1   1898    -0.340000    15.9994   ; qtot -0.170
  1899      CG321    244    ETHOX     C1   1899    -0.010000    12.0110   ; qtot -0.180
  1900       HGA2    244    ETHOX    H11   1900     0.090000     1.0080   ; qtot -0.090
  1901       HGA2    244    ETHOX    H13   1901     0.090000     1.0080   ; qtot -0.000
  1902      CG321    244    ETHOX     C2   1902    -0.010000    12.0110   ; qtot -0.010
  1903       HGA2    244    ETHOX    H21   1903     0.090000     1.0080   ; qtot  0.080
  1904       HGA2    244    ETHOX    H23   1904     0.090000     1.0080   ; qtot  0.170
  1905      OG301    245    ETHOX     O1   1905    -0.340000    15.9994   ; qtot -0.170
  1906      CG321    245    ETHOX     C1   1906    -0.010000    12.0110   ; qtot -0.180
  1907       HGA2    245    ETHOX    H11   1907     0.090000     1.0080   ; qtot -0.090
  1908       HGA2    245    ETHOX    H13   1908     0.090000     1.0080   ; qtot -0.000
  1909      CG321    245    ETHOX     C2   1909    -0.010000    12.0110   ; qtot -0.010
  1910       HGA2    245    ETHOX    H21   1910     0.090000     1.0080   ; qtot  0.080
  1911       HGA2    245    ETHOX    H23   1911     0.090000     1.0080   ; qtot  0.170
  1912      OG301    246    ETHOX     O1   1912    -0.340000    15.9994   ; qtot -0.170
  1913      CG321    246    ETHOX     C1   1913    -0.010000    12.0110   ; qtot -0.180
  1914       HGA2    246    ETHOX    H11   1914     0.090000     1.0080   ; qtot -0.090
  1915       HGA2    246    ETHOX    H13   1915     0.090000     1.0080   ; qtot -0.000
  1916      CG321    246    ETHOX     C2   1916    -0.010000    12.0110   ; qtot -0.010
  1917       HGA2    246    ETHOX    H21   1917     0.090000     1.0080   ; qtot  0.080
  1918       HGA2    246    ETHOX    H23   1918     0.090000     1.0080   ; qtot  0.170
  1919      OG301    247    ETHOX     O1   1919    -0.340000    15.9994   ; qtot -0.170
  1920      CG321    247    ETHOX     C1   1920    -0.010000    12.0110   ; qtot -0.180
  1921       HGA2    247    ETHOX    H11   1921     0.090000     1.0080   ; qtot -0.090
  1922       HGA2    247    ETHOX    H13   1922     0.090000     1.0080   ; qtot -0.000
  1923      CG321    247    ETHOX     C2   1923    -0.010000    12.0110   ; qtot -0.010
  1924       HGA2    247    ETHOX    H21   1924     0.090000     1.0080   ; qtot  0.080
  1925       HGA2    247    ETHOX    H23   1925     0.090000     1.0080   ; qtot  0.170
  1926      OG301    248    ETHOX     O1   1926    -0.340000    15.9994   ; qtot -0.170
  1927      CG321    248    ETHOX     C1   1927    -0.010000    12.0110   ; qtot -0.180
  1928       HGA2    248    ETHOX    H11   1928     0.090000     1.0080   ; qtot -0.090
  1929       HGA2    248    ETHOX    H13   1929     0.090000     1.0080   ; qtot -0.000
  1930      CG321    248    ETHOX     C2   1930    -0.010000    12.0110   ; qtot -0.010
  1931       HGA2    248    ETHOX    H21   1931     0.090000     1.0080   ; qtot  0.080
  1932       HGA2    248    ETHOX    H23   1932     0.090000     1.0080   ; qtot  0.170
  1933      OG301    249    ETHOX     O1   1933    -0.340000    15.9994   ; qtot -0.170
  1934      CG321    249    ETHOX     C1   1934    -0.010000    12.0110   ; qtot -0.180
  1935       HGA2    249    ETHOX    H11   1935     0.090000     1.0080   ; qtot -0.090
  1936       HGA2    249    ETHOX    H13   1936     0.090000     1.0080   ; qtot -0.000
  1937      CG321    249    ETHOX     C2   1937    -0.010000    12.0110   ; qtot -0.010
  1938       HGA2    249    ETHOX    H21   1938     0.090000     1.0080   ; qtot  0.080
  1939       HGA2    249    ETHOX    H23   1939     0.090000     1.0080   ; qtot  0.170
  1940      OG301    250    ETHOX     O1   1940    -0.340000    15.9994   ; qtot -0.170
  1941      CG321    250    ETHOX     C1   1941    -0.010000    12.0110   ; qtot -0.180
  1942       HGA2    250    ETHOX    H11   1942     0.090000     1.0080   ; qtot -0.090
  1943       HGA2    250    ETHOX    H13   1943     0.090000     1.0080   ; qtot -0.000
  1944      CG321    250    ETHOX     C2   1944    -0.010000    12.0110   ; qtot -0.010
  1945       HGA2    250    ETHOX    H21   1945     0.090000     1.0080   ; qtot  0.080
  1946       HGA2    250    ETHOX    H23   1946     0.090000     1.0080   ; qtot  0.170
  1947      OG301    251    ETHOX     O1   1947    -0.340000    15.9994   ; qtot -0.170
  1948      CG321    251    ETHOX     C1   1948    -0.010000    12.0110   ; qtot -0.180
  1949       HGA2    251    ETHOX    H11   1949     0.090000     1.0080   ; qtot -0.090
  1950       HGA2    251    ETHOX    H13   1950     0.090000     1.0080   ; qtot -0.000
  1951      CG321    251    ETHOX     C2   1951    -0.010000    12.0110   ; qtot -0.010
  1952       HGA2    251    ETHOX    H21   1952     0.090000     1.0080   ; qtot  0.080
  1953       HGA2    251    ETHOX    H23   1953     0.090000     1.0080   ; qtot  0.170
  1954      OG301    252    ETHOX     O1   1954    -0.340000    15.9994   ; qtot -0.170
  1955      CG321    252    ETHOX     C1   1955    -0.010000    12.0110   ; qtot -0.180
  1956       HGA2    252    ETHOX    H11   1956     0.090000     1.0080   ; qtot -0.090
  1957       HGA2    252    ETHOX    H13   1957     0.090000     1.0080   ; qtot -0.000
  1958      CG321    252    ETHOX     C2   1958    -0.010000    12.0110   ; qtot -0.010
  1959       HGA2    252    ETHOX    H21   1959     0.090000     1.0080   ; qtot  0.080
  1960       HGA2    252    ETHOX    H23   1960     0.090000     1.0080   ; qtot  0.170
  1961      OG301    253    ETHOX     O1   1961    -0.340000    15.9994   ; qtot -0.170
  1962      CG321    253    ETHOX     C1   1962    -0.010000    12.0110   ; qtot -0.180
  1963       HGA2    253    ETHOX    H11   1963     0.090000     1.0080   ; qtot -0.090
  1964       HGA2    253    ETHOX    H13   1964     0.090000     1.0080   ; qtot -0.000
  1965      CG321    253    ETHOX     C2   1965    -0.010000    12.0110   ; qtot -0.010
  1966       HGA2    253    ETHOX    H21   1966     0.090000     1.0080   ; qtot  0.080
  1967       HGA2    253    ETHOX    H23   1967     0.090000     1.0080   ; qtot  0.170
  1968      OG301    254    ETHOX     O1   1968    -0.340000    15.9994   ; qtot -0.170
  1969      CG321    254    ETHOX     C1   1969    -0.010000    12.0110   ; qtot -0.180
  1970       HGA2    254    ETHOX    H11   1970     0.090000     1.0080   ; qtot -0.090
  1971       HGA2    254    ETHOX    H13   1971     0.090000     1.0080   ; qtot -0.000
  1972      CG321    254    ETHOX     C2   1972    -0.010000    12.0110   ; qtot -0.010
  1973       HGA2    254    ETHOX    H21   1973     0.090000     1.0080   ; qtot  0.080
  1974       HGA2    254    ETHOX    H23   1974     0.090000     1.0080   ; qtot  0.170
  1975      OG301    255    ETHOX     O1   1975    -0.340000    15.9994   ; qtot -0.170
  1976      CG321    255    ETHOX     C1   1976    -0.010000    12.0110   ; qtot -0.180
  1977       HGA2    255    ETHOX    H11   1977     0.090000     1.0080   ; qtot -0.090
  1978       HGA2    255    ETHOX    H13   1978     0.090000     1.0080   ; qtot -0.000
  1979      CG321    255    ETHOX     C2   1979    -0.010000    12.0110   ; qtot -0.010
  1980       HGA2    255    ETHOX    H21   1980     0.090000     1.0080   ; qtot  0.080
  1981       HGA2    255    ETHOX    H23   1981     0.090000     1.0080   ; qtot  0.170
  1982      OG301    256    ETHOX     O1   1982    -0.340000    15.9994   ; qtot -0.170
  1983      CG321    256    ETHOX     C1   1983    -0.010000    12.0110   ; qtot -0.180
  1984       HGA2    256    ETHOX    H11   1984     0.090000     1.0080   ; qtot -0.090
  1985       HGA2    256    ETHOX    H13   1985     0.090000     1.0080   ; qtot -0.000
  1986      CG321    256    ETHOX     C2   1986    -0.010000    12.0110   ; qtot -0.010
  1987       HGA2    256    ETHOX    H21   1987     0.090000     1.0080   ; qtot  0.080
  1988       HGA2    256    ETHOX    H23   1988     0.090000     1.0080   ; qtot  0.170
  1989      OG301    257    ETHOX     O1   1989    -0.340000    15.9994   ; qtot -0.170
  1990      CG321    257    ETHOX     C1   1990    -0.010000    12.0110   ; qtot -0.180
  1991       HGA2    257    ETHOX    H11   1991     0.090000     1.0080   ; qtot -0.090
  1992       HGA2    257    ETHOX    H13   1992     0.090000     1.0080   ; qtot -0.000
  1993      CG321    257    ETHOX     C2   1993    -0.010000    12.0110   ; qtot -0.010
  1994       HGA2    257    ETHOX    H21   1994     0.090000     1.0080   ; qtot  0.080
  1995       HGA2    257    ETHOX    H23   1995     0.090000     1.0080   ; qtot  0.170
  1996      OG301    258    ETHOX     O1   1996    -0.340000    15.9994   ; qtot -0.170
  1997      CG321    258    ETHOX     C1   1997    -0.010000    12.0110   ; qtot -0.180
  1998       HGA2    258    ETHOX    H11   1998     0.090000     1.0080   ; qtot -0.090
  1999       HGA2    258    ETHOX    H13   1999     0.090000     1.0080   ; qtot -0.000
  2000      CG321    258    ETHOX     C2   2000    -0.010000    12.0110   ; qtot -0.010
  2001       HGA2    258    ETHOX    H21   2001     0.090000     1.0080   ; qtot  0.080
  2002       HGA2    258    ETHOX    H23   2002     0.090000     1.0080   ; qtot  0.170
  2003      OG301    259    ETHOX     O1   2003    -0.340000    15.9994   ; qtot -0.170
  2004      CG321    259    ETHOX     C1   2004    -0.010000    12.0110   ; qtot -0.180
  2005       HGA2    259    ETHOX    H11   2005     0.090000     1.0080   ; qtot -0.090
  2006       HGA2    259    ETHOX    H13   2006     0.090000     1.0080   ; qtot -0.000
  2007      CG321    259    ETHOX     C2   2007    -0.010000    12.0110   ; qtot -0.010
  2008       HGA2    259    ETHOX    H21   2008     0.090000     1.0080   ; qtot  0.080
  2009       HGA2    259    ETHOX    H23   2009     0.090000     1.0080   ; qtot  0.170
  2010      OG301    260    ETHOX     O1   2010    -0.340000    15.9994   ; qtot -0.170
  2011      CG321    260    ETHOX     C1   2011    -0.010000    12.0110   ; qtot -0.180
  2012       HGA2    260    ETHOX    H11   2012     0.090000     1.0080   ; qtot -0.090
  2013       HGA2    260    ETHOX    H13   2013     0.090000     1.0080   ; qtot -0.000
  2014      CG321    260    ETHOX     C2   2014    -0.010000    12.0110   ; qtot -0.010
  2015       HGA2    260    ETHOX    H21   2015     0.090000     1.0080   ; qtot  0.080
  2016       HGA2    260    ETHOX    H23   2016     0.090000     1.0080   ; qtot  0.170
  2017      OG301    261    ETHOX     O1   2017    -0.340000    15.9994   ; qtot -0.170
  2018      CG321    261    ETHOX     C1   2018    -0.010000    12.0110   ; qtot -0.180
  2019       HGA2    261    ETHOX    H11   2019     0.090000     1.0080   ; qtot -0.090
  2020       HGA2    261    ETHOX    H13   2020     0.090000     1.0080   ; qtot -0.000
  2021      CG321    261    ETHOX     C2   2021    -0.010000    12.0110   ; qtot -0.010
  2022       HGA2    261    ETHOX    H21   2022     0.090000     1.0080   ; qtot  0.080
  2023       HGA2    261    ETHOX    H23   2023     0.090000     1.0080   ; qtot  0.170
  2024      OG301    262    ETHOX     O1   2024    -0.340000    15.9994   ; qtot -0.170
  2025      CG321    262    ETHOX     C1   2025    -0.010000    12.0110   ; qtot -0.180
  2026       HGA2    262    ETHOX    H11   2026     0.090000     1.0080   ; qtot -0.090
  2027       HGA2    262    ETHOX    H13   2027     0.090000     1.0080   ; qtot -0.000
  2028      CG321    262    ETHOX     C2   2028    -0.010000    12.0110   ; qtot -0.010
  2029       HGA2    262    ETHOX    H21   2029     0.090000     1.0080   ; qtot  0.080
  2030       HGA2    262    ETHOX    H23   2030     0.090000     1.0080   ; qtot  0.170
  2031      OG301    263    ETHOX     O1   2031    -0.340000    15.9994   ; qtot -0.170
  2032      CG321    263    ETHOX     C1   2032    -0.010000    12.0110   ; qtot -0.180
  2033       HGA2    263    ETHOX    H11   2033     0.090000     1.0080   ; qtot -0.090
  2034       HGA2    263    ETHOX    H13   2034     0.090000     1.0080   ; qtot -0.000
  2035      CG321    263    ETHOX     C2   2035    -0.010000    12.0110   ; qtot -0.010
  2036       HGA2    263    ETHOX    H21   2036     0.090000     1.0080   ; qtot  0.080
  2037       HGA2    263    ETHOX    H23   2037     0.090000     1.0080   ; qtot  0.170
  2038      OG301    264    ETHOX     O1   2038    -0.340000    15.9994   ; qtot -0.170
  2039      CG321    264    ETHOX     C1   2039    -0.010000    12.0110   ; qtot -0.180
  2040       HGA2    264    ETHOX    H11   2040     0.090000     1.0080   ; qtot -0.090
  2041       HGA2    264    ETHOX    H13   2041     0.090000     1.0080   ; qtot -0.000
  2042      CG321    264    ETHOX     C2   2042    -0.010000    12.0110   ; qtot -0.010
  2043       HGA2    264    ETHOX    H21   2043     0.090000     1.0080   ; qtot  0.080
  2044       HGA2    264    ETHOX    H23   2044     0.090000     1.0080   ; qtot  0.170
  2045      OG301    265    ETHOX     O1   2045    -0.340000    15.9994   ; qtot -0.170
  2046      CG321    265    ETHOX     C1   2046    -0.010000    12.0110   ; qtot -0.180
  2047       HGA2    265    ETHOX    H11   2047     0.090000     1.0080   ; qtot -0.090
  2048       HGA2    265    ETHOX    H13   2048     0.090000     1.0080   ; qtot -0.000
  2049      CG321    265    ETHOX     C2   2049     0.050000    12.0110   ; qtot  0.050
  2050       HGA2    265    ETHOX    H21   2050     0.090000     1.0080   ; qtot  0.140
  2051       HGA2    265    ETHOX    H23   2051     0.090000     1.0080   ; qtot  0.230
  2052      OG311    265    ETHOX     OZ   2052    -0.650000    15.9994   ; qtot -0.420
  2053       HGP1    265    ETHOX    HZ1   2053     0.420000     1.0080   ; qtot -0.000

[ bonds ]
; ai	aj	funct	b0	Kb
    2     1     1
    1     3     1
    3     4     1
    3     5     1
    3     6     1
    6     7     1
    6     8     1
    6     9     1
    9    10     1
   10    11     1
   10    12     1
   10    13     1
   13    14     1
   13    15     1
   13    16     1
   16    17     1
   17    18     1
   17    19     1
   17    20     1
   20    21     1
   20    22     1
   20    23     1
   23    24     1
   24    25     1
   24    26     1
   24    27     1
   27    28     1
   27    29     1
   27    30     1
   30    31     1
   31    32     1
   31    33     1
   31    34     1
   34    35     1
   34    36     1
   34    37     1
   37    38     1
   38    39     1
   38    40     1
   38    41     1
   41    42     1
   41    43     1
   41    44     1
   44    45     1
   45    46     1
   45    47     1
   45    48     1
   48    49     1
   48    50     1
   48    51     1
   51    52     1
   52    53     1
   52    54     1
   52    55     1
   55    56     1
   55    57     1
   55    58     1
   58    59     1
   59    60     1
   59    61     1
   59    62     1
   62    63     1
   62    64     1
   62    65     1
   65    66     1
   66    67     1
   66    68     1
   66    69     1
   69    70     1
   69    71     1
   69    72     1
   72    73     1
   73    74     1
   73    75     1
   73    76     1
   76    77     1
   76    78     1
   76    79     1
   79    80     1
   80    81     1
   80    82     1
   80    83     1
   83    84     1
   83    85     1
   83    86     1
   86    87     1
   87    88     1
   87    89     1
   87    90     1
   90    91     1
   90    92     1
   90    93     1
   93    94     1
   94    95     1
   94    96     1
   94    97     1
   97    98     1
   97    99     1
   97   100     1
  100   101     1
  101   102     1
  101   103     1
  101   104     1
  104   105     1
  104   106     1
  104   107     1
  107   108     1
  108   109     1
  108   110     1
  108   111     1
  111   112     1
  111   113     1
  111   114     1
  114   115     1
  115   116     1
  115   117     1
  115   118     1
  118   119     1
  118   120     1
  118   121     1
  121   122     1
  122   123     1
  122   124     1
  122   125     1
  125   126     1
  125   127     1
  125   128     1
  128   129     1
  129   130     1
  129   131     1
  129   132     1
  132   133     1
  132   134     1
  132   135     1
  135   136     1
  136   137     1
  136   138     1
  136   139     1
  139   140     1
  139   141     1
  139   142     1
  142   143     1
  143   144     1
  143   145     1
  143   146     1
  146   147     1
  146   148     1
  146   149     1
  149   150     1
  150   151     1
  150   152     1
  150   153     1
  153   154     1
  153   155     1
  153   156     1
  156   157     1
  157   158     1
  157   159     1
  157   160     1
  160   161     1
  160   162     1
  160   163     1
  163   164     1
  164   165     1
  164   166     1
  164   167     1
  167   168     1
  167   169     1
  167   170     1
  170   171     1
  171   172     1
  171   173     1
  171   174     1
  174   175     1
  174   176     1
  174   177     1
  177   178     1
  178   179     1
  178   180     1
  178   181     1
  181   182     1
  181   183     1
  181   184     1
  184   185     1
  185   186     1
  185   187     1
  185   188     1
  188   189     1
  188   190     1
  188   191     1
  191   192     1
  192   193     1
  192   194     1
  192   195     1
  195   196     1
  195   197     1
  195   198     1
  198   199     1
  199   200     1
  199   201     1
  199   202     1
  202   203     1
  202   204     1
  202   205     1
  205   206     1
  206   207     1
  206   208     1
  206   209     1
  209   210     1
  209   211     1
  209   212     1
  212   213     1
  213   214     1
  213   215     1
  213   216     1
  216   217     1
  216   218     1
  216   219     1
  219   220     1
  220   221     1
  220   222     1
  220   223     1
  223   224     1
  223   225     1
  223   226     1
  226   227     1
  227   228     1
  227   229     1
  227   230     1
  230   231     1
  230   232     1
  230   233     1
  233   234     1
  234   235     1
  234   236     1
  234   237     1
  237   238     1
  237   239     1
  237   240     1
  240   241     1
  241   242     1
  241   243     1
  241   244     1
  244   245     1
  244   246     1
  244   247     1
  247   248     1
  248   249     1
  248   250     1
  248   251     1
  251   252     1
  251   253     1
  251   254     1
  254   255     1
  255   256     1
  255   257     1
  255   258     1
  258   259     1
  258   260     1
  258   261     1
  261   262     1
  262   263     1
  262   264     1
  262   265     1
  265   266     1
  265   267     1
  265   268     1
  268   269     1
  269   270     1
  269   271     1
  269   272     1
  272   273     1
  272   274     1
  272   275     1
  275   276     1
  276   277     1
  276   278     1
  276   279     1
  279   280     1
  279   281     1
  279   282     1
  282   283     1
  283   284     1
  283   285     1
  283   286     1
  286   287     1
  286   288     1
  286   289     1
  289   290     1
  290   291     1
  290   292     1
  290   293     1
  293   294     1
  293   295     1
  293   296     1
  296   297     1
  297   298     1
  297   299     1
  297   300     1
  300   301     1
  300   302     1
  300   303     1
  303   304     1
  304   305     1
  304   306     1
  304   307     1
  307   308     1
  307   309     1
  307   310     1
  310   311     1
  311   312     1
  311   313     1
  311   314     1
  314   315     1
  314   316     1
  314   317     1
  317   318     1
  318   319     1
  318   320     1
  318   321     1
  321   322     1
  321   323     1
  321   324     1
  324   325     1
  325   326     1
  325   327     1
  325   328     1
  328   329     1
  328   330     1
  328   331     1
  331   332     1
  332   333     1
  332   334     1
  332   335     1
  335   336     1
  335   337     1
  335   338     1
  338   339     1
  339   340     1
  339   341     1
  339   342     1
  342   343     1
  342   344     1
  342   345     1
  345   346     1
  346   347     1
  346   348     1
  346   349     1
  349   350     1
  349   351     1
  349   352     1
  352   353     1
  353   354     1
  353   355     1
  353   356     1
  356   357     1
  356   358     1
  356   359     1
  359   360     1
  360   361     1
  360   362     1
  360   363     1
  363   364     1
  363   365     1
  363   366     1
  366   367     1
  367   368     1
  367   369     1
  367   370     1
  370   371     1
  370   372     1
  370   373     1
  373   374     1
  374   375     1
  374   376     1
  374   377     1
  377   378     1
  377   379     1
  377   380     1
  380   381     1
  381   382     1
  381   383     1
  381   384     1
  384   385     1
  384   386     1
  384   387     1
  387   388     1
  388   389     1
  388   390     1
  388   391     1
  391   392     1
  391   393     1
  391   394     1
  394   395     1
  395   396     1
  395   397     1
  395   398     1
  398   399     1
  398   400     1
  398   401     1
  401   402     1
  402   403     1
  402   404     1
  402   405     1
  405   406     1
  405   407     1
  405   408     1
  408   409     1
  409   410     1
  409   411     1
  409   412     1
  412   413     1
  412   414     1
  412   415     1
  415   416     1
  416   417     1
  416   418     1
  416   419     1
  419   420     1
  419   421     1
  419   422     1
  422   423     1
  423   424     1
  423   425     1
  423   426     1
  426   427     1
  426   428     1
  426   429     1
  429   430     1
  430   431     1
  430   432     1
  430   433     1
  433   434     1
  433   435     1
  433   436     1
  436   437     1
  437   438     1
  437   439     1
  437   440     1
  440   441     1
  440   442     1
  440   443     1
  443   444     1
  444   445     1
  444   446     1
  444   447     1
  447   448     1
  447   449     1
  447   450     1
  450   451     1
  451   452     1
  451   453     1
  451   454     1
  454   455     1
  454   456     1
  454   457     1
  457   458     1
  458   459     1
  458   460     1
  458   461     1
  461   462     1
  461   463     1
  461   464     1
  464   465     1
  465   466     1
  465   467     1
  465   468     1
  468   469     1
  468   470     1
  468   471     1
  471   472     1
  472   473     1
  472   474     1
  472   475     1
  475   476     1
  475   477     1
  475   478     1
  478   479     1
  479   480     1
  479   481     1
  479   482     1
  482   483     1
  482   484     1
  482   485     1
  485   486     1
  486   487     1
  486   488     1
  486   489     1
  489   490     1
  489   491     1
  489   492     1
  492   493     1
  493   494     1
  493   495     1
  493   496     1
  496   497     1
  496   498     1
  496   499     1
  499   500     1
  500   501     1
  500   502     1
  500   503     1
  503   504     1
  503   505     1
  503   506     1
  506   507     1
  507   508     1
  507   509     1
  507   510     1
  510   511     1
  510   512     1
  510   513     1
  513   514     1
  514   515     1
  514   516     1
  514   517     1
  517   518     1
  517   519     1
  517   520     1
  520   521     1
  521   522     1
  521   523     1
  521   524     1
  524   525     1
  524   526     1
  524   527     1
  527   528     1
  528   529     1
  528   530     1
  528   531     1
  531   532     1
  531   533     1
  531   534     1
  534   535     1
  535   536     1
  535   537     1
  535   538     1
  538   539     1
  538   540     1
  538   541     1
  541   542     1
  542   543     1
  542   544     1
  542   545     1
  545   546     1
  545   547     1
  545   548     1
  548   549     1
  549   550     1
  549   551     1
  549   552     1
  552   553     1
  552   554     1
  552   555     1
  555   556     1
  556   557     1
  556   558     1
  556   559     1
  559   560     1
  559   561     1
  559   562     1
  562   563     1
  563   564     1
  563   565     1
  563   566     1
  566   567     1
  566   568     1
  566   569     1
  569   570     1
  570   571     1
  570   572     1
  570   573     1
  573   574     1
  573   575     1
  573   576     1
  576   577     1
  577   578     1
  577   579     1
  577   580     1
  580   581     1
  580   582     1
  580   583     1
  583   584     1
  584   585     1
  584   586     1
  584   587     1
  587   588     1
  587   589     1
  587   590     1
  590   591     1
  591   592     1
  591   593     1
  591   594     1
  594   595     1
  594   596     1
  594   597     1
  597   598     1
  598   599     1
  598   600     1
  598   601     1
  601   602     1
  601   603     1
  601   604     1
  604   605     1
  605   606     1
  605   607     1
  605   608     1
  608   609     1
  608   610     1
  608   611     1
  611   612     1
  612   613     1
  612   614     1
  612   615     1
  615   616     1
  615   617     1
  615   618     1
  618   619     1
  619   620     1
  619   621     1
  619   622     1
  622   623     1
  622   624     1
  622   625     1
  625   626     1
  626   627     1
  626   628     1
  626   629     1
  629   630     1
  629   631     1
  629   632     1
  632   633     1
  633   634     1
  633   635     1
  633   636     1
  636   637     1
  636   638     1
  636   639     1
  639   640     1
  640   641     1
  640   642     1
  640   643     1
  643   644     1
  643   645     1
  643   646     1
  646   647     1
  647   648     1
  647   649     1
  647   650     1
  650   651     1
  650   652     1
  650   653     1
  653   654     1
  654   655     1
  654   656     1
  654   657     1
  657   658     1
  657   659     1
  657   660     1
  660   661     1
  661   662     1
  661   663     1
  661   664     1
  664   665     1
  664   666     1
  664   667     1
  667   668     1
  668   669     1
  668   670     1
  668   671     1
  671   672     1
  671   673     1
  671   674     1
  674   675     1
  675   676     1
  675   677     1
  675   678     1
  678   679     1
  678   680     1
  678   681     1
  681   682     1
  682   683     1
  682   684     1
  682   685     1
  685   686     1
  685   687     1
  685   688     1
  688   689     1
  689   690     1
  689   691     1
  689   692     1
  692   693     1
  692   694     1
  692   695     1
  695   696     1
  696   697     1
  696   698     1
  696   699     1
  699   700     1
  699   701     1
  699   702     1
  702   703     1
  703   704     1
  703   705     1
  703   706     1
  706   707     1
  706   708     1
  706   712     1
  708   709     1
  708   710     1
  708   711     1
  712   713     1
  713   714     1
  713   715     1
  713   716     1
  716   717     1
  716   718     1
  716   722     1
  718   719     1
  718   720     1
  718   721     1
  722   723     1
  723   724     1
  723   725     1
  723   726     1
  726   727     1
  726   728     1
  726   732     1
  728   729     1
  728   730     1
  728   731     1
  732   733     1
  733   734     1
  733   735     1
  733   736     1
  736   737     1
  736   738     1
  736   742     1
  738   739     1
  738   740     1
  738   741     1
  742   743     1
  743   744     1
  743   745     1
  743   746     1
  746   747     1
  746   748     1
  746   752     1
  748   749     1
  748   750     1
  748   751     1
  752   753     1
  753   754     1
  753   755     1
  753   756     1
  756   757     1
  756   758     1
  756   762     1
  758   759     1
  758   760     1
  758   761     1
  762   763     1
  763   764     1
  763   765     1
  763   766     1
  766   767     1
  766   768     1
  766   772     1
  768   769     1
  768   770     1
  768   771     1
  772   773     1
  773   774     1
  773   775     1
  773   776     1
  776   777     1
  776   778     1
  776   782     1
  778   779     1
  778   780     1
  778   781     1
  782   783     1
  783   784     1
  783   785     1
  783   786     1
  786   787     1
  786   788     1
  786   792     1
  788   789     1
  788   790     1
  788   791     1
  792   793     1
  793   794     1
  793   795     1
  793   796     1
  796   797     1
  796   798     1
  796   802     1
  798   799     1
  798   800     1
  798   801     1
  802   803     1
  803   804     1
  803   805     1
  803   806     1
  806   807     1
  806   808     1
  806   812     1
  808   809     1
  808   810     1
  808   811     1
  812   813     1
  813   814     1
  813   815     1
  813   816     1
  816   817     1
  816   818     1
  816   822     1
  818   819     1
  818   820     1
  818   821     1
  822   823     1
  823   824     1
  823   825     1
  823   826     1
  826   827     1
  826   828     1
  826   832     1
  828   829     1
  828   830     1
  828   831     1
  832   833     1
  833   834     1
  833   835     1
  833   836     1
  836   837     1
  836   838     1
  836   842     1
  838   839     1
  838   840     1
  838   841     1
  842   843     1
  843   844     1
  843   845     1
  843   846     1
  846   847     1
  846   848     1
  846   852     1
  848   849     1
  848   850     1
  848   851     1
  852   853     1
  853   854     1
  853   855     1
  853   856     1
  856   857     1
  856   858     1
  856   862     1
  858   859     1
  858   860     1
  858   861     1
  862   863     1
  863   864     1
  863   865     1
  863   866     1
  866   867     1
  866   868     1
  866   872     1
  868   869     1
  868   870     1
  868   871     1
  872   873     1
  873   874     1
  873   875     1
  873   876     1
  876   877     1
  876   878     1
  876   882     1
  878   879     1
  878   880     1
  878   881     1
  882   883     1
  883   884     1
  883   885     1
  883   886     1
  886   887     1
  886   888     1
  886   892     1
  888   889     1
  888   890     1
  888   891     1
  892   893     1
  893   894     1
  893   895     1
  893   896     1
  896   897     1
  896   898     1
  896   902     1
  898   899     1
  898   900     1
  898   901     1
  902   903     1
  903   904     1
  903   905     1
  903   906     1
  906   907     1
  906   908     1
  906   912     1
  908   909     1
  908   910     1
  908   911     1
  912   913     1
  913   914     1
  913   915     1
  913   916     1
  916   917     1
  916   918     1
  916   922     1
  918   919     1
  918   920     1
  918   921     1
  922   923     1
  923   924     1
  923   925     1
  923   926     1
  926   927     1
  926   928     1
  926   932     1
  928   929     1
  928   930     1
  928   931     1
  932   933     1
  933   934     1
  933   935     1
  933   936     1
  936   937     1
  936   938     1
  936   942     1
  938   939     1
  938   940     1
  938   941     1
  942   943     1
  943   944     1
  943   945     1
  943   946     1
  946   947     1
  946   948     1
  946   952     1
  948   949     1
  948   950     1
  948   951     1
  952   953     1
  953   954     1
  953   955     1
  953   956     1
  956   957     1
  956   958     1
  956   962     1
  958   959     1
  958   960     1
  958   961     1
  962   963     1
  963   964     1
  963   965     1
  963   966     1
  966   967     1
  966   968     1
  966   972     1
  968   969     1
  968   970     1
  968   971     1
  972   973     1
  973   974     1
  973   975     1
  973   976     1
  976   977     1
  976   978     1
  976   982     1
  978   979     1
  978   980     1
  978   981     1
  982   983     1
  983   984     1
  983   985     1
  983   986     1
  986   987     1
  986   988     1
  986   992     1
  988   989     1
  988   990     1
  988   991     1
  992   993     1
  993   994     1
  993   995     1
  993   996     1
  996   997     1
  996   998     1
  996  1002     1
  998   999     1
  998  1000     1
  998  1001     1
 1002  1003     1
 1003  1004     1
 1003  1005     1
 1003  1006     1
 1006  1007     1
 1006  1008     1
 1006  1012     1
 1008  1009     1
 1008  1010     1
 1008  1011     1
 1012  1013     1
 1013  1014     1
 1013  1015     1
 1013  1016     1
 1016  1017     1
 1016  1018     1
 1016  1022     1
 1018  1019     1
 1018  1020     1
 1018  1021     1
 1022  1023     1
 1023  1024     1
 1023  1025     1
 1023  1026     1
 1026  1027     1
 1026  1028     1
 1026  1032     1
 1028  1029     1
 1028  1030     1
 1028  1031     1
 1032  1033     1
 1033  1034     1
 1033  1035     1
 1033  1036     1
 1036  1037     1
 1036  1038     1
 1036  1042     1
 1038  1039     1
 1038  1040     1
 1038  1041     1
 1042  1043     1
 1043  1044     1
 1043  1045     1
 1043  1046     1
 1046  1047     1
 1046  1048     1
 1046  1052     1
 1048  1049     1
 1048  1050     1
 1048  1051     1
 1052  1053     1
 1053  1054     1
 1053  1055     1
 1053  1056     1
 1056  1057     1
 1056  1058     1
 1056  1062     1
 1058  1059     1
 1058  1060     1
 1058  1061     1
 1062  1063     1
 1063  1064     1
 1063  1065     1
 1063  1066     1
 1066  1067     1
 1066  1068     1
 1066  1072     1
 1068  1069     1
 1068  1070     1
 1068  1071     1
 1072  1073     1
 1073  1074     1
 1073  1075     1
 1073  1076     1
 1076  1077     1
 1076  1078     1
 1076  1082     1
 1078  1079     1
 1078  1080     1
 1078  1081     1
 1082  1083     1
 1083  1084     1
 1083  1085     1
 1083  1086     1
 1086  1087     1
 1086  1088     1
 1086  1092     1
 1088  1089     1
 1088  1090     1
 1088  1091     1
 1092  1093     1
 1093  1094     1
 1093  1095     1
 1093  1096     1
 1096  1097     1
 1096  1098     1
 1096  1102     1
 1098  1099     1
 1098  1100     1
 1098  1101     1
 1102  1103     1
 1103  1104     1
 1103  1105     1
 1103  1106     1
 1106  1107     1
 1106  1108     1
 1106  1112     1
 1108  1109     1
 1108  1110     1
 1108  1111     1
 1112  1113     1
 1113  1114     1
 1113  1115     1
 1113  1116     1
 1116  1117     1
 1116  1118     1
 1116  1122     1
 1118  1119     1
 1118  1120     1
 1118  1121     1
 1122  1123     1
 1123  1124     1
 1123  1125     1
 1123  1126     1
 1126  1127     1
 1126  1128     1
 1126  1132     1
 1128  1129     1
 1128  1130     1
 1128  1131     1
 1132  1133     1
 1133  1134     1
 1133  1135     1
 1133  1136     1
 1136  1137     1
 1136  1138     1
 1136  1142     1
 1138  1139     1
 1138  1140     1
 1138  1141     1
 1142  1143     1
 1143  1144     1
 1143  1145     1
 1143  1146     1
 1146  1147     1
 1146  1148     1
 1146  1152     1
 1148  1149     1
 1148  1150     1
 1148  1151     1
 1152  1153     1
 1153  1154     1
 1153  1155     1
 1153  1156     1
 1156  1157     1
 1156  1158     1
 1156  1162     1
 1158  1159     1
 1158  1160     1
 1158  1161     1
 1162  1163     1
 1163  1164     1
 1163  1165     1
 1163  1166     1
 1166  1167     1
 1166  1168     1
 1166  1172     1
 1168  1169     1
 1168  1170     1
 1168  1171     1
 1172  1173     1
 1173  1174     1
 1173  1175     1
 1173  1176     1
 1176  1177     1
 1176  1178     1
 1176  1182     1
 1178  1179     1
 1178  1180     1
 1178  1181     1
 1182  1183     1
 1183  1184     1
 1183  1185     1
 1183  1186     1
 1186  1187     1
 1186  1188     1
 1186  1192     1
 1188  1189     1
 1188  1190     1
 1188  1191     1
 1192  1193     1
 1193  1194     1
 1193  1195     1
 1193  1196     1
 1196  1197     1
 1196  1198     1
 1196  1202     1
 1198  1199     1
 1198  1200     1
 1198  1201     1
 1202  1203     1
 1203  1204     1
 1203  1205     1
 1203  1206     1
 1206  1207     1
 1206  1208     1
 1206  1212     1
 1208  1209     1
 1208  1210     1
 1208  1211     1
 1212  1213     1
 1213  1214     1
 1213  1215     1
 1213  1216     1
 1216  1217     1
 1216  1218     1
 1216  1222     1
 1218  1219     1
 1218  1220     1
 1218  1221     1
 1222  1223     1
 1223  1224     1
 1223  1225     1
 1223  1226     1
 1226  1227     1
 1226  1228     1
 1226  1232     1
 1228  1229     1
 1228  1230     1
 1228  1231     1
 1232  1233     1
 1233  1234     1
 1233  1235     1
 1233  1236     1
 1236  1237     1
 1236  1238     1
 1236  1242     1
 1238  1239     1
 1238  1240     1
 1238  1241     1
 1242  1243     1
 1243  1244     1
 1243  1245     1
 1243  1246     1
 1246  1247     1
 1246  1248     1
 1246  1252     1
 1248  1249     1
 1248  1250     1
 1248  1251     1
 1252  1253     1
 1253  1254     1
 1253  1255     1
 1253  1256     1
 1256  1257     1
 1256  1258     1
 1256  1262     1
 1258  1259     1
 1258  1260     1
 1258  1261     1
 1262  1263     1
 1263  1264     1
 1263  1265     1
 1263  1266     1
 1266  1267     1
 1266  1268     1
 1266  1272     1
 1268  1269     1
 1268  1270     1
 1268  1271     1
 1272  1273     1
 1273  1274     1
 1273  1275     1
 1273  1276     1
 1276  1277     1
 1276  1278     1
 1276  1282     1
 1278  1279     1
 1278  1280     1
 1278  1281     1
 1282  1283     1
 1283  1284     1
 1283  1285     1
 1283  1286     1
 1286  1287     1
 1286  1288     1
 1286  1292     1
 1288  1289     1
 1288  1290     1
 1288  1291     1
 1292  1293     1
 1293  1294     1
 1293  1295     1
 1293  1296     1
 1296  1297     1
 1296  1298     1
 1296  1302     1
 1298  1299     1
 1298  1300     1
 1298  1301     1
 1302  1303     1
 1303  1304     1
 1303  1305     1
 1303  1306     1
 1306  1307     1
 1306  1308     1
 1306  1312     1
 1308  1309     1
 1308  1310     1
 1308  1311     1
 1312  1313     1
 1313  1314     1
 1313  1315     1
 1313  1316     1
 1316  1317     1
 1316  1318     1
 1316  1322     1
 1318  1319     1
 1318  1320     1
 1318  1321     1
 1322  1323     1
 1323  1324     1
 1323  1325     1
 1323  1326     1
 1326  1327     1
 1326  1328     1
 1326  1332     1
 1328  1329     1
 1328  1330     1
 1328  1331     1
 1332  1333     1
 1333  1334     1
 1333  1335     1
 1333  1336     1
 1336  1337     1
 1336  1338     1
 1336  1342     1
 1338  1339     1
 1338  1340     1
 1338  1341     1
 1342  1343     1
 1343  1344     1
 1343  1345     1
 1343  1346     1
 1346  1347     1
 1346  1348     1
 1346  1352     1
 1348  1349     1
 1348  1350     1
 1348  1351     1
 1352  1353     1
 1353  1354     1
 1353  1355     1
 1353  1356     1
 1356  1357     1
 1356  1358     1
 1356  1359     1
 1359  1360     1
 1360  1361     1
 1360  1362     1
 1360  1363     1
 1363  1364     1
 1363  1365     1
 1363  1366     1
 1366  1367     1
 1367  1368     1
 1367  1369     1
 1367  1370     1
 1370  1371     1
 1370  1372     1
 1370  1373     1
 1373  1374     1
 1374  1375     1
 1374  1376     1
 1374  1377     1
 1377  1378     1
 1377  1379     1
 1377  1380     1
 1380  1381     1
 1381  1382     1
 1381  1383     1
 1381  1384     1
 1384  1385     1
 1384  1386     1
 1384  1387     1
 1387  1388     1
 1388  1389     1
 1388  1390     1
 1388  1391     1
 1391  1392     1
 1391  1393     1
 1391  1394     1
 1394  1395     1
 1395  1396     1
 1395  1397     1
 1395  1398     1
 1398  1399     1
 1398  1400     1
 1398  1401     1
 1401  1402     1
 1402  1403     1
 1402  1404     1
 1402  1405     1
 1405  1406     1
 1405  1407     1
 1405  1408     1
 1408  1409     1
 1409  1410     1
 1409  1411     1
 1409  1412     1
 1412  1413     1
 1412  1414     1
 1412  1415     1
 1415  1416     1
 1416  1417     1
 1416  1418     1
 1416  1419     1
 1419  1420     1
 1419  1421     1
 1419  1422     1
 1422  1423     1
 1423  1424     1
 1423  1425     1
 1423  1426     1
 1426  1427     1
 1426  1428     1
 1426  1429     1
 1429  1430     1
 1430  1431     1
 1430  1432     1
 1430  1433     1
 1433  1434     1
 1433  1435     1
 1433  1436     1
 1436  1437     1
 1437  1438     1
 1437  1439     1
 1437  1440     1
 1440  1441     1
 1440  1442     1
 1440  1443     1
 1443  1444     1
 1444  1445     1
 1444  1446     1
 1444  1447     1
 1447  1448     1
 1447  1449     1
 1447  1450     1
 1450  1451     1
 1451  1452     1
 1451  1453     1
 1451  1454     1
 1454  1455     1
 1454  1456     1
 1454  1457     1
 1457  1458     1
 1458  1459     1
 1458  1460     1
 1458  1461     1
 1461  1462     1
 1461  1463     1
 1461  1464     1
 1464  1465     1
 1465  1466     1
 1465  1467     1
 1465  1468     1
 1468  1469     1
 1468  1470     1
 1468  1471     1
 1471  1472     1
 1472  1473     1
 1472  1474     1
 1472  1475     1
 1475  1476     1
 1475  1477     1
 1475  1478     1
 1478  1479     1
 1479  1480     1
 1479  1481     1
 1479  1482     1
 1482  1483     1
 1482  1484     1
 1482  1485     1
 1485  1486     1
 1486  1487     1
 1486  1488     1
 1486  1489     1
 1489  1490     1
 1489  1491     1
 1489  1492     1
 1492  1493     1
 1493  1494     1
 1493  1495     1
 1493  1496     1
 1496  1497     1
 1496  1498     1
 1496  1499     1
 1499  1500     1
 1500  1501     1
 1500  1502     1
 1500  1503     1
 1503  1504     1
 1503  1505     1
 1503  1506     1
 1506  1507     1
 1507  1508     1
 1507  1509     1
 1507  1510     1
 1510  1511     1
 1510  1512     1
 1510  1513     1
 1513  1514     1
 1514  1515     1
 1514  1516     1
 1514  1517     1
 1517  1518     1
 1517  1519     1
 1517  1520     1
 1520  1521     1
 1521  1522     1
 1521  1523     1
 1521  1524     1
 1524  1525     1
 1524  1526     1
 1524  1527     1
 1527  1528     1
 1528  1529     1
 1528  1530     1
 1528  1531     1
 1531  1532     1
 1531  1533     1
 1531  1534     1
 1534  1535     1
 1535  1536     1
 1535  1537     1
 1535  1538     1
 1538  1539     1
 1538  1540     1
 1538  1541     1
 1541  1542     1
 1542  1543     1
 1542  1544     1
 1542  1545     1
 1545  1546     1
 1545  1547     1
 1545  1548     1
 1548  1549     1
 1549  1550     1
 1549  1551     1
 1549  1552     1
 1552  1553     1
 1552  1554     1
 1552  1555     1
 1555  1556     1
 1556  1557     1
 1556  1558     1
 1556  1559     1
 1559  1560     1
 1559  1561     1
 1559  1562     1
 1562  1563     1
 1563  1564     1
 1563  1565     1
 1563  1566     1
 1566  1567     1
 1566  1568     1
 1566  1569     1
 1569  1570     1
 1570  1571     1
 1570  1572     1
 1570  1573     1
 1573  1574     1
 1573  1575     1
 1573  1576     1
 1576  1577     1
 1577  1578     1
 1577  1579     1
 1577  1580     1
 1580  1581     1
 1580  1582     1
 1580  1583     1
 1583  1584     1
 1584  1585     1
 1584  1586     1
 1584  1587     1
 1587  1588     1
 1587  1589     1
 1587  1590     1
 1590  1591     1
 1591  1592     1
 1591  1593     1
 1591  1594     1
 1594  1595     1
 1594  1596     1
 1594  1597     1
 1597  1598     1
 1598  1599     1
 1598  1600     1
 1598  1601     1
 1601  1602     1
 1601  1603     1
 1601  1604     1
 1604  1605     1
 1605  1606     1
 1605  1607     1
 1605  1608     1
 1608  1609     1
 1608  1610     1
 1608  1611     1
 1611  1612     1
 1612  1613     1
 1612  1614     1
 1612  1615     1
 1615  1616     1
 1615  1617     1
 1615  1618     1
 1618  1619     1
 1619  1620     1
 1619  1621     1
 1619  1622     1
 1622  1623     1
 1622  1624     1
 1622  1625     1
 1625  1626     1
 1626  1627     1
 1626  1628     1
 1626  1629     1
 1629  1630     1
 1629  1631     1
 1629  1632     1
 1632  1633     1
 1633  1634     1
 1633  1635     1
 1633  1636     1
 1636  1637     1
 1636  1638     1
 1636  1639     1
 1639  1640     1
 1640  1641     1
 1640  1642     1
 1640  1643     1
 1643  1644     1
 1643  1645     1
 1643  1646     1
 1646  1647     1
 1647  1648     1
 1647  1649     1
 1647  1650     1
 1650  1651     1
 1650  1652     1
 1650  1653     1
 1653  1654     1
 1654  1655     1
 1654  1656     1
 1654  1657     1
 1657  1658     1
 1657  1659     1
 1657  1660     1
 1660  1661     1
 1661  1662     1
 1661  1663     1
 1661  1664     1
 1664  1665     1
 1664  1666     1
 1664  1667     1
 1667  1668     1
 1668  1669     1
 1668  1670     1
 1668  1671     1
 1671  1672     1
 1671  1673     1
 1671  1674     1
 1674  1675     1
 1675  1676     1
 1675  1677     1
 1675  1678     1
 1678  1679     1
 1678  1680     1
 1678  1681     1
 1681  1682     1
 1682  1683     1
 1682  1684     1
 1682  1685     1
 1685  1686     1
 1685  1687     1
 1685  1688     1
 1688  1689     1
 1689  1690     1
 1689  1691     1
 1689  1692     1
 1692  1693     1
 1692  1694     1
 1692  1695     1
 1695  1696     1
 1696  1697     1
 1696  1698     1
 1696  1699     1
 1699  1700     1
 1699  1701     1
 1699  1702     1
 1702  1703     1
 1703  1704     1
 1703  1705     1
 1703  1706     1
 1706  1707     1
 1706  1708     1
 1706  1709     1
 1709  1710     1
 1710  1711     1
 1710  1712     1
 1710  1713     1
 1713  1714     1
 1713  1715     1
 1713  1716     1
 1716  1717     1
 1717  1718     1
 1717  1719     1
 1717  1720     1
 1720  1721     1
 1720  1722     1
 1720  1723     1
 1723  1724     1
 1724  1725     1
 1724  1726     1
 1724  1727     1
 1727  1728     1
 1727  1729     1
 1727  1730     1
 1730  1731     1
 1731  1732     1
 1731  1733     1
 1731  1734     1
 1734  1735     1
 1734  1736     1
 1734  1737     1
 1737  1738     1
 1738  1739     1
 1738  1740     1
 1738  1741     1
 1741  1742     1
 1741  1743     1
 1741  1744     1
 1744  1745     1
 1745  1746     1
 1745  1747     1
 1745  1748     1
 1748  1749     1
 1748  1750     1
 1748  1751     1
 1751  1752     1
 1752  1753     1
 1752  1754     1
 1752  1755     1
 1755  1756     1
 1755  1757     1
 1755  1758     1
 1758  1759     1
 1759  1760     1
 1759  1761     1
 1759  1762     1
 1762  1763     1
 1762  1764     1
 1762  1765     1
 1765  1766     1
 1766  1767     1
 1766  1768     1
 1766  1769     1
 1769  1770     1
 1769  1771     1
 1769  1772     1
 1772  1773     1
 1773  1774     1
 1773  1775     1
 1773  1776     1
 1776  1777     1
 1776  1778     1
 1776  1779     1
 1779  1780     1
 1780  1781     1
 1780  1782     1
 1780  1783     1
 1783  1784     1
 1783  1785     1
 1783  1786     1
 1786  1787     1
 1787  1788     1
 1787  1789     1
 1787  1790     1
 1790  1791     1
 1790  1792     1
 1790  1793     1
 1793  1794     1
 1794  1795     1
 1794  1796     1
 1794  1797     1
 1797  1798     1
 1797  1799     1
 1797  1800     1
 1800  1801     1
 1801  1802     1
 1801  1803     1
 1801  1804     1
 1804  1805     1
 1804  1806     1
 1804  1807     1
 1807  1808     1
 1808  1809     1
 1808  1810     1
 1808  1811     1
 1811  1812     1
 1811  1813     1
 1811  1814     1
 1814  1815     1
 1815  1816     1
 1815  1817     1
 1815  1818     1
 1818  1819     1
 1818  1820     1
 1818  1821     1
 1821  1822     1
 1822  1823     1
 1822  1824     1
 1822  1825     1
 1825  1826     1
 1825  1827     1
 1825  1828     1
 1828  1829     1
 1829  1830     1
 1829  1831     1
 1829  1832     1
 1832  1833     1
 1832  1834     1
 1832  1835     1
 1835  1836     1
 1836  1837     1
 1836  1838     1
 1836  1839     1
 1839  1840     1
 1839  1841     1
 1839  1842     1
 1842  1843     1
 1843  1844     1
 1843  1845     1
 1843  1846     1
 1846  1847     1
 1846  1848     1
 1846  1849     1
 1849  1850     1
 1850  1851     1
 1850  1852     1
 1850  1853     1
 1853  1854     1
 1853  1855     1
 1853  1856     1
 1856  1857     1
 1857  1858     1
 1857  1859     1
 1857  1860     1
 1860  1861     1
 1860  1862     1
 1860  1863     1
 1863  1864     1
 1864  1865     1
 1864  1866     1
 1864  1867     1
 1867  1868     1
 1867  1869     1
 1867  1870     1
 1870  1871     1
 1871  1872     1
 1871  1873     1
 1871  1874     1
 1874  1875     1
 1874  1876     1
 1874  1877     1
 1877  1878     1
 1878  1879     1
 1878  1880     1
 1878  1881     1
 1881  1882     1
 1881  1883     1
 1881  1884     1
 1884  1885     1
 1885  1886     1
 1885  1887     1
 1885  1888     1
 1888  1889     1
 1888  1890     1
 1888  1891     1
 1891  1892     1
 1892  1893     1
 1892  1894     1
 1892  1895     1
 1895  1896     1
 1895  1897     1
 1895  1898     1
 1898  1899     1
 1899  1900     1
 1899  1901     1
 1899  1902     1
 1902  1903     1
 1902  1904     1
 1902  1905     1
 1905  1906     1
 1906  1907     1
 1906  1908     1
 1906  1909     1
 1909  1910     1
 1909  1911     1
 1909  1912     1
 1912  1913     1
 1913  1914     1
 1913  1915     1
 1913  1916     1
 1916  1917     1
 1916  1918     1
 1916  1919     1
 1919  1920     1
 1920  1921     1
 1920  1922     1
 1920  1923     1
 1923  1924     1
 1923  1925     1
 1923  1926     1
 1926  1927     1
 1927  1928     1
 1927  1929     1
 1927  1930     1
 1930  1931     1
 1930  1932     1
 1930  1933     1
 1933  1934     1
 1934  1935     1
 1934  1936     1
 1934  1937     1
 1937  1938     1
 1937  1939     1
 1937  1940     1
 1940  1941     1
 1941  1942     1
 1941  1943     1
 1941  1944     1
 1944  1945     1
 1944  1946     1
 1944  1947     1
 1947  1948     1
 1948  1949     1
 1948  1950     1
 1948  1951     1
 1951  1952     1
 1951  1953     1
 1951  1954     1
 1954  1955     1
 1955  1956     1
 1955  1957     1
 1955  1958     1
 1958  1959     1
 1958  1960     1
 1958  1961     1
 1961  1962     1
 1962  1963     1
 1962  1964     1
 1962  1965     1
 1965  1966     1
 1965  1967     1
 1965  1968     1
 1968  1969     1
 1969  1970     1
 1969  1971     1
 1969  1972     1
 1972  1973     1
 1972  1974     1
 1972  1975     1
 1975  1976     1
 1976  1977     1
 1976  1978     1
 1976  1979     1
 1979  1980     1
 1979  1981     1
 1979  1982     1
 1982  1983     1
 1983  1984     1
 1983  1985     1
 1983  1986     1
 1986  1987     1
 1986  1988     1
 1986  1989     1
 1989  1990     1
 1990  1991     1
 1990  1992     1
 1990  1993     1
 1993  1994     1
 1993  1995     1
 1993  1996     1
 1996  1997     1
 1997  1998     1
 1997  1999     1
 1997  2000     1
 2000  2001     1
 2000  2002     1
 2000  2003     1
 2003  2004     1
 2004  2005     1
 2004  2006     1
 2004  2007     1
 2007  2008     1
 2007  2009     1
 2007  2010     1
 2010  2011     1
 2011  2012     1
 2011  2013     1
 2011  2014     1
 2014  2015     1
 2014  2016     1
 2014  2017     1
 2017  2018     1
 2018  2019     1
 2018  2020     1
 2018  2021     1
 2021  2022     1
 2021  2023     1
 2021  2024     1
 2024  2025     1
 2025  2026     1
 2025  2027     1
 2025  2028     1
 2028  2029     1
 2028  2030     1
 2028  2031     1
 2031  2032     1
 2032  2033     1
 2032  2034     1
 2032  2035     1
 2035  2036     1
 2035  2037     1
 2035  2038     1
 2038  2039     1
 2039  2040     1
 2039  2041     1
 2039  2042     1
 2042  2043     1
 2042  2044     1
 2042  2045     1
 2045  2046     1
 2046  2047     1
 2046  2048     1
 2046  2049     1
 2049  2050     1
 2049  2051     1
 2049  2052     1
 2053  2052     1

[ pairs ]
; ai	aj	funct	c6	c12 or
; ai	aj	funct	fudgeQQ	q1	q2	c6	c12
    1     7     1
    1     8     1
    1     9     1
    2     4     1
    2     5     1
    2     6     1
    3    10     1
    4     7     1
    4     8     1
    4     9     1
    5     7     1
    5     8     1
    5     9     1
    6    11     1
    6    12     1
    6    13     1
    7    10     1
    8    10     1
    9    14     1
    9    15     1
    9    16     1
   10    17     1
   11    14     1
   11    15     1
   11    16     1
   12    14     1
   12    15     1
   12    16     1
   13    18     1
   13    19     1
   13    20     1
   14    17     1
   15    17     1
   16    21     1
   16    22     1
   16    23     1
   17    24     1
   18    21     1
   18    22     1
   18    23     1
   19    21     1
   19    22     1
   19    23     1
   20    25     1
   20    26     1
   20    27     1
   21    24     1
   22    24     1
   23    28     1
   23    29     1
   23    30     1
   24    31     1
   25    28     1
   25    29     1
   25    30     1
   26    28     1
   26    29     1
   26    30     1
   27    32     1
   27    33     1
   27    34     1
   28    31     1
   29    31     1
   30    35     1
   30    36     1
   30    37     1
   31    38     1
   32    35     1
   32    36     1
   32    37     1
   33    35     1
   33    36     1
   33    37     1
   34    39     1
   34    40     1
   34    41     1
   35    38     1
   36    38     1
   37    42     1
   37    43     1
   37    44     1
   38    45     1
   39    42     1
   39    43     1
   39    44     1
   40    42     1
   40    43     1
   40    44     1
   41    46     1
   41    47     1
   41    48     1
   42    45     1
   43    45     1
   44    49     1
   44    50     1
   44    51     1
   45    52     1
   46    49     1
   46    50     1
   46    51     1
   47    49     1
   47    50     1
   47    51     1
   48    53     1
   48    54     1
   48    55     1
   49    52     1
   50    52     1
   51    56     1
   51    57     1
   51    58     1
   52    59     1
   53    56     1
   53    57     1
   53    58     1
   54    56     1
   54    57     1
   54    58     1
   55    60     1
   55    61     1
   55    62     1
   56    59     1
   57    59     1
   58    63     1
   58    64     1
   58    65     1
   59    66     1
   60    63     1
   60    64     1
   60    65     1
   61    63     1
   61    64     1
   61    65     1
   62    67     1
   62    68     1
   62    69     1
   63    66     1
   64    66     1
   65    70     1
   65    71     1
   65    72     1
   66    73     1
   67    70     1
   67    71     1
   67    72     1
   68    70     1
   68    71     1
   68    72     1
   69    74     1
   69    75     1
   69    76     1
   70    73     1
   71    73     1
   72    77     1
   72    78     1
   72    79     1
   73    80     1
   74    77     1
   74    78     1
   74    79     1
   75    77     1
   75    78     1
   75    79     1
   76    81     1
   76    82     1
   76    83     1
   77    80     1
   78    80     1
   79    84     1
   79    85     1
   79    86     1
   80    87     1
   81    84     1
   81    85     1
   81    86     1
   82    84     1
   82    85     1
   82    86     1
   83    88     1
   83    89     1
   83    90     1
   84    87     1
   85    87     1
   86    91     1
   86    92     1
   86    93     1
   87    94     1
   88    91     1
   88    92     1
   88    93     1
   89    91     1
   89    92     1
   89    93     1
   90    95     1
   90    96     1
   90    97     1
   91    94     1
   92    94     1
   93    98     1
   93    99     1
   93   100     1
   94   101     1
   95    98     1
   95    99     1
   95   100     1
   96    98     1
   96    99     1
   96   100     1
   97   102     1
   97   103     1
   97   104     1
   98   101     1
   99   101     1
  100   105     1
  100   106     1
  100   107     1
  101   108     1
  102   105     1
  102   106     1
  102   107     1
  103   105     1
  103   106     1
  103   107     1
  104   109     1
  104   110     1
  104   111     1
  105   108     1
  106   108     1
  107   112     1
  107   113     1
  107   114     1
  108   115     1
  109   112     1
  109   113     1
  109   114     1
  110   112     1
  110   113     1
  110   114     1
  111   116     1
  111   117     1
  111   118     1
  112   115     1
  113   115     1
  114   119     1
  114   120     1
  114   121     1
  115   122     1
  116   119     1
  116   120     1
  116   121     1
  117   119     1
  117   120     1
  117   121     1
  118   123     1
  118   124     1
  118   125     1
  119   122     1
  120   122     1
  121   126     1
  121   127     1
  121   128     1
  122   129     1
  123   126     1
  123   127     1
  123   128     1
  124   126     1
  124   127     1
  124   128     1
  125   130     1
  125   131     1
  125   132     1
  126   129     1
  127   129     1
  128   133     1
  128   134     1
  128   135     1
  129   136     1
  130   133     1
  130   134     1
  130   135     1
  131   133     1
  131   134     1
  131   135     1
  132   137     1
  132   138     1
  132   139     1
  133   136     1
  134   136     1
  135   140     1
  135   141     1
  135   142     1
  136   143     1
  137   140     1
  137   141     1
  137   142     1
  138   140     1
  138   141     1
  138   142     1
  139   144     1
  139   145     1
  139   146     1
  140   143     1
  141   143     1
  142   147     1
  142   148     1
  142   149     1
  143   150     1
  144   147     1
  144   148     1
  144   149     1
  145   147     1
  145   148     1
  145   149     1
  146   151     1
  146   152     1
  146   153     1
  147   150     1
  148   150     1
  149   154     1
  149   155     1
  149   156     1
  150   157     1
  151   154     1
  151   155     1
  151   156     1
  152   154     1
  152   155     1
  152   156     1
  153   158     1
  153   159     1
  153   160     1
  154   157     1
  155   157     1
  156   161     1
  156   162     1
  156   163     1
  157   164     1
  158   161     1
  158   162     1
  158   163     1
  159   161     1
  159   162     1
  159   163     1
  160   165     1
  160   166     1
  160   167     1
  161   164     1
  162   164     1
  163   168     1
  163   169     1
  163   170     1
  164   171     1
  165   168     1
  165   169     1
  165   170     1
  166   168     1
  166   169     1
  166   170     1
  167   172     1
  167   173     1
  167   174     1
  168   171     1
  169   171     1
  170   175     1
  170   176     1
  170   177     1
  171   178     1
  172   175     1
  172   176     1
  172   177     1
  173   175     1
  173   176     1
  173   177     1
  174   179     1
  174   180     1
  174   181     1
  175   178     1
  176   178     1
  177   182     1
  177   183     1
  177   184     1
  178   185     1
  179   182     1
  179   183     1
  179   184     1
  180   182     1
  180   183     1
  180   184     1
  181   186     1
  181   187     1
  181   188     1
  182   185     1
  183   185     1
  184   189     1
  184   190     1
  184   191     1
  185   192     1
  186   189     1
  186   190     1
  186   191     1
  187   189     1
  187   190     1
  187   191     1
  188   193     1
  188   194     1
  188   195     1
  189   192     1
  190   192     1
  191   196     1
  191   197     1
  191   198     1
  192   199     1
  193   196     1
  193   197     1
  193   198     1
  194   196     1
  194   197     1
  194   198     1
  195   200     1
  195   201     1
  195   202     1
  196   199     1
  197   199     1
  198   203     1
  198   204     1
  198   205     1
  199   206     1
  200   203     1
  200   204     1
  200   205     1
  201   203     1
  201   204     1
  201   205     1
  202   207     1
  202   208     1
  202   209     1
  203   206     1
  204   206     1
  205   210     1
  205   211     1
  205   212     1
  206   213     1
  207   210     1
  207   211     1
  207   212     1
  208   210     1
  208   211     1
  208   212     1
  209   214     1
  209   215     1
  209   216     1
  210   213     1
  211   213     1
  212   217     1
  212   218     1
  212   219     1
  213   220     1
  214   217     1
  214   218     1
  214   219     1
  215   217     1
  215   218     1
  215   219     1
  216   221     1
  216   222     1
  216   223     1
  217   220     1
  218   220     1
  219   224     1
  219   225     1
  219   226     1
  220   227     1
  221   224     1
  221   225     1
  221   226     1
  222   224     1
  222   225     1
  222   226     1
  223   228     1
  223   229     1
  223   230     1
  224   227     1
  225   227     1
  226   231     1
  226   232     1
  226   233     1
  227   234     1
  228   231     1
  228   232     1
  228   233     1
  229   231     1
  229   232     1
  229   233     1
  230   235     1
  230   236     1
  230   237     1
  231   234     1
  232   234     1
  233   238     1
  233   239     1
  233   240     1
  234   241     1
  235   238     1
  235   239     1
  235   240     1
  236   238     1
  236   239     1
  236   240     1
  237   242     1
  237   243     1
  237   244     1
  238   241     1
  239   241     1
  240   245     1
  240   246     1
  240   247     1
  241   248     1
  242   245     1
  242   246     1
  242   247     1
  243   245     1
  243   246     1
  243   247     1
  244   249     1
  244   250     1
  244   251     1
  245   248     1
  246   248     1
  247   252     1
  247   253     1
  247   254     1
  248   255     1
  249   252     1
  249   253     1
  249   254     1
  250   252     1
  250   253     1
  250   254     1
  251   256     1
  251   257     1
  251   258     1
  252   255     1
  253   255     1
  254   259     1
  254   260     1
  254   261     1
  255   262     1
  256   259     1
  256   260     1
  256   261     1
  257   259     1
  257   260     1
  257   261     1
  258   263     1
  258   264     1
  258   265     1
  259   262     1
  260   262     1
  261   266     1
  261   267     1
  261   268     1
  262   269     1
  263   266     1
  263   267     1
  263   268     1
  264   266     1
  264   267     1
  264   268     1
  265   270     1
  265   271     1
  265   272     1
  266   269     1
  267   269     1
  268   273     1
  268   274     1
  268   275     1
  269   276     1
  270   273     1
  270   274     1
  270   275     1
  271   273     1
  271   274     1
  271   275     1
  272   277     1
  272   278     1
  272   279     1
  273   276     1
  274   276     1
  275   280     1
  275   281     1
  275   282     1
  276   283     1
  277   280     1
  277   281     1
  277   282     1
  278   280     1
  278   281     1
  278   282     1
  279   284     1
  279   285     1
  279   286     1
  280   283     1
  281   283     1
  282   287     1
  282   288     1
  282   289     1
  283   290     1
  284   287     1
  284   288     1
  284   289     1
  285   287     1
  285   288     1
  285   289     1
  286   291     1
  286   292     1
  286   293     1
  287   290     1
  288   290     1
  289   294     1
  289   295     1
  289   296     1
  290   297     1
  291   294     1
  291   295     1
  291   296     1
  292   294     1
  292   295     1
  292   296     1
  293   298     1
  293   299     1
  293   300     1
  294   297     1
  295   297     1
  296   301     1
  296   302     1
  296   303     1
  297   304     1
  298   301     1
  298   302     1
  298   303     1
  299   301     1
  299   302     1
  299   303     1
  300   305     1
  300   306     1
  300   307     1
  301   304     1
  302   304     1
  303   308     1
  303   309     1
  303   310     1
  304   311     1
  305   308     1
  305   309     1
  305   310     1
  306   308     1
  306   309     1
  306   310     1
  307   312     1
  307   313     1
  307   314     1
  308   311     1
  309   311     1
  310   315     1
  310   316     1
  310   317     1
  311   318     1
  312   315     1
  312   316     1
  312   317     1
  313   315     1
  313   316     1
  313   317     1
  314   319     1
  314   320     1
  314   321     1
  315   318     1
  316   318     1
  317   322     1
  317   323     1
  317   324     1
  318   325     1
  319   322     1
  319   323     1
  319   324     1
  320   322     1
  320   323     1
  320   324     1
  321   326     1
  321   327     1
  321   328     1
  322   325     1
  323   325     1
  324   329     1
  324   330     1
  324   331     1
  325   332     1
  326   329     1
  326   330     1
  326   331     1
  327   329     1
  327   330     1
  327   331     1
  328   333     1
  328   334     1
  328   335     1
  329   332     1
  330   332     1
  331   336     1
  331   337     1
  331   338     1
  332   339     1
  333   336     1
  333   337     1
  333   338     1
  334   336     1
  334   337     1
  334   338     1
  335   340     1
  335   341     1
  335   342     1
  336   339     1
  337   339     1
  338   343     1
  338   344     1
  338   345     1
  339   346     1
  340   343     1
  340   344     1
  340   345     1
  341   343     1
  341   344     1
  341   345     1
  342   347     1
  342   348     1
  342   349     1
  343   346     1
  344   346     1
  345   350     1
  345   351     1
  345   352     1
  346   353     1
  347   350     1
  347   351     1
  347   352     1
  348   350     1
  348   351     1
  348   352     1
  349   354     1
  349   355     1
  349   356     1
  350   353     1
  351   353     1
  352   357     1
  352   358     1
  352   359     1
  353   360     1
  354   357     1
  354   358     1
  354   359     1
  355   357     1
  355   358     1
  355   359     1
  356   361     1
  356   362     1
  356   363     1
  357   360     1
  358   360     1
  359   364     1
  359   365     1
  359   366     1
  360   367     1
  361   364     1
  361   365     1
  361   366     1
  362   364     1
  362   365     1
  362   366     1
  363   368     1
  363   369     1
  363   370     1
  364   367     1
  365   367     1
  366   371     1
  366   372     1
  366   373     1
  367   374     1
  368   371     1
  368   372     1
  368   373     1
  369   371     1
  369   372     1
  369   373     1
  370   375     1
  370   376     1
  370   377     1
  371   374     1
  372   374     1
  373   378     1
  373   379     1
  373   380     1
  374   381     1
  375   378     1
  375   379     1
  375   380     1
  376   378     1
  376   379     1
  376   380     1
  377   382     1
  377   383     1
  377   384     1
  378   381     1
  379   381     1
  380   385     1
  380   386     1
  380   387     1
  381   388     1
  382   385     1
  382   386     1
  382   387     1
  383   385     1
  383   386     1
  383   387     1
  384   389     1
  384   390     1
  384   391     1
  385   388     1
  386   388     1
  387   392     1
  387   393     1
  387   394     1
  388   395     1
  389   392     1
  389   393     1
  389   394     1
  390   392     1
  390   393     1
  390   394     1
  391   396     1
  391   397     1
  391   398     1
  392   395     1
  393   395     1
  394   399     1
  394   400     1
  394   401     1
  395   402     1
  396   399     1
  396   400     1
  396   401     1
  397   399     1
  397   400     1
  397   401     1
  398   403     1
  398   404     1
  398   405     1
  399   402     1
  400   402     1
  401   406     1
  401   407     1
  401   408     1
  402   409     1
  403   406     1
  403   407     1
  403   408     1
  404   406     1
  404   407     1
  404   408     1
  405   410     1
  405   411     1
  405   412     1
  406   409     1
  407   409     1
  408   413     1
  408   414     1
  408   415     1
  409   416     1
  410   413     1
  410   414     1
  410   415     1
  411   413     1
  411   414     1
  411   415     1
  412   417     1
  412   418     1
  412   419     1
  413   416     1
  414   416     1
  415   420     1
  415   421     1
  415   422     1
  416   423     1
  417   420     1
  417   421     1
  417   422     1
  418   420     1
  418   421     1
  418   422     1
  419   424     1
  419   425     1
  419   426     1
  420   423     1
  421   423     1
  422   427     1
  422   428     1
  422   429     1
  423   430     1
  424   427     1
  424   428     1
  424   429     1
  425   427     1
  425   428     1
  425   429     1
  426   431     1
  426   432     1
  426   433     1
  427   430     1
  428   430     1
  429   434     1
  429   435     1
  429   436     1
  430   437     1
  431   434     1
  431   435     1
  431   436     1
  432   434     1
  432   435     1
  432   436     1
  433   438     1
  433   439     1
  433   440     1
  434   437     1
  435   437     1
  436   441     1
  436   442     1
  436   443     1
  437   444     1
  438   441     1
  438   442     1
  438   443     1
  439   441     1
  439   442     1
  439   443     1
  440   445     1
  440   446     1
  440   447     1
  441   444     1
  442   444     1
  443   448     1
  443   449     1
  443   450     1
  444   451     1
  445   448     1
  445   449     1
  445   450     1
  446   448     1
  446   449     1
  446   450     1
  447   452     1
  447   453     1
  447   454     1
  448   451     1
  449   451     1
  450   455     1
  450   456     1
  450   457     1
  451   458     1
  452   455     1
  452   456     1
  452   457     1
  453   455     1
  453   456     1
  453   457     1
  454   459     1
  454   460     1
  454   461     1
  455   458     1
  456   458     1
  457   462     1
  457   463     1
  457   464     1
  458   465     1
  459   462     1
  459   463     1
  459   464     1
  460   462     1
  460   463     1
  460   464     1
  461   466     1
  461   467     1
  461   468     1
  462   465     1
  463   465     1
  464   469     1
  464   470     1
  464   471     1
  465   472     1
  466   469     1
  466   470     1
  466   471     1
  467   469     1
  467   470     1
  467   471     1
  468   473     1
  468   474     1
  468   475     1
  469   472     1
  470   472     1
  471   476     1
  471   477     1
  471   478     1
  472   479     1
  473   476     1
  473   477     1
  473   478     1
  474   476     1
  474   477     1
  474   478     1
  475   480     1
  475   481     1
  475   482     1
  476   479     1
  477   479     1
  478   483     1
  478   484     1
  478   485     1
  479   486     1
  480   483     1
  480   484     1
  480   485     1
  481   483     1
  481   484     1
  481   485     1
  482   487     1
  482   488     1
  482   489     1
  483   486     1
  484   486     1
  485   490     1
  485   491     1
  485   492     1
  486   493     1
  487   490     1
  487   491     1
  487   492     1
  488   490     1
  488   491     1
  488   492     1
  489   494     1
  489   495     1
  489   496     1
  490   493     1
  491   493     1
  492   497     1
  492   498     1
  492   499     1
  493   500     1
  494   497     1
  494   498     1
  494   499     1
  495   497     1
  495   498     1
  495   499     1
  496   501     1
  496   502     1
  496   503     1
  497   500     1
  498   500     1
  499   504     1
  499   505     1
  499   506     1
  500   507     1
  501   504     1
  501   505     1
  501   506     1
  502   504     1
  502   505     1
  502   506     1
  503   508     1
  503   509     1
  503   510     1
  504   507     1
  505   507     1
  506   511     1
  506   512     1
  506   513     1
  507   514     1
  508   511     1
  508   512     1
  508   513     1
  509   511     1
  509   512     1
  509   513     1
  510   515     1
  510   516     1
  510   517     1
  511   514     1
  512   514     1
  513   518     1
  513   519     1
  513   520     1
  514   521     1
  515   518     1
  515   519     1
  515   520     1
  516   518     1
  516   519     1
  516   520     1
  517   522     1
  517   523     1
  517   524     1
  518   521     1
  519   521     1
  520   525     1
  520   526     1
  520   527     1
  521   528     1
  522   525     1
  522   526     1
  522   527     1
  523   525     1
  523   526     1
  523   527     1
  524   529     1
  524   530     1
  524   531     1
  525   528     1
  526   528     1
  527   532     1
  527   533     1
  527   534     1
  528   535     1
  529   532     1
  529   533     1
  529   534     1
  530   532     1
  530   533     1
  530   534     1
  531   536     1
  531   537     1
  531   538     1
  532   535     1
  533   535     1
  534   539     1
  534   540     1
  534   541     1
  535   542     1
  536   539     1
  536   540     1
  536   541     1
  537   539     1
  537   540     1
  537   541     1
  538   543     1
  538   544     1
  538   545     1
  539   542     1
  540   542     1
  541   546     1
  541   547     1
  541   548     1
  542   549     1
  543   546     1
  543   547     1
  543   548     1
  544   546     1
  544   547     1
  544   548     1
  545   550     1
  545   551     1
  545   552     1
  546   549     1
  547   549     1
  548   553     1
  548   554     1
  548   555     1
  549   556     1
  550   553     1
  550   554     1
  550   555     1
  551   553     1
  551   554     1
  551   555     1
  552   557     1
  552   558     1
  552   559     1
  553   556     1
  554   556     1
  555   560     1
  555   561     1
  555   562     1
  556   563     1
  557   560     1
  557   561     1
  557   562     1
  558   560     1
  558   561     1
  558   562     1
  559   564     1
  559   565     1
  559   566     1
  560   563     1
  561   563     1
  562   567     1
  562   568     1
  562   569     1
  563   570     1
  564   567     1
  564   568     1
  564   569     1
  565   567     1
  565   568     1
  565   569     1
  566   571     1
  566   572     1
  566   573     1
  567   570     1
  568   570     1
  569   574     1
  569   575     1
  569   576     1
  570   577     1
  571   574     1
  571   575     1
  571   576     1
  572   574     1
  572   575     1
  572   576     1
  573   578     1
  573   579     1
  573   580     1
  574   577     1
  575   577     1
  576   581     1
  576   582     1
  576   583     1
  577   584     1
  578   581     1
  578   582     1
  578   583     1
  579   581     1
  579   582     1
  579   583     1
  580   585     1
  580   586     1
  580   587     1
  581   584     1
  582   584     1
  583   588     1
  583   589     1
  583   590     1
  584   591     1
  585   588     1
  585   589     1
  585   590     1
  586   588     1
  586   589     1
  586   590     1
  587   592     1
  587   593     1
  587   594     1
  588   591     1
  589   591     1
  590   595     1
  590   596     1
  590   597     1
  591   598     1
  592   595     1
  592   596     1
  592   597     1
  593   595     1
  593   596     1
  593   597     1
  594   599     1
  594   600     1
  594   601     1
  595   598     1
  596   598     1
  597   602     1
  597   603     1
  597   604     1
  598   605     1
  599   602     1
  599   603     1
  599   604     1
  600   602     1
  600   603     1
  600   604     1
  601   606     1
  601   607     1
  601   608     1
  602   605     1
  603   605     1
  604   609     1
  604   610     1
  604   611     1
  605   612     1
  606   609     1
  606   610     1
  606   611     1
  607   609     1
  607   610     1
  607   611     1
  608   613     1
  608   614     1
  608   615     1
  609   612     1
  610   612     1
  611   616     1
  611   617     1
  611   618     1
  612   619     1
  613   616     1
  613   617     1
  613   618     1
  614   616     1
  614   617     1
  614   618     1
  615   620     1
  615   621     1
  615   622     1
  616   619     1
  617   619     1
  618   623     1
  618   624     1
  618   625     1
  619   626     1
  620   623     1
  620   624     1
  620   625     1
  621   623     1
  621   624     1
  621   625     1
  622   627     1
  622   628     1
  622   629     1
  623   626     1
  624   626     1
  625   630     1
  625   631     1
  625   632     1
  626   633     1
  627   630     1
  627   631     1
  627   632     1
  628   630     1
  628   631     1
  628   632     1
  629   634     1
  629   635     1
  629   636     1
  630   633     1
  631   633     1
  632   637     1
  632   638     1
  632   639     1
  633   640     1
  634   637     1
  634   638     1
  634   639     1
  635   637     1
  635   638     1
  635   639     1
  636   641     1
  636   642     1
  636   643     1
  637   640     1
  638   640     1
  639   644     1
  639   645     1
  639   646     1
  640   647     1
  641   644     1
  641   645     1
  641   646     1
  642   644     1
  642   645     1
  642   646     1
  643   648     1
  643   649     1
  643   650     1
  644   647     1
  645   647     1
  646   651     1
  646   652     1
  646   653     1
  647   654     1
  648   651     1
  648   652     1
  648   653     1
  649   651     1
  649   652     1
  649   653     1
  650   655     1
  650   656     1
  650   657     1
  651   654     1
  652   654     1
  653   658     1
  653   659     1
  653   660     1
  654   661     1
  655   658     1
  655   659     1
  655   660     1
  656   658     1
  656   659     1
  656   660     1
  657   662     1
  657   663     1
  657   664     1
  658   661     1
  659   661     1
  660   665     1
  660   666     1
  660   667     1
  661   668     1
  662   665     1
  662   666     1
  662   667     1
  663   665     1
  663   666     1
  663   667     1
  664   669     1
  664   670     1
  664   671     1
  665   668     1
  666   668     1
  667   672     1
  667   673     1
  667   674     1
  668   675     1
  669   672     1
  669   673     1
  669   674     1
  670   672     1
  670   673     1
  670   674     1
  671   676     1
  671   677     1
  671   678     1
  672   675     1
  673   675     1
  674   679     1
  674   680     1
  674   681     1
  675   682     1
  676   679     1
  676   680     1
  676   681     1
  677   679     1
  677   680     1
  677   681     1
  678   683     1
  678   684     1
  678   685     1
  679   682     1
  680   682     1
  681   686     1
  681   687     1
  681   688     1
  682   689     1
  683   686     1
  683   687     1
  683   688     1
  684   686     1
  684   687     1
  684   688     1
  685   690     1
  685   691     1
  685   692     1
  686   689     1
  687   689     1
  688   693     1
  688   694     1
  688   695     1
  689   696     1
  690   693     1
  690   694     1
  690   695     1
  691   693     1
  691   694     1
  691   695     1
  692   697     1
  692   698     1
  692   699     1
  693   696     1
  694   696     1
  695   700     1
  695   701     1
  695   702     1
  696   703     1
  697   700     1
  697   701     1
  697   702     1
  698   700     1
  698   701     1
  698   702     1
  699   704     1
  699   705     1
  699   706     1
  700   703     1
  701   703     1
  702   707     1
  702   708     1
  702   712     1
  703   709     1
  703   710     1
  703   711     1
  703   713     1
  704   707     1
  704   708     1
  704   712     1
  705   707     1
  705   708     1
  705   712     1
  706   714     1
  706   715     1
  706   716     1
  707   709     1
  707   710     1
  707   711     1
  707   713     1
  708   713     1
  709   712     1
  710   712     1
  711   712     1
  712   717     1
  712   718     1
  712   722     1
  713   719     1
  713   720     1
  713   721     1
  713   723     1
  714   717     1
  714   718     1
  714   722     1
  715   717     1
  715   718     1
  715   722     1
  716   724     1
  716   725     1
  716   726     1
  717   719     1
  717   720     1
  717   721     1
  717   723     1
  718   723     1
  719   722     1
  720   722     1
  721   722     1
  722   727     1
  722   728     1
  722   732     1
  723   729     1
  723   730     1
  723   731     1
  723   733     1
  724   727     1
  724   728     1
  724   732     1
  725   727     1
  725   728     1
  725   732     1
  726   734     1
  726   735     1
  726   736     1
  727   729     1
  727   730     1
  727   731     1
  727   733     1
  728   733     1
  729   732     1
  730   732     1
  731   732     1
  732   737     1
  732   738     1
  732   742     1
  733   739     1
  733   740     1
  733   741     1
  733   743     1
  734   737     1
  734   738     1
  734   742     1
  735   737     1
  735   738     1
  735   742     1
  736   744     1
  736   745     1
  736   746     1
  737   739     1
  737   740     1
  737   741     1
  737   743     1
  738   743     1
  739   742     1
  740   742     1
  741   742     1
  742   747     1
  742   748     1
  742   752     1
  743   749     1
  743   750     1
  743   751     1
  743   753     1
  744   747     1
  744   748     1
  744   752     1
  745   747     1
  745   748     1
  745   752     1
  746   754     1
  746   755     1
  746   756     1
  747   749     1
  747   750     1
  747   751     1
  747   753     1
  748   753     1
  749   752     1
  750   752     1
  751   752     1
  752   757     1
  752   758     1
  752   762     1
  753   759     1
  753   760     1
  753   761     1
  753   763     1
  754   757     1
  754   758     1
  754   762     1
  755   757     1
  755   758     1
  755   762     1
  756   764     1
  756   765     1
  756   766     1
  757   759     1
  757   760     1
  757   761     1
  757   763     1
  758   763     1
  759   762     1
  760   762     1
  761   762     1
  762   767     1
  762   768     1
  762   772     1
  763   769     1
  763   770     1
  763   771     1
  763   773     1
  764   767     1
  764   768     1
  764   772     1
  765   767     1
  765   768     1
  765   772     1
  766   774     1
  766   775     1
  766   776     1
  767   769     1
  767   770     1
  767   771     1
  767   773     1
  768   773     1
  769   772     1
  770   772     1
  771   772     1
  772   777     1
  772   778     1
  772   782     1
  773   779     1
  773   780     1
  773   781     1
  773   783     1
  774   777     1
  774   778     1
  774   782     1
  775   777     1
  775   778     1
  775   782     1
  776   784     1
  776   785     1
  776   786     1
  777   779     1
  777   780     1
  777   781     1
  777   783     1
  778   783     1
  779   782     1
  780   782     1
  781   782     1
  782   787     1
  782   788     1
  782   792     1
  783   789     1
  783   790     1
  783   791     1
  783   793     1
  784   787     1
  784   788     1
  784   792     1
  785   787     1
  785   788     1
  785   792     1
  786   794     1
  786   795     1
  786   796     1
  787   789     1
  787   790     1
  787   791     1
  787   793     1
  788   793     1
  789   792     1
  790   792     1
  791   792     1
  792   797     1
  792   798     1
  792   802     1
  793   799     1
  793   800     1
  793   801     1
  793   803     1
  794   797     1
  794   798     1
  794   802     1
  795   797     1
  795   798     1
  795   802     1
  796   804     1
  796   805     1
  796   806     1
  797   799     1
  797   800     1
  797   801     1
  797   803     1
  798   803     1
  799   802     1
  800   802     1
  801   802     1
  802   807     1
  802   808     1
  802   812     1
  803   809     1
  803   810     1
  803   811     1
  803   813     1
  804   807     1
  804   808     1
  804   812     1
  805   807     1
  805   808     1
  805   812     1
  806   814     1
  806   815     1
  806   816     1
  807   809     1
  807   810     1
  807   811     1
  807   813     1
  808   813     1
  809   812     1
  810   812     1
  811   812     1
  812   817     1
  812   818     1
  812   822     1
  813   819     1
  813   820     1
  813   821     1
  813   823     1
  814   817     1
  814   818     1
  814   822     1
  815   817     1
  815   818     1
  815   822     1
  816   824     1
  816   825     1
  816   826     1
  817   819     1
  817   820     1
  817   821     1
  817   823     1
  818   823     1
  819   822     1
  820   822     1
  821   822     1
  822   827     1
  822   828     1
  822   832     1
  823   829     1
  823   830     1
  823   831     1
  823   833     1
  824   827     1
  824   828     1
  824   832     1
  825   827     1
  825   828     1
  825   832     1
  826   834     1
  826   835     1
  826   836     1
  827   829     1
  827   830     1
  827   831     1
  827   833     1
  828   833     1
  829   832     1
  830   832     1
  831   832     1
  832   837     1
  832   838     1
  832   842     1
  833   839     1
  833   840     1
  833   841     1
  833   843     1
  834   837     1
  834   838     1
  834   842     1
  835   837     1
  835   838     1
  835   842     1
  836   844     1
  836   845     1
  836   846     1
  837   839     1
  837   840     1
  837   841     1
  837   843     1
  838   843     1
  839   842     1
  840   842     1
  841   842     1
  842   847     1
  842   848     1
  842   852     1
  843   849     1
  843   850     1
  843   851     1
  843   853     1
  844   847     1
  844   848     1
  844   852     1
  845   847     1
  845   848     1
  845   852     1
  846   854     1
  846   855     1
  846   856     1
  847   849     1
  847   850     1
  847   851     1
  847   853     1
  848   853     1
  849   852     1
  850   852     1
  851   852     1
  852   857     1
  852   858     1
  852   862     1
  853   859     1
  853   860     1
  853   861     1
  853   863     1
  854   857     1
  854   858     1
  854   862     1
  855   857     1
  855   858     1
  855   862     1
  856   864     1
  856   865     1
  856   866     1
  857   859     1
  857   860     1
  857   861     1
  857   863     1
  858   863     1
  859   862     1
  860   862     1
  861   862     1
  862   867     1
  862   868     1
  862   872     1
  863   869     1
  863   870     1
  863   871     1
  863   873     1
  864   867     1
  864   868     1
  864   872     1
  865   867     1
  865   868     1
  865   872     1
  866   874     1
  866   875     1
  866   876     1
  867   869     1
  867   870     1
  867   871     1
  867   873     1
  868   873     1
  869   872     1
  870   872     1
  871   872     1
  872   877     1
  872   878     1
  872   882     1
  873   879     1
  873   880     1
  873   881     1
  873   883     1
  874   877     1
  874   878     1
  874   882     1
  875   877     1
  875   878     1
  875   882     1
  876   884     1
  876   885     1
  876   886     1
  877   879     1
  877   880     1
  877   881     1
  877   883     1
  878   883     1
  879   882     1
  880   882     1
  881   882     1
  882   887     1
  882   888     1
  882   892     1
  883   889     1
  883   890     1
  883   891     1
  883   893     1
  884   887     1
  884   888     1
  884   892     1
  885   887     1
  885   888     1
  885   892     1
  886   894     1
  886   895     1
  886   896     1
  887   889     1
  887   890     1
  887   891     1
  887   893     1
  888   893     1
  889   892     1
  890   892     1
  891   892     1
  892   897     1
  892   898     1
  892   902     1
  893   899     1
  893   900     1
  893   901     1
  893   903     1
  894   897     1
  894   898     1
  894   902     1
  895   897     1
  895   898     1
  895   902     1
  896   904     1
  896   905     1
  896   906     1
  897   899     1
  897   900     1
  897   901     1
  897   903     1
  898   903     1
  899   902     1
  900   902     1
  901   902     1
  902   907     1
  902   908     1
  902   912     1
  903   909     1
  903   910     1
  903   911     1
  903   913     1
  904   907     1
  904   908     1
  904   912     1
  905   907     1
  905   908     1
  905   912     1
  906   914     1
  906   915     1
  906   916     1
  907   909     1
  907   910     1
  907   911     1
  907   913     1
  908   913     1
  909   912     1
  910   912     1
  911   912     1
  912   917     1
  912   918     1
  912   922     1
  913   919     1
  913   920     1
  913   921     1
  913   923     1
  914   917     1
  914   918     1
  914   922     1
  915   917     1
  915   918     1
  915   922     1
  916   924     1
  916   925     1
  916   926     1
  917   919     1
  917   920     1
  917   921     1
  917   923     1
  918   923     1
  919   922     1
  920   922     1
  921   922     1
  922   927     1
  922   928     1
  922   932     1
  923   929     1
  923   930     1
  923   931     1
  923   933     1
  924   927     1
  924   928     1
  924   932     1
  925   927     1
  925   928     1
  925   932     1
  926   934     1
  926   935     1
  926   936     1
  927   929     1
  927   930     1
  927   931     1
  927   933     1
  928   933     1
  929   932     1
  930   932     1
  931   932     1
  932   937     1
  932   938     1
  932   942     1
  933   939     1
  933   940     1
  933   941     1
  933   943     1
  934   937     1
  934   938     1
  934   942     1
  935   937     1
  935   938     1
  935   942     1
  936   944     1
  936   945     1
  936   946     1
  937   939     1
  937   940     1
  937   941     1
  937   943     1
  938   943     1
  939   942     1
  940   942     1
  941   942     1
  942   947     1
  942   948     1
  942   952     1
  943   949     1
  943   950     1
  943   951     1
  943   953     1
  944   947     1
  944   948     1
  944   952     1
  945   947     1
  945   948     1
  945   952     1
  946   954     1
  946   955     1
  946   956     1
  947   949     1
  947   950     1
  947   951     1
  947   953     1
  948   953     1
  949   952     1
  950   952     1
  951   952     1
  952   957     1
  952   958     1
  952   962     1
  953   959     1
  953   960     1
  953   961     1
  953   963     1
  954   957     1
  954   958     1
  954   962     1
  955   957     1
  955   958     1
  955   962     1
  956   964     1
  956   965     1
  956   966     1
  957   959     1
  957   960     1
  957   961     1
  957   963     1
  958   963     1
  959   962     1
  960   962     1
  961   962     1
  962   967     1
  962   968     1
  962   972     1
  963   969     1
  963   970     1
  963   971     1
  963   973     1
  964   967     1
  964   968     1
  964   972     1
  965   967     1
  965   968     1
  965   972     1
  966   974     1
  966   975     1
  966   976     1
  967   969     1
  967   970     1
  967   971     1
  967   973     1
  968   973     1
  969   972     1
  970   972     1
  971   972     1
  972   977     1
  972   978     1
  972   982     1
  973   979     1
  973   980     1
  973   981     1
  973   983     1
  974   977     1
  974   978     1
  974   982     1
  975   977     1
  975   978     1
  975   982     1
  976   984     1
  976   985     1
  976   986     1
  977   979     1
  977   980     1
  977   981     1
  977   983     1
  978   983     1
  979   982     1
  980   982     1
  981   982     1
  982   987     1
  982   988     1
  982   992     1
  983   989     1
  983   990     1
  983   991     1
  983   993     1
  984   987     1
  984   988     1
  984   992     1
  985   987     1
  985   988     1
  985   992     1
  986   994     1
  986   995     1
  986   996     1
  987   989     1
  987   990     1
  987   991     1
  987   993     1
  988   993     1
  989   992     1
  990   992     1
  991   992     1
  992   997     1
  992   998     1
  992  1002     1
  993   999     1
  993  1000     1
  993  1001     1
  993  1003     1
  994   997     1
  994   998     1
  994  1002     1
  995   997     1
  995   998     1
  995  1002     1
  996  1004     1
  996  1005     1
  996  1006     1
  997   999     1
  997  1000     1
  997  1001     1
  997  1003     1
  998  1003     1
  999  1002     1
 1000  1002     1
 1001  1002     1
 1002  1007     1
 1002  1008     1
 1002  1012     1
 1003  1009     1
 1003  1010     1
 1003  1011     1
 1003  1013     1
 1004  1007     1
 1004  1008     1
 1004  1012     1
 1005  1007     1
 1005  1008     1
 1005  1012     1
 1006  1014     1
 1006  1015     1
 1006  1016     1
 1007  1009     1
 1007  1010     1
 1007  1011     1
 1007  1013     1
 1008  1013     1
 1009  1012     1
 1010  1012     1
 1011  1012     1
 1012  1017     1
 1012  1018     1
 1012  1022     1
 1013  1019     1
 1013  1020     1
 1013  1021     1
 1013  1023     1
 1014  1017     1
 1014  1018     1
 1014  1022     1
 1015  1017     1
 1015  1018     1
 1015  1022     1
 1016  1024     1
 1016  1025     1
 1016  1026     1
 1017  1019     1
 1017  1020     1
 1017  1021     1
 1017  1023     1
 1018  1023     1
 1019  1022     1
 1020  1022     1
 1021  1022     1
 1022  1027     1
 1022  1028     1
 1022  1032     1
 1023  1029     1
 1023  1030     1
 1023  1031     1
 1023  1033     1
 1024  1027     1
 1024  1028     1
 1024  1032     1
 1025  1027     1
 1025  1028     1
 1025  1032     1
 1026  1034     1
 1026  1035     1
 1026  1036     1
 1027  1029     1
 1027  1030     1
 1027  1031     1
 1027  1033     1
 1028  1033     1
 1029  1032     1
 1030  1032     1
 1031  1032     1
 1032  1037     1
 1032  1038     1
 1032  1042     1
 1033  1039     1
 1033  1040     1
 1033  1041     1
 1033  1043     1
 1034  1037     1
 1034  1038     1
 1034  1042     1
 1035  1037     1
 1035  1038     1
 1035  1042     1
 1036  1044     1
 1036  1045     1
 1036  1046     1
 1037  1039     1
 1037  1040     1
 1037  1041     1
 1037  1043     1
 1038  1043     1
 1039  1042     1
 1040  1042     1
 1041  1042     1
 1042  1047     1
 1042  1048     1
 1042  1052     1
 1043  1049     1
 1043  1050     1
 1043  1051     1
 1043  1053     1
 1044  1047     1
 1044  1048     1
 1044  1052     1
 1045  1047     1
 1045  1048     1
 1045  1052     1
 1046  1054     1
 1046  1055     1
 1046  1056     1
 1047  1049     1
 1047  1050     1
 1047  1051     1
 1047  1053     1
 1048  1053     1
 1049  1052     1
 1050  1052     1
 1051  1052     1
 1052  1057     1
 1052  1058     1
 1052  1062     1
 1053  1059     1
 1053  1060     1
 1053  1061     1
 1053  1063     1
 1054  1057     1
 1054  1058     1
 1054  1062     1
 1055  1057     1
 1055  1058     1
 1055  1062     1
 1056  1064     1
 1056  1065     1
 1056  1066     1
 1057  1059     1
 1057  1060     1
 1057  1061     1
 1057  1063     1
 1058  1063     1
 1059  1062     1
 1060  1062     1
 1061  1062     1
 1062  1067     1
 1062  1068     1
 1062  1072     1
 1063  1069     1
 1063  1070     1
 1063  1071     1
 1063  1073     1
 1064  1067     1
 1064  1068     1
 1064  1072     1
 1065  1067     1
 1065  1068     1
 1065  1072     1
 1066  1074     1
 1066  1075     1
 1066  1076     1
 1067  1069     1
 1067  1070     1
 1067  1071     1
 1067  1073     1
 1068  1073     1
 1069  1072     1
 1070  1072     1
 1071  1072     1
 1072  1077     1
 1072  1078     1
 1072  1082     1
 1073  1079     1
 1073  1080     1
 1073  1081     1
 1073  1083     1
 1074  1077     1
 1074  1078     1
 1074  1082     1
 1075  1077     1
 1075  1078     1
 1075  1082     1
 1076  1084     1
 1076  1085     1
 1076  1086     1
 1077  1079     1
 1077  1080     1
 1077  1081     1
 1077  1083     1
 1078  1083     1
 1079  1082     1
 1080  1082     1
 1081  1082     1
 1082  1087     1
 1082  1088     1
 1082  1092     1
 1083  1089     1
 1083  1090     1
 1083  1091     1
 1083  1093     1
 1084  1087     1
 1084  1088     1
 1084  1092     1
 1085  1087     1
 1085  1088     1
 1085  1092     1
 1086  1094     1
 1086  1095     1
 1086  1096     1
 1087  1089     1
 1087  1090     1
 1087  1091     1
 1087  1093     1
 1088  1093     1
 1089  1092     1
 1090  1092     1
 1091  1092     1
 1092  1097     1
 1092  1098     1
 1092  1102     1
 1093  1099     1
 1093  1100     1
 1093  1101     1
 1093  1103     1
 1094  1097     1
 1094  1098     1
 1094  1102     1
 1095  1097     1
 1095  1098     1
 1095  1102     1
 1096  1104     1
 1096  1105     1
 1096  1106     1
 1097  1099     1
 1097  1100     1
 1097  1101     1
 1097  1103     1
 1098  1103     1
 1099  1102     1
 1100  1102     1
 1101  1102     1
 1102  1107     1
 1102  1108     1
 1102  1112     1
 1103  1109     1
 1103  1110     1
 1103  1111     1
 1103  1113     1
 1104  1107     1
 1104  1108     1
 1104  1112     1
 1105  1107     1
 1105  1108     1
 1105  1112     1
 1106  1114     1
 1106  1115     1
 1106  1116     1
 1107  1109     1
 1107  1110     1
 1107  1111     1
 1107  1113     1
 1108  1113     1
 1109  1112     1
 1110  1112     1
 1111  1112     1
 1112  1117     1
 1112  1118     1
 1112  1122     1
 1113  1119     1
 1113  1120     1
 1113  1121     1
 1113  1123     1
 1114  1117     1
 1114  1118     1
 1114  1122     1
 1115  1117     1
 1115  1118     1
 1115  1122     1
 1116  1124     1
 1116  1125     1
 1116  1126     1
 1117  1119     1
 1117  1120     1
 1117  1121     1
 1117  1123     1
 1118  1123     1
 1119  1122     1
 1120  1122     1
 1121  1122     1
 1122  1127     1
 1122  1128     1
 1122  1132     1
 1123  1129     1
 1123  1130     1
 1123  1131     1
 1123  1133     1
 1124  1127     1
 1124  1128     1
 1124  1132     1
 1125  1127     1
 1125  1128     1
 1125  1132     1
 1126  1134     1
 1126  1135     1
 1126  1136     1
 1127  1129     1
 1127  1130     1
 1127  1131     1
 1127  1133     1
 1128  1133     1
 1129  1132     1
 1130  1132     1
 1131  1132     1
 1132  1137     1
 1132  1138     1
 1132  1142     1
 1133  1139     1
 1133  1140     1
 1133  1141     1
 1133  1143     1
 1134  1137     1
 1134  1138     1
 1134  1142     1
 1135  1137     1
 1135  1138     1
 1135  1142     1
 1136  1144     1
 1136  1145     1
 1136  1146     1
 1137  1139     1
 1137  1140     1
 1137  1141     1
 1137  1143     1
 1138  1143     1
 1139  1142     1
 1140  1142     1
 1141  1142     1
 1142  1147     1
 1142  1148     1
 1142  1152     1
 1143  1149     1
 1143  1150     1
 1143  1151     1
 1143  1153     1
 1144  1147     1
 1144  1148     1
 1144  1152     1
 1145  1147     1
 1145  1148     1
 1145  1152     1
 1146  1154     1
 1146  1155     1
 1146  1156     1
 1147  1149     1
 1147  1150     1
 1147  1151     1
 1147  1153     1
 1148  1153     1
 1149  1152     1
 1150  1152     1
 1151  1152     1
 1152  1157     1
 1152  1158     1
 1152  1162     1
 1153  1159     1
 1153  1160     1
 1153  1161     1
 1153  1163     1
 1154  1157     1
 1154  1158     1
 1154  1162     1
 1155  1157     1
 1155  1158     1
 1155  1162     1
 1156  1164     1
 1156  1165     1
 1156  1166     1
 1157  1159     1
 1157  1160     1
 1157  1161     1
 1157  1163     1
 1158  1163     1
 1159  1162     1
 1160  1162     1
 1161  1162     1
 1162  1167     1
 1162  1168     1
 1162  1172     1
 1163  1169     1
 1163  1170     1
 1163  1171     1
 1163  1173     1
 1164  1167     1
 1164  1168     1
 1164  1172     1
 1165  1167     1
 1165  1168     1
 1165  1172     1
 1166  1174     1
 1166  1175     1
 1166  1176     1
 1167  1169     1
 1167  1170     1
 1167  1171     1
 1167  1173     1
 1168  1173     1
 1169  1172     1
 1170  1172     1
 1171  1172     1
 1172  1177     1
 1172  1178     1
 1172  1182     1
 1173  1179     1
 1173  1180     1
 1173  1181     1
 1173  1183     1
 1174  1177     1
 1174  1178     1
 1174  1182     1
 1175  1177     1
 1175  1178     1
 1175  1182     1
 1176  1184     1
 1176  1185     1
 1176  1186     1
 1177  1179     1
 1177  1180     1
 1177  1181     1
 1177  1183     1
 1178  1183     1
 1179  1182     1
 1180  1182     1
 1181  1182     1
 1182  1187     1
 1182  1188     1
 1182  1192     1
 1183  1189     1
 1183  1190     1
 1183  1191     1
 1183  1193     1
 1184  1187     1
 1184  1188     1
 1184  1192     1
 1185  1187     1
 1185  1188     1
 1185  1192     1
 1186  1194     1
 1186  1195     1
 1186  1196     1
 1187  1189     1
 1187  1190     1
 1187  1191     1
 1187  1193     1
 1188  1193     1
 1189  1192     1
 1190  1192     1
 1191  1192     1
 1192  1197     1
 1192  1198     1
 1192  1202     1
 1193  1199     1
 1193  1200     1
 1193  1201     1
 1193  1203     1
 1194  1197     1
 1194  1198     1
 1194  1202     1
 1195  1197     1
 1195  1198     1
 1195  1202     1
 1196  1204     1
 1196  1205     1
 1196  1206     1
 1197  1199     1
 1197  1200     1
 1197  1201     1
 1197  1203     1
 1198  1203     1
 1199  1202     1
 1200  1202     1
 1201  1202     1
 1202  1207     1
 1202  1208     1
 1202  1212     1
 1203  1209     1
 1203  1210     1
 1203  1211     1
 1203  1213     1
 1204  1207     1
 1204  1208     1
 1204  1212     1
 1205  1207     1
 1205  1208     1
 1205  1212     1
 1206  1214     1
 1206  1215     1
 1206  1216     1
 1207  1209     1
 1207  1210     1
 1207  1211     1
 1207  1213     1
 1208  1213     1
 1209  1212     1
 1210  1212     1
 1211  1212     1
 1212  1217     1
 1212  1218     1
 1212  1222     1
 1213  1219     1
 1213  1220     1
 1213  1221     1
 1213  1223     1
 1214  1217     1
 1214  1218     1
 1214  1222     1
 1215  1217     1
 1215  1218     1
 1215  1222     1
 1216  1224     1
 1216  1225     1
 1216  1226     1
 1217  1219     1
 1217  1220     1
 1217  1221     1
 1217  1223     1
 1218  1223     1
 1219  1222     1
 1220  1222     1
 1221  1222     1
 1222  1227     1
 1222  1228     1
 1222  1232     1
 1223  1229     1
 1223  1230     1
 1223  1231     1
 1223  1233     1
 1224  1227     1
 1224  1228     1
 1224  1232     1
 1225  1227     1
 1225  1228     1
 1225  1232     1
 1226  1234     1
 1226  1235     1
 1226  1236     1
 1227  1229     1
 1227  1230     1
 1227  1231     1
 1227  1233     1
 1228  1233     1
 1229  1232     1
 1230  1232     1
 1231  1232     1
 1232  1237     1
 1232  1238     1
 1232  1242     1
 1233  1239     1
 1233  1240     1
 1233  1241     1
 1233  1243     1
 1234  1237     1
 1234  1238     1
 1234  1242     1
 1235  1237     1
 1235  1238     1
 1235  1242     1
 1236  1244     1
 1236  1245     1
 1236  1246     1
 1237  1239     1
 1237  1240     1
 1237  1241     1
 1237  1243     1
 1238  1243     1
 1239  1242     1
 1240  1242     1
 1241  1242     1
 1242  1247     1
 1242  1248     1
 1242  1252     1
 1243  1249     1
 1243  1250     1
 1243  1251     1
 1243  1253     1
 1244  1247     1
 1244  1248     1
 1244  1252     1
 1245  1247     1
 1245  1248     1
 1245  1252     1
 1246  1254     1
 1246  1255     1
 1246  1256     1
 1247  1249     1
 1247  1250     1
 1247  1251     1
 1247  1253     1
 1248  1253     1
 1249  1252     1
 1250  1252     1
 1251  1252     1
 1252  1257     1
 1252  1258     1
 1252  1262     1
 1253  1259     1
 1253  1260     1
 1253  1261     1
 1253  1263     1
 1254  1257     1
 1254  1258     1
 1254  1262     1
 1255  1257     1
 1255  1258     1
 1255  1262     1
 1256  1264     1
 1256  1265     1
 1256  1266     1
 1257  1259     1
 1257  1260     1
 1257  1261     1
 1257  1263     1
 1258  1263     1
 1259  1262     1
 1260  1262     1
 1261  1262     1
 1262  1267     1
 1262  1268     1
 1262  1272     1
 1263  1269     1
 1263  1270     1
 1263  1271     1
 1263  1273     1
 1264  1267     1
 1264  1268     1
 1264  1272     1
 1265  1267     1
 1265  1268     1
 1265  1272     1
 1266  1274     1
 1266  1275     1
 1266  1276     1
 1267  1269     1
 1267  1270     1
 1267  1271     1
 1267  1273     1
 1268  1273     1
 1269  1272     1
 1270  1272     1
 1271  1272     1
 1272  1277     1
 1272  1278     1
 1272  1282     1
 1273  1279     1
 1273  1280     1
 1273  1281     1
 1273  1283     1
 1274  1277     1
 1274  1278     1
 1274  1282     1
 1275  1277     1
 1275  1278     1
 1275  1282     1
 1276  1284     1
 1276  1285     1
 1276  1286     1
 1277  1279     1
 1277  1280     1
 1277  1281     1
 1277  1283     1
 1278  1283     1
 1279  1282     1
 1280  1282     1
 1281  1282     1
 1282  1287     1
 1282  1288     1
 1282  1292     1
 1283  1289     1
 1283  1290     1
 1283  1291     1
 1283  1293     1
 1284  1287     1
 1284  1288     1
 1284  1292     1
 1285  1287     1
 1285  1288     1
 1285  1292     1
 1286  1294     1
 1286  1295     1
 1286  1296     1
 1287  1289     1
 1287  1290     1
 1287  1291     1
 1287  1293     1
 1288  1293     1
 1289  1292     1
 1290  1292     1
 1291  1292     1
 1292  1297     1
 1292  1298     1
 1292  1302     1
 1293  1299     1
 1293  1300     1
 1293  1301     1
 1293  1303     1
 1294  1297     1
 1294  1298     1
 1294  1302     1
 1295  1297     1
 1295  1298     1
 1295  1302     1
 1296  1304     1
 1296  1305     1
 1296  1306     1
 1297  1299     1
 1297  1300     1
 1297  1301     1
 1297  1303     1
 1298  1303     1
 1299  1302     1
 1300  1302     1
 1301  1302     1
 1302  1307     1
 1302  1308     1
 1302  1312     1
 1303  1309     1
 1303  1310     1
 1303  1311     1
 1303  1313     1
 1304  1307     1
 1304  1308     1
 1304  1312     1
 1305  1307     1
 1305  1308     1
 1305  1312     1
 1306  1314     1
 1306  1315     1
 1306  1316     1
 1307  1309     1
 1307  1310     1
 1307  1311     1
 1307  1313     1
 1308  1313     1
 1309  1312     1
 1310  1312     1
 1311  1312     1
 1312  1317     1
 1312  1318     1
 1312  1322     1
 1313  1319     1
 1313  1320     1
 1313  1321     1
 1313  1323     1
 1314  1317     1
 1314  1318     1
 1314  1322     1
 1315  1317     1
 1315  1318     1
 1315  1322     1
 1316  1324     1
 1316  1325     1
 1316  1326     1
 1317  1319     1
 1317  1320     1
 1317  1321     1
 1317  1323     1
 1318  1323     1
 1319  1322     1
 1320  1322     1
 1321  1322     1
 1322  1327     1
 1322  1328     1
 1322  1332     1
 1323  1329     1
 1323  1330     1
 1323  1331     1
 1323  1333     1
 1324  1327     1
 1324  1328     1
 1324  1332     1
 1325  1327     1
 1325  1328     1
 1325  1332     1
 1326  1334     1
 1326  1335     1
 1326  1336     1
 1327  1329     1
 1327  1330     1
 1327  1331     1
 1327  1333     1
 1328  1333     1
 1329  1332     1
 1330  1332     1
 1331  1332     1
 1332  1337     1
 1332  1338     1
 1332  1342     1
 1333  1339     1
 1333  1340     1
 1333  1341     1
 1333  1343     1
 1334  1337     1
 1334  1338     1
 1334  1342     1
 1335  1337     1
 1335  1338     1
 1335  1342     1
 1336  1344     1
 1336  1345     1
 1336  1346     1
 1337  1339     1
 1337  1340     1
 1337  1341     1
 1337  1343     1
 1338  1343     1
 1339  1342     1
 1340  1342     1
 1341  1342     1
 1342  1347     1
 1342  1348     1
 1342  1352     1
 1343  1349     1
 1343  1350     1
 1343  1351     1
 1343  1353     1
 1344  1347     1
 1344  1348     1
 1344  1352     1
 1345  1347     1
 1345  1348     1
 1345  1352     1
 1346  1354     1
 1346  1355     1
 1346  1356     1
 1347  1349     1
 1347  1350     1
 1347  1351     1
 1347  1353     1
 1348  1353     1
 1349  1352     1
 1350  1352     1
 1351  1352     1
 1352  1357     1
 1352  1358     1
 1352  1359     1
 1353  1360     1
 1354  1357     1
 1354  1358     1
 1354  1359     1
 1355  1357     1
 1355  1358     1
 1355  1359     1
 1356  1361     1
 1356  1362     1
 1356  1363     1
 1357  1360     1
 1358  1360     1
 1359  1364     1
 1359  1365     1
 1359  1366     1
 1360  1367     1
 1361  1364     1
 1361  1365     1
 1361  1366     1
 1362  1364     1
 1362  1365     1
 1362  1366     1
 1363  1368     1
 1363  1369     1
 1363  1370     1
 1364  1367     1
 1365  1367     1
 1366  1371     1
 1366  1372     1
 1366  1373     1
 1367  1374     1
 1368  1371     1
 1368  1372     1
 1368  1373     1
 1369  1371     1
 1369  1372     1
 1369  1373     1
 1370  1375     1
 1370  1376     1
 1370  1377     1
 1371  1374     1
 1372  1374     1
 1373  1378     1
 1373  1379     1
 1373  1380     1
 1374  1381     1
 1375  1378     1
 1375  1379     1
 1375  1380     1
 1376  1378     1
 1376  1379     1
 1376  1380     1
 1377  1382     1
 1377  1383     1
 1377  1384     1
 1378  1381     1
 1379  1381     1
 1380  1385     1
 1380  1386     1
 1380  1387     1
 1381  1388     1
 1382  1385     1
 1382  1386     1
 1382  1387     1
 1383  1385     1
 1383  1386     1
 1383  1387     1
 1384  1389     1
 1384  1390     1
 1384  1391     1
 1385  1388     1
 1386  1388     1
 1387  1392     1
 1387  1393     1
 1387  1394     1
 1388  1395     1
 1389  1392     1
 1389  1393     1
 1389  1394     1
 1390  1392     1
 1390  1393     1
 1390  1394     1
 1391  1396     1
 1391  1397     1
 1391  1398     1
 1392  1395     1
 1393  1395     1
 1394  1399     1
 1394  1400     1
 1394  1401     1
 1395  1402     1
 1396  1399     1
 1396  1400     1
 1396  1401     1
 1397  1399     1
 1397  1400     1
 1397  1401     1
 1398  1403     1
 1398  1404     1
 1398  1405     1
 1399  1402     1
 1400  1402     1
 1401  1406     1
 1401  1407     1
 1401  1408     1
 1402  1409     1
 1403  1406     1
 1403  1407     1
 1403  1408     1
 1404  1406     1
 1404  1407     1
 1404  1408     1
 1405  1410     1
 1405  1411     1
 1405  1412     1
 1406  1409     1
 1407  1409     1
 1408  1413     1
 1408  1414     1
 1408  1415     1
 1409  1416     1
 1410  1413     1
 1410  1414     1
 1410  1415     1
 1411  1413     1
 1411  1414     1
 1411  1415     1
 1412  1417     1
 1412  1418     1
 1412  1419     1
 1413  1416     1
 1414  1416     1
 1415  1420     1
 1415  1421     1
 1415  1422     1
 1416  1423     1
 1417  1420     1
 1417  1421     1
 1417  1422     1
 1418  1420     1
 1418  1421     1
 1418  1422     1
 1419  1424     1
 1419  1425     1
 1419  1426     1
 1420  1423     1
 1421  1423     1
 1422  1427     1
 1422  1428     1
 1422  1429     1
 1423  1430     1
 1424  1427     1
 1424  1428     1
 1424  1429     1
 1425  1427     1
 1425  1428     1
 1425  1429     1
 1426  1431     1
 1426  1432     1
 1426  1433     1
 1427  1430     1
 1428  1430     1
 1429  1434     1
 1429  1435     1
 1429  1436     1
 1430  1437     1
 1431  1434     1
 1431  1435     1
 1431  1436     1
 1432  1434     1
 1432  1435     1
 1432  1436     1
 1433  1438     1
 1433  1439     1
 1433  1440     1
 1434  1437     1
 1435  1437     1
 1436  1441     1
 1436  1442     1
 1436  1443     1
 1437  1444     1
 1438  1441     1
 1438  1442     1
 1438  1443     1
 1439  1441     1
 1439  1442     1
 1439  1443     1
 1440  1445     1
 1440  1446     1
 1440  1447     1
 1441  1444     1
 1442  1444     1
 1443  1448     1
 1443  1449     1
 1443  1450     1
 1444  1451     1
 1445  1448     1
 1445  1449     1
 1445  1450     1
 1446  1448     1
 1446  1449     1
 1446  1450     1
 1447  1452     1
 1447  1453     1
 1447  1454     1
 1448  1451     1
 1449  1451     1
 1450  1455     1
 1450  1456     1
 1450  1457     1
 1451  1458     1
 1452  1455     1
 1452  1456     1
 1452  1457     1
 1453  1455     1
 1453  1456     1
 1453  1457     1
 1454  1459     1
 1454  1460     1
 1454  1461     1
 1455  1458     1
 1456  1458     1
 1457  1462     1
 1457  1463     1
 1457  1464     1
 1458  1465     1
 1459  1462     1
 1459  1463     1
 1459  1464     1
 1460  1462     1
 1460  1463     1
 1460  1464     1
 1461  1466     1
 1461  1467     1
 1461  1468     1
 1462  1465     1
 1463  1465     1
 1464  1469     1
 1464  1470     1
 1464  1471     1
 1465  1472     1
 1466  1469     1
 1466  1470     1
 1466  1471     1
 1467  1469     1
 1467  1470     1
 1467  1471     1
 1468  1473     1
 1468  1474     1
 1468  1475     1
 1469  1472     1
 1470  1472     1
 1471  1476     1
 1471  1477     1
 1471  1478     1
 1472  1479     1
 1473  1476     1
 1473  1477     1
 1473  1478     1
 1474  1476     1
 1474  1477     1
 1474  1478     1
 1475  1480     1
 1475  1481     1
 1475  1482     1
 1476  1479     1
 1477  1479     1
 1478  1483     1
 1478  1484     1
 1478  1485     1
 1479  1486     1
 1480  1483     1
 1480  1484     1
 1480  1485     1
 1481  1483     1
 1481  1484     1
 1481  1485     1
 1482  1487     1
 1482  1488     1
 1482  1489     1
 1483  1486     1
 1484  1486     1
 1485  1490     1
 1485  1491     1
 1485  1492     1
 1486  1493     1
 1487  1490     1
 1487  1491     1
 1487  1492     1
 1488  1490     1
 1488  1491     1
 1488  1492     1
 1489  1494     1
 1489  1495     1
 1489  1496     1
 1490  1493     1
 1491  1493     1
 1492  1497     1
 1492  1498     1
 1492  1499     1
 1493  1500     1
 1494  1497     1
 1494  1498     1
 1494  1499     1
 1495  1497     1
 1495  1498     1
 1495  1499     1
 1496  1501     1
 1496  1502     1
 1496  1503     1
 1497  1500     1
 1498  1500     1
 1499  1504     1
 1499  1505     1
 1499  1506     1
 1500  1507     1
 1501  1504     1
 1501  1505     1
 1501  1506     1
 1502  1504     1
 1502  1505     1
 1502  1506     1
 1503  1508     1
 1503  1509     1
 1503  1510     1
 1504  1507     1
 1505  1507     1
 1506  1511     1
 1506  1512     1
 1506  1513     1
 1507  1514     1
 1508  1511     1
 1508  1512     1
 1508  1513     1
 1509  1511     1
 1509  1512     1
 1509  1513     1
 1510  1515     1
 1510  1516     1
 1510  1517     1
 1511  1514     1
 1512  1514     1
 1513  1518     1
 1513  1519     1
 1513  1520     1
 1514  1521     1
 1515  1518     1
 1515  1519     1
 1515  1520     1
 1516  1518     1
 1516  1519     1
 1516  1520     1
 1517  1522     1
 1517  1523     1
 1517  1524     1
 1518  1521     1
 1519  1521     1
 1520  1525     1
 1520  1526     1
 1520  1527     1
 1521  1528     1
 1522  1525     1
 1522  1526     1
 1522  1527     1
 1523  1525     1
 1523  1526     1
 1523  1527     1
 1524  1529     1
 1524  1530     1
 1524  1531     1
 1525  1528     1
 1526  1528     1
 1527  1532     1
 1527  1533     1
 1527  1534     1
 1528  1535     1
 1529  1532     1
 1529  1533     1
 1529  1534     1
 1530  1532     1
 1530  1533     1
 1530  1534     1
 1531  1536     1
 1531  1537     1
 1531  1538     1
 1532  1535     1
 1533  1535     1
 1534  1539     1
 1534  1540     1
 1534  1541     1
 1535  1542     1
 1536  1539     1
 1536  1540     1
 1536  1541     1
 1537  1539     1
 1537  1540     1
 1537  1541     1
 1538  1543     1
 1538  1544     1
 1538  1545     1
 1539  1542     1
 1540  1542     1
 1541  1546     1
 1541  1547     1
 1541  1548     1
 1542  1549     1
 1543  1546     1
 1543  1547     1
 1543  1548     1
 1544  1546     1
 1544  1547     1
 1544  1548     1
 1545  1550     1
 1545  1551     1
 1545  1552     1
 1546  1549     1
 1547  1549     1
 1548  1553     1
 1548  1554     1
 1548  1555     1
 1549  1556     1
 1550  1553     1
 1550  1554     1
 1550  1555     1
 1551  1553     1
 1551  1554     1
 1551  1555     1
 1552  1557     1
 1552  1558     1
 1552  1559     1
 1553  1556     1
 1554  1556     1
 1555  1560     1
 1555  1561     1
 1555  1562     1
 1556  1563     1
 1557  1560     1
 1557  1561     1
 1557  1562     1
 1558  1560     1
 1558  1561     1
 1558  1562     1
 1559  1564     1
 1559  1565     1
 1559  1566     1
 1560  1563     1
 1561  1563     1
 1562  1567     1
 1562  1568     1
 1562  1569     1
 1563  1570     1
 1564  1567     1
 1564  1568     1
 1564  1569     1
 1565  1567     1
 1565  1568     1
 1565  1569     1
 1566  1571     1
 1566  1572     1
 1566  1573     1
 1567  1570     1
 1568  1570     1
 1569  1574     1
 1569  1575     1
 1569  1576     1
 1570  1577     1
 1571  1574     1
 1571  1575     1
 1571  1576     1
 1572  1574     1
 1572  1575     1
 1572  1576     1
 1573  1578     1
 1573  1579     1
 1573  1580     1
 1574  1577     1
 1575  1577     1
 1576  1581     1
 1576  1582     1
 1576  1583     1
 1577  1584     1
 1578  1581     1
 1578  1582     1
 1578  1583     1
 1579  1581     1
 1579  1582     1
 1579  1583     1
 1580  1585     1
 1580  1586     1
 1580  1587     1
 1581  1584     1
 1582  1584     1
 1583  1588     1
 1583  1589     1
 1583  1590     1
 1584  1591     1
 1585  1588     1
 1585  1589     1
 1585  1590     1
 1586  1588     1
 1586  1589     1
 1586  1590     1
 1587  1592     1
 1587  1593     1
 1587  1594     1
 1588  1591     1
 1589  1591     1
 1590  1595     1
 1590  1596     1
 1590  1597     1
 1591  1598     1
 1592  1595     1
 1592  1596     1
 1592  1597     1
 1593  1595     1
 1593  1596     1
 1593  1597     1
 1594  1599     1
 1594  1600     1
 1594  1601     1
 1595  1598     1
 1596  1598     1
 1597  1602     1
 1597  1603     1
 1597  1604     1
 1598  1605     1
 1599  1602     1
 1599  1603     1
 1599  1604     1
 1600  1602     1
 1600  1603     1
 1600  1604     1
 1601  1606     1
 1601  1607     1
 1601  1608     1
 1602  1605     1
 1603  1605     1
 1604  1609     1
 1604  1610     1
 1604  1611     1
 1605  1612     1
 1606  1609     1
 1606  1610     1
 1606  1611     1
 1607  1609     1
 1607  1610     1
 1607  1611     1
 1608  1613     1
 1608  1614     1
 1608  1615     1
 1609  1612     1
 1610  1612     1
 1611  1616     1
 1611  1617     1
 1611  1618     1
 1612  1619     1
 1613  1616     1
 1613  1617     1
 1613  1618     1
 1614  1616     1
 1614  1617     1
 1614  1618     1
 1615  1620     1
 1615  1621     1
 1615  1622     1
 1616  1619     1
 1617  1619     1
 1618  1623     1
 1618  1624     1
 1618  1625     1
 1619  1626     1
 1620  1623     1
 1620  1624     1
 1620  1625     1
 1621  1623     1
 1621  1624     1
 1621  1625     1
 1622  1627     1
 1622  1628     1
 1622  1629     1
 1623  1626     1
 1624  1626     1
 1625  1630     1
 1625  1631     1
 1625  1632     1
 1626  1633     1
 1627  1630     1
 1627  1631     1
 1627  1632     1
 1628  1630     1
 1628  1631     1
 1628  1632     1
 1629  1634     1
 1629  1635     1
 1629  1636     1
 1630  1633     1
 1631  1633     1
 1632  1637     1
 1632  1638     1
 1632  1639     1
 1633  1640     1
 1634  1637     1
 1634  1638     1
 1634  1639     1
 1635  1637     1
 1635  1638     1
 1635  1639     1
 1636  1641     1
 1636  1642     1
 1636  1643     1
 1637  1640     1
 1638  1640     1
 1639  1644     1
 1639  1645     1
 1639  1646     1
 1640  1647     1
 1641  1644     1
 1641  1645     1
 1641  1646     1
 1642  1644     1
 1642  1645     1
 1642  1646     1
 1643  1648     1
 1643  1649     1
 1643  1650     1
 1644  1647     1
 1645  1647     1
 1646  1651     1
 1646  1652     1
 1646  1653     1
 1647  1654     1
 1648  1651     1
 1648  1652     1
 1648  1653     1
 1649  1651     1
 1649  1652     1
 1649  1653     1
 1650  1655     1
 1650  1656     1
 1650  1657     1
 1651  1654     1
 1652  1654     1
 1653  1658     1
 1653  1659     1
 1653  1660     1
 1654  1661     1
 1655  1658     1
 1655  1659     1
 1655  1660     1
 1656  1658     1
 1656  1659     1
 1656  1660     1
 1657  1662     1
 1657  1663     1
 1657  1664     1
 1658  1661     1
 1659  1661     1
 1660  1665     1
 1660  1666     1
 1660  1667     1
 1661  1668     1
 1662  1665     1
 1662  1666     1
 1662  1667     1
 1663  1665     1
 1663  1666     1
 1663  1667     1
 1664  1669     1
 1664  1670     1
 1664  1671     1
 1665  1668     1
 1666  1668     1
 1667  1672     1
 1667  1673     1
 1667  1674     1
 1668  1675     1
 1669  1672     1
 1669  1673     1
 1669  1674     1
 1670  1672     1
 1670  1673     1
 1670  1674     1
 1671  1676     1
 1671  1677     1
 1671  1678     1
 1672  1675     1
 1673  1675     1
 1674  1679     1
 1674  1680     1
 1674  1681     1
 1675  1682     1
 1676  1679     1
 1676  1680     1
 1676  1681     1
 1677  1679     1
 1677  1680     1
 1677  1681     1
 1678  1683     1
 1678  1684     1
 1678  1685     1
 1679  1682     1
 1680  1682     1
 1681  1686     1
 1681  1687     1
 1681  1688     1
 1682  1689     1
 1683  1686     1
 1683  1687     1
 1683  1688     1
 1684  1686     1
 1684  1687     1
 1684  1688     1
 1685  1690     1
 1685  1691     1
 1685  1692     1
 1686  1689     1
 1687  1689     1
 1688  1693     1
 1688  1694     1
 1688  1695     1
 1689  1696     1
 1690  1693     1
 1690  1694     1
 1690  1695     1
 1691  1693     1
 1691  1694     1
 1691  1695     1
 1692  1697     1
 1692  1698     1
 1692  1699     1
 1693  1696     1
 1694  1696     1
 1695  1700     1
 1695  1701     1
 1695  1702     1
 1696  1703     1
 1697  1700     1
 1697  1701     1
 1697  1702     1
 1698  1700     1
 1698  1701     1
 1698  1702     1
 1699  1704     1
 1699  1705     1
 1699  1706     1
 1700  1703     1
 1701  1703     1
 1702  1707     1
 1702  1708     1
 1702  1709     1
 1703  1710     1
 1704  1707     1
 1704  1708     1
 1704  1709     1
 1705  1707     1
 1705  1708     1
 1705  1709     1
 1706  1711     1
 1706  1712     1
 1706  1713     1
 1707  1710     1
 1708  1710     1
 1709  1714     1
 1709  1715     1
 1709  1716     1
 1710  1717     1
 1711  1714     1
 1711  1715     1
 1711  1716     1
 1712  1714     1
 1712  1715     1
 1712  1716     1
 1713  1718     1
 1713  1719     1
 1713  1720     1
 1714  1717     1
 1715  1717     1
 1716  1721     1
 1716  1722     1
 1716  1723     1
 1717  1724     1
 1718  1721     1
 1718  1722     1
 1718  1723     1
 1719  1721     1
 1719  1722     1
 1719  1723     1
 1720  1725     1
 1720  1726     1
 1720  1727     1
 1721  1724     1
 1722  1724     1
 1723  1728     1
 1723  1729     1
 1723  1730     1
 1724  1731     1
 1725  1728     1
 1725  1729     1
 1725  1730     1
 1726  1728     1
 1726  1729     1
 1726  1730     1
 1727  1732     1
 1727  1733     1
 1727  1734     1
 1728  1731     1
 1729  1731     1
 1730  1735     1
 1730  1736     1
 1730  1737     1
 1731  1738     1
 1732  1735     1
 1732  1736     1
 1732  1737     1
 1733  1735     1
 1733  1736     1
 1733  1737     1
 1734  1739     1
 1734  1740     1
 1734  1741     1
 1735  1738     1
 1736  1738     1
 1737  1742     1
 1737  1743     1
 1737  1744     1
 1738  1745     1
 1739  1742     1
 1739  1743     1
 1739  1744     1
 1740  1742     1
 1740  1743     1
 1740  1744     1
 1741  1746     1
 1741  1747     1
 1741  1748     1
 1742  1745     1
 1743  1745     1
 1744  1749     1
 1744  1750     1
 1744  1751     1
 1745  1752     1
 1746  1749     1
 1746  1750     1
 1746  1751     1
 1747  1749     1
 1747  1750     1
 1747  1751     1
 1748  1753     1
 1748  1754     1
 1748  1755     1
 1749  1752     1
 1750  1752     1
 1751  1756     1
 1751  1757     1
 1751  1758     1
 1752  1759     1
 1753  1756     1
 1753  1757     1
 1753  1758     1
 1754  1756     1
 1754  1757     1
 1754  1758     1
 1755  1760     1
 1755  1761     1
 1755  1762     1
 1756  1759     1
 1757  1759     1
 1758  1763     1
 1758  1764     1
 1758  1765     1
 1759  1766     1
 1760  1763     1
 1760  1764     1
 1760  1765     1
 1761  1763     1
 1761  1764     1
 1761  1765     1
 1762  1767     1
 1762  1768     1
 1762  1769     1
 1763  1766     1
 1764  1766     1
 1765  1770     1
 1765  1771     1
 1765  1772     1
 1766  1773     1
 1767  1770     1
 1767  1771     1
 1767  1772     1
 1768  1770     1
 1768  1771     1
 1768  1772     1
 1769  1774     1
 1769  1775     1
 1769  1776     1
 1770  1773     1
 1771  1773     1
 1772  1777     1
 1772  1778     1
 1772  1779     1
 1773  1780     1
 1774  1777     1
 1774  1778     1
 1774  1779     1
 1775  1777     1
 1775  1778     1
 1775  1779     1
 1776  1781     1
 1776  1782     1
 1776  1783     1
 1777  1780     1
 1778  1780     1
 1779  1784     1
 1779  1785     1
 1779  1786     1
 1780  1787     1
 1781  1784     1
 1781  1785     1
 1781  1786     1
 1782  1784     1
 1782  1785     1
 1782  1786     1
 1783  1788     1
 1783  1789     1
 1783  1790     1
 1784  1787     1
 1785  1787     1
 1786  1791     1
 1786  1792     1
 1786  1793     1
 1787  1794     1
 1788  1791     1
 1788  1792     1
 1788  1793     1
 1789  1791     1
 1789  1792     1
 1789  1793     1
 1790  1795     1
 1790  1796     1
 1790  1797     1
 1791  1794     1
 1792  1794     1
 1793  1798     1
 1793  1799     1
 1793  1800     1
 1794  1801     1
 1795  1798     1
 1795  1799     1
 1795  1800     1
 1796  1798     1
 1796  1799     1
 1796  1800     1
 1797  1802     1
 1797  1803     1
 1797  1804     1
 1798  1801     1
 1799  1801     1
 1800  1805     1
 1800  1806     1
 1800  1807     1
 1801  1808     1
 1802  1805     1
 1802  1806     1
 1802  1807     1
 1803  1805     1
 1803  1806     1
 1803  1807     1
 1804  1809     1
 1804  1810     1
 1804  1811     1
 1805  1808     1
 1806  1808     1
 1807  1812     1
 1807  1813     1
 1807  1814     1
 1808  1815     1
 1809  1812     1
 1809  1813     1
 1809  1814     1
 1810  1812     1
 1810  1813     1
 1810  1814     1
 1811  1816     1
 1811  1817     1
 1811  1818     1
 1812  1815     1
 1813  1815     1
 1814  1819     1
 1814  1820     1
 1814  1821     1
 1815  1822     1
 1816  1819     1
 1816  1820     1
 1816  1821     1
 1817  1819     1
 1817  1820     1
 1817  1821     1
 1818  1823     1
 1818  1824     1
 1818  1825     1
 1819  1822     1
 1820  1822     1
 1821  1826     1
 1821  1827     1
 1821  1828     1
 1822  1829     1
 1823  1826     1
 1823  1827     1
 1823  1828     1
 1824  1826     1
 1824  1827     1
 1824  1828     1
 1825  1830     1
 1825  1831     1
 1825  1832     1
 1826  1829     1
 1827  1829     1
 1828  1833     1
 1828  1834     1
 1828  1835     1
 1829  1836     1
 1830  1833     1
 1830  1834     1
 1830  1835     1
 1831  1833     1
 1831  1834     1
 1831  1835     1
 1832  1837     1
 1832  1838     1
 1832  1839     1
 1833  1836     1
 1834  1836     1
 1835  1840     1
 1835  1841     1
 1835  1842     1
 1836  1843     1
 1837  1840     1
 1837  1841     1
 1837  1842     1
 1838  1840     1
 1838  1841     1
 1838  1842     1
 1839  1844     1
 1839  1845     1
 1839  1846     1
 1840  1843     1
 1841  1843     1
 1842  1847     1
 1842  1848     1
 1842  1849     1
 1843  1850     1
 1844  1847     1
 1844  1848     1
 1844  1849     1
 1845  1847     1
 1845  1848     1
 1845  1849     1
 1846  1851     1
 1846  1852     1
 1846  1853     1
 1847  1850     1
 1848  1850     1
 1849  1854     1
 1849  1855     1
 1849  1856     1
 1850  1857     1
 1851  1854     1
 1851  1855     1
 1851  1856     1
 1852  1854     1
 1852  1855     1
 1852  1856     1
 1853  1858     1
 1853  1859     1
 1853  1860     1
 1854  1857     1
 1855  1857     1
 1856  1861     1
 1856  1862     1
 1856  1863     1
 1857  1864     1
 1858  1861     1
 1858  1862     1
 1858  1863     1
 1859  1861     1
 1859  1862     1
 1859  1863     1
 1860  1865     1
 1860  1866     1
 1860  1867     1
 1861  1864     1
 1862  1864     1
 1863  1868     1
 1863  1869     1
 1863  1870     1
 1864  1871     1
 1865  1868     1
 1865  1869     1
 1865  1870     1
 1866  1868     1
 1866  1869     1
 1866  1870     1
 1867  1872     1
 1867  1873     1
 1867  1874     1
 1868  1871     1
 1869  1871     1
 1870  1875     1
 1870  1876     1
 1870  1877     1
 1871  1878     1
 1872  1875     1
 1872  1876     1
 1872  1877     1
 1873  1875     1
 1873  1876     1
 1873  1877     1
 1874  1879     1
 1874  1880     1
 1874  1881     1
 1875  1878     1
 1876  1878     1
 1877  1882     1
 1877  1883     1
 1877  1884     1
 1878  1885     1
 1879  1882     1
 1879  1883     1
 1879  1884     1
 1880  1882     1
 1880  1883     1
 1880  1884     1
 1881  1886     1
 1881  1887     1
 1881  1888     1
 1882  1885     1
 1883  1885     1
 1884  1889     1
 1884  1890     1
 1884  1891     1
 1885  1892     1
 1886  1889     1
 1886  1890     1
 1886  1891     1
 1887  1889     1
 1887  1890     1
 1887  1891     1
 1888  1893     1
 1888  1894     1
 1888  1895     1
 1889  1892     1
 1890  1892     1
 1891  1896     1
 1891  1897     1
 1891  1898     1
 1892  1899     1
 1893  1896     1
 1893  1897     1
 1893  1898     1
 1894  1896     1
 1894  1897     1
 1894  1898     1
 1895  1900     1
 1895  1901     1
 1895  1902     1
 1896  1899     1
 1897  1899     1
 1898  1903     1
 1898  1904     1
 1898  1905     1
 1899  1906     1
 1900  1903     1
 1900  1904     1
 1900  1905     1
 1901  1903     1
 1901  1904     1
 1901  1905     1
 1902  1907     1
 1902  1908     1
 1902  1909     1
 1903  1906     1
 1904  1906     1
 1905  1910     1
 1905  1911     1
 1905  1912     1
 1906  1913     1
 1907  1910     1
 1907  1911     1
 1907  1912     1
 1908  1910     1
 1908  1911     1
 1908  1912     1
 1909  1914     1
 1909  1915     1
 1909  1916     1
 1910  1913     1
 1911  1913     1
 1912  1917     1
 1912  1918     1
 1912  1919     1
 1913  1920     1
 1914  1917     1
 1914  1918     1
 1914  1919     1
 1915  1917     1
 1915  1918     1
 1915  1919     1
 1916  1921     1
 1916  1922     1
 1916  1923     1
 1917  1920     1
 1918  1920     1
 1919  1924     1
 1919  1925     1
 1919  1926     1
 1920  1927     1
 1921  1924     1
 1921  1925     1
 1921  1926     1
 1922  1924     1
 1922  1925     1
 1922  1926     1
 1923  1928     1
 1923  1929     1
 1923  1930     1
 1924  1927     1
 1925  1927     1
 1926  1931     1
 1926  1932     1
 1926  1933     1
 1927  1934     1
 1928  1931     1
 1928  1932     1
 1928  1933     1
 1929  1931     1
 1929  1932     1
 1929  1933     1
 1930  1935     1
 1930  1936     1
 1930  1937     1
 1931  1934     1
 1932  1934     1
 1933  1938     1
 1933  1939     1
 1933  1940     1
 1934  1941     1
 1935  1938     1
 1935  1939     1
 1935  1940     1
 1936  1938     1
 1936  1939     1
 1936  1940     1
 1937  1942     1
 1937  1943     1
 1937  1944     1
 1938  1941     1
 1939  1941     1
 1940  1945     1
 1940  1946     1
 1940  1947     1
 1941  1948     1
 1942  1945     1
 1942  1946     1
 1942  1947     1
 1943  1945     1
 1943  1946     1
 1943  1947     1
 1944  1949     1
 1944  1950     1
 1944  1951     1
 1945  1948     1
 1946  1948     1
 1947  1952     1
 1947  1953     1
 1947  1954     1
 1948  1955     1
 1949  1952     1
 1949  1953     1
 1949  1954     1
 1950  1952     1
 1950  1953     1
 1950  1954     1
 1951  1956     1
 1951  1957     1
 1951  1958     1
 1952  1955     1
 1953  1955     1
 1954  1959     1
 1954  1960     1
 1954  1961     1
 1955  1962     1
 1956  1959     1
 1956  1960     1
 1956  1961     1
 1957  1959     1
 1957  1960     1
 1957  1961     1
 1958  1963     1
 1958  1964     1
 1958  1965     1
 1959  1962     1
 1960  1962     1
 1961  1966     1
 1961  1967     1
 1961  1968     1
 1962  1969     1
 1963  1966     1
 1963  1967     1
 1963  1968     1
 1964  1966     1
 1964  1967     1
 1964  1968     1
 1965  1970     1
 1965  1971     1
 1965  1972     1
 1966  1969     1
 1967  1969     1
 1968  1973     1
 1968  1974     1
 1968  1975     1
 1969  1976     1
 1970  1973     1
 1970  1974     1
 1970  1975     1
 1971  1973     1
 1971  1974     1
 1971  1975     1
 1972  1977     1
 1972  1978     1
 1972  1979     1
 1973  1976     1
 1974  1976     1
 1975  1980     1
 1975  1981     1
 1975  1982     1
 1976  1983     1
 1977  1980     1
 1977  1981     1
 1977  1982     1
 1978  1980     1
 1978  1981     1
 1978  1982     1
 1979  1984     1
 1979  1985     1
 1979  1986     1
 1980  1983     1
 1981  1983     1
 1982  1987     1
 1982  1988     1
 1982  1989     1
 1983  1990     1
 1984  1987     1
 1984  1988     1
 1984  1989     1
 1985  1987     1
 1985  1988     1
 1985  1989     1
 1986  1991     1
 1986  1992     1
 1986  1993     1
 1987  1990     1
 1988  1990     1
 1989  1994     1
 1989  1995     1
 1989  1996     1
 1990  1997     1
 1991  1994     1
 1991  1995     1
 1991  1996     1
 1992  1994     1
 1992  1995     1
 1992  1996     1
 1993  1998     1
 1993  1999     1
 1993  2000     1
 1994  1997     1
 1995  1997     1
 1996  2001     1
 1996  2002     1
 1996  2003     1
 1997  2004     1
 1998  2001     1
 1998  2002     1
 1998  2003     1
 1999  2001     1
 1999  2002     1
 1999  2003     1
 2000  2005     1
 2000  2006     1
 2000  2007     1
 2001  2004     1
 2002  2004     1
 2003  2008     1
 2003  2009     1
 2003  2010     1
 2004  2011     1
 2005  2008     1
 2005  2009     1
 2005  2010     1
 2006  2008     1
 2006  2009     1
 2006  2010     1
 2007  2012     1
 2007  2013     1
 2007  2014     1
 2008  2011     1
 2009  2011     1
 2010  2015     1
 2010  2016     1
 2010  2017     1
 2011  2018     1
 2012  2015     1
 2012  2016     1
 2012  2017     1
 2013  2015     1
 2013  2016     1
 2013  2017     1
 2014  2019     1
 2014  2020     1
 2014  2021     1
 2015  2018     1
 2016  2018     1
 2017  2022     1
 2017  2023     1
 2017  2024     1
 2018  2025     1
 2019  2022     1
 2019  2023     1
 2019  2024     1
 2020  2022     1
 2020  2023     1
 2020  2024     1
 2021  2026     1
 2021  2027     1
 2021  2028     1
 2022  2025     1
 2023  2025     1
 2024  2029     1
 2024  2030     1
 2024  2031     1
 2025  2032     1
 2026  2029     1
 2026  2030     1
 2026  2031     1
 2027  2029     1
 2027  2030     1
 2027  2031     1
 2028  2033     1
 2028  2034     1
 2028  2035     1
 2029  2032     1
 2030  2032     1
 2031  2036     1
 2031  2037     1
 2031  2038     1
 2032  2039     1
 2033  2036     1
 2033  2037     1
 2033  2038     1
 2034  2036     1
 2034  2037     1
 2034  2038     1
 2035  2040     1
 2035  2041     1
 2035  2042     1
 2036  2039     1
 2037  2039     1
 2038  2043     1
 2038  2044     1
 2038  2045     1
 2039  2046     1
 2040  2043     1
 2040  2044     1
 2040  2045     1
 2041  2043     1
 2041  2044     1
 2041  2045     1
 2042  2047     1
 2042  2048     1
 2042  2049     1
 2043  2046     1
 2044  2046     1
 2045  2050     1
 2045  2051     1
 2045  2052     1
 2046  2053     1
 2047  2050     1
 2047  2051     1
 2047  2052     1
 2048  2050     1
 2048  2051     1
 2048  2052     1
 2050  2053     1
 2051  2053     1

[ angles ] 
; ai	aj	ak	funct	th0	cth	S0	Kub
    2     1     3     5
    1     3     4     5
    1     3     5     5
    1     3     6     5
    4     3     5     5
    4     3     6     5
    5     3     6     5
    3     6     7     5
    3     6     8     5
    3     6     9     5
    7     6     8     5
    7     6     9     5
    8     6     9     5
    6     9    10     5
    9    10    11     5
    9    10    12     5
    9    10    13     5
   11    10    12     5
   11    10    13     5
   12    10    13     5
   10    13    14     5
   10    13    15     5
   10    13    16     5
   14    13    15     5
   14    13    16     5
   15    13    16     5
   13    16    17     5
   16    17    18     5
   16    17    19     5
   16    17    20     5
   18    17    19     5
   18    17    20     5
   19    17    20     5
   17    20    21     5
   17    20    22     5
   17    20    23     5
   21    20    22     5
   21    20    23     5
   22    20    23     5
   20    23    24     5
   23    24    25     5
   23    24    26     5
   23    24    27     5
   25    24    26     5
   25    24    27     5
   26    24    27     5
   24    27    28     5
   24    27    29     5
   24    27    30     5
   28    27    29     5
   28    27    30     5
   29    27    30     5
   27    30    31     5
   30    31    32     5
   30    31    33     5
   30    31    34     5
   32    31    33     5
   32    31    34     5
   33    31    34     5
   31    34    35     5
   31    34    36     5
   31    34    37     5
   35    34    36     5
   35    34    37     5
   36    34    37     5
   34    37    38     5
   37    38    39     5
   37    38    40     5
   37    38    41     5
   39    38    40     5
   39    38    41     5
   40    38    41     5
   38    41    42     5
   38    41    43     5
   38    41    44     5
   42    41    43     5
   42    41    44     5
   43    41    44     5
   41    44    45     5
   44    45    46     5
   44    45    47     5
   44    45    48     5
   46    45    47     5
   46    45    48     5
   47    45    48     5
   45    48    49     5
   45    48    50     5
   45    48    51     5
   49    48    50     5
   49    48    51     5
   50    48    51     5
   48    51    52     5
   51    52    53     5
   51    52    54     5
   51    52    55     5
   53    52    54     5
   53    52    55     5
   54    52    55     5
   52    55    56     5
   52    55    57     5
   52    55    58     5
   56    55    57     5
   56    55    58     5
   57    55    58     5
   55    58    59     5
   58    59    60     5
   58    59    61     5
   58    59    62     5
   60    59    61     5
   60    59    62     5
   61    59    62     5
   59    62    63     5
   59    62    64     5
   59    62    65     5
   63    62    64     5
   63    62    65     5
   64    62    65     5
   62    65    66     5
   65    66    67     5
   65    66    68     5
   65    66    69     5
   67    66    68     5
   67    66    69     5
   68    66    69     5
   66    69    70     5
   66    69    71     5
   66    69    72     5
   70    69    71     5
   70    69    72     5
   71    69    72     5
   69    72    73     5
   72    73    74     5
   72    73    75     5
   72    73    76     5
   74    73    75     5
   74    73    76     5
   75    73    76     5
   73    76    77     5
   73    76    78     5
   73    76    79     5
   77    76    78     5
   77    76    79     5
   78    76    79     5
   76    79    80     5
   79    80    81     5
   79    80    82     5
   79    80    83     5
   81    80    82     5
   81    80    83     5
   82    80    83     5
   80    83    84     5
   80    83    85     5
   80    83    86     5
   84    83    85     5
   84    83    86     5
   85    83    86     5
   83    86    87     5
   86    87    88     5
   86    87    89     5
   86    87    90     5
   88    87    89     5
   88    87    90     5
   89    87    90     5
   87    90    91     5
   87    90    92     5
   87    90    93     5
   91    90    92     5
   91    90    93     5
   92    90    93     5
   90    93    94     5
   93    94    95     5
   93    94    96     5
   93    94    97     5
   95    94    96     5
   95    94    97     5
   96    94    97     5
   94    97    98     5
   94    97    99     5
   94    97   100     5
   98    97    99     5
   98    97   100     5
   99    97   100     5
   97   100   101     5
  100   101   102     5
  100   101   103     5
  100   101   104     5
  102   101   103     5
  102   101   104     5
  103   101   104     5
  101   104   105     5
  101   104   106     5
  101   104   107     5
  105   104   106     5
  105   104   107     5
  106   104   107     5
  104   107   108     5
  107   108   109     5
  107   108   110     5
  107   108   111     5
  109   108   110     5
  109   108   111     5
  110   108   111     5
  108   111   112     5
  108   111   113     5
  108   111   114     5
  112   111   113     5
  112   111   114     5
  113   111   114     5
  111   114   115     5
  114   115   116     5
  114   115   117     5
  114   115   118     5
  116   115   117     5
  116   115   118     5
  117   115   118     5
  115   118   119     5
  115   118   120     5
  115   118   121     5
  119   118   120     5
  119   118   121     5
  120   118   121     5
  118   121   122     5
  121   122   123     5
  121   122   124     5
  121   122   125     5
  123   122   124     5
  123   122   125     5
  124   122   125     5
  122   125   126     5
  122   125   127     5
  122   125   128     5
  126   125   127     5
  126   125   128     5
  127   125   128     5
  125   128   129     5
  128   129   130     5
  128   129   131     5
  128   129   132     5
  130   129   131     5
  130   129   132     5
  131   129   132     5
  129   132   133     5
  129   132   134     5
  129   132   135     5
  133   132   134     5
  133   132   135     5
  134   132   135     5
  132   135   136     5
  135   136   137     5
  135   136   138     5
  135   136   139     5
  137   136   138     5
  137   136   139     5
  138   136   139     5
  136   139   140     5
  136   139   141     5
  136   139   142     5
  140   139   141     5
  140   139   142     5
  141   139   142     5
  139   142   143     5
  142   143   144     5
  142   143   145     5
  142   143   146     5
  144   143   145     5
  144   143   146     5
  145   143   146     5
  143   146   147     5
  143   146   148     5
  143   146   149     5
  147   146   148     5
  147   146   149     5
  148   146   149     5
  146   149   150     5
  149   150   151     5
  149   150   152     5
  149   150   153     5
  151   150   152     5
  151   150   153     5
  152   150   153     5
  150   153   154     5
  150   153   155     5
  150   153   156     5
  154   153   155     5
  154   153   156     5
  155   153   156     5
  153   156   157     5
  156   157   158     5
  156   157   159     5
  156   157   160     5
  158   157   159     5
  158   157   160     5
  159   157   160     5
  157   160   161     5
  157   160   162     5
  157   160   163     5
  161   160   162     5
  161   160   163     5
  162   160   163     5
  160   163   164     5
  163   164   165     5
  163   164   166     5
  163   164   167     5
  165   164   166     5
  165   164   167     5
  166   164   167     5
  164   167   168     5
  164   167   169     5
  164   167   170     5
  168   167   169     5
  168   167   170     5
  169   167   170     5
  167   170   171     5
  170   171   172     5
  170   171   173     5
  170   171   174     5
  172   171   173     5
  172   171   174     5
  173   171   174     5
  171   174   175     5
  171   174   176     5
  171   174   177     5
  175   174   176     5
  175   174   177     5
  176   174   177     5
  174   177   178     5
  177   178   179     5
  177   178   180     5
  177   178   181     5
  179   178   180     5
  179   178   181     5
  180   178   181     5
  178   181   182     5
  178   181   183     5
  178   181   184     5
  182   181   183     5
  182   181   184     5
  183   181   184     5
  181   184   185     5
  184   185   186     5
  184   185   187     5
  184   185   188     5
  186   185   187     5
  186   185   188     5
  187   185   188     5
  185   188   189     5
  185   188   190     5
  185   188   191     5
  189   188   190     5
  189   188   191     5
  190   188   191     5
  188   191   192     5
  191   192   193     5
  191   192   194     5
  191   192   195     5
  193   192   194     5
  193   192   195     5
  194   192   195     5
  192   195   196     5
  192   195   197     5
  192   195   198     5
  196   195   197     5
  196   195   198     5
  197   195   198     5
  195   198   199     5
  198   199   200     5
  198   199   201     5
  198   199   202     5
  200   199   201     5
  200   199   202     5
  201   199   202     5
  199   202   203     5
  199   202   204     5
  199   202   205     5
  203   202   204     5
  203   202   205     5
  204   202   205     5
  202   205   206     5
  205   206   207     5
  205   206   208     5
  205   206   209     5
  207   206   208     5
  207   206   209     5
  208   206   209     5
  206   209   210     5
  206   209   211     5
  206   209   212     5
  210   209   211     5
  210   209   212     5
  211   209   212     5
  209   212   213     5
  212   213   214     5
  212   213   215     5
  212   213   216     5
  214   213   215     5
  214   213   216     5
  215   213   216     5
  213   216   217     5
  213   216   218     5
  213   216   219     5
  217   216   218     5
  217   216   219     5
  218   216   219     5
  216   219   220     5
  219   220   221     5
  219   220   222     5
  219   220   223     5
  221   220   222     5
  221   220   223     5
  222   220   223     5
  220   223   224     5
  220   223   225     5
  220   223   226     5
  224   223   225     5
  224   223   226     5
  225   223   226     5
  223   226   227     5
  226   227   228     5
  226   227   229     5
  226   227   230     5
  228   227   229     5
  228   227   230     5
  229   227   230     5
  227   230   231     5
  227   230   232     5
  227   230   233     5
  231   230   232     5
  231   230   233     5
  232   230   233     5
  230   233   234     5
  233   234   235     5
  233   234   236     5
  233   234   237     5
  235   234   236     5
  235   234   237     5
  236   234   237     5
  234   237   238     5
  234   237   239     5
  234   237   240     5
  238   237   239     5
  238   237   240     5
  239   237   240     5
  237   240   241     5
  240   241   242     5
  240   241   243     5
  240   241   244     5
  242   241   243     5
  242   241   244     5
  243   241   244     5
  241   244   245     5
  241   244   246     5
  241   244   247     5
  245   244   246     5
  245   244   247     5
  246   244   247     5
  244   247   248     5
  247   248   249     5
  247   248   250     5
  247   248   251     5
  249   248   250     5
  249   248   251     5
  250   248   251     5
  248   251   252     5
  248   251   253     5
  248   251   254     5
  252   251   253     5
  252   251   254     5
  253   251   254     5
  251   254   255     5
  254   255   256     5
  254   255   257     5
  254   255   258     5
  256   255   257     5
  256   255   258     5
  257   255   258     5
  255   258   259     5
  255   258   260     5
  255   258   261     5
  259   258   260     5
  259   258   261     5
  260   258   261     5
  258   261   262     5
  261   262   263     5
  261   262   264     5
  261   262   265     5
  263   262   264     5
  263   262   265     5
  264   262   265     5
  262   265   266     5
  262   265   267     5
  262   265   268     5
  266   265   267     5
  266   265   268     5
  267   265   268     5
  265   268   269     5
  268   269   270     5
  268   269   271     5
  268   269   272     5
  270   269   271     5
  270   269   272     5
  271   269   272     5
  269   272   273     5
  269   272   274     5
  269   272   275     5
  273   272   274     5
  273   272   275     5
  274   272   275     5
  272   275   276     5
  275   276   277     5
  275   276   278     5
  275   276   279     5
  277   276   278     5
  277   276   279     5
  278   276   279     5
  276   279   280     5
  276   279   281     5
  276   279   282     5
  280   279   281     5
  280   279   282     5
  281   279   282     5
  279   282   283     5
  282   283   284     5
  282   283   285     5
  282   283   286     5
  284   283   285     5
  284   283   286     5
  285   283   286     5
  283   286   287     5
  283   286   288     5
  283   286   289     5
  287   286   288     5
  287   286   289     5
  288   286   289     5
  286   289   290     5
  289   290   291     5
  289   290   292     5
  289   290   293     5
  291   290   292     5
  291   290   293     5
  292   290   293     5
  290   293   294     5
  290   293   295     5
  290   293   296     5
  294   293   295     5
  294   293   296     5
  295   293   296     5
  293   296   297     5
  296   297   298     5
  296   297   299     5
  296   297   300     5
  298   297   299     5
  298   297   300     5
  299   297   300     5
  297   300   301     5
  297   300   302     5
  297   300   303     5
  301   300   302     5
  301   300   303     5
  302   300   303     5
  300   303   304     5
  303   304   305     5
  303   304   306     5
  303   304   307     5
  305   304   306     5
  305   304   307     5
  306   304   307     5
  304   307   308     5
  304   307   309     5
  304   307   310     5
  308   307   309     5
  308   307   310     5
  309   307   310     5
  307   310   311     5
  310   311   312     5
  310   311   313     5
  310   311   314     5
  312   311   313     5
  312   311   314     5
  313   311   314     5
  311   314   315     5
  311   314   316     5
  311   314   317     5
  315   314   316     5
  315   314   317     5
  316   314   317     5
  314   317   318     5
  317   318   319     5
  317   318   320     5
  317   318   321     5
  319   318   320     5
  319   318   321     5
  320   318   321     5
  318   321   322     5
  318   321   323     5
  318   321   324     5
  322   321   323     5
  322   321   324     5
  323   321   324     5
  321   324   325     5
  324   325   326     5
  324   325   327     5
  324   325   328     5
  326   325   327     5
  326   325   328     5
  327   325   328     5
  325   328   329     5
  325   328   330     5
  325   328   331     5
  329   328   330     5
  329   328   331     5
  330   328   331     5
  328   331   332     5
  331   332   333     5
  331   332   334     5
  331   332   335     5
  333   332   334     5
  333   332   335     5
  334   332   335     5
  332   335   336     5
  332   335   337     5
  332   335   338     5
  336   335   337     5
  336   335   338     5
  337   335   338     5
  335   338   339     5
  338   339   340     5
  338   339   341     5
  338   339   342     5
  340   339   341     5
  340   339   342     5
  341   339   342     5
  339   342   343     5
  339   342   344     5
  339   342   345     5
  343   342   344     5
  343   342   345     5
  344   342   345     5
  342   345   346     5
  345   346   347     5
  345   346   348     5
  345   346   349     5
  347   346   348     5
  347   346   349     5
  348   346   349     5
  346   349   350     5
  346   349   351     5
  346   349   352     5
  350   349   351     5
  350   349   352     5
  351   349   352     5
  349   352   353     5
  352   353   354     5
  352   353   355     5
  352   353   356     5
  354   353   355     5
  354   353   356     5
  355   353   356     5
  353   356   357     5
  353   356   358     5
  353   356   359     5
  357   356   358     5
  357   356   359     5
  358   356   359     5
  356   359   360     5
  359   360   361     5
  359   360   362     5
  359   360   363     5
  361   360   362     5
  361   360   363     5
  362   360   363     5
  360   363   364     5
  360   363   365     5
  360   363   366     5
  364   363   365     5
  364   363   366     5
  365   363   366     5
  363   366   367     5
  366   367   368     5
  366   367   369     5
  366   367   370     5
  368   367   369     5
  368   367   370     5
  369   367   370     5
  367   370   371     5
  367   370   372     5
  367   370   373     5
  371   370   372     5
  371   370   373     5
  372   370   373     5
  370   373   374     5
  373   374   375     5
  373   374   376     5
  373   374   377     5
  375   374   376     5
  375   374   377     5
  376   374   377     5
  374   377   378     5
  374   377   379     5
  374   377   380     5
  378   377   379     5
  378   377   380     5
  379   377   380     5
  377   380   381     5
  380   381   382     5
  380   381   383     5
  380   381   384     5
  382   381   383     5
  382   381   384     5
  383   381   384     5
  381   384   385     5
  381   384   386     5
  381   384   387     5
  385   384   386     5
  385   384   387     5
  386   384   387     5
  384   387   388     5
  387   388   389     5
  387   388   390     5
  387   388   391     5
  389   388   390     5
  389   388   391     5
  390   388   391     5
  388   391   392     5
  388   391   393     5
  388   391   394     5
  392   391   393     5
  392   391   394     5
  393   391   394     5
  391   394   395     5
  394   395   396     5
  394   395   397     5
  394   395   398     5
  396   395   397     5
  396   395   398     5
  397   395   398     5
  395   398   399     5
  395   398   400     5
  395   398   401     5
  399   398   400     5
  399   398   401     5
  400   398   401     5
  398   401   402     5
  401   402   403     5
  401   402   404     5
  401   402   405     5
  403   402   404     5
  403   402   405     5
  404   402   405     5
  402   405   406     5
  402   405   407     5
  402   405   408     5
  406   405   407     5
  406   405   408     5
  407   405   408     5
  405   408   409     5
  408   409   410     5
  408   409   411     5
  408   409   412     5
  410   409   411     5
  410   409   412     5
  411   409   412     5
  409   412   413     5
  409   412   414     5
  409   412   415     5
  413   412   414     5
  413   412   415     5
  414   412   415     5
  412   415   416     5
  415   416   417     5
  415   416   418     5
  415   416   419     5
  417   416   418     5
  417   416   419     5
  418   416   419     5
  416   419   420     5
  416   419   421     5
  416   419   422     5
  420   419   421     5
  420   419   422     5
  421   419   422     5
  419   422   423     5
  422   423   424     5
  422   423   425     5
  422   423   426     5
  424   423   425     5
  424   423   426     5
  425   423   426     5
  423   426   427     5
  423   426   428     5
  423   426   429     5
  427   426   428     5
  427   426   429     5
  428   426   429     5
  426   429   430     5
  429   430   431     5
  429   430   432     5
  429   430   433     5
  431   430   432     5
  431   430   433     5
  432   430   433     5
  430   433   434     5
  430   433   435     5
  430   433   436     5
  434   433   435     5
  434   433   436     5
  435   433   436     5
  433   436   437     5
  436   437   438     5
  436   437   439     5
  436   437   440     5
  438   437   439     5
  438   437   440     5
  439   437   440     5
  437   440   441     5
  437   440   442     5
  437   440   443     5
  441   440   442     5
  441   440   443     5
  442   440   443     5
  440   443   444     5
  443   444   445     5
  443   444   446     5
  443   444   447     5
  445   444   446     5
  445   444   447     5
  446   444   447     5
  444   447   448     5
  444   447   449     5
  444   447   450     5
  448   447   449     5
  448   447   450     5
  449   447   450     5
  447   450   451     5
  450   451   452     5
  450   451   453     5
  450   451   454     5
  452   451   453     5
  452   451   454     5
  453   451   454     5
  451   454   455     5
  451   454   456     5
  451   454   457     5
  455   454   456     5
  455   454   457     5
  456   454   457     5
  454   457   458     5
  457   458   459     5
  457   458   460     5
  457   458   461     5
  459   458   460     5
  459   458   461     5
  460   458   461     5
  458   461   462     5
  458   461   463     5
  458   461   464     5
  462   461   463     5
  462   461   464     5
  463   461   464     5
  461   464   465     5
  464   465   466     5
  464   465   467     5
  464   465   468     5
  466   465   467     5
  466   465   468     5
  467   465   468     5
  465   468   469     5
  465   468   470     5
  465   468   471     5
  469   468   470     5
  469   468   471     5
  470   468   471     5
  468   471   472     5
  471   472   473     5
  471   472   474     5
  471   472   475     5
  473   472   474     5
  473   472   475     5
  474   472   475     5
  472   475   476     5
  472   475   477     5
  472   475   478     5
  476   475   477     5
  476   475   478     5
  477   475   478     5
  475   478   479     5
  478   479   480     5
  478   479   481     5
  478   479   482     5
  480   479   481     5
  480   479   482     5
  481   479   482     5
  479   482   483     5
  479   482   484     5
  479   482   485     5
  483   482   484     5
  483   482   485     5
  484   482   485     5
  482   485   486     5
  485   486   487     5
  485   486   488     5
  485   486   489     5
  487   486   488     5
  487   486   489     5
  488   486   489     5
  486   489   490     5
  486   489   491     5
  486   489   492     5
  490   489   491     5
  490   489   492     5
  491   489   492     5
  489   492   493     5
  492   493   494     5
  492   493   495     5
  492   493   496     5
  494   493   495     5
  494   493   496     5
  495   493   496     5
  493   496   497     5
  493   496   498     5
  493   496   499     5
  497   496   498     5
  497   496   499     5
  498   496   499     5
  496   499   500     5
  499   500   501     5
  499   500   502     5
  499   500   503     5
  501   500   502     5
  501   500   503     5
  502   500   503     5
  500   503   504     5
  500   503   505     5
  500   503   506     5
  504   503   505     5
  504   503   506     5
  505   503   506     5
  503   506   507     5
  506   507   508     5
  506   507   509     5
  506   507   510     5
  508   507   509     5
  508   507   510     5
  509   507   510     5
  507   510   511     5
  507   510   512     5
  507   510   513     5
  511   510   512     5
  511   510   513     5
  512   510   513     5
  510   513   514     5
  513   514   515     5
  513   514   516     5
  513   514   517     5
  515   514   516     5
  515   514   517     5
  516   514   517     5
  514   517   518     5
  514   517   519     5
  514   517   520     5
  518   517   519     5
  518   517   520     5
  519   517   520     5
  517   520   521     5
  520   521   522     5
  520   521   523     5
  520   521   524     5
  522   521   523     5
  522   521   524     5
  523   521   524     5
  521   524   525     5
  521   524   526     5
  521   524   527     5
  525   524   526     5
  525   524   527     5
  526   524   527     5
  524   527   528     5
  527   528   529     5
  527   528   530     5
  527   528   531     5
  529   528   530     5
  529   528   531     5
  530   528   531     5
  528   531   532     5
  528   531   533     5
  528   531   534     5
  532   531   533     5
  532   531   534     5
  533   531   534     5
  531   534   535     5
  534   535   536     5
  534   535   537     5
  534   535   538     5
  536   535   537     5
  536   535   538     5
  537   535   538     5
  535   538   539     5
  535   538   540     5
  535   538   541     5
  539   538   540     5
  539   538   541     5
  540   538   541     5
  538   541   542     5
  541   542   543     5
  541   542   544     5
  541   542   545     5
  543   542   544     5
  543   542   545     5
  544   542   545     5
  542   545   546     5
  542   545   547     5
  542   545   548     5
  546   545   547     5
  546   545   548     5
  547   545   548     5
  545   548   549     5
  548   549   550     5
  548   549   551     5
  548   549   552     5
  550   549   551     5
  550   549   552     5
  551   549   552     5
  549   552   553     5
  549   552   554     5
  549   552   555     5
  553   552   554     5
  553   552   555     5
  554   552   555     5
  552   555   556     5
  555   556   557     5
  555   556   558     5
  555   556   559     5
  557   556   558     5
  557   556   559     5
  558   556   559     5
  556   559   560     5
  556   559   561     5
  556   559   562     5
  560   559   561     5
  560   559   562     5
  561   559   562     5
  559   562   563     5
  562   563   564     5
  562   563   565     5
  562   563   566     5
  564   563   565     5
  564   563   566     5
  565   563   566     5
  563   566   567     5
  563   566   568     5
  563   566   569     5
  567   566   568     5
  567   566   569     5
  568   566   569     5
  566   569   570     5
  569   570   571     5
  569   570   572     5
  569   570   573     5
  571   570   572     5
  571   570   573     5
  572   570   573     5
  570   573   574     5
  570   573   575     5
  570   573   576     5
  574   573   575     5
  574   573   576     5
  575   573   576     5
  573   576   577     5
  576   577   578     5
  576   577   579     5
  576   577   580     5
  578   577   579     5
  578   577   580     5
  579   577   580     5
  577   580   581     5
  577   580   582     5
  577   580   583     5
  581   580   582     5
  581   580   583     5
  582   580   583     5
  580   583   584     5
  583   584   585     5
  583   584   586     5
  583   584   587     5
  585   584   586     5
  585   584   587     5
  586   584   587     5
  584   587   588     5
  584   587   589     5
  584   587   590     5
  588   587   589     5
  588   587   590     5
  589   587   590     5
  587   590   591     5
  590   591   592     5
  590   591   593     5
  590   591   594     5
  592   591   593     5
  592   591   594     5
  593   591   594     5
  591   594   595     5
  591   594   596     5
  591   594   597     5
  595   594   596     5
  595   594   597     5
  596   594   597     5
  594   597   598     5
  597   598   599     5
  597   598   600     5
  597   598   601     5
  599   598   600     5
  599   598   601     5
  600   598   601     5
  598   601   602     5
  598   601   603     5
  598   601   604     5
  602   601   603     5
  602   601   604     5
  603   601   604     5
  601   604   605     5
  604   605   606     5
  604   605   607     5
  604   605   608     5
  606   605   607     5
  606   605   608     5
  607   605   608     5
  605   608   609     5
  605   608   610     5
  605   608   611     5
  609   608   610     5
  609   608   611     5
  610   608   611     5
  608   611   612     5
  611   612   613     5
  611   612   614     5
  611   612   615     5
  613   612   614     5
  613   612   615     5
  614   612   615     5
  612   615   616     5
  612   615   617     5
  612   615   618     5
  616   615   617     5
  616   615   618     5
  617   615   618     5
  615   618   619     5
  618   619   620     5
  618   619   621     5
  618   619   622     5
  620   619   621     5
  620   619   622     5
  621   619   622     5
  619   622   623     5
  619   622   624     5
  619   622   625     5
  623   622   624     5
  623   622   625     5
  624   622   625     5
  622   625   626     5
  625   626   627     5
  625   626   628     5
  625   626   629     5
  627   626   628     5
  627   626   629     5
  628   626   629     5
  626   629   630     5
  626   629   631     5
  626   629   632     5
  630   629   631     5
  630   629   632     5
  631   629   632     5
  629   632   633     5
  632   633   634     5
  632   633   635     5
  632   633   636     5
  634   633   635     5
  634   633   636     5
  635   633   636     5
  633   636   637     5
  633   636   638     5
  633   636   639     5
  637   636   638     5
  637   636   639     5
  638   636   639     5
  636   639   640     5
  639   640   641     5
  639   640   642     5
  639   640   643     5
  641   640   642     5
  641   640   643     5
  642   640   643     5
  640   643   644     5
  640   643   645     5
  640   643   646     5
  644   643   645     5
  644   643   646     5
  645   643   646     5
  643   646   647     5
  646   647   648     5
  646   647   649     5
  646   647   650     5
  648   647   649     5
  648   647   650     5
  649   647   650     5
  647   650   651     5
  647   650   652     5
  647   650   653     5
  651   650   652     5
  651   650   653     5
  652   650   653     5
  650   653   654     5
  653   654   655     5
  653   654   656     5
  653   654   657     5
  655   654   656     5
  655   654   657     5
  656   654   657     5
  654   657   658     5
  654   657   659     5
  654   657   660     5
  658   657   659     5
  658   657   660     5
  659   657   660     5
  657   660   661     5
  660   661   662     5
  660   661   663     5
  660   661   664     5
  662   661   663     5
  662   661   664     5
  663   661   664     5
  661   664   665     5
  661   664   666     5
  661   664   667     5
  665   664   666     5
  665   664   667     5
  666   664   667     5
  664   667   668     5
  667   668   669     5
  667   668   670     5
  667   668   671     5
  669   668   670     5
  669   668   671     5
  670   668   671     5
  668   671   672     5
  668   671   673     5
  668   671   674     5
  672   671   673     5
  672   671   674     5
  673   671   674     5
  671   674   675     5
  674   675   676     5
  674   675   677     5
  674   675   678     5
  676   675   677     5
  676   675   678     5
  677   675   678     5
  675   678   679     5
  675   678   680     5
  675   678   681     5
  679   678   680     5
  679   678   681     5
  680   678   681     5
  678   681   682     5
  681   682   683     5
  681   682   684     5
  681   682   685     5
  683   682   684     5
  683   682   685     5
  684   682   685     5
  682   685   686     5
  682   685   687     5
  682   685   688     5
  686   685   687     5
  686   685   688     5
  687   685   688     5
  685   688   689     5
  688   689   690     5
  688   689   691     5
  688   689   692     5
  690   689   691     5
  690   689   692     5
  691   689   692     5
  689   692   693     5
  689   692   694     5
  689   692   695     5
  693   692   694     5
  693   692   695     5
  694   692   695     5
  692   695   696     5
  695   696   697     5
  695   696   698     5
  695   696   699     5
  697   696   698     5
  697   696   699     5
  698   696   699     5
  696   699   700     5
  696   699   701     5
  696   699   702     5
  700   699   701     5
  700   699   702     5
  701   699   702     5
  699   702   703     5
  702   703   704     5
  702   703   705     5
  702   703   706     5
  704   703   705     5
  704   703   706     5
  705   703   706     5
  703   706   707     5
  703   706   708     5
  703   706   712     5
  707   706   708     5
  707   706   712     5
  708   706   712     5
  706   708   709     5
  706   708   710     5
  706   708   711     5
  709   708   710     5
  709   708   711     5
  710   708   711     5
  706   712   713     5
  712   713   714     5
  712   713   715     5
  712   713   716     5
  714   713   715     5
  714   713   716     5
  715   713   716     5
  713   716   717     5
  713   716   718     5
  713   716   722     5
  717   716   718     5
  717   716   722     5
  718   716   722     5
  716   718   719     5
  716   718   720     5
  716   718   721     5
  719   718   720     5
  719   718   721     5
  720   718   721     5
  716   722   723     5
  722   723   724     5
  722   723   725     5
  722   723   726     5
  724   723   725     5
  724   723   726     5
  725   723   726     5
  723   726   727     5
  723   726   728     5
  723   726   732     5
  727   726   728     5
  727   726   732     5
  728   726   732     5
  726   728   729     5
  726   728   730     5
  726   728   731     5
  729   728   730     5
  729   728   731     5
  730   728   731     5
  726   732   733     5
  732   733   734     5
  732   733   735     5
  732   733   736     5
  734   733   735     5
  734   733   736     5
  735   733   736     5
  733   736   737     5
  733   736   738     5
  733   736   742     5
  737   736   738     5
  737   736   742     5
  738   736   742     5
  736   738   739     5
  736   738   740     5
  736   738   741     5
  739   738   740     5
  739   738   741     5
  740   738   741     5
  736   742   743     5
  742   743   744     5
  742   743   745     5
  742   743   746     5
  744   743   745     5
  744   743   746     5
  745   743   746     5
  743   746   747     5
  743   746   748     5
  743   746   752     5
  747   746   748     5
  747   746   752     5
  748   746   752     5
  746   748   749     5
  746   748   750     5
  746   748   751     5
  749   748   750     5
  749   748   751     5
  750   748   751     5
  746   752   753     5
  752   753   754     5
  752   753   755     5
  752   753   756     5
  754   753   755     5
  754   753   756     5
  755   753   756     5
  753   756   757     5
  753   756   758     5
  753   756   762     5
  757   756   758     5
  757   756   762     5
  758   756   762     5
  756   758   759     5
  756   758   760     5
  756   758   761     5
  759   758   760     5
  759   758   761     5
  760   758   761     5
  756   762   763     5
  762   763   764     5
  762   763   765     5
  762   763   766     5
  764   763   765     5
  764   763   766     5
  765   763   766     5
  763   766   767     5
  763   766   768     5
  763   766   772     5
  767   766   768     5
  767   766   772     5
  768   766   772     5
  766   768   769     5
  766   768   770     5
  766   768   771     5
  769   768   770     5
  769   768   771     5
  770   768   771     5
  766   772   773     5
  772   773   774     5
  772   773   775     5
  772   773   776     5
  774   773   775     5
  774   773   776     5
  775   773   776     5
  773   776   777     5
  773   776   778     5
  773   776   782     5
  777   776   778     5
  777   776   782     5
  778   776   782     5
  776   778   779     5
  776   778   780     5
  776   778   781     5
  779   778   780     5
  779   778   781     5
  780   778   781     5
  776   782   783     5
  782   783   784     5
  782   783   785     5
  782   783   786     5
  784   783   785     5
  784   783   786     5
  785   783   786     5
  783   786   787     5
  783   786   788     5
  783   786   792     5
  787   786   788     5
  787   786   792     5
  788   786   792     5
  786   788   789     5
  786   788   790     5
  786   788   791     5
  789   788   790     5
  789   788   791     5
  790   788   791     5
  786   792   793     5
  792   793   794     5
  792   793   795     5
  792   793   796     5
  794   793   795     5
  794   793   796     5
  795   793   796     5
  793   796   797     5
  793   796   798     5
  793   796   802     5
  797   796   798     5
  797   796   802     5
  798   796   802     5
  796   798   799     5
  796   798   800     5
  796   798   801     5
  799   798   800     5
  799   798   801     5
  800   798   801     5
  796   802   803     5
  802   803   804     5
  802   803   805     5
  802   803   806     5
  804   803   805     5
  804   803   806     5
  805   803   806     5
  803   806   807     5
  803   806   808     5
  803   806   812     5
  807   806   808     5
  807   806   812     5
  808   806   812     5
  806   808   809     5
  806   808   810     5
  806   808   811     5
  809   808   810     5
  809   808   811     5
  810   808   811     5
  806   812   813     5
  812   813   814     5
  812   813   815     5
  812   813   816     5
  814   813   815     5
  814   813   816     5
  815   813   816     5
  813   816   817     5
  813   816   818     5
  813   816   822     5
  817   816   818     5
  817   816   822     5
  818   816   822     5
  816   818   819     5
  816   818   820     5
  816   818   821     5
  819   818   820     5
  819   818   821     5
  820   818   821     5
  816   822   823     5
  822   823   824     5
  822   823   825     5
  822   823   826     5
  824   823   825     5
  824   823   826     5
  825   823   826     5
  823   826   827     5
  823   826   828     5
  823   826   832     5
  827   826   828     5
  827   826   832     5
  828   826   832     5
  826   828   829     5
  826   828   830     5
  826   828   831     5
  829   828   830     5
  829   828   831     5
  830   828   831     5
  826   832   833     5
  832   833   834     5
  832   833   835     5
  832   833   836     5
  834   833   835     5
  834   833   836     5
  835   833   836     5
  833   836   837     5
  833   836   838     5
  833   836   842     5
  837   836   838     5
  837   836   842     5
  838   836   842     5
  836   838   839     5
  836   838   840     5
  836   838   841     5
  839   838   840     5
  839   838   841     5
  840   838   841     5
  836   842   843     5
  842   843   844     5
  842   843   845     5
  842   843   846     5
  844   843   845     5
  844   843   846     5
  845   843   846     5
  843   846   847     5
  843   846   848     5
  843   846   852     5
  847   846   848     5
  847   846   852     5
  848   846   852     5
  846   848   849     5
  846   848   850     5
  846   848   851     5
  849   848   850     5
  849   848   851     5
  850   848   851     5
  846   852   853     5
  852   853   854     5
  852   853   855     5
  852   853   856     5
  854   853   855     5
  854   853   856     5
  855   853   856     5
  853   856   857     5
  853   856   858     5
  853   856   862     5
  857   856   858     5
  857   856   862     5
  858   856   862     5
  856   858   859     5
  856   858   860     5
  856   858   861     5
  859   858   860     5
  859   858   861     5
  860   858   861     5
  856   862   863     5
  862   863   864     5
  862   863   865     5
  862   863   866     5
  864   863   865     5
  864   863   866     5
  865   863   866     5
  863   866   867     5
  863   866   868     5
  863   866   872     5
  867   866   868     5
  867   866   872     5
  868   866   872     5
  866   868   869     5
  866   868   870     5
  866   868   871     5
  869   868   870     5
  869   868   871     5
  870   868   871     5
  866   872   873     5
  872   873   874     5
  872   873   875     5
  872   873   876     5
  874   873   875     5
  874   873   876     5
  875   873   876     5
  873   876   877     5
  873   876   878     5
  873   876   882     5
  877   876   878     5
  877   876   882     5
  878   876   882     5
  876   878   879     5
  876   878   880     5
  876   878   881     5
  879   878   880     5
  879   878   881     5
  880   878   881     5
  876   882   883     5
  882   883   884     5
  882   883   885     5
  882   883   886     5
  884   883   885     5
  884   883   886     5
  885   883   886     5
  883   886   887     5
  883   886   888     5
  883   886   892     5
  887   886   888     5
  887   886   892     5
  888   886   892     5
  886   888   889     5
  886   888   890     5
  886   888   891     5
  889   888   890     5
  889   888   891     5
  890   888   891     5
  886   892   893     5
  892   893   894     5
  892   893   895     5
  892   893   896     5
  894   893   895     5
  894   893   896     5
  895   893   896     5
  893   896   897     5
  893   896   898     5
  893   896   902     5
  897   896   898     5
  897   896   902     5
  898   896   902     5
  896   898   899     5
  896   898   900     5
  896   898   901     5
  899   898   900     5
  899   898   901     5
  900   898   901     5
  896   902   903     5
  902   903   904     5
  902   903   905     5
  902   903   906     5
  904   903   905     5
  904   903   906     5
  905   903   906     5
  903   906   907     5
  903   906   908     5
  903   906   912     5
  907   906   908     5
  907   906   912     5
  908   906   912     5
  906   908   909     5
  906   908   910     5
  906   908   911     5
  909   908   910     5
  909   908   911     5
  910   908   911     5
  906   912   913     5
  912   913   914     5
  912   913   915     5
  912   913   916     5
  914   913   915     5
  914   913   916     5
  915   913   916     5
  913   916   917     5
  913   916   918     5
  913   916   922     5
  917   916   918     5
  917   916   922     5
  918   916   922     5
  916   918   919     5
  916   918   920     5
  916   918   921     5
  919   918   920     5
  919   918   921     5
  920   918   921     5
  916   922   923     5
  922   923   924     5
  922   923   925     5
  922   923   926     5
  924   923   925     5
  924   923   926     5
  925   923   926     5
  923   926   927     5
  923   926   928     5
  923   926   932     5
  927   926   928     5
  927   926   932     5
  928   926   932     5
  926   928   929     5
  926   928   930     5
  926   928   931     5
  929   928   930     5
  929   928   931     5
  930   928   931     5
  926   932   933     5
  932   933   934     5
  932   933   935     5
  932   933   936     5
  934   933   935     5
  934   933   936     5
  935   933   936     5
  933   936   937     5
  933   936   938     5
  933   936   942     5
  937   936   938     5
  937   936   942     5
  938   936   942     5
  936   938   939     5
  936   938   940     5
  936   938   941     5
  939   938   940     5
  939   938   941     5
  940   938   941     5
  936   942   943     5
  942   943   944     5
  942   943   945     5
  942   943   946     5
  944   943   945     5
  944   943   946     5
  945   943   946     5
  943   946   947     5
  943   946   948     5
  943   946   952     5
  947   946   948     5
  947   946   952     5
  948   946   952     5
  946   948   949     5
  946   948   950     5
  946   948   951     5
  949   948   950     5
  949   948   951     5
  950   948   951     5
  946   952   953     5
  952   953   954     5
  952   953   955     5
  952   953   956     5
  954   953   955     5
  954   953   956     5
  955   953   956     5
  953   956   957     5
  953   956   958     5
  953   956   962     5
  957   956   958     5
  957   956   962     5
  958   956   962     5
  956   958   959     5
  956   958   960     5
  956   958   961     5
  959   958   960     5
  959   958   961     5
  960   958   961     5
  956   962   963     5
  962   963   964     5
  962   963   965     5
  962   963   966     5
  964   963   965     5
  964   963   966     5
  965   963   966     5
  963   966   967     5
  963   966   968     5
  963   966   972     5
  967   966   968     5
  967   966   972     5
  968   966   972     5
  966   968   969     5
  966   968   970     5
  966   968   971     5
  969   968   970     5
  969   968   971     5
  970   968   971     5
  966   972   973     5
  972   973   974     5
  972   973   975     5
  972   973   976     5
  974   973   975     5
  974   973   976     5
  975   973   976     5
  973   976   977     5
  973   976   978     5
  973   976   982     5
  977   976   978     5
  977   976   982     5
  978   976   982     5
  976   978   979     5
  976   978   980     5
  976   978   981     5
  979   978   980     5
  979   978   981     5
  980   978   981     5
  976   982   983     5
  982   983   984     5
  982   983   985     5
  982   983   986     5
  984   983   985     5
  984   983   986     5
  985   983   986     5
  983   986   987     5
  983   986   988     5
  983   986   992     5
  987   986   988     5
  987   986   992     5
  988   986   992     5
  986   988   989     5
  986   988   990     5
  986   988   991     5
  989   988   990     5
  989   988   991     5
  990   988   991     5
  986   992   993     5
  992   993   994     5
  992   993   995     5
  992   993   996     5
  994   993   995     5
  994   993   996     5
  995   993   996     5
  993   996   997     5
  993   996   998     5
  993   996  1002     5
  997   996   998     5
  997   996  1002     5
  998   996  1002     5
  996   998   999     5
  996   998  1000     5
  996   998  1001     5
  999   998  1000     5
  999   998  1001     5
 1000   998  1001     5
  996  1002  1003     5
 1002  1003  1004     5
 1002  1003  1005     5
 1002  1003  1006     5
 1004  1003  1005     5
 1004  1003  1006     5
 1005  1003  1006     5
 1003  1006  1007     5
 1003  1006  1008     5
 1003  1006  1012     5
 1007  1006  1008     5
 1007  1006  1012     5
 1008  1006  1012     5
 1006  1008  1009     5
 1006  1008  1010     5
 1006  1008  1011     5
 1009  1008  1010     5
 1009  1008  1011     5
 1010  1008  1011     5
 1006  1012  1013     5
 1012  1013  1014     5
 1012  1013  1015     5
 1012  1013  1016     5
 1014  1013  1015     5
 1014  1013  1016     5
 1015  1013  1016     5
 1013  1016  1017     5
 1013  1016  1018     5
 1013  1016  1022     5
 1017  1016  1018     5
 1017  1016  1022     5
 1018  1016  1022     5
 1016  1018  1019     5
 1016  1018  1020     5
 1016  1018  1021     5
 1019  1018  1020     5
 1019  1018  1021     5
 1020  1018  1021     5
 1016  1022  1023     5
 1022  1023  1024     5
 1022  1023  1025     5
 1022  1023  1026     5
 1024  1023  1025     5
 1024  1023  1026     5
 1025  1023  1026     5
 1023  1026  1027     5
 1023  1026  1028     5
 1023  1026  1032     5
 1027  1026  1028     5
 1027  1026  1032     5
 1028  1026  1032     5
 1026  1028  1029     5
 1026  1028  1030     5
 1026  1028  1031     5
 1029  1028  1030     5
 1029  1028  1031     5
 1030  1028  1031     5
 1026  1032  1033     5
 1032  1033  1034     5
 1032  1033  1035     5
 1032  1033  1036     5
 1034  1033  1035     5
 1034  1033  1036     5
 1035  1033  1036     5
 1033  1036  1037     5
 1033  1036  1038     5
 1033  1036  1042     5
 1037  1036  1038     5
 1037  1036  1042     5
 1038  1036  1042     5
 1036  1038  1039     5
 1036  1038  1040     5
 1036  1038  1041     5
 1039  1038  1040     5
 1039  1038  1041     5
 1040  1038  1041     5
 1036  1042  1043     5
 1042  1043  1044     5
 1042  1043  1045     5
 1042  1043  1046     5
 1044  1043  1045     5
 1044  1043  1046     5
 1045  1043  1046     5
 1043  1046  1047     5
 1043  1046  1048     5
 1043  1046  1052     5
 1047  1046  1048     5
 1047  1046  1052     5
 1048  1046  1052     5
 1046  1048  1049     5
 1046  1048  1050     5
 1046  1048  1051     5
 1049  1048  1050     5
 1049  1048  1051     5
 1050  1048  1051     5
 1046  1052  1053     5
 1052  1053  1054     5
 1052  1053  1055     5
 1052  1053  1056     5
 1054  1053  1055     5
 1054  1053  1056     5
 1055  1053  1056     5
 1053  1056  1057     5
 1053  1056  1058     5
 1053  1056  1062     5
 1057  1056  1058     5
 1057  1056  1062     5
 1058  1056  1062     5
 1056  1058  1059     5
 1056  1058  1060     5
 1056  1058  1061     5
 1059  1058  1060     5
 1059  1058  1061     5
 1060  1058  1061     5
 1056  1062  1063     5
 1062  1063  1064     5
 1062  1063  1065     5
 1062  1063  1066     5
 1064  1063  1065     5
 1064  1063  1066     5
 1065  1063  1066     5
 1063  1066  1067     5
 1063  1066  1068     5
 1063  1066  1072     5
 1067  1066  1068     5
 1067  1066  1072     5
 1068  1066  1072     5
 1066  1068  1069     5
 1066  1068  1070     5
 1066  1068  1071     5
 1069  1068  1070     5
 1069  1068  1071     5
 1070  1068  1071     5
 1066  1072  1073     5
 1072  1073  1074     5
 1072  1073  1075     5
 1072  1073  1076     5
 1074  1073  1075     5
 1074  1073  1076     5
 1075  1073  1076     5
 1073  1076  1077     5
 1073  1076  1078     5
 1073  1076  1082     5
 1077  1076  1078     5
 1077  1076  1082     5
 1078  1076  1082     5
 1076  1078  1079     5
 1076  1078  1080     5
 1076  1078  1081     5
 1079  1078  1080     5
 1079  1078  1081     5
 1080  1078  1081     5
 1076  1082  1083     5
 1082  1083  1084     5
 1082  1083  1085     5
 1082  1083  1086     5
 1084  1083  1085     5
 1084  1083  1086     5
 1085  1083  1086     5
 1083  1086  1087     5
 1083  1086  1088     5
 1083  1086  1092     5
 1087  1086  1088     5
 1087  1086  1092     5
 1088  1086  1092     5
 1086  1088  1089     5
 1086  1088  1090     5
 1086  1088  1091     5
 1089  1088  1090     5
 1089  1088  1091     5
 1090  1088  1091     5
 1086  1092  1093     5
 1092  1093  1094     5
 1092  1093  1095     5
 1092  1093  1096     5
 1094  1093  1095     5
 1094  1093  1096     5
 1095  1093  1096     5
 1093  1096  1097     5
 1093  1096  1098     5
 1093  1096  1102     5
 1097  1096  1098     5
 1097  1096  1102     5
 1098  1096  1102     5
 1096  1098  1099     5
 1096  1098  1100     5
 1096  1098  1101     5
 1099  1098  1100     5
 1099  1098  1101     5
 1100  1098  1101     5
 1096  1102  1103     5
 1102  1103  1104     5
 1102  1103  1105     5
 1102  1103  1106     5
 1104  1103  1105     5
 1104  1103  1106     5
 1105  1103  1106     5
 1103  1106  1107     5
 1103  1106  1108     5
 1103  1106  1112     5
 1107  1106  1108     5
 1107  1106  1112     5
 1108  1106  1112     5
 1106  1108  1109     5
 1106  1108  1110     5
 1106  1108  1111     5
 1109  1108  1110     5
 1109  1108  1111     5
 1110  1108  1111     5
 1106  1112  1113     5
 1112  1113  1114     5
 1112  1113  1115     5
 1112  1113  1116     5
 1114  1113  1115     5
 1114  1113  1116     5
 1115  1113  1116     5
 1113  1116  1117     5
 1113  1116  1118     5
 1113  1116  1122     5
 1117  1116  1118     5
 1117  1116  1122     5
 1118  1116  1122     5
 1116  1118  1119     5
 1116  1118  1120     5
 1116  1118  1121     5
 1119  1118  1120     5
 1119  1118  1121     5
 1120  1118  1121     5
 1116  1122  1123     5
 1122  1123  1124     5
 1122  1123  1125     5
 1122  1123  1126     5
 1124  1123  1125     5
 1124  1123  1126     5
 1125  1123  1126     5
 1123  1126  1127     5
 1123  1126  1128     5
 1123  1126  1132     5
 1127  1126  1128     5
 1127  1126  1132     5
 1128  1126  1132     5
 1126  1128  1129     5
 1126  1128  1130     5
 1126  1128  1131     5
 1129  1128  1130     5
 1129  1128  1131     5
 1130  1128  1131     5
 1126  1132  1133     5
 1132  1133  1134     5
 1132  1133  1135     5
 1132  1133  1136     5
 1134  1133  1135     5
 1134  1133  1136     5
 1135  1133  1136     5
 1133  1136  1137     5
 1133  1136  1138     5
 1133  1136  1142     5
 1137  1136  1138     5
 1137  1136  1142     5
 1138  1136  1142     5
 1136  1138  1139     5
 1136  1138  1140     5
 1136  1138  1141     5
 1139  1138  1140     5
 1139  1138  1141     5
 1140  1138  1141     5
 1136  1142  1143     5
 1142  1143  1144     5
 1142  1143  1145     5
 1142  1143  1146     5
 1144  1143  1145     5
 1144  1143  1146     5
 1145  1143  1146     5
 1143  1146  1147     5
 1143  1146  1148     5
 1143  1146  1152     5
 1147  1146  1148     5
 1147  1146  1152     5
 1148  1146  1152     5
 1146  1148  1149     5
 1146  1148  1150     5
 1146  1148  1151     5
 1149  1148  1150     5
 1149  1148  1151     5
 1150  1148  1151     5
 1146  1152  1153     5
 1152  1153  1154     5
 1152  1153  1155     5
 1152  1153  1156     5
 1154  1153  1155     5
 1154  1153  1156     5
 1155  1153  1156     5
 1153  1156  1157     5
 1153  1156  1158     5
 1153  1156  1162     5
 1157  1156  1158     5
 1157  1156  1162     5
 1158  1156  1162     5
 1156  1158  1159     5
 1156  1158  1160     5
 1156  1158  1161     5
 1159  1158  1160     5
 1159  1158  1161     5
 1160  1158  1161     5
 1156  1162  1163     5
 1162  1163  1164     5
 1162  1163  1165     5
 1162  1163  1166     5
 1164  1163  1165     5
 1164  1163  1166     5
 1165  1163  1166     5
 1163  1166  1167     5
 1163  1166  1168     5
 1163  1166  1172     5
 1167  1166  1168     5
 1167  1166  1172     5
 1168  1166  1172     5
 1166  1168  1169     5
 1166  1168  1170     5
 1166  1168  1171     5
 1169  1168  1170     5
 1169  1168  1171     5
 1170  1168  1171     5
 1166  1172  1173     5
 1172  1173  1174     5
 1172  1173  1175     5
 1172  1173  1176     5
 1174  1173  1175     5
 1174  1173  1176     5
 1175  1173  1176     5
 1173  1176  1177     5
 1173  1176  1178     5
 1173  1176  1182     5
 1177  1176  1178     5
 1177  1176  1182     5
 1178  1176  1182     5
 1176  1178  1179     5
 1176  1178  1180     5
 1176  1178  1181     5
 1179  1178  1180     5
 1179  1178  1181     5
 1180  1178  1181     5
 1176  1182  1183     5
 1182  1183  1184     5
 1182  1183  1185     5
 1182  1183  1186     5
 1184  1183  1185     5
 1184  1183  1186     5
 1185  1183  1186     5
 1183  1186  1187     5
 1183  1186  1188     5
 1183  1186  1192     5
 1187  1186  1188     5
 1187  1186  1192     5
 1188  1186  1192     5
 1186  1188  1189     5
 1186  1188  1190     5
 1186  1188  1191     5
 1189  1188  1190     5
 1189  1188  1191     5
 1190  1188  1191     5
 1186  1192  1193     5
 1192  1193  1194     5
 1192  1193  1195     5
 1192  1193  1196     5
 1194  1193  1195     5
 1194  1193  1196     5
 1195  1193  1196     5
 1193  1196  1197     5
 1193  1196  1198     5
 1193  1196  1202     5
 1197  1196  1198     5
 1197  1196  1202     5
 1198  1196  1202     5
 1196  1198  1199     5
 1196  1198  1200     5
 1196  1198  1201     5
 1199  1198  1200     5
 1199  1198  1201     5
 1200  1198  1201     5
 1196  1202  1203     5
 1202  1203  1204     5
 1202  1203  1205     5
 1202  1203  1206     5
 1204  1203  1205     5
 1204  1203  1206     5
 1205  1203  1206     5
 1203  1206  1207     5
 1203  1206  1208     5
 1203  1206  1212     5
 1207  1206  1208     5
 1207  1206  1212     5
 1208  1206  1212     5
 1206  1208  1209     5
 1206  1208  1210     5
 1206  1208  1211     5
 1209  1208  1210     5
 1209  1208  1211     5
 1210  1208  1211     5
 1206  1212  1213     5
 1212  1213  1214     5
 1212  1213  1215     5
 1212  1213  1216     5
 1214  1213  1215     5
 1214  1213  1216     5
 1215  1213  1216     5
 1213  1216  1217     5
 1213  1216  1218     5
 1213  1216  1222     5
 1217  1216  1218     5
 1217  1216  1222     5
 1218  1216  1222     5
 1216  1218  1219     5
 1216  1218  1220     5
 1216  1218  1221     5
 1219  1218  1220     5
 1219  1218  1221     5
 1220  1218  1221     5
 1216  1222  1223     5
 1222  1223  1224     5
 1222  1223  1225     5
 1222  1223  1226     5
 1224  1223  1225     5
 1224  1223  1226     5
 1225  1223  1226     5
 1223  1226  1227     5
 1223  1226  1228     5
 1223  1226  1232     5
 1227  1226  1228     5
 1227  1226  1232     5
 1228  1226  1232     5
 1226  1228  1229     5
 1226  1228  1230     5
 1226  1228  1231     5
 1229  1228  1230     5
 1229  1228  1231     5
 1230  1228  1231     5
 1226  1232  1233     5
 1232  1233  1234     5
 1232  1233  1235     5
 1232  1233  1236     5
 1234  1233  1235     5
 1234  1233  1236     5
 1235  1233  1236     5
 1233  1236  1237     5
 1233  1236  1238     5
 1233  1236  1242     5
 1237  1236  1238     5
 1237  1236  1242     5
 1238  1236  1242     5
 1236  1238  1239     5
 1236  1238  1240     5
 1236  1238  1241     5
 1239  1238  1240     5
 1239  1238  1241     5
 1240  1238  1241     5
 1236  1242  1243     5
 1242  1243  1244     5
 1242  1243  1245     5
 1242  1243  1246     5
 1244  1243  1245     5
 1244  1243  1246     5
 1245  1243  1246     5
 1243  1246  1247     5
 1243  1246  1248     5
 1243  1246  1252     5
 1247  1246  1248     5
 1247  1246  1252     5
 1248  1246  1252     5
 1246  1248  1249     5
 1246  1248  1250     5
 1246  1248  1251     5
 1249  1248  1250     5
 1249  1248  1251     5
 1250  1248  1251     5
 1246  1252  1253     5
 1252  1253  1254     5
 1252  1253  1255     5
 1252  1253  1256     5
 1254  1253  1255     5
 1254  1253  1256     5
 1255  1253  1256     5
 1253  1256  1257     5
 1253  1256  1258     5
 1253  1256  1262     5
 1257  1256  1258     5
 1257  1256  1262     5
 1258  1256  1262     5
 1256  1258  1259     5
 1256  1258  1260     5
 1256  1258  1261     5
 1259  1258  1260     5
 1259  1258  1261     5
 1260  1258  1261     5
 1256  1262  1263     5
 1262  1263  1264     5
 1262  1263  1265     5
 1262  1263  1266     5
 1264  1263  1265     5
 1264  1263  1266     5
 1265  1263  1266     5
 1263  1266  1267     5
 1263  1266  1268     5
 1263  1266  1272     5
 1267  1266  1268     5
 1267  1266  1272     5
 1268  1266  1272     5
 1266  1268  1269     5
 1266  1268  1270     5
 1266  1268  1271     5
 1269  1268  1270     5
 1269  1268  1271     5
 1270  1268  1271     5
 1266  1272  1273     5
 1272  1273  1274     5
 1272  1273  1275     5
 1272  1273  1276     5
 1274  1273  1275     5
 1274  1273  1276     5
 1275  1273  1276     5
 1273  1276  1277     5
 1273  1276  1278     5
 1273  1276  1282     5
 1277  1276  1278     5
 1277  1276  1282     5
 1278  1276  1282     5
 1276  1278  1279     5
 1276  1278  1280     5
 1276  1278  1281     5
 1279  1278  1280     5
 1279  1278  1281     5
 1280  1278  1281     5
 1276  1282  1283     5
 1282  1283  1284     5
 1282  1283  1285     5
 1282  1283  1286     5
 1284  1283  1285     5
 1284  1283  1286     5
 1285  1283  1286     5
 1283  1286  1287     5
 1283  1286  1288     5
 1283  1286  1292     5
 1287  1286  1288     5
 1287  1286  1292     5
 1288  1286  1292     5
 1286  1288  1289     5
 1286  1288  1290     5
 1286  1288  1291     5
 1289  1288  1290     5
 1289  1288  1291     5
 1290  1288  1291     5
 1286  1292  1293     5
 1292  1293  1294     5
 1292  1293  1295     5
 1292  1293  1296     5
 1294  1293  1295     5
 1294  1293  1296     5
 1295  1293  1296     5
 1293  1296  1297     5
 1293  1296  1298     5
 1293  1296  1302     5
 1297  1296  1298     5
 1297  1296  1302     5
 1298  1296  1302     5
 1296  1298  1299     5
 1296  1298  1300     5
 1296  1298  1301     5
 1299  1298  1300     5
 1299  1298  1301     5
 1300  1298  1301     5
 1296  1302  1303     5
 1302  1303  1304     5
 1302  1303  1305     5
 1302  1303  1306     5
 1304  1303  1305     5
 1304  1303  1306     5
 1305  1303  1306     5
 1303  1306  1307     5
 1303  1306  1308     5
 1303  1306  1312     5
 1307  1306  1308     5
 1307  1306  1312     5
 1308  1306  1312     5
 1306  1308  1309     5
 1306  1308  1310     5
 1306  1308  1311     5
 1309  1308  1310     5
 1309  1308  1311     5
 1310  1308  1311     5
 1306  1312  1313     5
 1312  1313  1314     5
 1312  1313  1315     5
 1312  1313  1316     5
 1314  1313  1315     5
 1314  1313  1316     5
 1315  1313  1316     5
 1313  1316  1317     5
 1313  1316  1318     5
 1313  1316  1322     5
 1317  1316  1318     5
 1317  1316  1322     5
 1318  1316  1322     5
 1316  1318  1319     5
 1316  1318  1320     5
 1316  1318  1321     5
 1319  1318  1320     5
 1319  1318  1321     5
 1320  1318  1321     5
 1316  1322  1323     5
 1322  1323  1324     5
 1322  1323  1325     5
 1322  1323  1326     5
 1324  1323  1325     5
 1324  1323  1326     5
 1325  1323  1326     5
 1323  1326  1327     5
 1323  1326  1328     5
 1323  1326  1332     5
 1327  1326  1328     5
 1327  1326  1332     5
 1328  1326  1332     5
 1326  1328  1329     5
 1326  1328  1330     5
 1326  1328  1331     5
 1329  1328  1330     5
 1329  1328  1331     5
 1330  1328  1331     5
 1326  1332  1333     5
 1332  1333  1334     5
 1332  1333  1335     5
 1332  1333  1336     5
 1334  1333  1335     5
 1334  1333  1336     5
 1335  1333  1336     5
 1333  1336  1337     5
 1333  1336  1338     5
 1333  1336  1342     5
 1337  1336  1338     5
 1337  1336  1342     5
 1338  1336  1342     5
 1336  1338  1339     5
 1336  1338  1340     5
 1336  1338  1341     5
 1339  1338  1340     5
 1339  1338  1341     5
 1340  1338  1341     5
 1336  1342  1343     5
 1342  1343  1344     5
 1342  1343  1345     5
 1342  1343  1346     5
 1344  1343  1345     5
 1344  1343  1346     5
 1345  1343  1346     5
 1343  1346  1347     5
 1343  1346  1348     5
 1343  1346  1352     5
 1347  1346  1348     5
 1347  1346  1352     5
 1348  1346  1352     5
 1346  1348  1349     5
 1346  1348  1350     5
 1346  1348  1351     5
 1349  1348  1350     5
 1349  1348  1351     5
 1350  1348  1351     5
 1346  1352  1353     5
 1352  1353  1354     5
 1352  1353  1355     5
 1352  1353  1356     5
 1354  1353  1355     5
 1354  1353  1356     5
 1355  1353  1356     5
 1353  1356  1357     5
 1353  1356  1358     5
 1353  1356  1359     5
 1357  1356  1358     5
 1357  1356  1359     5
 1358  1356  1359     5
 1356  1359  1360     5
 1359  1360  1361     5
 1359  1360  1362     5
 1359  1360  1363     5
 1361  1360  1362     5
 1361  1360  1363     5
 1362  1360  1363     5
 1360  1363  1364     5
 1360  1363  1365     5
 1360  1363  1366     5
 1364  1363  1365     5
 1364  1363  1366     5
 1365  1363  1366     5
 1363  1366  1367     5
 1366  1367  1368     5
 1366  1367  1369     5
 1366  1367  1370     5
 1368  1367  1369     5
 1368  1367  1370     5
 1369  1367  1370     5
 1367  1370  1371     5
 1367  1370  1372     5
 1367  1370  1373     5
 1371  1370  1372     5
 1371  1370  1373     5
 1372  1370  1373     5
 1370  1373  1374     5
 1373  1374  1375     5
 1373  1374  1376     5
 1373  1374  1377     5
 1375  1374  1376     5
 1375  1374  1377     5
 1376  1374  1377     5
 1374  1377  1378     5
 1374  1377  1379     5
 1374  1377  1380     5
 1378  1377  1379     5
 1378  1377  1380     5
 1379  1377  1380     5
 1377  1380  1381     5
 1380  1381  1382     5
 1380  1381  1383     5
 1380  1381  1384     5
 1382  1381  1383     5
 1382  1381  1384     5
 1383  1381  1384     5
 1381  1384  1385     5
 1381  1384  1386     5
 1381  1384  1387     5
 1385  1384  1386     5
 1385  1384  1387     5
 1386  1384  1387     5
 1384  1387  1388     5
 1387  1388  1389     5
 1387  1388  1390     5
 1387  1388  1391     5
 1389  1388  1390     5
 1389  1388  1391     5
 1390  1388  1391     5
 1388  1391  1392     5
 1388  1391  1393     5
 1388  1391  1394     5
 1392  1391  1393     5
 1392  1391  1394     5
 1393  1391  1394     5
 1391  1394  1395     5
 1394  1395  1396     5
 1394  1395  1397     5
 1394  1395  1398     5
 1396  1395  1397     5
 1396  1395  1398     5
 1397  1395  1398     5
 1395  1398  1399     5
 1395  1398  1400     5
 1395  1398  1401     5
 1399  1398  1400     5
 1399  1398  1401     5
 1400  1398  1401     5
 1398  1401  1402     5
 1401  1402  1403     5
 1401  1402  1404     5
 1401  1402  1405     5
 1403  1402  1404     5
 1403  1402  1405     5
 1404  1402  1405     5
 1402  1405  1406     5
 1402  1405  1407     5
 1402  1405  1408     5
 1406  1405  1407     5
 1406  1405  1408     5
 1407  1405  1408     5
 1405  1408  1409     5
 1408  1409  1410     5
 1408  1409  1411     5
 1408  1409  1412     5
 1410  1409  1411     5
 1410  1409  1412     5
 1411  1409  1412     5
 1409  1412  1413     5
 1409  1412  1414     5
 1409  1412  1415     5
 1413  1412  1414     5
 1413  1412  1415     5
 1414  1412  1415     5
 1412  1415  1416     5
 1415  1416  1417     5
 1415  1416  1418     5
 1415  1416  1419     5
 1417  1416  1418     5
 1417  1416  1419     5
 1418  1416  1419     5
 1416  1419  1420     5
 1416  1419  1421     5
 1416  1419  1422     5
 1420  1419  1421     5
 1420  1419  1422     5
 1421  1419  1422     5
 1419  1422  1423     5
 1422  1423  1424     5
 1422  1423  1425     5
 1422  1423  1426     5
 1424  1423  1425     5
 1424  1423  1426     5
 1425  1423  1426     5
 1423  1426  1427     5
 1423  1426  1428     5
 1423  1426  1429     5
 1427  1426  1428     5
 1427  1426  1429     5
 1428  1426  1429     5
 1426  1429  1430     5
 1429  1430  1431     5
 1429  1430  1432     5
 1429  1430  1433     5
 1431  1430  1432     5
 1431  1430  1433     5
 1432  1430  1433     5
 1430  1433  1434     5
 1430  1433  1435     5
 1430  1433  1436     5
 1434  1433  1435     5
 1434  1433  1436     5
 1435  1433  1436     5
 1433  1436  1437     5
 1436  1437  1438     5
 1436  1437  1439     5
 1436  1437  1440     5
 1438  1437  1439     5
 1438  1437  1440     5
 1439  1437  1440     5
 1437  1440  1441     5
 1437  1440  1442     5
 1437  1440  1443     5
 1441  1440  1442     5
 1441  1440  1443     5
 1442  1440  1443     5
 1440  1443  1444     5
 1443  1444  1445     5
 1443  1444  1446     5
 1443  1444  1447     5
 1445  1444  1446     5
 1445  1444  1447     5
 1446  1444  1447     5
 1444  1447  1448     5
 1444  1447  1449     5
 1444  1447  1450     5
 1448  1447  1449     5
 1448  1447  1450     5
 1449  1447  1450     5
 1447  1450  1451     5
 1450  1451  1452     5
 1450  1451  1453     5
 1450  1451  1454     5
 1452  1451  1453     5
 1452  1451  1454     5
 1453  1451  1454     5
 1451  1454  1455     5
 1451  1454  1456     5
 1451  1454  1457     5
 1455  1454  1456     5
 1455  1454  1457     5
 1456  1454  1457     5
 1454  1457  1458     5
 1457  1458  1459     5
 1457  1458  1460     5
 1457  1458  1461     5
 1459  1458  1460     5
 1459  1458  1461     5
 1460  1458  1461     5
 1458  1461  1462     5
 1458  1461  1463     5
 1458  1461  1464     5
 1462  1461  1463     5
 1462  1461  1464     5
 1463  1461  1464     5
 1461  1464  1465     5
 1464  1465  1466     5
 1464  1465  1467     5
 1464  1465  1468     5
 1466  1465  1467     5
 1466  1465  1468     5
 1467  1465  1468     5
 1465  1468  1469     5
 1465  1468  1470     5
 1465  1468  1471     5
 1469  1468  1470     5
 1469  1468  1471     5
 1470  1468  1471     5
 1468  1471  1472     5
 1471  1472  1473     5
 1471  1472  1474     5
 1471  1472  1475     5
 1473  1472  1474     5
 1473  1472  1475     5
 1474  1472  1475     5
 1472  1475  1476     5
 1472  1475  1477     5
 1472  1475  1478     5
 1476  1475  1477     5
 1476  1475  1478     5
 1477  1475  1478     5
 1475  1478  1479     5
 1478  1479  1480     5
 1478  1479  1481     5
 1478  1479  1482     5
 1480  1479  1481     5
 1480  1479  1482     5
 1481  1479  1482     5
 1479  1482  1483     5
 1479  1482  1484     5
 1479  1482  1485     5
 1483  1482  1484     5
 1483  1482  1485     5
 1484  1482  1485     5
 1482  1485  1486     5
 1485  1486  1487     5
 1485  1486  1488     5
 1485  1486  1489     5
 1487  1486  1488     5
 1487  1486  1489     5
 1488  1486  1489     5
 1486  1489  1490     5
 1486  1489  1491     5
 1486  1489  1492     5
 1490  1489  1491     5
 1490  1489  1492     5
 1491  1489  1492     5
 1489  1492  1493     5
 1492  1493  1494     5
 1492  1493  1495     5
 1492  1493  1496     5
 1494  1493  1495     5
 1494  1493  1496     5
 1495  1493  1496     5
 1493  1496  1497     5
 1493  1496  1498     5
 1493  1496  1499     5
 1497  1496  1498     5
 1497  1496  1499     5
 1498  1496  1499     5
 1496  1499  1500     5
 1499  1500  1501     5
 1499  1500  1502     5
 1499  1500  1503     5
 1501  1500  1502     5
 1501  1500  1503     5
 1502  1500  1503     5
 1500  1503  1504     5
 1500  1503  1505     5
 1500  1503  1506     5
 1504  1503  1505     5
 1504  1503  1506     5
 1505  1503  1506     5
 1503  1506  1507     5
 1506  1507  1508     5
 1506  1507  1509     5
 1506  1507  1510     5
 1508  1507  1509     5
 1508  1507  1510     5
 1509  1507  1510     5
 1507  1510  1511     5
 1507  1510  1512     5
 1507  1510  1513     5
 1511  1510  1512     5
 1511  1510  1513     5
 1512  1510  1513     5
 1510  1513  1514     5
 1513  1514  1515     5
 1513  1514  1516     5
 1513  1514  1517     5
 1515  1514  1516     5
 1515  1514  1517     5
 1516  1514  1517     5
 1514  1517  1518     5
 1514  1517  1519     5
 1514  1517  1520     5
 1518  1517  1519     5
 1518  1517  1520     5
 1519  1517  1520     5
 1517  1520  1521     5
 1520  1521  1522     5
 1520  1521  1523     5
 1520  1521  1524     5
 1522  1521  1523     5
 1522  1521  1524     5
 1523  1521  1524     5
 1521  1524  1525     5
 1521  1524  1526     5
 1521  1524  1527     5
 1525  1524  1526     5
 1525  1524  1527     5
 1526  1524  1527     5
 1524  1527  1528     5
 1527  1528  1529     5
 1527  1528  1530     5
 1527  1528  1531     5
 1529  1528  1530     5
 1529  1528  1531     5
 1530  1528  1531     5
 1528  1531  1532     5
 1528  1531  1533     5
 1528  1531  1534     5
 1532  1531  1533     5
 1532  1531  1534     5
 1533  1531  1534     5
 1531  1534  1535     5
 1534  1535  1536     5
 1534  1535  1537     5
 1534  1535  1538     5
 1536  1535  1537     5
 1536  1535  1538     5
 1537  1535  1538     5
 1535  1538  1539     5
 1535  1538  1540     5
 1535  1538  1541     5
 1539  1538  1540     5
 1539  1538  1541     5
 1540  1538  1541     5
 1538  1541  1542     5
 1541  1542  1543     5
 1541  1542  1544     5
 1541  1542  1545     5
 1543  1542  1544     5
 1543  1542  1545     5
 1544  1542  1545     5
 1542  1545  1546     5
 1542  1545  1547     5
 1542  1545  1548     5
 1546  1545  1547     5
 1546  1545  1548     5
 1547  1545  1548     5
 1545  1548  1549     5
 1548  1549  1550     5
 1548  1549  1551     5
 1548  1549  1552     5
 1550  1549  1551     5
 1550  1549  1552     5
 1551  1549  1552     5
 1549  1552  1553     5
 1549  1552  1554     5
 1549  1552  1555     5
 1553  1552  1554     5
 1553  1552  1555     5
 1554  1552  1555     5
 1552  1555  1556     5
 1555  1556  1557     5
 1555  1556  1558     5
 1555  1556  1559     5
 1557  1556  1558     5
 1557  1556  1559     5
 1558  1556  1559     5
 1556  1559  1560     5
 1556  1559  1561     5
 1556  1559  1562     5
 1560  1559  1561     5
 1560  1559  1562     5
 1561  1559  1562     5
 1559  1562  1563     5
 1562  1563  1564     5
 1562  1563  1565     5
 1562  1563  1566     5
 1564  1563  1565     5
 1564  1563  1566     5
 1565  1563  1566     5
 1563  1566  1567     5
 1563  1566  1568     5
 1563  1566  1569     5
 1567  1566  1568     5
 1567  1566  1569     5
 1568  1566  1569     5
 1566  1569  1570     5
 1569  1570  1571     5
 1569  1570  1572     5
 1569  1570  1573     5
 1571  1570  1572     5
 1571  1570  1573     5
 1572  1570  1573     5
 1570  1573  1574     5
 1570  1573  1575     5
 1570  1573  1576     5
 1574  1573  1575     5
 1574  1573  1576     5
 1575  1573  1576     5
 1573  1576  1577     5
 1576  1577  1578     5
 1576  1577  1579     5
 1576  1577  1580     5
 1578  1577  1579     5
 1578  1577  1580     5
 1579  1577  1580     5
 1577  1580  1581     5
 1577  1580  1582     5
 1577  1580  1583     5
 1581  1580  1582     5
 1581  1580  1583     5
 1582  1580  1583     5
 1580  1583  1584     5
 1583  1584  1585     5
 1583  1584  1586     5
 1583  1584  1587     5
 1585  1584  1586     5
 1585  1584  1587     5
 1586  1584  1587     5
 1584  1587  1588     5
 1584  1587  1589     5
 1584  1587  1590     5
 1588  1587  1589     5
 1588  1587  1590     5
 1589  1587  1590     5
 1587  1590  1591     5
 1590  1591  1592     5
 1590  1591  1593     5
 1590  1591  1594     5
 1592  1591  1593     5
 1592  1591  1594     5
 1593  1591  1594     5
 1591  1594  1595     5
 1591  1594  1596     5
 1591  1594  1597     5
 1595  1594  1596     5
 1595  1594  1597     5
 1596  1594  1597     5
 1594  1597  1598     5
 1597  1598  1599     5
 1597  1598  1600     5
 1597  1598  1601     5
 1599  1598  1600     5
 1599  1598  1601     5
 1600  1598  1601     5
 1598  1601  1602     5
 1598  1601  1603     5
 1598  1601  1604     5
 1602  1601  1603     5
 1602  1601  1604     5
 1603  1601  1604     5
 1601  1604  1605     5
 1604  1605  1606     5
 1604  1605  1607     5
 1604  1605  1608     5
 1606  1605  1607     5
 1606  1605  1608     5
 1607  1605  1608     5
 1605  1608  1609     5
 1605  1608  1610     5
 1605  1608  1611     5
 1609  1608  1610     5
 1609  1608  1611     5
 1610  1608  1611     5
 1608  1611  1612     5
 1611  1612  1613     5
 1611  1612  1614     5
 1611  1612  1615     5
 1613  1612  1614     5
 1613  1612  1615     5
 1614  1612  1615     5
 1612  1615  1616     5
 1612  1615  1617     5
 1612  1615  1618     5
 1616  1615  1617     5
 1616  1615  1618     5
 1617  1615  1618     5
 1615  1618  1619     5
 1618  1619  1620     5
 1618  1619  1621     5
 1618  1619  1622     5
 1620  1619  1621     5
 1620  1619  1622     5
 1621  1619  1622     5
 1619  1622  1623     5
 1619  1622  1624     5
 1619  1622  1625     5
 1623  1622  1624     5
 1623  1622  1625     5
 1624  1622  1625     5
 1622  1625  1626     5
 1625  1626  1627     5
 1625  1626  1628     5
 1625  1626  1629     5
 1627  1626  1628     5
 1627  1626  1629     5
 1628  1626  1629     5
 1626  1629  1630     5
 1626  1629  1631     5
 1626  1629  1632     5
 1630  1629  1631     5
 1630  1629  1632     5
 1631  1629  1632     5
 1629  1632  1633     5
 1632  1633  1634     5
 1632  1633  1635     5
 1632  1633  1636     5
 1634  1633  1635     5
 1634  1633  1636     5
 1635  1633  1636     5
 1633  1636  1637     5
 1633  1636  1638     5
 1633  1636  1639     5
 1637  1636  1638     5
 1637  1636  1639     5
 1638  1636  1639     5
 1636  1639  1640     5
 1639  1640  1641     5
 1639  1640  1642     5
 1639  1640  1643     5
 1641  1640  1642     5
 1641  1640  1643     5
 1642  1640  1643     5
 1640  1643  1644     5
 1640  1643  1645     5
 1640  1643  1646     5
 1644  1643  1645     5
 1644  1643  1646     5
 1645  1643  1646     5
 1643  1646  1647     5
 1646  1647  1648     5
 1646  1647  1649     5
 1646  1647  1650     5
 1648  1647  1649     5
 1648  1647  1650     5
 1649  1647  1650     5
 1647  1650  1651     5
 1647  1650  1652     5
 1647  1650  1653     5
 1651  1650  1652     5
 1651  1650  1653     5
 1652  1650  1653     5
 1650  1653  1654     5
 1653  1654  1655     5
 1653  1654  1656     5
 1653  1654  1657     5
 1655  1654  1656     5
 1655  1654  1657     5
 1656  1654  1657     5
 1654  1657  1658     5
 1654  1657  1659     5
 1654  1657  1660     5
 1658  1657  1659     5
 1658  1657  1660     5
 1659  1657  1660     5
 1657  1660  1661     5
 1660  1661  1662     5
 1660  1661  1663     5
 1660  1661  1664     5
 1662  1661  1663     5
 1662  1661  1664     5
 1663  1661  1664     5
 1661  1664  1665     5
 1661  1664  1666     5
 1661  1664  1667     5
 1665  1664  1666     5
 1665  1664  1667     5
 1666  1664  1667     5
 1664  1667  1668     5
 1667  1668  1669     5
 1667  1668  1670     5
 1667  1668  1671     5
 1669  1668  1670     5
 1669  1668  1671     5
 1670  1668  1671     5
 1668  1671  1672     5
 1668  1671  1673     5
 1668  1671  1674     5
 1672  1671  1673     5
 1672  1671  1674     5
 1673  1671  1674     5
 1671  1674  1675     5
 1674  1675  1676     5
 1674  1675  1677     5
 1674  1675  1678     5
 1676  1675  1677     5
 1676  1675  1678     5
 1677  1675  1678     5
 1675  1678  1679     5
 1675  1678  1680     5
 1675  1678  1681     5
 1679  1678  1680     5
 1679  1678  1681     5
 1680  1678  1681     5
 1678  1681  1682     5
 1681  1682  1683     5
 1681  1682  1684     5
 1681  1682  1685     5
 1683  1682  1684     5
 1683  1682  1685     5
 1684  1682  1685     5
 1682  1685  1686     5
 1682  1685  1687     5
 1682  1685  1688     5
 1686  1685  1687     5
 1686  1685  1688     5
 1687  1685  1688     5
 1685  1688  1689     5
 1688  1689  1690     5
 1688  1689  1691     5
 1688  1689  1692     5
 1690  1689  1691     5
 1690  1689  1692     5
 1691  1689  1692     5
 1689  1692  1693     5
 1689  1692  1694     5
 1689  1692  1695     5
 1693  1692  1694     5
 1693  1692  1695     5
 1694  1692  1695     5
 1692  1695  1696     5
 1695  1696  1697     5
 1695  1696  1698     5
 1695  1696  1699     5
 1697  1696  1698     5
 1697  1696  1699     5
 1698  1696  1699     5
 1696  1699  1700     5
 1696  1699  1701     5
 1696  1699  1702     5
 1700  1699  1701     5
 1700  1699  1702     5
 1701  1699  1702     5
 1699  1702  1703     5
 1702  1703  1704     5
 1702  1703  1705     5
 1702  1703  1706     5
 1704  1703  1705     5
 1704  1703  1706     5
 1705  1703  1706     5
 1703  1706  1707     5
 1703  1706  1708     5
 1703  1706  1709     5
 1707  1706  1708     5
 1707  1706  1709     5
 1708  1706  1709     5
 1706  1709  1710     5
 1709  1710  1711     5
 1709  1710  1712     5
 1709  1710  1713     5
 1711  1710  1712     5
 1711  1710  1713     5
 1712  1710  1713     5
 1710  1713  1714     5
 1710  1713  1715     5
 1710  1713  1716     5
 1714  1713  1715     5
 1714  1713  1716     5
 1715  1713  1716     5
 1713  1716  1717     5
 1716  1717  1718     5
 1716  1717  1719     5
 1716  1717  1720     5
 1718  1717  1719     5
 1718  1717  1720     5
 1719  1717  1720     5
 1717  1720  1721     5
 1717  1720  1722     5
 1717  1720  1723     5
 1721  1720  1722     5
 1721  1720  1723     5
 1722  1720  1723     5
 1720  1723  1724     5
 1723  1724  1725     5
 1723  1724  1726     5
 1723  1724  1727     5
 1725  1724  1726     5
 1725  1724  1727     5
 1726  1724  1727     5
 1724  1727  1728     5
 1724  1727  1729     5
 1724  1727  1730     5
 1728  1727  1729     5
 1728  1727  1730     5
 1729  1727  1730     5
 1727  1730  1731     5
 1730  1731  1732     5
 1730  1731  1733     5
 1730  1731  1734     5
 1732  1731  1733     5
 1732  1731  1734     5
 1733  1731  1734     5
 1731  1734  1735     5
 1731  1734  1736     5
 1731  1734  1737     5
 1735  1734  1736     5
 1735  1734  1737     5
 1736  1734  1737     5
 1734  1737  1738     5
 1737  1738  1739     5
 1737  1738  1740     5
 1737  1738  1741     5
 1739  1738  1740     5
 1739  1738  1741     5
 1740  1738  1741     5
 1738  1741  1742     5
 1738  1741  1743     5
 1738  1741  1744     5
 1742  1741  1743     5
 1742  1741  1744     5
 1743  1741  1744     5
 1741  1744  1745     5
 1744  1745  1746     5
 1744  1745  1747     5
 1744  1745  1748     5
 1746  1745  1747     5
 1746  1745  1748     5
 1747  1745  1748     5
 1745  1748  1749     5
 1745  1748  1750     5
 1745  1748  1751     5
 1749  1748  1750     5
 1749  1748  1751     5
 1750  1748  1751     5
 1748  1751  1752     5
 1751  1752  1753     5
 1751  1752  1754     5
 1751  1752  1755     5
 1753  1752  1754     5
 1753  1752  1755     5
 1754  1752  1755     5
 1752  1755  1756     5
 1752  1755  1757     5
 1752  1755  1758     5
 1756  1755  1757     5
 1756  1755  1758     5
 1757  1755  1758     5
 1755  1758  1759     5
 1758  1759  1760     5
 1758  1759  1761     5
 1758  1759  1762     5
 1760  1759  1761     5
 1760  1759  1762     5
 1761  1759  1762     5
 1759  1762  1763     5
 1759  1762  1764     5
 1759  1762  1765     5
 1763  1762  1764     5
 1763  1762  1765     5
 1764  1762  1765     5
 1762  1765  1766     5
 1765  1766  1767     5
 1765  1766  1768     5
 1765  1766  1769     5
 1767  1766  1768     5
 1767  1766  1769     5
 1768  1766  1769     5
 1766  1769  1770     5
 1766  1769  1771     5
 1766  1769  1772     5
 1770  1769  1771     5
 1770  1769  1772     5
 1771  1769  1772     5
 1769  1772  1773     5
 1772  1773  1774     5
 1772  1773  1775     5
 1772  1773  1776     5
 1774  1773  1775     5
 1774  1773  1776     5
 1775  1773  1776     5
 1773  1776  1777     5
 1773  1776  1778     5
 1773  1776  1779     5
 1777  1776  1778     5
 1777  1776  1779     5
 1778  1776  1779     5
 1776  1779  1780     5
 1779  1780  1781     5
 1779  1780  1782     5
 1779  1780  1783     5
 1781  1780  1782     5
 1781  1780  1783     5
 1782  1780  1783     5
 1780  1783  1784     5
 1780  1783  1785     5
 1780  1783  1786     5
 1784  1783  1785     5
 1784  1783  1786     5
 1785  1783  1786     5
 1783  1786  1787     5
 1786  1787  1788     5
 1786  1787  1789     5
 1786  1787  1790     5
 1788  1787  1789     5
 1788  1787  1790     5
 1789  1787  1790     5
 1787  1790  1791     5
 1787  1790  1792     5
 1787  1790  1793     5
 1791  1790  1792     5
 1791  1790  1793     5
 1792  1790  1793     5
 1790  1793  1794     5
 1793  1794  1795     5
 1793  1794  1796     5
 1793  1794  1797     5
 1795  1794  1796     5
 1795  1794  1797     5
 1796  1794  1797     5
 1794  1797  1798     5
 1794  1797  1799     5
 1794  1797  1800     5
 1798  1797  1799     5
 1798  1797  1800     5
 1799  1797  1800     5
 1797  1800  1801     5
 1800  1801  1802     5
 1800  1801  1803     5
 1800  1801  1804     5
 1802  1801  1803     5
 1802  1801  1804     5
 1803  1801  1804     5
 1801  1804  1805     5
 1801  1804  1806     5
 1801  1804  1807     5
 1805  1804  1806     5
 1805  1804  1807     5
 1806  1804  1807     5
 1804  1807  1808     5
 1807  1808  1809     5
 1807  1808  1810     5
 1807  1808  1811     5
 1809  1808  1810     5
 1809  1808  1811     5
 1810  1808  1811     5
 1808  1811  1812     5
 1808  1811  1813     5
 1808  1811  1814     5
 1812  1811  1813     5
 1812  1811  1814     5
 1813  1811  1814     5
 1811  1814  1815     5
 1814  1815  1816     5
 1814  1815  1817     5
 1814  1815  1818     5
 1816  1815  1817     5
 1816  1815  1818     5
 1817  1815  1818     5
 1815  1818  1819     5
 1815  1818  1820     5
 1815  1818  1821     5
 1819  1818  1820     5
 1819  1818  1821     5
 1820  1818  1821     5
 1818  1821  1822     5
 1821  1822  1823     5
 1821  1822  1824     5
 1821  1822  1825     5
 1823  1822  1824     5
 1823  1822  1825     5
 1824  1822  1825     5
 1822  1825  1826     5
 1822  1825  1827     5
 1822  1825  1828     5
 1826  1825  1827     5
 1826  1825  1828     5
 1827  1825  1828     5
 1825  1828  1829     5
 1828  1829  1830     5
 1828  1829  1831     5
 1828  1829  1832     5
 1830  1829  1831     5
 1830  1829  1832     5
 1831  1829  1832     5
 1829  1832  1833     5
 1829  1832  1834     5
 1829  1832  1835     5
 1833  1832  1834     5
 1833  1832  1835     5
 1834  1832  1835     5
 1832  1835  1836     5
 1835  1836  1837     5
 1835  1836  1838     5
 1835  1836  1839     5
 1837  1836  1838     5
 1837  1836  1839     5
 1838  1836  1839     5
 1836  1839  1840     5
 1836  1839  1841     5
 1836  1839  1842     5
 1840  1839  1841     5
 1840  1839  1842     5
 1841  1839  1842     5
 1839  1842  1843     5
 1842  1843  1844     5
 1842  1843  1845     5
 1842  1843  1846     5
 1844  1843  1845     5
 1844  1843  1846     5
 1845  1843  1846     5
 1843  1846  1847     5
 1843  1846  1848     5
 1843  1846  1849     5
 1847  1846  1848     5
 1847  1846  1849     5
 1848  1846  1849     5
 1846  1849  1850     5
 1849  1850  1851     5
 1849  1850  1852     5
 1849  1850  1853     5
 1851  1850  1852     5
 1851  1850  1853     5
 1852  1850  1853     5
 1850  1853  1854     5
 1850  1853  1855     5
 1850  1853  1856     5
 1854  1853  1855     5
 1854  1853  1856     5
 1855  1853  1856     5
 1853  1856  1857     5
 1856  1857  1858     5
 1856  1857  1859     5
 1856  1857  1860     5
 1858  1857  1859     5
 1858  1857  1860     5
 1859  1857  1860     5
 1857  1860  1861     5
 1857  1860  1862     5
 1857  1860  1863     5
 1861  1860  1862     5
 1861  1860  1863     5
 1862  1860  1863     5
 1860  1863  1864     5
 1863  1864  1865     5
 1863  1864  1866     5
 1863  1864  1867     5
 1865  1864  1866     5
 1865  1864  1867     5
 1866  1864  1867     5
 1864  1867  1868     5
 1864  1867  1869     5
 1864  1867  1870     5
 1868  1867  1869     5
 1868  1867  1870     5
 1869  1867  1870     5
 1867  1870  1871     5
 1870  1871  1872     5
 1870  1871  1873     5
 1870  1871  1874     5
 1872  1871  1873     5
 1872  1871  1874     5
 1873  1871  1874     5
 1871  1874  1875     5
 1871  1874  1876     5
 1871  1874  1877     5
 1875  1874  1876     5
 1875  1874  1877     5
 1876  1874  1877     5
 1874  1877  1878     5
 1877  1878  1879     5
 1877  1878  1880     5
 1877  1878  1881     5
 1879  1878  1880     5
 1879  1878  1881     5
 1880  1878  1881     5
 1878  1881  1882     5
 1878  1881  1883     5
 1878  1881  1884     5
 1882  1881  1883     5
 1882  1881  1884     5
 1883  1881  1884     5
 1881  1884  1885     5
 1884  1885  1886     5
 1884  1885  1887     5
 1884  1885  1888     5
 1886  1885  1887     5
 1886  1885  1888     5
 1887  1885  1888     5
 1885  1888  1889     5
 1885  1888  1890     5
 1885  1888  1891     5
 1889  1888  1890     5
 1889  1888  1891     5
 1890  1888  1891     5
 1888  1891  1892     5
 1891  1892  1893     5
 1891  1892  1894     5
 1891  1892  1895     5
 1893  1892  1894     5
 1893  1892  1895     5
 1894  1892  1895     5
 1892  1895  1896     5
 1892  1895  1897     5
 1892  1895  1898     5
 1896  1895  1897     5
 1896  1895  1898     5
 1897  1895  1898     5
 1895  1898  1899     5
 1898  1899  1900     5
 1898  1899  1901     5
 1898  1899  1902     5
 1900  1899  1901     5
 1900  1899  1902     5
 1901  1899  1902     5
 1899  1902  1903     5
 1899  1902  1904     5
 1899  1902  1905     5
 1903  1902  1904     5
 1903  1902  1905     5
 1904  1902  1905     5
 1902  1905  1906     5
 1905  1906  1907     5
 1905  1906  1908     5
 1905  1906  1909     5
 1907  1906  1908     5
 1907  1906  1909     5
 1908  1906  1909     5
 1906  1909  1910     5
 1906  1909  1911     5
 1906  1909  1912     5
 1910  1909  1911     5
 1910  1909  1912     5
 1911  1909  1912     5
 1909  1912  1913     5
 1912  1913  1914     5
 1912  1913  1915     5
 1912  1913  1916     5
 1914  1913  1915     5
 1914  1913  1916     5
 1915  1913  1916     5
 1913  1916  1917     5
 1913  1916  1918     5
 1913  1916  1919     5
 1917  1916  1918     5
 1917  1916  1919     5
 1918  1916  1919     5
 1916  1919  1920     5
 1919  1920  1921     5
 1919  1920  1922     5
 1919  1920  1923     5
 1921  1920  1922     5
 1921  1920  1923     5
 1922  1920  1923     5
 1920  1923  1924     5
 1920  1923  1925     5
 1920  1923  1926     5
 1924  1923  1925     5
 1924  1923  1926     5
 1925  1923  1926     5
 1923  1926  1927     5
 1926  1927  1928     5
 1926  1927  1929     5
 1926  1927  1930     5
 1928  1927  1929     5
 1928  1927  1930     5
 1929  1927  1930     5
 1927  1930  1931     5
 1927  1930  1932     5
 1927  1930  1933     5
 1931  1930  1932     5
 1931  1930  1933     5
 1932  1930  1933     5
 1930  1933  1934     5
 1933  1934  1935     5
 1933  1934  1936     5
 1933  1934  1937     5
 1935  1934  1936     5
 1935  1934  1937     5
 1936  1934  1937     5
 1934  1937  1938     5
 1934  1937  1939     5
 1934  1937  1940     5
 1938  1937  1939     5
 1938  1937  1940     5
 1939  1937  1940     5
 1937  1940  1941     5
 1940  1941  1942     5
 1940  1941  1943     5
 1940  1941  1944     5
 1942  1941  1943     5
 1942  1941  1944     5
 1943  1941  1944     5
 1941  1944  1945     5
 1941  1944  1946     5
 1941  1944  1947     5
 1945  1944  1946     5
 1945  1944  1947     5
 1946  1944  1947     5
 1944  1947  1948     5
 1947  1948  1949     5
 1947  1948  1950     5
 1947  1948  1951     5
 1949  1948  1950     5
 1949  1948  1951     5
 1950  1948  1951     5
 1948  1951  1952     5
 1948  1951  1953     5
 1948  1951  1954     5
 1952  1951  1953     5
 1952  1951  1954     5
 1953  1951  1954     5
 1951  1954  1955     5
 1954  1955  1956     5
 1954  1955  1957     5
 1954  1955  1958     5
 1956  1955  1957     5
 1956  1955  1958     5
 1957  1955  1958     5
 1955  1958  1959     5
 1955  1958  1960     5
 1955  1958  1961     5
 1959  1958  1960     5
 1959  1958  1961     5
 1960  1958  1961     5
 1958  1961  1962     5
 1961  1962  1963     5
 1961  1962  1964     5
 1961  1962  1965     5
 1963  1962  1964     5
 1963  1962  1965     5
 1964  1962  1965     5
 1962  1965  1966     5
 1962  1965  1967     5
 1962  1965  1968     5
 1966  1965  1967     5
 1966  1965  1968     5
 1967  1965  1968     5
 1965  1968  1969     5
 1968  1969  1970     5
 1968  1969  1971     5
 1968  1969  1972     5
 1970  1969  1971     5
 1970  1969  1972     5
 1971  1969  1972     5
 1969  1972  1973     5
 1969  1972  1974     5
 1969  1972  1975     5
 1973  1972  1974     5
 1973  1972  1975     5
 1974  1972  1975     5
 1972  1975  1976     5
 1975  1976  1977     5
 1975  1976  1978     5
 1975  1976  1979     5
 1977  1976  1978     5
 1977  1976  1979     5
 1978  1976  1979     5
 1976  1979  1980     5
 1976  1979  1981     5
 1976  1979  1982     5
 1980  1979  1981     5
 1980  1979  1982     5
 1981  1979  1982     5
 1979  1982  1983     5
 1982  1983  1984     5
 1982  1983  1985     5
 1982  1983  1986     5
 1984  1983  1985     5
 1984  1983  1986     5
 1985  1983  1986     5
 1983  1986  1987     5
 1983  1986  1988     5
 1983  1986  1989     5
 1987  1986  1988     5
 1987  1986  1989     5
 1988  1986  1989     5
 1986  1989  1990     5
 1989  1990  1991     5
 1989  1990  1992     5
 1989  1990  1993     5
 1991  1990  1992     5
 1991  1990  1993     5
 1992  1990  1993     5
 1990  1993  1994     5
 1990  1993  1995     5
 1990  1993  1996     5
 1994  1993  1995     5
 1994  1993  1996     5
 1995  1993  1996     5
 1993  1996  1997     5
 1996  1997  1998     5
 1996  1997  1999     5
 1996  1997  2000     5
 1998  1997  1999     5
 1998  1997  2000     5
 1999  1997  2000     5
 1997  2000  2001     5
 1997  2000  2002     5
 1997  2000  2003     5
 2001  2000  2002     5
 2001  2000  2003     5
 2002  2000  2003     5
 2000  2003  2004     5
 2003  2004  2005     5
 2003  2004  2006     5
 2003  2004  2007     5
 2005  2004  2006     5
 2005  2004  2007     5
 2006  2004  2007     5
 2004  2007  2008     5
 2004  2007  2009     5
 2004  2007  2010     5
 2008  2007  2009     5
 2008  2007  2010     5
 2009  2007  2010     5
 2007  2010  2011     5
 2010  2011  2012     5
 2010  2011  2013     5
 2010  2011  2014     5
 2012  2011  2013     5
 2012  2011  2014     5
 2013  2011  2014     5
 2011  2014  2015     5
 2011  2014  2016     5
 2011  2014  2017     5
 2015  2014  2016     5
 2015  2014  2017     5
 2016  2014  2017     5
 2014  2017  2018     5
 2017  2018  2019     5
 2017  2018  2020     5
 2017  2018  2021     5
 2019  2018  2020     5
 2019  2018  2021     5
 2020  2018  2021     5
 2018  2021  2022     5
 2018  2021  2023     5
 2018  2021  2024     5
 2022  2021  2023     5
 2022  2021  2024     5
 2023  2021  2024     5
 2021  2024  2025     5
 2024  2025  2026     5
 2024  2025  2027     5
 2024  2025  2028     5
 2026  2025  2027     5
 2026  2025  2028     5
 2027  2025  2028     5
 2025  2028  2029     5
 2025  2028  2030     5
 2025  2028  2031     5
 2029  2028  2030     5
 2029  2028  2031     5
 2030  2028  2031     5
 2028  2031  2032     5
 2031  2032  2033     5
 2031  2032  2034     5
 2031  2032  2035     5
 2033  2032  2034     5
 2033  2032  2035     5
 2034  2032  2035     5
 2032  2035  2036     5
 2032  2035  2037     5
 2032  2035  2038     5
 2036  2035  2037     5
 2036  2035  2038     5
 2037  2035  2038     5
 2035  2038  2039     5
 2038  2039  2040     5
 2038  2039  2041     5
 2038  2039  2042     5
 2040  2039  2041     5
 2040  2039  2042     5
 2041  2039  2042     5
 2039  2042  2043     5
 2039  2042  2044     5
 2039  2042  2045     5
 2043  2042  2044     5
 2043  2042  2045     5
 2044  2042  2045     5
 2042  2045  2046     5
 2045  2046  2047     5
 2045  2046  2048     5
 2045  2046  2049     5
 2047  2046  2048     5
 2047  2046  2049     5
 2048  2046  2049     5
 2046  2049  2050     5
 2046  2049  2051     5
 2046  2049  2052     5
 2050  2049  2051     5
 2050  2049  2052     5
 2051  2049  2052     5
 2049  2052  2053     5

[ dihedrals ]
; ai	aj	ak	al	funct	phi0	cp	mult
    2     1     3     4     9
    2     1     3     5     9
    2     1     3     6     9
    1     3     6     7     9
    1     3     6     8     9
    1     3     6     9     9
    4     3     6     7     9
    4     3     6     8     9
    4     3     6     9     9
    5     3     6     7     9
    5     3     6     8     9
    5     3     6     9     9
    3     6     9    10     9
    7     6     9    10     9
    8     6     9    10     9
    6     9    10    11     9
    6     9    10    12     9
    6     9    10    13     9
    9    10    13    14     9
    9    10    13    15     9
    9    10    13    16     9
   11    10    13    14     9
   11    10    13    15     9
   11    10    13    16     9
   12    10    13    14     9
   12    10    13    15     9
   12    10    13    16     9
   10    13    16    17     9
   14    13    16    17     9
   15    13    16    17     9
   13    16    17    18     9
   13    16    17    19     9
   13    16    17    20     9
   16    17    20    21     9
   16    17    20    22     9
   16    17    20    23     9
   18    17    20    21     9
   18    17    20    22     9
   18    17    20    23     9
   19    17    20    21     9
   19    17    20    22     9
   19    17    20    23     9
   17    20    23    24     9
   21    20    23    24     9
   22    20    23    24     9
   20    23    24    25     9
   20    23    24    26     9
   20    23    24    27     9
   23    24    27    28     9
   23    24    27    29     9
   23    24    27    30     9
   25    24    27    28     9
   25    24    27    29     9
   25    24    27    30     9
   26    24    27    28     9
   26    24    27    29     9
   26    24    27    30     9
   24    27    30    31     9
   28    27    30    31     9
   29    27    30    31     9
   27    30    31    32     9
   27    30    31    33     9
   27    30    31    34     9
   30    31    34    35     9
   30    31    34    36     9
   30    31    34    37     9
   32    31    34    35     9
   32    31    34    36     9
   32    31    34    37     9
   33    31    34    35     9
   33    31    34    36     9
   33    31    34    37     9
   31    34    37    38     9
   35    34    37    38     9
   36    34    37    38     9
   34    37    38    39     9
   34    37    38    40     9
   34    37    38    41     9
   37    38    41    42     9
   37    38    41    43     9
   37    38    41    44     9
   39    38    41    42     9
   39    38    41    43     9
   39    38    41    44     9
   40    38    41    42     9
   40    38    41    43     9
   40    38    41    44     9
   38    41    44    45     9
   42    41    44    45     9
   43    41    44    45     9
   41    44    45    46     9
   41    44    45    47     9
   41    44    45    48     9
   44    45    48    49     9
   44    45    48    50     9
   44    45    48    51     9
   46    45    48    49     9
   46    45    48    50     9
   46    45    48    51     9
   47    45    48    49     9
   47    45    48    50     9
   47    45    48    51     9
   45    48    51    52     9
   49    48    51    52     9
   50    48    51    52     9
   48    51    52    53     9
   48    51    52    54     9
   48    51    52    55     9
   51    52    55    56     9
   51    52    55    57     9
   51    52    55    58     9
   53    52    55    56     9
   53    52    55    57     9
   53    52    55    58     9
   54    52    55    56     9
   54    52    55    57     9
   54    52    55    58     9
   52    55    58    59     9
   56    55    58    59     9
   57    55    58    59     9
   55    58    59    60     9
   55    58    59    61     9
   55    58    59    62     9
   58    59    62    63     9
   58    59    62    64     9
   58    59    62    65     9
   60    59    62    63     9
   60    59    62    64     9
   60    59    62    65     9
   61    59    62    63     9
   61    59    62    64     9
   61    59    62    65     9
   59    62    65    66     9
   63    62    65    66     9
   64    62    65    66     9
   62    65    66    67     9
   62    65    66    68     9
   62    65    66    69     9
   65    66    69    70     9
   65    66    69    71     9
   65    66    69    72     9
   67    66    69    70     9
   67    66    69    71     9
   67    66    69    72     9
   68    66    69    70     9
   68    66    69    71     9
   68    66    69    72     9
   66    69    72    73     9
   70    69    72    73     9
   71    69    72    73     9
   69    72    73    74     9
   69    72    73    75     9
   69    72    73    76     9
   72    73    76    77     9
   72    73    76    78     9
   72    73    76    79     9
   74    73    76    77     9
   74    73    76    78     9
   74    73    76    79     9
   75    73    76    77     9
   75    73    76    78     9
   75    73    76    79     9
   73    76    79    80     9
   77    76    79    80     9
   78    76    79    80     9
   76    79    80    81     9
   76    79    80    82     9
   76    79    80    83     9
   79    80    83    84     9
   79    80    83    85     9
   79    80    83    86     9
   81    80    83    84     9
   81    80    83    85     9
   81    80    83    86     9
   82    80    83    84     9
   82    80    83    85     9
   82    80    83    86     9
   80    83    86    87     9
   84    83    86    87     9
   85    83    86    87     9
   83    86    87    88     9
   83    86    87    89     9
   83    86    87    90     9
   86    87    90    91     9
   86    87    90    92     9
   86    87    90    93     9
   88    87    90    91     9
   88    87    90    92     9
   88    87    90    93     9
   89    87    90    91     9
   89    87    90    92     9
   89    87    90    93     9
   87    90    93    94     9
   91    90    93    94     9
   92    90    93    94     9
   90    93    94    95     9
   90    93    94    96     9
   90    93    94    97     9
   93    94    97    98     9
   93    94    97    99     9
   93    94    97   100     9
   95    94    97    98     9
   95    94    97    99     9
   95    94    97   100     9
   96    94    97    98     9
   96    94    97    99     9
   96    94    97   100     9
   94    97   100   101     9
   98    97   100   101     9
   99    97   100   101     9
   97   100   101   102     9
   97   100   101   103     9
   97   100   101   104     9
  100   101   104   105     9
  100   101   104   106     9
  100   101   104   107     9
  102   101   104   105     9
  102   101   104   106     9
  102   101   104   107     9
  103   101   104   105     9
  103   101   104   106     9
  103   101   104   107     9
  101   104   107   108     9
  105   104   107   108     9
  106   104   107   108     9
  104   107   108   109     9
  104   107   108   110     9
  104   107   108   111     9
  107   108   111   112     9
  107   108   111   113     9
  107   108   111   114     9
  109   108   111   112     9
  109   108   111   113     9
  109   108   111   114     9
  110   108   111   112     9
  110   108   111   113     9
  110   108   111   114     9
  108   111   114   115     9
  112   111   114   115     9
  113   111   114   115     9
  111   114   115   116     9
  111   114   115   117     9
  111   114   115   118     9
  114   115   118   119     9
  114   115   118   120     9
  114   115   118   121     9
  116   115   118   119     9
  116   115   118   120     9
  116   115   118   121     9
  117   115   118   119     9
  117   115   118   120     9
  117   115   118   121     9
  115   118   121   122     9
  119   118   121   122     9
  120   118   121   122     9
  118   121   122   123     9
  118   121   122   124     9
  118   121   122   125     9
  121   122   125   126     9
  121   122   125   127     9
  121   122   125   128     9
  123   122   125   126     9
  123   122   125   127     9
  123   122   125   128     9
  124   122   125   126     9
  124   122   125   127     9
  124   122   125   128     9
  122   125   128   129     9
  126   125   128   129     9
  127   125   128   129     9
  125   128   129   130     9
  125   128   129   131     9
  125   128   129   132     9
  128   129   132   133     9
  128   129   132   134     9
  128   129   132   135     9
  130   129   132   133     9
  130   129   132   134     9
  130   129   132   135     9
  131   129   132   133     9
  131   129   132   134     9
  131   129   132   135     9
  129   132   135   136     9
  133   132   135   136     9
  134   132   135   136     9
  132   135   136   137     9
  132   135   136   138     9
  132   135   136   139     9
  135   136   139   140     9
  135   136   139   141     9
  135   136   139   142     9
  137   136   139   140     9
  137   136   139   141     9
  137   136   139   142     9
  138   136   139   140     9
  138   136   139   141     9
  138   136   139   142     9
  136   139   142   143     9
  140   139   142   143     9
  141   139   142   143     9
  139   142   143   144     9
  139   142   143   145     9
  139   142   143   146     9
  142   143   146   147     9
  142   143   146   148     9
  142   143   146   149     9
  144   143   146   147     9
  144   143   146   148     9
  144   143   146   149     9
  145   143   146   147     9
  145   143   146   148     9
  145   143   146   149     9
  143   146   149   150     9
  147   146   149   150     9
  148   146   149   150     9
  146   149   150   151     9
  146   149   150   152     9
  146   149   150   153     9
  149   150   153   154     9
  149   150   153   155     9
  149   150   153   156     9
  151   150   153   154     9
  151   150   153   155     9
  151   150   153   156     9
  152   150   153   154     9
  152   150   153   155     9
  152   150   153   156     9
  150   153   156   157     9
  154   153   156   157     9
  155   153   156   157     9
  153   156   157   158     9
  153   156   157   159     9
  153   156   157   160     9
  156   157   160   161     9
  156   157   160   162     9
  156   157   160   163     9
  158   157   160   161     9
  158   157   160   162     9
  158   157   160   163     9
  159   157   160   161     9
  159   157   160   162     9
  159   157   160   163     9
  157   160   163   164     9
  161   160   163   164     9
  162   160   163   164     9
  160   163   164   165     9
  160   163   164   166     9
  160   163   164   167     9
  163   164   167   168     9
  163   164   167   169     9
  163   164   167   170     9
  165   164   167   168     9
  165   164   167   169     9
  165   164   167   170     9
  166   164   167   168     9
  166   164   167   169     9
  166   164   167   170     9
  164   167   170   171     9
  168   167   170   171     9
  169   167   170   171     9
  167   170   171   172     9
  167   170   171   173     9
  167   170   171   174     9
  170   171   174   175     9
  170   171   174   176     9
  170   171   174   177     9
  172   171   174   175     9
  172   171   174   176     9
  172   171   174   177     9
  173   171   174   175     9
  173   171   174   176     9
  173   171   174   177     9
  171   174   177   178     9
  175   174   177   178     9
  176   174   177   178     9
  174   177   178   179     9
  174   177   178   180     9
  174   177   178   181     9
  177   178   181   182     9
  177   178   181   183     9
  177   178   181   184     9
  179   178   181   182     9
  179   178   181   183     9
  179   178   181   184     9
  180   178   181   182     9
  180   178   181   183     9
  180   178   181   184     9
  178   181   184   185     9
  182   181   184   185     9
  183   181   184   185     9
  181   184   185   186     9
  181   184   185   187     9
  181   184   185   188     9
  184   185   188   189     9
  184   185   188   190     9
  184   185   188   191     9
  186   185   188   189     9
  186   185   188   190     9
  186   185   188   191     9
  187   185   188   189     9
  187   185   188   190     9
  187   185   188   191     9
  185   188   191   192     9
  189   188   191   192     9
  190   188   191   192     9
  188   191   192   193     9
  188   191   192   194     9
  188   191   192   195     9
  191   192   195   196     9
  191   192   195   197     9
  191   192   195   198     9
  193   192   195   196     9
  193   192   195   197     9
  193   192   195   198     9
  194   192   195   196     9
  194   192   195   197     9
  194   192   195   198     9
  192   195   198   199     9
  196   195   198   199     9
  197   195   198   199     9
  195   198   199   200     9
  195   198   199   201     9
  195   198   199   202     9
  198   199   202   203     9
  198   199   202   204     9
  198   199   202   205     9
  200   199   202   203     9
  200   199   202   204     9
  200   199   202   205     9
  201   199   202   203     9
  201   199   202   204     9
  201   199   202   205     9
  199   202   205   206     9
  203   202   205   206     9
  204   202   205   206     9
  202   205   206   207     9
  202   205   206   208     9
  202   205   206   209     9
  205   206   209   210     9
  205   206   209   211     9
  205   206   209   212     9
  207   206   209   210     9
  207   206   209   211     9
  207   206   209   212     9
  208   206   209   210     9
  208   206   209   211     9
  208   206   209   212     9
  206   209   212   213     9
  210   209   212   213     9
  211   209   212   213     9
  209   212   213   214     9
  209   212   213   215     9
  209   212   213   216     9
  212   213   216   217     9
  212   213   216   218     9
  212   213   216   219     9
  214   213   216   217     9
  214   213   216   218     9
  214   213   216   219     9
  215   213   216   217     9
  215   213   216   218     9
  215   213   216   219     9
  213   216   219   220     9
  217   216   219   220     9
  218   216   219   220     9
  216   219   220   221     9
  216   219   220   222     9
  216   219   220   223     9
  219   220   223   224     9
  219   220   223   225     9
  219   220   223   226     9
  221   220   223   224     9
  221   220   223   225     9
  221   220   223   226     9
  222   220   223   224     9
  222   220   223   225     9
  222   220   223   226     9
  220   223   226   227     9
  224   223   226   227     9
  225   223   226   227     9
  223   226   227   228     9
  223   226   227   229     9
  223   226   227   230     9
  226   227   230   231     9
  226   227   230   232     9
  226   227   230   233     9
  228   227   230   231     9
  228   227   230   232     9
  228   227   230   233     9
  229   227   230   231     9
  229   227   230   232     9
  229   227   230   233     9
  227   230   233   234     9
  231   230   233   234     9
  232   230   233   234     9
  230   233   234   235     9
  230   233   234   236     9
  230   233   234   237     9
  233   234   237   238     9
  233   234   237   239     9
  233   234   237   240     9
  235   234   237   238     9
  235   234   237   239     9
  235   234   237   240     9
  236   234   237   238     9
  236   234   237   239     9
  236   234   237   240     9
  234   237   240   241     9
  238   237   240   241     9
  239   237   240   241     9
  237   240   241   242     9
  237   240   241   243     9
  237   240   241   244     9
  240   241   244   245     9
  240   241   244   246     9
  240   241   244   247     9
  242   241   244   245     9
  242   241   244   246     9
  242   241   244   247     9
  243   241   244   245     9
  243   241   244   246     9
  243   241   244   247     9
  241   244   247   248     9
  245   244   247   248     9
  246   244   247   248     9
  244   247   248   249     9
  244   247   248   250     9
  244   247   248   251     9
  247   248   251   252     9
  247   248   251   253     9
  247   248   251   254     9
  249   248   251   252     9
  249   248   251   253     9
  249   248   251   254     9
  250   248   251   252     9
  250   248   251   253     9
  250   248   251   254     9
  248   251   254   255     9
  252   251   254   255     9
  253   251   254   255     9
  251   254   255   256     9
  251   254   255   257     9
  251   254   255   258     9
  254   255   258   259     9
  254   255   258   260     9
  254   255   258   261     9
  256   255   258   259     9
  256   255   258   260     9
  256   255   258   261     9
  257   255   258   259     9
  257   255   258   260     9
  257   255   258   261     9
  255   258   261   262     9
  259   258   261   262     9
  260   258   261   262     9
  258   261   262   263     9
  258   261   262   264     9
  258   261   262   265     9
  261   262   265   266     9
  261   262   265   267     9
  261   262   265   268     9
  263   262   265   266     9
  263   262   265   267     9
  263   262   265   268     9
  264   262   265   266     9
  264   262   265   267     9
  264   262   265   268     9
  262   265   268   269     9
  266   265   268   269     9
  267   265   268   269     9
  265   268   269   270     9
  265   268   269   271     9
  265   268   269   272     9
  268   269   272   273     9
  268   269   272   274     9
  268   269   272   275     9
  270   269   272   273     9
  270   269   272   274     9
  270   269   272   275     9
  271   269   272   273     9
  271   269   272   274     9
  271   269   272   275     9
  269   272   275   276     9
  273   272   275   276     9
  274   272   275   276     9
  272   275   276   277     9
  272   275   276   278     9
  272   275   276   279     9
  275   276   279   280     9
  275   276   279   281     9
  275   276   279   282     9
  277   276   279   280     9
  277   276   279   281     9
  277   276   279   282     9
  278   276   279   280     9
  278   276   279   281     9
  278   276   279   282     9
  276   279   282   283     9
  280   279   282   283     9
  281   279   282   283     9
  279   282   283   284     9
  279   282   283   285     9
  279   282   283   286     9
  282   283   286   287     9
  282   283   286   288     9
  282   283   286   289     9
  284   283   286   287     9
  284   283   286   288     9
  284   283   286   289     9
  285   283   286   287     9
  285   283   286   288     9
  285   283   286   289     9
  283   286   289   290     9
  287   286   289   290     9
  288   286   289   290     9
  286   289   290   291     9
  286   289   290   292     9
  286   289   290   293     9
  289   290   293   294     9
  289   290   293   295     9
  289   290   293   296     9
  291   290   293   294     9
  291   290   293   295     9
  291   290   293   296     9
  292   290   293   294     9
  292   290   293   295     9
  292   290   293   296     9
  290   293   296   297     9
  294   293   296   297     9
  295   293   296   297     9
  293   296   297   298     9
  293   296   297   299     9
  293   296   297   300     9
  296   297   300   301     9
  296   297   300   302     9
  296   297   300   303     9
  298   297   300   301     9
  298   297   300   302     9
  298   297   300   303     9
  299   297   300   301     9
  299   297   300   302     9
  299   297   300   303     9
  297   300   303   304     9
  301   300   303   304     9
  302   300   303   304     9
  300   303   304   305     9
  300   303   304   306     9
  300   303   304   307     9
  303   304   307   308     9
  303   304   307   309     9
  303   304   307   310     9
  305   304   307   308     9
  305   304   307   309     9
  305   304   307   310     9
  306   304   307   308     9
  306   304   307   309     9
  306   304   307   310     9
  304   307   310   311     9
  308   307   310   311     9
  309   307   310   311     9
  307   310   311   312     9
  307   310   311   313     9
  307   310   311   314     9
  310   311   314   315     9
  310   311   314   316     9
  310   311   314   317     9
  312   311   314   315     9
  312   311   314   316     9
  312   311   314   317     9
  313   311   314   315     9
  313   311   314   316     9
  313   311   314   317     9
  311   314   317   318     9
  315   314   317   318     9
  316   314   317   318     9
  314   317   318   319     9
  314   317   318   320     9
  314   317   318   321     9
  317   318   321   322     9
  317   318   321   323     9
  317   318   321   324     9
  319   318   321   322     9
  319   318   321   323     9
  319   318   321   324     9
  320   318   321   322     9
  320   318   321   323     9
  320   318   321   324     9
  318   321   324   325     9
  322   321   324   325     9
  323   321   324   325     9
  321   324   325   326     9
  321   324   325   327     9
  321   324   325   328     9
  324   325   328   329     9
  324   325   328   330     9
  324   325   328   331     9
  326   325   328   329     9
  326   325   328   330     9
  326   325   328   331     9
  327   325   328   329     9
  327   325   328   330     9
  327   325   328   331     9
  325   328   331   332     9
  329   328   331   332     9
  330   328   331   332     9
  328   331   332   333     9
  328   331   332   334     9
  328   331   332   335     9
  331   332   335   336     9
  331   332   335   337     9
  331   332   335   338     9
  333   332   335   336     9
  333   332   335   337     9
  333   332   335   338     9
  334   332   335   336     9
  334   332   335   337     9
  334   332   335   338     9
  332   335   338   339     9
  336   335   338   339     9
  337   335   338   339     9
  335   338   339   340     9
  335   338   339   341     9
  335   338   339   342     9
  338   339   342   343     9
  338   339   342   344     9
  338   339   342   345     9
  340   339   342   343     9
  340   339   342   344     9
  340   339   342   345     9
  341   339   342   343     9
  341   339   342   344     9
  341   339   342   345     9
  339   342   345   346     9
  343   342   345   346     9
  344   342   345   346     9
  342   345   346   347     9
  342   345   346   348     9
  342   345   346   349     9
  345   346   349   350     9
  345   346   349   351     9
  345   346   349   352     9
  347   346   349   350     9
  347   346   349   351     9
  347   346   349   352     9
  348   346   349   350     9
  348   346   349   351     9
  348   346   349   352     9
  346   349   352   353     9
  350   349   352   353     9
  351   349   352   353     9
  349   352   353   354     9
  349   352   353   355     9
  349   352   353   356     9
  352   353   356   357     9
  352   353   356   358     9
  352   353   356   359     9
  354   353   356   357     9
  354   353   356   358     9
  354   353   356   359     9
  355   353   356   357     9
  355   353   356   358     9
  355   353   356   359     9
  353   356   359   360     9
  357   356   359   360     9
  358   356   359   360     9
  356   359   360   361     9
  356   359   360   362     9
  356   359   360   363     9
  359   360   363   364     9
  359   360   363   365     9
  359   360   363   366     9
  361   360   363   364     9
  361   360   363   365     9
  361   360   363   366     9
  362   360   363   364     9
  362   360   363   365     9
  362   360   363   366     9
  360   363   366   367     9
  364   363   366   367     9
  365   363   366   367     9
  363   366   367   368     9
  363   366   367   369     9
  363   366   367   370     9
  366   367   370   371     9
  366   367   370   372     9
  366   367   370   373     9
  368   367   370   371     9
  368   367   370   372     9
  368   367   370   373     9
  369   367   370   371     9
  369   367   370   372     9
  369   367   370   373     9
  367   370   373   374     9
  371   370   373   374     9
  372   370   373   374     9
  370   373   374   375     9
  370   373   374   376     9
  370   373   374   377     9
  373   374   377   378     9
  373   374   377   379     9
  373   374   377   380     9
  375   374   377   378     9
  375   374   377   379     9
  375   374   377   380     9
  376   374   377   378     9
  376   374   377   379     9
  376   374   377   380     9
  374   377   380   381     9
  378   377   380   381     9
  379   377   380   381     9
  377   380   381   382     9
  377   380   381   383     9
  377   380   381   384     9
  380   381   384   385     9
  380   381   384   386     9
  380   381   384   387     9
  382   381   384   385     9
  382   381   384   386     9
  382   381   384   387     9
  383   381   384   385     9
  383   381   384   386     9
  383   381   384   387     9
  381   384   387   388     9
  385   384   387   388     9
  386   384   387   388     9
  384   387   388   389     9
  384   387   388   390     9
  384   387   388   391     9
  387   388   391   392     9
  387   388   391   393     9
  387   388   391   394     9
  389   388   391   392     9
  389   388   391   393     9
  389   388   391   394     9
  390   388   391   392     9
  390   388   391   393     9
  390   388   391   394     9
  388   391   394   395     9
  392   391   394   395     9
  393   391   394   395     9
  391   394   395   396     9
  391   394   395   397     9
  391   394   395   398     9
  394   395   398   399     9
  394   395   398   400     9
  394   395   398   401     9
  396   395   398   399     9
  396   395   398   400     9
  396   395   398   401     9
  397   395   398   399     9
  397   395   398   400     9
  397   395   398   401     9
  395   398   401   402     9
  399   398   401   402     9
  400   398   401   402     9
  398   401   402   403     9
  398   401   402   404     9
  398   401   402   405     9
  401   402   405   406     9
  401   402   405   407     9
  401   402   405   408     9
  403   402   405   406     9
  403   402   405   407     9
  403   402   405   408     9
  404   402   405   406     9
  404   402   405   407     9
  404   402   405   408     9
  402   405   408   409     9
  406   405   408   409     9
  407   405   408   409     9
  405   408   409   410     9
  405   408   409   411     9
  405   408   409   412     9
  408   409   412   413     9
  408   409   412   414     9
  408   409   412   415     9
  410   409   412   413     9
  410   409   412   414     9
  410   409   412   415     9
  411   409   412   413     9
  411   409   412   414     9
  411   409   412   415     9
  409   412   415   416     9
  413   412   415   416     9
  414   412   415   416     9
  412   415   416   417     9
  412   415   416   418     9
  412   415   416   419     9
  415   416   419   420     9
  415   416   419   421     9
  415   416   419   422     9
  417   416   419   420     9
  417   416   419   421     9
  417   416   419   422     9
  418   416   419   420     9
  418   416   419   421     9
  418   416   419   422     9
  416   419   422   423     9
  420   419   422   423     9
  421   419   422   423     9
  419   422   423   424     9
  419   422   423   425     9
  419   422   423   426     9
  422   423   426   427     9
  422   423   426   428     9
  422   423   426   429     9
  424   423   426   427     9
  424   423   426   428     9
  424   423   426   429     9
  425   423   426   427     9
  425   423   426   428     9
  425   423   426   429     9
  423   426   429   430     9
  427   426   429   430     9
  428   426   429   430     9
  426   429   430   431     9
  426   429   430   432     9
  426   429   430   433     9
  429   430   433   434     9
  429   430   433   435     9
  429   430   433   436     9
  431   430   433   434     9
  431   430   433   435     9
  431   430   433   436     9
  432   430   433   434     9
  432   430   433   435     9
  432   430   433   436     9
  430   433   436   437     9
  434   433   436   437     9
  435   433   436   437     9
  433   436   437   438     9
  433   436   437   439     9
  433   436   437   440     9
  436   437   440   441     9
  436   437   440   442     9
  436   437   440   443     9
  438   437   440   441     9
  438   437   440   442     9
  438   437   440   443     9
  439   437   440   441     9
  439   437   440   442     9
  439   437   440   443     9
  437   440   443   444     9
  441   440   443   444     9
  442   440   443   444     9
  440   443   444   445     9
  440   443   444   446     9
  440   443   444   447     9
  443   444   447   448     9
  443   444   447   449     9
  443   444   447   450     9
  445   444   447   448     9
  445   444   447   449     9
  445   444   447   450     9
  446   444   447   448     9
  446   444   447   449     9
  446   444   447   450     9
  444   447   450   451     9
  448   447   450   451     9
  449   447   450   451     9
  447   450   451   452     9
  447   450   451   453     9
  447   450   451   454     9
  450   451   454   455     9
  450   451   454   456     9
  450   451   454   457     9
  452   451   454   455     9
  452   451   454   456     9
  452   451   454   457     9
  453   451   454   455     9
  453   451   454   456     9
  453   451   454   457     9
  451   454   457   458     9
  455   454   457   458     9
  456   454   457   458     9
  454   457   458   459     9
  454   457   458   460     9
  454   457   458   461     9
  457   458   461   462     9
  457   458   461   463     9
  457   458   461   464     9
  459   458   461   462     9
  459   458   461   463     9
  459   458   461   464     9
  460   458   461   462     9
  460   458   461   463     9
  460   458   461   464     9
  458   461   464   465     9
  462   461   464   465     9
  463   461   464   465     9
  461   464   465   466     9
  461   464   465   467     9
  461   464   465   468     9
  464   465   468   469     9
  464   465   468   470     9
  464   465   468   471     9
  466   465   468   469     9
  466   465   468   470     9
  466   465   468   471     9
  467   465   468   469     9
  467   465   468   470     9
  467   465   468   471     9
  465   468   471   472     9
  469   468   471   472     9
  470   468   471   472     9
  468   471   472   473     9
  468   471   472   474     9
  468   471   472   475     9
  471   472   475   476     9
  471   472   475   477     9
  471   472   475   478     9
  473   472   475   476     9
  473   472   475   477     9
  473   472   475   478     9
  474   472   475   476     9
  474   472   475   477     9
  474   472   475   478     9
  472   475   478   479     9
  476   475   478   479     9
  477   475   478   479     9
  475   478   479   480     9
  475   478   479   481     9
  475   478   479   482     9
  478   479   482   483     9
  478   479   482   484     9
  478   479   482   485     9
  480   479   482   483     9
  480   479   482   484     9
  480   479   482   485     9
  481   479   482   483     9
  481   479   482   484     9
  481   479   482   485     9
  479   482   485   486     9
  483   482   485   486     9
  484   482   485   486     9
  482   485   486   487     9
  482   485   486   488     9
  482   485   486   489     9
  485   486   489   490     9
  485   486   489   491     9
  485   486   489   492     9
  487   486   489   490     9
  487   486   489   491     9
  487   486   489   492     9
  488   486   489   490     9
  488   486   489   491     9
  488   486   489   492     9
  486   489   492   493     9
  490   489   492   493     9
  491   489   492   493     9
  489   492   493   494     9
  489   492   493   495     9
  489   492   493   496     9
  492   493   496   497     9
  492   493   496   498     9
  492   493   496   499     9
  494   493   496   497     9
  494   493   496   498     9
  494   493   496   499     9
  495   493   496   497     9
  495   493   496   498     9
  495   493   496   499     9
  493   496   499   500     9
  497   496   499   500     9
  498   496   499   500     9
  496   499   500   501     9
  496   499   500   502     9
  496   499   500   503     9
  499   500   503   504     9
  499   500   503   505     9
  499   500   503   506     9
  501   500   503   504     9
  501   500   503   505     9
  501   500   503   506     9
  502   500   503   504     9
  502   500   503   505     9
  502   500   503   506     9
  500   503   506   507     9
  504   503   506   507     9
  505   503   506   507     9
  503   506   507   508     9
  503   506   507   509     9
  503   506   507   510     9
  506   507   510   511     9
  506   507   510   512     9
  506   507   510   513     9
  508   507   510   511     9
  508   507   510   512     9
  508   507   510   513     9
  509   507   510   511     9
  509   507   510   512     9
  509   507   510   513     9
  507   510   513   514     9
  511   510   513   514     9
  512   510   513   514     9
  510   513   514   515     9
  510   513   514   516     9
  510   513   514   517     9
  513   514   517   518     9
  513   514   517   519     9
  513   514   517   520     9
  515   514   517   518     9
  515   514   517   519     9
  515   514   517   520     9
  516   514   517   518     9
  516   514   517   519     9
  516   514   517   520     9
  514   517   520   521     9
  518   517   520   521     9
  519   517   520   521     9
  517   520   521   522     9
  517   520   521   523     9
  517   520   521   524     9
  520   521   524   525     9
  520   521   524   526     9
  520   521   524   527     9
  522   521   524   525     9
  522   521   524   526     9
  522   521   524   527     9
  523   521   524   525     9
  523   521   524   526     9
  523   521   524   527     9
  521   524   527   528     9
  525   524   527   528     9
  526   524   527   528     9
  524   527   528   529     9
  524   527   528   530     9
  524   527   528   531     9
  527   528   531   532     9
  527   528   531   533     9
  527   528   531   534     9
  529   528   531   532     9
  529   528   531   533     9
  529   528   531   534     9
  530   528   531   532     9
  530   528   531   533     9
  530   528   531   534     9
  528   531   534   535     9
  532   531   534   535     9
  533   531   534   535     9
  531   534   535   536     9
  531   534   535   537     9
  531   534   535   538     9
  534   535   538   539     9
  534   535   538   540     9
  534   535   538   541     9
  536   535   538   539     9
  536   535   538   540     9
  536   535   538   541     9
  537   535   538   539     9
  537   535   538   540     9
  537   535   538   541     9
  535   538   541   542     9
  539   538   541   542     9
  540   538   541   542     9
  538   541   542   543     9
  538   541   542   544     9
  538   541   542   545     9
  541   542   545   546     9
  541   542   545   547     9
  541   542   545   548     9
  543   542   545   546     9
  543   542   545   547     9
  543   542   545   548     9
  544   542   545   546     9
  544   542   545   547     9
  544   542   545   548     9
  542   545   548   549     9
  546   545   548   549     9
  547   545   548   549     9
  545   548   549   550     9
  545   548   549   551     9
  545   548   549   552     9
  548   549   552   553     9
  548   549   552   554     9
  548   549   552   555     9
  550   549   552   553     9
  550   549   552   554     9
  550   549   552   555     9
  551   549   552   553     9
  551   549   552   554     9
  551   549   552   555     9
  549   552   555   556     9
  553   552   555   556     9
  554   552   555   556     9
  552   555   556   557     9
  552   555   556   558     9
  552   555   556   559     9
  555   556   559   560     9
  555   556   559   561     9
  555   556   559   562     9
  557   556   559   560     9
  557   556   559   561     9
  557   556   559   562     9
  558   556   559   560     9
  558   556   559   561     9
  558   556   559   562     9
  556   559   562   563     9
  560   559   562   563     9
  561   559   562   563     9
  559   562   563   564     9
  559   562   563   565     9
  559   562   563   566     9
  562   563   566   567     9
  562   563   566   568     9
  562   563   566   569     9
  564   563   566   567     9
  564   563   566   568     9
  564   563   566   569     9
  565   563   566   567     9
  565   563   566   568     9
  565   563   566   569     9
  563   566   569   570     9
  567   566   569   570     9
  568   566   569   570     9
  566   569   570   571     9
  566   569   570   572     9
  566   569   570   573     9
  569   570   573   574     9
  569   570   573   575     9
  569   570   573   576     9
  571   570   573   574     9
  571   570   573   575     9
  571   570   573   576     9
  572   570   573   574     9
  572   570   573   575     9
  572   570   573   576     9
  570   573   576   577     9
  574   573   576   577     9
  575   573   576   577     9
  573   576   577   578     9
  573   576   577   579     9
  573   576   577   580     9
  576   577   580   581     9
  576   577   580   582     9
  576   577   580   583     9
  578   577   580   581     9
  578   577   580   582     9
  578   577   580   583     9
  579   577   580   581     9
  579   577   580   582     9
  579   577   580   583     9
  577   580   583   584     9
  581   580   583   584     9
  582   580   583   584     9
  580   583   584   585     9
  580   583   584   586     9
  580   583   584   587     9
  583   584   587   588     9
  583   584   587   589     9
  583   584   587   590     9
  585   584   587   588     9
  585   584   587   589     9
  585   584   587   590     9
  586   584   587   588     9
  586   584   587   589     9
  586   584   587   590     9
  584   587   590   591     9
  588   587   590   591     9
  589   587   590   591     9
  587   590   591   592     9
  587   590   591   593     9
  587   590   591   594     9
  590   591   594   595     9
  590   591   594   596     9
  590   591   594   597     9
  592   591   594   595     9
  592   591   594   596     9
  592   591   594   597     9
  593   591   594   595     9
  593   591   594   596     9
  593   591   594   597     9
  591   594   597   598     9
  595   594   597   598     9
  596   594   597   598     9
  594   597   598   599     9
  594   597   598   600     9
  594   597   598   601     9
  597   598   601   602     9
  597   598   601   603     9
  597   598   601   604     9
  599   598   601   602     9
  599   598   601   603     9
  599   598   601   604     9
  600   598   601   602     9
  600   598   601   603     9
  600   598   601   604     9
  598   601   604   605     9
  602   601   604   605     9
  603   601   604   605     9
  601   604   605   606     9
  601   604   605   607     9
  601   604   605   608     9
  604   605   608   609     9
  604   605   608   610     9
  604   605   608   611     9
  606   605   608   609     9
  606   605   608   610     9
  606   605   608   611     9
  607   605   608   609     9
  607   605   608   610     9
  607   605   608   611     9
  605   608   611   612     9
  609   608   611   612     9
  610   608   611   612     9
  608   611   612   613     9
  608   611   612   614     9
  608   611   612   615     9
  611   612   615   616     9
  611   612   615   617     9
  611   612   615   618     9
  613   612   615   616     9
  613   612   615   617     9
  613   612   615   618     9
  614   612   615   616     9
  614   612   615   617     9
  614   612   615   618     9
  612   615   618   619     9
  616   615   618   619     9
  617   615   618   619     9
  615   618   619   620     9
  615   618   619   621     9
  615   618   619   622     9
  618   619   622   623     9
  618   619   622   624     9
  618   619   622   625     9
  620   619   622   623     9
  620   619   622   624     9
  620   619   622   625     9
  621   619   622   623     9
  621   619   622   624     9
  621   619   622   625     9
  619   622   625   626     9
  623   622   625   626     9
  624   622   625   626     9
  622   625   626   627     9
  622   625   626   628     9
  622   625   626   629     9
  625   626   629   630     9
  625   626   629   631     9
  625   626   629   632     9
  627   626   629   630     9
  627   626   629   631     9
  627   626   629   632     9
  628   626   629   630     9
  628   626   629   631     9
  628   626   629   632     9
  626   629   632   633     9
  630   629   632   633     9
  631   629   632   633     9
  629   632   633   634     9
  629   632   633   635     9
  629   632   633   636     9
  632   633   636   637     9
  632   633   636   638     9
  632   633   636   639     9
  634   633   636   637     9
  634   633   636   638     9
  634   633   636   639     9
  635   633   636   637     9
  635   633   636   638     9
  635   633   636   639     9
  633   636   639   640     9
  637   636   639   640     9
  638   636   639   640     9
  636   639   640   641     9
  636   639   640   642     9
  636   639   640   643     9
  639   640   643   644     9
  639   640   643   645     9
  639   640   643   646     9
  641   640   643   644     9
  641   640   643   645     9
  641   640   643   646     9
  642   640   643   644     9
  642   640   643   645     9
  642   640   643   646     9
  640   643   646   647     9
  644   643   646   647     9
  645   643   646   647     9
  643   646   647   648     9
  643   646   647   649     9
  643   646   647   650     9
  646   647   650   651     9
  646   647   650   652     9
  646   647   650   653     9
  648   647   650   651     9
  648   647   650   652     9
  648   647   650   653     9
  649   647   650   651     9
  649   647   650   652     9
  649   647   650   653     9
  647   650   653   654     9
  651   650   653   654     9
  652   650   653   654     9
  650   653   654   655     9
  650   653   654   656     9
  650   653   654   657     9
  653   654   657   658     9
  653   654   657   659     9
  653   654   657   660     9
  655   654   657   658     9
  655   654   657   659     9
  655   654   657   660     9
  656   654   657   658     9
  656   654   657   659     9
  656   654   657   660     9
  654   657   660   661     9
  658   657   660   661     9
  659   657   660   661     9
  657   660   661   662     9
  657   660   661   663     9
  657   660   661   664     9
  660   661   664   665     9
  660   661   664   666     9
  660   661   664   667     9
  662   661   664   665     9
  662   661   664   666     9
  662   661   664   667     9
  663   661   664   665     9
  663   661   664   666     9
  663   661   664   667     9
  661   664   667   668     9
  665   664   667   668     9
  666   664   667   668     9
  664   667   668   669     9
  664   667   668   670     9
  664   667   668   671     9
  667   668   671   672     9
  667   668   671   673     9
  667   668   671   674     9
  669   668   671   672     9
  669   668   671   673     9
  669   668   671   674     9
  670   668   671   672     9
  670   668   671   673     9
  670   668   671   674     9
  668   671   674   675     9
  672   671   674   675     9
  673   671   674   675     9
  671   674   675   676     9
  671   674   675   677     9
  671   674   675   678     9
  674   675   678   679     9
  674   675   678   680     9
  674   675   678   681     9
  676   675   678   679     9
  676   675   678   680     9
  676   675   678   681     9
  677   675   678   679     9
  677   675   678   680     9
  677   675   678   681     9
  675   678   681   682     9
  679   678   681   682     9
  680   678   681   682     9
  678   681   682   683     9
  678   681   682   684     9
  678   681   682   685     9
  681   682   685   686     9
  681   682   685   687     9
  681   682   685   688     9
  683   682   685   686     9
  683   682   685   687     9
  683   682   685   688     9
  684   682   685   686     9
  684   682   685   687     9
  684   682   685   688     9
  682   685   688   689     9
  686   685   688   689     9
  687   685   688   689     9
  685   688   689   690     9
  685   688   689   691     9
  685   688   689   692     9
  688   689   692   693     9
  688   689   692   694     9
  688   689   692   695     9
  690   689   692   693     9
  690   689   692   694     9
  690   689   692   695     9
  691   689   692   693     9
  691   689   692   694     9
  691   689   692   695     9
  689   692   695   696     9
  693   692   695   696     9
  694   692   695   696     9
  692   695   696   697     9
  692   695   696   698     9
  692   695   696   699     9
  695   696   699   700     9
  695   696   699   701     9
  695   696   699   702     9
  697   696   699   700     9
  697   696   699   701     9
  697   696   699   702     9
  698   696   699   700     9
  698   696   699   701     9
  698   696   699   702     9
  696   699   702   703     9
  700   699   702   703     9
  701   699   702   703     9
  699   702   703   704     9
  699   702   703   705     9
  699   702   703   706     9
  702   703   706   707     9
  702   703   706   708     9
  702   703   706   712     9
  704   703   706   707     9
  704   703   706   708     9
  704   703   706   712     9
  705   703   706   707     9
  705   703   706   708     9
  705   703   706   712     9
  703   706   708   709     9
  703   706   708   710     9
  703   706   708   711     9
  707   706   708   709     9
  707   706   708   710     9
  707   706   708   711     9
  703   706   712   713     9
  707   706   712   713     9
  708   706   712   713     9
  709   708   706   712     9
  710   708   706   712     9
  711   708   706   712     9
  706   712   713   714     9
  706   712   713   715     9
  706   712   713   716     9
  712   713   716   717     9
  712   713   716   718     9
  712   713   716   722     9
  714   713   716   717     9
  714   713   716   718     9
  714   713   716   722     9
  715   713   716   717     9
  715   713   716   718     9
  715   713   716   722     9
  713   716   718   719     9
  713   716   718   720     9
  713   716   718   721     9
  717   716   718   719     9
  717   716   718   720     9
  717   716   718   721     9
  713   716   722   723     9
  717   716   722   723     9
  718   716   722   723     9
  719   718   716   722     9
  720   718   716   722     9
  721   718   716   722     9
  716   722   723   724     9
  716   722   723   725     9
  716   722   723   726     9
  722   723   726   727     9
  722   723   726   728     9
  722   723   726   732     9
  724   723   726   727     9
  724   723   726   728     9
  724   723   726   732     9
  725   723   726   727     9
  725   723   726   728     9
  725   723   726   732     9
  723   726   728   729     9
  723   726   728   730     9
  723   726   728   731     9
  727   726   728   729     9
  727   726   728   730     9
  727   726   728   731     9
  723   726   732   733     9
  727   726   732   733     9
  728   726   732   733     9
  729   728   726   732     9
  730   728   726   732     9
  731   728   726   732     9
  726   732   733   734     9
  726   732   733   735     9
  726   732   733   736     9
  732   733   736   737     9
  732   733   736   738     9
  732   733   736   742     9
  734   733   736   737     9
  734   733   736   738     9
  734   733   736   742     9
  735   733   736   737     9
  735   733   736   738     9
  735   733   736   742     9
  733   736   738   739     9
  733   736   738   740     9
  733   736   738   741     9
  737   736   738   739     9
  737   736   738   740     9
  737   736   738   741     9
  733   736   742   743     9
  737   736   742   743     9
  738   736   742   743     9
  739   738   736   742     9
  740   738   736   742     9
  741   738   736   742     9
  736   742   743   744     9
  736   742   743   745     9
  736   742   743   746     9
  742   743   746   747     9
  742   743   746   748     9
  742   743   746   752     9
  744   743   746   747     9
  744   743   746   748     9
  744   743   746   752     9
  745   743   746   747     9
  745   743   746   748     9
  745   743   746   752     9
  743   746   748   749     9
  743   746   748   750     9
  743   746   748   751     9
  747   746   748   749     9
  747   746   748   750     9
  747   746   748   751     9
  743   746   752   753     9
  747   746   752   753     9
  748   746   752   753     9
  749   748   746   752     9
  750   748   746   752     9
  751   748   746   752     9
  746   752   753   754     9
  746   752   753   755     9
  746   752   753   756     9
  752   753   756   757     9
  752   753   756   758     9
  752   753   756   762     9
  754   753   756   757     9
  754   753   756   758     9
  754   753   756   762     9
  755   753   756   757     9
  755   753   756   758     9
  755   753   756   762     9
  753   756   758   759     9
  753   756   758   760     9
  753   756   758   761     9
  757   756   758   759     9
  757   756   758   760     9
  757   756   758   761     9
  753   756   762   763     9
  757   756   762   763     9
  758   756   762   763     9
  759   758   756   762     9
  760   758   756   762     9
  761   758   756   762     9
  756   762   763   764     9
  756   762   763   765     9
  756   762   763   766     9
  762   763   766   767     9
  762   763   766   768     9
  762   763   766   772     9
  764   763   766   767     9
  764   763   766   768     9
  764   763   766   772     9
  765   763   766   767     9
  765   763   766   768     9
  765   763   766   772     9
  763   766   768   769     9
  763   766   768   770     9
  763   766   768   771     9
  767   766   768   769     9
  767   766   768   770     9
  767   766   768   771     9
  763   766   772   773     9
  767   766   772   773     9
  768   766   772   773     9
  769   768   766   772     9
  770   768   766   772     9
  771   768   766   772     9
  766   772   773   774     9
  766   772   773   775     9
  766   772   773   776     9
  772   773   776   777     9
  772   773   776   778     9
  772   773   776   782     9
  774   773   776   777     9
  774   773   776   778     9
  774   773   776   782     9
  775   773   776   777     9
  775   773   776   778     9
  775   773   776   782     9
  773   776   778   779     9
  773   776   778   780     9
  773   776   778   781     9
  777   776   778   779     9
  777   776   778   780     9
  777   776   778   781     9
  773   776   782   783     9
  777   776   782   783     9
  778   776   782   783     9
  779   778   776   782     9
  780   778   776   782     9
  781   778   776   782     9
  776   782   783   784     9
  776   782   783   785     9
  776   782   783   786     9
  782   783   786   787     9
  782   783   786   788     9
  782   783   786   792     9
  784   783   786   787     9
  784   783   786   788     9
  784   783   786   792     9
  785   783   786   787     9
  785   783   786   788     9
  785   783   786   792     9
  783   786   788   789     9
  783   786   788   790     9
  783   786   788   791     9
  787   786   788   789     9
  787   786   788   790     9
  787   786   788   791     9
  783   786   792   793     9
  787   786   792   793     9
  788   786   792   793     9
  789   788   786   792     9
  790   788   786   792     9
  791   788   786   792     9
  786   792   793   794     9
  786   792   793   795     9
  786   792   793   796     9
  792   793   796   797     9
  792   793   796   798     9
  792   793   796   802     9
  794   793   796   797     9
  794   793   796   798     9
  794   793   796   802     9
  795   793   796   797     9
  795   793   796   798     9
  795   793   796   802     9
  793   796   798   799     9
  793   796   798   800     9
  793   796   798   801     9
  797   796   798   799     9
  797   796   798   800     9
  797   796   798   801     9
  793   796   802   803     9
  797   796   802   803     9
  798   796   802   803     9
  799   798   796   802     9
  800   798   796   802     9
  801   798   796   802     9
  796   802   803   804     9
  796   802   803   805     9
  796   802   803   806     9
  802   803   806   807     9
  802   803   806   808     9
  802   803   806   812     9
  804   803   806   807     9
  804   803   806   808     9
  804   803   806   812     9
  805   803   806   807     9
  805   803   806   808     9
  805   803   806   812     9
  803   806   808   809     9
  803   806   808   810     9
  803   806   808   811     9
  807   806   808   809     9
  807   806   808   810     9
  807   806   808   811     9
  803   806   812   813     9
  807   806   812   813     9
  808   806   812   813     9
  809   808   806   812     9
  810   808   806   812     9
  811   808   806   812     9
  806   812   813   814     9
  806   812   813   815     9
  806   812   813   816     9
  812   813   816   817     9
  812   813   816   818     9
  812   813   816   822     9
  814   813   816   817     9
  814   813   816   818     9
  814   813   816   822     9
  815   813   816   817     9
  815   813   816   818     9
  815   813   816   822     9
  813   816   818   819     9
  813   816   818   820     9
  813   816   818   821     9
  817   816   818   819     9
  817   816   818   820     9
  817   816   818   821     9
  813   816   822   823     9
  817   816   822   823     9
  818   816   822   823     9
  819   818   816   822     9
  820   818   816   822     9
  821   818   816   822     9
  816   822   823   824     9
  816   822   823   825     9
  816   822   823   826     9
  822   823   826   827     9
  822   823   826   828     9
  822   823   826   832     9
  824   823   826   827     9
  824   823   826   828     9
  824   823   826   832     9
  825   823   826   827     9
  825   823   826   828     9
  825   823   826   832     9
  823   826   828   829     9
  823   826   828   830     9
  823   826   828   831     9
  827   826   828   829     9
  827   826   828   830     9
  827   826   828   831     9
  823   826   832   833     9
  827   826   832   833     9
  828   826   832   833     9
  829   828   826   832     9
  830   828   826   832     9
  831   828   826   832     9
  826   832   833   834     9
  826   832   833   835     9
  826   832   833   836     9
  832   833   836   837     9
  832   833   836   838     9
  832   833   836   842     9
  834   833   836   837     9
  834   833   836   838     9
  834   833   836   842     9
  835   833   836   837     9
  835   833   836   838     9
  835   833   836   842     9
  833   836   838   839     9
  833   836   838   840     9
  833   836   838   841     9
  837   836   838   839     9
  837   836   838   840     9
  837   836   838   841     9
  833   836   842   843     9
  837   836   842   843     9
  838   836   842   843     9
  839   838   836   842     9
  840   838   836   842     9
  841   838   836   842     9
  836   842   843   844     9
  836   842   843   845     9
  836   842   843   846     9
  842   843   846   847     9
  842   843   846   848     9
  842   843   846   852     9
  844   843   846   847     9
  844   843   846   848     9
  844   843   846   852     9
  845   843   846   847     9
  845   843   846   848     9
  845   843   846   852     9
  843   846   848   849     9
  843   846   848   850     9
  843   846   848   851     9
  847   846   848   849     9
  847   846   848   850     9
  847   846   848   851     9
  843   846   852   853     9
  847   846   852   853     9
  848   846   852   853     9
  849   848   846   852     9
  850   848   846   852     9
  851   848   846   852     9
  846   852   853   854     9
  846   852   853   855     9
  846   852   853   856     9
  852   853   856   857     9
  852   853   856   858     9
  852   853   856   862     9
  854   853   856   857     9
  854   853   856   858     9
  854   853   856   862     9
  855   853   856   857     9
  855   853   856   858     9
  855   853   856   862     9
  853   856   858   859     9
  853   856   858   860     9
  853   856   858   861     9
  857   856   858   859     9
  857   856   858   860     9
  857   856   858   861     9
  853   856   862   863     9
  857   856   862   863     9
  858   856   862   863     9
  859   858   856   862     9
  860   858   856   862     9
  861   858   856   862     9
  856   862   863   864     9
  856   862   863   865     9
  856   862   863   866     9
  862   863   866   867     9
  862   863   866   868     9
  862   863   866   872     9
  864   863   866   867     9
  864   863   866   868     9
  864   863   866   872     9
  865   863   866   867     9
  865   863   866   868     9
  865   863   866   872     9
  863   866   868   869     9
  863   866   868   870     9
  863   866   868   871     9
  867   866   868   869     9
  867   866   868   870     9
  867   866   868   871     9
  863   866   872   873     9
  867   866   872   873     9
  868   866   872   873     9
  869   868   866   872     9
  870   868   866   872     9
  871   868   866   872     9
  866   872   873   874     9
  866   872   873   875     9
  866   872   873   876     9
  872   873   876   877     9
  872   873   876   878     9
  872   873   876   882     9
  874   873   876   877     9
  874   873   876   878     9
  874   873   876   882     9
  875   873   876   877     9
  875   873   876   878     9
  875   873   876   882     9
  873   876   878   879     9
  873   876   878   880     9
  873   876   878   881     9
  877   876   878   879     9
  877   876   878   880     9
  877   876   878   881     9
  873   876   882   883     9
  877   876   882   883     9
  878   876   882   883     9
  879   878   876   882     9
  880   878   876   882     9
  881   878   876   882     9
  876   882   883   884     9
  876   882   883   885     9
  876   882   883   886     9
  882   883   886   887     9
  882   883   886   888     9
  882   883   886   892     9
  884   883   886   887     9
  884   883   886   888     9
  884   883   886   892     9
  885   883   886   887     9
  885   883   886   888     9
  885   883   886   892     9
  883   886   888   889     9
  883   886   888   890     9
  883   886   888   891     9
  887   886   888   889     9
  887   886   888   890     9
  887   886   888   891     9
  883   886   892   893     9
  887   886   892   893     9
  888   886   892   893     9
  889   888   886   892     9
  890   888   886   892     9
  891   888   886   892     9
  886   892   893   894     9
  886   892   893   895     9
  886   892   893   896     9
  892   893   896   897     9
  892   893   896   898     9
  892   893   896   902     9
  894   893   896   897     9
  894   893   896   898     9
  894   893   896   902     9
  895   893   896   897     9
  895   893   896   898     9
  895   893   896   902     9
  893   896   898   899     9
  893   896   898   900     9
  893   896   898   901     9
  897   896   898   899     9
  897   896   898   900     9
  897   896   898   901     9
  893   896   902   903     9
  897   896   902   903     9
  898   896   902   903     9
  899   898   896   902     9
  900   898   896   902     9
  901   898   896   902     9
  896   902   903   904     9
  896   902   903   905     9
  896   902   903   906     9
  902   903   906   907     9
  902   903   906   908     9
  902   903   906   912     9
  904   903   906   907     9
  904   903   906   908     9
  904   903   906   912     9
  905   903   906   907     9
  905   903   906   908     9
  905   903   906   912     9
  903   906   908   909     9
  903   906   908   910     9
  903   906   908   911     9
  907   906   908   909     9
  907   906   908   910     9
  907   906   908   911     9
  903   906   912   913     9
  907   906   912   913     9
  908   906   912   913     9
  909   908   906   912     9
  910   908   906   912     9
  911   908   906   912     9
  906   912   913   914     9
  906   912   913   915     9
  906   912   913   916     9
  912   913   916   917     9
  912   913   916   918     9
  912   913   916   922     9
  914   913   916   917     9
  914   913   916   918     9
  914   913   916   922     9
  915   913   916   917     9
  915   913   916   918     9
  915   913   916   922     9
  913   916   918   919     9
  913   916   918   920     9
  913   916   918   921     9
  917   916   918   919     9
  917   916   918   920     9
  917   916   918   921     9
  913   916   922   923     9
  917   916   922   923     9
  918   916   922   923     9
  919   918   916   922     9
  920   918   916   922     9
  921   918   916   922     9
  916   922   923   924     9
  916   922   923   925     9
  916   922   923   926     9
  922   923   926   927     9
  922   923   926   928     9
  922   923   926   932     9
  924   923   926   927     9
  924   923   926   928     9
  924   923   926   932     9
  925   923   926   927     9
  925   923   926   928     9
  925   923   926   932     9
  923   926   928   929     9
  923   926   928   930     9
  923   926   928   931     9
  927   926   928   929     9
  927   926   928   930     9
  927   926   928   931     9
  923   926   932   933     9
  927   926   932   933     9
  928   926   932   933     9
  929   928   926   932     9
  930   928   926   932     9
  931   928   926   932     9
  926   932   933   934     9
  926   932   933   935     9
  926   932   933   936     9
  932   933   936   937     9
  932   933   936   938     9
  932   933   936   942     9
  934   933   936   937     9
  934   933   936   938     9
  934   933   936   942     9
  935   933   936   937     9
  935   933   936   938     9
  935   933   936   942     9
  933   936   938   939     9
  933   936   938   940     9
  933   936   938   941     9
  937   936   938   939     9
  937   936   938   940     9
  937   936   938   941     9
  933   936   942   943     9
  937   936   942   943     9
  938   936   942   943     9
  939   938   936   942     9
  940   938   936   942     9
  941   938   936   942     9
  936   942   943   944     9
  936   942   943   945     9
  936   942   943   946     9
  942   943   946   947     9
  942   943   946   948     9
  942   943   946   952     9
  944   943   946   947     9
  944   943   946   948     9
  944   943   946   952     9
  945   943   946   947     9
  945   943   946   948     9
  945   943   946   952     9
  943   946   948   949     9
  943   946   948   950     9
  943   946   948   951     9
  947   946   948   949     9
  947   946   948   950     9
  947   946   948   951     9
  943   946   952   953     9
  947   946   952   953     9
  948   946   952   953     9
  949   948   946   952     9
  950   948   946   952     9
  951   948   946   952     9
  946   952   953   954     9
  946   952   953   955     9
  946   952   953   956     9
  952   953   956   957     9
  952   953   956   958     9
  952   953   956   962     9
  954   953   956   957     9
  954   953   956   958     9
  954   953   956   962     9
  955   953   956   957     9
  955   953   956   958     9
  955   953   956   962     9
  953   956   958   959     9
  953   956   958   960     9
  953   956   958   961     9
  957   956   958   959     9
  957   956   958   960     9
  957   956   958   961     9
  953   956   962   963     9
  957   956   962   963     9
  958   956   962   963     9
  959   958   956   962     9
  960   958   956   962     9
  961   958   956   962     9
  956   962   963   964     9
  956   962   963   965     9
  956   962   963   966     9
  962   963   966   967     9
  962   963   966   968     9
  962   963   966   972     9
  964   963   966   967     9
  964   963   966   968     9
  964   963   966   972     9
  965   963   966   967     9
  965   963   966   968     9
  965   963   966   972     9
  963   966   968   969     9
  963   966   968   970     9
  963   966   968   971     9
  967   966   968   969     9
  967   966   968   970     9
  967   966   968   971     9
  963   966   972   973     9
  967   966   972   973     9
  968   966   972   973     9
  969   968   966   972     9
  970   968   966   972     9
  971   968   966   972     9
  966   972   973   974     9
  966   972   973   975     9
  966   972   973   976     9
  972   973   976   977     9
  972   973   976   978     9
  972   973   976   982     9
  974   973   976   977     9
  974   973   976   978     9
  974   973   976   982     9
  975   973   976   977     9
  975   973   976   978     9
  975   973   976   982     9
  973   976   978   979     9
  973   976   978   980     9
  973   976   978   981     9
  977   976   978   979     9
  977   976   978   980     9
  977   976   978   981     9
  973   976   982   983     9
  977   976   982   983     9
  978   976   982   983     9
  979   978   976   982     9
  980   978   976   982     9
  981   978   976   982     9
  976   982   983   984     9
  976   982   983   985     9
  976   982   983   986     9
  982   983   986   987     9
  982   983   986   988     9
  982   983   986   992     9
  984   983   986   987     9
  984   983   986   988     9
  984   983   986   992     9
  985   983   986   987     9
  985   983   986   988     9
  985   983   986   992     9
  983   986   988   989     9
  983   986   988   990     9
  983   986   988   991     9
  987   986   988   989     9
  987   986   988   990     9
  987   986   988   991     9
  983   986   992   993     9
  987   986   992   993     9
  988   986   992   993     9
  989   988   986   992     9
  990   988   986   992     9
  991   988   986   992     9
  986   992   993   994     9
  986   992   993   995     9
  986   992   993   996     9
  992   993   996   997     9
  992   993   996   998     9
  992   993   996  1002     9
  994   993   996   997     9
  994   993   996   998     9
  994   993   996  1002     9
  995   993   996   997     9
  995   993   996   998     9
  995   993   996  1002     9
  993   996   998   999     9
  993   996   998  1000     9
  993   996   998  1001     9
  997   996   998   999     9
  997   996   998  1000     9
  997   996   998  1001     9
  993   996  1002  1003     9
  997   996  1002  1003     9
  998   996  1002  1003     9
  999   998   996  1002     9
 1000   998   996  1002     9
 1001   998   996  1002     9
  996  1002  1003  1004     9
  996  1002  1003  1005     9
  996  1002  1003  1006     9
 1002  1003  1006  1007     9
 1002  1003  1006  1008     9
 1002  1003  1006  1012     9
 1004  1003  1006  1007     9
 1004  1003  1006  1008     9
 1004  1003  1006  1012     9
 1005  1003  1006  1007     9
 1005  1003  1006  1008     9
 1005  1003  1006  1012     9
 1003  1006  1008  1009     9
 1003  1006  1008  1010     9
 1003  1006  1008  1011     9
 1007  1006  1008  1009     9
 1007  1006  1008  1010     9
 1007  1006  1008  1011     9
 1003  1006  1012  1013     9
 1007  1006  1012  1013     9
 1008  1006  1012  1013     9
 1009  1008  1006  1012     9
 1010  1008  1006  1012     9
 1011  1008  1006  1012     9
 1006  1012  1013  1014     9
 1006  1012  1013  1015     9
 1006  1012  1013  1016     9
 1012  1013  1016  1017     9
 1012  1013  1016  1018     9
 1012  1013  1016  1022     9
 1014  1013  1016  1017     9
 1014  1013  1016  1018     9
 1014  1013  1016  1022     9
 1015  1013  1016  1017     9
 1015  1013  1016  1018     9
 1015  1013  1016  1022     9
 1013  1016  1018  1019     9
 1013  1016  1018  1020     9
 1013  1016  1018  1021     9
 1017  1016  1018  1019     9
 1017  1016  1018  1020     9
 1017  1016  1018  1021     9
 1013  1016  1022  1023     9
 1017  1016  1022  1023     9
 1018  1016  1022  1023     9
 1019  1018  1016  1022     9
 1020  1018  1016  1022     9
 1021  1018  1016  1022     9
 1016  1022  1023  1024     9
 1016  1022  1023  1025     9
 1016  1022  1023  1026     9
 1022  1023  1026  1027     9
 1022  1023  1026  1028     9
 1022  1023  1026  1032     9
 1024  1023  1026  1027     9
 1024  1023  1026  1028     9
 1024  1023  1026  1032     9
 1025  1023  1026  1027     9
 1025  1023  1026  1028     9
 1025  1023  1026  1032     9
 1023  1026  1028  1029     9
 1023  1026  1028  1030     9
 1023  1026  1028  1031     9
 1027  1026  1028  1029     9
 1027  1026  1028  1030     9
 1027  1026  1028  1031     9
 1023  1026  1032  1033     9
 1027  1026  1032  1033     9
 1028  1026  1032  1033     9
 1029  1028  1026  1032     9
 1030  1028  1026  1032     9
 1031  1028  1026  1032     9
 1026  1032  1033  1034     9
 1026  1032  1033  1035     9
 1026  1032  1033  1036     9
 1032  1033  1036  1037     9
 1032  1033  1036  1038     9
 1032  1033  1036  1042     9
 1034  1033  1036  1037     9
 1034  1033  1036  1038     9
 1034  1033  1036  1042     9
 1035  1033  1036  1037     9
 1035  1033  1036  1038     9
 1035  1033  1036  1042     9
 1033  1036  1038  1039     9
 1033  1036  1038  1040     9
 1033  1036  1038  1041     9
 1037  1036  1038  1039     9
 1037  1036  1038  1040     9
 1037  1036  1038  1041     9
 1033  1036  1042  1043     9
 1037  1036  1042  1043     9
 1038  1036  1042  1043     9
 1039  1038  1036  1042     9
 1040  1038  1036  1042     9
 1041  1038  1036  1042     9
 1036  1042  1043  1044     9
 1036  1042  1043  1045     9
 1036  1042  1043  1046     9
 1042  1043  1046  1047     9
 1042  1043  1046  1048     9
 1042  1043  1046  1052     9
 1044  1043  1046  1047     9
 1044  1043  1046  1048     9
 1044  1043  1046  1052     9
 1045  1043  1046  1047     9
 1045  1043  1046  1048     9
 1045  1043  1046  1052     9
 1043  1046  1048  1049     9
 1043  1046  1048  1050     9
 1043  1046  1048  1051     9
 1047  1046  1048  1049     9
 1047  1046  1048  1050     9
 1047  1046  1048  1051     9
 1043  1046  1052  1053     9
 1047  1046  1052  1053     9
 1048  1046  1052  1053     9
 1049  1048  1046  1052     9
 1050  1048  1046  1052     9
 1051  1048  1046  1052     9
 1046  1052  1053  1054     9
 1046  1052  1053  1055     9
 1046  1052  1053  1056     9
 1052  1053  1056  1057     9
 1052  1053  1056  1058     9
 1052  1053  1056  1062     9
 1054  1053  1056  1057     9
 1054  1053  1056  1058     9
 1054  1053  1056  1062     9
 1055  1053  1056  1057     9
 1055  1053  1056  1058     9
 1055  1053  1056  1062     9
 1053  1056  1058  1059     9
 1053  1056  1058  1060     9
 1053  1056  1058  1061     9
 1057  1056  1058  1059     9
 1057  1056  1058  1060     9
 1057  1056  1058  1061     9
 1053  1056  1062  1063     9
 1057  1056  1062  1063     9
 1058  1056  1062  1063     9
 1059  1058  1056  1062     9
 1060  1058  1056  1062     9
 1061  1058  1056  1062     9
 1056  1062  1063  1064     9
 1056  1062  1063  1065     9
 1056  1062  1063  1066     9
 1062  1063  1066  1067     9
 1062  1063  1066  1068     9
 1062  1063  1066  1072     9
 1064  1063  1066  1067     9
 1064  1063  1066  1068     9
 1064  1063  1066  1072     9
 1065  1063  1066  1067     9
 1065  1063  1066  1068     9
 1065  1063  1066  1072     9
 1063  1066  1068  1069     9
 1063  1066  1068  1070     9
 1063  1066  1068  1071     9
 1067  1066  1068  1069     9
 1067  1066  1068  1070     9
 1067  1066  1068  1071     9
 1063  1066  1072  1073     9
 1067  1066  1072  1073     9
 1068  1066  1072  1073     9
 1069  1068  1066  1072     9
 1070  1068  1066  1072     9
 1071  1068  1066  1072     9
 1066  1072  1073  1074     9
 1066  1072  1073  1075     9
 1066  1072  1073  1076     9
 1072  1073  1076  1077     9
 1072  1073  1076  1078     9
 1072  1073  1076  1082     9
 1074  1073  1076  1077     9
 1074  1073  1076  1078     9
 1074  1073  1076  1082     9
 1075  1073  1076  1077     9
 1075  1073  1076  1078     9
 1075  1073  1076  1082     9
 1073  1076  1078  1079     9
 1073  1076  1078  1080     9
 1073  1076  1078  1081     9
 1077  1076  1078  1079     9
 1077  1076  1078  1080     9
 1077  1076  1078  1081     9
 1073  1076  1082  1083     9
 1077  1076  1082  1083     9
 1078  1076  1082  1083     9
 1079  1078  1076  1082     9
 1080  1078  1076  1082     9
 1081  1078  1076  1082     9
 1076  1082  1083  1084     9
 1076  1082  1083  1085     9
 1076  1082  1083  1086     9
 1082  1083  1086  1087     9
 1082  1083  1086  1088     9
 1082  1083  1086  1092     9
 1084  1083  1086  1087     9
 1084  1083  1086  1088     9
 1084  1083  1086  1092     9
 1085  1083  1086  1087     9
 1085  1083  1086  1088     9
 1085  1083  1086  1092     9
 1083  1086  1088  1089     9
 1083  1086  1088  1090     9
 1083  1086  1088  1091     9
 1087  1086  1088  1089     9
 1087  1086  1088  1090     9
 1087  1086  1088  1091     9
 1083  1086  1092  1093     9
 1087  1086  1092  1093     9
 1088  1086  1092  1093     9
 1089  1088  1086  1092     9
 1090  1088  1086  1092     9
 1091  1088  1086  1092     9
 1086  1092  1093  1094     9
 1086  1092  1093  1095     9
 1086  1092  1093  1096     9
 1092  1093  1096  1097     9
 1092  1093  1096  1098     9
 1092  1093  1096  1102     9
 1094  1093  1096  1097     9
 1094  1093  1096  1098     9
 1094  1093  1096  1102     9
 1095  1093  1096  1097     9
 1095  1093  1096  1098     9
 1095  1093  1096  1102     9
 1093  1096  1098  1099     9
 1093  1096  1098  1100     9
 1093  1096  1098  1101     9
 1097  1096  1098  1099     9
 1097  1096  1098  1100     9
 1097  1096  1098  1101     9
 1093  1096  1102  1103     9
 1097  1096  1102  1103     9
 1098  1096  1102  1103     9
 1099  1098  1096  1102     9
 1100  1098  1096  1102     9
 1101  1098  1096  1102     9
 1096  1102  1103  1104     9
 1096  1102  1103  1105     9
 1096  1102  1103  1106     9
 1102  1103  1106  1107     9
 1102  1103  1106  1108     9
 1102  1103  1106  1112     9
 1104  1103  1106  1107     9
 1104  1103  1106  1108     9
 1104  1103  1106  1112     9
 1105  1103  1106  1107     9
 1105  1103  1106  1108     9
 1105  1103  1106  1112     9
 1103  1106  1108  1109     9
 1103  1106  1108  1110     9
 1103  1106  1108  1111     9
 1107  1106  1108  1109     9
 1107  1106  1108  1110     9
 1107  1106  1108  1111     9
 1103  1106  1112  1113     9
 1107  1106  1112  1113     9
 1108  1106  1112  1113     9
 1109  1108  1106  1112     9
 1110  1108  1106  1112     9
 1111  1108  1106  1112     9
 1106  1112  1113  1114     9
 1106  1112  1113  1115     9
 1106  1112  1113  1116     9
 1112  1113  1116  1117     9
 1112  1113  1116  1118     9
 1112  1113  1116  1122     9
 1114  1113  1116  1117     9
 1114  1113  1116  1118     9
 1114  1113  1116  1122     9
 1115  1113  1116  1117     9
 1115  1113  1116  1118     9
 1115  1113  1116  1122     9
 1113  1116  1118  1119     9
 1113  1116  1118  1120     9
 1113  1116  1118  1121     9
 1117  1116  1118  1119     9
 1117  1116  1118  1120     9
 1117  1116  1118  1121     9
 1113  1116  1122  1123     9
 1117  1116  1122  1123     9
 1118  1116  1122  1123     9
 1119  1118  1116  1122     9
 1120  1118  1116  1122     9
 1121  1118  1116  1122     9
 1116  1122  1123  1124     9
 1116  1122  1123  1125     9
 1116  1122  1123  1126     9
 1122  1123  1126  1127     9
 1122  1123  1126  1128     9
 1122  1123  1126  1132     9
 1124  1123  1126  1127     9
 1124  1123  1126  1128     9
 1124  1123  1126  1132     9
 1125  1123  1126  1127     9
 1125  1123  1126  1128     9
 1125  1123  1126  1132     9
 1123  1126  1128  1129     9
 1123  1126  1128  1130     9
 1123  1126  1128  1131     9
 1127  1126  1128  1129     9
 1127  1126  1128  1130     9
 1127  1126  1128  1131     9
 1123  1126  1132  1133     9
 1127  1126  1132  1133     9
 1128  1126  1132  1133     9
 1129  1128  1126  1132     9
 1130  1128  1126  1132     9
 1131  1128  1126  1132     9
 1126  1132  1133  1134     9
 1126  1132  1133  1135     9
 1126  1132  1133  1136     9
 1132  1133  1136  1137     9
 1132  1133  1136  1138     9
 1132  1133  1136  1142     9
 1134  1133  1136  1137     9
 1134  1133  1136  1138     9
 1134  1133  1136  1142     9
 1135  1133  1136  1137     9
 1135  1133  1136  1138     9
 1135  1133  1136  1142     9
 1133  1136  1138  1139     9
 1133  1136  1138  1140     9
 1133  1136  1138  1141     9
 1137  1136  1138  1139     9
 1137  1136  1138  1140     9
 1137  1136  1138  1141     9
 1133  1136  1142  1143     9
 1137  1136  1142  1143     9
 1138  1136  1142  1143     9
 1139  1138  1136  1142     9
 1140  1138  1136  1142     9
 1141  1138  1136  1142     9
 1136  1142  1143  1144     9
 1136  1142  1143  1145     9
 1136  1142  1143  1146     9
 1142  1143  1146  1147     9
 1142  1143  1146  1148     9
 1142  1143  1146  1152     9
 1144  1143  1146  1147     9
 1144  1143  1146  1148     9
 1144  1143  1146  1152     9
 1145  1143  1146  1147     9
 1145  1143  1146  1148     9
 1145  1143  1146  1152     9
 1143  1146  1148  1149     9
 1143  1146  1148  1150     9
 1143  1146  1148  1151     9
 1147  1146  1148  1149     9
 1147  1146  1148  1150     9
 1147  1146  1148  1151     9
 1143  1146  1152  1153     9
 1147  1146  1152  1153     9
 1148  1146  1152  1153     9
 1149  1148  1146  1152     9
 1150  1148  1146  1152     9
 1151  1148  1146  1152     9
 1146  1152  1153  1154     9
 1146  1152  1153  1155     9
 1146  1152  1153  1156     9
 1152  1153  1156  1157     9
 1152  1153  1156  1158     9
 1152  1153  1156  1162     9
 1154  1153  1156  1157     9
 1154  1153  1156  1158     9
 1154  1153  1156  1162     9
 1155  1153  1156  1157     9
 1155  1153  1156  1158     9
 1155  1153  1156  1162     9
 1153  1156  1158  1159     9
 1153  1156  1158  1160     9
 1153  1156  1158  1161     9
 1157  1156  1158  1159     9
 1157  1156  1158  1160     9
 1157  1156  1158  1161     9
 1153  1156  1162  1163     9
 1157  1156  1162  1163     9
 1158  1156  1162  1163     9
 1159  1158  1156  1162     9
 1160  1158  1156  1162     9
 1161  1158  1156  1162     9
 1156  1162  1163  1164     9
 1156  1162  1163  1165     9
 1156  1162  1163  1166     9
 1162  1163  1166  1167     9
 1162  1163  1166  1168     9
 1162  1163  1166  1172     9
 1164  1163  1166  1167     9
 1164  1163  1166  1168     9
 1164  1163  1166  1172     9
 1165  1163  1166  1167     9
 1165  1163  1166  1168     9
 1165  1163  1166  1172     9
 1163  1166  1168  1169     9
 1163  1166  1168  1170     9
 1163  1166  1168  1171     9
 1167  1166  1168  1169     9
 1167  1166  1168  1170     9
 1167  1166  1168  1171     9
 1163  1166  1172  1173     9
 1167  1166  1172  1173     9
 1168  1166  1172  1173     9
 1169  1168  1166  1172     9
 1170  1168  1166  1172     9
 1171  1168  1166  1172     9
 1166  1172  1173  1174     9
 1166  1172  1173  1175     9
 1166  1172  1173  1176     9
 1172  1173  1176  1177     9
 1172  1173  1176  1178     9
 1172  1173  1176  1182     9
 1174  1173  1176  1177     9
 1174  1173  1176  1178     9
 1174  1173  1176  1182     9
 1175  1173  1176  1177     9
 1175  1173  1176  1178     9
 1175  1173  1176  1182     9
 1173  1176  1178  1179     9
 1173  1176  1178  1180     9
 1173  1176  1178  1181     9
 1177  1176  1178  1179     9
 1177  1176  1178  1180     9
 1177  1176  1178  1181     9
 1173  1176  1182  1183     9
 1177  1176  1182  1183     9
 1178  1176  1182  1183     9
 1179  1178  1176  1182     9
 1180  1178  1176  1182     9
 1181  1178  1176  1182     9
 1176  1182  1183  1184     9
 1176  1182  1183  1185     9
 1176  1182  1183  1186     9
 1182  1183  1186  1187     9
 1182  1183  1186  1188     9
 1182  1183  1186  1192     9
 1184  1183  1186  1187     9
 1184  1183  1186  1188     9
 1184  1183  1186  1192     9
 1185  1183  1186  1187     9
 1185  1183  1186  1188     9
 1185  1183  1186  1192     9
 1183  1186  1188  1189     9
 1183  1186  1188  1190     9
 1183  1186  1188  1191     9
 1187  1186  1188  1189     9
 1187  1186  1188  1190     9
 1187  1186  1188  1191     9
 1183  1186  1192  1193     9
 1187  1186  1192  1193     9
 1188  1186  1192  1193     9
 1189  1188  1186  1192     9
 1190  1188  1186  1192     9
 1191  1188  1186  1192     9
 1186  1192  1193  1194     9
 1186  1192  1193  1195     9
 1186  1192  1193  1196     9
 1192  1193  1196  1197     9
 1192  1193  1196  1198     9
 1192  1193  1196  1202     9
 1194  1193  1196  1197     9
 1194  1193  1196  1198     9
 1194  1193  1196  1202     9
 1195  1193  1196  1197     9
 1195  1193  1196  1198     9
 1195  1193  1196  1202     9
 1193  1196  1198  1199     9
 1193  1196  1198  1200     9
 1193  1196  1198  1201     9
 1197  1196  1198  1199     9
 1197  1196  1198  1200     9
 1197  1196  1198  1201     9
 1193  1196  1202  1203     9
 1197  1196  1202  1203     9
 1198  1196  1202  1203     9
 1199  1198  1196  1202     9
 1200  1198  1196  1202     9
 1201  1198  1196  1202     9
 1196  1202  1203  1204     9
 1196  1202  1203  1205     9
 1196  1202  1203  1206     9
 1202  1203  1206  1207     9
 1202  1203  1206  1208     9
 1202  1203  1206  1212     9
 1204  1203  1206  1207     9
 1204  1203  1206  1208     9
 1204  1203  1206  1212     9
 1205  1203  1206  1207     9
 1205  1203  1206  1208     9
 1205  1203  1206  1212     9
 1203  1206  1208  1209     9
 1203  1206  1208  1210     9
 1203  1206  1208  1211     9
 1207  1206  1208  1209     9
 1207  1206  1208  1210     9
 1207  1206  1208  1211     9
 1203  1206  1212  1213     9
 1207  1206  1212  1213     9
 1208  1206  1212  1213     9
 1209  1208  1206  1212     9
 1210  1208  1206  1212     9
 1211  1208  1206  1212     9
 1206  1212  1213  1214     9
 1206  1212  1213  1215     9
 1206  1212  1213  1216     9
 1212  1213  1216  1217     9
 1212  1213  1216  1218     9
 1212  1213  1216  1222     9
 1214  1213  1216  1217     9
 1214  1213  1216  1218     9
 1214  1213  1216  1222     9
 1215  1213  1216  1217     9
 1215  1213  1216  1218     9
 1215  1213  1216  1222     9
 1213  1216  1218  1219     9
 1213  1216  1218  1220     9
 1213  1216  1218  1221     9
 1217  1216  1218  1219     9
 1217  1216  1218  1220     9
 1217  1216  1218  1221     9
 1213  1216  1222  1223     9
 1217  1216  1222  1223     9
 1218  1216  1222  1223     9
 1219  1218  1216  1222     9
 1220  1218  1216  1222     9
 1221  1218  1216  1222     9
 1216  1222  1223  1224     9
 1216  1222  1223  1225     9
 1216  1222  1223  1226     9
 1222  1223  1226  1227     9
 1222  1223  1226  1228     9
 1222  1223  1226  1232     9
 1224  1223  1226  1227     9
 1224  1223  1226  1228     9
 1224  1223  1226  1232     9
 1225  1223  1226  1227     9
 1225  1223  1226  1228     9
 1225  1223  1226  1232     9
 1223  1226  1228  1229     9
 1223  1226  1228  1230     9
 1223  1226  1228  1231     9
 1227  1226  1228  1229     9
 1227  1226  1228  1230     9
 1227  1226  1228  1231     9
 1223  1226  1232  1233     9
 1227  1226  1232  1233     9
 1228  1226  1232  1233     9
 1229  1228  1226  1232     9
 1230  1228  1226  1232     9
 1231  1228  1226  1232     9
 1226  1232  1233  1234     9
 1226  1232  1233  1235     9
 1226  1232  1233  1236     9
 1232  1233  1236  1237     9
 1232  1233  1236  1238     9
 1232  1233  1236  1242     9
 1234  1233  1236  1237     9
 1234  1233  1236  1238     9
 1234  1233  1236  1242     9
 1235  1233  1236  1237     9
 1235  1233  1236  1238     9
 1235  1233  1236  1242     9
 1233  1236  1238  1239     9
 1233  1236  1238  1240     9
 1233  1236  1238  1241     9
 1237  1236  1238  1239     9
 1237  1236  1238  1240     9
 1237  1236  1238  1241     9
 1233  1236  1242  1243     9
 1237  1236  1242  1243     9
 1238  1236  1242  1243     9
 1239  1238  1236  1242     9
 1240  1238  1236  1242     9
 1241  1238  1236  1242     9
 1236  1242  1243  1244     9
 1236  1242  1243  1245     9
 1236  1242  1243  1246     9
 1242  1243  1246  1247     9
 1242  1243  1246  1248     9
 1242  1243  1246  1252     9
 1244  1243  1246  1247     9
 1244  1243  1246  1248     9
 1244  1243  1246  1252     9
 1245  1243  1246  1247     9
 1245  1243  1246  1248     9
 1245  1243  1246  1252     9
 1243  1246  1248  1249     9
 1243  1246  1248  1250     9
 1243  1246  1248  1251     9
 1247  1246  1248  1249     9
 1247  1246  1248  1250     9
 1247  1246  1248  1251     9
 1243  1246  1252  1253     9
 1247  1246  1252  1253     9
 1248  1246  1252  1253     9
 1249  1248  1246  1252     9
 1250  1248  1246  1252     9
 1251  1248  1246  1252     9
 1246  1252  1253  1254     9
 1246  1252  1253  1255     9
 1246  1252  1253  1256     9
 1252  1253  1256  1257     9
 1252  1253  1256  1258     9
 1252  1253  1256  1262     9
 1254  1253  1256  1257     9
 1254  1253  1256  1258     9
 1254  1253  1256  1262     9
 1255  1253  1256  1257     9
 1255  1253  1256  1258     9
 1255  1253  1256  1262     9
 1253  1256  1258  1259     9
 1253  1256  1258  1260     9
 1253  1256  1258  1261     9
 1257  1256  1258  1259     9
 1257  1256  1258  1260     9
 1257  1256  1258  1261     9
 1253  1256  1262  1263     9
 1257  1256  1262  1263     9
 1258  1256  1262  1263     9
 1259  1258  1256  1262     9
 1260  1258  1256  1262     9
 1261  1258  1256  1262     9
 1256  1262  1263  1264     9
 1256  1262  1263  1265     9
 1256  1262  1263  1266     9
 1262  1263  1266  1267     9
 1262  1263  1266  1268     9
 1262  1263  1266  1272     9
 1264  1263  1266  1267     9
 1264  1263  1266  1268     9
 1264  1263  1266  1272     9
 1265  1263  1266  1267     9
 1265  1263  1266  1268     9
 1265  1263  1266  1272     9
 1263  1266  1268  1269     9
 1263  1266  1268  1270     9
 1263  1266  1268  1271     9
 1267  1266  1268  1269     9
 1267  1266  1268  1270     9
 1267  1266  1268  1271     9
 1263  1266  1272  1273     9
 1267  1266  1272  1273     9
 1268  1266  1272  1273     9
 1269  1268  1266  1272     9
 1270  1268  1266  1272     9
 1271  1268  1266  1272     9
 1266  1272  1273  1274     9
 1266  1272  1273  1275     9
 1266  1272  1273  1276     9
 1272  1273  1276  1277     9
 1272  1273  1276  1278     9
 1272  1273  1276  1282     9
 1274  1273  1276  1277     9
 1274  1273  1276  1278     9
 1274  1273  1276  1282     9
 1275  1273  1276  1277     9
 1275  1273  1276  1278     9
 1275  1273  1276  1282     9
 1273  1276  1278  1279     9
 1273  1276  1278  1280     9
 1273  1276  1278  1281     9
 1277  1276  1278  1279     9
 1277  1276  1278  1280     9
 1277  1276  1278  1281     9
 1273  1276  1282  1283     9
 1277  1276  1282  1283     9
 1278  1276  1282  1283     9
 1279  1278  1276  1282     9
 1280  1278  1276  1282     9
 1281  1278  1276  1282     9
 1276  1282  1283  1284     9
 1276  1282  1283  1285     9
 1276  1282  1283  1286     9
 1282  1283  1286  1287     9
 1282  1283  1286  1288     9
 1282  1283  1286  1292     9
 1284  1283  1286  1287     9
 1284  1283  1286  1288     9
 1284  1283  1286  1292     9
 1285  1283  1286  1287     9
 1285  1283  1286  1288     9
 1285  1283  1286  1292     9
 1283  1286  1288  1289     9
 1283  1286  1288  1290     9
 1283  1286  1288  1291     9
 1287  1286  1288  1289     9
 1287  1286  1288  1290     9
 1287  1286  1288  1291     9
 1283  1286  1292  1293     9
 1287  1286  1292  1293     9
 1288  1286  1292  1293     9
 1289  1288  1286  1292     9
 1290  1288  1286  1292     9
 1291  1288  1286  1292     9
 1286  1292  1293  1294     9
 1286  1292  1293  1295     9
 1286  1292  1293  1296     9
 1292  1293  1296  1297     9
 1292  1293  1296  1298     9
 1292  1293  1296  1302     9
 1294  1293  1296  1297     9
 1294  1293  1296  1298     9
 1294  1293  1296  1302     9
 1295  1293  1296  1297     9
 1295  1293  1296  1298     9
 1295  1293  1296  1302     9
 1293  1296  1298  1299     9
 1293  1296  1298  1300     9
 1293  1296  1298  1301     9
 1297  1296  1298  1299     9
 1297  1296  1298  1300     9
 1297  1296  1298  1301     9
 1293  1296  1302  1303     9
 1297  1296  1302  1303     9
 1298  1296  1302  1303     9
 1299  1298  1296  1302     9
 1300  1298  1296  1302     9
 1301  1298  1296  1302     9
 1296  1302  1303  1304     9
 1296  1302  1303  1305     9
 1296  1302  1303  1306     9
 1302  1303  1306  1307     9
 1302  1303  1306  1308     9
 1302  1303  1306  1312     9
 1304  1303  1306  1307     9
 1304  1303  1306  1308     9
 1304  1303  1306  1312     9
 1305  1303  1306  1307     9
 1305  1303  1306  1308     9
 1305  1303  1306  1312     9
 1303  1306  1308  1309     9
 1303  1306  1308  1310     9
 1303  1306  1308  1311     9
 1307  1306  1308  1309     9
 1307  1306  1308  1310     9
 1307  1306  1308  1311     9
 1303  1306  1312  1313     9
 1307  1306  1312  1313     9
 1308  1306  1312  1313     9
 1309  1308  1306  1312     9
 1310  1308  1306  1312     9
 1311  1308  1306  1312     9
 1306  1312  1313  1314     9
 1306  1312  1313  1315     9
 1306  1312  1313  1316     9
 1312  1313  1316  1317     9
 1312  1313  1316  1318     9
 1312  1313  1316  1322     9
 1314  1313  1316  1317     9
 1314  1313  1316  1318     9
 1314  1313  1316  1322     9
 1315  1313  1316  1317     9
 1315  1313  1316  1318     9
 1315  1313  1316  1322     9
 1313  1316  1318  1319     9
 1313  1316  1318  1320     9
 1313  1316  1318  1321     9
 1317  1316  1318  1319     9
 1317  1316  1318  1320     9
 1317  1316  1318  1321     9
 1313  1316  1322  1323     9
 1317  1316  1322  1323     9
 1318  1316  1322  1323     9
 1319  1318  1316  1322     9
 1320  1318  1316  1322     9
 1321  1318  1316  1322     9
 1316  1322  1323  1324     9
 1316  1322  1323  1325     9
 1316  1322  1323  1326     9
 1322  1323  1326  1327     9
 1322  1323  1326  1328     9
 1322  1323  1326  1332     9
 1324  1323  1326  1327     9
 1324  1323  1326  1328     9
 1324  1323  1326  1332     9
 1325  1323  1326  1327     9
 1325  1323  1326  1328     9
 1325  1323  1326  1332     9
 1323  1326  1328  1329     9
 1323  1326  1328  1330     9
 1323  1326  1328  1331     9
 1327  1326  1328  1329     9
 1327  1326  1328  1330     9
 1327  1326  1328  1331     9
 1323  1326  1332  1333     9
 1327  1326  1332  1333     9
 1328  1326  1332  1333     9
 1329  1328  1326  1332     9
 1330  1328  1326  1332     9
 1331  1328  1326  1332     9
 1326  1332  1333  1334     9
 1326  1332  1333  1335     9
 1326  1332  1333  1336     9
 1332  1333  1336  1337     9
 1332  1333  1336  1338     9
 1332  1333  1336  1342     9
 1334  1333  1336  1337     9
 1334  1333  1336  1338     9
 1334  1333  1336  1342     9
 1335  1333  1336  1337     9
 1335  1333  1336  1338     9
 1335  1333  1336  1342     9
 1333  1336  1338  1339     9
 1333  1336  1338  1340     9
 1333  1336  1338  1341     9
 1337  1336  1338  1339     9
 1337  1336  1338  1340     9
 1337  1336  1338  1341     9
 1333  1336  1342  1343     9
 1337  1336  1342  1343     9
 1338  1336  1342  1343     9
 1339  1338  1336  1342     9
 1340  1338  1336  1342     9
 1341  1338  1336  1342     9
 1336  1342  1343  1344     9
 1336  1342  1343  1345     9
 1336  1342  1343  1346     9
 1342  1343  1346  1347     9
 1342  1343  1346  1348     9
 1342  1343  1346  1352     9
 1344  1343  1346  1347     9
 1344  1343  1346  1348     9
 1344  1343  1346  1352     9
 1345  1343  1346  1347     9
 1345  1343  1346  1348     9
 1345  1343  1346  1352     9
 1343  1346  1348  1349     9
 1343  1346  1348  1350     9
 1343  1346  1348  1351     9
 1347  1346  1348  1349     9
 1347  1346  1348  1350     9
 1347  1346  1348  1351     9
 1343  1346  1352  1353     9
 1347  1346  1352  1353     9
 1348  1346  1352  1353     9
 1349  1348  1346  1352     9
 1350  1348  1346  1352     9
 1351  1348  1346  1352     9
 1346  1352  1353  1354     9
 1346  1352  1353  1355     9
 1346  1352  1353  1356     9
 1352  1353  1356  1357     9
 1352  1353  1356  1358     9
 1352  1353  1356  1359     9
 1354  1353  1356  1357     9
 1354  1353  1356  1358     9
 1354  1353  1356  1359     9
 1355  1353  1356  1357     9
 1355  1353  1356  1358     9
 1355  1353  1356  1359     9
 1353  1356  1359  1360     9
 1357  1356  1359  1360     9
 1358  1356  1359  1360     9
 1356  1359  1360  1361     9
 1356  1359  1360  1362     9
 1356  1359  1360  1363     9
 1359  1360  1363  1364     9
 1359  1360  1363  1365     9
 1359  1360  1363  1366     9
 1361  1360  1363  1364     9
 1361  1360  1363  1365     9
 1361  1360  1363  1366     9
 1362  1360  1363  1364     9
 1362  1360  1363  1365     9
 1362  1360  1363  1366     9
 1360  1363  1366  1367     9
 1364  1363  1366  1367     9
 1365  1363  1366  1367     9
 1363  1366  1367  1368     9
 1363  1366  1367  1369     9
 1363  1366  1367  1370     9
 1366  1367  1370  1371     9
 1366  1367  1370  1372     9
 1366  1367  1370  1373     9
 1368  1367  1370  1371     9
 1368  1367  1370  1372     9
 1368  1367  1370  1373     9
 1369  1367  1370  1371     9
 1369  1367  1370  1372     9
 1369  1367  1370  1373     9
 1367  1370  1373  1374     9
 1371  1370  1373  1374     9
 1372  1370  1373  1374     9
 1370  1373  1374  1375     9
 1370  1373  1374  1376     9
 1370  1373  1374  1377     9
 1373  1374  1377  1378     9
 1373  1374  1377  1379     9
 1373  1374  1377  1380     9
 1375  1374  1377  1378     9
 1375  1374  1377  1379     9
 1375  1374  1377  1380     9
 1376  1374  1377  1378     9
 1376  1374  1377  1379     9
 1376  1374  1377  1380     9
 1374  1377  1380  1381     9
 1378  1377  1380  1381     9
 1379  1377  1380  1381     9
 1377  1380  1381  1382     9
 1377  1380  1381  1383     9
 1377  1380  1381  1384     9
 1380  1381  1384  1385     9
 1380  1381  1384  1386     9
 1380  1381  1384  1387     9
 1382  1381  1384  1385     9
 1382  1381  1384  1386     9
 1382  1381  1384  1387     9
 1383  1381  1384  1385     9
 1383  1381  1384  1386     9
 1383  1381  1384  1387     9
 1381  1384  1387  1388     9
 1385  1384  1387  1388     9
 1386  1384  1387  1388     9
 1384  1387  1388  1389     9
 1384  1387  1388  1390     9
 1384  1387  1388  1391     9
 1387  1388  1391  1392     9
 1387  1388  1391  1393     9
 1387  1388  1391  1394     9
 1389  1388  1391  1392     9
 1389  1388  1391  1393     9
 1389  1388  1391  1394     9
 1390  1388  1391  1392     9
 1390  1388  1391  1393     9
 1390  1388  1391  1394     9
 1388  1391  1394  1395     9
 1392  1391  1394  1395     9
 1393  1391  1394  1395     9
 1391  1394  1395  1396     9
 1391  1394  1395  1397     9
 1391  1394  1395  1398     9
 1394  1395  1398  1399     9
 1394  1395  1398  1400     9
 1394  1395  1398  1401     9
 1396  1395  1398  1399     9
 1396  1395  1398  1400     9
 1396  1395  1398  1401     9
 1397  1395  1398  1399     9
 1397  1395  1398  1400     9
 1397  1395  1398  1401     9
 1395  1398  1401  1402     9
 1399  1398  1401  1402     9
 1400  1398  1401  1402     9
 1398  1401  1402  1403     9
 1398  1401  1402  1404     9
 1398  1401  1402  1405     9
 1401  1402  1405  1406     9
 1401  1402  1405  1407     9
 1401  1402  1405  1408     9
 1403  1402  1405  1406     9
 1403  1402  1405  1407     9
 1403  1402  1405  1408     9
 1404  1402  1405  1406     9
 1404  1402  1405  1407     9
 1404  1402  1405  1408     9
 1402  1405  1408  1409     9
 1406  1405  1408  1409     9
 1407  1405  1408  1409     9
 1405  1408  1409  1410     9
 1405  1408  1409  1411     9
 1405  1408  1409  1412     9
 1408  1409  1412  1413     9
 1408  1409  1412  1414     9
 1408  1409  1412  1415     9
 1410  1409  1412  1413     9
 1410  1409  1412  1414     9
 1410  1409  1412  1415     9
 1411  1409  1412  1413     9
 1411  1409  1412  1414     9
 1411  1409  1412  1415     9
 1409  1412  1415  1416     9
 1413  1412  1415  1416     9
 1414  1412  1415  1416     9
 1412  1415  1416  1417     9
 1412  1415  1416  1418     9
 1412  1415  1416  1419     9
 1415  1416  1419  1420     9
 1415  1416  1419  1421     9
 1415  1416  1419  1422     9
 1417  1416  1419  1420     9
 1417  1416  1419  1421     9
 1417  1416  1419  1422     9
 1418  1416  1419  1420     9
 1418  1416  1419  1421     9
 1418  1416  1419  1422     9
 1416  1419  1422  1423     9
 1420  1419  1422  1423     9
 1421  1419  1422  1423     9
 1419  1422  1423  1424     9
 1419  1422  1423  1425     9
 1419  1422  1423  1426     9
 1422  1423  1426  1427     9
 1422  1423  1426  1428     9
 1422  1423  1426  1429     9
 1424  1423  1426  1427     9
 1424  1423  1426  1428     9
 1424  1423  1426  1429     9
 1425  1423  1426  1427     9
 1425  1423  1426  1428     9
 1425  1423  1426  1429     9
 1423  1426  1429  1430     9
 1427  1426  1429  1430     9
 1428  1426  1429  1430     9
 1426  1429  1430  1431     9
 1426  1429  1430  1432     9
 1426  1429  1430  1433     9
 1429  1430  1433  1434     9
 1429  1430  1433  1435     9
 1429  1430  1433  1436     9
 1431  1430  1433  1434     9
 1431  1430  1433  1435     9
 1431  1430  1433  1436     9
 1432  1430  1433  1434     9
 1432  1430  1433  1435     9
 1432  1430  1433  1436     9
 1430  1433  1436  1437     9
 1434  1433  1436  1437     9
 1435  1433  1436  1437     9
 1433  1436  1437  1438     9
 1433  1436  1437  1439     9
 1433  1436  1437  1440     9
 1436  1437  1440  1441     9
 1436  1437  1440  1442     9
 1436  1437  1440  1443     9
 1438  1437  1440  1441     9
 1438  1437  1440  1442     9
 1438  1437  1440  1443     9
 1439  1437  1440  1441     9
 1439  1437  1440  1442     9
 1439  1437  1440  1443     9
 1437  1440  1443  1444     9
 1441  1440  1443  1444     9
 1442  1440  1443  1444     9
 1440  1443  1444  1445     9
 1440  1443  1444  1446     9
 1440  1443  1444  1447     9
 1443  1444  1447  1448     9
 1443  1444  1447  1449     9
 1443  1444  1447  1450     9
 1445  1444  1447  1448     9
 1445  1444  1447  1449     9
 1445  1444  1447  1450     9
 1446  1444  1447  1448     9
 1446  1444  1447  1449     9
 1446  1444  1447  1450     9
 1444  1447  1450  1451     9
 1448  1447  1450  1451     9
 1449  1447  1450  1451     9
 1447  1450  1451  1452     9
 1447  1450  1451  1453     9
 1447  1450  1451  1454     9
 1450  1451  1454  1455     9
 1450  1451  1454  1456     9
 1450  1451  1454  1457     9
 1452  1451  1454  1455     9
 1452  1451  1454  1456     9
 1452  1451  1454  1457     9
 1453  1451  1454  1455     9
 1453  1451  1454  1456     9
 1453  1451  1454  1457     9
 1451  1454  1457  1458     9
 1455  1454  1457  1458     9
 1456  1454  1457  1458     9
 1454  1457  1458  1459     9
 1454  1457  1458  1460     9
 1454  1457  1458  1461     9
 1457  1458  1461  1462     9
 1457  1458  1461  1463     9
 1457  1458  1461  1464     9
 1459  1458  1461  1462     9
 1459  1458  1461  1463     9
 1459  1458  1461  1464     9
 1460  1458  1461  1462     9
 1460  1458  1461  1463     9
 1460  1458  1461  1464     9
 1458  1461  1464  1465     9
 1462  1461  1464  1465     9
 1463  1461  1464  1465     9
 1461  1464  1465  1466     9
 1461  1464  1465  1467     9
 1461  1464  1465  1468     9
 1464  1465  1468  1469     9
 1464  1465  1468  1470     9
 1464  1465  1468  1471     9
 1466  1465  1468  1469     9
 1466  1465  1468  1470     9
 1466  1465  1468  1471     9
 1467  1465  1468  1469     9
 1467  1465  1468  1470     9
 1467  1465  1468  1471     9
 1465  1468  1471  1472     9
 1469  1468  1471  1472     9
 1470  1468  1471  1472     9
 1468  1471  1472  1473     9
 1468  1471  1472  1474     9
 1468  1471  1472  1475     9
 1471  1472  1475  1476     9
 1471  1472  1475  1477     9
 1471  1472  1475  1478     9
 1473  1472  1475  1476     9
 1473  1472  1475  1477     9
 1473  1472  1475  1478     9
 1474  1472  1475  1476     9
 1474  1472  1475  1477     9
 1474  1472  1475  1478     9
 1472  1475  1478  1479     9
 1476  1475  1478  1479     9
 1477  1475  1478  1479     9
 1475  1478  1479  1480     9
 1475  1478  1479  1481     9
 1475  1478  1479  1482     9
 1478  1479  1482  1483     9
 1478  1479  1482  1484     9
 1478  1479  1482  1485     9
 1480  1479  1482  1483     9
 1480  1479  1482  1484     9
 1480  1479  1482  1485     9
 1481  1479  1482  1483     9
 1481  1479  1482  1484     9
 1481  1479  1482  1485     9
 1479  1482  1485  1486     9
 1483  1482  1485  1486     9
 1484  1482  1485  1486     9
 1482  1485  1486  1487     9
 1482  1485  1486  1488     9
 1482  1485  1486  1489     9
 1485  1486  1489  1490     9
 1485  1486  1489  1491     9
 1485  1486  1489  1492     9
 1487  1486  1489  1490     9
 1487  1486  1489  1491     9
 1487  1486  1489  1492     9
 1488  1486  1489  1490     9
 1488  1486  1489  1491     9
 1488  1486  1489  1492     9
 1486  1489  1492  1493     9
 1490  1489  1492  1493     9
 1491  1489  1492  1493     9
 1489  1492  1493  1494     9
 1489  1492  1493  1495     9
 1489  1492  1493  1496     9
 1492  1493  1496  1497     9
 1492  1493  1496  1498     9
 1492  1493  1496  1499     9
 1494  1493  1496  1497     9
 1494  1493  1496  1498     9
 1494  1493  1496  1499     9
 1495  1493  1496  1497     9
 1495  1493  1496  1498     9
 1495  1493  1496  1499     9
 1493  1496  1499  1500     9
 1497  1496  1499  1500     9
 1498  1496  1499  1500     9
 1496  1499  1500  1501     9
 1496  1499  1500  1502     9
 1496  1499  1500  1503     9
 1499  1500  1503  1504     9
 1499  1500  1503  1505     9
 1499  1500  1503  1506     9
 1501  1500  1503  1504     9
 1501  1500  1503  1505     9
 1501  1500  1503  1506     9
 1502  1500  1503  1504     9
 1502  1500  1503  1505     9
 1502  1500  1503  1506     9
 1500  1503  1506  1507     9
 1504  1503  1506  1507     9
 1505  1503  1506  1507     9
 1503  1506  1507  1508     9
 1503  1506  1507  1509     9
 1503  1506  1507  1510     9
 1506  1507  1510  1511     9
 1506  1507  1510  1512     9
 1506  1507  1510  1513     9
 1508  1507  1510  1511     9
 1508  1507  1510  1512     9
 1508  1507  1510  1513     9
 1509  1507  1510  1511     9
 1509  1507  1510  1512     9
 1509  1507  1510  1513     9
 1507  1510  1513  1514     9
 1511  1510  1513  1514     9
 1512  1510  1513  1514     9
 1510  1513  1514  1515     9
 1510  1513  1514  1516     9
 1510  1513  1514  1517     9
 1513  1514  1517  1518     9
 1513  1514  1517  1519     9
 1513  1514  1517  1520     9
 1515  1514  1517  1518     9
 1515  1514  1517  1519     9
 1515  1514  1517  1520     9
 1516  1514  1517  1518     9
 1516  1514  1517  1519     9
 1516  1514  1517  1520     9
 1514  1517  1520  1521     9
 1518  1517  1520  1521     9
 1519  1517  1520  1521     9
 1517  1520  1521  1522     9
 1517  1520  1521  1523     9
 1517  1520  1521  1524     9
 1520  1521  1524  1525     9
 1520  1521  1524  1526     9
 1520  1521  1524  1527     9
 1522  1521  1524  1525     9
 1522  1521  1524  1526     9
 1522  1521  1524  1527     9
 1523  1521  1524  1525     9
 1523  1521  1524  1526     9
 1523  1521  1524  1527     9
 1521  1524  1527  1528     9
 1525  1524  1527  1528     9
 1526  1524  1527  1528     9
 1524  1527  1528  1529     9
 1524  1527  1528  1530     9
 1524  1527  1528  1531     9
 1527  1528  1531  1532     9
 1527  1528  1531  1533     9
 1527  1528  1531  1534     9
 1529  1528  1531  1532     9
 1529  1528  1531  1533     9
 1529  1528  1531  1534     9
 1530  1528  1531  1532     9
 1530  1528  1531  1533     9
 1530  1528  1531  1534     9
 1528  1531  1534  1535     9
 1532  1531  1534  1535     9
 1533  1531  1534  1535     9
 1531  1534  1535  1536     9
 1531  1534  1535  1537     9
 1531  1534  1535  1538     9
 1534  1535  1538  1539     9
 1534  1535  1538  1540     9
 1534  1535  1538  1541     9
 1536  1535  1538  1539     9
 1536  1535  1538  1540     9
 1536  1535  1538  1541     9
 1537  1535  1538  1539     9
 1537  1535  1538  1540     9
 1537  1535  1538  1541     9
 1535  1538  1541  1542     9
 1539  1538  1541  1542     9
 1540  1538  1541  1542     9
 1538  1541  1542  1543     9
 1538  1541  1542  1544     9
 1538  1541  1542  1545     9
 1541  1542  1545  1546     9
 1541  1542  1545  1547     9
 1541  1542  1545  1548     9
 1543  1542  1545  1546     9
 1543  1542  1545  1547     9
 1543  1542  1545  1548     9
 1544  1542  1545  1546     9
 1544  1542  1545  1547     9
 1544  1542  1545  1548     9
 1542  1545  1548  1549     9
 1546  1545  1548  1549     9
 1547  1545  1548  1549     9
 1545  1548  1549  1550     9
 1545  1548  1549  1551     9
 1545  1548  1549  1552     9
 1548  1549  1552  1553     9
 1548  1549  1552  1554     9
 1548  1549  1552  1555     9
 1550  1549  1552  1553     9
 1550  1549  1552  1554     9
 1550  1549  1552  1555     9
 1551  1549  1552  1553     9
 1551  1549  1552  1554     9
 1551  1549  1552  1555     9
 1549  1552  1555  1556     9
 1553  1552  1555  1556     9
 1554  1552  1555  1556     9
 1552  1555  1556  1557     9
 1552  1555  1556  1558     9
 1552  1555  1556  1559     9
 1555  1556  1559  1560     9
 1555  1556  1559  1561     9
 1555  1556  1559  1562     9
 1557  1556  1559  1560     9
 1557  1556  1559  1561     9
 1557  1556  1559  1562     9
 1558  1556  1559  1560     9
 1558  1556  1559  1561     9
 1558  1556  1559  1562     9
 1556  1559  1562  1563     9
 1560  1559  1562  1563     9
 1561  1559  1562  1563     9
 1559  1562  1563  1564     9
 1559  1562  1563  1565     9
 1559  1562  1563  1566     9
 1562  1563  1566  1567     9
 1562  1563  1566  1568     9
 1562  1563  1566  1569     9
 1564  1563  1566  1567     9
 1564  1563  1566  1568     9
 1564  1563  1566  1569     9
 1565  1563  1566  1567     9
 1565  1563  1566  1568     9
 1565  1563  1566  1569     9
 1563  1566  1569  1570     9
 1567  1566  1569  1570     9
 1568  1566  1569  1570     9
 1566  1569  1570  1571     9
 1566  1569  1570  1572     9
 1566  1569  1570  1573     9
 1569  1570  1573  1574     9
 1569  1570  1573  1575     9
 1569  1570  1573  1576     9
 1571  1570  1573  1574     9
 1571  1570  1573  1575     9
 1571  1570  1573  1576     9
 1572  1570  1573  1574     9
 1572  1570  1573  1575     9
 1572  1570  1573  1576     9
 1570  1573  1576  1577     9
 1574  1573  1576  1577     9
 1575  1573  1576  1577     9
 1573  1576  1577  1578     9
 1573  1576  1577  1579     9
 1573  1576  1577  1580     9
 1576  1577  1580  1581     9
 1576  1577  1580  1582     9
 1576  1577  1580  1583     9
 1578  1577  1580  1581     9
 1578  1577  1580  1582     9
 1578  1577  1580  1583     9
 1579  1577  1580  1581     9
 1579  1577  1580  1582     9
 1579  1577  1580  1583     9
 1577  1580  1583  1584     9
 1581  1580  1583  1584     9
 1582  1580  1583  1584     9
 1580  1583  1584  1585     9
 1580  1583  1584  1586     9
 1580  1583  1584  1587     9
 1583  1584  1587  1588     9
 1583  1584  1587  1589     9
 1583  1584  1587  1590     9
 1585  1584  1587  1588     9
 1585  1584  1587  1589     9
 1585  1584  1587  1590     9
 1586  1584  1587  1588     9
 1586  1584  1587  1589     9
 1586  1584  1587  1590     9
 1584  1587  1590  1591     9
 1588  1587  1590  1591     9
 1589  1587  1590  1591     9
 1587  1590  1591  1592     9
 1587  1590  1591  1593     9
 1587  1590  1591  1594     9
 1590  1591  1594  1595     9
 1590  1591  1594  1596     9
 1590  1591  1594  1597     9
 1592  1591  1594  1595     9
 1592  1591  1594  1596     9
 1592  1591  1594  1597     9
 1593  1591  1594  1595     9
 1593  1591  1594  1596     9
 1593  1591  1594  1597     9
 1591  1594  1597  1598     9
 1595  1594  1597  1598     9
 1596  1594  1597  1598     9
 1594  1597  1598  1599     9
 1594  1597  1598  1600     9
 1594  1597  1598  1601     9
 1597  1598  1601  1602     9
 1597  1598  1601  1603     9
 1597  1598  1601  1604     9
 1599  1598  1601  1602     9
 1599  1598  1601  1603     9
 1599  1598  1601  1604     9
 1600  1598  1601  1602     9
 1600  1598  1601  1603     9
 1600  1598  1601  1604     9
 1598  1601  1604  1605     9
 1602  1601  1604  1605     9
 1603  1601  1604  1605     9
 1601  1604  1605  1606     9
 1601  1604  1605  1607     9
 1601  1604  1605  1608     9
 1604  1605  1608  1609     9
 1604  1605  1608  1610     9
 1604  1605  1608  1611     9
 1606  1605  1608  1609     9
 1606  1605  1608  1610     9
 1606  1605  1608  1611     9
 1607  1605  1608  1609     9
 1607  1605  1608  1610     9
 1607  1605  1608  1611     9
 1605  1608  1611  1612     9
 1609  1608  1611  1612     9
 1610  1608  1611  1612     9
 1608  1611  1612  1613     9
 1608  1611  1612  1614     9
 1608  1611  1612  1615     9
 1611  1612  1615  1616     9
 1611  1612  1615  1617     9
 1611  1612  1615  1618     9
 1613  1612  1615  1616     9
 1613  1612  1615  1617     9
 1613  1612  1615  1618     9
 1614  1612  1615  1616     9
 1614  1612  1615  1617     9
 1614  1612  1615  1618     9
 1612  1615  1618  1619     9
 1616  1615  1618  1619     9
 1617  1615  1618  1619     9
 1615  1618  1619  1620     9
 1615  1618  1619  1621     9
 1615  1618  1619  1622     9
 1618  1619  1622  1623     9
 1618  1619  1622  1624     9
 1618  1619  1622  1625     9
 1620  1619  1622  1623     9
 1620  1619  1622  1624     9
 1620  1619  1622  1625     9
 1621  1619  1622  1623     9
 1621  1619  1622  1624     9
 1621  1619  1622  1625     9
 1619  1622  1625  1626     9
 1623  1622  1625  1626     9
 1624  1622  1625  1626     9
 1622  1625  1626  1627     9
 1622  1625  1626  1628     9
 1622  1625  1626  1629     9
 1625  1626  1629  1630     9
 1625  1626  1629  1631     9
 1625  1626  1629  1632     9
 1627  1626  1629  1630     9
 1627  1626  1629  1631     9
 1627  1626  1629  1632     9
 1628  1626  1629  1630     9
 1628  1626  1629  1631     9
 1628  1626  1629  1632     9
 1626  1629  1632  1633     9
 1630  1629  1632  1633     9
 1631  1629  1632  1633     9
 1629  1632  1633  1634     9
 1629  1632  1633  1635     9
 1629  1632  1633  1636     9
 1632  1633  1636  1637     9
 1632  1633  1636  1638     9
 1632  1633  1636  1639     9
 1634  1633  1636  1637     9
 1634  1633  1636  1638     9
 1634  1633  1636  1639     9
 1635  1633  1636  1637     9
 1635  1633  1636  1638     9
 1635  1633  1636  1639     9
 1633  1636  1639  1640     9
 1637  1636  1639  1640     9
 1638  1636  1639  1640     9
 1636  1639  1640  1641     9
 1636  1639  1640  1642     9
 1636  1639  1640  1643     9
 1639  1640  1643  1644     9
 1639  1640  1643  1645     9
 1639  1640  1643  1646     9
 1641  1640  1643  1644     9
 1641  1640  1643  1645     9
 1641  1640  1643  1646     9
 1642  1640  1643  1644     9
 1642  1640  1643  1645     9
 1642  1640  1643  1646     9
 1640  1643  1646  1647     9
 1644  1643  1646  1647     9
 1645  1643  1646  1647     9
 1643  1646  1647  1648     9
 1643  1646  1647  1649     9
 1643  1646  1647  1650     9
 1646  1647  1650  1651     9
 1646  1647  1650  1652     9
 1646  1647  1650  1653     9
 1648  1647  1650  1651     9
 1648  1647  1650  1652     9
 1648  1647  1650  1653     9
 1649  1647  1650  1651     9
 1649  1647  1650  1652     9
 1649  1647  1650  1653     9
 1647  1650  1653  1654     9
 1651  1650  1653  1654     9
 1652  1650  1653  1654     9
 1650  1653  1654  1655     9
 1650  1653  1654  1656     9
 1650  1653  1654  1657     9
 1653  1654  1657  1658     9
 1653  1654  1657  1659     9
 1653  1654  1657  1660     9
 1655  1654  1657  1658     9
 1655  1654  1657  1659     9
 1655  1654  1657  1660     9
 1656  1654  1657  1658     9
 1656  1654  1657  1659     9
 1656  1654  1657  1660     9
 1654  1657  1660  1661     9
 1658  1657  1660  1661     9
 1659  1657  1660  1661     9
 1657  1660  1661  1662     9
 1657  1660  1661  1663     9
 1657  1660  1661  1664     9
 1660  1661  1664  1665     9
 1660  1661  1664  1666     9
 1660  1661  1664  1667     9
 1662  1661  1664  1665     9
 1662  1661  1664  1666     9
 1662  1661  1664  1667     9
 1663  1661  1664  1665     9
 1663  1661  1664  1666     9
 1663  1661  1664  1667     9
 1661  1664  1667  1668     9
 1665  1664  1667  1668     9
 1666  1664  1667  1668     9
 1664  1667  1668  1669     9
 1664  1667  1668  1670     9
 1664  1667  1668  1671     9
 1667  1668  1671  1672     9
 1667  1668  1671  1673     9
 1667  1668  1671  1674     9
 1669  1668  1671  1672     9
 1669  1668  1671  1673     9
 1669  1668  1671  1674     9
 1670  1668  1671  1672     9
 1670  1668  1671  1673     9
 1670  1668  1671  1674     9
 1668  1671  1674  1675     9
 1672  1671  1674  1675     9
 1673  1671  1674  1675     9
 1671  1674  1675  1676     9
 1671  1674  1675  1677     9
 1671  1674  1675  1678     9
 1674  1675  1678  1679     9
 1674  1675  1678  1680     9
 1674  1675  1678  1681     9
 1676  1675  1678  1679     9
 1676  1675  1678  1680     9
 1676  1675  1678  1681     9
 1677  1675  1678  1679     9
 1677  1675  1678  1680     9
 1677  1675  1678  1681     9
 1675  1678  1681  1682     9
 1679  1678  1681  1682     9
 1680  1678  1681  1682     9
 1678  1681  1682  1683     9
 1678  1681  1682  1684     9
 1678  1681  1682  1685     9
 1681  1682  1685  1686     9
 1681  1682  1685  1687     9
 1681  1682  1685  1688     9
 1683  1682  1685  1686     9
 1683  1682  1685  1687     9
 1683  1682  1685  1688     9
 1684  1682  1685  1686     9
 1684  1682  1685  1687     9
 1684  1682  1685  1688     9
 1682  1685  1688  1689     9
 1686  1685  1688  1689     9
 1687  1685  1688  1689     9
 1685  1688  1689  1690     9
 1685  1688  1689  1691     9
 1685  1688  1689  1692     9
 1688  1689  1692  1693     9
 1688  1689  1692  1694     9
 1688  1689  1692  1695     9
 1690  1689  1692  1693     9
 1690  1689  1692  1694     9
 1690  1689  1692  1695     9
 1691  1689  1692  1693     9
 1691  1689  1692  1694     9
 1691  1689  1692  1695     9
 1689  1692  1695  1696     9
 1693  1692  1695  1696     9
 1694  1692  1695  1696     9
 1692  1695  1696  1697     9
 1692  1695  1696  1698     9
 1692  1695  1696  1699     9
 1695  1696  1699  1700     9
 1695  1696  1699  1701     9
 1695  1696  1699  1702     9
 1697  1696  1699  1700     9
 1697  1696  1699  1701     9
 1697  1696  1699  1702     9
 1698  1696  1699  1700     9
 1698  1696  1699  1701     9
 1698  1696  1699  1702     9
 1696  1699  1702  1703     9
 1700  1699  1702  1703     9
 1701  1699  1702  1703     9
 1699  1702  1703  1704     9
 1699  1702  1703  1705     9
 1699  1702  1703  1706     9
 1702  1703  1706  1707     9
 1702  1703  1706  1708     9
 1702  1703  1706  1709     9
 1704  1703  1706  1707     9
 1704  1703  1706  1708     9
 1704  1703  1706  1709     9
 1705  1703  1706  1707     9
 1705  1703  1706  1708     9
 1705  1703  1706  1709     9
 1703  1706  1709  1710     9
 1707  1706  1709  1710     9
 1708  1706  1709  1710     9
 1706  1709  1710  1711     9
 1706  1709  1710  1712     9
 1706  1709  1710  1713     9
 1709  1710  1713  1714     9
 1709  1710  1713  1715     9
 1709  1710  1713  1716     9
 1711  1710  1713  1714     9
 1711  1710  1713  1715     9
 1711  1710  1713  1716     9
 1712  1710  1713  1714     9
 1712  1710  1713  1715     9
 1712  1710  1713  1716     9
 1710  1713  1716  1717     9
 1714  1713  1716  1717     9
 1715  1713  1716  1717     9
 1713  1716  1717  1718     9
 1713  1716  1717  1719     9
 1713  1716  1717  1720     9
 1716  1717  1720  1721     9
 1716  1717  1720  1722     9
 1716  1717  1720  1723     9
 1718  1717  1720  1721     9
 1718  1717  1720  1722     9
 1718  1717  1720  1723     9
 1719  1717  1720  1721     9
 1719  1717  1720  1722     9
 1719  1717  1720  1723     9
 1717  1720  1723  1724     9
 1721  1720  1723  1724     9
 1722  1720  1723  1724     9
 1720  1723  1724  1725     9
 1720  1723  1724  1726     9
 1720  1723  1724  1727     9
 1723  1724  1727  1728     9
 1723  1724  1727  1729     9
 1723  1724  1727  1730     9
 1725  1724  1727  1728     9
 1725  1724  1727  1729     9
 1725  1724  1727  1730     9
 1726  1724  1727  1728     9
 1726  1724  1727  1729     9
 1726  1724  1727  1730     9
 1724  1727  1730  1731     9
 1728  1727  1730  1731     9
 1729  1727  1730  1731     9
 1727  1730  1731  1732     9
 1727  1730  1731  1733     9
 1727  1730  1731  1734     9
 1730  1731  1734  1735     9
 1730  1731  1734  1736     9
 1730  1731  1734  1737     9
 1732  1731  1734  1735     9
 1732  1731  1734  1736     9
 1732  1731  1734  1737     9
 1733  1731  1734  1735     9
 1733  1731  1734  1736     9
 1733  1731  1734  1737     9
 1731  1734  1737  1738     9
 1735  1734  1737  1738     9
 1736  1734  1737  1738     9
 1734  1737  1738  1739     9
 1734  1737  1738  1740     9
 1734  1737  1738  1741     9
 1737  1738  1741  1742     9
 1737  1738  1741  1743     9
 1737  1738  1741  1744     9
 1739  1738  1741  1742     9
 1739  1738  1741  1743     9
 1739  1738  1741  1744     9
 1740  1738  1741  1742     9
 1740  1738  1741  1743     9
 1740  1738  1741  1744     9
 1738  1741  1744  1745     9
 1742  1741  1744  1745     9
 1743  1741  1744  1745     9
 1741  1744  1745  1746     9
 1741  1744  1745  1747     9
 1741  1744  1745  1748     9
 1744  1745  1748  1749     9
 1744  1745  1748  1750     9
 1744  1745  1748  1751     9
 1746  1745  1748  1749     9
 1746  1745  1748  1750     9
 1746  1745  1748  1751     9
 1747  1745  1748  1749     9
 1747  1745  1748  1750     9
 1747  1745  1748  1751     9
 1745  1748  1751  1752     9
 1749  1748  1751  1752     9
 1750  1748  1751  1752     9
 1748  1751  1752  1753     9
 1748  1751  1752  1754     9
 1748  1751  1752  1755     9
 1751  1752  1755  1756     9
 1751  1752  1755  1757     9
 1751  1752  1755  1758     9
 1753  1752  1755  1756     9
 1753  1752  1755  1757     9
 1753  1752  1755  1758     9
 1754  1752  1755  1756     9
 1754  1752  1755  1757     9
 1754  1752  1755  1758     9
 1752  1755  1758  1759     9
 1756  1755  1758  1759     9
 1757  1755  1758  1759     9
 1755  1758  1759  1760     9
 1755  1758  1759  1761     9
 1755  1758  1759  1762     9
 1758  1759  1762  1763     9
 1758  1759  1762  1764     9
 1758  1759  1762  1765     9
 1760  1759  1762  1763     9
 1760  1759  1762  1764     9
 1760  1759  1762  1765     9
 1761  1759  1762  1763     9
 1761  1759  1762  1764     9
 1761  1759  1762  1765     9
 1759  1762  1765  1766     9
 1763  1762  1765  1766     9
 1764  1762  1765  1766     9
 1762  1765  1766  1767     9
 1762  1765  1766  1768     9
 1762  1765  1766  1769     9
 1765  1766  1769  1770     9
 1765  1766  1769  1771     9
 1765  1766  1769  1772     9
 1767  1766  1769  1770     9
 1767  1766  1769  1771     9
 1767  1766  1769  1772     9
 1768  1766  1769  1770     9
 1768  1766  1769  1771     9
 1768  1766  1769  1772     9
 1766  1769  1772  1773     9
 1770  1769  1772  1773     9
 1771  1769  1772  1773     9
 1769  1772  1773  1774     9
 1769  1772  1773  1775     9
 1769  1772  1773  1776     9
 1772  1773  1776  1777     9
 1772  1773  1776  1778     9
 1772  1773  1776  1779     9
 1774  1773  1776  1777     9
 1774  1773  1776  1778     9
 1774  1773  1776  1779     9
 1775  1773  1776  1777     9
 1775  1773  1776  1778     9
 1775  1773  1776  1779     9
 1773  1776  1779  1780     9
 1777  1776  1779  1780     9
 1778  1776  1779  1780     9
 1776  1779  1780  1781     9
 1776  1779  1780  1782     9
 1776  1779  1780  1783     9
 1779  1780  1783  1784     9
 1779  1780  1783  1785     9
 1779  1780  1783  1786     9
 1781  1780  1783  1784     9
 1781  1780  1783  1785     9
 1781  1780  1783  1786     9
 1782  1780  1783  1784     9
 1782  1780  1783  1785     9
 1782  1780  1783  1786     9
 1780  1783  1786  1787     9
 1784  1783  1786  1787     9
 1785  1783  1786  1787     9
 1783  1786  1787  1788     9
 1783  1786  1787  1789     9
 1783  1786  1787  1790     9
 1786  1787  1790  1791     9
 1786  1787  1790  1792     9
 1786  1787  1790  1793     9
 1788  1787  1790  1791     9
 1788  1787  1790  1792     9
 1788  1787  1790  1793     9
 1789  1787  1790  1791     9
 1789  1787  1790  1792     9
 1789  1787  1790  1793     9
 1787  1790  1793  1794     9
 1791  1790  1793  1794     9
 1792  1790  1793  1794     9
 1790  1793  1794  1795     9
 1790  1793  1794  1796     9
 1790  1793  1794  1797     9
 1793  1794  1797  1798     9
 1793  1794  1797  1799     9
 1793  1794  1797  1800     9
 1795  1794  1797  1798     9
 1795  1794  1797  1799     9
 1795  1794  1797  1800     9
 1796  1794  1797  1798     9
 1796  1794  1797  1799     9
 1796  1794  1797  1800     9
 1794  1797  1800  1801     9
 1798  1797  1800  1801     9
 1799  1797  1800  1801     9
 1797  1800  1801  1802     9
 1797  1800  1801  1803     9
 1797  1800  1801  1804     9
 1800  1801  1804  1805     9
 1800  1801  1804  1806     9
 1800  1801  1804  1807     9
 1802  1801  1804  1805     9
 1802  1801  1804  1806     9
 1802  1801  1804  1807     9
 1803  1801  1804  1805     9
 1803  1801  1804  1806     9
 1803  1801  1804  1807     9
 1801  1804  1807  1808     9
 1805  1804  1807  1808     9
 1806  1804  1807  1808     9
 1804  1807  1808  1809     9
 1804  1807  1808  1810     9
 1804  1807  1808  1811     9
 1807  1808  1811  1812     9
 1807  1808  1811  1813     9
 1807  1808  1811  1814     9
 1809  1808  1811  1812     9
 1809  1808  1811  1813     9
 1809  1808  1811  1814     9
 1810  1808  1811  1812     9
 1810  1808  1811  1813     9
 1810  1808  1811  1814     9
 1808  1811  1814  1815     9
 1812  1811  1814  1815     9
 1813  1811  1814  1815     9
 1811  1814  1815  1816     9
 1811  1814  1815  1817     9
 1811  1814  1815  1818     9
 1814  1815  1818  1819     9
 1814  1815  1818  1820     9
 1814  1815  1818  1821     9
 1816  1815  1818  1819     9
 1816  1815  1818  1820     9
 1816  1815  1818  1821     9
 1817  1815  1818  1819     9
 1817  1815  1818  1820     9
 1817  1815  1818  1821     9
 1815  1818  1821  1822     9
 1819  1818  1821  1822     9
 1820  1818  1821  1822     9
 1818  1821  1822  1823     9
 1818  1821  1822  1824     9
 1818  1821  1822  1825     9
 1821  1822  1825  1826     9
 1821  1822  1825  1827     9
 1821  1822  1825  1828     9
 1823  1822  1825  1826     9
 1823  1822  1825  1827     9
 1823  1822  1825  1828     9
 1824  1822  1825  1826     9
 1824  1822  1825  1827     9
 1824  1822  1825  1828     9
 1822  1825  1828  1829     9
 1826  1825  1828  1829     9
 1827  1825  1828  1829     9
 1825  1828  1829  1830     9
 1825  1828  1829  1831     9
 1825  1828  1829  1832     9
 1828  1829  1832  1833     9
 1828  1829  1832  1834     9
 1828  1829  1832  1835     9
 1830  1829  1832  1833     9
 1830  1829  1832  1834     9
 1830  1829  1832  1835     9
 1831  1829  1832  1833     9
 1831  1829  1832  1834     9
 1831  1829  1832  1835     9
 1829  1832  1835  1836     9
 1833  1832  1835  1836     9
 1834  1832  1835  1836     9
 1832  1835  1836  1837     9
 1832  1835  1836  1838     9
 1832  1835  1836  1839     9
 1835  1836  1839  1840     9
 1835  1836  1839  1841     9
 1835  1836  1839  1842     9
 1837  1836  1839  1840     9
 1837  1836  1839  1841     9
 1837  1836  1839  1842     9
 1838  1836  1839  1840     9
 1838  1836  1839  1841     9
 1838  1836  1839  1842     9
 1836  1839  1842  1843     9
 1840  1839  1842  1843     9
 1841  1839  1842  1843     9
 1839  1842  1843  1844     9
 1839  1842  1843  1845     9
 1839  1842  1843  1846     9
 1842  1843  1846  1847     9
 1842  1843  1846  1848     9
 1842  1843  1846  1849     9
 1844  1843  1846  1847     9
 1844  1843  1846  1848     9
 1844  1843  1846  1849     9
 1845  1843  1846  1847     9
 1845  1843  1846  1848     9
 1845  1843  1846  1849     9
 1843  1846  1849  1850     9
 1847  1846  1849  1850     9
 1848  1846  1849  1850     9
 1846  1849  1850  1851     9
 1846  1849  1850  1852     9
 1846  1849  1850  1853     9
 1849  1850  1853  1854     9
 1849  1850  1853  1855     9
 1849  1850  1853  1856     9
 1851  1850  1853  1854     9
 1851  1850  1853  1855     9
 1851  1850  1853  1856     9
 1852  1850  1853  1854     9
 1852  1850  1853  1855     9
 1852  1850  1853  1856     9
 1850  1853  1856  1857     9
 1854  1853  1856  1857     9
 1855  1853  1856  1857     9
 1853  1856  1857  1858     9
 1853  1856  1857  1859     9
 1853  1856  1857  1860     9
 1856  1857  1860  1861     9
 1856  1857  1860  1862     9
 1856  1857  1860  1863     9
 1858  1857  1860  1861     9
 1858  1857  1860  1862     9
 1858  1857  1860  1863     9
 1859  1857  1860  1861     9
 1859  1857  1860  1862     9
 1859  1857  1860  1863     9
 1857  1860  1863  1864     9
 1861  1860  1863  1864     9
 1862  1860  1863  1864     9
 1860  1863  1864  1865     9
 1860  1863  1864  1866     9
 1860  1863  1864  1867     9
 1863  1864  1867  1868     9
 1863  1864  1867  1869     9
 1863  1864  1867  1870     9
 1865  1864  1867  1868     9
 1865  1864  1867  1869     9
 1865  1864  1867  1870     9
 1866  1864  1867  1868     9
 1866  1864  1867  1869     9
 1866  1864  1867  1870     9
 1864  1867  1870  1871     9
 1868  1867  1870  1871     9
 1869  1867  1870  1871     9
 1867  1870  1871  1872     9
 1867  1870  1871  1873     9
 1867  1870  1871  1874     9
 1870  1871  1874  1875     9
 1870  1871  1874  1876     9
 1870  1871  1874  1877     9
 1872  1871  1874  1875     9
 1872  1871  1874  1876     9
 1872  1871  1874  1877     9
 1873  1871  1874  1875     9
 1873  1871  1874  1876     9
 1873  1871  1874  1877     9
 1871  1874  1877  1878     9
 1875  1874  1877  1878     9
 1876  1874  1877  1878     9
 1874  1877  1878  1879     9
 1874  1877  1878  1880     9
 1874  1877  1878  1881     9
 1877  1878  1881  1882     9
 1877  1878  1881  1883     9
 1877  1878  1881  1884     9
 1879  1878  1881  1882     9
 1879  1878  1881  1883     9
 1879  1878  1881  1884     9
 1880  1878  1881  1882     9
 1880  1878  1881  1883     9
 1880  1878  1881  1884     9
 1878  1881  1884  1885     9
 1882  1881  1884  1885     9
 1883  1881  1884  1885     9
 1881  1884  1885  1886     9
 1881  1884  1885  1887     9
 1881  1884  1885  1888     9
 1884  1885  1888  1889     9
 1884  1885  1888  1890     9
 1884  1885  1888  1891     9
 1886  1885  1888  1889     9
 1886  1885  1888  1890     9
 1886  1885  1888  1891     9
 1887  1885  1888  1889     9
 1887  1885  1888  1890     9
 1887  1885  1888  1891     9
 1885  1888  1891  1892     9
 1889  1888  1891  1892     9
 1890  1888  1891  1892     9
 1888  1891  1892  1893     9
 1888  1891  1892  1894     9
 1888  1891  1892  1895     9
 1891  1892  1895  1896     9
 1891  1892  1895  1897     9
 1891  1892  1895  1898     9
 1893  1892  1895  1896     9
 1893  1892  1895  1897     9
 1893  1892  1895  1898     9
 1894  1892  1895  1896     9
 1894  1892  1895  1897     9
 1894  1892  1895  1898     9
 1892  1895  1898  1899     9
 1896  1895  1898  1899     9
 1897  1895  1898  1899     9
 1895  1898  1899  1900     9
 1895  1898  1899  1901     9
 1895  1898  1899  1902     9
 1898  1899  1902  1903     9
 1898  1899  1902  1904     9
 1898  1899  1902  1905     9
 1900  1899  1902  1903     9
 1900  1899  1902  1904     9
 1900  1899  1902  1905     9
 1901  1899  1902  1903     9
 1901  1899  1902  1904     9
 1901  1899  1902  1905     9
 1899  1902  1905  1906     9
 1903  1902  1905  1906     9
 1904  1902  1905  1906     9
 1902  1905  1906  1907     9
 1902  1905  1906  1908     9
 1902  1905  1906  1909     9
 1905  1906  1909  1910     9
 1905  1906  1909  1911     9
 1905  1906  1909  1912     9
 1907  1906  1909  1910     9
 1907  1906  1909  1911     9
 1907  1906  1909  1912     9
 1908  1906  1909  1910     9
 1908  1906  1909  1911     9
 1908  1906  1909  1912     9
 1906  1909  1912  1913     9
 1910  1909  1912  1913     9
 1911  1909  1912  1913     9
 1909  1912  1913  1914     9
 1909  1912  1913  1915     9
 1909  1912  1913  1916     9
 1912  1913  1916  1917     9
 1912  1913  1916  1918     9
 1912  1913  1916  1919     9
 1914  1913  1916  1917     9
 1914  1913  1916  1918     9
 1914  1913  1916  1919     9
 1915  1913  1916  1917     9
 1915  1913  1916  1918     9
 1915  1913  1916  1919     9
 1913  1916  1919  1920     9
 1917  1916  1919  1920     9
 1918  1916  1919  1920     9
 1916  1919  1920  1921     9
 1916  1919  1920  1922     9
 1916  1919  1920  1923     9
 1919  1920  1923  1924     9
 1919  1920  1923  1925     9
 1919  1920  1923  1926     9
 1921  1920  1923  1924     9
 1921  1920  1923  1925     9
 1921  1920  1923  1926     9
 1922  1920  1923  1924     9
 1922  1920  1923  1925     9
 1922  1920  1923  1926     9
 1920  1923  1926  1927     9
 1924  1923  1926  1927     9
 1925  1923  1926  1927     9
 1923  1926  1927  1928     9
 1923  1926  1927  1929     9
 1923  1926  1927  1930     9
 1926  1927  1930  1931     9
 1926  1927  1930  1932     9
 1926  1927  1930  1933     9
 1928  1927  1930  1931     9
 1928  1927  1930  1932     9
 1928  1927  1930  1933     9
 1929  1927  1930  1931     9
 1929  1927  1930  1932     9
 1929  1927  1930  1933     9
 1927  1930  1933  1934     9
 1931  1930  1933  1934     9
 1932  1930  1933  1934     9
 1930  1933  1934  1935     9
 1930  1933  1934  1936     9
 1930  1933  1934  1937     9
 1933  1934  1937  1938     9
 1933  1934  1937  1939     9
 1933  1934  1937  1940     9
 1935  1934  1937  1938     9
 1935  1934  1937  1939     9
 1935  1934  1937  1940     9
 1936  1934  1937  1938     9
 1936  1934  1937  1939     9
 1936  1934  1937  1940     9
 1934  1937  1940  1941     9
 1938  1937  1940  1941     9
 1939  1937  1940  1941     9
 1937  1940  1941  1942     9
 1937  1940  1941  1943     9
 1937  1940  1941  1944     9
 1940  1941  1944  1945     9
 1940  1941  1944  1946     9
 1940  1941  1944  1947     9
 1942  1941  1944  1945     9
 1942  1941  1944  1946     9
 1942  1941  1944  1947     9
 1943  1941  1944  1945     9
 1943  1941  1944  1946     9
 1943  1941  1944  1947     9
 1941  1944  1947  1948     9
 1945  1944  1947  1948     9
 1946  1944  1947  1948     9
 1944  1947  1948  1949     9
 1944  1947  1948  1950     9
 1944  1947  1948  1951     9
 1947  1948  1951  1952     9
 1947  1948  1951  1953     9
 1947  1948  1951  1954     9
 1949  1948  1951  1952     9
 1949  1948  1951  1953     9
 1949  1948  1951  1954     9
 1950  1948  1951  1952     9
 1950  1948  1951  1953     9
 1950  1948  1951  1954     9
 1948  1951  1954  1955     9
 1952  1951  1954  1955     9
 1953  1951  1954  1955     9
 1951  1954  1955  1956     9
 1951  1954  1955  1957     9
 1951  1954  1955  1958     9
 1954  1955  1958  1959     9
 1954  1955  1958  1960     9
 1954  1955  1958  1961     9
 1956  1955  1958  1959     9
 1956  1955  1958  1960     9
 1956  1955  1958  1961     9
 1957  1955  1958  1959     9
 1957  1955  1958  1960     9
 1957  1955  1958  1961     9
 1955  1958  1961  1962     9
 1959  1958  1961  1962     9
 1960  1958  1961  1962     9
 1958  1961  1962  1963     9
 1958  1961  1962  1964     9
 1958  1961  1962  1965     9
 1961  1962  1965  1966     9
 1961  1962  1965  1967     9
 1961  1962  1965  1968     9
 1963  1962  1965  1966     9
 1963  1962  1965  1967     9
 1963  1962  1965  1968     9
 1964  1962  1965  1966     9
 1964  1962  1965  1967     9
 1964  1962  1965  1968     9
 1962  1965  1968  1969     9
 1966  1965  1968  1969     9
 1967  1965  1968  1969     9
 1965  1968  1969  1970     9
 1965  1968  1969  1971     9
 1965  1968  1969  1972     9
 1968  1969  1972  1973     9
 1968  1969  1972  1974     9
 1968  1969  1972  1975     9
 1970  1969  1972  1973     9
 1970  1969  1972  1974     9
 1970  1969  1972  1975     9
 1971  1969  1972  1973     9
 1971  1969  1972  1974     9
 1971  1969  1972  1975     9
 1969  1972  1975  1976     9
 1973  1972  1975  1976     9
 1974  1972  1975  1976     9
 1972  1975  1976  1977     9
 1972  1975  1976  1978     9
 1972  1975  1976  1979     9
 1975  1976  1979  1980     9
 1975  1976  1979  1981     9
 1975  1976  1979  1982     9
 1977  1976  1979  1980     9
 1977  1976  1979  1981     9
 1977  1976  1979  1982     9
 1978  1976  1979  1980     9
 1978  1976  1979  1981     9
 1978  1976  1979  1982     9
 1976  1979  1982  1983     9
 1980  1979  1982  1983     9
 1981  1979  1982  1983     9
 1979  1982  1983  1984     9
 1979  1982  1983  1985     9
 1979  1982  1983  1986     9
 1982  1983  1986  1987     9
 1982  1983  1986  1988     9
 1982  1983  1986  1989     9
 1984  1983  1986  1987     9
 1984  1983  1986  1988     9
 1984  1983  1986  1989     9
 1985  1983  1986  1987     9
 1985  1983  1986  1988     9
 1985  1983  1986  1989     9
 1983  1986  1989  1990     9
 1987  1986  1989  1990     9
 1988  1986  1989  1990     9
 1986  1989  1990  1991     9
 1986  1989  1990  1992     9
 1986  1989  1990  1993     9
 1989  1990  1993  1994     9
 1989  1990  1993  1995     9
 1989  1990  1993  1996     9
 1991  1990  1993  1994     9
 1991  1990  1993  1995     9
 1991  1990  1993  1996     9
 1992  1990  1993  1994     9
 1992  1990  1993  1995     9
 1992  1990  1993  1996     9
 1990  1993  1996  1997     9
 1994  1993  1996  1997     9
 1995  1993  1996  1997     9
 1993  1996  1997  1998     9
 1993  1996  1997  1999     9
 1993  1996  1997  2000     9
 1996  1997  2000  2001     9
 1996  1997  2000  2002     9
 1996  1997  2000  2003     9
 1998  1997  2000  2001     9
 1998  1997  2000  2002     9
 1998  1997  2000  2003     9
 1999  1997  2000  2001     9
 1999  1997  2000  2002     9
 1999  1997  2000  2003     9
 1997  2000  2003  2004     9
 2001  2000  2003  2004     9
 2002  2000  2003  2004     9
 2000  2003  2004  2005     9
 2000  2003  2004  2006     9
 2000  2003  2004  2007     9
 2003  2004  2007  2008     9
 2003  2004  2007  2009     9
 2003  2004  2007  2010     9
 2005  2004  2007  2008     9
 2005  2004  2007  2009     9
 2005  2004  2007  2010     9
 2006  2004  2007  2008     9
 2006  2004  2007  2009     9
 2006  2004  2007  2010     9
 2004  2007  2010  2011     9
 2008  2007  2010  2011     9
 2009  2007  2010  2011     9
 2007  2010  2011  2012     9
 2007  2010  2011  2013     9
 2007  2010  2011  2014     9
 2010  2011  2014  2015     9
 2010  2011  2014  2016     9
 2010  2011  2014  2017     9
 2012  2011  2014  2015     9
 2012  2011  2014  2016     9
 2012  2011  2014  2017     9
 2013  2011  2014  2015     9
 2013  2011  2014  2016     9
 2013  2011  2014  2017     9
 2011  2014  2017  2018     9
 2015  2014  2017  2018     9
 2016  2014  2017  2018     9
 2014  2017  2018  2019     9
 2014  2017  2018  2020     9
 2014  2017  2018  2021     9
 2017  2018  2021  2022     9
 2017  2018  2021  2023     9
 2017  2018  2021  2024     9
 2019  2018  2021  2022     9
 2019  2018  2021  2023     9
 2019  2018  2021  2024     9
 2020  2018  2021  2022     9
 2020  2018  2021  2023     9
 2020  2018  2021  2024     9
 2018  2021  2024  2025     9
 2022  2021  2024  2025     9
 2023  2021  2024  2025     9
 2021  2024  2025  2026     9
 2021  2024  2025  2027     9
 2021  2024  2025  2028     9
 2024  2025  2028  2029     9
 2024  2025  2028  2030     9
 2024  2025  2028  2031     9
 2026  2025  2028  2029     9
 2026  2025  2028  2030     9
 2026  2025  2028  2031     9
 2027  2025  2028  2029     9
 2027  2025  2028  2030     9
 2027  2025  2028  2031     9
 2025  2028  2031  2032     9
 2029  2028  2031  2032     9
 2030  2028  2031  2032     9
 2028  2031  2032  2033     9
 2028  2031  2032  2034     9
 2028  2031  2032  2035     9
 2031  2032  2035  2036     9
 2031  2032  2035  2037     9
 2031  2032  2035  2038     9
 2033  2032  2035  2036     9
 2033  2032  2035  2037     9
 2033  2032  2035  2038     9
 2034  2032  2035  2036     9
 2034  2032  2035  2037     9
 2034  2032  2035  2038     9
 2032  2035  2038  2039     9
 2036  2035  2038  2039     9
 2037  2035  2038  2039     9
 2035  2038  2039  2040     9
 2035  2038  2039  2041     9
 2035  2038  2039  2042     9
 2038  2039  2042  2043     9
 2038  2039  2042  2044     9
 2038  2039  2042  2045     9
 2040  2039  2042  2043     9
 2040  2039  2042  2044     9
 2040  2039  2042  2045     9
 2041  2039  2042  2043     9
 2041  2039  2042  2044     9
 2041  2039  2042  2045     9
 2039  2042  2045  2046     9
 2043  2042  2045  2046     9
 2044  2042  2045  2046     9
 2042  2045  2046  2047     9
 2042  2045  2046  2048     9
 2042  2045  2046  2049     9
 2045  2046  2049  2050     9
 2045  2046  2049  2051     9
 2045  2046  2049  2052     9
 2047  2046  2049  2050     9
 2047  2046  2049  2051     9
 2047  2046  2049  2052     9
 2048  2046  2049  2050     9
 2048  2046  2049  2051     9
 2048  2046  2049  2052     9
 2046  2049  2052  2053     9
 2050  2049  2052  2053     9
 2051  2049  2052  2053     9

#ifdef POSRES
[ position_restraints ]
    1     1    POSRES_FC_BB    POSRES_FC_BB    POSRES_FC_BB   
    3     1    POSRES_FC_BB    POSRES_FC_BB    POSRES_FC_BB   
    6     1    POSRES_FC_BB    POSRES_FC_BB    POSRES_FC_BB   
    9     1    POSRES_FC_BB    POSRES_FC_BB    POSRES_FC_BB   
   10     1    POSRES_FC_BB    POSRES_FC_BB    POSRES_FC_BB   
   13     1    POSRES_FC_BB    POSRES_FC_BB    POSRES_FC_BB   
   16     1    POSRES_FC_BB    POSRES_FC_BB    POSRES_FC_BB   
   17     1    POSRES_FC_BB    POSRES_FC_BB    POSRES_FC_BB   
   20     1    POSRES_FC_BB    POSRES_FC_BB    POSRES_FC_BB   
   23     1    POSRES_FC_BB    POSRES_FC_BB    POSRES_FC_BB   
   24     1    POSRES_FC_BB    POSRES_FC_BB    POSRES_FC_BB   
   27     1    POSRES_FC_BB    POSRES_FC_BB    POSRES_FC_BB   
   30     1    POSRES_FC_BB    POSRES_FC_BB    POSRES_FC_BB   
   31     1    POSRES_FC_BB    POSRES_FC_BB    POSRES_FC_BB   
   34     1    POSRES_FC_BB    POSRES_FC_BB    POSRES_FC_BB   
   37     1    POSRES_FC_BB    POSRES_FC_BB    POSRES_FC_BB   
   38     1    POSRES_FC_BB    POSRES_FC_BB    POSRES_FC_BB   
   41     1    POSRES_FC_BB    POSRES_FC_BB    POSRES_FC_BB   
   44     1    POSRES_FC_BB    POSRES_FC_BB    POSRES_FC_BB   
   45     1    POSRES_FC_BB    POSRES_FC_BB    POSRES_FC_BB   
   48     1    POSRES_FC_BB    POSRES_FC_BB    POSRES_FC_BB   
   51     1    POSRES_FC_BB    POSRES_FC_BB    POSRES_FC_BB   
   52     1    POSRES_FC_BB    POSRES_FC_BB    POSRES_FC_BB   
   55     1    POSRES_FC_BB    POSRES_FC_BB    POSRES_FC_BB   
   58     1    POSRES_FC_BB    POSRES_FC_BB    POSRES_FC_BB   
   59     1    POSRES_FC_BB    POSRES_FC_BB    POSRES_FC_BB   
   62     1    POSRES_FC_BB    POSRES_FC_BB    POSRES_FC_BB   
   65     1    POSRES_FC_BB    POSRES_FC_BB    POSRES_FC_BB   
   66     1    POSRES_FC_BB    POSRES_FC_BB    POSRES_FC_BB   
   69     1    POSRES_FC_BB    POSRES_FC_BB    POSRES_FC_BB   
   72     1    POSRES_FC_BB    POSRES_FC_BB    POSRES_FC_BB   
   73     1    POSRES_FC_BB    POSRES_FC_BB    POSRES_FC_BB   
   76     1    POSRES_FC_BB    POSRES_FC_BB    POSRES_FC_BB   
   79     1    POSRES_FC_BB    POSRES_FC_BB    POSRES_FC_BB   
   80     1    POSRES_FC_BB    POSRES_FC_BB    POSRES_FC_BB   
   83     1    POSRES_FC_BB    POSRES_FC_BB    POSRES_FC_BB   
   86     1    POSRES_FC_BB    POSRES_FC_BB    POSRES_FC_BB   
   87     1    POSRES_FC_BB    POSRES_FC_BB    POSRES_FC_BB   
   90     1    POSRES_FC_BB    POSRES_FC_BB    POSRES_FC_BB   
   93     1    POSRES_FC_BB    POSRES_FC_BB    POSRES_FC_BB   
   94     1    POSRES_FC_BB    POSRES_FC_BB    POSRES_FC_BB   
   97     1    POSRES_FC_BB    POSRES_FC_BB    POSRES_FC_BB   
  100     1    POSRES_FC_BB    POSRES_FC_BB    POSRES_FC_BB   
  101     1    POSRES_FC_BB    POSRES_FC_BB    POSRES_FC_BB   
  104     1    POSRES_FC_BB    POSRES_FC_BB    POSRES_FC_BB   
  107     1    POSRES_FC_BB    POSRES_FC_BB    POSRES_FC_BB   
  108     1    POSRES_FC_BB    POSRES_FC_BB    POSRES_FC_BB   
  111     1    POSRES_FC_BB    POSRES_FC_BB    POSRES_FC_BB   
  114     1    POSRES_FC_BB    POSRES_FC_BB    POSRES_FC_BB   
  115     1    POSRES_FC_BB    POSRES_FC_BB    POSRES_FC_BB   
  118     1    POSRES_FC_BB    POSRES_FC_BB    POSRES_FC_BB   
  121     1    POSRES_FC_BB    POSRES_FC_BB    POSRES_FC_BB   
  122     1    POSRES_FC_BB    POSRES_FC_BB    POSRES_FC_BB   
  125     1    POSRES_FC_BB    POSRES_FC_BB    POSRES_FC_BB   
  128     1    POSRES_FC_BB    POSRES_FC_BB    POSRES_FC_BB   
  129     1    POSRES_FC_BB    POSRES_FC_BB    POSRES_FC_BB   
  132     1    POSRES_FC_BB    POSRES_FC_BB    POSRES_FC_BB   
  135     1    POSRES_FC_BB    POSRES_FC_BB    POSRES_FC_BB   
  136     1    POSRES_FC_BB    POSRES_FC_BB    POSRES_FC_BB   
  139     1    POSRES_FC_BB    POSRES_FC_BB    POSRES_FC_BB   
  142     1    POSRES_FC_BB    POSRES_FC_BB    POSRES_FC_BB   
  143     1    POSRES_FC_BB    POSRES_FC_BB    POSRES_FC_BB   
  146     1    POSRES_FC_BB    POSRES_FC_BB    POSRES_FC_BB   
  149     1    POSRES_FC_BB    POSRES_FC_BB    POSRES_FC_BB   
  150     1    POSRES_FC_BB    POSRES_FC_BB    POSRES_FC_BB   
  153     1    POSRES_FC_BB    POSRES_FC_BB    POSRES_FC_BB   
  156     1    POSRES_FC_BB    POSRES_FC_BB    POSRES_FC_BB   
  157     1    POSRES_FC_BB    POSRES_FC_BB    POSRES_FC_BB   
  160     1    POSRES_FC_BB    POSRES_FC_BB    POSRES_FC_BB   
  163     1    POSRES_FC_BB    POSRES_FC_BB    POSRES_FC_BB   
  164     1    POSRES_FC_BB    POSRES_FC_BB    POSRES_FC_BB   
  167     1    POSRES_FC_BB    POSRES_FC_BB    POSRES_FC_BB   
  170     1    POSRES_FC_BB    POSRES_FC_BB    POSRES_FC_BB   
  171     1    POSRES_FC_BB    POSRES_FC_BB    POSRES_FC_BB   
  174     1    POSRES_FC_BB    POSRES_FC_BB    POSRES_FC_BB   
  177     1    POSRES_FC_BB    POSRES_FC_BB    POSRES_FC_BB   
  178     1    POSRES_FC_BB    POSRES_FC_BB    POSRES_FC_BB   
  181     1    POSRES_FC_BB    POSRES_FC_BB    POSRES_FC_BB   
  184     1    POSRES_FC_BB    POSRES_FC_BB    POSRES_FC_BB   
  185     1    POSRES_FC_BB    POSRES_FC_BB    POSRES_FC_BB   
  188     1    POSRES_FC_BB    POSRES_FC_BB    POSRES_FC_BB   
  191     1    POSRES_FC_BB    POSRES_FC_BB    POSRES_FC_BB   
  192     1    POSRES_FC_BB    POSRES_FC_BB    POSRES_FC_BB   
  195     1    POSRES_FC_BB    POSRES_FC_BB    POSRES_FC_BB   
  198     1    POSRES_FC_BB    POSRES_FC_BB    POSRES_FC_BB   
  199     1    POSRES_FC_BB    POSRES_FC_BB    POSRES_FC_BB   
  202     1    POSRES_FC_BB    POSRES_FC_BB    POSRES_FC_BB   
  205     1    POSRES_FC_BB    POSRES_FC_BB    POSRES_FC_BB   
  206     1    POSRES_FC_BB    POSRES_FC_BB    POSRES_FC_BB   
  209     1    POSRES_FC_BB    POSRES_FC_BB    POSRES_FC_BB   
  212     1    POSRES_FC_BB    POSRES_FC_BB    POSRES_FC_BB   
  213     1    POSRES_FC_BB    POSRES_FC_BB    POSRES_FC_BB   
  216     1    POSRES_FC_BB    POSRES_FC_BB    POSRES_FC_BB   
  219     1    POSRES_FC_BB    POSRES_FC_BB    POSRES_FC_BB   
  220     1    POSRES_FC_BB    POSRES_FC_BB    POSRES_FC_BB   
  223     1    POSRES_FC_BB    POSRES_FC_BB    POSRES_FC_BB   
  226     1    POSRES_FC_BB    POSRES_FC_BB    POSRES_FC_BB   
  227     1    POSRES_FC_BB    POSRES_FC_BB    POSRES_FC_BB   
  230     1    POSRES_FC_BB    POSRES_FC_BB    POSRES_FC_BB   
  233     1    POSRES_FC_BB    POSRES_FC_BB    POSRES_FC_BB   
  234     1    POSRES_FC_BB    POSRES_FC_BB    POSRES_FC_BB   
  237     1    POSRES_FC_BB    POSRES_FC_BB    POSRES_FC_BB   
  240     1    POSRES_FC_BB    POSRES_FC_BB    POSRES_FC_BB   
  241     1    POSRES_FC_BB    POSRES_FC_BB    POSRES_FC_BB   
  244     1    POSRES_FC_BB    POSRES_FC_BB    POSRES_FC_BB   
  247     1    POSRES_FC_BB    POSRES_FC_BB    POSRES_FC_BB   
  248     1    POSRES_FC_BB    POSRES_FC_BB    POSRES_FC_BB   
  251     1    POSRES_FC_BB    POSRES_FC_BB    POSRES_FC_BB   
  254     1    POSRES_FC_BB    POSRES_FC_BB    POSRES_FC_BB   
  255     1    POSRES_FC_BB    POSRES_FC_BB    POSRES_FC_BB   
  258     1    POSRES_FC_BB    POSRES_FC_BB    POSRES_FC_BB   
  261     1    POSRES_FC_BB    POSRES_FC_BB    POSRES_FC_BB   
  262     1    POSRES_FC_BB    POSRES_FC_BB    POSRES_FC_BB   
  265     1    POSRES_FC_BB    POSRES_FC_BB    POSRES_FC_BB   
  268     1    POSRES_FC_BB    POSRES_FC_BB    POSRES_FC_BB   
  269     1    POSRES_FC_BB    POSRES_FC_BB    POSRES_FC_BB   
  272     1    POSRES_FC_BB    POSRES_FC_BB    POSRES_FC_BB   
  275     1    POSRES_FC_BB    POSRES_FC_BB    POSRES_FC_BB   
  276     1    POSRES_FC_BB    POSRES_FC_BB    POSRES_FC_BB   
  279     1    POSRES_FC_BB    POSRES_FC_BB    POSRES_FC_BB   
  282     1    POSRES_FC_BB    POSRES_FC_BB    POSRES_FC_BB   
  283     1    POSRES_FC_BB    POSRES_FC_BB    POSRES_FC_BB   
  286     1    POSRES_FC_BB    POSRES_FC_BB    POSRES_FC_BB   
  289     1    POSRES_FC_BB    POSRES_FC_BB    POSRES_FC_BB   
  290     1    POSRES_FC_BB    POSRES_FC_BB    POSRES_FC_BB   
  293     1    POSRES_FC_BB    POSRES_FC_BB    POSRES_FC_BB   
  296     1    POSRES_FC_BB    POSRES_FC_BB    POSRES_FC_BB   
  297     1    POSRES_FC_BB    POSRES_FC_BB    POSRES_FC_BB   
  300     1    POSRES_FC_BB    POSRES_FC_BB    POSRES_FC_BB   
  303     1    POSRES_FC_BB    POSRES_FC_BB    POSRES_FC_BB   
  304     1    POSRES_FC_BB    POSRES_FC_BB    POSRES_FC_BB   
  307     1    POSRES_FC_BB    POSRES_FC_BB    POSRES_FC_BB   
  310     1    POSRES_FC_BB    POSRES_FC_BB    POSRES_FC_BB   
  311     1    POSRES_FC_BB    POSRES_FC_BB    POSRES_FC_BB   
  314     1    POSRES_FC_BB    POSRES_FC_BB    POSRES_FC_BB   
  317     1    POSRES_FC_BB    POSRES_FC_BB    POSRES_FC_BB   
  318     1    POSRES_FC_BB    POSRES_FC_BB    POSRES_FC_BB   
  321     1    POSRES_FC_BB    POSRES_FC_BB    POSRES_FC_BB   
  324     1    POSRES_FC_BB    POSRES_FC_BB    POSRES_FC_BB   
  325     1    POSRES_FC_BB    POSRES_FC_BB    POSRES_FC_BB   
  328     1    POSRES_FC_BB    POSRES_FC_BB    POSRES_FC_BB   
  331     1    POSRES_FC_BB    POSRES_FC_BB    POSRES_FC_BB   
  332     1    POSRES_FC_BB    POSRES_FC_BB    POSRES_FC_BB   
  335     1    POSRES_FC_BB    POSRES_FC_BB    POSRES_FC_BB   
  338     1    POSRES_FC_BB    POSRES_FC_BB    POSRES_FC_BB   
  339     1    POSRES_FC_BB    POSRES_FC_BB    POSRES_FC_BB   
  342     1    POSRES_FC_BB    POSRES_FC_BB    POSRES_FC_BB   
  345     1    POSRES_FC_BB    POSRES_FC_BB    POSRES_FC_BB   
  346     1    POSRES_FC_BB    POSRES_FC_BB    POSRES_FC_BB   
  349     1    POSRES_FC_BB    POSRES_FC_BB    POSRES_FC_BB   
  352     1    POSRES_FC_BB    POSRES_FC_BB    POSRES_FC_BB   
  353     1    POSRES_FC_BB    POSRES_FC_BB    POSRES_FC_BB   
  356     1    POSRES_FC_BB    POSRES_FC_BB    POSRES_FC_BB   
  359     1    POSRES_FC_BB    POSRES_FC_BB    POSRES_FC_BB   
  360     1    POSRES_FC_BB    POSRES_FC_BB    POSRES_FC_BB   
  363     1    POSRES_FC_BB    POSRES_FC_BB    POSRES_FC_BB   
  366     1    POSRES_FC_BB    POSRES_FC_BB    POSRES_FC_BB   
  367     1    POSRES_FC_BB    POSRES_FC_BB    POSRES_FC_BB   
  370     1    POSRES_FC_BB    POSRES_FC_BB    POSRES_FC_BB   
  373     1    POSRES_FC_BB    POSRES_FC_BB    POSRES_FC_BB   
  374     1    POSRES_FC_BB    POSRES_FC_BB    POSRES_FC_BB   
  377     1    POSRES_FC_BB    POSRES_FC_BB    POSRES_FC_BB   
  380     1    POSRES_FC_BB    POSRES_FC_BB    POSRES_FC_BB   
  381     1    POSRES_FC_BB    POSRES_FC_BB    POSRES_FC_BB   
  384     1    POSRES_FC_BB    POSRES_FC_BB    POSRES_FC_BB   
  387     1    POSRES_FC_BB    POSRES_FC_BB    POSRES_FC_BB   
  388     1    POSRES_FC_BB    POSRES_FC_BB    POSRES_FC_BB   
  391     1    POSRES_FC_BB    POSRES_FC_BB    POSRES_FC_BB   
  394     1    POSRES_FC_BB    POSRES_FC_BB    POSRES_FC_BB   
  395     1    POSRES_FC_BB    POSRES_FC_BB    POSRES_FC_BB   
  398     1    POSRES_FC_BB    POSRES_FC_BB    POSRES_FC_BB   
  401     1    POSRES_FC_BB    POSRES_FC_BB    POSRES_FC_BB   
  402     1    POSRES_FC_BB    POSRES_FC_BB    POSRES_FC_BB   
  405     1    POSRES_FC_BB    POSRES_FC_BB    POSRES_FC_BB   
  408     1    POSRES_FC_BB    POSRES_FC_BB    POSRES_FC_BB   
  409     1    POSRES_FC_BB    POSRES_FC_BB    POSRES_FC_BB   
  412     1    POSRES_FC_BB    POSRES_FC_BB    POSRES_FC_BB   
  415     1    POSRES_FC_BB    POSRES_FC_BB    POSRES_FC_BB   
  416     1    POSRES_FC_BB    POSRES_FC_BB    POSRES_FC_BB   
  419     1    POSRES_FC_BB    POSRES_FC_BB    POSRES_FC_BB   
  422     1    POSRES_FC_BB    POSRES_FC_BB    POSRES_FC_BB   
  423     1    POSRES_FC_BB    POSRES_FC_BB    POSRES_FC_BB   
  426     1    POSRES_FC_BB    POSRES_FC_BB    POSRES_FC_BB   
  429     1    POSRES_FC_BB    POSRES_FC_BB    POSRES_FC_BB   
  430     1    POSRES_FC_BB    POSRES_FC_BB    POSRES_FC_BB   
  433     1    POSRES_FC_BB    POSRES_FC_BB    POSRES_FC_BB   
  436     1    POSRES_FC_BB    POSRES_FC_BB    POSRES_FC_BB   
  437     1    POSRES_FC_BB    POSRES_FC_BB    POSRES_FC_BB   
  440     1    POSRES_FC_BB    POSRES_FC_BB    POSRES_FC_BB   
  443     1    POSRES_FC_BB    POSRES_FC_BB    POSRES_FC_BB   
  444     1    POSRES_FC_BB    POSRES_FC_BB    POSRES_FC_BB   
  447     1    POSRES_FC_BB    POSRES_FC_BB    POSRES_FC_BB   
  450     1    POSRES_FC_BB    POSRES_FC_BB    POSRES_FC_BB   
  451     1    POSRES_FC_BB    POSRES_FC_BB    POSRES_FC_BB   
  454     1    POSRES_FC_BB    POSRES_FC_BB    POSRES_FC_BB   
  457     1    POSRES_FC_BB    POSRES_FC_BB    POSRES_FC_BB   
  458     1    POSRES_FC_BB    POSRES_FC_BB    POSRES_FC_BB   
  461     1    POSRES_FC_BB    POSRES_FC_BB    POSRES_FC_BB   
  464     1    POSRES_FC_BB    POSRES_FC_BB    POSRES_FC_BB   
  465     1    POSRES_FC_BB    POSRES_FC_BB    POSRES_FC_BB   
  468     1    POSRES_FC_BB    POSRES_FC_BB    POSRES_FC_BB   
  471     1    POSRES_FC_BB    POSRES_FC_BB    POSRES_FC_BB   
  472     1    POSRES_FC_BB    POSRES_FC_BB    POSRES_FC_BB   
  475     1    POSRES_FC_BB    POSRES_FC_BB    POSRES_FC_BB   
  478     1    POSRES_FC_BB    POSRES_FC_BB    POSRES_FC_BB   
  479     1    POSRES_FC_BB    POSRES_FC_BB    POSRES_FC_BB   
  482     1    POSRES_FC_BB    POSRES_FC_BB    POSRES_FC_BB   
  485     1    POSRES_FC_BB    POSRES_FC_BB    POSRES_FC_BB   
  486     1    POSRES_FC_BB    POSRES_FC_BB    POSRES_FC_BB   
  489     1    POSRES_FC_BB    POSRES_FC_BB    POSRES_FC_BB   
  492     1    POSRES_FC_BB    POSRES_FC_BB    POSRES_FC_BB   
  493     1    POSRES_FC_BB    POSRES_FC_BB    POSRES_FC_BB   
  496     1    POSRES_FC_BB    POSRES_FC_BB    POSRES_FC_BB   
  499     1    POSRES_FC_BB    POSRES_FC_BB    POSRES_FC_BB   
  500     1    POSRES_FC_BB    POSRES_FC_BB    POSRES_FC_BB   
  503     1    POSRES_FC_BB    POSRES_FC_BB    POSRES_FC_BB   
  506     1    POSRES_FC_BB    POSRES_FC_BB    POSRES_FC_BB   
  507     1    POSRES_FC_BB    POSRES_FC_BB    POSRES_FC_BB   
  510     1    POSRES_FC_BB    POSRES_FC_BB    POSRES_FC_BB   
  513     1    POSRES_FC_BB    POSRES_FC_BB    POSRES_FC_BB   
  514     1    POSRES_FC_BB    POSRES_FC_BB    POSRES_FC_BB   
  517     1    POSRES_FC_BB    POSRES_FC_BB    POSRES_FC_BB   
  520     1    POSRES_FC_BB    POSRES_FC_BB    POSRES_FC_BB   
  521     1    POSRES_FC_BB    POSRES_FC_BB    POSRES_FC_BB   
  524     1    POSRES_FC_BB    POSRES_FC_BB    POSRES_FC_BB   
  527     1    POSRES_FC_BB    POSRES_FC_BB    POSRES_FC_BB   
  528     1    POSRES_FC_BB    POSRES_FC_BB    POSRES_FC_BB   
  531     1    POSRES_FC_BB    POSRES_FC_BB    POSRES_FC_BB   
  534     1    POSRES_FC_BB    POSRES_FC_BB    POSRES_FC_BB   
  535     1    POSRES_FC_BB    POSRES_FC_BB    POSRES_FC_BB   
  538     1    POSRES_FC_BB    POSRES_FC_BB    POSRES_FC_BB   
  541     1    POSRES_FC_BB    POSRES_FC_BB    POSRES_FC_BB   
  542     1    POSRES_FC_BB    POSRES_FC_BB    POSRES_FC_BB   
  545     1    POSRES_FC_BB    POSRES_FC_BB    POSRES_FC_BB   
  548     1    POSRES_FC_BB    POSRES_FC_BB    POSRES_FC_BB   
  549     1    POSRES_FC_BB    POSRES_FC_BB    POSRES_FC_BB   
  552     1    POSRES_FC_BB    POSRES_FC_BB    POSRES_FC_BB   
  555     1    POSRES_FC_BB    POSRES_FC_BB    POSRES_FC_BB   
  556     1    POSRES_FC_BB    POSRES_FC_BB    POSRES_FC_BB   
  559     1    POSRES_FC_BB    POSRES_FC_BB    POSRES_FC_BB   
  562     1    POSRES_FC_BB    POSRES_FC_BB    POSRES_FC_BB   
  563     1    POSRES_FC_BB    POSRES_FC_BB    POSRES_FC_BB   
  566     1    POSRES_FC_BB    POSRES_FC_BB    POSRES_FC_BB   
  569     1    POSRES_FC_BB    POSRES_FC_BB    POSRES_FC_BB   
  570     1    POSRES_FC_BB    POSRES_FC_BB    POSRES_FC_BB   
  573     1    POSRES_FC_BB    POSRES_FC_BB    POSRES_FC_BB   
  576     1    POSRES_FC_BB    POSRES_FC_BB    POSRES_FC_BB   
  577     1    POSRES_FC_BB    POSRES_FC_BB    POSRES_FC_BB   
  580     1    POSRES_FC_BB    POSRES_FC_BB    POSRES_FC_BB   
  583     1    POSRES_FC_BB    POSRES_FC_BB    POSRES_FC_BB   
  584     1    POSRES_FC_BB    POSRES_FC_BB    POSRES_FC_BB   
  587     1    POSRES_FC_BB    POSRES_FC_BB    POSRES_FC_BB   
  590     1    POSRES_FC_BB    POSRES_FC_BB    POSRES_FC_BB   
  591     1    POSRES_FC_BB    POSRES_FC_BB    POSRES_FC_BB   
  594     1    POSRES_FC_BB    POSRES_FC_BB    POSRES_FC_BB   
  597     1    POSRES_FC_BB    POSRES_FC_BB    POSRES_FC_BB   
  598     1    POSRES_FC_BB    POSRES_FC_BB    POSRES_FC_BB   
  601     1    POSRES_FC_BB    POSRES_FC_BB    POSRES_FC_BB   
  604     1    POSRES_FC_BB    POSRES_FC_BB    POSRES_FC_BB   
  605     1    POSRES_FC_BB    POSRES_FC_BB    POSRES_FC_BB   
  608     1    POSRES_FC_BB    POSRES_FC_BB    POSRES_FC_BB   
  611     1    POSRES_FC_BB    POSRES_FC_BB    POSRES_FC_BB   
  612     1    POSRES_FC_BB    POSRES_FC_BB    POSRES_FC_BB   
  615     1    POSRES_FC_BB    POSRES_FC_BB    POSRES_FC_BB   
  618     1    POSRES_FC_BB    POSRES_FC_BB    POSRES_FC_BB   
  619     1    POSRES_FC_BB    POSRES_FC_BB    POSRES_FC_BB   
  622     1    POSRES_FC_BB    POSRES_FC_BB    POSRES_FC_BB   
  625     1    POSRES_FC_BB    POSRES_FC_BB    POSRES_FC_BB   
  626     1    POSRES_FC_BB    POSRES_FC_BB    POSRES_FC_BB   
  629     1    POSRES_FC_BB    POSRES_FC_BB    POSRES_FC_BB   
  632     1    POSRES_FC_BB    POSRES_FC_BB    POSRES_FC_BB   
  633     1    POSRES_FC_BB    POSRES_FC_BB    POSRES_FC_BB   
  636     1    POSRES_FC_BB    POSRES_FC_BB    POSRES_FC_BB   
  639     1    POSRES_FC_BB    POSRES_FC_BB    POSRES_FC_BB   
  640     1    POSRES_FC_BB    POSRES_FC_BB    POSRES_FC_BB   
  643     1    POSRES_FC_BB    POSRES_FC_BB    POSRES_FC_BB   
  646     1    POSRES_FC_BB    POSRES_FC_BB    POSRES_FC_BB   
  647     1    POSRES_FC_BB    POSRES_FC_BB    POSRES_FC_BB   
  650     1    POSRES_FC_BB    POSRES_FC_BB    POSRES_FC_BB   
  653     1    POSRES_FC_BB    POSRES_FC_BB    POSRES_FC_BB   
  654     1    POSRES_FC_BB    POSRES_FC_BB    POSRES_FC_BB   
  657     1    POSRES_FC_BB    POSRES_FC_BB    POSRES_FC_BB   
  660     1    POSRES_FC_BB    POSRES_FC_BB    POSRES_FC_BB   
  661     1    POSRES_FC_BB    POSRES_FC_BB    POSRES_FC_BB   
  664     1    POSRES_FC_BB    POSRES_FC_BB    POSRES_FC_BB   
  667     1    POSRES_FC_BB    POSRES_FC_BB    POSRES_FC_BB   
  668     1    POSRES_FC_BB    POSRES_FC_BB    POSRES_FC_BB   
  671     1    POSRES_FC_BB    POSRES_FC_BB    POSRES_FC_BB   
  674     1    POSRES_FC_BB    POSRES_FC_BB    POSRES_FC_BB   
  675     1    POSRES_FC_BB    POSRES_FC_BB    POSRES_FC_BB   
  678     1    POSRES_FC_BB    POSRES_FC_BB    POSRES_FC_BB   
  681     1    POSRES_FC_BB    POSRES_FC_BB    POSRES_FC_BB   
  682     1    POSRES_FC_BB    POSRES_FC_BB    POSRES_FC_BB   
  685     1    POSRES_FC_BB    POSRES_FC_BB    POSRES_FC_BB   
  688     1    POSRES_FC_BB    POSRES_FC_BB    POSRES_FC_BB   
  689     1    POSRES_FC_BB    POSRES_FC_BB    POSRES_FC_BB   
  692     1    POSRES_FC_BB    POSRES_FC_BB    POSRES_FC_BB   
  695     1    POSRES_FC_BB    POSRES_FC_BB    POSRES_FC_BB   
  696     1    POSRES_FC_BB    POSRES_FC_BB    POSRES_FC_BB   
  699     1    POSRES_FC_BB    POSRES_FC_BB    POSRES_FC_BB   
  702     1    POSRES_FC_BB    POSRES_FC_BB    POSRES_FC_BB   
  703     1    POSRES_FC_BB    POSRES_FC_BB    POSRES_FC_BB   
  706     1    POSRES_FC_BB    POSRES_FC_BB    POSRES_FC_BB   
  708     1    POSRES_FC_BB    POSRES_FC_BB    POSRES_FC_BB   
  712     1    POSRES_FC_BB    POSRES_FC_BB    POSRES_FC_BB   
  713     1    POSRES_FC_BB    POSRES_FC_BB    POSRES_FC_BB   
  716     1    POSRES_FC_BB    POSRES_FC_BB    POSRES_FC_BB   
  718     1    POSRES_FC_BB    POSRES_FC_BB    POSRES_FC_BB   
  722     1    POSRES_FC_BB    POSRES_FC_BB    POSRES_FC_BB   
  723     1    POSRES_FC_BB    POSRES_FC_BB    POSRES_FC_BB   
  726     1    POSRES_FC_BB    POSRES_FC_BB    POSRES_FC_BB   
  728     1    POSRES_FC_BB    POSRES_FC_BB    POSRES_FC_BB   
  732     1    POSRES_FC_BB    POSRES_FC_BB    POSRES_FC_BB   
  733     1    POSRES_FC_BB    POSRES_FC_BB    POSRES_FC_BB   
  736     1    POSRES_FC_BB    POSRES_FC_BB    POSRES_FC_BB   
  738     1    POSRES_FC_BB    POSRES_FC_BB    POSRES_FC_BB   
  742     1    POSRES_FC_BB    POSRES_FC_BB    POSRES_FC_BB   
  743     1    POSRES_FC_BB    POSRES_FC_BB    POSRES_FC_BB   
  746     1    POSRES_FC_BB    POSRES_FC_BB    POSRES_FC_BB   
  748     1    POSRES_FC_BB    POSRES_FC_BB    POSRES_FC_BB   
  752     1    POSRES_FC_BB    POSRES_FC_BB    POSRES_FC_BB   
  753     1    POSRES_FC_BB    POSRES_FC_BB    POSRES_FC_BB   
  756     1    POSRES_FC_BB    POSRES_FC_BB    POSRES_FC_BB   
  758     1    POSRES_FC_BB    POSRES_FC_BB    POSRES_FC_BB   
  762     1    POSRES_FC_BB    POSRES_FC_BB    POSRES_FC_BB   
  763     1    POSRES_FC_BB    POSRES_FC_BB    POSRES_FC_BB   
  766     1    POSRES_FC_BB    POSRES_FC_BB    POSRES_FC_BB   
  768     1    POSRES_FC_BB    POSRES_FC_BB    POSRES_FC_BB   
  772     1    POSRES_FC_BB    POSRES_FC_BB    POSRES_FC_BB   
  773     1    POSRES_FC_BB    POSRES_FC_BB    POSRES_FC_BB   
  776     1    POSRES_FC_BB    POSRES_FC_BB    POSRES_FC_BB   
  778     1    POSRES_FC_BB    POSRES_FC_BB    POSRES_FC_BB   
  782     1    POSRES_FC_BB    POSRES_FC_BB    POSRES_FC_BB   
  783     1    POSRES_FC_BB    POSRES_FC_BB    POSRES_FC_BB   
  786     1    POSRES_FC_BB    POSRES_FC_BB    POSRES_FC_BB   
  788     1    POSRES_FC_BB    POSRES_FC_BB    POSRES_FC_BB   
  792     1    POSRES_FC_BB    POSRES_FC_BB    POSRES_FC_BB   
  793     1    POSRES_FC_BB    POSRES_FC_BB    POSRES_FC_BB   
  796     1    POSRES_FC_BB    POSRES_FC_BB    POSRES_FC_BB   
  798     1    POSRES_FC_BB    POSRES_FC_BB    POSRES_FC_BB   
  802     1    POSRES_FC_BB    POSRES_FC_BB    POSRES_FC_BB   
  803     1    POSRES_FC_BB    POSRES_FC_BB    POSRES_FC_BB   
  806     1    POSRES_FC_BB    POSRES_FC_BB    POSRES_FC_BB   
  808     1    POSRES_FC_BB    POSRES_FC_BB    POSRES_FC_BB   
  812     1    POSRES_FC_BB    POSRES_FC_BB    POSRES_FC_BB   
  813     1    POSRES_FC_BB    POSRES_FC_BB    POSRES_FC_BB   
  816     1    POSRES_FC_BB    POSRES_FC_BB    POSRES_FC_BB   
  818     1    POSRES_FC_BB    POSRES_FC_BB    POSRES_FC_BB   
  822     1    POSRES_FC_BB    POSRES_FC_BB    POSRES_FC_BB   
  823     1    POSRES_FC_BB    POSRES_FC_BB    POSRES_FC_BB   
  826     1    POSRES_FC_BB    POSRES_FC_BB    POSRES_FC_BB   
  828     1    POSRES_FC_BB    POSRES_FC_BB    POSRES_FC_BB   
  832     1    POSRES_FC_BB    POSRES_FC_BB    POSRES_FC_BB   
  833     1    POSRES_FC_BB    POSRES_FC_BB    POSRES_FC_BB   
  836     1    POSRES_FC_BB    POSRES_FC_BB    POSRES_FC_BB   
  838     1    POSRES_FC_BB    POSRES_FC_BB    POSRES_FC_BB   
  842     1    POSRES_FC_BB    POSRES_FC_BB    POSRES_FC_BB   
  843     1    POSRES_FC_BB    POSRES_FC_BB    POSRES_FC_BB   
  846     1    POSRES_FC_BB    POSRES_FC_BB    POSRES_FC_BB   
  848     1    POSRES_FC_BB    POSRES_FC_BB    POSRES_FC_BB   
  852     1    POSRES_FC_BB    POSRES_FC_BB    POSRES_FC_BB   
  853     1    POSRES_FC_BB    POSRES_FC_BB    POSRES_FC_BB   
  856     1    POSRES_FC_BB    POSRES_FC_BB    POSRES_FC_BB   
  858     1    POSRES_FC_BB    POSRES_FC_BB    POSRES_FC_BB   
  862     1    POSRES_FC_BB    POSRES_FC_BB    POSRES_FC_BB   
  863     1    POSRES_FC_BB    POSRES_FC_BB    POSRES_FC_BB   
  866     1    POSRES_FC_BB    POSRES_FC_BB    POSRES_FC_BB   
  868     1    POSRES_FC_BB    POSRES_FC_BB    POSRES_FC_BB   
  872     1    POSRES_FC_BB    POSRES_FC_BB    POSRES_FC_BB   
  873     1    POSRES_FC_BB    POSRES_FC_BB    POSRES_FC_BB   
  876     1    POSRES_FC_BB    POSRES_FC_BB    POSRES_FC_BB   
  878     1    POSRES_FC_BB    POSRES_FC_BB    POSRES_FC_BB   
  882     1    POSRES_FC_BB    POSRES_FC_BB    POSRES_FC_BB   
  883     1    POSRES_FC_BB    POSRES_FC_BB    POSRES_FC_BB   
  886     1    POSRES_FC_BB    POSRES_FC_BB    POSRES_FC_BB   
  888     1    POSRES_FC_BB    POSRES_FC_BB    POSRES_FC_BB   
  892     1    POSRES_FC_BB    POSRES_FC_BB    POSRES_FC_BB   
  893     1    POSRES_FC_BB    POSRES_FC_BB    POSRES_FC_BB   
  896     1    POSRES_FC_BB    POSRES_FC_BB    POSRES_FC_BB   
  898     1    POSRES_FC_BB    POSRES_FC_BB    POSRES_FC_BB   
  902     1    POSRES_FC_BB    POSRES_FC_BB    POSRES_FC_BB   
  903     1    POSRES_FC_BB    POSRES_FC_BB    POSRES_FC_BB   
  906     1    POSRES_FC_BB    POSRES_FC_BB    POSRES_FC_BB   
  908     1    POSRES_FC_BB    POSRES_FC_BB    POSRES_FC_BB   
  912     1    POSRES_FC_BB    POSRES_FC_BB    POSRES_FC_BB   
  913     1    POSRES_FC_BB    POSRES_FC_BB    POSRES_FC_BB   
  916     1    POSRES_FC_BB    POSRES_FC_BB    POSRES_FC_BB   
  918     1    POSRES_FC_BB    POSRES_FC_BB    POSRES_FC_BB   
  922     1    POSRES_FC_BB    POSRES_FC_BB    POSRES_FC_BB   
  923     1    POSRES_FC_BB    POSRES_FC_BB    POSRES_FC_BB   
  926     1    POSRES_FC_BB    POSRES_FC_BB    POSRES_FC_BB   
  928     1    POSRES_FC_BB    POSRES_FC_BB    POSRES_FC_BB   
  932     1    POSRES_FC_BB    POSRES_FC_BB    POSRES_FC_BB   
  933     1    POSRES_FC_BB    POSRES_FC_BB    POSRES_FC_BB   
  936     1    POSRES_FC_BB    POSRES_FC_BB    POSRES_FC_BB   
  938     1    POSRES_FC_BB    POSRES_FC_BB    POSRES_FC_BB   
  942     1    POSRES_FC_BB    POSRES_FC_BB    POSRES_FC_BB   
  943     1    POSRES_FC_BB    POSRES_FC_BB    POSRES_FC_BB   
  946     1    POSRES_FC_BB    POSRES_FC_BB    POSRES_FC_BB   
  948     1    POSRES_FC_BB    POSRES_FC_BB    POSRES_FC_BB   
  952     1    POSRES_FC_BB    POSRES_FC_BB    POSRES_FC_BB   
  953     1    POSRES_FC_BB    POSRES_FC_BB    POSRES_FC_BB   
  956     1    POSRES_FC_BB    POSRES_FC_BB    POSRES_FC_BB   
  958     1    POSRES_FC_BB    POSRES_FC_BB    POSRES_FC_BB   
  962     1    POSRES_FC_BB    POSRES_FC_BB    POSRES_FC_BB   
  963     1    POSRES_FC_BB    POSRES_FC_BB    POSRES_FC_BB   
  966     1    POSRES_FC_BB    POSRES_FC_BB    POSRES_FC_BB   
  968     1    POSRES_FC_BB    POSRES_FC_BB    POSRES_FC_BB   
  972     1    POSRES_FC_BB    POSRES_FC_BB    POSRES_FC_BB   
  973     1    POSRES_FC_BB    POSRES_FC_BB    POSRES_FC_BB   
  976     1    POSRES_FC_BB    POSRES_FC_BB    POSRES_FC_BB   
  978     1    POSRES_FC_BB    POSRES_FC_BB    POSRES_FC_BB   
  982     1    POSRES_FC_BB    POSRES_FC_BB    POSRES_FC_BB   
  983     1    POSRES_FC_BB    POSRES_FC_BB    POSRES_FC_BB   
  986     1    POSRES_FC_BB    POSRES_FC_BB    POSRES_FC_BB   
  988     1    POSRES_FC_BB    POSRES_FC_BB    POSRES_FC_BB   
  992     1    POSRES_FC_BB    POSRES_FC_BB    POSRES_FC_BB   
  993     1    POSRES_FC_BB    POSRES_FC_BB    POSRES_FC_BB   
  996     1    POSRES_FC_BB    POSRES_FC_BB    POSRES_FC_BB   
  998     1    POSRES_FC_BB    POSRES_FC_BB    POSRES_FC_BB   
 1002     1    POSRES_FC_BB    POSRES_FC_BB    POSRES_FC_BB   
 1003     1    POSRES_FC_BB    POSRES_FC_BB    POSRES_FC_BB   
 1006     1    POSRES_FC_BB    POSRES_FC_BB    POSRES_FC_BB   
 1008     1    POSRES_FC_BB    POSRES_FC_BB    POSRES_FC_BB   
 1012     1    POSRES_FC_BB    POSRES_FC_BB    POSRES_FC_BB   
 1013     1    POSRES_FC_BB    POSRES_FC_BB    POSRES_FC_BB   
 1016     1    POSRES_FC_BB    POSRES_FC_BB    POSRES_FC_BB   
 1018     1    POSRES_FC_BB    POSRES_FC_BB    POSRES_FC_BB   
 1022     1    POSRES_FC_BB    POSRES_FC_BB    POSRES_FC_BB   
 1023     1    POSRES_FC_BB    POSRES_FC_BB    POSRES_FC_BB   
 1026     1    POSRES_FC_BB    POSRES_FC_BB    POSRES_FC_BB   
 1028     1    POSRES_FC_BB    POSRES_FC_BB    POSRES_FC_BB   
 1032     1    POSRES_FC_BB    POSRES_FC_BB    POSRES_FC_BB   
 1033     1    POSRES_FC_BB    POSRES_FC_BB    POSRES_FC_BB   
 1036     1    POSRES_FC_BB    POSRES_FC_BB    POSRES_FC_BB   
 1038     1    POSRES_FC_BB    POSRES_FC_BB    POSRES_FC_BB   
 1042     1    POSRES_FC_BB    POSRES_FC_BB    POSRES_FC_BB   
 1043     1    POSRES_FC_BB    POSRES_FC_BB    POSRES_FC_BB   
 1046     1    POSRES_FC_BB    POSRES_FC_BB    POSRES_FC_BB   
 1048     1    POSRES_FC_BB    POSRES_FC_BB    POSRES_FC_BB   
 1052     1    POSRES_FC_BB    POSRES_FC_BB    POSRES_FC_BB   
 1053     1    POSRES_FC_BB    POSRES_FC_BB    POSRES_FC_BB   
 1056     1    POSRES_FC_BB    POSRES_FC_BB    POSRES_FC_BB   
 1058     1    POSRES_FC_BB    POSRES_FC_BB    POSRES_FC_BB   
 1062     1    POSRES_FC_BB    POSRES_FC_BB    POSRES_FC_BB   
 1063     1    POSRES_FC_BB    POSRES_FC_BB    POSRES_FC_BB   
 1066     1    POSRES_FC_BB    POSRES_FC_BB    POSRES_FC_BB   
 1068     1    POSRES_FC_BB    POSRES_FC_BB    POSRES_FC_BB   
 1072     1    POSRES_FC_BB    POSRES_FC_BB    POSRES_FC_BB   
 1073     1    POSRES_FC_BB    POSRES_FC_BB    POSRES_FC_BB   
 1076     1    POSRES_FC_BB    POSRES_FC_BB    POSRES_FC_BB   
 1078     1    POSRES_FC_BB    POSRES_FC_BB    POSRES_FC_BB   
 1082     1    POSRES_FC_BB    POSRES_FC_BB    POSRES_FC_BB   
 1083     1    POSRES_FC_BB    POSRES_FC_BB    POSRES_FC_BB   
 1086     1    POSRES_FC_BB    POSRES_FC_BB    POSRES_FC_BB   
 1088     1    POSRES_FC_BB    POSRES_FC_BB    POSRES_FC_BB   
 1092     1    POSRES_FC_BB    POSRES_FC_BB    POSRES_FC_BB   
 1093     1    POSRES_FC_BB    POSRES_FC_BB    POSRES_FC_BB   
 1096     1    POSRES_FC_BB    POSRES_FC_BB    POSRES_FC_BB   
 1098     1    POSRES_FC_BB    POSRES_FC_BB    POSRES_FC_BB   
 1102     1    POSRES_FC_BB    POSRES_FC_BB    POSRES_FC_BB   
 1103     1    POSRES_FC_BB    POSRES_FC_BB    POSRES_FC_BB   
 1106     1    POSRES_FC_BB    POSRES_FC_BB    POSRES_FC_BB   
 1108     1    POSRES_FC_BB    POSRES_FC_BB    POSRES_FC_BB   
 1112     1    POSRES_FC_BB    POSRES_FC_BB    POSRES_FC_BB   
 1113     1    POSRES_FC_BB    POSRES_FC_BB    POSRES_FC_BB   
 1116     1    POSRES_FC_BB    POSRES_FC_BB    POSRES_FC_BB   
 1118     1    POSRES_FC_BB    POSRES_FC_BB    POSRES_FC_BB   
 1122     1    POSRES_FC_BB    POSRES_FC_BB    POSRES_FC_BB   
 1123     1    POSRES_FC_BB    POSRES_FC_BB    POSRES_FC_BB   
 1126     1    POSRES_FC_BB    POSRES_FC_BB    POSRES_FC_BB   
 1128     1    POSRES_FC_BB    POSRES_FC_BB    POSRES_FC_BB   
 1132     1    POSRES_FC_BB    POSRES_FC_BB    POSRES_FC_BB   
 1133     1    POSRES_FC_BB    POSRES_FC_BB    POSRES_FC_BB   
 1136     1    POSRES_FC_BB    POSRES_FC_BB    POSRES_FC_BB   
 1138     1    POSRES_FC_BB    POSRES_FC_BB    POSRES_FC_BB   
 1142     1    POSRES_FC_BB    POSRES_FC_BB    POSRES_FC_BB   
 1143     1    POSRES_FC_BB    POSRES_FC_BB    POSRES_FC_BB   
 1146     1    POSRES_FC_BB    POSRES_FC_BB    POSRES_FC_BB   
 1148     1    POSRES_FC_BB    POSRES_FC_BB    POSRES_FC_BB   
 1152     1    POSRES_FC_BB    POSRES_FC_BB    POSRES_FC_BB   
 1153     1    POSRES_FC_BB    POSRES_FC_BB    POSRES_FC_BB   
 1156     1    POSRES_FC_BB    POSRES_FC_BB    POSRES_FC_BB   
 1158     1    POSRES_FC_BB    POSRES_FC_BB    POSRES_FC_BB   
 1162     1    POSRES_FC_BB    POSRES_FC_BB    POSRES_FC_BB   
 1163     1    POSRES_FC_BB    POSRES_FC_BB    POSRES_FC_BB   
 1166     1    POSRES_FC_BB    POSRES_FC_BB    POSRES_FC_BB   
 1168     1    POSRES_FC_BB    POSRES_FC_BB    POSRES_FC_BB   
 1172     1    POSRES_FC_BB    POSRES_FC_BB    POSRES_FC_BB   
 1173     1    POSRES_FC_BB    POSRES_FC_BB    POSRES_FC_BB   
 1176     1    POSRES_FC_BB    POSRES_FC_BB    POSRES_FC_BB   
 1178     1    POSRES_FC_BB    POSRES_FC_BB    POSRES_FC_BB   
 1182     1    POSRES_FC_BB    POSRES_FC_BB    POSRES_FC_BB   
 1183     1    POSRES_FC_BB    POSRES_FC_BB    POSRES_FC_BB   
 1186     1    POSRES_FC_BB    POSRES_FC_BB    POSRES_FC_BB   
 1188     1    POSRES_FC_BB    POSRES_FC_BB    POSRES_FC_BB   
 1192     1    POSRES_FC_BB    POSRES_FC_BB    POSRES_FC_BB   
 1193     1    POSRES_FC_BB    POSRES_FC_BB    POSRES_FC_BB   
 1196     1    POSRES_FC_BB    POSRES_FC_BB    POSRES_FC_BB   
 1198     1    POSRES_FC_BB    POSRES_FC_BB    POSRES_FC_BB   
 1202     1    POSRES_FC_BB    POSRES_FC_BB    POSRES_FC_BB   
 1203     1    POSRES_FC_BB    POSRES_FC_BB    POSRES_FC_BB   
 1206     1    POSRES_FC_BB    POSRES_FC_BB    POSRES_FC_BB   
 1208     1    POSRES_FC_BB    POSRES_FC_BB    POSRES_FC_BB   
 1212     1    POSRES_FC_BB    POSRES_FC_BB    POSRES_FC_BB   
 1213     1    POSRES_FC_BB    POSRES_FC_BB    POSRES_FC_BB   
 1216     1    POSRES_FC_BB    POSRES_FC_BB    POSRES_FC_BB   
 1218     1    POSRES_FC_BB    POSRES_FC_BB    POSRES_FC_BB   
 1222     1    POSRES_FC_BB    POSRES_FC_BB    POSRES_FC_BB   
 1223     1    POSRES_FC_BB    POSRES_FC_BB    POSRES_FC_BB   
 1226     1    POSRES_FC_BB    POSRES_FC_BB    POSRES_FC_BB   
 1228     1    POSRES_FC_BB    POSRES_FC_BB    POSRES_FC_BB   
 1232     1    POSRES_FC_BB    POSRES_FC_BB    POSRES_FC_BB   
 1233     1    POSRES_FC_BB    POSRES_FC_BB    POSRES_FC_BB   
 1236     1    POSRES_FC_BB    POSRES_FC_BB    POSRES_FC_BB   
 1238     1    POSRES_FC_BB    POSRES_FC_BB    POSRES_FC_BB   
 1242     1    POSRES_FC_BB    POSRES_FC_BB    POSRES_FC_BB   
 1243     1    POSRES_FC_BB    POSRES_FC_BB    POSRES_FC_BB   
 1246     1    POSRES_FC_BB    POSRES_FC_BB    POSRES_FC_BB   
 1248     1    POSRES_FC_BB    POSRES_FC_BB    POSRES_FC_BB   
 1252     1    POSRES_FC_BB    POSRES_FC_BB    POSRES_FC_BB   
 1253     1    POSRES_FC_BB    POSRES_FC_BB    POSRES_FC_BB   
 1256     1    POSRES_FC_BB    POSRES_FC_BB    POSRES_FC_BB   
 1258     1    POSRES_FC_BB    POSRES_FC_BB    POSRES_FC_BB   
 1262     1    POSRES_FC_BB    POSRES_FC_BB    POSRES_FC_BB   
 1263     1    POSRES_FC_BB    POSRES_FC_BB    POSRES_FC_BB   
 1266     1    POSRES_FC_BB    POSRES_FC_BB    POSRES_FC_BB   
 1268     1    POSRES_FC_BB    POSRES_FC_BB    POSRES_FC_BB   
 1272     1    POSRES_FC_BB    POSRES_FC_BB    POSRES_FC_BB   
 1273     1    POSRES_FC_BB    POSRES_FC_BB    POSRES_FC_BB   
 1276     1    POSRES_FC_BB    POSRES_FC_BB    POSRES_FC_BB   
 1278     1    POSRES_FC_BB    POSRES_FC_BB    POSRES_FC_BB   
 1282     1    POSRES_FC_BB    POSRES_FC_BB    POSRES_FC_BB   
 1283     1    POSRES_FC_BB    POSRES_FC_BB    POSRES_FC_BB   
 1286     1    POSRES_FC_BB    POSRES_FC_BB    POSRES_FC_BB   
 1288     1    POSRES_FC_BB    POSRES_FC_BB    POSRES_FC_BB   
 1292     1    POSRES_FC_BB    POSRES_FC_BB    POSRES_FC_BB   
 1293     1    POSRES_FC_BB    POSRES_FC_BB    POSRES_FC_BB   
 1296     1    POSRES_FC_BB    POSRES_FC_BB    POSRES_FC_BB   
 1298     1    POSRES_FC_BB    POSRES_FC_BB    POSRES_FC_BB   
 1302     1    POSRES_FC_BB    POSRES_FC_BB    POSRES_FC_BB   
 1303     1    POSRES_FC_BB    POSRES_FC_BB    POSRES_FC_BB   
 1306     1    POSRES_FC_BB    POSRES_FC_BB    POSRES_FC_BB   
 1308     1    POSRES_FC_BB    POSRES_FC_BB    POSRES_FC_BB   
 1312     1    POSRES_FC_BB    POSRES_FC_BB    POSRES_FC_BB   
 1313     1    POSRES_FC_BB    POSRES_FC_BB    POSRES_FC_BB   
 1316     1    POSRES_FC_BB    POSRES_FC_BB    POSRES_FC_BB   
 1318     1    POSRES_FC_BB    POSRES_FC_BB    POSRES_FC_BB   
 1322     1    POSRES_FC_BB    POSRES_FC_BB    POSRES_FC_BB   
 1323     1    POSRES_FC_BB    POSRES_FC_BB    POSRES_FC_BB   
 1326     1    POSRES_FC_BB    POSRES_FC_BB    POSRES_FC_BB   
 1328     1    POSRES_FC_BB    POSRES_FC_BB    POSRES_FC_BB   
 1332     1    POSRES_FC_BB    POSRES_FC_BB    POSRES_FC_BB   
 1333     1    POSRES_FC_BB    POSRES_FC_BB    POSRES_FC_BB   
 1336     1    POSRES_FC_BB    POSRES_FC_BB    POSRES_FC_BB   
 1338     1    POSRES_FC_BB    POSRES_FC_BB    POSRES_FC_BB   
 1342     1    POSRES_FC_BB    POSRES_FC_BB    POSRES_FC_BB   
 1343     1    POSRES_FC_BB    POSRES_FC_BB    POSRES_FC_BB   
 1346     1    POSRES_FC_BB    POSRES_FC_BB    POSRES_FC_BB   
 1348     1    POSRES_FC_BB    POSRES_FC_BB    POSRES_FC_BB   
 1352     1    POSRES_FC_BB    POSRES_FC_BB    POSRES_FC_BB   
 1353     1    POSRES_FC_BB    POSRES_FC_BB    POSRES_FC_BB   
 1356     1    POSRES_FC_BB    POSRES_FC_BB    POSRES_FC_BB   
 1359     1    POSRES_FC_BB    POSRES_FC_BB    POSRES_FC_BB   
 1360     1    POSRES_FC_BB    POSRES_FC_BB    POSRES_FC_BB   
 1363     1    POSRES_FC_BB    POSRES_FC_BB    POSRES_FC_BB   
 1366     1    POSRES_FC_BB    POSRES_FC_BB    POSRES_FC_BB   
 1367     1    POSRES_FC_BB    POSRES_FC_BB    POSRES_FC_BB   
 1370     1    POSRES_FC_BB    POSRES_FC_BB    POSRES_FC_BB   
 1373     1    POSRES_FC_BB    POSRES_FC_BB    POSRES_FC_BB   
 1374     1    POSRES_FC_BB    POSRES_FC_BB    POSRES_FC_BB   
 1377     1    POSRES_FC_BB    POSRES_FC_BB    POSRES_FC_BB   
 1380     1    POSRES_FC_BB    POSRES_FC_BB    POSRES_FC_BB   
 1381     1    POSRES_FC_BB    POSRES_FC_BB    POSRES_FC_BB   
 1384     1    POSRES_FC_BB    POSRES_FC_BB    POSRES_FC_BB   
 1387     1    POSRES_FC_BB    POSRES_FC_BB    POSRES_FC_BB   
 1388     1    POSRES_FC_BB    POSRES_FC_BB    POSRES_FC_BB   
 1391     1    POSRES_FC_BB    POSRES_FC_BB    POSRES_FC_BB   
 1394     1    POSRES_FC_BB    POSRES_FC_BB    POSRES_FC_BB   
 1395     1    POSRES_FC_BB    POSRES_FC_BB    POSRES_FC_BB   
 1398     1    POSRES_FC_BB    POSRES_FC_BB    POSRES_FC_BB   
 1401     1    POSRES_FC_BB    POSRES_FC_BB    POSRES_FC_BB   
 1402     1    POSRES_FC_BB    POSRES_FC_BB    POSRES_FC_BB   
 1405     1    POSRES_FC_BB    POSRES_FC_BB    POSRES_FC_BB   
 1408     1    POSRES_FC_BB    POSRES_FC_BB    POSRES_FC_BB   
 1409     1    POSRES_FC_BB    POSRES_FC_BB    POSRES_FC_BB   
 1412     1    POSRES_FC_BB    POSRES_FC_BB    POSRES_FC_BB   
 1415     1    POSRES_FC_BB    POSRES_FC_BB    POSRES_FC_BB   
 1416     1    POSRES_FC_BB    POSRES_FC_BB    POSRES_FC_BB   
 1419     1    POSRES_FC_BB    POSRES_FC_BB    POSRES_FC_BB   
 1422     1    POSRES_FC_BB    POSRES_FC_BB    POSRES_FC_BB   
 1423     1    POSRES_FC_BB    POSRES_FC_BB    POSRES_FC_BB   
 1426     1    POSRES_FC_BB    POSRES_FC_BB    POSRES_FC_BB   
 1429     1    POSRES_FC_BB    POSRES_FC_BB    POSRES_FC_BB   
 1430     1    POSRES_FC_BB    POSRES_FC_BB    POSRES_FC_BB   
 1433     1    POSRES_FC_BB    POSRES_FC_BB    POSRES_FC_BB   
 1436     1    POSRES_FC_BB    POSRES_FC_BB    POSRES_FC_BB   
 1437     1    POSRES_FC_BB    POSRES_FC_BB    POSRES_FC_BB   
 1440     1    POSRES_FC_BB    POSRES_FC_BB    POSRES_FC_BB   
 1443     1    POSRES_FC_BB    POSRES_FC_BB    POSRES_FC_BB   
 1444     1    POSRES_FC_BB    POSRES_FC_BB    POSRES_FC_BB   
 1447     1    POSRES_FC_BB    POSRES_FC_BB    POSRES_FC_BB   
 1450     1    POSRES_FC_BB    POSRES_FC_BB    POSRES_FC_BB   
 1451     1    POSRES_FC_BB    POSRES_FC_BB    POSRES_FC_BB   
 1454     1    POSRES_FC_BB    POSRES_FC_BB    POSRES_FC_BB   
 1457     1    POSRES_FC_BB    POSRES_FC_BB    POSRES_FC_BB   
 1458     1    POSRES_FC_BB    POSRES_FC_BB    POSRES_FC_BB   
 1461     1    POSRES_FC_BB    POSRES_FC_BB    POSRES_FC_BB   
 1464     1    POSRES_FC_BB    POSRES_FC_BB    POSRES_FC_BB   
 1465     1    POSRES_FC_BB    POSRES_FC_BB    POSRES_FC_BB   
 1468     1    POSRES_FC_BB    POSRES_FC_BB    POSRES_FC_BB   
 1471     1    POSRES_FC_BB    POSRES_FC_BB    POSRES_FC_BB   
 1472     1    POSRES_FC_BB    POSRES_FC_BB    POSRES_FC_BB   
 1475     1    POSRES_FC_BB    POSRES_FC_BB    POSRES_FC_BB   
 1478     1    POSRES_FC_BB    POSRES_FC_BB    POSRES_FC_BB   
 1479     1    POSRES_FC_BB    POSRES_FC_BB    POSRES_FC_BB   
 1482     1    POSRES_FC_BB    POSRES_FC_BB    POSRES_FC_BB   
 1485     1    POSRES_FC_BB    POSRES_FC_BB    POSRES_FC_BB   
 1486     1    POSRES_FC_BB    POSRES_FC_BB    POSRES_FC_BB   
 1489     1    POSRES_FC_BB    POSRES_FC_BB    POSRES_FC_BB   
 1492     1    POSRES_FC_BB    POSRES_FC_BB    POSRES_FC_BB   
 1493     1    POSRES_FC_BB    POSRES_FC_BB    POSRES_FC_BB   
 1496     1    POSRES_FC_BB    POSRES_FC_BB    POSRES_FC_BB   
 1499     1    POSRES_FC_BB    POSRES_FC_BB    POSRES_FC_BB   
 1500     1    POSRES_FC_BB    POSRES_FC_BB    POSRES_FC_BB   
 1503     1    POSRES_FC_BB    POSRES_FC_BB    POSRES_FC_BB   
 1506     1    POSRES_FC_BB    POSRES_FC_BB    POSRES_FC_BB   
 1507     1    POSRES_FC_BB    POSRES_FC_BB    POSRES_FC_BB   
 1510     1    POSRES_FC_BB    POSRES_FC_BB    POSRES_FC_BB   
 1513     1    POSRES_FC_BB    POSRES_FC_BB    POSRES_FC_BB   
 1514     1    POSRES_FC_BB    POSRES_FC_BB    POSRES_FC_BB   
 1517     1    POSRES_FC_BB    POSRES_FC_BB    POSRES_FC_BB   
 1520     1    POSRES_FC_BB    POSRES_FC_BB    POSRES_FC_BB   
 1521     1    POSRES_FC_BB    POSRES_FC_BB    POSRES_FC_BB   
 1524     1    POSRES_FC_BB    POSRES_FC_BB    POSRES_FC_BB   
 1527     1    POSRES_FC_BB    POSRES_FC_BB    POSRES_FC_BB   
 1528     1    POSRES_FC_BB    POSRES_FC_BB    POSRES_FC_BB   
 1531     1    POSRES_FC_BB    POSRES_FC_BB    POSRES_FC_BB   
 1534     1    POSRES_FC_BB    POSRES_FC_BB    POSRES_FC_BB   
 1535     1    POSRES_FC_BB    POSRES_FC_BB    POSRES_FC_BB   
 1538     1    POSRES_FC_BB    POSRES_FC_BB    POSRES_FC_BB   
 1541     1    POSRES_FC_BB    POSRES_FC_BB    POSRES_FC_BB   
 1542     1    POSRES_FC_BB    POSRES_FC_BB    POSRES_FC_BB   
 1545     1    POSRES_FC_BB    POSRES_FC_BB    POSRES_FC_BB   
 1548     1    POSRES_FC_BB    POSRES_FC_BB    POSRES_FC_BB   
 1549     1    POSRES_FC_BB    POSRES_FC_BB    POSRES_FC_BB   
 1552     1    POSRES_FC_BB    POSRES_FC_BB    POSRES_FC_BB   
 1555     1    POSRES_FC_BB    POSRES_FC_BB    POSRES_FC_BB   
 1556     1    POSRES_FC_BB    POSRES_FC_BB    POSRES_FC_BB   
 1559     1    POSRES_FC_BB    POSRES_FC_BB    POSRES_FC_BB   
 1562     1    POSRES_FC_BB    POSRES_FC_BB    POSRES_FC_BB   
 1563     1    POSRES_FC_BB    POSRES_FC_BB    POSRES_FC_BB   
 1566     1    POSRES_FC_BB    POSRES_FC_BB    POSRES_FC_BB   
 1569     1    POSRES_FC_BB    POSRES_FC_BB    POSRES_FC_BB   
 1570     1    POSRES_FC_BB    POSRES_FC_BB    POSRES_FC_BB   
 1573     1    POSRES_FC_BB    POSRES_FC_BB    POSRES_FC_BB   
 1576     1    POSRES_FC_BB    POSRES_FC_BB    POSRES_FC_BB   
 1577     1    POSRES_FC_BB    POSRES_FC_BB    POSRES_FC_BB   
 1580     1    POSRES_FC_BB    POSRES_FC_BB    POSRES_FC_BB   
 1583     1    POSRES_FC_BB    POSRES_FC_BB    POSRES_FC_BB   
 1584     1    POSRES_FC_BB    POSRES_FC_BB    POSRES_FC_BB   
 1587     1    POSRES_FC_BB    POSRES_FC_BB    POSRES_FC_BB   
 1590     1    POSRES_FC_BB    POSRES_FC_BB    POSRES_FC_BB   
 1591     1    POSRES_FC_BB    POSRES_FC_BB    POSRES_FC_BB   
 1594     1    POSRES_FC_BB    POSRES_FC_BB    POSRES_FC_BB   
 1597     1    POSRES_FC_BB    POSRES_FC_BB    POSRES_FC_BB   
 1598     1    POSRES_FC_BB    POSRES_FC_BB    POSRES_FC_BB   
 1601     1    POSRES_FC_BB    POSRES_FC_BB    POSRES_FC_BB   
 1604     1    POSRES_FC_BB    POSRES_FC_BB    POSRES_FC_BB   
 1605     1    POSRES_FC_BB    POSRES_FC_BB    POSRES_FC_BB   
 1608     1    POSRES_FC_BB    POSRES_FC_BB    POSRES_FC_BB   
 1611     1    POSRES_FC_BB    POSRES_FC_BB    POSRES_FC_BB   
 1612     1    POSRES_FC_BB    POSRES_FC_BB    POSRES_FC_BB   
 1615     1    POSRES_FC_BB    POSRES_FC_BB    POSRES_FC_BB   
 1618     1    POSRES_FC_BB    POSRES_FC_BB    POSRES_FC_BB   
 1619     1    POSRES_FC_BB    POSRES_FC_BB    POSRES_FC_BB   
 1622     1    POSRES_FC_BB    POSRES_FC_BB    POSRES_FC_BB   
 1625     1    POSRES_FC_BB    POSRES_FC_BB    POSRES_FC_BB   
 1626     1    POSRES_FC_BB    POSRES_FC_BB    POSRES_FC_BB   
 1629     1    POSRES_FC_BB    POSRES_FC_BB    POSRES_FC_BB   
 1632     1    POSRES_FC_BB    POSRES_FC_BB    POSRES_FC_BB   
 1633     1    POSRES_FC_BB    POSRES_FC_BB    POSRES_FC_BB   
 1636     1    POSRES_FC_BB    POSRES_FC_BB    POSRES_FC_BB   
 1639     1    POSRES_FC_BB    POSRES_FC_BB    POSRES_FC_BB   
 1640     1    POSRES_FC_BB    POSRES_FC_BB    POSRES_FC_BB   
 1643     1    POSRES_FC_BB    POSRES_FC_BB    POSRES_FC_BB   
 1646     1    POSRES_FC_BB    POSRES_FC_BB    POSRES_FC_BB   
 1647     1    POSRES_FC_BB    POSRES_FC_BB    POSRES_FC_BB   
 1650     1    POSRES_FC_BB    POSRES_FC_BB    POSRES_FC_BB   
 1653     1    POSRES_FC_BB    POSRES_FC_BB    POSRES_FC_BB   
 1654     1    POSRES_FC_BB    POSRES_FC_BB    POSRES_FC_BB   
 1657     1    POSRES_FC_BB    POSRES_FC_BB    POSRES_FC_BB   
 1660     1    POSRES_FC_BB    POSRES_FC_BB    POSRES_FC_BB   
 1661     1    POSRES_FC_BB    POSRES_FC_BB    POSRES_FC_BB   
 1664     1    POSRES_FC_BB    POSRES_FC_BB    POSRES_FC_BB   
 1667     1    POSRES_FC_BB    POSRES_FC_BB    POSRES_FC_BB   
 1668     1    POSRES_FC_BB    POSRES_FC_BB    POSRES_FC_BB   
 1671     1    POSRES_FC_BB    POSRES_FC_BB    POSRES_FC_BB   
 1674     1    POSRES_FC_BB    POSRES_FC_BB    POSRES_FC_BB   
 1675     1    POSRES_FC_BB    POSRES_FC_BB    POSRES_FC_BB   
 1678     1    POSRES_FC_BB    POSRES_FC_BB    POSRES_FC_BB   
 1681     1    POSRES_FC_BB    POSRES_FC_BB    POSRES_FC_BB   
 1682     1    POSRES_FC_BB    POSRES_FC_BB    POSRES_FC_BB   
 1685     1    POSRES_FC_BB    POSRES_FC_BB    POSRES_FC_BB   
 1688     1    POSRES_FC_BB    POSRES_FC_BB    POSRES_FC_BB   
 1689     1    POSRES_FC_BB    POSRES_FC_BB    POSRES_FC_BB   
 1692     1    POSRES_FC_BB    POSRES_FC_BB    POSRES_FC_BB   
 1695     1    POSRES_FC_BB    POSRES_FC_BB    POSRES_FC_BB   
 1696     1    POSRES_FC_BB    POSRES_FC_BB    POSRES_FC_BB   
 1699     1    POSRES_FC_BB    POSRES_FC_BB    POSRES_FC_BB   
 1702     1    POSRES_FC_BB    POSRES_FC_BB    POSRES_FC_BB   
 1703     1    POSRES_FC_BB    POSRES_FC_BB    POSRES_FC_BB   
 1706     1    POSRES_FC_BB    POSRES_FC_BB    POSRES_FC_BB   
 1709     1    POSRES_FC_BB    POSRES_FC_BB    POSRES_FC_BB   
 1710     1    POSRES_FC_BB    POSRES_FC_BB    POSRES_FC_BB   
 1713     1    POSRES_FC_BB    POSRES_FC_BB    POSRES_FC_BB   
 1716     1    POSRES_FC_BB    POSRES_FC_BB    POSRES_FC_BB   
 1717     1    POSRES_FC_BB    POSRES_FC_BB    POSRES_FC_BB   
 1720     1    POSRES_FC_BB    POSRES_FC_BB    POSRES_FC_BB   
 1723     1    POSRES_FC_BB    POSRES_FC_BB    POSRES_FC_BB   
 1724     1    POSRES_FC_BB    POSRES_FC_BB    POSRES_FC_BB   
 1727     1    POSRES_FC_BB    POSRES_FC_BB    POSRES_FC_BB   
 1730     1    POSRES_FC_BB    POSRES_FC_BB    POSRES_FC_BB   
 1731     1    POSRES_FC_BB    POSRES_FC_BB    POSRES_FC_BB   
 1734     1    POSRES_FC_BB    POSRES_FC_BB    POSRES_FC_BB   
 1737     1    POSRES_FC_BB    POSRES_FC_BB    POSRES_FC_BB   
 1738     1    POSRES_FC_BB    POSRES_FC_BB    POSRES_FC_BB   
 1741     1    POSRES_FC_BB    POSRES_FC_BB    POSRES_FC_BB   
 1744     1    POSRES_FC_BB    POSRES_FC_BB    POSRES_FC_BB   
 1745     1    POSRES_FC_BB    POSRES_FC_BB    POSRES_FC_BB   
 1748     1    POSRES_FC_BB    POSRES_FC_BB    POSRES_FC_BB   
 1751     1    POSRES_FC_BB    POSRES_FC_BB    POSRES_FC_BB   
 1752     1    POSRES_FC_BB    POSRES_FC_BB    POSRES_FC_BB   
 1755     1    POSRES_FC_BB    POSRES_FC_BB    POSRES_FC_BB   
 1758     1    POSRES_FC_BB    POSRES_FC_BB    POSRES_FC_BB   
 1759     1    POSRES_FC_BB    POSRES_FC_BB    POSRES_FC_BB   
 1762     1    POSRES_FC_BB    POSRES_FC_BB    POSRES_FC_BB   
 1765     1    POSRES_FC_BB    POSRES_FC_BB    POSRES_FC_BB   
 1766     1    POSRES_FC_BB    POSRES_FC_BB    POSRES_FC_BB   
 1769     1    POSRES_FC_BB    POSRES_FC_BB    POSRES_FC_BB   
 1772     1    POSRES_FC_BB    POSRES_FC_BB    POSRES_FC_BB   
 1773     1    POSRES_FC_BB    POSRES_FC_BB    POSRES_FC_BB   
 1776     1    POSRES_FC_BB    POSRES_FC_BB    POSRES_FC_BB   
 1779     1    POSRES_FC_BB    POSRES_FC_BB    POSRES_FC_BB   
 1780     1    POSRES_FC_BB    POSRES_FC_BB    POSRES_FC_BB   
 1783     1    POSRES_FC_BB    POSRES_FC_BB    POSRES_FC_BB   
 1786     1    POSRES_FC_BB    POSRES_FC_BB    POSRES_FC_BB   
 1787     1    POSRES_FC_BB    POSRES_FC_BB    POSRES_FC_BB   
 1790     1    POSRES_FC_BB    POSRES_FC_BB    POSRES_FC_BB   
 1793     1    POSRES_FC_BB    POSRES_FC_BB    POSRES_FC_BB   
 1794     1    POSRES_FC_BB    POSRES_FC_BB    POSRES_FC_BB   
 1797     1    POSRES_FC_BB    POSRES_FC_BB    POSRES_FC_BB   
 1800     1    POSRES_FC_BB    POSRES_FC_BB    POSRES_FC_BB   
 1801     1    POSRES_FC_BB    POSRES_FC_BB    POSRES_FC_BB   
 1804     1    POSRES_FC_BB    POSRES_FC_BB    POSRES_FC_BB   
 1807     1    POSRES_FC_BB    POSRES_FC_BB    POSRES_FC_BB   
 1808     1    POSRES_FC_BB    POSRES_FC_BB    POSRES_FC_BB   
 1811     1    POSRES_FC_BB    POSRES_FC_BB    POSRES_FC_BB   
 1814     1    POSRES_FC_BB    POSRES_FC_BB    POSRES_FC_BB   
 1815     1    POSRES_FC_BB    POSRES_FC_BB    POSRES_FC_BB   
 1818     1    POSRES_FC_BB    POSRES_FC_BB    POSRES_FC_BB   
 1821     1    POSRES_FC_BB    POSRES_FC_BB    POSRES_FC_BB   
 1822     1    POSRES_FC_BB    POSRES_FC_BB    POSRES_FC_BB   
 1825     1    POSRES_FC_BB    POSRES_FC_BB    POSRES_FC_BB   
 1828     1    POSRES_FC_BB    POSRES_FC_BB    POSRES_FC_BB   
 1829     1    POSRES_FC_BB    POSRES_FC_BB    POSRES_FC_BB   
 1832     1    POSRES_FC_BB    POSRES_FC_BB    POSRES_FC_BB   
 1835     1    POSRES_FC_BB    POSRES_FC_BB    POSRES_FC_BB   
 1836     1    POSRES_FC_BB    POSRES_FC_BB    POSRES_FC_BB   
 1839     1    POSRES_FC_BB    POSRES_FC_BB    POSRES_FC_BB   
 1842     1    POSRES_FC_BB    POSRES_FC_BB    POSRES_FC_BB   
 1843     1    POSRES_FC_BB    POSRES_FC_BB    POSRES_FC_BB   
 1846     1    POSRES_FC_BB    POSRES_FC_BB    POSRES_FC_BB   
 1849     1    POSRES_FC_BB    POSRES_FC_BB    POSRES_FC_BB   
 1850     1    POSRES_FC_BB    POSRES_FC_BB    POSRES_FC_BB   
 1853     1    POSRES_FC_BB    POSRES_FC_BB    POSRES_FC_BB   
 1856     1    POSRES_FC_BB    POSRES_FC_BB    POSRES_FC_BB   
 1857     1    POSRES_FC_BB    POSRES_FC_BB    POSRES_FC_BB   
 1860     1    POSRES_FC_BB    POSRES_FC_BB    POSRES_FC_BB   
 1863     1    POSRES_FC_BB    POSRES_FC_BB    POSRES_FC_BB   
 1864     1    POSRES_FC_BB    POSRES_FC_BB    POSRES_FC_BB   
 1867     1    POSRES_FC_BB    POSRES_FC_BB    POSRES_FC_BB   
 1870     1    POSRES_FC_BB    POSRES_FC_BB    POSRES_FC_BB   
 1871     1    POSRES_FC_BB    POSRES_FC_BB    POSRES_FC_BB   
 1874     1    POSRES_FC_BB    POSRES_FC_BB    POSRES_FC_BB   
 1877     1    POSRES_FC_BB    POSRES_FC_BB    POSRES_FC_BB   
 1878     1    POSRES_FC_BB    POSRES_FC_BB    POSRES_FC_BB   
 1881     1    POSRES_FC_BB    POSRES_FC_BB    POSRES_FC_BB   
 1884     1    POSRES_FC_BB    POSRES_FC_BB    POSRES_FC_BB   
 1885     1    POSRES_FC_BB    POSRES_FC_BB    POSRES_FC_BB   
 1888     1    POSRES_FC_BB    POSRES_FC_BB    POSRES_FC_BB   
 1891     1    POSRES_FC_BB    POSRES_FC_BB    POSRES_FC_BB   
 1892     1    POSRES_FC_BB    POSRES_FC_BB    POSRES_FC_BB   
 1895     1    POSRES_FC_BB    POSRES_FC_BB    POSRES_FC_BB   
 1898     1    POSRES_FC_BB    POSRES_FC_BB    POSRES_FC_BB   
 1899     1    POSRES_FC_BB    POSRES_FC_BB    POSRES_FC_BB   
 1902     1    POSRES_FC_BB    POSRES_FC_BB    POSRES_FC_BB   
 1905     1    POSRES_FC_BB    POSRES_FC_BB    POSRES_FC_BB   
 1906     1    POSRES_FC_BB    POSRES_FC_BB    POSRES_FC_BB   
 1909     1    POSRES_FC_BB    POSRES_FC_BB    POSRES_FC_BB   
 1912     1    POSRES_FC_BB    POSRES_FC_BB    POSRES_FC_BB   
 1913     1    POSRES_FC_BB    POSRES_FC_BB    POSRES_FC_BB   
 1916     1    POSRES_FC_BB    POSRES_FC_BB    POSRES_FC_BB   
 1919     1    POSRES_FC_BB    POSRES_FC_BB    POSRES_FC_BB   
 1920     1    POSRES_FC_BB    POSRES_FC_BB    POSRES_FC_BB   
 1923     1    POSRES_FC_BB    POSRES_FC_BB    POSRES_FC_BB   
 1926     1    POSRES_FC_BB    POSRES_FC_BB    POSRES_FC_BB   
 1927     1    POSRES_FC_BB    POSRES_FC_BB    POSRES_FC_BB   
 1930     1    POSRES_FC_BB    POSRES_FC_BB    POSRES_FC_BB   
 1933     1    POSRES_FC_BB    POSRES_FC_BB    POSRES_FC_BB   
 1934     1    POSRES_FC_BB    POSRES_FC_BB    POSRES_FC_BB   
 1937     1    POSRES_FC_BB    POSRES_FC_BB    POSRES_FC_BB   
 1940     1    POSRES_FC_BB    POSRES_FC_BB    POSRES_FC_BB   
 1941     1    POSRES_FC_BB    POSRES_FC_BB    POSRES_FC_BB   
 1944     1    POSRES_FC_BB    POSRES_FC_BB    POSRES_FC_BB   
 1947     1    POSRES_FC_BB    POSRES_FC_BB    POSRES_FC_BB   
 1948     1    POSRES_FC_BB    POSRES_FC_BB    POSRES_FC_BB   
 1951     1    POSRES_FC_BB    POSRES_FC_BB    POSRES_FC_BB   
 1954     1    POSRES_FC_BB    POSRES_FC_BB    POSRES_FC_BB   
 1955     1    POSRES_FC_BB    POSRES_FC_BB    POSRES_FC_BB   
 1958     1    POSRES_FC_BB    POSRES_FC_BB    POSRES_FC_BB   
 1961     1    POSRES_FC_BB    POSRES_FC_BB    POSRES_FC_BB   
 1962     1    POSRES_FC_BB    POSRES_FC_BB    POSRES_FC_BB   
 1965     1    POSRES_FC_BB    POSRES_FC_BB    POSRES_FC_BB   
 1968     1    POSRES_FC_BB    POSRES_FC_BB    POSRES_FC_BB   
 1969     1    POSRES_FC_BB    POSRES_FC_BB    POSRES_FC_BB   
 1972     1    POSRES_FC_BB    POSRES_FC_BB    POSRES_FC_BB   
 1975     1    POSRES_FC_BB    POSRES_FC_BB    POSRES_FC_BB   
 1976     1    POSRES_FC_BB    POSRES_FC_BB    POSRES_FC_BB   
 1979     1    POSRES_FC_BB    POSRES_FC_BB    POSRES_FC_BB   
 1982     1    POSRES_FC_BB    POSRES_FC_BB    POSRES_FC_BB   
 1983     1    POSRES_FC_BB    POSRES_FC_BB    POSRES_FC_BB   
 1986     1    POSRES_FC_BB    POSRES_FC_BB    POSRES_FC_BB   
 1989     1    POSRES_FC_BB    POSRES_FC_BB    POSRES_FC_BB   
 1990     1    POSRES_FC_BB    POSRES_FC_BB    POSRES_FC_BB   
 1993     1    POSRES_FC_BB    POSRES_FC_BB    POSRES_FC_BB   
 1996     1    POSRES_FC_BB    POSRES_FC_BB    POSRES_FC_BB   
 1997     1    POSRES_FC_BB    POSRES_FC_BB    POSRES_FC_BB   
 2000     1    POSRES_FC_BB    POSRES_FC_BB    POSRES_FC_BB   
 2003     1    POSRES_FC_BB    POSRES_FC_BB    POSRES_FC_BB   
 2004     1    POSRES_FC_BB    POSRES_FC_BB    POSRES_FC_BB   
 2007     1    POSRES_FC_BB    POSRES_FC_BB    POSRES_FC_BB   
 2010     1    POSRES_FC_BB    POSRES_FC_BB    POSRES_FC_BB   
 2011     1    POSRES_FC_BB    POSRES_FC_BB    POSRES_FC_BB   
 2014     1    POSRES_FC_BB    POSRES_FC_BB    POSRES_FC_BB   
 2017     1    POSRES_FC_BB    POSRES_FC_BB    POSRES_FC_BB   
 2018     1    POSRES_FC_BB    POSRES_FC_BB    POSRES_FC_BB   
 2021     1    POSRES_FC_BB    POSRES_FC_BB    POSRES_FC_BB   
 2024     1    POSRES_FC_BB    POSRES_FC_BB    POSRES_FC_BB   
 2025     1    POSRES_FC_BB    POSRES_FC_BB    POSRES_FC_BB   
 2028     1    POSRES_FC_BB    POSRES_FC_BB    POSRES_FC_BB   
 2031     1    POSRES_FC_BB    POSRES_FC_BB    POSRES_FC_BB   
 2032     1    POSRES_FC_BB    POSRES_FC_BB    POSRES_FC_BB   
 2035     1    POSRES_FC_BB    POSRES_FC_BB    POSRES_FC_BB   
 2038     1    POSRES_FC_BB    POSRES_FC_BB    POSRES_FC_BB   
 2039     1    POSRES_FC_BB    POSRES_FC_BB    POSRES_FC_BB   
 2042     1    POSRES_FC_BB    POSRES_FC_BB    POSRES_FC_BB   
 2045     1    POSRES_FC_BB    POSRES_FC_BB    POSRES_FC_BB   
 2046     1    POSRES_FC_BB    POSRES_FC_BB    POSRES_FC_BB   
 2049     1    POSRES_FC_BB    POSRES_FC_BB    POSRES_FC_BB   
 2052     1    POSRES_FC_BB    POSRES_FC_BB    POSRES_FC_BB   
#endif
