F127 34-mer micelle + 8 pyrene, equilibrated 200 ns
70010
    1ETHOX   O1    1  17.688  16.743  11.051 -0.0029  0.3560  0.7181
    1ETHOX  HO1    2  17.709  16.806  10.981 -3.7990  1.9819  0.7358
    1ETHOX   C1    3  17.796  16.653  11.075  0.1555 -0.2458  0.0797
    1ETHOX  H11    4  17.846  16.692  11.167  1.4903 -1.4340 -0.1191
    1ETHOX  H13    5  17.852  16.649  10.979  0.3814  1.1736  0.1311
    1ETHOX   C2    6  17.737  16.506  11.091  0.0518 -0.6492  0.3041
    1ETHOX  H21    7  17.813  16.439  11.045 -0.3235 -0.0713 -1.2013
    1ETHOX  H23    8  17.639  16.502  11.040 -0.5291  0.3117  1.3208
    2ETHOX   O1    9  17.723  16.486  11.234  0.0510  0.6702 -0.4489
    2ETHOX   C1   10  17.669  16.358  11.259 -0.1254  0.4844 -0.0200
    2ETHOX  H11   11  17.632  16.358  11.364 -1.2840  2.2734 -0.3693
    2ETHOX  H13   12  17.592  16.331  11.184 -0.2166 -1.0294  0.5936
    2ETHOX   C2   13  17.777  16.244  11.257  0.3283  0.0882 -0.1318
    2ETHOX  H21   14  17.835  16.252  11.163 -1.8272 -1.1354 -1.6403
    2ETHOX  H23   15  17.733  16.143  11.260 -0.9315  0.5778 -1.2641
    3ETHOX   O1   16  17.855  16.263  11.375  0.2305  0.4419  0.4698
    3ETHOX   C1   17  17.911  16.143  11.419 -0.3998 -0.3111 -0.0995
    3ETHOX  H11   18  17.978  16.108  11.337  0.5971  0.4993  0.3403
    3ETHOX  H13   19  17.833  16.066  11.440 -0.3666 -0.5285 -0.7596
    3ETHOX   C2   20  17.997  16.177  11.543  0.1669  0.6380 -0.5582
    3ETHOX  H21   21  18.087  16.236  11.517  0.6941  0.0175 -0.1489
    3ETHOX  H23   22  18.027  16.078  11.584  0.5537  1.7833  2.0987
    4ETHOX   O1   23  17.916  16.244  11.644 -0.0946 -0.1516 -0.3274
    4ETHOX   C1   24  17.986  16.283  11.756 -0.8734 -0.4623  0.2097
    4ETHOX  H11   25  18.060  16.209  11.793  1.5571  0.6863 -2.0233
    4ETHOX  H13   26  18.039  16.373  11.720  0.9467 -1.6067 -0.0933
    4ETHOX   C2   27  17.899  16.348  11.865  0.3485  0.5147  0.3204
    4ETHOX  H21   28  17.833  16.427  11.824 -0.3757  1.7815  3.6131
    4ETHOX  H23   29  17.973  16.389  11.937 -1.1817  3.1672  0.4826
    5ETHOX   O1   30  17.814  16.249  11.924 -0.5158  0.0027 -0.4947
    5ETHOX   C1   31  17.747  16.302  12.040  0.3900  0.4669  0.3131
    5ETHOX  H11   32  17.826  16.355  12.099  1.4133  0.0156 -0.6050
    5ETHOX  H13   33  17.675  16.379  12.006 -0.1563  1.3774  3.2193
    5ETHOX   C2   34  17.673  16.193  12.118 -1.4829 -0.4106 -0.1668
    5ETHOX  H21   35  17.653  16.235  12.219  0.0229 -1.8779  0.7703
    5ETHOX  H23   36  17.753  16.119  12.136 -0.7327  0.0997 -1.2358
    6ETHOX   O1   37  17.567  16.129  12.053  0.3333 -0.8034 -0.5685
    6ETHOX   C1   38  17.509  16.033  12.145 -0.1602  1.1544  0.1367
    6ETHOX  H11   39  17.581  15.951  12.165  0.2823  1.3693 -0.5325
    6ETHOX  H13   40  17.484  16.084  12.240  1.1052  0.4220  0.8994
    6ETHOX   C2   41  17.383  15.974  12.082  0.1296  0.0597 -0.3069
    6ETHOX  H21   42  17.395  15.872  12.038  0.8319  0.1667 -0.3752
    6ETHOX  H23   43  17.351  16.043  12.001 -1.7995 -0.8376 -0.3646
    7ETHOX   O1   44  17.274  15.991  12.174  0.5248  0.2198  0.0280
    7ETHOX   C1   45  17.189  15.875  12.169 -0.0183 -0.4231 -0.1395
    7ETHOX  H11   46  17.141  15.853  12.071  0.6136 -1.2240 -0.2842
    7ETHOX  H13   47  17.257  15.789  12.184 -1.5674 -1.9185 -1.1932
    7ETHOX   C2   48  17.093  15.874  12.293  0.5687 -0.7063  0.7873
    7ETHOX  H21   49  17.155  15.894  12.384 -0.4417 -1.8555  1.7602
    7ETHOX  H23   50  17.052  15.773  12.313 -0.2682 -0.5014  0.1558
    8ETHOX   O1   51  16.984  15.969  12.294  0.3027 -0.0385  0.3731
    8ETHOX   C1   52  16.926  15.985  12.422  0.1117 -0.2899 -0.2762
    8ETHOX  H11   53  17.002  16.018  12.496 -0.5231  1.0601 -0.2125
    8ETHOX  H13   54  16.897  15.880  12.447  0.9239 -0.9379 -1.9092
    8ETHOX   C2   55  16.805  16.078  12.431 -0.4672  0.0909 -0.3845
    8ETHOX  H21   56  16.834  16.171  12.379  2.9021 -0.5757  0.0826
    8ETHOX  H23   57  16.784  16.092  12.540  0.7847 -1.5244  0.1045
    9ETHOX   O1   58  16.693  16.017  12.370  0.4382 -0.3009  0.6067
    9ETHOX   C1   59  16.590  16.119  12.350  0.1719  0.3853 -0.3691
    9ETHOX  H11   60  16.532  16.141  12.443 -0.4423 -0.4190 -0.5502
    9ETHOX  H13   61  16.641  16.211  12.316 -0.1707  1.1257  1.0280
    9ETHOX   C2   62  16.496  16.073  12.233 -0.4535 -0.1742 -0.5257
    9ETHOX  H21   63  16.558  16.069  12.141 -0.4416 -1.8186 -0.4794
    9ETHOX  H23   64  16.422  16.153  12.211 -1.6154 -0.8444  0.7687
   10ETHOX   O1   65  16.419  15.958  12.261 -0.2375  0.8105  0.2304
   10ETHOX   C1   66  16.369  15.898  12.138 -0.3385  0.1664 -0.0230
   10ETHOX  H11   67  16.437  15.889  12.051 -1.8436  0.9436 -1.3298
   10ETHOX  H13   68  16.293  15.967  12.097  0.2667  1.6483  1.2751
   10ETHOX   C2   69  16.316  15.753  12.164  0.5731  0.3410 -0.2015
   10ETHOX  H21   70  16.251  15.717  12.082  0.3465 -1.1869  0.6002
   10ETHOX  H23   71  16.254  15.768  12.255  0.5122  0.4974 -0.2689
   11ETHOX   O1   72  16.427  15.667  12.179  0.2129  0.6512  0.6280
   11ETHOX   C1   73  16.397  15.541  12.248 -0.1937  0.4835 -0.5026
   11ETHOX  H11   74  16.353  15.569  12.345 -1.4081  0.4747 -1.0353
   11ETHOX  H13   75  16.316  15.485  12.198 -0.8563 -0.3443  1.4333
   11ETHOX   C2   76  16.511  15.441  12.276  0.6832 -0.1564  0.2806
   11ETHOX  H21   77  16.604  15.488  12.315  0.6240 -0.5834  0.9551
   11ETHOX  H23   78  16.484  15.363  12.350 -3.0587  0.1398 -0.5944
   12ETHOX   O1   79  16.552  15.373  12.158  0.5148  0.2643 -0.1391
   12ETHOX   C1   80  16.633  15.263  12.188  0.3082  0.2546 -0.3747
   12ETHOX  H11   81  16.581  15.199  12.262 -0.6672  2.0172  0.5136
   12ETHOX  H13   82  16.730  15.303  12.224 -0.0646  2.3220 -1.5035
   12ETHOX   C2   83  16.664  15.185  12.065 -0.4112 -0.1715 -0.2292
   12ETHOX  H21   84  16.719  15.253  11.996  0.8772  0.0585  0.9948
   12ETHOX  H23   85  16.569  15.144  12.024  0.7255 -3.7974  0.4021
   13ETHOX   O1   86  16.747  15.078  12.098  0.0656 -0.0784 -0.2405
   13ETHOX   C1   87  16.805  15.008  11.992  0.0635 -1.1391  0.3847
   13ETHOX  H11   88  16.731  14.980  11.913  2.8527 -1.5872 -2.2653
   13ETHOX  H13   89  16.877  15.081  11.948 -1.7467 -0.1669 -1.1219
   13ETHOX   C2   90  16.881  14.878  12.023  0.1939  0.1279  0.1818
   13ETHOX  H21   91  16.916  14.838  11.926 -1.8522 -0.7581 -0.2233
   13ETHOX  H23   92  16.806  14.807  12.063 -1.1978  1.5506  0.2176
   14ETHOX   O1   93  16.988  14.895  12.119 -0.5016  0.0323 -0.1974
   14ETHOX   C1   94  17.028  14.778  12.185  0.0965  0.2739 -0.8254
   14ETHOX  H11   95  17.073  14.709  12.111  1.5449  0.8330 -0.5018
   14ETHOX  H13   96  16.936  14.731  12.226 -0.1873  2.0356  0.7460
   14ETHOX   C2   97  17.130  14.799  12.303 -0.4153  0.4656 -0.1069
   14ETHOX  H21   98  17.214  14.850  12.251 -0.2319 -1.2184 -1.5536
   14ETHOX  H23   99  17.154  14.699  12.346 -2.9279  1.5545  4.4466
   15ETHOX   O1  100  17.081  14.883  12.403 -0.0355 -0.0271  0.2904
   15ETHOX   C1  101  17.179  14.891  12.503  0.2662  0.3724 -0.6114
   15ETHOX  H11  102  17.212  14.793  12.546  0.3092  1.5343  2.2017
   15ETHOX  H13  103  17.273  14.929  12.457 -0.3897  0.6469 -1.7733
   15ETHOX   C2  104  17.132  14.987  12.618 -0.0053 -0.6025  0.3316
   15ETHOX  H21  105  17.023  14.980  12.637 -0.2539 -0.7939 -1.0969
   15ETHOX  H23  106  17.191  14.952  12.706  3.4359  0.6855 -1.2855
   16ETHOX   O1  107  17.176  15.126  12.592 -0.3318  0.2835  0.1668
   16ETHOX   C1  108  17.189  15.205  12.714 -0.0627  0.8116  0.2058
   16ETHOX  H11  109  17.094  15.183  12.768  0.0508 -0.3278 -0.0416
   16ETHOX  H13  110  17.271  15.165  12.777  0.8582 -0.0372 -1.4776
   16ETHOX   C2  111  17.202  15.346  12.686 -0.1764 -0.2011 -0.1525
   16ETHOX  H21  112  17.191  15.407  12.779 -0.7015 -0.6659  0.0937
   16ETHOX  H23  113  17.120  15.376  12.617  0.2599  1.5706  0.0471
   17ETHOX   O1  114  17.323  15.382  12.627  0.6129 -0.3273  0.1522
   17ETHOX   C1  115  17.348  15.527  12.611  0.9589  0.0629  0.3570
   17ETHOX  H11  116  17.422  15.529  12.528  0.0067 -0.4837 -0.5173
   17ETHOX  H13  117  17.260  15.585  12.576  0.3706 -0.5968  0.7043
   17ETHOX   C2  118  17.409  15.585  12.743 -0.2514  0.2772 -1.0598
   17ETHOX  H21  119  17.453  15.681  12.706  3.3908 -0.6273  0.5167
   17ETHOX  H23  120  17.492  15.526  12.787  2.4236  2.8816 -2.2267
   18ETHOX   O1  121  17.309  15.629  12.840  0.2982  0.1189  0.2588
   18ETHOX   C1  122  17.342  15.645  12.978 -0.1252 -0.7833  0.7468
   18ETHOX  H11  123  17.452  15.655  12.994  0.3090 -1.0184 -1.6998
   18ETHOX  H13  124  17.301  15.742  13.014 -0.9348 -0.9959  0.4236
   18ETHOX   C2  125  17.306  15.526  13.074  0.4495 -1.1040 -0.0910
   18ETHOX  H21  126  17.397  15.510  13.136  3.2201 -1.2544 -3.9030
   18ETHOX  H23  127  17.290  15.433  13.015  0.7218 -1.8664  1.0046
   19ETHOX   O1  128  17.189  15.559  13.142  0.2342  0.3887  0.0586
   19ETHOX   C1  129  17.206  15.538  13.277  0.0619  0.1456  0.1141
   19ETHOX  H11  130  17.293  15.600  13.310 -1.3116  2.1581  0.1290
   19ETHOX  H13  131  17.232  15.432  13.298  0.3431  0.0875 -0.5317
   19ETHOX   C2  132  17.087  15.590  13.351  0.1866 -0.2432  0.1201
   19ETHOX  H21  133  17.088  15.533  13.447  2.2234 -2.4769 -1.1118
   19ETHOX  H23  134  16.990  15.568  13.304  0.0970 -0.4271  0.3858
   20ETHOX   O1  135  17.093  15.725  13.387 -0.2772  0.3754  0.8640
   20ETHOX   C1  136  17.106  15.804  13.269  0.7397 -0.1750  0.2544
   20ETHOX  H11  137  17.208  15.809  13.225  1.2231  2.5479  1.4533
   20ETHOX  H13  138  17.041  15.762  13.190  2.6648  2.3600 -2.9321
   20ETHOX   C2  139  17.063  15.949  13.302  0.5875  0.3908  0.3510
   20ETHOX  H21  140  16.968  15.946  13.360 -0.1438  2.6143 -0.6422
   20ETHOX  H23  141  17.042  16.013  13.214  3.5316 -0.3178 -0.9705
   21ETHOX   O1  142  17.157  16.025  13.375 -0.3847  0.0882  0.0319
   21ETHOX   C1  143  17.129  16.028  13.514  1.2414  0.4776  0.0087
   21ETHOX  H11  144  17.077  15.939  13.556 -0.2442  2.1417  1.8468
   21ETHOX  H13  145  17.060  16.113  13.525 -1.3382 -1.6413  1.2062
   21ETHOX   C2  146  17.251  16.059  13.614  0.3751 -0.1819  1.1368
   21ETHOX  H21  147  17.200  16.094  13.707 -1.0775 -1.1649  0.7436
   21ETHOX  H23  148  17.315  16.143  13.578  0.2888 -0.0383  1.3144
   22ETHOX   O1  149  17.308  15.940  13.657 -0.2722  0.6063 -0.3435
   22ETHOX   C1  150  17.395  15.970  13.767 -0.2834  0.7297 -0.1024
   22ETHOX  H11  151  17.481  16.025  13.724 -1.4847  2.5869 -0.2779
   22ETHOX  H13  152  17.336  16.036  13.835 -1.1710  0.7465 -0.8651
   22ETHOX   C2  153  17.439  15.849  13.849  0.0714  0.3307  0.3211
   22ETHOX  H21  154  17.527  15.881  13.909  0.6771 -2.2789  0.9155
   22ETHOX  H23  155  17.364  15.816  13.923  0.0472  1.5234  0.8621
   23ETHOX   O1  156  17.478  15.741  13.758 -0.3889 -0.1878  0.1243
   23ETHOX   C1  157  17.537  15.628  13.827 -0.5187  0.2186 -0.0695
   23ETHOX  H11  158  17.452  15.560  13.849 -2.1007  1.5123 -1.9063
   23ETHOX  H13  159  17.593  15.667  13.915  0.0154  1.1647 -0.8136
   23ETHOX   C2  160  17.636  15.552  13.737 -0.5611  0.0923  0.4337
   23ETHOX  H21  161  17.595  15.508  13.643  0.4574  1.0131 -0.4625
   23ETHOX  H23  162  17.664  15.461  13.795 -1.1461  0.7453  1.7821
   24ETHOX   O1  163  17.753  15.629  13.716 -0.0859  0.2075  0.2196
   24ETHOX   C1  164  17.835  15.567  13.617 -0.2838  0.1448  0.8974
   24ETHOX  H11  165  17.874  15.466  13.641 -3.7005 -1.9045 -1.3383
   24ETHOX  H13  166  17.772  15.556  13.526 -1.2912 -0.6652  1.6707
   24ETHOX   C2  167  17.954  15.665  13.605  0.8934  0.1507  0.3408
   24ETHOX  H21  168  18.044  15.602  13.591  1.6098  1.3490 -0.7541
   24ETHOX  H23  169  17.958  15.718  13.703 -1.6941  1.3281 -0.0820
   25ETHOX   O1  170  17.942  15.757  13.493  0.3425  0.6917  0.9834
   25ETHOX   C1  171  18.064  15.821  13.473 -0.1164  0.1292  0.2605
   25ETHOX  H11  172  18.139  15.749  13.434 -1.0419  0.1078 -1.5660
   25ETHOX  H13  173  18.092  15.866  13.571 -0.8389 -0.2270  0.6356
   25ETHOX   C2  174  18.064  15.936  13.368 -0.5350  0.7258 -0.6681
   25ETHOX  H21  175  18.158  15.995  13.364 -0.7134  1.0345 -0.3829
   25ETHOX  H23  176  17.976  16.001  13.387 -0.1520  0.9732  0.2780
   26ETHOX   O1  177  18.040  15.873  13.245 -0.6671  0.2724  0.1119
   26ETHOX   C1  178  18.036  15.972  13.147 -0.1048 -0.3345 -0.2102
   26ETHOX  H11  179  17.943  16.029  13.169  1.4022  3.0287 -1.7789
   26ETHOX  H13  180  18.118  16.047  13.144 -0.1835 -0.2535 -0.3525
   26ETHOX   C2  181  18.025  15.925  13.005  0.5859  0.5113  0.0681
   26ETHOX  H21  182  18.013  16.015  12.941 -0.3046 -0.5590 -1.3341
   26ETHOX  H23  183  17.951  15.843  13.013  0.5192  0.6601  1.1496
   27ETHOX   O1  184  18.150  15.874  12.972 -0.0064  0.1926 -0.7160
   27ETHOX   C1  185  18.150  15.841  12.832 -0.0435  0.3182  0.4430
   27ETHOX  H11  186  18.156  15.928  12.763 -1.4885  0.3806  0.3642
   27ETHOX  H13  187  18.050  15.797  12.813 -0.3755  0.2118  2.2276
   27ETHOX   C2  188  18.258  15.739  12.782 -0.5023 -0.6513  0.2494
   27ETHOX  H21  189  18.229  15.714  12.678 -1.1634  3.0932 -0.6131
   27ETHOX  H23  190  18.258  15.647  12.844  2.1045  0.2674  1.7631
   28ETHOX   O1  191  18.391  15.790  12.772 -0.0877 -0.6345 -0.0303
   28ETHOX   C1  192  18.492  15.696  12.746  0.0067  0.2334  0.2250
   28ETHOX  H11  193  18.494  15.636  12.840  0.3064 -0.6545 -0.3393
   28ETHOX  H13  194  18.462  15.629  12.663 -1.6179 -0.4884  1.3125
   28ETHOX   C2  195  18.632  15.755  12.728  0.1439 -0.3091  0.0875
   28ETHOX  H21  196  18.630  15.847  12.665 -0.8130 -1.0882 -1.0529
   28ETHOX  H23  197  18.700  15.680  12.684  0.3774  0.1234 -0.2963
   29ETHOX   O1  198  18.690  15.795  12.855 -0.4658 -0.4125  0.3588
   29ETHOX   C1  199  18.808  15.867  12.846 -0.4106  0.0109  0.3847
   29ETHOX  H11  200  18.854  15.900  12.941 -0.9999  0.1635  0.6200
   29ETHOX  H13  201  18.790  15.954  12.779  0.4600 -0.0349  0.0806
   29ETHOX   C2  202  18.920  15.791  12.772  0.0843 -0.3450  0.0185
   29ETHOX  H21  203  19.010  15.855  12.782  0.0581 -0.5289  1.9002
   29ETHOX  H23  204  18.899  15.769  12.665  1.1915 -0.1236 -0.2559
   30ETHOX   O1  205  18.944  15.665  12.829 -0.0690  0.1010 -0.5516
   30ETHOX   C1  206  19.083  15.630  12.830 -0.0382 -1.2171  0.7128
   30ETHOX  H11  207  19.098  15.622  12.720 -0.0837  0.9021  0.5057
   30ETHOX  H13  208  19.157  15.706  12.862 -0.1545  0.3113 -2.2844
   30ETHOX   C2  209  19.105  15.495  12.901  0.0079 -0.3250 -0.3388
   30ETHOX  H21  210  19.210  15.469  12.876  1.5686  1.8637  3.1944
   30ETHOX  H23  211  19.039  15.420  12.852  1.9525 -0.5997 -2.7331
   31ETHOX   O1  212  19.091  15.504  13.045  0.0392 -0.0770  0.1721
   31ETHOX   C1  213  19.068  15.371  13.103  0.0284 -0.1330 -0.2227
   31ETHOX  H11  214  18.977  15.326  13.057  0.5870 -0.5947 -0.8866
   31ETHOX  H13  215  19.161  15.318  13.076  0.8584  1.0689  0.1869
   31ETHOX   C2  216  19.057  15.382  13.257  0.0248  0.5115  0.1878
   31ETHOX  H21  217  19.018  15.287  13.300 -0.0222  1.7904  3.3008
   31ETHOX  H23  218  18.995  15.463  13.302  1.9135  1.5476  1.0594
   32ETHOX   O1  219  19.187  15.395  13.307 -0.0925 -0.2581 -0.4282
   32ETHOX   C1  220  19.192  15.349  13.437 -0.6835 -0.0701 -0.9516
   32ETHOX  H11  221  19.136  15.408  13.513 -0.2526 -1.4722  0.5072
   32ETHOX  H13  222  19.174  15.240  13.448  0.2362 -0.1377  0.0215
   32ETHOX   C2  223  19.345  15.356  13.468 -0.1178 -0.4804  0.4725
   32ETHOX  H21  224  19.364  15.346  13.577 -0.4739  0.0741  0.5928
   32ETHOX  H23  225  19.374  15.459  13.438  1.2329 -1.3396 -1.3291
   33ETHOX   O1  226  19.413  15.269  13.390  0.1288  0.6176  0.5125
   33ETHOX   C1  227  19.555  15.277  13.401  0.1487  0.2259  0.7720
   33ETHOX  H11  228  19.600  15.371  13.363 -0.3303  0.5990  1.1206
   33ETHOX  H13  229  19.586  15.282  13.507  0.1675  1.3168  0.7304
   33ETHOX   C2  230  19.626  15.159  13.339  0.6116 -0.1776 -0.4052
   33ETHOX  H21  231  19.564  15.069  13.360 -0.2193  0.3389 -0.6179
   33ETHOX  H23  232  19.729  15.150  13.379  1.7390  0.5898 -2.9229
   34ETHOX   O1  233  19.644  15.166  13.193 -0.2994  0.0184 -0.1786
   34ETHOX   C1  234  19.716  15.054  13.151  0.0030 -0.3769  0.4043
   34ETHOX  H11  235  19.759  15.000  13.237  1.3387 -0.4318 -0.2617
   34ETHOX  H13  236  19.814  15.086  13.108 -0.4046  0.6408  0.2155
   34ETHOX   C2  237  19.643  14.956  13.066 -0.0149  0.0680 -0.1681
   34ETHOX  H21  238  19.707  14.884  13.011 -4.3754 -1.8653 -3.3028
   34ETHOX  H23  239  19.593  15.012  12.984 -0.7032 -1.2585 -0.6933
   35ETHOX   O1  240  19.539  14.887  13.128  0.1786  0.4844  0.1032
   35ETHOX   C1  241  19.469  14.798  13.035 -0.4488  0.0851 -0.2362
   35ETHOX  H11  242  19.447  14.845  12.936  0.8271  0.1443 -0.5052
   35ETHOX  H13  243  19.542  14.716  13.028  2.5777  2.2891  2.5295
   35ETHOX   C2  244  19.333  14.747  13.098  0.2202  0.2961  0.1056
   35ETHOX  H21  245  19.250  14.821  13.101  0.1351  0.2156 -0.1580
   35ETHOX  H23  246  19.361  14.729  13.203  2.1470  2.8905  0.1261
   36ETHOX   O1  247  19.298  14.623  13.041  0.0245 -0.3469  0.7493
   36ETHOX   C1  248  19.175  14.578  13.089 -0.5907 -0.1066 -0.4261
   36ETHOX  H11  249  19.174  14.585  13.199 -0.5672  1.2114 -0.4982
   36ETHOX  H13  250  19.190  14.469  13.074  2.3528 -0.0835  1.6611
   36ETHOX   C2  251  19.047  14.631  13.028  0.0865  0.2374 -0.1128
   36ETHOX  H21  252  18.969  14.561  13.067  1.7240 -1.5089  0.1751
   36ETHOX  H23  253  19.041  14.612  12.919  0.7431 -0.7606  0.0125
   37ETHOX   O1  254  19.028  14.761  13.077 -0.6211 -0.0537 -0.2009
   37ETHOX   C1  255  18.902  14.814  13.033 -0.2954 -0.6277 -0.5413
   37ETHOX  H11  256  18.915  14.837  12.925 -1.7049 -0.0180 -0.6012
   37ETHOX  H13  257  18.820  14.741  13.048 -0.2139 -0.2930  1.8807
   37ETHOX   C2  258  18.859  14.930  13.119  0.6358 -0.3719 -0.0223
   37ETHOX  H21  259  18.771  14.979  13.071  1.2955  1.0386  0.1636
   37ETHOX  H23  260  18.933  15.013  13.119 -2.4115  2.6510  2.5765
   38ETHOX   O1  261  18.835  14.886  13.253 -0.0016 -0.2812  0.0477
   38ETHOX   C1  262  18.807  14.993  13.345  0.4764  0.3311 -0.2817
   38ETHOX  H11  263  18.705  15.036  13.337  0.3839  0.0431 -0.6611
   38ETHOX  H13  264  18.873  15.079  13.324  0.7116  0.3543  0.5023
   38ETHOX   C2  265  18.809  14.968  13.498 -0.5018 -0.1631 -0.3316
   38ETHOX  H21  266  18.776  15.064  13.542  2.4603  1.0384 -0.4743
   38ETHOX  H23  267  18.912  14.940  13.528 -0.2291  0.0441 -1.0547
   39ETHOX   O1  268  18.726  14.858  13.539 -0.0228 -0.0262  0.0154
   39ETHOX   C1  269  18.735  14.836  13.679 -0.3418  0.2669  0.0073
   39ETHOX  H11  270  18.836  14.805  13.713 -0.3841  0.6062  0.4403
   39ETHOX  H13  271  18.716  14.935  13.726 -3.3581  0.7453 -1.9260
   39ETHOX   C2  272  18.636  14.734  13.714 -0.2687 -0.1984  0.6189
   39ETHOX  H21  273  18.641  14.719  13.824 -0.0129  1.0656  0.7884
   39ETHOX  H23  274  18.656  14.648  13.646  0.8059  1.4607 -1.2705
   40ETHOX   O1  275  18.504  14.786  13.683 -0.5910  0.3726 -0.0848
   40ETHOX   C1  276  18.407  14.690  13.696  0.9154  0.5732  0.5546
   40ETHOX  H11  277  18.398  14.658  13.802  0.4617  0.7258  0.5628
   40ETHOX  H13  278  18.436  14.598  13.641 -0.7378 -0.3489  1.1614
   40ETHOX   C2  279  18.264  14.745  13.681 -0.2828 -0.7125 -0.1126
   40ETHOX  H21  280  18.255  14.838  13.742 -1.3913  0.1543 -1.5228
   40ETHOX  H23  281  18.184  14.672  13.699 -1.6823  0.8330  0.1924
   41ETHOX   O1  282  18.253  14.794  13.547  0.0081 -0.3325  0.0182
   41ETHOX   C1  283  18.133  14.866  13.536 -0.0516 -0.3943  0.0857
   41ETHOX  H11  284  18.055  14.788  13.553 -1.3380  0.7053 -0.5990
   41ETHOX  H13  285  18.142  14.942  13.616 -0.7128 -0.5323  0.2979
   41ETHOX   C2  286  18.109  14.935  13.405  0.5343 -0.3313 -0.1231
   41ETHOX  H21  287  18.197  14.996  13.377  0.7405 -0.4135  0.3335
   41ETHOX  H23  288  18.031  15.008  13.437  0.7076 -0.8472  1.5703
   42ETHOX   O1  289  18.059  14.844  13.302  0.1037  0.0599  0.0635
   42ETHOX   C1  290  18.046  14.919  13.183  0.3728  0.1173  0.0754
   42ETHOX  H11  291  17.967  14.994  13.206  1.5569  1.0166  1.3982
   42ETHOX  H13  292  18.149  14.961  13.176  0.9872 -1.3844 -0.2250
   42ETHOX   C2  293  18.007  14.835  13.066 -0.3629 -0.3058  0.4888
   42ETHOX  H21  294  18.070  14.743  13.060  1.6150  0.9811  0.7407
   42ETHOX  H23  295  18.019  14.892  12.971  2.1516 -0.4435  0.6796
   43ETHOX   O1  296  17.873  14.795  13.077  0.1893 -0.3688 -0.1670
   43ETHOX   C1  297  17.827  14.731  12.960 -0.4353 -0.0668 -0.2797
   43ETHOX  H11  298  17.821  14.813  12.885  2.1641 -0.1404 -0.6674
   43ETHOX  H13  299  17.902  14.660  12.920 -1.3192 -1.5891  0.6594
   43ETHOX   C2  300  17.688  14.665  12.961  0.5768  0.5649 -0.2811
   43ETHOX  H21  301  17.675  14.631  12.856 -0.6108  0.9643 -0.2729
   43ETHOX  H23  302  17.612  14.744  12.974 -0.9579 -0.8123 -0.5514
   44ETHOX   O1  303  17.663  14.565  13.068 -0.5064 -0.4531 -0.2288
   44ETHOX   C1  304  17.694  14.432  13.032  0.3140  0.0953  0.2863
   44ETHOX  H11  305  17.723  14.423  12.925  2.6249  1.4081  0.7501
   44ETHOX  H13  306  17.780  14.398  13.092 -0.9771 -1.3287  1.4227
   44ETHOX   C2  307  17.562  14.347  13.048 -0.0653  0.8967 -0.6548
   44ETHOX  H21  308  17.537  14.349  13.157  0.2787  1.6345 -0.5858
   44ETHOX  H23  309  17.581  14.242  13.018 -1.6777  0.8071 -1.4976
   45ETHOX   O1  310  17.452  14.401  12.980 -0.1266 -0.0495  0.0617
   45ETHOX   C1  311  17.330  14.354  13.035  0.4171  0.6323  0.4013
   45ETHOX  H11  312  17.328  14.386  13.142 -0.4216 -3.5851  1.8216
   45ETHOX  H13  313  17.346  14.244  13.037  1.7578  0.7358 -1.6550
   45ETHOX   C2  314  17.199  14.404  12.959 -0.4309  0.2400 -0.6219
   45ETHOX  H21  315  17.114  14.336  12.981  0.3231 -0.3456  0.6067
   45ETHOX  H23  316  17.227  14.407  12.851  0.9379 -0.6363 -0.3268
   46ETHOX   O1  317  17.161  14.538  12.993 -0.5883  0.3333 -0.1046
   46ETHOX   C1  318  17.237  14.641  12.934  0.3638 -0.1149  0.0750
   46ETHOX  H11  319  17.343  14.626  12.965  0.1464 -0.4998  0.6622
   46ETHOX  H13  320  17.227  14.637  12.824  0.0540  0.4143  0.0804
   46ETHOX   C2  321  17.197  14.773  12.999 -0.0419 -0.0720 -0.2047
   46ETHOX  H21  322  17.275  14.850  12.980  0.8695 -0.9924 -0.2754
   46ETHOX  H23  323  17.193  14.760  13.110  2.8010 -0.8530 -0.1138
   47ETHOX   O1  324  17.070  14.819  12.947 -0.2482  0.6372  0.3617
   47ETHOX   C1  325  17.024  14.938  13.006 -0.0176 -0.5132 -0.1950
   47ETHOX  H11  326  17.106  15.011  13.023 -0.6457  0.2691 -0.4936
   47ETHOX  H13  327  16.985  14.914  13.107 -0.1127 -0.1624 -0.1481
   47ETHOX   C2  328  16.898  15.000  12.939 -0.3358  0.2614 -0.4074
   47ETHOX  H21  329  16.909  14.981  12.830  2.9460  0.0353 -0.1518
   47ETHOX  H23  330  16.899  15.109  12.962 -0.3620 -0.0668  1.3077
   48ETHOX   O1  331  16.786  14.929  12.991  0.2058  0.6968  0.2324
   48ETHOX   C1  332  16.655  14.994  12.984  0.1507  0.2862  0.5421
   48ETHOX  H11  333  16.589  14.931  13.047 -1.6093  0.8449 -0.6508
   48ETHOX  H13  334  16.659  15.097  13.026  1.7840  0.6819 -0.4863
   48ETHOX   C2  335  16.601  15.009  12.839  0.6690 -0.8939 -0.8345
   48ETHOX  H21  336  16.614  14.906  12.801  0.8182 -1.7585  1.4264
   48ETHOX  H23  337  16.493  15.036  12.843  0.9009  0.2279 -1.4828
   49ETHOX   O1  338  16.672  15.116  12.770 -0.1532 -0.5752 -0.1492
   49ETHOX   C1  339  16.612  15.155  12.648 -0.3552 -0.0236  0.3240
   49ETHOX  H11  340  16.523  15.221  12.659  1.0796  1.7940  1.9384
   49ETHOX  H13  341  16.583  15.061  12.597 -0.4247  1.4886 -2.6488
   49ETHOX   C2  342  16.712  15.218  12.548  0.3759 -0.2140  0.3709
   49ETHOX  H21  343  16.695  15.188  12.442  0.1660 -1.2874  0.6955
   49ETHOX  H23  344  16.807  15.168  12.578  0.4379 -0.7393 -0.6445
   50ETHOX   O1  345  16.721  15.360  12.549  0.4103 -0.4139 -0.1227
   50ETHOX   C1  346  16.844  15.413  12.490 -0.1659 -0.1299  0.4097
   50ETHOX  H11  347  16.936  15.354  12.508 -0.9045 -1.0747  1.1968
   50ETHOX  H13  348  16.826  15.417  12.380  1.5286  2.0184  0.1473
   50ETHOX   C2  349  16.901  15.545  12.542 -0.0372  0.5984  0.8363
   50ETHOX  H21  350  16.839  15.633  12.514 -1.7247 -0.7857  0.0476
   50ETHOX  H23  351  16.991  15.572  12.483 -1.5366  0.9036 -1.4290
   51ETHOX   O1  352  16.920  15.546  12.680  0.0151  0.6229  0.2783
   51ETHOX   C1  353  16.972  15.669  12.718  0.6653  0.2574  0.2148
   51ETHOX  H11  354  17.016  15.732  12.638 -1.6683  1.5744 -0.1404
   51ETHOX  H13  355  17.034  15.666  12.810 -0.2746  0.5175  0.8829
   51ETHOX   C2  356  16.856  15.764  12.757 -0.5541 -0.0389  0.3479
   51ETHOX  H21  357  16.802  15.716  12.841 -1.5060 -1.2446 -0.9002
   51ETHOX  H23  358  16.778  15.780  12.680 -0.2903 -0.1964  0.0425
   52ETHOX   O1  359  16.929  15.887  12.796 -0.6610 -0.5725  0.0988
   52ETHOX   C1  360  16.834  15.963  12.881 -0.5909 -0.6616  0.2123
   52ETHOX  H11  361  16.733  15.943  12.839 -0.1252 -2.0329 -0.3349
   52ETHOX  H13  362  16.847  15.937  12.988 -2.5849 -0.5146  0.5161
   52ETHOX   C2  363  16.859  16.121  12.882  0.2274  0.1850 -0.0171
   52ETHOX  H21  364  16.776  16.169  12.938 -0.4502 -0.1283 -0.7352
   52ETHOX  H23  365  16.864  16.167  12.781  0.9651  3.1965  1.2944
   53ETHOX   O1  366  16.969  16.144  12.968  0.1781  0.3691  0.6837
   53ETHOX   C1  367  16.981  16.282  12.992 -0.7997  0.6906  0.4014
   53ETHOX  H11  368  16.952  16.351  12.910 -1.3862 -2.1187 -1.8865
   53ETHOX  H13  369  16.927  16.304  13.087 -0.4331 -0.7196  0.9672
   53ETHOX   C2  370  17.126  16.306  13.032 -0.3557 -0.5305  0.3722
   53ETHOX  H21  371  17.158  16.236  13.112 -0.5833 -0.3887  0.5868
   53ETHOX  H23  372  17.131  16.409  13.072  0.7213  0.3145 -1.8038
   54ETHOX   O1  373  17.211  16.307  12.919 -0.4181  0.1639  0.3988
   54ETHOX   C1  374  17.341  16.308  12.972  0.2726 -0.0353  1.3492
   54ETHOX  H11  375  17.361  16.404  13.025 -1.0253  2.1018 -1.7305
   54ETHOX  H13  376  17.366  16.226  13.043  0.0534  0.2497  1.7617
   54ETHOX   C2  377  17.446  16.315  12.853  0.3738  0.5637  0.0764
   54ETHOX  H21  378  17.398  16.248  12.779 -0.8670  1.6101 -0.1056
   54ETHOX  H23  379  17.536  16.267  12.898  0.0740  0.8890  1.0471
   55ETHOX   O1  380  17.482  16.440  12.788 -0.1769 -0.4300  0.1680
   55ETHOX   C1  381  17.370  16.482  12.706 -0.1327 -0.2834  0.5356
   55ETHOX  H11  382  17.346  16.410  12.625 -0.5668 -0.2011  0.5861
   55ETHOX  H13  383  17.283  16.512  12.769  0.4704  0.6923  0.9235
   55ETHOX   C2  384  17.394  16.610  12.622 -0.2379  0.3479 -0.6502
   55ETHOX  H21  385  17.480  16.589  12.556 -0.9349 -2.0101 -0.9263
   55ETHOX  H23  386  17.304  16.614  12.557 -2.1115 -0.9121  1.6621
   56ETHOX   O1  387  17.398  16.723  12.707 -0.5775 -0.4485 -0.3742
   56ETHOX   C1  388  17.369  16.848  12.646  0.0736 -0.6069 -0.1749
   56ETHOX  H11  389  17.259  16.858  12.641  0.2388  0.8519 -2.3288
   56ETHOX  H13  390  17.400  16.852  12.539 -0.9153 -0.9879 -0.4819
   56ETHOX   C2  391  17.437  16.953  12.729  0.2149  0.4508 -0.4299
   56ETHOX  H21  392  17.424  17.048  12.672 -1.2936  1.1797  1.0479
   56ETHOX  H23  393  17.543  16.922  12.746 -0.4707 -1.8457  0.0142
   57ETHOX   O1  394  17.365  16.976  12.849  0.4411  0.3253  0.0236
   57ETHOX   C1  395  17.427  17.072  12.936 -0.5542 -0.8476  0.4373
   57ETHOX  H11  396  17.384  17.051  13.036 -2.6304 -0.7528 -0.3865
   57ETHOX  H13  397  17.537  17.060  12.945 -0.0444  1.7027 -1.0977
   57ETHOX   C2  398  17.408  17.225  12.901  0.1277 -0.0965  0.1355
   57ETHOX  H21  399  17.489  17.264  12.836  1.0108  2.2127  2.4421
   57ETHOX  H23  400  17.438  17.278  12.994  1.0493  0.6167 -0.5492
   58ETHOX   O1  401  17.278  17.252  12.852  0.4816 -0.0424 -0.2659
   58ETHOX   C1  402  17.267  17.377  12.782 -0.0892 -0.4771 -0.0433
   58ETHOX  H11  403  17.345  17.380  12.703 -0.8696 -0.0979 -0.8147
   58ETHOX  H13  404  17.311  17.448  12.855  2.9743 -1.3034 -0.9385
   58ETHOX   C2  405  17.134  17.413  12.717 -0.4800 -0.4032  0.3765
   58ETHOX  H21  406  17.080  17.336  12.658 -1.1422  1.0643 -1.0230
   58ETHOX  H23  407  17.154  17.502  12.653  1.6718 -0.5032  0.8542
   59ETHOX   O1  408  17.033  17.467  12.802  0.9677 -0.4521 -0.1946
   59ETHOX   C1  409  17.081  17.571  12.889 -0.5941 -0.4995 -0.2009
   59ETHOX  H11  410  17.154  17.525  12.959 -0.9217  0.2920  0.6989
   59ETHOX  H13  411  17.136  17.642  12.823  0.5326 -0.4510  0.7451
   59ETHOX   C2  412  16.969  17.641  12.979 -0.5987  0.1219  0.3178
   59ETHOX  H21  413  16.886  17.664  12.909  0.4284  1.2634 -0.5844
   59ETHOX  H23  414  17.007  17.739  13.016 -0.2620 -0.4150  1.4472
   60ETHOX   O1  415  16.938  17.551  13.088  0.7306  0.3806  0.2889
   60ETHOX   C1  416  16.827  17.587  13.165 -0.3402  0.5498  0.1261
   60ETHOX  H11  417  16.734  17.603  13.107 -0.6225  1.2997  0.7698
   60ETHOX  H13  418  16.858  17.684  13.210  3.6671  0.0371 -1.1489
   60ETHOX   C2  419  16.807  17.479  13.280 -0.5281 -0.3251  0.0996
   60ETHOX  H21  420  16.724  17.522  13.340 -0.8397 -2.0991  1.0138
   60ETHOX  H23  421  16.904  17.461  13.331 -0.0632 -0.8243 -0.9340
   61ETHOX   O1  422  16.758  17.357  13.223  0.5464 -0.3681 -0.0865
   61ETHOX   C1  423  16.732  17.262  13.323 -0.4102 -0.3571  0.4533
   61ETHOX  H11  424  16.813  17.186  13.324 -0.3643 -0.3337 -0.4872
   61ETHOX  H13  425  16.740  17.314  13.421 -2.4790  2.0231 -0.5579
   61ETHOX   C2  426  16.604  17.181  13.318 -0.0701  0.3574 -0.0216
   61ETHOX  H21  427  16.595  17.121  13.411 -2.7700 -1.8402 -1.5379
   61ETHOX  H23  428  16.618  17.105  13.238  0.0851  0.4626 -0.0958
   62ETHOX   O1  429  16.484  17.256  13.311 -0.3375  0.3315  0.2265
   62ETHOX   C1  430  16.378  17.168  13.302 -0.5822 -0.2560 -0.7693
   62ETHOX  H11  431  16.367  17.115  13.399  0.6690  0.0743 -0.4208
   62ETHOX  H13  432  16.391  17.093  13.221  1.5173  1.1359 -1.8187
   62ETHOX   C2  433  16.246  17.238  13.257  0.2993 -0.0716 -0.2770
   62ETHOX  H21  434  16.182  17.150  13.232  1.4918 -0.6776 -1.3516
   62ETHOX  H23  435  16.258  17.296  13.163 -0.8664 -0.3607 -0.6207
   63ETHOX   O1  436  16.188  17.321  13.357  0.4019 -0.0719  0.4042
   63ETHOX   C1  437  16.112  17.239  13.451 -0.2108  0.0321 -0.3157
   63ETHOX  H11  438  16.026  17.197  13.394  1.8788 -4.3543 -0.6225
   63ETHOX  H13  439  16.168  17.146  13.475 -2.6419 -0.9423  2.1485
   63ETHOX   C2  440  16.069  17.317  13.573  0.0319 -0.3221  0.4619
   63ETHOX  H21  441  16.006  17.253  13.638  0.5798 -1.4042 -0.0582
   63ETHOX  H23  442  16.029  17.417  13.546 -0.1653  0.3784  3.0081
   64ETHOX   O1  443  16.188  17.344  13.653  0.0656  0.2670 -0.1103
   64ETHOX   C1  444  16.161  17.431  13.762  0.0863  0.3308  0.0730
   64ETHOX  H11  445  16.092  17.373  13.828 -0.2454 -0.0627 -0.6058
   64ETHOX  H13  446  16.115  17.526  13.730  0.3047 -0.1415 -1.7638
   64ETHOX   C2  447  16.293  17.468  13.836 -0.3863 -0.1341 -0.4231
   64ETHOX  H21  448  16.363  17.384  13.855  0.9953  1.1636  0.4806
   64ETHOX  H23  449  16.258  17.510  13.932 -0.6473 -1.9398  0.3000
   65ETHOX   O1  450  16.363  17.569  13.764 -0.0723  0.0760  0.1422
   65ETHOX   C1  451  16.475  17.614  13.838 -0.3366 -0.7915 -0.0511
   65ETHOX  H11  452  16.444  17.618  13.945  0.0025  2.2592  0.0410
   65ETHOX  H13  453  16.563  17.546  13.833 -0.3251 -0.7028 -1.8242
   65ETHOX   C2  454  16.525  17.757  13.809 -0.3971 -0.0971 -0.1516
   65ETHOX  H21  455  16.548  17.773  13.702  0.5417 -1.6465 -0.2089
   65ETHOX  H23  456  16.618  17.768  13.869  0.3457  0.4891 -1.3757
   66ETHOX   O1  457  16.422  17.850  13.853  0.0374  0.4530  0.2815
   66ETHOX   C1  458  16.483  17.981  13.877  0.0474 -0.2725  0.2679
   66ETHOX  H11  459  16.523  18.029  13.785 -4.7576  2.2268 -0.8598
   66ETHOX  H13  460  16.563  17.973  13.954 -1.6003 -0.4603  2.0257
   66ETHOX   C2  461  16.384  18.085  13.936  0.2085 -0.0982  0.0934
   66ETHOX  H21  462  16.450  18.156  13.990 -0.2170 -0.7419  1.4981
   66ETHOX  H23  463  16.317  18.043  14.014  1.2257  1.0777  1.6639
   67ETHOX   O1  464  16.320  18.162  13.842 -0.6593  0.2947 -0.6091
   67ETHOX   C1  465  16.254  18.277  13.899  0.2891  0.3163  0.5707
   67ETHOX  H11  466  16.203  18.250  13.994 -0.7708  0.3721  0.0376
   67ETHOX  H13  467  16.329  18.353  13.929  0.4919 -0.2731  1.5885
   67ETHOX   C2  468  16.157  18.332  13.798  0.3000  0.7047  0.1239
   67ETHOX  H21  469  16.210  18.307  13.704  0.5935 -2.3394  0.9777
   67ETHOX  H23  470  16.152  18.440  13.824 -0.4408  0.5456  0.6743
   68ETHOX   O1  471  16.028  18.270  13.785 -0.4158 -0.2531  0.1812
   68ETHOX   C1  472  15.926  18.361  13.738  1.0592 -0.0794 -0.6285
   68ETHOX  H11  473  15.831  18.313  13.770  1.8979 -1.9462 -0.8263
   68ETHOX  H13  474  15.936  18.463  13.781 -0.5319  0.4646 -1.4811
   68ETHOX   C2  475  15.939  18.378  13.589 -0.4780 -0.3378 -0.4682
   68ETHOX  H21  476  16.039  18.421  13.566 -0.4890  0.0528  0.2076
   68ETHOX  H23  477  15.852  18.436  13.551 -0.4188 -1.6981 -2.9165
   69ETHOX   O1  478  15.923  18.252  13.521  0.1213  0.3332  0.0823
   69ETHOX   C1  479  15.973  18.263  13.392 -0.1391  0.4442  0.3976
   69ETHOX  H11  480  15.949  18.366  13.356  0.3801  0.4483  0.0625
   69ETHOX  H13  481  16.081  18.240  13.404 -0.6929 -2.7498  0.0706
   69ETHOX   C2  482  15.916  18.167  13.291  0.0678  0.1832 -0.0449
   69ETHOX  H21  483  15.911  18.067  13.339  0.4541 -0.1974 -0.7773
   69ETHOX  H23  484  15.982  18.166  13.201  0.3114  2.6389  0.0381
   70ETHOX   O1  485  15.781  18.194  13.242  0.3008  0.5900 -0.1619
   70ETHOX   C1  486  15.729  18.095  13.157  0.0213  0.4057  0.1385
   70ETHOX  H11  487  15.787  18.087  13.062 -0.2146  3.4919 -0.3903
   70ETHOX  H13  488  15.730  17.992  13.198 -1.3772 -0.2463 -1.3450
   70ETHOX   C2  489  15.584  18.125  13.113 -0.4386  0.2655  0.2989
   70ETHOX  H21  490  15.523  18.133  13.205 -2.4667 -1.2266 -0.8336
   70ETHOX  H23  491  15.551  18.045  13.043 -1.3210 -0.0953  1.1132
   71ETHOX   O1  492  15.581  18.248  13.044 -0.1274 -0.5312 -0.1270
   71ETHOX   C1  493  15.461  18.271  12.968  0.1889 -0.2912 -0.0834
   71ETHOX  H11  494  15.369  18.263  13.031 -0.2801 -0.9534 -0.8246
   71ETHOX  H13  495  15.456  18.194  12.888  0.0710  2.0732 -2.5161
   71ETHOX   C2  496  15.442  18.412  12.906 -0.5386  0.2930  0.0213
   71ETHOX  H21  497  15.343  18.408  12.855 -1.2984  1.4688  1.3324
   71ETHOX  H23  498  15.520  18.412  12.827 -1.0896 -2.7138 -0.6503
   72ETHOX   O1  499  15.440  18.516  13.004 -0.0775 -0.1453 -0.2085
   72ETHOX   C1  500  15.460  18.644  12.951  0.1333 -0.3336 -0.9972
   72ETHOX  H11  501  15.557  18.640  12.897 -0.5585 -1.9408 -2.1843
   72ETHOX  H13  502  15.381  18.668  12.877  1.5189 -0.2949 -2.5157
   72ETHOX   C2  503  15.472  18.760  13.054  0.8728  0.1718  0.3616
   72ETHOX  H21  504  15.503  18.856  13.007 -2.6289  0.6053 -1.4451
   72ETHOX  H23  505  15.550  18.737  13.130 -0.6739 -2.9118  1.1843
   73ETHOX   O1  506  15.342  18.771  13.116  0.0455 -0.0488 -0.1435
   73ETHOX   C1  507  15.348  18.865  13.217 -0.6867 -0.3903 -0.6589
   73ETHOX  H11  508  15.353  18.969  13.178 -0.7210  0.2074  0.8707
   73ETHOX  H13  509  15.439  18.850  13.279 -0.2585 -2.6292 -1.7276
   73ETHOX   C2  510  15.232  18.843  13.322 -0.3304  0.2504 -0.1330
   73ETHOX  H21  511  15.244  18.911  13.409 -1.0113  0.6776 -0.3605
   73ETHOX  H23  512  15.248  18.739  13.357  2.1769  1.0255  1.2677
   74ETHOX   O1  513  15.109  18.863  13.262  0.3119 -0.2116  0.6057
   74ETHOX   C1  514  15.000  18.816  13.337 -0.7061  0.8228 -0.4648
   74ETHOX  H11  515  15.037  18.719  13.376 -0.0396  0.6050 -1.5778
   74ETHOX  H13  516  14.986  18.884  13.424  1.8918  1.7079 -0.6418
   74ETHOX   C2  517  14.869  18.796  13.261  0.3852  0.7164 -0.1595
   74ETHOX  H21  518  14.846  18.887  13.201 -0.5371  1.4956  1.3240
   74ETHOX  H23  519  14.788  18.784  13.336  0.5835  2.1869  0.3320
   75ETHOX   O1  520  14.861  18.680  13.177 -0.7109 -0.1698 -0.5470
   75ETHOX   C1  521  14.743  18.671  13.098 -0.5007  0.0500  0.0457
   75ETHOX  H11  522  14.742  18.759  13.030  0.2104 -0.8506 -1.1682
   75ETHOX  H13  523  14.657  18.658  13.168  0.9815 -2.1524  1.6082
   75ETHOX   C2  524  14.742  18.542  13.015 -0.4999  0.0098  0.1770
   75ETHOX  H21  525  14.848  18.528  12.984 -0.0763 -0.2715  1.6291
   75ETHOX  H23  526  14.684  18.574  12.926  0.1781 -1.0121 -0.6513
   76ETHOX   O1  527  14.687  18.427  13.076  0.2780  0.1834 -0.4301
   76ETHOX   C1  528  14.786  18.336  13.116 -0.5064 -0.3814 -0.4120
   76ETHOX  H11  529  14.876  18.393  13.146 -0.6109 -1.1190  1.4933
   76ETHOX  H13  530  14.756  18.278  13.206  0.6435 -0.1725  0.1175
   76ETHOX   C2  531  14.812  18.224  13.009  0.0097  0.1450 -0.1748
   76ETHOX  H21  532  14.903  18.163  13.026 -0.8102 -1.9162 -2.6074
   76ETHOX  H23  533  14.813  18.258  12.904 -2.7332 -2.5380 -1.2241
   77ETHOX   O1  534  14.711  18.123  13.013 -0.5386  0.2424 -0.2259
   77ETHOX   C1  535  14.742  18.015  12.931 -0.2675  0.3529  0.0198
   77ETHOX  H11  536  14.837  17.968  12.965  1.2306  1.4177 -2.4251
   77ETHOX  H13  537  14.765  18.058  12.831  0.5186 -0.8492 -0.3371
   77ETHOX   C2  538  14.625  17.925  12.907  0.0533  0.7401  0.4252
   77ETHOX  H21  539  14.633  17.878  12.807 -1.6741  0.4886  0.3704
   77ETHOX  H23  540  14.535  17.990  12.902  0.1878  0.8640 -2.9407
   78ETHOX   O1  541  14.602  17.833  13.013  0.3454  0.3491 -0.2855
   78ETHOX   C1  542  14.477  17.773  13.011 -0.3763 -0.0590 -1.0172
   78ETHOX  H11  543  14.472  17.694  13.089  0.3538  0.6683 -0.2143
   78ETHOX  H13  544  14.413  17.856  13.047  0.1015  0.6770 -1.8283
   78ETHOX   C2  545  14.425  17.699  12.884  0.3639 -0.0168  0.8505
   78ETHOX  H21  546  14.425  17.772  12.800  1.9335 -0.9333 -0.0043
   78ETHOX  H23  547  14.329  17.644  12.893  0.6701 -0.7534 -0.1161
   79ETHOX   O1  548  14.520  17.600  12.856 -0.2804 -0.6816 -0.3714
   79ETHOX   C1  549  14.471  17.511  12.756  0.0973  0.1232  0.3620
   79ETHOX  H11  550  14.547  17.431  12.745 -0.9228 -1.0911  1.6473
   79ETHOX  H13  551  14.382  17.458  12.797  0.2284 -0.9374 -0.6739
   79ETHOX   C2  552  14.445  17.564  12.614  0.5379  0.0425 -0.2284
   79ETHOX  H21  553  14.435  17.472  12.553  2.0410 -0.7387  0.6442
   79ETHOX  H23  554  14.532  17.624  12.578  0.2632  0.4413 -0.2360
   80ETHOX   O1  555  14.323  17.634  12.605  0.2859 -0.0224  0.2551
   80ETHOX   C1  556  14.321  17.748  12.515 -0.9960 -0.2305  0.1765
   80ETHOX  H11  557  14.398  17.811  12.565  1.0634 -0.3866 -2.6014
   80ETHOX  H13  558  14.355  17.713  12.416 -0.8004 -2.3947  0.9558
   80ETHOX   C2  559  14.187  17.811  12.496  0.6421  0.7853 -0.4170
   80ETHOX  H21  560  14.191  17.908  12.442 -0.8645  0.5212 -1.0469
   80ETHOX  H23  561  14.157  17.841  12.598  1.4549  1.8936 -0.4762
   81ETHOX   O1  562  14.102  17.727  12.423  0.1507 -0.1762  0.2585
   81ETHOX   C1  563  13.970  17.762  12.463 -0.0450  0.3758 -0.3804
   81ETHOX  H11  564  13.960  17.733  12.569  0.5942  0.3875 -0.3136
   81ETHOX  H13  565  13.955  17.872  12.460 -2.3320  0.1259 -0.7731
   81ETHOX   C2  566  13.868  17.695  12.377 -0.3906 -0.6476  0.2931
   81ETHOX  H21  567  13.765  17.728  12.404  0.2223  1.0669  0.5961
   81ETHOX  H23  568  13.882  17.706  12.267 -0.9542 -2.9160 -0.0704
   82ETHOX   O1  569  13.882  17.557  12.397 -0.4827 -0.2228 -0.8483
   82ETHOX   C1  570  13.782  17.480  12.333  0.2664 -0.7208 -0.3163
   82ETHOX  H11  571  13.825  17.442  12.238 -0.4917 -0.2847 -0.8496
   82ETHOX  H13  572  13.698  17.549  12.306  1.1339  0.2529 -0.5897
   82ETHOX   C2  573  13.725  17.365  12.411 -0.4621  0.3315  0.0955
   82ETHOX  H21  574  13.627  17.329  12.374  0.3992 -0.6465 -1.3265
   82ETHOX  H23  575  13.716  17.400  12.516 -2.6017  1.3732 -0.3853
   83ETHOX   O1  576  13.813  17.255  12.404 -0.1688  0.2879 -0.3864
   83ETHOX   C1  577  13.775  17.145  12.475 -0.7864  1.5621  0.1900
   83ETHOX  H11  578  13.757  17.163  12.583 -1.1248  0.4966  0.3236
   83ETHOX  H13  579  13.681  17.105  12.430  0.5703 -2.2364  0.4092
   83ETHOX   C2  580  13.878  17.024  12.472 -0.4195 -0.2537 -0.2190
   83ETHOX  H21  581  13.852  16.939  12.539  1.5526 -1.4626 -0.8952
   83ETHOX  H23  582  13.968  17.073  12.515  1.2562 -1.8550 -1.7355
   84ETHOX   O1  583  13.912  16.990  12.339  0.0319  0.2764 -0.5240
   84ETHOX   C1  584  13.963  16.858  12.330 -1.1034  0.8613 -0.3086
   84ETHOX  H11  585  13.897  16.782  12.377  0.0664  0.8181  1.3243
   84ETHOX  H13  586  14.056  16.845  12.388 -0.3608  0.5891 -1.5185
   84ETHOX   C2  587  13.996  16.827  12.183  0.3789 -0.1423  0.9917
   84ETHOX  H21  588  14.080  16.755  12.174 -0.9589 -2.0673  2.8102
   84ETHOX  H23  589  14.034  16.921  12.139  0.6466 -0.5601  0.3023
   85ETHOX   O1  590  13.877  16.795  12.113  0.0123 -0.1448 -0.6060
   85ETHOX   C1  591  13.906  16.758  11.979  0.5042 -0.3614  0.2822
   85ETHOX  H11  592  13.992  16.819  11.943  0.5299 -0.3384  0.3826
   85ETHOX  H13  593  13.936  16.652  11.991  2.6055  0.3343  1.8940
   85ETHOX   C2  594  13.781  16.767  11.888 -0.8312  0.2668 -0.3848
   85ETHOX  H21  595  13.692  16.748  11.951  0.1060 -1.5743  0.4804
   85ETHOX  H23  596  13.781  16.690  11.807 -2.9109  0.2707 -0.4462
   86ETHOX   O1  597  13.773  16.898  11.831  0.0470  0.4627 -0.3574
   86ETHOX   C1  598  13.688  16.914  11.716  0.0402  0.1011 -0.7908
   86ETHOX  H11  599  13.702  16.827  11.649 -1.5045 -1.5382  0.9084
   86ETHOX  H13  600  13.721  16.991  11.642 -0.9273 -0.5511 -1.9465
   86ETHOX   C2  601  13.536  16.919  11.752  0.6037  0.3556  0.4791
   86ETHOX  H21  602  13.485  16.955  11.660  0.4430 -1.0667 -0.0245
   86ETHOX  H23  603  13.524  16.991  11.835 -2.3335 -1.5084  1.8608
   87ETHOX   O1  604  13.486  16.790  11.800  0.4797  0.3427  0.0878
   87ETHOX   C1  605  13.461  16.704  11.691 -0.2002  0.0991  0.2183
   87ETHOX  H11  606  13.529  16.716  11.604 -1.5886 -1.4693 -1.1676
   87ETHOX  H13  607  13.480  16.596  11.711 -2.6661 -0.5423 -0.5390
   87ETHOX   C2  608  13.308  16.715  11.638 -0.3432  0.2719  0.2216
   87ETHOX  H21  609  13.239  16.751  11.717 -1.0819 -1.2187  0.2943
   87ETHOX  H23  610  13.280  16.613  11.603  1.6396  0.2409 -1.5076
   88ETHOX   O1  611  13.304  16.806  11.528 -0.0511 -0.7531 -0.7905
   88ETHOX   C1  612  13.175  16.814  11.467  0.6140 -0.3834 -0.1389
   88ETHOX  H11  613  13.093  16.824  11.541  0.4506  0.9031 -0.4754
   88ETHOX  H13  614  13.168  16.711  11.425 -3.9848 -0.6949  0.8246
   88ETHOX   C2  615  13.143  16.918  11.348  0.0367  0.0796 -0.2541
   88ETHOX  H21  616  13.152  17.020  11.390  0.8421  0.2475 -0.8228
   88ETHOX  H23  617  13.037  16.892  11.326 -0.2464 -0.0520  1.1609
   89ETHOX   O1  618  13.224  16.893  11.236 -0.0594 -0.6715 -0.1689
   89ETHOX   C1  619  13.199  16.981  11.129  0.5494  0.8729 -0.3416
   89ETHOX  H11  620  13.097  17.025  11.136  0.5884  0.8445  0.6941
   89ETHOX  H13  621  13.251  17.079  11.131 -0.2412  1.3600 -2.3002
   89ETHOX   C2  622  13.225  16.918  10.994  0.7997  0.3009  0.2547
   89ETHOX  H21  623  13.316  16.856  11.003 -0.2866 -1.1808  1.6695
   89ETHOX  H23  624  13.234  16.999  10.919 -0.2091 -0.2196 -0.4537
   90ETHOX   O1  625  13.128  16.821  10.967  0.3146 -0.0008 -0.0087
   90ETHOX   C1  626  13.164  16.748  10.849 -0.1354  0.3659 -0.5208
   90ETHOX  H11  627  13.174  16.825  10.770 -0.3277 -0.6913 -1.5872
   90ETHOX  H13  628  13.262  16.696  10.858 -0.7234 -0.5827  0.6747
   90ETHOX   C2  629  13.065  16.636  10.832 -0.2838  0.0297  0.6679
   90ETHOX  H21  630  13.051  16.581  10.927  0.3857  0.6876  1.1547
   90ETHOX  H23  631  13.094  16.573  10.745  0.2676 -2.1376  2.3362
   91ETHOX   O1  632  12.944  16.701  10.804 -0.7644 -0.8608 -0.3066
   91ETHOX   C1  633  12.842  16.609  10.769 -0.2103  0.5333 -0.0646
   91ETHOX  H11  634  12.878  16.546  10.685 -2.3789 -1.4558  0.3708
   91ETHOX  H13  635  12.816  16.540  10.853  0.5754 -1.0844 -1.1146
   91ETHOX   C2  636  12.721  16.690  10.723 -1.0604  0.0712 -0.1893
   91ETHOX  H21  637  12.638  16.620  10.700 -0.8858 -0.9493  2.0300
   91ETHOX  H23  638  12.740  16.753  10.633 -1.1123 -0.5105 -0.6148
   92ETHOX   O1  639  12.688  16.782  10.827 -0.2012  0.8586 -0.2773
   92ETHOX   C1  640  12.565  16.854  10.805  0.1322  1.0617 -0.1121
   92ETHOX  H11  641  12.503  16.813  10.723 -0.6087  0.3443  0.7791
   92ETHOX  H13  642  12.509  16.840  10.900  0.4534  1.7547  0.1818
   92ETHOX   C2  643  12.589  17.006  10.783  0.4691 -0.2901  0.2359
   92ETHOX  H21  644  12.664  17.039  10.858  1.6539 -1.9596 -0.1750
   92ETHOX  H23  645  12.501  17.066  10.815  2.9389  3.7453  0.1869
   93ETHOX   O1  646  12.631  17.044  10.650 -0.2567 -0.3648  0.4752
   93ETHOX   C1  647  12.663  17.183  10.648  0.6959 -0.3867  0.0482
   93ETHOX  H11  648  12.748  17.202  10.717 -0.4096  0.6650  1.1665
   93ETHOX  H13  649  12.584  17.247  10.693  0.1286 -1.4804  0.6568
   93ETHOX   C2  650  12.680  17.240  10.507 -0.7769  0.0847  0.2566
   93ETHOX  H21  651  12.670  17.349  10.526 -2.3707 -0.3699  2.4702
   93ETHOX  H23  652  12.589  17.214  10.448 -1.1670  1.0095  0.4327
   94ETHOX   O1  653  12.801  17.203  10.443  0.1538 -0.2990  0.2268
   94ETHOX   C1  654  12.828  17.294  10.335 -1.0136  0.6800 -0.0854
   94ETHOX  H11  655  12.794  17.399  10.350  0.2585  1.0540  0.2880
   94ETHOX  H13  656  12.937  17.302  10.313  0.1122 -0.9551  4.0660
   94ETHOX   C2  657  12.762  17.235  10.207 -0.8630  0.4929  0.2040
   94ETHOX  H21  658  12.788  17.298  10.120 -1.3500 -0.3077 -0.5375
   94ETHOX  H23  659  12.652  17.222  10.214 -0.6308 -0.7278  2.6199
   95ETHOX   O1  660  12.830  17.108  10.187 -0.5620 -0.4884  0.0691
   95ETHOX   C1  661  12.761  17.033  10.087 -0.5301  0.4295  0.2051
   95ETHOX  H11  662  12.754  17.098   9.997  3.1422  2.0268  0.8691
   95ETHOX  H13  663  12.660  16.999  10.118 -0.8611  0.8234 -0.4088
   95ETHOX   C2  664  12.852  16.915  10.044 -0.1501  0.1171  0.4799
   95ETHOX  H21  665  12.960  16.937  10.036 -0.2494  0.2587 -0.5785
   95ETHOX  H23  666  12.825  16.884   9.941 -0.3534  0.3025  0.4753
   96ETHOX   O1  667  12.834  16.809  10.137 -0.5119 -0.0168 -0.4810
   96ETHOX   C1  668  12.895  16.683  10.093  0.3400 -1.1413  0.0374
   96ETHOX  H11  669  12.841  16.640  10.006  0.1509 -0.9401  0.0552
   96ETHOX  H13  670  12.999  16.690  10.056  0.2071 -0.4043 -0.2212
   96ETHOX   C2  671  12.869  16.573  10.198 -0.2131  0.1230  0.0119
   96ETHOX  H21  672  12.758  16.567  10.208 -0.0644 -1.5535  1.0513
   96ETHOX  H23  673  12.916  16.601  10.295  1.2667 -1.1822 -0.2923
   97ETHOX   O1  674  12.911  16.448  10.157  0.3351 -1.1441 -0.1235
   97ETHOX   C1  675  12.975  16.381  10.270 -0.0619  0.1789 -0.0714
   97ETHOX  H11  676  12.892  16.354  10.338 -1.2358  0.1937 -1.4415
   97ETHOX  H13  677  13.057  16.435  10.322 -0.6329  0.5403  0.4631
   97ETHOX   C2  678  13.034  16.238  10.224  0.5269  1.1116 -0.3493
   97ETHOX  H21  679  12.954  16.176  10.177  0.8607  0.8767 -0.6195
   97ETHOX  H23  680  13.068  16.185  10.316  1.5779  1.0228 -0.7763
   98ETHOX   O1  681  13.138  16.255  10.135  0.5528  0.4790  0.2667
   98ETHOX   C1  682  13.208  16.134  10.111 -0.2513 -0.4439  1.1177
   98ETHOX  H11  683  13.156  16.046  10.155 -1.9484 -0.9724 -1.6745
   98ETHOX  H13  684  13.213  16.115  10.002  1.2620 -1.9110  1.4008
   98ETHOX   C2  685  13.352  16.132  10.168  0.0296 -0.4129  0.5373
   98ETHOX  H21  686  13.398  16.218  10.116 -0.7043 -1.2502 -1.5974
   98ETHOX  H23  687  13.419  16.047  10.141 -0.4596 -0.2348 -1.3349
   99ETHOX   O1  688  13.374  16.152  10.310  0.3766  0.1772  0.9961
   99ETHOX   C1  689  13.509  16.129  10.343 -0.0207 -0.0672  0.6095
   99ETHOX  H11  690  13.530  16.020  10.333  0.5816  0.1247 -0.3095
   99ETHOX  H13  691  13.509  16.168  10.447 -1.6232  0.1860  0.5292
   99ETHOX   C2  692  13.623  16.207  10.277  0.2133 -0.3084 -0.6544
   99ETHOX  H21  693  13.586  16.311  10.282  2.5893  0.5504  1.6878
   99ETHOX  H23  694  13.629  16.168  10.173  3.6429 -0.3896 -0.5452
  100ETHOX   O1  695  13.750  16.200  10.350  0.0995 -0.5262  0.2900
  100ETHOX   C1  696  13.835  16.304  10.302  0.1802  0.0857 -0.1040
  100ETHOX  H11  697  13.871  16.298  10.197 -0.6000 -0.6366 -0.3317
  100ETHOX  H13  698  13.788  16.403  10.320 -0.0795  0.0453 -0.5709
  100ETHOX   C2  699  13.964  16.307  10.390 -0.4156  0.2993 -0.6381
  100ETHOX  H21  700  14.038  16.378  10.346  0.2630 -0.8280 -1.3747
  100ETHOX  H23  701  14.013  16.208  10.380 -1.7088 -0.2930 -1.2509
  101PROXS   O1  702  13.938  16.329  10.533 -0.8131  0.1603 -0.7020
  101PROXS   C1  703  14.063  16.323  10.610  0.5898  0.3366  0.3747
  101PROXS  H11  704  14.134  16.254  10.559 -1.2862 -0.0369 -1.8508
  101PROXS  H13  705  14.110  16.423  10.604 -0.8885  1.0572  0.4694
  101PROXS   C2  706  14.040  16.289  10.761  0.0960  0.1448  0.2884
  101PROXS  H21  707  13.959  16.350  10.807  0.5669  0.4764  0.6894
  101PROXS   C3  708  14.176  16.320  10.831 -0.2369  0.3975  0.3523
  101PROXS  H31  709  14.252  16.256  10.782 -1.5763 -0.9901  0.0025
  101PROXS  H32  710  14.212  16.424  10.817 -0.5154  0.5556  0.7953
  101PROXS  H33  711  14.171  16.305  10.941 -0.2506  1.1487  0.4592
  102PROXS   O1  712  14.017  16.149  10.768  0.4907 -0.3883  0.3482
  102PROXS   C1  713  13.890  16.112  10.721 -0.2736 -0.4126 -0.5623
  102PROXS  H11  714  13.818  16.196  10.727 -0.6496 -0.8301  1.5535
  102PROXS  H13  715  13.900  16.087  10.613  1.9503  1.2168 -0.8116
  102PROXS   C2  716  13.832  15.997  10.799  0.3748  0.6451  0.0397
  102PROXS  H21  717  13.784  16.033  10.892 -0.6505  1.8440 -0.9206
  102PROXS   C3  718  13.939  15.889  10.838 -0.5999  0.5813 -0.1306
  102PROXS  H31  719  14.022  15.939  10.891 -1.0897  0.8031  0.4355
  102PROXS  H32  720  13.898  15.805  10.899  1.7264 -0.6910 -0.1874
  102PROXS  H33  721  13.981  15.843  10.746 -1.5131  0.0021 -0.2767
  103PROXR   O1  722  13.725  15.937  10.729  0.6707 -0.0553 -0.3544
  103PROXR   C1  723  13.595  15.997  10.754 -0.3677  0.0201  0.3164
  103PROXR  H11  724  13.587  16.027  10.860 -1.2059 -1.2896  0.6489
  103PROXR  H13  725  13.588  16.090  10.694  1.5504 -0.1855 -0.2781
  103PROXR   C2  726  13.477  15.900  10.722  0.4719  0.2394  0.2959
  103PROXR  H21  727  13.494  15.847  10.626  0.7312  0.6523  0.1073
  103PROXR   C3  728  13.341  15.976  10.701 -0.0777  0.1485  0.3384
  103PROXR  H31  729  13.272  15.906  10.648  1.6877 -0.9156 -0.6786
  103PROXR  H32  730  13.300  15.994  10.802 -1.7703  1.6325 -0.5462
  103PROXR  H33  731  13.366  16.070  10.648 -0.4173 -0.4598 -0.9550
  104PROXS   O1  732  13.464  15.807  10.831  0.4401 -0.0216 -0.0198
  104PROXS   C1  733  13.573  15.720  10.843 -0.2575 -0.2304  0.1452
  104PROXS  H11  734  13.593  15.699  10.736 -1.1484  3.3161 -0.8436
  104PROXS  H13  735  13.660  15.762  10.897  0.6882 -1.2023 -0.5812
  104PROXS   C2  736  13.535  15.590  10.915  0.3939  0.4306 -0.0361
  104PROXS  H21  737  13.458  15.538  10.854 -1.3715  2.4564  0.3174
  104PROXS   C3  738  13.482  15.608  11.056 -0.0721  0.0619 -0.0848
  104PROXS  H31  739  13.430  15.705  11.068  1.8649  0.9909  1.4689
  104PROXS  H32  740  13.410  15.530  11.089 -0.7240 -0.3380 -2.3120
  104PROXS  H33  741  13.567  15.608  11.129 -0.6495  0.3657  0.6026
  105PROXS   O1  742  13.655  15.511  10.922  0.2018  0.8850  0.1087
  105PROXS   C1  743  13.628  15.371  10.909  0.4753  0.2093  0.4463
  105PROXS  H11  744  13.549  15.332  10.977  0.9048  1.4008  1.6705
  105PROXS  H13  745  13.596  15.349  10.805 -0.2508  1.8413  0.2912
  105PROXS   C2  746  13.758  15.289  10.929  0.2269  0.5520  0.3872
  105PROXS  H21  747  13.790  15.283  11.035 -0.6121 -3.0199  0.5529
  105PROXS   C3  748  13.878  15.346  10.858 -0.2940  0.4666 -0.4692
  105PROXS  H31  749  13.960  15.271  10.868 -0.8025 -0.0024  0.2636
  105PROXS  H32  750  13.859  15.366  10.750 -0.9126  0.0557 -0.4381
  105PROXS  H33  751  13.917  15.440  10.903 -0.0753  0.3081 -0.3282
  106PROXS   O1  752  13.747  15.155  10.882  0.0010 -0.3261 -0.0144
  106PROXS   C1  753  13.650  15.073  10.950 -0.1277  0.1514 -0.0797
  106PROXS  H11  754  13.627  15.110  11.052 -0.2927  0.5106 -0.2453
  106PROXS  H13  755  13.556  15.063  10.892  0.8603  1.7457 -2.0892
  106PROXS   C2  756  13.717  14.934  10.955 -0.2423  0.2474 -0.2214
  106PROXS  H21  757  13.815  14.949  11.005  0.3627  1.3920 -1.6731
  106PROXS   C3  758  13.746  14.886  10.809 -0.1258  0.0336 -0.8195
  106PROXS  H31  759  13.657  14.908  10.747  0.7337 -0.0377 -2.1185
  106PROXS  H32  760  13.822  14.950  10.759  0.4987  0.6032  0.7871
  106PROXS  H33  761  13.791  14.785  10.800 -0.9154 -0.4474  0.3673
  107PROXR   O1  762  13.640  14.835  11.022  0.1350  0.2726 -0.1552
  107PROXR   C1  763  13.705  14.714  11.053 -0.6721  0.3126  0.6004
  107PROXR  H11  764  13.689  14.628  10.984 -1.5677 -0.2514  1.4837
  107PROXR  H13  765  13.816  14.722  11.046 -0.6133 -1.6055 -2.2922
  107PROXR   C2  766  13.659  14.665  11.189  0.2780  0.4777 -0.6419
  107PROXR  H21  767  13.549  14.670  11.197  0.1785 -2.2544  0.7589
  107PROXR   C3  768  13.719  14.745  11.296  0.7000 -0.1832 -0.0177
  107PROXR  H31  769  13.660  14.838  11.309  2.8367  1.3346 -0.6436
  107PROXR  H32  770  13.727  14.681  11.387 -2.3354 -0.9522 -0.1833
  107PROXR  H33  771  13.822  14.772  11.264  2.1909 -2.7244  2.2442
  108PROXS   O1  772  13.717  14.537  11.218  0.5900 -0.1076  0.0712
  108PROXS   C1  773  13.610  14.443  11.245 -0.0077  0.5387  0.5040
  108PROXS  H11  774  13.572  14.465  11.347  1.4983  4.7767  0.3373
  108PROXS  H13  775  13.529  14.459  11.170 -0.5459  1.1484  1.1998
  108PROXS   C2  776  13.669  14.298  11.247 -0.0139  0.3644 -0.5582
  108PROXS  H21  777  13.748  14.278  11.322 -0.2057 -4.6393 -1.2912
  108PROXS   C3  778  13.727  14.277  11.110  0.1473  0.6063  0.4369
  108PROXS  H31  779  13.815  14.344  11.098  1.0653 -0.5261  0.6174
  108PROXS  H32  780  13.753  14.169  11.104  0.2725  0.6071  0.9184
  108PROXS  H33  781  13.651  14.304  11.034 -0.0686  1.4737  0.9546
  109PROXS   O1  782  13.556  14.200  11.251 -0.5250 -0.3430  0.4574
  109PROXS   C1  783  13.597  14.067  11.284 -0.2667  0.5898  0.2665
  109PROXS  H11  784  13.659  14.026  11.202 -0.1327 -1.1765  1.2118
  109PROXS  H13  785  13.669  14.054  11.368  1.5770  1.4615 -1.1216
  109PROXS   C2  786  13.480  13.979  11.297  0.0905 -0.0905 -0.0964
  109PROXS  H21  787  13.434  13.991  11.197  0.4622 -1.9211 -0.5304
  109PROXS   C3  788  13.382  14.003  11.411  0.0529  0.7794 -0.4839
  109PROXS  H31  789  13.287  13.947  11.400  0.2523 -0.3178  2.5964
  109PROXS  H32  790  13.420  13.982  11.513 -2.8852  0.1460  0.5912
  109PROXS  H33  791  13.362  14.112  11.413  0.3213  0.8327 -0.6589
  110PROXR   O1  792  13.527  13.845  11.295  0.0141 -0.0981 -0.4877
  110PROXR   C1  793  13.447  13.766  11.209  0.5543  0.4875 -0.3019
  110PROXR  H11  794  13.340  13.768  11.239  0.2821 -0.7767 -1.0978
  110PROXR  H13  795  13.448  13.804  11.105 -0.2620  1.6905  0.1025
  110PROXR   C2  796  13.489  13.620  11.202 -0.1804  0.1800 -0.4246
  110PROXR  H21  797  13.469  13.584  11.305 -0.7176 -0.4665 -0.7485
  110PROXR   C3  798  13.641  13.610  11.161 -0.7377  0.0658  0.0685
  110PROXR  H31  799  13.659  13.618  11.051 -0.0770  1.8811  0.2702
  110PROXR  H32  800  13.713  13.683  11.205  1.0019 -0.2987 -2.0144
  110PROXR  H33  801  13.679  13.511  11.191  1.7215  0.5626 -1.1105
  111PROXS   O1  802  13.407  13.549  11.105  0.2420  0.3579 -0.1728
  111PROXS   C1  803  13.380  13.417  11.147 -0.3633 -0.0906 -0.5537
  111PROXS  H11  804  13.475  13.358  11.142 -1.0983 -1.5573  1.4175
  111PROXS  H13  805  13.353  13.412  11.255 -0.3554 -0.0401 -0.5491
  111PROXS   C2  806  13.276  13.342  11.068 -0.7710 -0.5102 -1.0844
  111PROXS  H21  807  13.305  13.342  10.960  1.1498  3.0190 -0.7518
  111PROXS   C3  808  13.137  13.412  11.076  0.3625  0.8007 -0.0642
  111PROXS  H31  809  13.063  13.349  11.022  1.0773 -0.1603  0.0475
  111PROXS  H32  810  13.094  13.444  11.174  0.6849 -0.4564  0.5006
  111PROXS  H33  811  13.151  13.508  11.020 -2.0798  0.7458 -0.8790
  112PROXR   O1  812  13.266  13.209  11.123 -0.0124 -0.1934  0.0938
  112PROXR   C1  813  13.330  13.113  11.048 -1.3412  0.7169  0.3011
  112PROXR  H11  814  13.422  13.154  11.002  0.9022 -1.0039  2.9178
  112PROXR  H13  815  13.369  13.032  11.114  0.1993  0.5724 -0.7232
  112PROXR   C2  816  13.244  13.059  10.932 -0.7689 -0.2518  0.0195
  112PROXR  H21  817  13.190  13.138  10.876  0.5926  0.8641  0.2274
  112PROXR   C3  818  13.147  12.951  10.979 -0.2290 -0.0792 -0.3683
  112PROXR  H31  819  13.081  13.012  11.045  0.5822 -2.5966  2.9957
  112PROXR  H32  820  13.093  12.893  10.901  0.4620  0.1993 -1.0753
  112PROXR  H33  821  13.212  12.880  11.034 -0.7465  0.8571  1.5216
  113PROXS   O1  822  13.341  12.993  10.841  0.5871 -0.7580 -0.7750
  113PROXS   C1  823  13.304  13.011  10.706 -0.1746  0.6097 -0.5447
  113PROXS  H11  824  13.335  12.924  10.645 -0.9804 -0.6037  0.7080
  113PROXS  H13  825  13.196  13.033  10.689 -0.7080 -1.6490 -0.3609
  113PROXS   C2  826  13.386  13.128  10.648 -0.6041 -0.6258  0.8889
  113PROXS  H21  827  13.363  13.139  10.539 -0.6645 -0.4362  0.9206
  113PROXS   C3  828  13.548  13.121  10.665  0.5250  0.1812  0.5580
  113PROXS  H31  829  13.603  13.193  10.599  2.1707  0.0489  1.7075
  113PROXS  H32  830  13.584  13.156  10.765  1.4493 -2.3055  1.1625
  113PROXS  H33  831  13.585  13.019  10.640  0.3287  0.1386  0.4358
  114PROXR   O1  832  13.333  13.248  10.710  0.5299 -0.3141 -0.3053
  114PROXR   C1  833  13.391  13.367  10.666  0.5965 -0.1260 -0.0596
  114PROXR  H11  834  13.497  13.375  10.697  0.6477  1.9851 -0.6198
  114PROXR  H13  835  13.388  13.374  10.555  0.9070  0.7970 -0.0117
  114PROXR   C2  836  13.307  13.493  10.717 -0.0113  0.1522 -0.9686
  114PROXR  H21  837  13.331  13.516  10.823  1.7614 -0.7534 -1.1346
  114PROXR   C3  838  13.152  13.483  10.719 -0.8946 -0.2569  0.2408
  114PROXR  H31  839  13.125  13.480  10.611  1.5699 -0.4031 -0.4233
  114PROXR  H32  840  13.130  13.384  10.765 -0.4007 -0.7625 -0.5753
  114PROXR  H33  841  13.099  13.564  10.771 -0.9694 -0.3794  0.3557
  115PROXR   O1  842  13.345  13.605  10.640  0.3109  0.0210 -0.7068
  115PROXR   C1  843  13.338  13.727  10.722 -0.0568  0.0804  0.0544
  115PROXR  H11  844  13.235  13.767  10.711 -0.0613  0.6665  1.8049
  115PROXR  H13  845  13.362  13.705  10.829 -0.4958  0.3979  0.2230
  115PROXR   C2  846  13.428  13.837  10.671  0.4518 -1.1675  0.8989
  115PROXR  H21  847  13.398  13.875  10.571  1.5272  1.8492  1.6248
  115PROXR   C3  848  13.565  13.780  10.657 -1.3504 -0.4763 -0.0114
  115PROXR  H31  849  13.603  13.743  10.754  1.1006 -1.3425 -1.2051
  115PROXR  H32  850  13.572  13.701  10.579  1.5167  1.1091 -1.5401
  115PROXR  H33  851  13.636  13.859  10.623 -2.7370  0.7283 -0.2383
  116PROXS   O1  852  13.425  13.952  10.756  0.0561  0.2565  0.0553
  116PROXS   C1  853  13.296  14.001  10.784  0.0394 -0.0234  0.4034
  116PROXS  H11  854  13.218  13.993  10.705 -1.1460  2.4942  1.2125
  116PROXS  H13  855  13.262  13.929  10.862  0.2900 -1.1277 -0.4824
  116PROXS   C2  856  13.286  14.151  10.822 -0.2986 -0.1159  0.1008
  116PROXS  H21  857  13.305  14.214  10.732 -1.0795  0.9588  0.6514
  116PROXS   C3  858  13.390  14.181  10.928 -0.1959 -0.1041 -0.2900
  116PROXS  H31  859  13.388  14.110  11.013  2.2777 -0.6015 -0.5543
  116PROXS  H32  860  13.483  14.173  10.868 -0.4100  2.0769 -1.0194
  116PROXS  H33  861  13.389  14.286  10.966 -0.5038  0.3492 -1.5059
  117PROXS   O1  862  13.160  14.183  10.879 -0.3602 -0.6116  0.0554
  117PROXS   C1  863  13.104  14.310  10.834 -0.2547 -0.3992 -0.0855
  117PROXS  H11  864  13.182  14.387  10.811 -0.6150 -0.1830 -0.6095
  117PROXS  H13  865  13.065  14.282  10.733  0.2392  1.3792 -0.8194
  117PROXS   C2  866  12.987  14.362  10.918 -0.3343 -0.2077 -0.6625
  117PROXS  H21  867  13.036  14.396  11.012  0.4057 -0.4617 -0.9460
  117PROXS   C3  868  12.879  14.250  10.932 -0.0405 -0.4389  0.4711
  117PROXS  H31  869  12.843  14.228  10.829 -0.1029 -2.1896  0.8495
  117PROXS  H32  870  12.899  14.159  10.992 -0.4784 -1.3210 -0.6812
  117PROXS  H33  871  12.789  14.293  10.982  0.3166  1.7759 -0.6413
  118PROXR   O1  872  12.937  14.473  10.851  0.6858 -0.3379 -0.3261
  118PROXR   C1  873  12.820  14.539  10.903 -0.2801  0.4671  0.3267
  118PROXR  H11  874  12.726  14.488  10.873 -1.8231  3.3377 -0.0533
  118PROXR  H13  875  12.817  14.536  11.014  0.8034  0.8126  0.3742
  118PROXR   C2  876  12.804  14.673  10.841 -0.5368 -0.0998 -0.2719
  118PROXR  H21  877  12.800  14.652  10.732 -0.8462  0.1975 -0.3189
  118PROXR   C3  878  12.921  14.764  10.871  0.3254  0.0931 -0.4026
  118PROXR  H31  879  12.917  14.860  10.816  1.0980 -0.3650 -1.2914
  118PROXR  H32  880  12.923  14.791  10.978 -1.6006  1.0859 -0.5687
  118PROXR  H33  881  13.018  14.725  10.833 -0.2411 -0.3363 -1.4680
  119PROXR   O1  882  12.679  14.728  10.882 -0.0283  0.6605 -0.6693
  119PROXR   C1  883  12.631  14.833  10.801 -0.1606 -0.2820  0.2319
  119PROXR  H11  884  12.708  14.896  10.752 -3.1239  1.8454 -2.1118
  119PROXR  H13  885  12.570  14.792  10.718 -0.2444  0.2565  0.0224
  119PROXR   C2  886  12.532  14.921  10.888 -0.4791  0.1026 -0.6027
  119PROXR  H21  887  12.490  14.852  10.963 -0.7940  1.3772  0.4367
  119PROXR   C3  888  12.416  14.989  10.813 -0.3363 -0.3441  0.7360
  119PROXR  H31  889  12.373  15.070  10.876 -1.3728 -0.5879  0.3588
  119PROXR  H32  890  12.445  15.035  10.716 -1.0287 -0.1802  0.6029
  119PROXR  H33  891  12.338  14.913  10.793  0.9191 -1.2992 -0.6798
  120PROXS   O1  892  12.604  15.028  10.955 -0.2551  0.1200  0.0379
  120PROXS   C1  893  12.693  14.983  11.058 -0.3575 -0.7082  0.5075
  120PROXS  H11  894  12.757  14.902  11.016  3.6425  2.2605  0.3043
  120PROXS  H13  895  12.753  15.071  11.089  0.3152 -1.2024  0.6308
  120PROXS   C2  896  12.624  14.943  11.189 -0.3284  0.0908 -0.8009
  120PROXS  H21  897  12.549  14.868  11.157 -1.1173  0.3164  0.4418
  120PROXS   C3  898  12.552  15.068  11.250  0.8583  0.0659 -0.0648
  120PROXS  H31  899  12.478  15.031  11.325 -0.3907 -1.5442 -1.9667
  120PROXS  H32  900  12.629  15.139  11.285 -2.5859  3.2448  1.7867
  120PROXS  H33  901  12.493  15.114  11.168 -0.3667  0.8921  1.2257
  121PROXS   O1  902  12.713  14.882  11.288 -0.5324  0.5320  0.7189
  121PROXS   C1  903  12.769  14.748  11.248  0.4589 -1.0835  0.4225
  121PROXS  H11  904  12.710  14.703  11.166 -0.8937 -0.6120  1.1043
  121PROXS  H13  905  12.874  14.774  11.223 -0.2767 -0.6548 -2.5245
  121PROXS   C2  906  12.751  14.657  11.374 -0.0232 -0.2898  0.7208
  121PROXS  H21  907  12.647  14.676  11.408 -1.1113 -1.6111 -1.6364
  121PROXS   C3  908  12.850  14.709  11.487  0.4364  0.4383 -0.5086
  121PROXS  H31  909  12.951  14.690  11.444  0.3428 -1.5111  0.0681
  121PROXS  H32  910  12.835  14.819  11.493  0.7347  0.6805 -3.0724
  121PROXS  H33  911  12.839  14.657  11.584 -1.1580 -0.2206 -1.0054
  122PROXS   O1  912  12.781  14.521  11.343 -0.1080  0.6822 -0.1263
  122PROXS   C1  913  12.758  14.431  11.448  0.1113  0.2910  0.1073
  122PROXS  H11  914  12.839  14.438  11.523  1.1212  0.0931 -0.9278
  122PROXS  H13  915  12.661  14.449  11.498  0.8332  1.4563  1.1506
  122PROXS   C2  916  12.763  14.284  11.395 -0.4062  0.3735 -0.0451
  122PROXS  H21  917  12.864  14.273  11.349  0.7736  2.9555  1.6328
  122PROXS   C3  918  12.656  14.263  11.294  0.1844 -0.0124 -0.0592
  122PROXS  H31  919  12.682  14.333  11.211  0.9604 -0.0841  0.1118
  122PROXS  H32  920  12.641  14.164  11.246 -3.2411  0.8782 -1.0875
  122PROXS  H33  921  12.561  14.303  11.334  0.9950 -0.6944  2.7346
  123PROXS   O1  922  12.745  14.188  11.500 -0.2756  0.1823 -0.3731
  123PROXS   C1  923  12.806  14.065  11.473  0.1924 -0.3554 -0.0024
  123PROXS  H11  924  12.774  14.036  11.370  0.8909 -1.2583  0.0226
  123PROXS  H13  925  12.914  14.068  11.497  0.5192  2.0893 -1.3856
  123PROXS   C2  926  12.739  13.956  11.550  0.5240 -0.2525 -0.2396
  123PROXS  H21  927  12.635  13.936  11.518 -0.2205  2.6117  0.1354
  123PROXS   C3  928  12.749  13.981  11.704  0.2896  1.0842  0.1545
  123PROXS  H31  929  12.723  13.886  11.755  0.3140  0.2786 -1.2966
  123PROXS  H32  930  12.852  14.001  11.739 -0.0271  0.1357  1.7762
  123PROXS  H33  931  12.676  14.057  11.740 -0.4232  0.3144  0.3756
  124PROXR   O1  932  12.820  13.841  11.542  0.2677  0.3340 -0.4889
  124PROXR   C1  933  12.783  13.762  11.427 -0.4224 -0.0086  0.1768
  124PROXR  H11  934  12.683  13.715  11.438 -0.6269  0.7386  1.9877
  124PROXR  H13  935  12.776  13.823  11.334  0.5659 -0.2820 -0.0845
  124PROXR   C2  936  12.896  13.666  11.400 -0.7470 -0.0948  0.2717
  124PROXR  H21  937  12.908  13.596  11.485 -0.7481 -1.3455 -0.7187
  124PROXR   C3  938  13.033  13.731  11.375  0.5173 -0.0846  0.4591
  124PROXR  H31  939  13.031  13.830  11.425 -0.7020 -0.3781  1.0327
  124PROXR  H32  940  13.122  13.680  11.417  0.8258  0.6682  0.7541
  124PROXR  H33  941  13.045  13.757  11.268 -0.3859  1.3614  0.6765
  125PROXS   O1  942  12.877  13.591  11.275  0.3825  0.4459 -0.4989
  125PROXS   C1  943  12.762  13.509  11.295 -0.4096  0.3716 -0.1239
  125PROXS  H11  944  12.768  13.453  11.390 -0.6065 -0.5993 -0.6668
  125PROXS  H13  945  12.666  13.562  11.272 -1.4237 -1.1337  0.4790
  125PROXS   C2  946  12.752  13.397  11.187 -0.4900 -0.3517  0.6609
  125PROXS  H21  947  12.853  13.352  11.177 -0.0822  0.5866  0.4965
  125PROXS   C3  948  12.723  13.456  11.057  0.3439 -0.1580  0.3435
  125PROXS  H31  949  12.748  13.387  10.974  3.0306 -0.3862  1.2617
  125PROXS  H32  950  12.618  13.491  11.048  0.9739  1.7445 -0.1033
  125PROXS  H33  951  12.792  13.539  11.033 -1.4338  0.8998 -1.4245
  126PROXS   O1  952  12.663  13.292  11.220 -0.1773  0.0428 -0.1822
  126PROXS   C1  953  12.694  13.167  11.167 -0.5733  0.2503 -0.3247
  126PROXS  H11  954  12.675  13.158  11.058  0.0821  0.6480 -0.4779
  126PROXS  H13  955  12.803  13.156  11.186 -0.9833 -0.3499  2.0558
  126PROXS   C2  956  12.622  13.049  11.240  0.8427 -0.1843 -0.0882
  126PROXS  H21  957  12.519  13.088  11.254  0.5534  0.3219 -3.0361
  126PROXS   C3  958  12.671  13.002  11.374 -0.3711  0.1985  0.3842
  126PROXS  H31  959  12.761  12.939  11.357 -1.2339 -0.4661 -2.1996
  126PROXS  H32  960  12.707  13.090  11.432 -0.3158  1.5820 -1.6419
  126PROXS  H33  961  12.602  12.943  11.438  0.6175 -1.9689 -0.4560
  127PROXR   O1  962  12.636  12.932  11.162  0.2437  0.4420 -0.5400
  127PROXR   C1  963  12.538  12.915  11.064 -0.7715 -0.0495  0.6933
  127PROXR  H11  964  12.445  12.876  11.112 -0.5971 -1.6412 -0.2054
  127PROXR  H13  965  12.515  13.005  11.005 -1.9725 -0.1944  0.9013
  127PROXR   C2  966  12.584  12.805  10.961 -0.5988  0.7612 -0.2911
  127PROXR  H21  967  12.582  12.703  11.006 -0.0406  0.2952 -1.2951
  127PROXR   C3  968  12.720  12.839  10.905 -0.5552  0.3026 -0.9476
  127PROXR  H31  969  12.705  12.933  10.848 -2.4411 -0.0637 -1.1175
  127PROXR  H32  970  12.796  12.846  10.985 -0.7276  0.5730 -0.8063
  127PROXR  H33  971  12.742  12.749  10.843 -1.8800 -2.0166  1.6757
  128PROXR   O1  972  12.505  12.811  10.847 -0.0831 -0.2011 -0.2506
  128PROXR   C1  973  12.467  12.685  10.789  0.1985 -0.2623  0.3277
  128PROXR  H11  974  12.558  12.647  10.737 -0.2496  0.9635 -1.4930
  128PROXR  H13  975  12.435  12.611  10.865  2.2436 -2.2243 -0.6392
  128PROXR   C2  976  12.350  12.707  10.687  0.0495 -0.1473  0.1287
  128PROXR  H21  977  12.378  12.758  10.592  1.6338 -2.5746 -0.7972
  128PROXR   C3  978  12.241  12.784  10.755 -0.5097  0.1146 -0.7330
  128PROXR  H31  979  12.293  12.875  10.790  1.2417 -0.6463 -1.2315
  128PROXR  H32  980  12.172  12.807  10.671 -2.1048 -0.8374  0.2544
  128PROXR  H33  981  12.199  12.716  10.832 -0.7047  0.4841 -0.5106
  129PROXS   O1  982  12.291  12.580  10.651  0.2620  0.0326  0.7796
  129PROXS   C1  983  12.381  12.488  10.586 -0.6795  0.3036 -0.3931
  129PROXS  H11  984  12.432  12.526  10.495 -0.9320  1.5875 -0.0225
  129PROXS  H13  985  12.460  12.464  10.660 -1.4213 -1.3168 -0.0869
  129PROXS   C2  986  12.318  12.359  10.546  0.8602  0.3318  0.2309
  129PROXS  H21  987  12.228  12.381  10.484  0.6781  0.5796  0.5784
  129PROXS   C3  988  12.254  12.273  10.660  0.2873  0.2608  0.9425
  129PROXS  H31  989  12.338  12.246  10.727  1.7403 -2.5068 -1.7255
  129PROXS  H32  990  12.176  12.332  10.711  0.3559 -0.6098  2.0765
  129PROXS  H33  991  12.214  12.176  10.624  2.2314  0.0255 -0.8480
  130PROXS   O1  992  12.412  12.277  10.480  0.1291 -0.1815  0.1925
  130PROXS   C1  993  12.366  12.236  10.353  0.2783  0.4043  0.2913
  130PROXS  H11  994  12.290  12.157  10.362  1.8235 -1.3253 -0.9829
  130PROXS  H13  995  12.320  12.317  10.293  0.7644 -1.8805 -3.5277
  130PROXS   C2  996  12.494  12.180  10.283 -0.4860  0.1162  0.1805
  130PROXS  H21  997  12.538  12.097  10.344  0.5689 -0.1526 -0.8959
  130PROXS   C3  998  12.603  12.285  10.270 -0.6528 -0.6926  0.3682
  130PROXS  H31  999  12.651  12.316  10.365 -1.5688 -1.7721  1.2052
  130PROXS  H32 1000  12.676  12.258  10.191 -0.0449  1.9132 -0.0376
  130PROXS  H33 1001  12.541  12.368  10.229 -1.0215 -1.4509 -0.6511
  131PROXS   O1 1002  12.457  12.127  10.153  0.3295 -0.3246 -0.0471
  131PROXS   C1 1003  12.519  12.005  10.128  0.2946 -0.0633  0.0824
  131PROXS  H11 1004  12.624  12.018  10.095 -0.0220 -0.6068 -1.1828
  131PROXS  H13 1005  12.519  11.937  10.216  1.8162 -0.9009 -0.5289
  131PROXS   C2 1006  12.462  11.929  10.008 -0.1208  0.4160  0.9168
  131PROXS  H21 1007  12.457  12.003   9.926  2.7172 -0.6155 -0.3053
  131PROXS   C3 1008  12.321  11.871  10.047  0.5463  0.1938 -0.1052
  131PROXS  H31 1009  12.345  11.815  10.140  0.5992  1.2934  0.5586
  131PROXS  H32 1010  12.243  11.948  10.069 -1.4152 -1.1741 -1.7991
  131PROXS  H33 1011  12.285  11.802   9.967 -0.4905  0.0861  0.4338
  132PROXS   O1 1012  12.552  11.818   9.977 -0.0341 -0.1520  0.0247
  132PROXS   C1 1013  12.518  11.759   9.849 -0.4310 -0.3628 -0.9716
  132PROXS  H11 1014  12.455  11.668   9.866  0.6655 -0.9381  0.1593
  132PROXS  H13 1015  12.455  11.829   9.791  0.4364  1.1158 -0.1710
  132PROXS   C2 1016  12.647  11.721   9.769  0.5677 -0.0862  0.1830
  132PROXS  H21 1017  12.686  11.630   9.819  0.6696  0.0058  0.2739
  132PROXS   C3 1018  12.753  11.833   9.755  0.1764  0.1135  0.2787
  132PROXS  H31 1019  12.772  11.881   9.853 -1.5409 -0.8168  1.1231
  132PROXS  H32 1020  12.847  11.782   9.724  0.3593  0.6299 -0.0072
  132PROXS  H33 1021  12.707  11.904   9.684 -1.0710 -0.7373  0.1937
  133PROXS   O1 1022  12.612  11.671   9.638 -0.3796  0.2990  0.0249
  133PROXS   C1 1023  12.716  11.586   9.579 -0.6664  0.5585 -0.4380
  133PROXS  H11 1024  12.804  11.572   9.645  0.0406  0.2072 -1.4210
  133PROXS  H13 1025  12.673  11.486   9.558  0.5383 -0.0714  0.0468
  133PROXS   C2 1026  12.763  11.642   9.438  0.1157  0.4654 -0.5065
  133PROXS  H21 1027  12.669  11.680   9.391  1.4638  2.0564 -2.0215
  133PROXS   C3 1028  12.815  11.544   9.329 -0.9963 -0.8645  0.0412
  133PROXS  H31 1029  12.732  11.471   9.328 -1.2708 -0.5596 -1.4638
  133PROXS  H32 1030  12.820  11.596   9.231  0.9472 -2.9753 -1.0896
  133PROXS  H33 1031  12.911  11.498   9.363  0.4529  1.8266 -0.0925
  134PROXS   O1 1032  12.841  11.753   9.462 -0.3345 -0.4556 -0.4366
  134PROXS   C1 1033  12.850  11.847   9.357 -0.2237  0.2099  0.8011
  134PROXS  H11 1034  12.913  11.806   9.275 -2.0298  0.5157 -0.8003
  134PROXS  H13 1035  12.748  11.846   9.314 -0.1059 -1.6863  0.4706
  134PROXS   C2 1036  12.904  11.982   9.396  0.4206  0.1197  0.2072
  134PROXS  H21 1037  12.842  12.006   9.485 -1.8830 -3.2923 -0.2918
  134PROXS   C3 1038  12.867  12.078   9.283  0.1747  0.3147  0.4523
  134PROXS  H31 1039  12.764  12.115   9.304 -0.4593 -2.1164  2.0581
  134PROXS  H32 1040  12.935  12.166   9.276  0.6734  0.0445  1.6349
  134PROXS  H33 1041  12.858  12.030   9.184 -3.2511 -0.4039  0.9976
  135PROXS   O1 1042  13.040  11.989   9.414 -0.5853 -0.4508  0.2452
  135PROXS   C1 1043  13.072  11.924   9.535 -0.0362 -0.4762  0.7232
  135PROXS  H11 1044  12.991  11.940   9.609  0.4958  3.2492  0.7266
  135PROXS  H13 1045  13.088  11.815   9.529  2.9598 -0.1142  0.5790
  135PROXS   C2 1046  13.200  11.992   9.598 -0.1542  0.5665 -0.2682
  135PROXS  H21 1047  13.196  12.100   9.575 -0.7790 -0.1336 -4.2080
  135PROXS   C3 1048  13.334  11.930   9.548  0.2282  0.4302 -0.2510
  135PROXS  H31 1049  13.352  11.822   9.564  0.2916  0.7267  1.9034
  135PROXS  H32 1050  13.339  11.946   9.438  0.3062  0.9980 -0.1711
  135PROXS  H33 1051  13.411  11.991   9.599  0.3358  0.6949 -0.7161
  136PROXS   O1 1052  13.208  11.958   9.734 -0.4401  0.8611  0.3020
  136PROXS   C1 1053  13.114  12.040   9.810  0.4221  0.1969  0.5668
  136PROXS  H11 1054  13.103  12.139   9.762  0.5861 -0.1828 -0.2870
  136PROXS  H13 1055  13.017  11.986   9.813 -0.1886  1.1439 -0.8936
  136PROXS   C2 1056  13.160  12.054   9.957 -0.4914  0.0148 -0.4921
  136PROXS  H21 1057  13.269  12.073   9.945 -0.9002  2.4278 -0.9649
  136PROXS   C3 1058  13.154  11.924  10.041 -0.4138 -0.8481 -0.0271
  136PROXS  H31 1059  13.201  11.946  10.139  0.2301  2.5119 -0.9643
  136PROXS  H32 1060  13.050  11.890  10.057 -0.9321  0.1777 -1.0772
  136PROXS  H33 1061  13.215  11.841   9.999  0.1686 -0.9768  1.0264
  137PROXS   O1 1062  13.104  12.168  10.025 -0.4772 -0.1361 -0.3259
  137PROXS   C1 1063  13.151  12.296   9.988  0.3503 -0.3656  0.1977
  137PROXS  H11 1064  13.261  12.293  10.000  0.1540 -0.2909  2.2631
  137PROXS  H13 1065  13.110  12.317   9.886 -0.0317  1.0231  0.6190
  137PROXS   C2 1066  13.099  12.399  10.088 -0.2980 -0.6571 -0.0977
  137PROXS  H21 1067  13.147  12.368  10.183 -0.8440 -2.2596 -0.3114
  137PROXS   C3 1068  12.950  12.394  10.133  0.2258 -0.1463  0.5645
  137PROXS  H31 1069  12.929  12.485  10.193  1.3753 -0.2631  1.1711
  137PROXS  H32 1070  12.893  12.413  10.039  1.6223  2.3212  0.1319
  137PROXS  H33 1071  12.913  12.299  10.178 -0.1235 -1.5951 -2.4861
  138PROXR   O1 1072  13.140  12.527  10.050 -0.2338 -0.4242 -0.0098
  138PROXR   C1 1073  13.257  12.565  10.121  0.1753  0.2263 -1.0835
  138PROXR  H11 1074  13.231  12.594  10.225  1.0905  3.7850 -1.7103
  138PROXR  H13 1075  13.328  12.480  10.111  2.3967  1.7701  0.5963
  138PROXR   C2 1076  13.327  12.699  10.069 -0.1001 -0.3444  0.7468
  138PROXR  H21 1077  13.255  12.782  10.087  1.0696  0.9263 -0.2099
  138PROXR   C3 1078  13.355  12.697   9.913  0.3826 -0.0397  0.0632
  138PROXR  H31 1079  13.405  12.600   9.893 -1.4817 -1.2908  1.1527
  138PROXR  H32 1080  13.262  12.717   9.855  1.4373 -0.1449 -1.7206
  138PROXR  H33 1081  13.429  12.775   9.886 -0.8984  0.3145 -2.7788
  139PROXS   O1 1082  13.442  12.718  10.148 -0.1554 -0.1596  0.3497
  139PROXS   C1 1083  13.482  12.854  10.139 -0.4291 -0.2335 -0.4520
  139PROXS  H11 1084  13.519  12.894  10.042  2.8593 -0.4802  0.5855
  139PROXS  H13 1085  13.398  12.918  10.173  1.7113  2.0100  0.9871
  139PROXS   C2 1086  13.606  12.865  10.230  0.0768  0.3718  0.3497
  139PROXS  H21 1087  13.690  12.804  10.191  0.2133 -0.6159  2.0856
  139PROXS   C3 1088  13.574  12.825  10.379  0.5306 -0.2767  0.8589
  139PROXS  H31 1089  13.662  12.846  10.443  0.3561  2.3384  0.3295
  139PROXS  H32 1090  13.491  12.891  10.413  1.7225  1.1664  1.0612
  139PROXS  H33 1091  13.544  12.718  10.369  4.4592 -1.3491 -1.8206
  140PROXR   O1 1092  13.653  13.007  10.223  0.4189  0.5364  0.6214
  140PROXR   C1 1093  13.775  13.029  10.288  1.0708 -0.3866 -0.3321
  140PROXR  H11 1094  13.750  13.023  10.396 -2.0055 -1.0747 -0.9762
  140PROXR  H13 1095  13.840  12.943  10.262 -0.3239 -1.7441  0.4959
  140PROXR   C2 1096  13.822  13.169  10.239  0.7243  0.1109  0.4397
  140PROXR  H21 1097  13.732  13.232  10.256 -0.0875 -0.7833 -0.4441
  140PROXR   C3 1098  13.871  13.168  10.088  0.1494  0.0447 -0.9202
  140PROXR  H31 1099  13.794  13.124  10.022 -0.6163 -0.4925  0.2846
  140PROXR  H32 1100  13.906  13.270  10.059  3.3407 -0.3870  0.8822
  140PROXR  H33 1101  13.964  13.109  10.078 -0.0032 -0.3248 -0.2587
  141PROXS   O1 1102  13.924  13.194  10.328 -0.1178 -0.0634  0.4369
  141PROXS   C1 1103  13.977  13.320  10.303 -0.0334  0.1378  0.2840
  141PROXS  H11 1104  14.064  13.313  10.234 -0.5898  2.9908 -0.8663
  141PROXS  H13 1105  13.895  13.381  10.259 -1.5376 -0.6146  1.9165
  141PROXS   C2 1106  14.023  13.393  10.434 -0.5138  0.9722 -0.1741
  141PROXS  H21 1107  14.110  13.338  10.475  0.3327 -0.2257 -3.2750
  141PROXS   C3 1108  13.912  13.394  10.539  0.4940  0.4721  0.4804
  141PROXS  H31 1109  13.877  13.292  10.565 -1.3093  0.6012 -1.2101
  141PROXS  H32 1110  13.948  13.443  10.632 -2.8314 -1.3483  2.9507
  141PROXS  H33 1111  13.821  13.450  10.507 -1.3390 -1.3939  2.1328
  142PROXS   O1 1112  14.060  13.525  10.393 -0.3957 -0.0804  0.0476
  142PROXS   C1 1113  14.130  13.596  10.495  0.1264 -0.1932  0.7026
  142PROXS  H11 1114  14.062  13.638  10.572 -2.6778 -2.9341 -0.1181
  142PROXS  H13 1115  14.189  13.519  10.548 -0.9471 -0.2641  1.8434
  142PROXS   C2 1116  14.230  13.688  10.441  0.0494 -0.0667  0.2279
  142PROXS  H21 1117  14.160  13.732  10.366  1.5276  2.2279  0.0763
  142PROXS   C3 1118  14.359  13.617  10.384 -0.4328  0.8227 -0.6599
  142PROXS  H31 1119  14.332  13.528  10.323  3.0992 -1.3151  0.6584
  142PROXS  H32 1120  14.423  13.689  10.329  0.2931  1.4785  0.9774
  142PROXS  H33 1121  14.419  13.573  10.466 -0.5136 -1.3789 -1.7275
  143PROXS   O1 1122  14.259  13.775  10.553  0.2504 -0.7633  1.0278
  143PROXS   C1 1123  14.341  13.888  10.510  0.3190 -0.3997 -0.6701
  143PROXS  H11 1124  14.434  13.873  10.451  0.3245  1.0503 -1.0849
  143PROXS  H13 1125  14.270  13.948  10.449 -0.2662  2.2525  2.3288
  143PROXS   C2 1126  14.366  13.980  10.639  0.0925 -0.0802 -0.4194
  143PROXS  H21 1127  14.447  13.938  10.702  0.0529  0.6900  0.1584
  143PROXS   C3 1128  14.233  13.990  10.715  0.2698 -0.0098 -0.4817
  143PROXS  H31 1129  14.212  13.885  10.748 -1.3444 -0.2785 -2.1704
  143PROXS  H32 1130  14.229  14.068  10.794  1.7875 -0.1312 -0.2696
  143PROXS  H33 1131  14.157  14.025  10.642 -0.2614 -0.4954 -0.1747
  144PROXS   O1 1132  14.403  14.112  10.597 -0.1431 -0.4374 -0.5321
  144PROXS   C1 1133  14.465  14.192  10.695  0.0801 -0.0955 -0.8054
  144PROXS  H11 1134  14.397  14.247  10.764  1.2440  1.0334 -0.5220
  144PROXS  H13 1135  14.540  14.143  10.760  0.2452 -0.1578 -1.0405
  144PROXS   C2 1136  14.544  14.307  10.627  0.0095 -0.3232 -0.3080
  144PROXS  H21 1137  14.466  14.367  10.574 -0.4942 -2.3269 -1.9293
  144PROXS   C3 1138  14.653  14.254  10.533  0.3825  0.1679  0.2360
  144PROXS  H31 1139  14.619  14.169  10.471  3.2681 -0.8071 -0.1324
  144PROXS  H32 1140  14.690  14.334  10.465  1.1411  0.4385  0.9543
  144PROXS  H33 1141  14.745  14.215  10.581  0.7103  0.4138 -0.1847
  145PROXR   O1 1142  14.600  14.371  10.738  0.4447 -0.2022 -0.2653
  145PROXR   C1 1143  14.598  14.514  10.714 -0.2083 -0.7126 -0.0331
  145PROXR  H11 1144  14.628  14.552  10.614  1.3855 -2.7081 -0.3746
  145PROXR  H13 1145  14.497  14.554  10.737 -0.4164 -0.7867 -0.8125
  145PROXR   C2 1146  14.682  14.579  10.830  0.3470  0.5193 -0.2694
  145PROXR  H21 1147  14.790  14.567  10.808  0.7502  0.3869  1.5994
  145PROXR   C3 1148  14.642  14.506  10.960  0.4248 -0.5185  0.0582
  145PROXR  H31 1149  14.543  14.532  11.004  0.3427  0.4237 -0.6390
  145PROXR  H32 1150  14.656  14.396  10.954  0.8781 -0.5270  1.1059
  145PROXR  H33 1151  14.722  14.530  11.033 -0.6819 -2.6566  2.1339
  146PROXS   O1 1152  14.658  14.721  10.842  0.5274  0.6392 -0.1625
  146PROXS   C1 1153  14.740  14.788  10.934 -0.0235  0.3853 -0.9053
  146PROXS  H11 1154  14.729  14.739  11.033  2.8891 -0.1209 -0.7296
  146PROXS  H13 1155  14.845  14.788  10.896  0.0052 -0.4741 -0.8563
  146PROXS   C2 1156  14.689  14.935  10.946  0.1023 -0.2414 -0.7834
  146PROXS  H21 1157  14.584  14.927  10.980 -0.2903  2.9210 -1.0074
  146PROXS   C3 1158  14.712  15.014  10.814  0.2752  0.3027  0.2254
  146PROXS  H31 1159  14.669  14.955  10.730 -1.5261  1.4035  0.3365
  146PROXS  H32 1160  14.653  15.108  10.823 -0.4584 -0.0727 -0.5152
  146PROXS  H33 1161  14.820  15.041  10.808 -0.1574  1.8647 -1.1537
  147PROXR   O1 1162  14.766  14.993  11.051  0.0303 -0.0093 -0.0167
  147PROXR   C1 1163  14.697  15.097  11.121 -0.9210 -0.3172  0.1010
  147PROXR  H11 1164  14.693  15.184  11.052  1.6775 -0.0908  0.1378
  147PROXR  H13 1165  14.598  15.054  11.148  0.0191 -1.1918  2.3827
  147PROXR   C2 1166  14.775  15.144  11.247 -0.0295 -0.0102 -0.2140
  147PROXR  H21 1167  14.874  15.185  11.217  0.7843 -1.0609  0.9295
  147PROXR   C3 1168  14.806  15.021  11.339  1.4459  0.0918  0.0583
  147PROXR  H31 1169  14.885  14.967  11.282 -0.5377 -0.2956 -2.5204
  147PROXR  H32 1170  14.828  15.051  11.443  0.9998 -0.9180  0.4578
  147PROXR  H33 1171  14.715  14.957  11.342  1.1406  0.4363 -1.1494
  148PROXR   O1 1172  14.700  15.243  11.314 -0.3894  0.2355 -0.6589
  148PROXR   C1 1173  14.703  15.367  11.253 -0.5589 -0.2556 -0.4238
  148PROXR  H11 1174  14.762  15.374  11.159  0.4065 -1.5800  0.0385
  148PROXR  H13 1175  14.601  15.406  11.233 -1.3610 -1.9468  0.1880
  148PROXR   C2 1176  14.763  15.471  11.357  0.1729  0.4673 -1.1450
  148PROXR  H21 1177  14.857  15.426  11.393 -1.3158 -0.0501  2.4739
  148PROXR   C3 1178  14.679  15.478  11.481 -0.0953 -0.4534  1.0921
  148PROXR  H31 1179  14.736  15.484  11.577 -0.8084  0.2731  1.4825
  148PROXR  H32 1180  14.617  15.570  11.474  0.4730 -0.1528 -0.2392
  148PROXR  H33 1181  14.615  15.387  11.494  0.3323 -1.1422 -1.2243
  149PROXR   O1 1182  14.783  15.598  11.305 -0.1646 -0.4988  0.6290
  149PROXR   C1 1183  14.880  15.664  11.387  0.8706 -0.2607  1.1283
  149PROXR  H11 1184  14.855  15.663  11.495  1.1844  0.1085  1.2073
  149PROXR  H13 1185  14.974  15.607  11.371  0.0960 -0.8145 -2.0027
  149PROXR   C2 1186  14.906  15.812  11.335 -0.0464 -0.4107 -0.4006
  149PROXR  H21 1187  14.929  15.812  11.226  2.6110  0.0234  0.0697
  149PROXR   C3 1188  15.031  15.869  11.419  0.4543  0.4144 -0.2920
  149PROXR  H31 1189  15.075  15.962  11.378  0.2324  0.0576 -1.3663
  149PROXR  H32 1190  15.007  15.890  11.525  0.7856 -1.4845  0.1945
  149PROXR  H33 1191  15.112  15.794  11.414 -1.5776 -1.9918  0.7519
  150PROXS   O1 1192  14.790  15.899  11.365 -0.2053  0.1715 -0.2516
  150PROXS   C1 1193  14.710  15.926  11.252 -0.2788 -0.0161 -0.2445
  150PROXS  H11 1194  14.740  16.022  11.205  0.0486 -0.2601 -0.5420
  150PROXS  H13 1195  14.720  15.837  11.185 -0.8797 -0.8926  0.8006
  150PROXS   C2 1196  14.567  15.947  11.299  0.1454 -0.4412 -0.8493
  150PROXS  H21 1197  14.573  16.039  11.361  0.6390 -0.8917 -0.2126
  150PROXS   C3 1198  14.520  15.834  11.391  0.2574  0.1655 -0.0635
  150PROXS  H31 1199  14.416  15.846  11.430 -0.2207 -1.0181 -0.9262
  150PROXS  H32 1200  14.524  15.732  11.347  0.0682  1.2326 -2.7467
  150PROXS  H33 1201  14.593  15.823  11.474  0.4428 -1.4105 -0.4105
  151PROXR   O1 1202  14.478  15.973  11.195 -0.2616  0.1313  0.1957
  151PROXR   C1 1203  14.353  16.021  11.239 -0.0705  0.1037  1.2408
  151PROXR  H11 1204  14.304  15.964  11.322 -0.2278  0.9154  1.7132
  151PROXR  H13 1205  14.360  16.130  11.260 -0.3691  0.0523  1.6379
  151PROXR   C2 1206  14.242  15.994  11.128 -0.7553  0.2144  0.0501
  151PROXR  H21 1207  14.287  16.016  11.029  0.3839  1.2613  0.7762
  151PROXR   C3 1208  14.121  16.085  11.140  0.0597 -0.2414 -0.9073
  151PROXR  H31 1209  14.044  16.065  11.062 -2.4509  0.1473  1.3166
  151PROXR  H32 1210  14.082  16.068  11.243  2.3839 -2.7952 -0.3248
  151PROXR  H33 1211  14.143  16.193  11.129 -1.4890  0.1876 -0.1305
  152PROXR   O1 1212  14.185  15.867  11.140 -0.3420 -0.2861  0.0303
  152PROXR   C1 1213  14.287  15.768  11.119 -0.0717  0.1262 -0.2544
  152PROXR  H11 1214  14.351  15.800  11.035 -1.9658  1.1267 -1.3969
  152PROXR  H13 1215  14.343  15.757  11.214  0.2250 -1.1474 -0.5545
  152PROXR   C2 1216  14.221  15.633  11.088  0.7595  0.5992  0.1587
  152PROXR  H21 1217  14.183  15.648  10.985  0.7882 -1.2850 -0.1566
  152PROXR   C3 1218  14.110  15.597  11.187  0.2663  0.0943 -0.8774
  152PROXR  H31 1219  14.042  15.685  11.189 -0.3024 -0.3316 -0.9734
  152PROXR  H32 1220  14.057  15.506  11.152  1.4518  0.1379 -2.9483
  152PROXR  H33 1221  14.147  15.573  11.289  1.6210  1.2186 -1.0794
  153PROXR   O1 1222  14.328  15.541  11.087 -0.0584 -0.0478  0.5325
  153PROXR   C1 1223  14.283  15.423  11.024  0.5428  0.0098  0.0243
  153PROXR  H11 1224  14.202  15.381  11.087  1.0333 -0.9308  0.0399
  153PROXR  H13 1225  14.236  15.464  10.931 -0.1582 -0.7254  0.0475
  153PROXR   C2 1226  14.386  15.326  10.992  0.6442  0.2486 -0.4479
  153PROXR  H21 1227  14.441  15.289  11.081 -0.3965 -0.7488 -0.1946
  153PROXR   C3 1228  14.486  15.369  10.891  0.2579 -0.0976 -0.5887
  153PROXR  H31 1229  14.435  15.413  10.802 -1.2278  0.3841  0.4572
  153PROXR  H32 1230  14.552  15.448  10.933  1.1039 -1.4932  0.7910
  153PROXR  H33 1231  14.544  15.280  10.859 -0.8659 -0.6447 -1.1340
  154PROXS   O1 1232  14.326  15.212  10.925  0.2190 -0.4697  0.2548
  154PROXS   C1 1233  14.288  15.103  11.013  0.4990 -0.0437  0.1689
  154PROXS  H11 1234  14.380  15.070  11.065  0.8055 -2.6303 -1.7739
  154PROXS  H13 1235  14.211  15.138  11.085  0.6673  2.8792 -0.9469
  154PROXS   C2 1236  14.236  14.972  10.942  0.7363 -0.0565  0.4001
  154PROXS  H21 1237  14.324  14.929  10.890  0.6742  1.2985 -0.9087
  154PROXS   C3 1238  14.123  14.985  10.838  0.1273  0.0591  0.5434
  154PROXS  H31 1239  14.077  14.895  10.792 -0.1708  1.4015 -1.9538
  154PROXS  H32 1240  14.040  15.044  10.882 -0.1386 -1.0695  1.6121
  154PROXS  H33 1241  14.170  15.038  10.753  0.6446  0.6131  1.1583
  155PROXR   O1 1242  14.201  14.889  11.038  0.2097  1.0424  0.0559
  155PROXR   C1 1243  14.241  14.750  11.024  0.2052  0.2995  0.8435
  155PROXR  H11 1244  14.241  14.732  10.914  0.5138  3.3442  0.2395
  155PROXR  H13 1245  14.348  14.738  11.052  0.0793 -0.3166  1.0774
  155PROXR   C2 1246  14.144  14.656  11.099 -0.2030 -0.4300 -0.0940
  155PROXR  H21 1247  14.060  14.654  11.026  0.7393 -0.6894 -1.2019
  155PROXR   C3 1248  14.102  14.708  11.240 -0.1277  0.0909 -0.4189
  155PROXR  H31 1249  14.099  14.819  11.242 -0.1259  0.0872  0.1892
  155PROXR  H32 1250  14.010  14.659  11.279  0.5134  0.0953  1.1900
  155PROXR  H33 1251  14.175  14.681  11.320  0.4700  0.0677 -0.9706
  156PROXS   O1 1252  14.199  14.525  11.113  0.3056 -0.4553  0.2541
  156PROXS   C1 1253  14.092  14.426  11.129  0.0027 -0.5823  0.3284
  156PROXS  H11 1254  14.026  14.442  11.217  1.0085 -0.1910  1.0215
  156PROXS  H13 1255  14.039  14.431  11.031  1.2847  3.4422 -0.3393
  156PROXS   C2 1256  14.160  14.294  11.145  0.0438 -0.9964 -0.4318
  156PROXS  H21 1257  14.214  14.292  11.242 -0.1454 -0.6605 -0.3171
  156PROXS   C3 1258  14.253  14.255  11.036  0.3530 -0.9281  0.3372
  156PROXS  H31 1259  14.334  14.328  11.011  0.0962 -0.5947  0.4670
  156PROXS  H32 1260  14.311  14.165  11.065  0.9025 -0.6851  0.0173
  156PROXS  H33 1261  14.203  14.236  10.939  2.1270 -0.6242 -0.6953
  157PROXS   O1 1262  14.062  14.192  11.153  0.4541 -0.3775 -0.3625
  157PROXS   C1 1263  14.106  14.069  11.210  0.2630 -0.6327 -0.8565
  157PROXS  H11 1264  14.188  14.025  11.149 -1.0646 -0.4385 -2.8635
  157PROXS  H13 1265  14.152  14.079  11.310  0.9773 -2.1873 -0.9919
  157PROXS   C2 1266  13.991  13.964  11.224  0.2170  0.4547  0.6477
  157PROXS  H21 1267  13.893  14.007  11.255 -0.0611 -1.4464  2.7182
  157PROXS   C3 1268  14.019  13.870  11.342  0.8106  0.4370 -0.1977
  157PROXS  H31 1269  14.034  13.935  11.431 -1.1489  0.5484  0.0772
  157PROXS  H32 1270  13.930  13.806  11.360  0.6265  0.3228 -1.4522
  157PROXS  H33 1271  14.106  13.805  11.318  0.6711  0.2310 -0.1499
  158PROXR   O1 1272  13.982  13.877  11.105 -0.2662 -0.7224 -0.3810
  158PROXR   C1 1273  13.966  13.943  10.986  0.0476  0.3846  0.2240
  158PROXR  H11 1274  13.917  14.037  11.020  1.6266  0.5596  2.2259
  158PROXR  H13 1275  14.065  13.966  10.942 -0.5587  1.0738 -0.8080
  158PROXR   C2 1276  13.866  13.867  10.886  0.0776  0.3153  0.2686
  158PROXR  H21 1277  13.766  13.858  10.934  0.4040 -1.3430  0.6877
  158PROXR   C3 1278  13.917  13.725  10.849  0.1138 -0.2726  0.1657
  158PROXR  H31 1279  13.842  13.683  10.779 -1.7518 -3.6859  3.7907
  158PROXR  H32 1280  14.022  13.730  10.814 -0.1412 -1.1864 -0.7756
  158PROXR  H33 1281  13.919  13.653  10.934 -0.9521  0.3256  0.7148
  159PROXR   O1 1282  13.858  13.933  10.764 -0.0534 -0.2953  0.4552
  159PROXR   C1 1283  13.829  14.074  10.772  0.2819  0.2061 -0.0408
  159PROXR  H11 1284  13.747  14.076  10.847  0.8714 -0.7568  0.6420
  159PROXR  H13 1285  13.912  14.136  10.812  0.2222  0.6926 -0.6535
  159PROXR   C2 1286  13.772  14.136  10.639 -0.0694 -0.0878 -0.4720
  159PROXR  H21 1287  13.663  14.116  10.634 -0.2864  0.6474  0.8591
  159PROXR   C3 1288  13.854  14.090  10.519 -0.1861  0.3905  0.0698
  159PROXR  H31 1289  13.861  13.979  10.526 -0.9698 -0.0227 -3.5684
  159PROXR  H32 1290  13.801  14.115  10.425 -0.3455  1.1127  0.3482
  159PROXR  H33 1291  13.963  14.115  10.516  0.4696 -1.9319  1.6232
  160PROXS   O1 1292  13.785  14.279  10.647  0.0606  0.6485 -0.6319
  160PROXS   C1 1293  13.702  14.346  10.551  0.0360 -0.0402  0.0815
  160PROXS  H11 1294  13.750  14.340  10.451  0.9128 -1.1475  0.5428
  160PROXS  H13 1295  13.597  14.308  10.547  0.7966 -2.2673 -0.0283
  160PROXS   C2 1296  13.688  14.496  10.593  0.2298  0.1903  0.8423
  160PROXS  H21 1297  13.789  14.533  10.618  0.7933  0.0177 -1.0227
  160PROXS   C3 1298  13.609  14.492  10.731 -0.7482 -0.4694  0.7348
  160PROXS  H31 1299  13.576  14.596  10.751  0.3175  0.4975 -2.1262
  160PROXS  H32 1300  13.522  14.423  10.740 -0.1259 -1.5502 -1.0261
  160PROXS  H33 1301  13.685  14.451  10.802  2.2202  1.4722 -1.0924
  161PROXR   O1 1302  13.617  14.570  10.492 -0.1379 -0.9284  0.1937
  161PROXR   C1 1303  13.697  14.640  10.396  0.9172  0.1778  0.6361
  161PROXR  H11 1304  13.758  14.719  10.445 -1.0238  0.8204  2.1747
  161PROXR  H13 1305  13.745  14.568  10.327  1.2732  0.8199  0.2084
  161PROXR   C2 1306  13.597  14.717  10.303 -0.6860 -0.3649 -0.5084
  161PROXR  H21 1307  13.548  14.796  10.364  3.7949 -0.4434  3.8378
  161PROXR   C3 1308  13.489  14.631  10.242  0.3916  1.0527 -0.0217
  161PROXR  H31 1309  13.422  14.586  10.318  1.1077 -0.7820 -0.4265
  161PROXR  H32 1310  13.416  14.694  10.186  1.0287  1.2999 -0.5895
  161PROXR  H33 1311  13.529  14.552  10.175 -1.5781  0.6382 -0.7763
  162PROXR   O1 1312  13.667  14.769  10.190  0.1185 -0.4684  0.5015
  162PROXR   C1 1313  13.748  14.882  10.220  0.5357  0.2138 -0.2984
  162PROXR  H11 1314  13.675  14.945  10.274 -0.3491 -0.1992 -0.9831
  162PROXR  H13 1315  13.848  14.864  10.266  0.2354  2.6457  1.5259
  162PROXR   C2 1316  13.774  14.962  10.085  0.2897  0.3490  0.6905
  162PROXR  H21 1317  13.675  14.988  10.044  0.0206 -0.2847  0.9277
  162PROXR   C3 1318  13.844  14.882   9.967  0.4419 -0.0290  0.1816
  162PROXR  H31 1319  13.767  14.821   9.915 -0.6150  0.7759  0.7435
  162PROXR  H32 1320  13.888  14.944   9.887  0.6388 -2.0077 -1.2964
  162PROXR  H33 1321  13.917  14.808  10.005 -0.6419 -0.7137  1.0033
  163PROXS   O1 1322  13.853  15.076  10.119  0.3102  0.4689  0.0769
  163PROXS   C1 1323  13.862  15.173  10.017 -0.2067  0.5427 -0.1275
  163PROXS  H11 1324  13.950  15.165   9.950 -1.4918 -0.2393 -1.7933
  163PROXS  H13 1325  13.761  15.171   9.971 -0.1306  0.1271 -0.2829
  163PROXS   C2 1326  13.897  15.315  10.082 -0.6591  0.2928 -0.2746
  163PROXS  H21 1327  13.980  15.292  10.154 -2.6941 -0.8580  1.8426
  163PROXS   C3 1328  13.769  15.369  10.153 -0.4763  0.4081  0.0149
  163PROXS  H31 1329  13.683  15.377  10.084 -0.8630  1.8536  0.6230
  163PROXS  H32 1330  13.733  15.296  10.228  0.0808 -0.2710 -0.3643
  163PROXS  H33 1331  13.794  15.465  10.203  1.8306 -0.4174  0.5811
  164PROXR   O1 1332  13.933  15.409   9.981  0.1316 -0.2337 -0.7603
  164PROXR   C1 1333  14.012  15.519  10.031 -0.2627 -0.6302  0.4652
  164PROXR  H11 1334  13.965  15.583  10.108  2.5529  0.7017  1.2164
  164PROXR  H13 1335  14.102  15.469  10.073 -0.0462 -0.4612  0.2089
  164PROXR   C2 1336  14.065  15.609   9.913 -0.6220 -0.3400 -0.0979
  164PROXR  H21 1337  13.981  15.650   9.852  0.4045  1.7676 -0.1926
  164PROXR   C3 1338  14.146  15.528   9.815  0.7339 -0.1846  0.2659
  164PROXR  H31 1339  14.167  15.575   9.716  0.6382 -1.2432 -0.2789
  164PROXR  H32 1340  14.242  15.507   9.867 -0.1664 -0.3355  1.9107
  164PROXR  H33 1341  14.099  15.431   9.787 -1.4983  0.5620  1.1937
  165PROXR   O1 1342  14.153  15.713   9.953  0.0506 -0.8813 -0.4598
  165PROXR   C1 1343  14.087  15.805  10.037  0.3774 -0.3470  0.4598
  165PROXR  H11 1344  13.982  15.806  10.003  0.3144 -2.9422  0.3895
  165PROXR  H13 1345  14.082  15.757  10.138  0.2541 -0.7945  0.2443
  165PROXR   C2 1346  14.161  15.942  10.057 -0.9155  0.9112  0.2405
  165PROXR  H21 1347  14.266  15.911  10.071 -1.2357 -0.8098 -0.8918
  165PROXR   C3 1348  14.102  16.021  10.175  0.1123  0.5158  0.1329
  165PROXR  H31 1349  14.144  16.121  10.202 -1.8038  1.0155  1.4346
  165PROXR  H32 1350  13.999  16.051  10.148 -0.0078  0.6341  0.7097
  165PROXR  H33 1351  14.106  15.953  10.263 -3.0383  0.1977  0.1143
  166ETHOX   O1 1352  14.143  16.018   9.941  0.0032 -0.1435 -0.4507
  166ETHOX   C1 1353  14.202  15.969   9.820  0.3644 -0.4079 -1.0132
  166ETHOX  H11 1354  14.150  15.879   9.780  0.2104 -1.0199  0.5094
  166ETHOX  H13 1355  14.308  15.944   9.841  0.6278 -0.1925 -2.0187
  166ETHOX   C2 1356  14.216  16.059   9.701  0.2135 -0.4652  0.1297
  166ETHOX  H21 1357  14.121  16.115   9.690 -0.4509 -1.5598  0.2578
  166ETHOX  H23 1358  14.247  16.006   9.608 -0.9317 -2.5239  0.8670
  167ETHOX   O1 1359  14.321  16.146   9.725 -0.2933  0.4036 -0.2774
  167ETHOX   C1 1360  14.304  16.280   9.674  0.1160  0.4062  0.3996
  167ETHOX  H11 1361  14.269  16.262   9.570 -1.0728  0.3733  0.7915
  167ETHOX  H13 1362  14.217  16.323   9.728 -1.2262  1.6789 -2.5479
  167ETHOX   C2 1363  14.419  16.376   9.675  0.4436 -0.1757  0.2927
  167ETHOX  H21 1364  14.445  16.391   9.782  2.5489  0.3954 -0.2386
  167ETHOX  H23 1365  14.380  16.474   9.644 -0.8348 -0.6428  0.3831
  168ETHOX   O1 1366  14.538  16.331   9.614 -0.5055  0.0736  0.1331
  168ETHOX   C1 1367  14.538  16.343   9.469 -0.5997 -0.0879  1.0579
  168ETHOX  H11 1368  14.487  16.431   9.426 -1.0213 -1.0014 -0.3928
  168ETHOX  H13 1369  14.468  16.261   9.443  0.5303 -0.7955  0.0810
  168ETHOX   C2 1370  14.672  16.314   9.400 -0.1458  0.2547 -0.1402
  168ETHOX  H21 1371  14.657  16.284   9.294  1.0493  1.1073 -0.5719
  168ETHOX  H23 1372  14.720  16.236   9.464  1.4930  1.0273 -0.3743
  169ETHOX   O1 1373  14.743  16.439   9.405  0.1630  0.6066 -0.2582
  169ETHOX   C1 1374  14.884  16.427   9.366 -0.3483  0.3178 -0.3621
  169ETHOX  H11 1375  14.935  16.337   9.406 -0.0108  0.4329 -0.5232
  169ETHOX  H13 1376  14.885  16.412   9.256  1.3597  2.0559 -0.6477
  169ETHOX   C2 1377  14.966  16.550   9.397  0.4480 -0.1965  0.6773
  169ETHOX  H21 1378  14.919  16.643   9.359  1.5494  0.0714 -0.0614
  169ETHOX  H23 1379  15.069  16.551   9.356  0.4334  0.4565  0.6537
  170ETHOX   O1 1380  14.975  16.564   9.547 -0.1494  0.1053 -0.5399
  170ETHOX   C1 1381  15.039  16.693   9.574 -0.4765  0.0971 -0.4550
  170ETHOX  H11 1382  14.979  16.771   9.522 -0.3480  1.1539  0.9342
  170ETHOX  H13 1383  15.140  16.689   9.529 -0.2006  0.4978  0.1240
  170ETHOX   C2 1384  15.054  16.728   9.724 -0.2846 -0.1426  0.6011
  170ETHOX  H21 1385  14.953  16.714   9.769  0.1579 -1.0703  1.3209
  170ETHOX  H23 1386  15.086  16.835   9.729  0.8215 -0.5143  2.0384
  171ETHOX   O1 1387  15.154  16.646   9.782 -0.3915  0.3372  0.5148
  171ETHOX   C1 1388  15.177  16.705   9.916  0.0074  0.3431  0.0857
  171ETHOX  H11 1389  15.206  16.811   9.898 -0.7983  0.9035  1.8475
  171ETHOX  H13 1390  15.083  16.712   9.975  1.8503  3.9392  2.9850
  171ETHOX   C2 1391  15.293  16.641   9.993  0.8481  0.7211  0.3175
  171ETHOX  H21 1392  15.269  16.535  10.017  2.7408 -0.8018 -3.6299
  171ETHOX  H23 1393  15.306  16.703  10.084 -2.6813  0.6629  1.0125
  172ETHOX   O1 1394  15.409  16.624   9.916 -0.5856  0.0872 -0.0337
  172ETHOX   C1 1395  15.510  16.553   9.991  0.6233 -0.0225 -0.5457
  172ETHOX  H11 1396  15.464  16.470  10.049 -1.0730  1.8177  0.9148
  172ETHOX  H13 1397  15.552  16.620  10.069  0.2961 -1.4268  0.8903
  172ETHOX   C2 1398  15.628  16.516   9.898 -0.1015  0.3674  0.4492
  172ETHOX  H21 1399  15.590  16.482   9.800  0.1532  2.7588 -0.5352
  172ETHOX  H23 1400  15.683  16.428   9.936  0.0887 -0.2643 -1.2067
  173ETHOX   O1 1401  15.725  16.621   9.896 -0.7366 -0.1105 -0.1380
  173ETHOX   C1 1402  15.702  16.691   9.778 -0.0606 -0.3258  0.6506
  173ETHOX  H11 1403  15.726  16.616   9.700  0.6263  0.5328  0.0123
  173ETHOX  H13 1404  15.598  16.731   9.773  0.0310 -0.2611 -1.9116
  173ETHOX   C2 1405  15.797  16.807   9.774  0.0324 -0.3089  0.3724
  173ETHOX  H21 1406  15.898  16.767   9.799 -0.6358 -2.4784 -0.2606
  173ETHOX  H23 1407  15.806  16.841   9.668 -0.2526  2.2344  1.0954
  174ETHOX   O1 1408  15.751  16.916   9.856 -0.2243  0.6471 -0.2215
  174ETHOX   C1 1409  15.809  17.042   9.818 -0.6028  0.3178  0.1313
  174ETHOX  H11 1410  15.783  17.057   9.711 -2.4126 -3.0799 -0.0627
  174ETHOX  H13 1411  15.757  17.127   9.867  0.2182  0.3143  1.0420
  174ETHOX   C2 1412  15.948  17.075   9.857  0.2310 -0.0738 -0.9086
  174ETHOX  H21 1413  15.989  17.166   9.809  0.2815  0.0921 -0.5565
  174ETHOX  H23 1414  16.021  16.999   9.823  1.4896  0.6833  0.0241
  175ETHOX   O1 1415  15.943  17.083   9.997 -0.2598  0.3180 -0.1590
  175ETHOX   C1 1416  16.050  17.155  10.054 -0.0177 -0.6617  0.0630
  175ETHOX  H11 1417  16.149  17.113  10.029  0.0790  0.1627 -1.0245
  175ETHOX  H13 1418  16.044  17.256  10.008 -0.2881 -0.0446  1.4189
  175ETHOX   C2 1419  16.055  17.179  10.202  0.5840  0.1753 -0.2870
  175ETHOX  H21 1420  15.971  17.245  10.232 -0.9612 -1.8048 -0.0100
  175ETHOX  H23 1421  16.147  17.239  10.217  0.4698  0.5761 -1.1399
  176ETHOX   O1 1422  16.067  17.067  10.287  0.9499  0.2350 -0.5331
  176ETHOX   C1 1423  16.190  16.987  10.271 -0.1554 -0.4849 -0.0508
  176ETHOX  H11 1424  16.192  16.943  10.169  2.7156 -0.7861  0.0688
  176ETHOX  H13 1425  16.277  17.053  10.291 -1.8942  2.2825 -0.9111
  176ETHOX   C2 1426  16.192  16.864  10.359  0.2349  0.3834 -0.4632
  176ETHOX  H21 1427  16.294  16.821  10.352 -0.1133 -0.4166 -0.7446
  176ETHOX  H23 1428  16.126  16.793  10.305  0.8224 -0.1551 -0.4838
  177ETHOX   O1 1429  16.158  16.897  10.498 -0.3732  0.3485 -0.1566
  177ETHOX   C1 1430  16.143  16.780  10.578  0.2923  0.5197  0.5990
  177ETHOX  H11 1431  16.141  16.805  10.687  1.3508 -1.3983  1.1027
  177ETHOX  H13 1432  16.222  16.704  10.561 -0.2290 -0.5713  2.6086
  177ETHOX   C2 1433  15.999  16.708  10.543 -0.0746  0.8021  0.4421
  177ETHOX  H21 1434  16.011  16.631  10.464  2.0402  0.2548  1.2397
  177ETHOX  H23 1435  15.931  16.789  10.508  0.1451  1.1225  0.7445
  178ETHOX   O1 1436  15.945  16.646  10.660 -0.1163 -0.4550  0.1953
  178ETHOX   C1 1437  15.996  16.513  10.673  0.2930  0.4788  0.0744
  178ETHOX  H11 1438  15.997  16.455  10.578 -1.6090 -0.3516  0.5244
  178ETHOX  H13 1439  16.103  16.521  10.702  0.8777  1.4647 -2.1659
  178ETHOX   C2 1440  15.937  16.413  10.786 -1.0397 -0.0099  0.9056
  178ETHOX  H21 1441  15.995  16.319  10.773 -3.0799 -0.8912 -3.8159
  178ETHOX  H23 1442  15.832  16.384  10.764 -0.6948  0.7996 -2.3672
  179ETHOX   O1 1443  15.948  16.471  10.912 -0.1262  0.3241  0.3587
  179ETHOX   C1 1444  15.952  16.371  11.014  0.0423  0.5961  0.3965
  179ETHOX  H11 1445  16.045  16.394  11.071  0.9808 -1.4350 -0.1997
  179ETHOX  H13 1446  15.964  16.268  10.974 -2.9699  0.8020 -1.3313
  179ETHOX   C2 1447  15.817  16.366  11.085  0.0905  0.5324  0.4914
  179ETHOX  H21 1448  15.798  16.468  11.123  1.4042  0.4455  1.4726
  179ETHOX  H23 1449  15.804  16.310  11.180 -2.2021 -0.2172 -0.1978
  180ETHOX   O1 1450  15.712  16.325  10.999  0.2941 -0.1859 -0.2990
  180ETHOX   C1 1451  15.582  16.349  11.041  0.2509  0.7053 -0.4216
  180ETHOX  H11 1452  15.567  16.450  11.086 -1.2294  0.3939 -0.1785
  180ETHOX  H13 1453  15.507  16.344  10.959  0.2961  0.2424 -0.4340
  180ETHOX   C2 1454  15.537  16.249  11.145 -0.4409  0.0329  0.5664
  180ETHOX  H21 1455  15.608  16.243  11.230  1.3006  1.7522 -0.6929
  180ETHOX  H23 1456  15.544  16.153  11.089 -0.3968  0.8068 -0.7788
  181ETHOX   O1 1457  15.412  16.273  11.204 -0.0168 -0.1499 -0.6829
  181ETHOX   C1 1458  15.312  16.235  11.117 -0.3000  0.0516 -0.2816
  181ETHOX  H11 1459  15.334  16.160  11.038 -1.3993 -1.1558  0.5263
  181ETHOX  H13 1460  15.289  16.328  11.060  0.7907  2.1225  2.4242
  181ETHOX   C2 1461  15.174  16.195  11.186 -0.4210  0.0798 -0.5771
  181ETHOX  H21 1462  15.152  16.280  11.254  0.3039  0.8507 -1.2622
  181ETHOX  H23 1463  15.206  16.103  11.239  1.3459  0.8909 -0.1441
  182ETHOX   O1 1464  15.070  16.185  11.090 -0.0726  0.8425 -0.5329
  182ETHOX   C1 1465  15.077  16.062  11.017  1.0761  0.0582  0.4598
  182ETHOX  H11 1466  15.180  16.031  10.992  0.5689 -0.9114 -0.5363
  182ETHOX  H13 1467  15.034  15.978  11.076  1.1143 -1.5939 -1.7429
  182ETHOX   C2 1468  14.995  16.068  10.885 -0.8592 -0.1745 -0.6285
  182ETHOX  H21 1469  15.016  15.976  10.827  1.7430  0.0831 -0.2188
  182ETHOX  H23 1470  15.047  16.147  10.826 -0.1062 -1.6558 -2.0222
  183ETHOX   O1 1471  14.860  16.092  10.902 -0.1161 -0.1839  0.6897
  183ETHOX   C1 1472  14.789  16.118  10.775  0.1265  0.1165 -0.0209
  183ETHOX  H11 1473  14.812  16.027  10.714  0.8273 -1.1480  2.0430
  183ETHOX  H13 1474  14.828  16.204  10.717  1.5896 -1.7917 -2.0592
  183ETHOX   C2 1475  14.640  16.110  10.787  1.0760  0.5084 -0.2932
  183ETHOX  H21 1476  14.599  16.028  10.850 -0.0184  1.1693 -0.1115
  183ETHOX  H23 1477  14.594  16.101  10.686 -0.6580  2.9133  0.1675
  184ETHOX   O1 1478  14.599  16.237  10.841  0.3449  0.2104  0.0470
  184ETHOX   C1 1479  14.544  16.219  10.970  0.2496 -0.9065 -0.0264
  184ETHOX  H11 1480  14.449  16.163  10.957  0.1847 -0.9154  0.4681
  184ETHOX  H13 1481  14.605  16.168  11.048  1.9054 -1.6678 -1.7454
  184ETHOX   C2 1482  14.497  16.358  11.013  0.0183  0.0244 -0.0657
  184ETHOX  H21 1483  14.464  16.423  10.929  1.2196 -0.1161 -0.6639
  184ETHOX  H23 1484  14.579  16.411  11.066 -0.8375  1.5486 -0.1787
  185ETHOX   O1 1485  14.394  16.344  11.110  0.3979  0.8595 -0.2511
  185ETHOX   C1 1486  14.359  16.467  11.160 -0.2112  0.0410 -0.3368
  185ETHOX  H11 1487  14.441  16.498  11.229  0.3979 -2.5469  0.2065
  185ETHOX  H13 1488  14.341  16.542  11.080 -1.6752 -0.5073 -0.5472
  185ETHOX   C2 1489  14.229  16.456  11.240  0.2026  1.0485 -0.9823
  185ETHOX  H21 1490  14.154  16.415  11.170  0.4282 -0.2526 -0.4798
  185ETHOX  H23 1491  14.197  16.550  11.290 -1.5365 -1.0924  2.2537
  186ETHOX   O1 1492  14.226  16.364  11.346 -0.1226  0.1197 -1.2935
  186ETHOX   C1 1493  14.103  16.364  11.424  0.4414  0.0662 -0.2566
  186ETHOX  H11 1494  14.081  16.455  11.485 -2.8475 -0.1478 -0.9340
  186ETHOX  H13 1495  14.019  16.361  11.351 -0.2786 -0.1203  0.5684
  186ETHOX   C2 1496  14.105  16.238  11.515  0.4703  0.7179  0.6937
  186ETHOX  H21 1497  14.139  16.160  11.444 -0.5681  0.0418  0.9122
  186ETHOX  H23 1498  14.009  16.197  11.554  1.1373 -0.7116  0.9112
  187ETHOX   O1 1499  14.191  16.248  11.627  0.3828  0.4712 -0.3407
  187ETHOX   C1 1500  14.319  16.201  11.605 -0.2103 -0.2427  0.1468
  187ETHOX  H11 1501  14.326  16.093  11.578  3.4701 -0.6323  2.0957
  187ETHOX  H13 1502  14.363  16.259  11.522 -0.7483 -0.2519 -0.1531
  187ETHOX   C2 1503  14.405  16.220  11.727 -0.3079 -0.0841  0.2143
  187ETHOX  H21 1504  14.490  16.149  11.727  0.2653  0.5432 -1.3502
  187ETHOX  H23 1505  14.338  16.191  11.811 -0.4636  1.3876  0.6325
  188ETHOX   O1 1506  14.446  16.359  11.733  0.1413  0.1075  0.6590
  188ETHOX   C1 1507  14.510  16.391  11.852 -0.1571  0.5843 -0.6423
  188ETHOX  H11 1508  14.583  16.314  11.885 -0.1688  1.4968  1.6790
  188ETHOX  H13 1509  14.439  16.408  11.936  0.3685  1.1029 -0.3020
  188ETHOX   C2 1510  14.582  16.525  11.834  0.2956  0.4877 -0.1972
  188ETHOX  H21 1511  14.515  16.611  11.858 -0.9294 -0.5714  0.3459
  188ETHOX  H23 1512  14.602  16.534  11.726  0.1603 -1.2533 -0.4015
  189ETHOX   O1 1513  14.686  16.514  11.923 -0.5369 -0.4740  0.6656
  189ETHOX   C1 1514  14.760  16.632  11.911 -0.9569 -0.0725 -0.1831
  189ETHOX  H11 1515  14.784  16.654  11.804  2.4761 -1.0022  0.2773
  189ETHOX  H13 1516  14.707  16.715  11.962 -0.8549 -0.1918  0.1185
  189ETHOX   C2 1517  14.899  16.612  11.973 -0.2008  0.5310  0.2964
  189ETHOX  H21 1518  14.975  16.683  11.933  0.7496  0.0405  1.1839
  189ETHOX  H23 1519  14.943  16.513  11.951  1.1977  1.2523 -0.3057
  190ETHOX   O1 1520  14.890  16.618  12.115  0.4875  0.3928 -0.2533
  190ETHOX   C1 1521  15.008  16.572  12.179  0.1139  0.5315 -0.5977
  190ETHOX  H11 1522  15.014  16.462  12.166  0.1916  0.4546  0.0447
  190ETHOX  H13 1523  14.995  16.592  12.288 -0.5702  0.9654 -0.7556
  190ETHOX   C2 1524  15.141  16.638  12.143 -0.0893  1.2589  0.5443
  190ETHOX  H21 1525  15.143  16.690  12.045  1.4351  1.5452  0.7016
  190ETHOX  H23 1526  15.215  16.556  12.161 -1.9868 -0.3115  1.5847
  191ETHOX   O1 1527  15.166  16.739  12.236  0.3845 -0.2874  0.8744
  191ETHOX   C1 1528  15.235  16.706  12.357  0.3662  0.4497 -0.1840
  191ETHOX  H11 1529  15.167  16.636  12.411  0.5578 -0.6643 -1.3342
  191ETHOX  H13 1530  15.326  16.652  12.323 -0.2517 -0.7290 -0.0362
  191ETHOX   C2 1531  15.274  16.832  12.427  0.0629 -0.2498 -0.0611
  191ETHOX  H21 1532  15.290  16.809  12.534  0.8569  1.2381  0.1728
  191ETHOX  H23 1533  15.200  16.912  12.406  1.3313  1.7092  2.3305
  192ETHOX   O1 1534  15.407  16.881  12.381  0.3312  1.2248  0.2675
  192ETHOX   C1 1535  15.427  17.009  12.434 -0.3089 -0.2353 -0.0270
  192ETHOX  H11 1536  15.458  16.988  12.539 -0.6528  1.0231  0.3349
  192ETHOX  H13 1537  15.332  17.066  12.440 -0.6334 -0.5960 -1.3856
  192ETHOX   C2 1538  15.537  17.083  12.362  0.2156 -0.1595  0.4429
  192ETHOX  H21 1539  15.564  17.188  12.384  0.6523  0.3556 -2.1283
  192ETHOX  H23 1540  15.517  17.081  12.252  1.7308 -1.7452  0.1473
  193ETHOX   O1 1541  15.659  17.008  12.385  0.0171 -0.4150  0.2941
  193ETHOX   C1 1542  15.731  17.056  12.501  0.0320 -0.2288  0.1579
  193ETHOX  H11 1543  15.747  17.165  12.486 -2.8836  0.0774 -1.4696
  193ETHOX  H13 1544  15.679  17.061  12.598 -0.4863  1.7315 -0.1674
  193ETHOX   C2 1545  15.863  16.987  12.523 -0.6164 -0.1130 -0.1819
  193ETHOX  H21 1546  15.929  17.035  12.598  1.2535 -0.6348 -1.4295
  193ETHOX  H23 1547  15.921  17.003  12.430 -1.3396  0.4823 -0.5414
  194ETHOX   O1 1548  15.842  16.843  12.552  0.4936 -0.0674  0.1544
  194ETHOX   C1 1549  15.951  16.774  12.604 -0.1743  0.7467 -0.2208
  194ETHOX  H11 1550  15.926  16.681  12.660  1.4768 -0.0017 -0.6920
  194ETHOX  H13 1551  15.994  16.832  12.689  0.4249 -0.0026  0.0031
  194ETHOX   C2 1552  16.055  16.742  12.494 -0.2528  0.0365 -1.1370
  194ETHOX  H21 1553  16.147  16.709  12.547  0.0331  1.8093 -0.4325
  194ETHOX  H23 1554  16.079  16.830  12.430  0.7117  0.3886 -0.3307
  195ETHOX   O1 1555  16.003  16.633  12.421 -0.1362  0.3545  0.0877
  195ETHOX   C1 1556  16.077  16.619  12.301 -0.3744  0.3273 -0.4605
  195ETHOX  H11 1557  16.083  16.713  12.243  1.0936  1.4697  1.4194
  195ETHOX  H13 1558  16.182  16.586  12.317  0.0136  0.8964 -1.7098
  195ETHOX   C2 1559  15.998  16.518  12.215  0.2751  0.2447  0.5983
  195ETHOX  H21 1560  16.030  16.530  12.109 -0.6748  1.7045  0.4428
  195ETHOX  H23 1561  15.888  16.532  12.222  0.3143 -0.0543  1.9957
  196ETHOX   O1 1562  16.026  16.384  12.258  0.0279  0.0801 -1.4091
  196ETHOX   C1 1563  15.988  16.276  12.173  0.0697  0.1398  0.1638
  196ETHOX  H11 1564  16.053  16.286  12.083  0.8354 -0.8134  0.5862
  196ETHOX  H13 1565  16.013  16.181  12.226 -1.8425  0.4037  1.6458
  196ETHOX   C2 1566  15.841  16.256  12.124  0.5642  0.1478  0.1455
  196ETHOX  H21 1567  15.844  16.167  12.058  1.2934 -3.1062  4.1192
  196ETHOX  H23 1568  15.813  16.352  12.074 -0.5939 -0.5251 -0.5253
  197ETHOX   O1 1569  15.754  16.225  12.232  0.4474 -0.3273 -0.4381
  197ETHOX   C1 1570  15.629  16.185  12.184  0.8189  0.1765  0.0257
  197ETHOX  H11 1571  15.579  16.265  12.126 -1.8169 -0.8236  0.7951
  197ETHOX  H13 1572  15.638  16.102  12.110 -1.2416  0.5989 -0.7724
  197ETHOX   C2 1573  15.553  16.164  12.311  0.3869 -0.1685 -0.0669
  197ETHOX  H21 1574  15.447  16.146  12.283  0.3032  0.1751  0.0147
  197ETHOX  H23 1575  15.553  16.259  12.370 -0.9095  1.3895 -2.4095
  198ETHOX   O1 1576  15.605  16.058  12.393  0.2322 -0.5428  0.7486
  198ETHOX   C1 1577  15.506  16.021  12.492 -0.3500 -0.7509  0.1804
  198ETHOX  H11 1578  15.502  16.099  12.571  1.9968  2.4872 -2.5566
  198ETHOX  H13 1579  15.407  16.001  12.444 -0.8229 -0.2850  0.9323
  198ETHOX   C2 1580  15.550  15.897  12.567 -0.2185  0.2656  0.7100
  198ETHOX  H21 1581  15.503  15.905  12.667  0.5123  3.0883  0.8903
  198ETHOX  H23 1582  15.660  15.882  12.565 -0.5938 -3.5305  0.2239
  199ETHOX   O1 1583  15.503  15.775  12.510  0.0072  0.0270  0.3442
  199ETHOX   C1 1584  15.545  15.663  12.591  0.2410 -0.4516  0.1312
  199ETHOX  H11 1585  15.488  15.688  12.684 -2.4679  4.1286 -2.3683
  199ETHOX  H13 1586  15.653  15.664  12.617  0.0461 -2.1770  1.1760
  199ETHOX   C2 1587  15.490  15.544  12.524  0.2475  0.2236  0.0718
  199ETHOX  H21 1588  15.394  15.573  12.475  0.2854  0.3343  0.0609
  199ETHOX  H23 1589  15.448  15.472  12.598  1.3406 -3.2393 -2.3960
  200ETHOX   O1 1590  15.590  15.472  12.450  0.3264  0.5505  0.0161
  200ETHOX   C1 1591  15.536  15.369  12.360 -0.2950  0.4701  0.4152
  200ETHOX  H11 1592  15.447  15.313  12.398 -0.4956  0.7110  0.3004
  200ETHOX  H13 1593  15.492  15.421  12.273  0.5416 -0.5490 -0.6493
  200ETHOX   C2 1594  15.648  15.271  12.325  0.6621 -0.2882 -0.6582
  200ETHOX  H21 1595  15.613  15.168  12.303 -0.2915 -0.6406  2.0898
  200ETHOX  H23 1596  15.704  15.278  12.421 -0.7807 -0.6638  0.2455
  201ETHOX   O1 1597  15.719  15.319  12.214 -0.5951 -0.0729 -0.0355
  201ETHOX   C1 1598  15.833  15.239  12.207 -0.1762  0.3741  0.7077
  201ETHOX  H11 1599  15.831  15.189  12.108 -0.7317 -1.8085  1.7856
  201ETHOX  H13 1600  15.836  15.162  12.286 -0.7297  0.8198  1.1761
  201ETHOX   C2 1601  15.964  15.309  12.223  0.1297 -0.1398  0.3153
  201ETHOX  H21 1602  15.954  15.399  12.158  0.0331 -0.6011 -0.3114
  201ETHOX  H23 1603  16.045  15.240  12.190 -1.6279 -2.2001  0.0709
  202ETHOX   O1 1604  15.987  15.337  12.364 -0.5371 -0.7688  1.0194
  202ETHOX   C1 1605  16.107  15.409  12.380 -0.5102 -0.2784 -0.6860
  202ETHOX  H11 1606  16.193  15.352  12.339 -0.7128  0.2566 -1.8971
  202ETHOX  H13 1607  16.091  15.502  12.321 -1.6216 -0.6781 -1.0387
  202ETHOX   C2 1608  16.131  15.436  12.531 -0.2185 -0.3331 -0.5141
  202ETHOX  H21 1609  16.236  15.470  12.545 -0.4338  0.2358 -0.2596
  202ETHOX  H23 1610  16.114  15.336  12.575 -0.8468 -1.1859 -2.5973
  203ETHOX   O1 1611  16.035  15.534  12.579  0.2341 -0.7975 -0.5187
  203ETHOX   C1 1612  16.044  15.562  12.718 -0.0495 -0.1826 -0.6593
  203ETHOX  H11 1613  16.144  15.603  12.744 -0.8805  0.6437  1.4232
  203ETHOX  H13 1614  16.042  15.462  12.768  0.7608 -1.2566 -2.6380
  203ETHOX   C2 1615  15.951  15.664  12.770  1.2329  0.4317  0.1322
  203ETHOX  H21 1616  15.967  15.746  12.697  0.9844 -1.2996 -1.9704
  203ETHOX  H23 1617  15.970  15.687  12.877  0.5166  1.9406 -0.0346
  204ETHOX   O1 1618  15.817  15.615  12.782 -0.3440 -0.6273  0.7822
  204ETHOX   C1 1619  15.737  15.685  12.876 -0.0062 -0.8363  0.3312
  204ETHOX  H11 1620  15.793  15.727  12.962  1.0470  3.3375 -2.1180
  204ETHOX  H13 1621  15.708  15.781  12.828 -0.1397  0.2015  2.3835
  204ETHOX   C2 1622  15.629  15.600  12.938  0.3107 -0.8522  0.1631
  204ETHOX  H21 1623  15.580  15.541  12.857 -0.7562 -1.5539  1.2949
  204ETHOX  H23 1624  15.549  15.667  12.977 -0.5249 -0.8536 -1.4269
  205ETHOX   O1 1625  15.685  15.515  13.038  0.1926 -0.2733  0.0509
  205ETHOX   C1 1626  15.588  15.455  13.119 -0.0715  0.0949 -0.9143
  205ETHOX  H11 1627  15.516  15.402  13.053  1.5325 -0.3721 -2.3621
  205ETHOX  H13 1628  15.532  15.535  13.174 -1.0999 -1.7638  0.8995
  205ETHOX   C2 1629  15.636  15.360  13.229 -0.2306 -0.3076 -0.0314
  205ETHOX  H21 1630  15.541  15.315  13.264  0.4673 -1.6410  0.1788
  205ETHOX  H23 1631  15.680  15.412  13.317 -0.4210  0.1322 -0.1927
  206ETHOX   O1 1632  15.719  15.261  13.170 -0.4656 -0.3653  0.0590
  206ETHOX   C1 1633  15.752  15.159  13.256  0.6420  0.8821 -0.4552
  206ETHOX  H11 1634  15.822  15.181  13.339  0.4564 -1.6671  0.4848
  206ETHOX  H13 1635  15.656  15.140  13.309  2.9034 -2.2809  3.0459
  206ETHOX   C2 1636  15.809  15.030  13.183 -0.0042  0.2665  1.0126
  206ETHOX  H21 1637  15.903  15.048  13.127  0.4588  0.3815  1.8049
  206ETHOX  H23 1638  15.848  14.952  13.252  2.1542 -1.0775 -1.5336
  207ETHOX   O1 1639  15.718  14.962  13.098  0.0684  0.3206  0.7014
  207ETHOX   C1 1640  15.783  14.852  13.029 -0.9041  0.3260  0.2811
  207ETHOX  H11 1641  15.698  14.791  12.992 -0.5035 -0.2067  0.2352
  207ETHOX  H13 1642  15.840  14.788  13.100  0.4631 -0.4869 -1.4682
  207ETHOX   C2 1643  15.866  14.877  12.906  0.8505  0.0023  0.6190
  207ETHOX  H21 1644  15.936  14.793  12.889 -0.8001 -1.0969 -1.1166
  207ETHOX  H23 1645  15.920  14.972  12.928 -1.4291  1.2518  1.1501
  208ETHOX   O1 1646  15.782  14.897  12.794 -0.0094  0.2952  0.0291
  208ETHOX   C1 1647  15.855  14.978  12.699  0.3040 -0.5380  0.0764
  208ETHOX  H11 1648  15.859  15.077  12.748 -0.0475 -0.0201 -0.9042
  208ETHOX  H13 1649  15.955  14.933  12.685 -0.0495 -0.9509 -1.3099
  208ETHOX   C2 1650  15.783  15.005  12.571  0.0798 -0.4801 -0.2345
  208ETHOX  H21 1651  15.833  15.096  12.531  1.8868 -1.6740 -0.8019
  208ETHOX  H23 1652  15.683  15.050  12.586 -0.4215 -1.1983 -1.3136
  209ETHOX   O1 1653  15.787  14.896  12.475  1.0772 -0.3601 -0.6282
  209ETHOX   C1 1654  15.661  14.837  12.470  0.4246 -0.3056  0.3593
  209ETHOX  H11 1655  15.582  14.911  12.446  2.4728  1.5103 -1.3013
  209ETHOX  H13 1656  15.644  14.782  12.564  3.2642  2.3549  2.6394
  209ETHOX   C2 1657  15.668  14.751  12.343 -0.3865 -0.0987 -0.7853
  209ETHOX  H21 1658  15.711  14.813  12.263 -1.0541 -0.7387 -1.6650
  209ETHOX  H23 1659  15.566  14.719  12.312  0.3055 -1.6793 -1.5724
  210ETHOX   O1 1660  15.751  14.637  12.358 -0.1905 -0.2871 -0.3811
  210ETHOX   C1 1661  15.757  14.561  12.238 -0.5038  0.5380 -0.1561
  210ETHOX  H11 1662  15.659  14.523  12.202 -0.3813 -2.8433  2.6062
  210ETHOX  H13 1663  15.796  14.626  12.156  0.5309  2.4108  1.7303
  210ETHOX   C2 1664  15.843  14.432  12.235  1.0159  0.5578 -0.3022
  210ETHOX  H21 1665  15.936  14.458  12.290  0.1862 -0.0115  1.4188
  210ETHOX  H23 1666  15.870  14.400  12.132  1.2565 -1.2999  0.3083
  211ETHOX   O1 1667  15.771  14.329  12.303 -0.0423  0.0164  0.6287
  211ETHOX   C1 1668  15.843  14.210  12.285 -0.8723 -0.3795 -0.0892
  211ETHOX  H11 1669  15.875  14.211  12.179  0.1113  0.6078  0.1853
  211ETHOX  H13 1670  15.941  14.204  12.337  0.5087 -0.7566 -2.5875
  211ETHOX   C2 1671  15.748  14.097  12.311 -0.6696  0.3465  0.3875
  211ETHOX  H21 1672  15.805  14.005  12.287 -0.8093 -0.0102  1.3732
  211ETHOX  H23 1673  15.662  14.101  12.242 -1.2907  1.9013  1.1865
  212ETHOX   O1 1674  15.709  14.085  12.447 -0.0342  0.7336  0.0630
  212ETHOX   C1 1675  15.637  13.961  12.475  0.6157 -0.6978 -0.9262
  212ETHOX  H11 1676  15.547  13.943  12.413 -1.8918 -1.0721  2.5263
  212ETHOX  H13 1677  15.706  13.875  12.492  0.4212 -0.6036  0.4464
  212ETHOX   C2 1678  15.576  13.978  12.627  0.2502 -0.3788 -0.1444
  212ETHOX  H21 1679  15.470  13.943  12.633 -0.1499  1.0945  2.9031
  212ETHOX  H23 1680  15.569  14.085  12.655  1.4779  0.0436 -1.3211
  213ETHOX   O1 1681  15.647  13.909  12.725  0.0179 -0.0363  0.1479
  213ETHOX   C1 1682  15.604  13.914  12.864 -0.6541 -0.4243  0.1403
  213ETHOX  H11 1683  15.500  13.952  12.872  0.2335  2.0459  0.7239
  213ETHOX  H13 1684  15.592  13.813  12.910  0.0604  0.1397  1.6096
  213ETHOX   C2 1685  15.698  13.988  12.958  0.8159 -0.0609 -0.8112
  213ETHOX  H21 1686  15.796  13.937  12.971  1.7606  2.1292  1.4749
  213ETHOX  H23 1687  15.658  13.996  13.061 -1.8485  2.8175 -1.9108
  214ETHOX   O1 1688  15.716  14.118  12.901  0.2545 -0.0620  0.0814
  214ETHOX   C1 1689  15.787  14.210  12.983 -0.1471 -0.0923 -0.7083
  214ETHOX  H11 1690  15.894  14.184  12.990 -0.4838 -1.2719  0.4195
  214ETHOX  H13 1691  15.738  14.212  13.083 -0.9871  0.0466 -1.1133
  214ETHOX   C2 1692  15.771  14.354  12.935  0.4479  0.5139  0.0562
  214ETHOX  H21 1693  15.800  14.432  13.009 -1.1562  0.5387  0.7102
  214ETHOX  H23 1694  15.661  14.370  12.934  0.3317  0.0329  1.7099
  215ETHOX   O1 1695  15.835  14.378  12.814 -0.4557 -0.3785  0.3324
  215ETHOX   C1 1696  15.828  14.515  12.776 -0.7390 -0.4606 -0.4521
  215ETHOX  H11 1697  15.724  14.553  12.768  0.0593  2.1018  0.3906
  215ETHOX  H13 1698  15.877  14.571  12.858  0.7464 -0.6579 -1.1576
  215ETHOX   C2 1699  15.905  14.542  12.643 -0.0898  0.5312 -0.1553
  215ETHOX  H21 1700  15.857  14.629  12.594  1.0446 -0.0170 -2.3791
  215ETHOX  H23 1701  15.875  14.466  12.568  1.6006 -0.2148 -0.1438
  216ETHOX   O1 1702  16.049  14.554  12.646 -0.3867  0.5503 -0.2298
  216ETHOX   C1 1703  16.116  14.429  12.681  0.3646  0.0706 -0.7549
  216ETHOX  H11 1704  16.212  14.429  12.625  1.9118 -0.0218  1.7433
  216ETHOX  H13 1705  16.071  14.334  12.647 -0.4449  0.2625 -0.2659
  216ETHOX   C2 1706  16.152  14.406  12.825 -0.0032 -0.7951 -0.1032
  216ETHOX  H21 1707  16.139  14.300  12.855  2.3401 -0.7389  1.2943
  216ETHOX  H23 1708  16.089  14.456  12.902  0.9929 -1.4355  1.1564
  217ETHOX   O1 1709  16.280  14.456  12.857  0.1111  0.6664 -0.7147
  217ETHOX   C1 1710  16.374  14.347  12.840  0.9318 -0.0904  0.1967
  217ETHOX  H11 1711  16.348  14.263  12.908 -1.3537  0.5748  0.2379
  217ETHOX  H13 1712  16.369  14.316  12.733  0.4073  1.2351 -0.1783
  217ETHOX   C2 1713  16.514  14.392  12.887  0.8026  0.0929  0.2635
  217ETHOX  H21 1714  16.590  14.317  12.855  0.5092  0.7188 -2.1449
  217ETHOX  H23 1715  16.503  14.408  12.996  0.2575 -2.3469  0.6172
  218ETHOX   O1 1716  16.558  14.505  12.820 -0.4924 -0.1709 -0.0228
  218ETHOX   C1 1717  16.688  14.539  12.863 -0.4672  0.1638  0.2139
  218ETHOX  H11 1718  16.702  14.486  12.960 -0.7027  0.4390  0.3980
  218ETHOX  H13 1719  16.692  14.648  12.884 -0.7485  0.0102  1.1421
  218ETHOX   C2 1720  16.801  14.499  12.765  0.1203  0.4532  0.0684
  218ETHOX  H21 1721  16.792  14.390  12.743  1.1798  0.6971 -1.7255
  218ETHOX  H23 1722  16.904  14.517  12.801  0.6242  0.2209 -1.1888
  219ETHOX   O1 1723  16.779  14.569  12.643  0.1949  0.0311 -0.1987
  219ETHOX   C1 1724  16.808  14.708  12.645  0.1986 -0.3192 -0.4760
  219ETHOX  H11 1725  16.752  14.762  12.725 -1.0272  0.9257 -2.1176
  219ETHOX  H13 1726  16.917  14.709  12.668  0.0224  0.1370  0.4220
  219ETHOX   C2 1727  16.784  14.780  12.509  0.2354  0.6648 -0.1389
  219ETHOX  H21 1728  16.833  14.710  12.439 -1.5078 -2.3396  1.4151
  219ETHOX  H23 1729  16.843  14.874  12.516  0.6086  0.4786 -0.7882
  220ETHOX   O1 1730  16.647  14.810  12.469  0.0540  0.2864  0.3896
  220ETHOX   C1 1731  16.632  14.852  12.337  0.4799  0.0395  1.3327
  220ETHOX  H11 1732  16.675  14.785  12.260  0.5869  1.0556  0.4775
  220ETHOX  H13 1733  16.672  14.955  12.321  0.3784 -0.2217 -0.7712
  220ETHOX   C2 1734  16.481  14.857  12.315  0.2829 -0.2165 -0.4100
  220ETHOX  H21 1735  16.451  14.916  12.226 -1.0091  0.1652  0.2576
  220ETHOX  H23 1736  16.433  14.918  12.394  0.5551 -0.5920  0.0480
  221ETHOX   O1 1737  16.439  14.718  12.322 -0.1952 -0.0433 -0.4348
  221ETHOX   C1 1738  16.296  14.701  12.332 -0.1905  0.1918 -0.5710
  221ETHOX  H11 1739  16.251  14.763  12.412 -3.4342 -1.5917 -0.8585
  221ETHOX  H13 1740  16.251  14.726  12.234 -1.6796 -0.9743 -0.2207
  221ETHOX   C2 1741  16.264  14.557  12.366  0.1474 -1.1276  0.1087
  221ETHOX  H21 1742  16.160  14.571  12.404 -0.0346 -0.5530 -0.5880
  221ETHOX  H23 1743  16.325  14.538  12.458  0.5371  1.3213  0.4273
  222ETHOX   O1 1744  16.265  14.455  12.269 -0.1740 -0.1184  0.0160
  222ETHOX   C1 1745  16.187  14.343  12.319 -0.8589  0.6845  0.2030
  222ETHOX  H11 1746  16.242  14.295  12.403 -1.5507 -3.1622 -1.3072
  222ETHOX  H13 1747  16.090  14.369  12.367 -1.2642  2.3977 -1.4321
  222ETHOX   C2 1748  16.178  14.236  12.208  0.1417  0.0882 -0.6158
  222ETHOX  H21 1749  16.148  14.132  12.237 -1.0752  0.5496 -0.1485
  222ETHOX  H23 1750  16.278  14.237  12.161 -0.1814  1.2745 -1.2915
  223ETHOX   O1 1751  16.082  14.271  12.109  0.0413 -0.7917 -0.0586
  223ETHOX   C1 1752  16.097  14.209  11.983  0.0038 -0.4916 -0.2115
  223ETHOX  H11 1753  16.170  14.268  11.924  0.9000  0.8529  2.1210
  223ETHOX  H13 1754  16.131  14.103  11.995 -0.0539 -0.5434 -0.4881
  223ETHOX   C2 1755  15.981  14.218  11.888  0.2694  0.7587  0.0844
  223ETHOX  H21 1756  15.900  14.153  11.929 -0.8967  1.0121 -1.7291
  223ETHOX  H23 1757  16.018  14.176  11.793 -0.3330  3.2975 -1.3437
  224ETHOX   O1 1758  15.949  14.353  11.861  0.0472 -0.0088 -0.8552
  224ETHOX   C1 1759  15.831  14.369  11.785  0.1890  0.0874 -0.3549
  224ETHOX  H11 1760  15.780  14.272  11.762  0.5001 -0.1277 -0.1424
  224ETHOX  H13 1761  15.762  14.412  11.860 -1.9325  1.5673 -2.9616
  224ETHOX   C2 1762  15.857  14.462  11.667  0.0949 -0.4195 -0.1081
  224ETHOX  H21 1763  15.858  14.570  11.694  0.5667 -0.4485 -0.0004
  224ETHOX  H23 1764  15.770  14.454  11.598  0.7504  0.3636 -1.0504
  225ETHOX   O1 1765  15.969  14.434  11.582  0.1770  0.6371 -0.2278
  225ETHOX   C1 1766  15.952  14.498  11.459 -0.0143  0.4882  0.2909
  225ETHOX  H11 1767  15.903  14.598  11.457 -0.0379  0.4705 -0.2566
  225ETHOX  H13 1768  15.895  14.430  11.392 -1.2960  1.5056  0.3043
  225ETHOX   C2 1769  16.086  14.525  11.388  0.5376  0.4905 -0.7553
  225ETHOX  H21 1770  16.159  14.566  11.461 -0.2635  1.6922 -0.5990
  225ETHOX  H23 1771  16.068  14.604  11.312  3.6308  0.2128 -1.9297
  226ETHOX   O1 1772  16.143  14.412  11.317  0.0345  0.1277 -0.0287
  226ETHOX   C1 1773  16.275  14.449  11.276  0.6000  0.5120 -0.2571
  226ETHOX  H11 1774  16.273  14.528  11.197  1.2048 -0.9646 -1.8003
  226ETHOX  H13 1775  16.343  14.475  11.359  0.8297 -1.9980  0.4107
  226ETHOX   C2 1776  16.356  14.327  11.206 -0.3284 -0.1510 -0.5738
  226ETHOX  H21 1777  16.444  14.384  11.167 -0.4174 -0.1615 -0.7907
  226ETHOX  H23 1778  16.295  14.295  11.120 -1.2235  2.9560 -1.2354
  227ETHOX   O1 1779  16.400  14.219  11.291  0.1223  0.7858 -0.3523
  227ETHOX   C1 1780  16.382  14.095  11.227 -0.0936 -0.2492 -0.6571
  227ETHOX  H11 1781  16.419  14.102  11.122 -0.8285  2.8112 -0.8177
  227ETHOX  H13 1782  16.278  14.057  11.232 -0.4975  0.9677  1.6324
  227ETHOX   C2 1783  16.480  13.995  11.285 -0.3763  0.5012  0.1705
  227ETHOX  H21 1784  16.445  13.891  11.269 -0.0209  0.4811 -0.4770
  227ETHOX  H23 1785  16.483  13.999  11.396  1.0356 -1.8503  0.2648
  228ETHOX   O1 1786  16.614  14.017  11.249  0.5479  0.8535  0.0229
  228ETHOX   C1 1787  16.708  13.928  11.312  0.0949 -0.6996  0.2932
  228ETHOX  H11 1788  16.696  13.926  11.423 -0.6442 -1.2968  0.2138
  228ETHOX  H13 1789  16.689  13.826  11.273  0.9358 -1.9744  2.9321
  228ETHOX   C2 1790  16.851  13.970  11.276  0.2680 -0.4166  0.2194
  228ETHOX  H21 1791  16.856  13.976  11.166  1.6046  0.2810  0.2985
  228ETHOX  H23 1792  16.927  13.890  11.295  2.0088  1.5211  1.9024
  229ETHOX   O1 1793  16.896  14.097  11.328 -0.0993 -0.0133 -0.1096
  229ETHOX   C1 1794  17.004  14.136  11.261 -0.0317  0.5273  0.6469
  229ETHOX  H11 1795  16.965  14.170  11.163 -0.2712 -0.9451  0.2039
  229ETHOX  H13 1796  17.065  14.044  11.244 -0.1877  0.9469 -2.9003
  229ETHOX   C2 1797  17.083  14.255  11.322 -0.0841 -0.7509  0.4638
  229ETHOX  H21 1798  17.004  14.325  11.358 -0.2719 -0.0731 -1.1783
  229ETHOX  H23 1799  17.138  14.296  11.235 -1.5424  0.4418  0.0627
  230ETHOX   O1 1800  17.168  14.213  11.423 -0.2426  0.2327 -0.4428
  230ETHOX   C1 1801  17.225  14.323  11.486  0.3162 -0.2547  0.1181
  230ETHOX  H11 1802  17.285  14.383  11.415  1.8349 -0.2548  1.3634
  230ETHOX  H13 1803  17.145  14.380  11.538 -1.3594 -1.2750 -1.2225
  230ETHOX   C2 1804  17.329  14.273  11.585 -0.0813 -0.2799 -0.2884
  230ETHOX  H21 1805  17.411  14.215  11.539 -1.1341 -3.3531  1.4331
  230ETHOX  H23 1806  17.278  14.212  11.662  1.7760 -0.8389  0.5569
  231ETHOX   O1 1807  17.380  14.383  11.652  0.2420 -0.3899 -0.0135
  231ETHOX   C1 1808  17.473  14.340  11.747  0.3241 -0.0273  0.2559
  231ETHOX  H11 1809  17.544  14.259  11.718 -0.8930 -1.5869  1.4501
  231ETHOX  H13 1810  17.418  14.295  11.833 -0.9308 -0.5908 -0.7940
  231ETHOX   C2 1811  17.543  14.461  11.804  0.6059 -0.4907  0.2188
  231ETHOX  H21 1812  17.589  14.443  11.904  0.5874 -1.0629  0.1257
  231ETHOX  H23 1813  17.468  14.541  11.824  0.0997 -1.2661  1.5441
  232ETHOX   O1 1814  17.649  14.499  11.718 -0.6881 -0.1284 -0.1971
  232ETHOX   C1 1815  17.717  14.616  11.755  0.3846 -0.9900 -0.1075
  232ETHOX  H11 1816  17.634  14.687  11.778 -2.1928 -3.7478 -0.2421
  232ETHOX  H13 1817  17.789  14.598  11.838  0.0012 -2.4739 -0.0709
  232ETHOX   C2 1818  17.804  14.676  11.638 -0.3560  0.2370  0.0727
  232ETHOX  H21 1819  17.870  14.589  11.618 -0.2414  0.0735  1.1126
  232ETHOX  H23 1820  17.866  14.755  11.685  0.2255  0.6878 -1.3908
  233ETHOX   O1 1821  17.728  14.726  11.527  0.2054  0.1759 -0.0758
  233ETHOX   C1 1822  17.695  14.866  11.547  0.1218  0.2436  0.0300
  233ETHOX  H11 1823  17.614  14.870  11.623  0.6315 -0.1528  0.6078
  233ETHOX  H13 1824  17.778  14.922  11.596  0.0974  1.0207 -0.7889
  233ETHOX   C2 1825  17.658  14.934  11.418 -0.2351 -0.1191 -0.5342
  233ETHOX  H21 1826  17.614  15.034  11.439  0.1846 -0.2525  1.0964
  233ETHOX  H23 1827  17.581  14.878  11.362 -0.6397  0.6447 -0.7621
  234ETHOX   O1 1828  17.772  14.958  11.333  0.1239 -0.0238  0.5596
  234ETHOX   C1 1829  17.728  14.993  11.200  0.7990 -0.1149 -0.5011
  234ETHOX  H11 1830  17.669  14.910  11.155 -0.4208 -0.1441  1.0747
  234ETHOX  H13 1831  17.670  15.088  11.204  0.2113 -0.4995  1.2197
  234ETHOX   C2 1832  17.843  15.037  11.116 -1.2570  0.3748  0.7076
  234ETHOX  H21 1833  17.908  15.111  11.168 -0.9016 -0.3512  1.3249
  234ETHOX  H23 1834  17.804  15.088  11.025 -1.4013 -0.7267  0.1263
  235ETHOX   O1 1835  17.922  14.927  11.071 -0.6107  0.3460  0.3646
  235ETHOX   C1 1836  18.012  14.965  10.967 -0.8042 -0.1945 -0.3197
  235ETHOX  H11 1837  17.959  15.016  10.884 -0.6319 -0.7151 -0.7550
  235ETHOX  H13 1838  18.085  15.041  11.004 -0.1808 -1.0510  0.2474
  235ETHOX   C2 1839  18.082  14.847  10.899  0.1777  0.5895  0.2670
  235ETHOX  H21 1840  18.151  14.882  10.819  0.3721  0.4236  0.3630
  235ETHOX  H23 1841  18.006  14.790  10.840  0.3361  1.9844 -1.3353
  236ETHOX   O1 1842  18.151  14.765  10.995  0.4013 -0.1814  0.3101
  236ETHOX   C1 1843  18.235  14.672  10.932 -0.1448  0.4090  0.5245
  236ETHOX  H11 1844  18.305  14.714  10.858 -0.0394 -2.0133 -0.8409
  236ETHOX  H13 1845  18.171  14.596  10.883  0.1735  0.6360 -0.2670
  236ETHOX   C2 1846  18.309  14.610  11.057  0.0108 -0.0901 -0.2469
  236ETHOX  H21 1847  18.375  14.691  11.095  2.7682 -1.9149 -0.8796
  236ETHOX  H23 1848  18.372  14.527  11.019  0.3903  0.5383 -1.0062
  237ETHOX   O1 1849  18.221  14.555  11.155 -0.1825 -0.4616 -0.0489
  237ETHOX   C1 1850  18.285  14.548  11.277 -0.2379  0.2878 -0.0331
  237ETHOX  H11 1851  18.389  14.509  11.268 -0.6020 -1.1953  1.5444
  237ETHOX  H13 1852  18.290  14.648  11.325 -4.4726  0.6466  0.0343
  237ETHOX   C2 1853  18.202  14.472  11.379 -0.8399  0.8515 -0.0347
  237ETHOX  H21 1854  18.174  14.373  11.336 -0.0256 -0.2925  1.9010
  237ETHOX  H23 1855  18.101  14.516  11.396 -2.0062 -1.6351 -0.0529
  238ETHOX   O1 1856  18.268  14.443  11.501  0.6955 -0.0182 -0.2360
  238ETHOX   C1 1857  18.168  14.410  11.601  0.3398 -0.5395  0.5755
  238ETHOX  H11 1858  18.108  14.325  11.562 -0.3816 -0.0500  0.5956
  238ETHOX  H13 1859  18.112  14.503  11.623 -0.9135 -1.5641  1.9373
  238ETHOX   C2 1860  18.235  14.378  11.732 -0.2227  0.1763  0.5735
  238ETHOX  H21 1861  18.269  14.275  11.712 -3.9388 -1.0899  0.0538
  238ETHOX  H23 1862  18.158  14.378  11.812 -1.0616  0.8320 -0.2089
  239ETHOX   O1 1863  18.331  14.477  11.762  0.3118  0.0664  0.1188
  239ETHOX   C1 1864  18.463  14.433  11.762  0.1060 -0.4417 -0.1660
  239ETHOX  H11 1865  18.473  14.334  11.814 -0.6166 -0.4592 -0.0515
  239ETHOX  H13 1866  18.488  14.419  11.655  0.3251 -0.7013 -0.0848
  239ETHOX   C2 1867  18.560  14.524  11.834 -0.2410 -0.8607 -0.3769
  239ETHOX  H21 1868  18.533  14.529  11.942 -2.6135 -0.4143 -0.9249
  239ETHOX  H23 1869  18.654  14.466  11.831 -0.5638 -1.3458 -1.5380
  240ETHOX   O1 1870  18.561  14.651  11.762  0.1718 -0.0821 -0.6662
  240ETHOX   C1 1871  18.613  14.750  11.847 -0.6624  0.1320 -0.2255
  240ETHOX  H11 1872  18.716  14.723  11.877 -1.5504 -1.5438  1.4618
  240ETHOX  H13 1873  18.548  14.755  11.937  3.1450  2.3785  2.6906
  240ETHOX   C2 1874  18.625  14.891  11.787  0.0052  0.3684 -0.0893
  240ETHOX  H21 1875  18.673  14.878  11.688 -1.8669  0.5659 -1.0736
  240ETHOX  H23 1876  18.697  14.946  11.852  0.2973  0.3002 -0.3517
  241ETHOX   O1 1877  18.504  14.962  11.769 -0.3838 -0.1804  0.1864
  241ETHOX   C1 1878  18.528  15.089  11.697  0.3157 -0.2155 -0.2246
  241ETHOX  H11 1879  18.611  15.150  11.738 -0.7560  1.6104 -0.6409
  241ETHOX  H13 1880  18.561  15.072  11.593  0.7383  2.6643 -0.6429
  241ETHOX   C2 1881  18.391  15.160  11.677 -0.3740 -0.0165  0.2158
  241ETHOX  H21 1882  18.332  15.092  11.613 -1.4649  0.3962  0.7592
  241ETHOX  H23 1883  18.402  15.247  11.608 -1.0980 -0.9249 -1.0692
  242ETHOX   O1 1884  18.318  15.219  11.787  0.6622  0.6009  0.1470
  242ETHOX   C1 1885  18.225  15.312  11.753  1.2824 -0.7636  0.2051
  242ETHOX  H11 1886  18.164  15.282  11.666 -1.3075  1.2380  1.1996
  242ETHOX  H13 1887  18.281  15.405  11.731 -0.1986 -0.0103 -0.5294
  242ETHOX   C2 1888  18.132  15.327  11.873 -0.6701 -0.0752 -0.2102
  242ETHOX  H21 1889  18.068  15.418  11.873  0.6337  0.8952  1.5802
  242ETHOX  H23 1890  18.184  15.335  11.971  0.0101 -0.1320 -0.5626
  243ETHOX   O1 1891  18.034  15.225  11.883  0.3334  1.1562  0.0298
  243ETHOX   C1 1892  17.974  15.230  12.010  0.2570 -0.3578  0.3331
  243ETHOX  H11 1893  18.046  15.250  12.092 -0.4302 -0.0407  0.8700
  243ETHOX  H13 1894  17.893  15.306  12.014  0.4980 -0.1062  0.5243
  243ETHOX   C2 1895  17.902  15.099  12.049  0.1003 -0.1426  0.7236
  243ETHOX  H21 1896  17.886  15.085  12.158  0.0311 -1.8476  0.5182
  243ETHOX  H23 1897  17.979  15.024  12.023  0.8007  0.4118  1.1444
  244ETHOX   O1 1898  17.783  15.078  11.970  0.0545 -0.2512 -0.8304
  244ETHOX   C1 1899  17.758  14.937  11.949  0.5369 -0.7682  0.1009
  244ETHOX  H11 1900  17.819  14.870  12.014 -0.5636  0.0111  2.0069
  244ETHOX  H13 1901  17.795  14.908  11.848  1.2761 -0.4984  0.2876
  244ETHOX   C2 1902  17.609  14.911  11.976 -0.2860 -0.0644  0.1669
  244ETHOX  H21 1903  17.583  14.954  12.075 -0.0960  0.4537 -0.0055
  244ETHOX  H23 1904  17.588  14.802  11.984 -1.5317  0.2646  2.2218
  245ETHOX   O1 1905  17.528  14.963  11.874  0.5753  0.6863  0.6216
  245ETHOX   C1 1906  17.395  14.908  11.894 -0.7062 -0.6017 -0.1206
  245ETHOX  H11 1907  17.385  14.802  11.862  1.1507 -0.4055 -1.5171
  245ETHOX  H13 1908  17.380  14.914  12.004 -0.3757  2.3196 -0.1693
  245ETHOX   C2 1909  17.279  14.991  11.826  0.3928 -0.5024  0.2756
  245ETHOX  H21 1910  17.292  15.098  11.854 -2.6928 -0.2059  0.8896
  245ETHOX  H23 1911  17.188  14.967  11.886 -1.9999  4.1917 -0.9976
  246ETHOX   O1 1912  17.249  14.969  11.687  0.1662  0.0109 -0.5257
  246ETHOX   C1 1913  17.122  15.026  11.655  0.2623 -0.2925  0.5903
  246ETHOX  H11 1914  17.120  15.132  11.687 -0.5860 -0.9767  3.0160
  246ETHOX  H13 1915  17.050  14.984  11.729  0.8820  0.7537  1.8296
  246ETHOX   C2 1916  17.075  15.019  11.502  0.1738 -0.3085  0.0639
  246ETHOX  H21 1917  16.971  15.055  11.519  0.4905 -0.0223  1.5884
  246ETHOX  H23 1918  17.056  14.913  11.476 -0.7424 -0.2182  0.3323
  247ETHOX   O1 1919  17.135  15.100  11.402  0.4014 -0.6407 -0.4315
  247ETHOX   C1 1920  17.229  15.027  11.323 -0.0660 -0.2238  0.9257
  247ETHOX  H11 1921  17.311  14.988  11.387  0.1083 -0.2053  0.7169
  247ETHOX  H13 1922  17.173  14.944  11.276 -0.2214  0.7872 -0.7594
  247ETHOX   C2 1923  17.280  15.114  11.212 -0.6060  0.2207 -0.3485
  247ETHOX  H21 1924  17.283  15.058  11.115 -3.1058 -0.9420  0.1791
  247ETHOX  H23 1925  17.208  15.194  11.186 -2.2644 -1.3955 -0.9352
  248ETHOX   O1 1926  17.407  15.167  11.244 -0.1214  0.5864 -0.0708
  248ETHOX   C1 1927  17.409  15.279  11.326  0.7743 -0.3941 -0.3522
  248ETHOX  H11 1928  17.341  15.359  11.289 -1.2625 -1.9536 -0.1568
  248ETHOX  H13 1929  17.363  15.261  11.426 -1.4548  1.8482 -0.8736
  248ETHOX   C2 1930  17.549  15.340  11.343 -0.5462  0.7547  0.2638
  248ETHOX  H21 1931  17.621  15.263  11.376  0.9006  0.9666 -2.1948
  248ETHOX  H23 1932  17.536  15.410  11.428 -0.7545  1.1444 -0.0803
  249ETHOX   O1 1933  17.593  15.405  11.223 -0.4204  0.4631 -0.0208
  249ETHOX   C1 1934  17.720  15.455  11.233  0.1013  0.1561  0.7265
  249ETHOX  H11 1935  17.722  15.553  11.287  2.3587  2.1426 -2.5869
  249ETHOX  H13 1936  17.780  15.379  11.288 -1.1910 -1.4726 -0.0520
  249ETHOX   C2 1937  17.784  15.479  11.092 -0.0689 -1.0767 -0.3364
  249ETHOX  H21 1938  17.890  15.512  11.097 -0.4490  0.2803 -0.7428
  249ETHOX  H23 1939  17.728  15.558  11.037 -0.6202 -0.4497  1.0627
  250ETHOX   O1 1940  17.791  15.361  11.020 -0.6773 -0.1318 -0.6564
  250ETHOX   C1 1941  17.889  15.354  10.915 -0.1696 -0.7491  0.1455
  250ETHOX  H11 1942  17.920  15.454  10.880 -1.3036 -0.8469 -1.2222
  250ETHOX  H13 1943  17.976  15.304  10.962 -0.4205 -1.8366 -0.5143
  250ETHOX   C2 1944  17.841  15.270  10.798 -0.4212  0.3545  0.3373
  250ETHOX  H21 1945  17.796  15.176  10.836 -1.0211  0.9154  1.0467
  250ETHOX  H23 1946  17.929  15.240  10.736 -0.1593  0.2849  0.7349
  251ETHOX   O1 1947  17.751  15.349  10.720  0.5565  0.0301  0.0885
  251ETHOX   C1 1948  17.708  15.264  10.612  0.4769  0.5477 -0.4706
  251ETHOX  H11 1949  17.675  15.166  10.651  0.7385  0.3734 -0.6816
  251ETHOX  H13 1950  17.792  15.255  10.539  2.0844  0.8459  1.2565
  251ETHOX   C2 1951  17.579  15.313  10.544 -0.6080 -0.1656 -0.4212
  251ETHOX  H21 1952  17.602  15.411  10.498  0.9443 -0.5928 -0.6207
  251ETHOX  H23 1953  17.499  15.324  10.621  1.5750 -1.0646  2.1654
  252ETHOX   O1 1954  17.544  15.229  10.435  0.0789  0.1262 -0.4927
  252ETHOX   C1 1955  17.419  15.265  10.387 -0.4450  0.5783 -0.2832
  252ETHOX  H11 1956  17.345  15.243  10.467 -1.5385  1.4582 -1.0327
  252ETHOX  H13 1957  17.425  15.376  10.379  1.6461  0.5041 -0.3818
  252ETHOX   C2 1958  17.386  15.204  10.252 -0.0237 -0.3082 -0.2514
  252ETHOX  H21 1959  17.299  15.245  10.196 -1.3046  1.6244  2.9227
  252ETHOX  H23 1960  17.377  15.095  10.271  0.2772 -0.2492  0.2320
  253ETHOX   O1 1961  17.501  15.217  10.167  0.3892  0.4700 -0.2469
  253ETHOX   C1 1962  17.478  15.132  10.047 -0.4473  0.3859 -0.0515
  253ETHOX  H11 1963  17.398  15.170   9.980 -0.7500 -1.8894 -1.0835
  253ETHOX  H13 1964  17.450  15.029  10.079 -0.0754  0.2925 -0.0170
  253ETHOX   C2 1965  17.608  15.110   9.968  0.1617  0.7361 -0.3299
  253ETHOX  H21 1966  17.655  15.209   9.952 -0.3639  1.2192  1.0386
  253ETHOX  H23 1967  17.592  15.059   9.870  0.9144 -0.8390  0.3339
  254ETHOX   O1 1968  17.688  15.032  10.048 -0.0448  0.2555 -0.4402
  254ETHOX   C1 1969  17.801  14.977   9.974 -0.7567  0.3095  0.5209
  254ETHOX  H11 1970  17.786  14.922   9.878  1.7415  0.8864 -0.2574
  254ETHOX  H13 1971  17.886  15.045   9.954 -0.2293 -0.9894 -2.1092
  254ETHOX   C2 1972  17.860  14.877  10.070  0.0009  0.5030 -0.1379
  254ETHOX  H21 1973  17.892  14.919  10.168 -2.3338 -1.0883  1.4270
  254ETHOX  H23 1974  17.944  14.838  10.008 -2.1055 -0.3906 -2.6141
  255ETHOX   O1 1975  17.775  14.765  10.092 -0.1703  0.2398  0.0700
  255ETHOX   C1 1976  17.835  14.675  10.186  0.0072 -0.1053 -0.0001
  255ETHOX  H11 1977  17.847  14.716  10.288 -1.2654 -2.4674  1.1938
  255ETHOX  H13 1978  17.929  14.633  10.144 -0.0173 -0.7367  0.5631
  255ETHOX   C2 1979  17.741  14.551  10.204 -0.4132  0.1712 -0.7511
  255ETHOX  H21 1980  17.799  14.467  10.248 -0.5459  0.3616 -0.1971
  255ETHOX  H23 1981  17.709  14.530  10.100  0.9254 -1.0189 -0.9468
  256ETHOX   O1 1982  17.623  14.583  10.272 -0.2926  0.1967 -0.2341
  256ETHOX   C1 1983  17.532  14.474  10.264  0.0882 -0.3973 -0.3970
  256ETHOX  H11 1984  17.487  14.471  10.163  0.5558 -0.5080 -0.6070
  256ETHOX  H13 1985  17.575  14.372  10.266 -0.0664 -0.5519 -2.4805
  256ETHOX   C2 1986  17.430  14.492  10.377  0.3276  0.3572  0.1708
  256ETHOX  H21 1987  17.363  14.403  10.379 -1.0157  1.3273  0.2431
  256ETHOX  H23 1988  17.376  14.587  10.355 -1.1049  0.0075  1.9396
  257ETHOX   O1 1989  17.503  14.505  10.496 -0.4876  0.0088  0.2507
  257ETHOX   C1 1990  17.419  14.525  10.606 -0.2636 -0.0359  0.0061
  257ETHOX  H11 1991  17.370  14.428  10.628 -0.4175  0.3399  1.3904
  257ETHOX  H13 1992  17.335  14.595  10.583 -2.3762 -2.0531  1.1582
  257ETHOX   C2 1993  17.490  14.568  10.739 -0.0772 -0.2193  0.9915
  257ETHOX  H21 1994  17.407  14.602  10.804  0.1976  0.4091  1.0233
  257ETHOX  H23 1995  17.548  14.661  10.723 -0.6940 -0.3590 -3.2398
  258ETHOX   O1 1996  17.578  14.471  10.799 -0.1942  0.4899  0.2195
  258ETHOX   C1 1997  17.516  14.381  10.887 -0.2372 -0.0389  0.0956
  258ETHOX  H11 1998  17.466  14.452  10.956  2.3923  0.9873  1.0932
  258ETHOX  H13 1999  17.424  14.333  10.848 -0.6526  0.7698  0.0717
  258ETHOX   C2 2000  17.615  14.277  10.944  0.5200 -0.2015 -0.1808
  258ETHOX  H21 2001  17.691  14.333  11.002  1.9477 -0.8579 -1.3284
  258ETHOX  H23 2002  17.665  14.223  10.860  1.6914  0.8845 -0.2148
  259ETHOX   O1 2003  17.542  14.179  11.020 -0.7855  0.8554 -0.0451
  259ETHOX   C1 2004  17.463  14.229  11.126 -0.1654 -0.2113  0.4591
  259ETHOX  H11 2005  17.510  14.323  11.163  4.1844 -0.6904 -2.9345
  259ETHOX  H13 2006  17.360  14.252  11.093 -0.0764  0.2814  0.5061
  259ETHOX   C2 2007  17.454  14.127  11.244 -0.4454 -0.4062  0.1920
  259ETHOX  H21 2008  17.391  14.171  11.324 -2.2333 -0.3676 -1.1695
  259ETHOX  H23 2009  17.557  14.090  11.264 -1.0438 -2.1405  0.2684
  260ETHOX   O1 2010  17.376  14.009  11.202  0.7559 -0.7669 -0.2379
  260ETHOX   C1 2011  17.369  13.920  11.313 -0.3108 -0.5516  0.4540
  260ETHOX  H11 2012  17.472  13.909  11.353 -0.5766 -4.8523  0.4214
  260ETHOX  H13 2013  17.300  13.970  11.385 -0.4751 -0.3835  0.1790
  260ETHOX   C2 2014  17.313  13.788  11.262  0.6875  0.3875  0.4708
  260ETHOX  H21 2015  17.328  13.725  11.352  1.9583  3.1357  2.3240
  260ETHOX  H23 2016  17.363  13.755  11.169  2.0297 -2.2112  2.0246
  261ETHOX   O1 2017  17.171  13.795  11.237 -0.4523 -0.0249  0.0313
  261ETHOX   C1 2018  17.132  13.684  11.149  0.8223  0.3111 -0.8657
  261ETHOX  H11 2019  17.200  13.705  11.064  0.5717 -1.5912 -1.5737
  261ETHOX  H13 2020  17.155  13.587  11.199  0.8762  0.9816  0.4661
  261ETHOX   C2 2021  16.989  13.698  11.094  0.1314  0.1210  0.0880
  261ETHOX  H21 2022  16.910  13.711  11.171 -1.4926 -0.4423 -1.4349
  261ETHOX  H23 2023  16.963  13.604  11.041 -0.1497  1.4691 -2.2663
  262ETHOX   O1 2024  16.976  13.800  10.996 -0.1423  0.0945 -0.3335
  262ETHOX   C1 2025  16.844  13.800  10.945 -0.0493  0.2492  0.1294
  262ETHOX  H11 2026  16.779  13.815  11.035  1.5576 -1.5938  1.6927
  262ETHOX  H13 2027  16.811  13.709  10.891 -6.1985  3.3141 -2.3367
  262ETHOX   C2 2028  16.826  13.908  10.842  0.1193 -0.2768 -0.4676
  262ETHOX  H21 2029  16.738  13.887  10.777 -0.3517 -2.6158  0.8456
  262ETHOX  H23 2030  16.918  13.900  10.780  0.7320 -0.3310  0.4336
  263ETHOX   O1 2031  16.820  14.045  10.895  0.6233  0.1397 -0.2944
  263ETHOX   C1 2032  16.678  14.059  10.924 -0.2480  0.6633 -0.0456
  263ETHOX  H11 2033  16.643  13.992  11.006 -1.0132  0.1719 -0.7611
  263ETHOX  H13 2034  16.625  14.021  10.834  1.8922 -2.4980 -0.1352
  263ETHOX   C2 2035  16.640  14.208  10.952  0.2154 -0.6206  0.2211
  263ETHOX  H21 2036  16.717  14.242  11.025  1.0647  0.4587 -1.1205
  263ETHOX  H23 2037  16.541  14.208  11.002  0.8622  2.5337  1.7724
  264ETHOX   O1 2038  16.643  14.299  10.837  0.3115 -0.2479 -0.3971
  264ETHOX   C1 2039  16.598  14.426  10.872 -0.5726 -0.0891  0.0830
  264ETHOX  H11 2040  16.659  14.482  10.945 -0.5102  0.1920 -0.1814
  264ETHOX  H13 2041  16.497  14.433  10.918 -0.6393  1.2158 -0.2180
  264ETHOX   C2 2042  16.593  14.515  10.743 -0.3510  0.1756 -0.5653
  264ETHOX  H21 2043  16.689  14.500  10.690 -0.6789 -0.7682 -0.9167
  264ETHOX  H23 2044  16.584  14.620  10.778  0.2439  0.4472 -1.1948
  265ETHOX   O1 2045  16.475  14.492  10.660 -0.2524  0.7741 -0.3369
  265ETHOX   C1 2046  16.479  14.585  10.551 -0.0509 -0.2033 -0.2727
  265ETHOX  H11 2047  16.567  14.652  10.557 -0.8003  0.6521  2.5576
  265ETHOX  H13 2048  16.477  14.543  10.448  1.4148  1.4092 -1.0140
  265ETHOX   C2 2049  16.364  14.687  10.566  0.9837  0.2984 -0.1508
  265ETHOX  H21 2050  16.374  14.778  10.503  0.8231  0.2791 -0.2048
  265ETHOX  H23 2051  16.373  14.712  10.674 -0.6219  0.1226  0.0511
  265ETHOX   OZ 2052  16.235  14.622  10.542  0.2972 -0.8173  0.5715
  265ETHOX  HZ1 2053  16.176  14.696  10.561  1.8349  0.5298  0.2940
    1ETHOX   O1 2054  15.942  17.514  10.656  0.1037 -0.3740  0.3631
    1ETHOX  HO1 2055  15.961  17.454  10.728  2.0251  0.6514  0.8022
    1ETHOX   C1 2056  15.915  17.426  10.541 -0.1353 -0.2643 -0.4897
    1ETHOX  H11 2057  15.895  17.326  10.585  0.5341  0.2763  1.1016
    1ETHOX  H13 2058  16.009  17.428  10.482  0.3985  0.2506  0.3568
    1ETHOX   C2 2059  15.790  17.481  10.468 -0.0641 -0.4005  0.2253
    1ETHOX  H21 2060  15.703  17.498  10.535 -2.2334 -1.0917 -2.2508
    1ETHOX  H23 2061  15.754  17.415  10.387  1.8539  0.9214 -1.8109
    2ETHOX   O1 2062  15.817  17.608  10.407  0.4520  0.0500 -0.3640
    2ETHOX   C1 2063  15.710  17.648  10.316 -0.0750 -0.0417  0.2599
    2ETHOX  H11 2064  15.711  17.571  10.236  1.5461 -0.7433  0.9087
    2ETHOX  H13 2065  15.614  17.647  10.372  0.8284 -0.4839  1.8810
    2ETHOX   C2 2066  15.748  17.785  10.260 -0.1623  0.7908  0.0777
    2ETHOX  H21 2067  15.758  17.856  10.345 -1.7319  1.1713 -0.0299
    2ETHOX  H23 2068  15.660  17.810  10.196 -2.3819  1.1103  3.0218
    3ETHOX   O1 2069  15.877  17.785  10.190  0.1047  0.2748 -0.2948
    3ETHOX   C1 2070  15.908  17.921  10.149 -0.3058 -0.3291 -0.2165
    3ETHOX  H11 2071  15.887  17.998  10.226  0.2323  0.2555 -0.6442
    3ETHOX  H13 2072  15.861  17.950  10.053 -0.3776  2.9942  0.7020
    3ETHOX   C2 2073  16.060  17.919  10.107 -0.5933 -0.1176  0.0533
    3ETHOX  H21 2074  16.122  17.876  10.189 -1.0421 -1.8198 -0.4586
    3ETHOX  H23 2075  16.092  18.020  10.076 -2.8404 -0.0453 -2.3390
    4ETHOX   O1 2076  16.079  17.816  10.008 -0.1656 -0.5399  0.6487
    4ETHOX   C1 2077  16.217  17.810   9.959  0.3735 -0.1968 -0.2113
    4ETHOX  H11 2078  16.240  17.917   9.942  0.6122  0.0260  1.3755
    4ETHOX  H13 2079  16.289  17.774  10.035  2.8083  0.5842 -2.0403
    4ETHOX   C2 2080  16.232  17.724   9.839 -0.7574 -0.2120  0.1117
    4ETHOX  H21 2081  16.168  17.634   9.846  0.6663 -1.2937 -0.3074
    4ETHOX  H23 2082  16.334  17.680   9.837 -0.8719 -0.4444 -1.0313
    5ETHOX   O1 2083  16.208  17.790   9.715  0.0750 -0.2657 -0.2225
    5ETHOX   C1 2084  16.253  17.732   9.596  0.4793  0.0702  0.0934
    5ETHOX  H11 2085  16.359  17.765   9.591 -0.2190  2.7289  1.2289
    5ETHOX  H13 2086  16.241  17.622   9.597 -0.3282  0.0861 -1.9435
    5ETHOX   C2 2087  16.166  17.795   9.482 -0.6169  0.2618 -1.0092
    5ETHOX  H21 2088  16.062  17.773   9.514  0.3797  0.3417  2.7192
    5ETHOX  H23 2089  16.192  17.735   9.392  1.4401 -2.5771  1.3026
    6ETHOX   O1 2090  16.194  17.924   9.451  0.0890  0.2075  0.0276
    6ETHOX   C1 2091  16.095  17.982   9.369 -0.6072  0.4063  0.4954
    6ETHOX  H11 2092  15.996  17.954   9.410 -0.9966 -2.9255 -2.3088
    6ETHOX  H13 2093  16.104  18.092   9.384  0.0881  0.1568  2.1275
    6ETHOX   C2 2094  16.100  17.958   9.225  0.4358  0.6173  0.5287
    6ETHOX  H21 2095  16.199  17.971   9.177  1.6478 -1.9039  2.1303
    6ETHOX  H23 2096  16.028  18.031   9.183 -1.0605 -2.0435 -1.8498
    7ETHOX   O1 2097  16.047  17.830   9.209  0.0285 -0.3531  0.6744
    7ETHOX   C1 2098  16.066  17.793   9.070 -0.0507 -0.3116 -0.0348
    7ETHOX  H11 2099  16.018  17.869   9.004  0.4166 -1.0792 -1.2791
    7ETHOX  H13 2100  16.172  17.796   9.038 -0.2661 -2.9754 -1.3020
    7ETHOX   C2 2101  16.005  17.660   9.029 -0.0606  0.0429 -0.4612
    7ETHOX  H21 2102  16.069  17.576   9.064  0.2523  0.7086  0.6045
    7ETHOX  H23 2103  16.009  17.664   8.918 -0.4972  2.0242 -0.4520
    8ETHOX   O1 2104  15.870  17.640   9.062  0.1371  0.0267  0.5636
    8ETHOX   C1 2105  15.815  17.515   9.031 -0.6369 -0.0530  0.3877
    8ETHOX  H11 2106  15.877  17.444   9.091  0.2340 -0.2693 -0.7415
    8ETHOX  H13 2107  15.827  17.486   8.925 -1.7646 -0.3514  0.3273
    8ETHOX   C2 2108  15.669  17.510   9.078  0.0676  0.4110 -0.6016
    8ETHOX  H21 2109  15.635  17.410   9.046 -0.3891  0.2595  0.3068
    8ETHOX  H23 2110  15.616  17.593   9.026 -0.2996  0.2121 -0.5459
    9ETHOX   O1 2111  15.663  17.505   9.224 -0.4139  0.0663  0.8213
    9ETHOX   C1 2112  15.528  17.509   9.269  0.3463 -0.4748 -0.1306
    9ETHOX  H11 2113  15.488  17.604   9.227 -0.9592 -0.9446  0.0069
    9ETHOX  H13 2114  15.479  17.423   9.220 -0.2093 -0.1300 -0.1905
    9ETHOX   C2 2115  15.521  17.509   9.420 -0.2045 -0.1012  0.3746
    9ETHOX  H21 2116  15.422  17.549   9.453 -0.7783  0.1768 -1.5324
    9ETHOX  H23 2117  15.595  17.579   9.463 -0.0426 -0.7111  1.1078
   10ETHOX   O1 2118  15.544  17.372   9.459  0.5212 -0.2930  0.4494
   10ETHOX   C1 2119  15.494  17.350   9.587  0.2348 -0.0670 -0.0323
   10ETHOX  H11 2120  15.385  17.367   9.587  0.2365 -0.0400  0.7685
   10ETHOX  H13 2121  15.553  17.417   9.653 -0.3600 -1.1767  1.7002
   10ETHOX   C2 2122  15.528  17.202   9.627  0.0390 -0.3835 -0.0988
   10ETHOX  H21 2123  15.519  17.193   9.738 -1.0039  2.3861  0.1378
   10ETHOX  H23 2124  15.633  17.179   9.598  0.4772  2.0597 -0.7117
   11ETHOX   O1 2125  15.445  17.103   9.562  0.4026 -0.2987  0.1457
   11ETHOX   C1 2126  15.480  16.972   9.612  0.4283 -0.2183  0.3763
   11ETHOX  H11 2127  15.589  16.958   9.627  0.4828 -0.1038  0.0805
   11ETHOX  H13 2128  15.428  16.962   9.710 -1.0546  0.2439 -0.3344
   11ETHOX   C2 2129  15.435  16.861   9.516  0.0283  1.0252  0.3899
   11ETHOX  H21 2130  15.448  16.757   9.552  0.4591  1.2493  0.8899
   11ETHOX  H23 2131  15.324  16.863   9.520  0.0191 -0.5186  3.5782
   12ETHOX   O1 2132  15.488  16.870   9.383  0.0164 -0.6480 -0.1484
   12ETHOX   C1 2133  15.623  16.812   9.363  0.5269 -0.9218 -0.3302
   12ETHOX  H11 2134  15.612  16.706   9.396 -0.2587 -0.1579  2.0833
   12ETHOX  H13 2135  15.691  16.864   9.434 -1.9382 -0.8673  2.1558
   12ETHOX   C2 2136  15.678  16.839   9.227 -0.5504 -0.1713  0.1174
   12ETHOX  H21 2137  15.784  16.808   9.216 -0.8805 -1.3977  0.3421
   12ETHOX  H23 2138  15.687  16.948   9.205 -0.4545  0.1112  1.4617
   13ETHOX   O1 2139  15.607  16.776   9.119  0.3688 -0.3957 -0.2655
   13ETHOX   C1 2140  15.678  16.796   8.998  0.3997  0.4912  0.4526
   13ETHOX  H11 2141  15.697  16.903   8.973  1.2359  0.0268 -1.0052
   13ETHOX  H13 2142  15.769  16.735   9.014  1.6495  1.7124 -1.5090
   13ETHOX   C2 2143  15.604  16.736   8.882  1.0286 -0.8428 -0.3124
   13ETHOX  H21 2144  15.589  16.627   8.895  4.5098 -1.3175  0.5704
   13ETHOX  H23 2145  15.664  16.746   8.789  0.4683 -3.0945 -0.9739
   14ETHOX   O1 2146  15.474  16.803   8.860 -0.0528  0.4730 -0.0152
   14ETHOX   C1 2147  15.392  16.722   8.773  0.0229 -0.0647  0.3900
   14ETHOX  H11 2148  15.371  16.639   8.843  0.0007  1.3519  2.1441
   14ETHOX  H13 2149  15.439  16.687   8.679 -2.0638  1.3860 -1.2850
   14ETHOX   C2 2150  15.263  16.797   8.731 -0.7606 -0.3746  0.4043
   14ETHOX  H21 2151  15.233  16.859   8.818 -0.0155 -1.1263  1.2188
   14ETHOX  H23 2152  15.194  16.713   8.707 -0.0236 -1.1307  0.8720
   15ETHOX   O1 2153  15.296  16.886   8.623  0.1667 -0.1045 -0.6766
   15ETHOX   C1 2154  15.175  16.940   8.564 -0.4345  0.3608  0.3652
   15ETHOX  H11 2155  15.107  16.858   8.533 -0.2898  0.7460 -1.0490
   15ETHOX  H13 2156  15.113  17.003   8.631 -1.4198  1.1396 -1.1989
   15ETHOX   C2 2157  15.210  17.035   8.446  0.4383 -0.2816 -0.5292
   15ETHOX  H21 2158  15.115  17.080   8.411 -0.0713  0.0353  1.1764
   15ETHOX  H23 2159  15.275  17.115   8.489  1.1992 -1.9603  1.6264
   16ETHOX   O1 2160  15.278  16.979   8.335 -0.4012 -0.0478 -0.2948
   16ETHOX   C1 2161  15.291  17.069   8.230  1.3663 -0.5681  0.0408
   16ETHOX  H11 2162  15.194  17.122   8.220  1.5253 -0.6961 -2.8157
   16ETHOX  H13 2163  15.380  17.129   8.259 -0.4546  1.8891  0.9107
   16ETHOX   C2 2164  15.315  17.009   8.092  0.2791  0.0400 -0.4997
   16ETHOX  H21 2165  15.299  17.084   8.012 -0.0613  1.1810  0.6133
   16ETHOX  H23 2166  15.255  16.915   8.088  0.2213  0.0529  0.1132
   17ETHOX   O1 2167  15.450  16.968   8.075  0.2326  0.2328 -0.1880
   17ETHOX   C1 2168  15.473  16.894   7.957  0.2553 -0.2545  0.0721
   17ETHOX  H11 2169  15.401  16.810   7.964  0.8818 -0.6502  3.0634
   17ETHOX  H13 2170  15.447  16.960   7.871  0.8966  1.5731  1.2204
   17ETHOX   C2 2171  15.618  16.839   7.952  0.5616  0.1674 -0.5449
   17ETHOX  H21 2172  15.631  16.741   7.901  1.6325  0.7078 -1.3527
   17ETHOX  H23 2173  15.653  16.825   8.056  2.0051  1.5045 -0.8116
   18ETHOX   O1 2174  15.701  16.933   7.889 -0.2799 -0.0062  0.8646
   18ETHOX   C1 2175  15.841  16.921   7.908  0.5731  0.4684 -0.0822
   18ETHOX  H11 2176  15.887  17.017   7.879  0.6967  0.5926  0.4997
   18ETHOX  H13 2177  15.845  16.903   8.018 -0.3802  3.2010  0.4815
   18ETHOX   C2 2178  15.897  16.798   7.839 -0.0551  0.0560  0.4288
   18ETHOX  H21 2179  16.007  16.809   7.836 -0.2004  1.5331 -1.2064
   18ETHOX  H23 2180  15.866  16.812   7.733  2.1970  1.8062 -0.0602
   19ETHOX   O1 2181  15.863  16.673   7.897 -0.3786  0.6846  0.2938
   19ETHOX   C1 2182  15.876  16.565   7.809  0.7066 -0.0861  0.9790
   19ETHOX  H11 2183  15.817  16.594   7.719  0.6914  2.2383  1.6715
   19ETHOX  H13 2184  15.820  16.478   7.849  0.3800  0.6429  2.1561
   19ETHOX   C2 2185  16.018  16.525   7.774 -0.0293  0.3587 -0.1967
   19ETHOX  H21 2186  16.071  16.619   7.747  1.3995 -0.4851 -0.4732
   19ETHOX  H23 2187  16.015  16.462   7.682 -3.7367 -0.6974  0.5048
   20ETHOX   O1 2188  16.092  16.449   7.870 -0.1855  0.7456  0.2374
   20ETHOX   C1 2189  16.020  16.332   7.898  0.1788  0.2249  0.1082
   20ETHOX  H11 2190  15.932  16.359   7.960  1.3651  2.4063  0.9482
   20ETHOX  H13 2191  15.959  16.297   7.812 -1.1902  1.9381  0.3295
   20ETHOX   C2 2192  16.082  16.208   7.968 -0.1945  0.4063  0.7235
   20ETHOX  H21 2193  16.173  16.172   7.914 -0.1178  1.5499  0.0506
   20ETHOX  H23 2194  16.007  16.126   7.964 -0.7381  0.8139  2.0639
   21ETHOX   O1 2195  16.103  16.234   8.111 -0.3104  0.5665  0.5807
   21ETHOX   C1 2196  16.169  16.120   8.168 -0.4550 -0.9930 -0.2658
   21ETHOX  H11 2197  16.271  16.121   8.125 -1.0478  0.1938 -1.7403
   21ETHOX  H13 2198  16.119  16.026   8.136 -1.1654 -0.3128 -1.2064
   21ETHOX   C2 2199  16.169  16.127   8.321  0.1350  0.0867  0.2128
   21ETHOX  H21 2200  16.218  16.039   8.367 -2.2339  0.6014  4.1998
   21ETHOX  H23 2201  16.063  16.122   8.354  0.3877 -1.9084  0.8577
   22ETHOX   O1 2202  16.221  16.248   8.368  0.2465 -0.0252  0.0139
   22ETHOX   C1 2203  16.286  16.250   8.495 -0.3971 -0.1831  0.2285
   22ETHOX  H11 2204  16.210  16.226   8.573 -0.5396  0.3838  0.2668
   22ETHOX  H13 2205  16.365  16.173   8.503 -1.4366 -1.1134  2.4902
   22ETHOX   C2 2206  16.342  16.396   8.522  0.5761 -0.2049  0.9702
   22ETHOX  H21 2207  16.411  16.395   8.609 -0.6531  1.3085  2.0216
   22ETHOX  H23 2208  16.390  16.430   8.428  0.4094  2.3673  1.7376
   23ETHOX   O1 2209  16.236  16.488   8.533 -0.5550  0.5850 -0.3873
   23ETHOX   C1 2210  16.280  16.622   8.543  0.2154  0.1475  0.3099
   23ETHOX  H11 2211  16.305  16.654   8.440  0.5559 -1.5510 -0.1652
   23ETHOX  H13 2212  16.366  16.642   8.611 -0.0677  0.9551  0.4403
   23ETHOX   C2 2213  16.166  16.699   8.597  0.4245  0.2623  0.0942
   23ETHOX  H21 2214  16.072  16.652   8.561  0.0449 -0.2447  1.6494
   23ETHOX  H23 2215  16.168  16.804   8.563 -0.4997  0.5752  0.9578
   24ETHOX   O1 2216  16.168  16.697   8.740  0.3987  0.1014  0.1792
   24ETHOX   C1 2217  16.039  16.728   8.799  0.1657  0.0447 -0.4375
   24ETHOX  H11 2218  15.958  16.684   8.737 -1.1685 -1.5201  2.2273
   24ETHOX  H13 2219  16.054  16.668   8.891  3.1736 -0.1302 -0.9353
   24ETHOX   C2 2220  16.038  16.882   8.826  0.2997  0.0416  0.5597
   24ETHOX  H21 2221  15.943  16.928   8.859  1.0707  1.8760  0.3041
   24ETHOX  H23 2222  16.068  16.938   8.735  0.4843  0.2949  0.7756
   25ETHOX   O1 2223  16.143  16.905   8.921  0.4164 -0.1328  0.0699
   25ETHOX   C1 2224  16.197  17.037   8.903 -0.3683  0.3869 -0.1813
   25ETHOX  H11 2225  16.112  17.107   8.895 -0.9987 -0.0719  1.9526
   25ETHOX  H13 2226  16.247  17.049   8.805 -1.5344  2.2120 -0.5996
   25ETHOX   C2 2227  16.301  17.074   9.016 -1.0563  0.4064  0.2358
   25ETHOX  H21 2228  16.361  17.162   8.986  2.9522 -2.3455 -0.7383
   25ETHOX  H23 2229  16.375  16.991   9.017 -0.6544  0.5039 -3.7372
   26ETHOX   O1 2230  16.231  17.087   9.140  0.2234 -0.8395 -0.3657
   26ETHOX   C1 2231  16.303  17.159   9.240  0.7068 -0.2995  0.0004
   26ETHOX  H11 2232  16.400  17.111   9.261  1.3599  0.7017 -0.6356
   26ETHOX  H13 2233  16.329  17.263   9.209  2.3630 -0.5379  0.5393
   26ETHOX   C2 2234  16.210  17.148   9.366 -0.1243 -0.3962 -0.5058
   26ETHOX  H21 2235  16.271  17.182   9.452 -0.6149 -2.7598  0.8494
   26ETHOX  H23 2236  16.200  17.040   9.389  2.1634 -0.2471  1.5518
   27ETHOX   O1 2237  16.088  17.215   9.362 -0.3832  0.4667 -0.0220
   27ETHOX   C1 2238  16.110  17.354   9.341  0.0752 -0.0208  0.2067
   27ETHOX  H11 2239  16.135  17.372   9.234  1.5322  3.5031  0.9689
   27ETHOX  H13 2240  16.183  17.393   9.415 -0.9969  0.0952  1.2372
   27ETHOX   C2 2241  15.975  17.420   9.367  0.6894  0.0935 -0.3427
   27ETHOX  H21 2242  15.904  17.347   9.323 -0.0299  1.2645 -1.2029
   27ETHOX  H23 2243  15.972  17.520   9.317  2.1688  0.3322 -0.0079
   28ETHOX   O1 2244  15.963  17.433   9.505  0.1866  0.8517 -0.2668
   28ETHOX   C1 2245  15.831  17.452   9.551 -0.6808 -0.1961  0.2764
   28ETHOX  H11 2246  15.782  17.534   9.495  2.9313 -0.6020 -4.0248
   28ETHOX  H13 2247  15.767  17.361   9.551  0.6565 -1.2101  2.3438
   28ETHOX   C2 2248  15.856  17.512   9.700  0.7465 -0.7135  0.1241
   28ETHOX  H21 2249  15.778  17.590   9.712  0.3981 -0.4923 -2.9293
   28ETHOX  H23 2250  15.953  17.565   9.712 -0.2376  0.8650  1.4520
   29ETHOX   O1 2251  15.829  17.411   9.800 -0.6001  0.3816  0.5603
   29ETHOX   C1 2252  15.792  17.467   9.923  0.2810  0.2087 -0.2270
   29ETHOX  H11 2253  15.815  17.576   9.931 -0.9710  0.3757  2.3667
   29ETHOX  H13 2254  15.853  17.437  10.011  0.5966 -0.4242 -0.6558
   29ETHOX   C2 2255  15.649  17.440   9.971 -0.3297 -0.2655 -0.0980
   29ETHOX  H21 2256  15.655  17.424  10.080  0.8265 -0.1644 -0.1329
   29ETHOX  H23 2257  15.621  17.343   9.925  1.6578 -0.8795 -0.0859
   30ETHOX   O1 2258  15.564  17.549   9.935 -0.1713  0.3449  0.5362
   30ETHOX   C1 2259  15.462  17.575  10.028  0.3379 -0.1501  0.2621
   30ETHOX  H11 2260  15.495  17.553  10.132  0.7367  1.1902  0.4280
   30ETHOX  H13 2261  15.433  17.682  10.020 -0.6917 -0.5283 -1.9916
   30ETHOX   C2 2262  15.341  17.482  10.015  0.8900 -0.1081  0.0045
   30ETHOX  H21 2263  15.294  17.446  10.109  2.6659  1.0127  1.3831
   30ETHOX  H23 2264  15.365  17.383   9.970  1.2407 -1.0308  2.1127
   31ETHOX   O1 2265  15.232  17.540   9.945  0.0724 -0.3395  0.2273
   31ETHOX   C1 2266  15.169  17.637  10.025  0.0417  0.8554  0.3340
   31ETHOX  H11 2267  15.114  17.583  10.105  1.6739  0.5838  1.3031
   31ETHOX  H13 2268  15.230  17.717  10.073  1.0211  0.3372 -0.0238
   31ETHOX   C2 2269  15.079  17.717   9.933 -0.5798 -0.7552  0.0828
   31ETHOX  H21 2270  15.020  17.788   9.996  1.3140 -2.6449  4.4034
   31ETHOX  H23 2271  15.009  17.651   9.879  0.4553 -0.4098 -1.7661
   32ETHOX   O1 2272  15.157  17.777   9.831  0.0819 -0.2548  0.2176
   32ETHOX   C1 2273  15.095  17.896   9.791 -0.2242 -0.2758 -0.5396
   32ETHOX  H11 2274  15.081  17.956   9.883 -1.5004  0.1323 -0.9856
   32ETHOX  H13 2275  15.162  17.956   9.726  0.1721  1.6379  1.5299
   32ETHOX   C2 2276  14.975  17.872   9.701 -0.6746  0.4277 -0.8222
   32ETHOX  H21 2277  14.985  17.786   9.631  0.9316 -0.5155  0.5140
   32ETHOX  H23 2278  14.970  17.963   9.636  0.7793  1.2922  0.2319
   33ETHOX   O1 2279  14.848  17.865   9.766 -0.4056 -0.4558  0.1699
   33ETHOX   C1 2280  14.747  17.868   9.662  0.4620 -0.0137 -0.1386
   33ETHOX  H11 2281  14.795  17.854   9.563  0.7657 -2.8940  0.3139
   33ETHOX  H13 2282  14.681  17.779   9.669  0.6359 -0.0820  0.7314
   33ETHOX   C2 2283  14.656  17.991   9.670 -0.2167  0.0058 -1.0459
   33ETHOX  H21 2284  14.624  18.011   9.774 -0.0904 -0.5411 -0.9023
   33ETHOX  H23 2285  14.564  17.960   9.615 -2.0490  0.2708  1.6598
   34ETHOX   O1 2286  14.713  18.114   9.624 -0.6969 -0.6813 -0.0638
   34ETHOX   C1 2287  14.613  18.218   9.626 -0.5120  0.1368 -0.4351
   34ETHOX  H11 2288  14.579  18.220   9.732 -0.2928 -0.4013 -0.3516
   34ETHOX  H13 2289  14.526  18.187   9.565 -0.8191 -1.1380  0.6188
   34ETHOX   C2 2290  14.666  18.355   9.577 -0.2405  0.2715 -0.7857
   34ETHOX  H21 2291  14.577  18.419   9.592 -0.3491 -0.2225  0.8833
   34ETHOX  H23 2292  14.692  18.357   9.468  3.0857  1.4390 -0.0902
   35ETHOX   O1 2293  14.776  18.404   9.655 -0.5168 -0.4387  0.5287
   35ETHOX   C1 2294  14.835  18.518   9.600  0.3367 -0.3794 -0.3352
   35ETHOX  H11 2295  14.890  18.494   9.506  0.5325 -0.9067 -0.0866
   35ETHOX  H13 2296  14.755  18.594   9.587 -0.0441 -0.7406 -0.1274
   35ETHOX   C2 2297  14.944  18.570   9.702 -0.2098  0.3520 -0.1038
   35ETHOX  H21 2298  14.990  18.664   9.665  1.3257 -0.6183 -0.7467
   35ETHOX  H23 2299  15.017  18.490   9.727 -2.1021 -1.2019  0.7126
   36ETHOX   O1 2300  14.883  18.597   9.832  0.3317 -0.0978  0.3880
   36ETHOX   C1 2301  14.954  18.699   9.899 -0.6682  1.0324 -0.5536
   36ETHOX  H11 2302  14.941  18.797   9.848 -1.3631  0.5249 -1.3893
   36ETHOX  H13 2303  15.062  18.674   9.897 -0.7902  0.5045 -1.6848
   36ETHOX   C2 2304  14.896  18.697  10.044  0.6885  0.7233 -0.5822
   36ETHOX  H21 2305  14.785  18.693  10.056  0.7920 -1.2190  0.2591
   36ETHOX  H23 2306  14.922  18.797  10.085 -1.0238  1.0450 -0.1944
   37ETHOX   O1 2307  14.962  18.613  10.145  0.3301 -0.3506 -0.0367
   37ETHOX   C1 2308  14.943  18.478  10.112 -0.0220  0.3783 -0.3083
   37ETHOX  H11 2309  14.834  18.459  10.116  0.2171 -1.8261 -2.2609
   37ETHOX  H13 2310  14.989  18.455  10.013 -0.3613 -0.8655 -0.1956
   37ETHOX   C2 2311  15.030  18.404  10.212  0.1507  0.7332 -0.6190
   37ETHOX  H21 2312  15.007  18.299  10.184  2.8115 -0.2643  0.5298
   37ETHOX  H23 2313  15.002  18.422  10.318 -1.1443 -1.2902 -0.5600
   38ETHOX   O1 2314  15.173  18.425  10.207 -0.2126 -0.1965  0.4430
   38ETHOX   C1 2315  15.252  18.348  10.298  0.5660 -0.8117 -0.1649
   38ETHOX  H11 2316  15.204  18.350  10.398 -0.2095 -3.1024 -0.4427
   38ETHOX  H13 2317  15.352  18.393  10.311 -0.0520  0.4808  0.3095
   38ETHOX   C2 2318  15.284  18.204  10.250  0.2774 -0.4210  0.4220
   38ETHOX  H21 2319  15.191  18.146  10.227 -0.0576 -0.2785  1.3634
   38ETHOX  H23 2320  15.348  18.165  10.332  0.8141 -0.5483 -0.0542
   39ETHOX   O1 2321  15.374  18.210  10.133 -0.2993 -0.6874 -0.3073
   39ETHOX   C1 2322  15.398  18.080  10.071  0.2530  0.4629 -0.4553
   39ETHOX  H11 2323  15.464  18.023  10.140  1.3442  0.8258 -1.1675
   39ETHOX  H13 2324  15.301  18.026  10.068 -0.5025  1.7768  0.0209
   39ETHOX   C2 2325  15.459  18.075   9.932  1.3231  0.1110  0.0005
   39ETHOX  H21 2326  15.487  17.969   9.913 -0.3410 -0.3250 -0.1801
   39ETHOX  H23 2327  15.546  18.144   9.923  1.1811  0.4096  0.8238
   40ETHOX   O1 2328  15.354  18.102   9.836  0.3129  0.3447 -0.1834
   40ETHOX   C1 2329  15.410  18.166   9.722 -0.7109  0.9000  0.2166
   40ETHOX  H11 2330  15.482  18.102   9.667 -1.7021  0.4509 -0.6061
   40ETHOX  H13 2331  15.472  18.250   9.759  0.4714  0.1421  0.0300
   40ETHOX   C2 2332  15.300  18.217   9.628 -0.4276  0.1886  0.0626
   40ETHOX  H21 2333  15.234  18.276   9.695  2.2092  1.3472  1.7942
   40ETHOX  H23 2334  15.252  18.132   9.575  1.4006  1.2416 -3.6171
   41ETHOX   O1 2335  15.336  18.316   9.533 -0.0596 -0.4822 -0.3741
   41ETHOX   C1 2336  15.224  18.342   9.456 -0.0567  0.2504  0.4122
   41ETHOX  H11 2337  15.176  18.250   9.417  3.5807 -1.6905  0.1352
   41ETHOX  H13 2338  15.141  18.377   9.521 -0.3227  0.8253 -0.2165
   41ETHOX   C2 2339  15.247  18.450   9.347  0.1431  0.3066 -0.0312
   41ETHOX  H21 2340  15.215  18.399   9.254  0.7013 -1.1615  0.5515
   41ETHOX  H23 2341  15.353  18.482   9.344  0.1502  0.3727  0.8236
   42ETHOX   O1 2342  15.165  18.555   9.368  0.3421  0.4422 -0.3071
   42ETHOX   C1 2343  15.141  18.622   9.239 -0.7716  0.1806 -0.1114
   42ETHOX  H11 2344  15.241  18.641   9.193 -0.3550 -1.0062  0.2572
   42ETHOX  H13 2345  15.074  18.565   9.171 -0.4785  1.2178 -1.3002
   42ETHOX   C2 2346  15.087  18.762   9.270 -0.6525 -0.0539  0.7323
   42ETHOX  H21 2347  15.095  18.839   9.191  2.3455  0.0765  1.0505
   42ETHOX  H23 2348  15.130  18.799   9.366 -0.1386  2.3394 -0.3333
   43ETHOX   O1 2349  14.947  18.744   9.289  0.6246  0.8823  0.6752
   43ETHOX   C1 2350  14.889  18.863   9.334 -0.1737  0.1741  0.2290
   43ETHOX  H11 2351  14.965  18.922   9.389 -0.0152 -0.8528  1.1339
   43ETHOX  H13 2352  14.835  18.921   9.256 -1.1827  0.3071  1.0097
   43ETHOX   C2 2353  14.779  18.828   9.427  0.4065 -0.2024 -0.3826
   43ETHOX  H21 2354  14.830  18.810   9.524  1.4288 -1.4407 -1.1234
   43ETHOX  H23 2355  14.734  18.733   9.390 -1.0010  0.7095 -1.1301
   44ETHOX   O1 2356  14.669  18.918   9.431  0.2902  0.1182  0.4718
   44ETHOX   C1 2357  14.609  18.917   9.555 -0.1442 -0.6547 -0.9017
   44ETHOX  H11 2358  14.573  18.815   9.579 -0.5159  0.1396  2.4932
   44ETHOX  H13 2359  14.683  18.945   9.633  2.1152 -0.7199 -2.9125
   44ETHOX   C2 2360  14.494  19.013   9.558 -0.2843  0.0623  0.6866
   44ETHOX  H21 2361  14.503  19.115   9.514 -1.6856 -0.8752 -2.0611
   44ETHOX  H23 2362  14.468  19.044   9.661 -1.8908 -0.2786  0.4116
   45ETHOX   O1 2363  14.380  18.960   9.506 -0.0553 -0.4283  0.3276
   45ETHOX   C1 2364  14.363  19.002   9.375 -0.9296  0.2498  0.3471
   45ETHOX  H11 2365  14.455  18.981   9.316 -1.0243  0.0543  0.2658
   45ETHOX  H13 2366  14.338  19.110   9.365  1.3871  1.0380  2.1773
   45ETHOX   C2 2367  14.248  18.916   9.317  0.8450 -0.5147  0.6229
   45ETHOX  H21 2368  14.201  18.974   9.234  0.9351  1.3180  1.7812
   45ETHOX  H23 2369  14.162  18.897   9.384 -0.8375 -2.1707 -1.8292
   46ETHOX   O1 2370  14.288  18.784   9.281 -0.4315 -0.2248  0.0796
   46ETHOX   C1 2371  14.183  18.707   9.233 -0.0244  0.0537  0.1609
   46ETHOX  H11 2372  14.105  18.691   9.310 -0.9772  1.2554 -0.5197
   46ETHOX  H13 2373  14.132  18.758   9.148  1.1704 -1.9598 -1.8691
   46ETHOX   C2 2374  14.220  18.565   9.188  0.3283  0.1197 -1.4235
   46ETHOX  H21 2375  14.145  18.485   9.206  0.7536 -0.1321 -0.7474
   46ETHOX  H23 2376  14.306  18.536   9.251  0.9646  1.1306 -1.8107
   47ETHOX   O1 2377  14.261  18.558   9.056 -0.4664 -0.2261  0.7494
   47ETHOX   C1 2378  14.334  18.444   9.025  0.1541  0.0465  0.2621
   47ETHOX  H11 2379  14.270  18.356   9.046 -0.1963  0.5128  1.2581
   47ETHOX  H13 2380  14.421  18.424   9.093  0.2693  0.1342  0.1397
   47ETHOX   C2 2381  14.406  18.444   8.886  0.6802 -0.2861  0.0862
   47ETHOX  H21 2382  14.333  18.434   8.803  2.9265 -0.7765 -1.9694
   47ETHOX  H23 2383  14.474  18.358   8.872 -0.6814 -1.0996 -2.0770
   48ETHOX   O1 2384  14.492  18.559   8.859 -0.1927  0.6130  0.2676
   48ETHOX   C1 2385  14.545  18.548   8.724  0.5932  0.1601 -0.1984
   48ETHOX  H11 2386  14.628  18.474   8.728  2.3792  2.0283 -0.6855
   48ETHOX  H13 2387  14.475  18.520   8.643  0.1380  0.4623  0.0868
   48ETHOX   C2 2388  14.596  18.682   8.668  0.0693  0.0409  0.1859
   48ETHOX  H21 2389  14.559  18.698   8.565  1.5349 -0.1431 -0.4025
   48ETHOX  H23 2390  14.559  18.762   8.737 -3.5559 -0.9758 -0.3862
   49ETHOX   O1 2391  14.738  18.679   8.648 -0.2006  0.1467 -0.1601
   49ETHOX   C1 2392  14.785  18.811   8.642  0.2807 -0.0104  0.1296
   49ETHOX  H11 2393  14.767  18.862   8.739  0.7224 -0.0098  0.2141
   49ETHOX  H13 2394  14.728  18.872   8.568  0.8280  0.9835  0.5036
   49ETHOX   C2 2395  14.930  18.833   8.593  0.3315  0.9011 -0.6627
   49ETHOX  H21 2396  15.006  18.784   8.658 -2.6491 -0.4019  2.0764
   49ETHOX  H23 2397  14.942  18.943   8.606 -2.1889  1.2992 -1.1391
   50ETHOX   O1 2398  14.945  18.807   8.456  0.4018 -0.0404 -0.7591
   50ETHOX   C1 2399  15.075  18.844   8.414  0.2293 -0.5170 -0.0180
   50ETHOX  H11 2400  15.074  18.841   8.303  1.5097  1.4350 -0.1458
   50ETHOX  H13 2401  15.097  18.950   8.439 -1.0865 -0.0488 -0.7594
   50ETHOX   C2 2402  15.195  18.762   8.469 -0.2432 -0.4710 -0.1279
   50ETHOX  H21 2403  15.191  18.755   8.579  0.6511 -0.5051 -0.0904
   50ETHOX  H23 2404  15.289  18.816   8.444  0.0905 -0.7962  0.4248
   51ETHOX   O1 2405  15.189  18.626   8.428 -0.1951 -0.0895  0.6212
   51ETHOX   C1 2406  15.221  18.597   8.289 -0.7742  0.7292  0.6852
   51ETHOX  H11 2407  15.328  18.623   8.278 -0.6612 -0.5967 -2.2653
   51ETHOX  H13 2408  15.173  18.668   8.218 -0.5429 -0.0225 -0.2503
   51ETHOX   C2 2409  15.201  18.452   8.239 -1.3130 -0.4843  0.3377
   51ETHOX  H21 2410  15.238  18.380   8.316 -2.6124 -1.5458 -0.0034
   51ETHOX  H23 2411  15.245  18.429   8.140 -3.1913  0.9211 -0.8885
   52ETHOX   O1 2412  15.064  18.443   8.220 -0.1378  0.3461 -0.4380
   52ETHOX   C1 2413  15.016  18.309   8.208 -0.6530 -0.4823  0.1961
   52ETHOX  H11 2414  15.025  18.263   8.308  0.5631  0.6869  0.6617
   52ETHOX  H13 2415  14.911  18.314   8.174 -0.6117 -1.9815 -0.2358
   52ETHOX   C2 2416  15.083  18.219   8.101 -0.4177 -1.1761  0.2067
   52ETHOX  H21 2417  15.049  18.115   8.122  0.1611 -0.9898  2.3374
   52ETHOX  H23 2418  15.193  18.212   8.114 -0.1778 -0.5596 -1.3239
   53ETHOX   O1 2419  15.044  18.249   7.972  0.2096 -0.4356  0.1311
   53ETHOX   C1 2420  15.126  18.187   7.878 -0.4735 -0.3682 -0.3792
   53ETHOX  H11 2421  15.225  18.230   7.904 -0.7651 -0.7440  1.5090
   53ETHOX  H13 2422  15.121  18.077   7.894  1.2718 -0.3018  1.0661
   53ETHOX   C2 2423  15.093  18.222   7.739 -0.5896 -0.6338 -0.2876
   53ETHOX  H21 2424  15.170  18.178   7.673 -1.1400 -1.6229 -0.2776
   53ETHOX  H23 2425  15.102  18.331   7.719 -0.3183 -0.2896  1.5376
   54ETHOX   O1 2426  14.973  18.166   7.699  0.0109  0.1805 -0.2702
   54ETHOX   C1 2427  14.934  18.213   7.571  0.1565 -0.0302 -0.2702
   54ETHOX  H11 2428  14.891  18.315   7.577  0.8428  0.1824  2.5102
   54ETHOX  H13 2429  15.006  18.201   7.487  1.0140  0.1742  0.4207
   54ETHOX   C2 2430  14.818  18.127   7.528 -0.3032 -0.0653 -0.3133
   54ETHOX  H21 2431  14.779  18.172   7.434 -0.6699 -0.4290 -0.3387
   54ETHOX  H23 2432  14.733  18.127   7.600 -0.1026  0.7581 -0.0586
   55ETHOX   O1 2433  14.844  17.991   7.507  0.5102  0.1388  0.4521
   55ETHOX   C1 2434  14.730  17.924   7.461  0.0055  0.5401 -0.2275
   55ETHOX  H11 2435  14.652  17.921   7.540 -1.9363  3.0927 -1.8746
   55ETHOX  H13 2436  14.694  17.984   7.374  1.9101  1.6275 -0.3170
   55ETHOX   C2 2437  14.779  17.781   7.420  0.9174 -1.1019  0.0632
   55ETHOX  H21 2438  14.698  17.727   7.366  1.7656 -0.5025 -1.8835
   55ETHOX  H23 2439  14.872  17.787   7.360  0.1702  0.1630 -1.0224
   56ETHOX   O1 2440  14.824  17.695   7.528 -0.1701 -0.1417  0.3600
   56ETHOX   C1 2441  14.721  17.631   7.592  0.0254 -0.0576 -0.0624
   56ETHOX  H11 2442  14.673  17.568   7.513 -0.8505 -1.7827  1.7574
   56ETHOX  H13 2443  14.661  17.714   7.633  1.7346  3.1801 -3.4820
   56ETHOX   C2 2444  14.758  17.523   7.701 -0.1402 -0.1388 -0.2443
   56ETHOX  H21 2445  14.836  17.451   7.668  0.9148 -0.4637  2.6603
   56ETHOX  H23 2446  14.670  17.482   7.753 -0.0694  0.8492  0.6801
   57ETHOX   O1 2447  14.813  17.602   7.810  0.5302 -0.1702 -0.1131
   57ETHOX   C1 2448  14.852  17.514   7.919  0.7263 -0.3743 -0.3281
   57ETHOX  H11 2449  14.885  17.416   7.876 -0.7273 -1.6139  1.2525
   57ETHOX  H13 2450  14.935  17.560   7.976 -0.1290 -0.6183  1.1664
   57ETHOX   C2 2451  14.740  17.489   8.018  0.5453 -0.0904  0.2109
   57ETHOX  H21 2452  14.766  17.408   8.089 -2.2782 -0.9943  0.3198
   57ETHOX  H23 2453  14.644  17.464   7.969 -0.5862 -1.0518  2.7155
   58ETHOX   O1 2454  14.726  17.609   8.093  0.5438 -0.4699  0.2598
   58ETHOX   C1 2455  14.605  17.603   8.173 -0.8714 -0.1699 -0.0811
   58ETHOX  H11 2456  14.610  17.517   8.244 -2.0697  1.0761  1.6064
   58ETHOX  H13 2457  14.513  17.588   8.113 -0.7398 -2.3708  0.1893
   58ETHOX   C2 2458  14.604  17.726   8.260 -0.2587  0.4508  0.3615
   58ETHOX  H21 2459  14.505  17.725   8.310 -0.8252 -4.1157 -0.3933
   58ETHOX  H23 2460  14.601  17.814   8.193  0.3630  0.6507  0.5945
   59ETHOX   O1 2461  14.708  17.748   8.351 -0.0694  0.3562 -0.3944
   59ETHOX   C1 2462  14.674  17.861   8.440  0.1457 -0.7643  0.0654
   59ETHOX  H11 2463  14.758  17.933   8.456 -0.8448 -0.0805  2.9854
   59ETHOX  H13 2464  14.598  17.925   8.391  2.2502  0.1200 -2.2935
   59ETHOX   C2 2465  14.629  17.814   8.575  0.2194 -0.1158 -0.6407
   59ETHOX  H21 2466  14.621  17.894   8.651 -2.5437 -1.4519  0.6367
   59ETHOX  H23 2467  14.707  17.738   8.598 -0.1423 -0.4734 -0.5859
   60ETHOX   O1 2468  14.506  17.737   8.579  0.4157  0.1671 -0.0354
   60ETHOX   C1 2469  14.468  17.717   8.712  0.0007  0.3784  0.2922
   60ETHOX  H11 2470  14.444  17.819   8.750  1.3233  0.5085  0.8229
   60ETHOX  H13 2471  14.555  17.668   8.760 -1.2015 -1.1993  0.9367
   60ETHOX   C2 2472  14.347  17.624   8.707  0.2329  0.5016 -0.5493
   60ETHOX  H21 2473  14.280  17.647   8.621 -0.5612 -0.7594 -0.3062
   60ETHOX  H23 2474  14.292  17.639   8.802  0.3074  0.5033 -0.5067
   61ETHOX   O1 2475  14.412  17.496   8.702  0.4507 -0.1343  0.0631
   61ETHOX   C1 2476  14.317  17.387   8.729 -0.5752  0.6881  0.0009
   61ETHOX  H11 2477  14.267  17.402   8.827 -1.4895  2.0304 -0.6518
   61ETHOX  H13 2478  14.247  17.379   8.643 -1.4838  4.5476  0.2220
   61ETHOX   C2 2479  14.399  17.257   8.727  0.2418 -0.1561 -0.2353
   61ETHOX  H21 2480  14.473  17.276   8.646 -0.3435  1.5721 -0.3982
   61ETHOX  H23 2481  14.334  17.182   8.678  0.6389 -1.3776  1.0409
   62ETHOX   O1 2482  14.464  17.208   8.849 -0.1346 -0.2817 -0.0925
   62ETHOX   C1 2483  14.519  17.074   8.827 -0.2418 -0.1441 -0.4619
   62ETHOX  H11 2484  14.444  17.023   8.763 -1.5139 -0.0908  0.9181
   62ETHOX  H13 2485  14.515  17.030   8.929  0.6631  1.5736  0.3630
   62ETHOX   C2 2486  14.659  17.070   8.779  0.8169  1.2954  0.4068
   62ETHOX  H21 2487  14.670  17.143   8.696 -2.6520  0.2333 -1.1787
   62ETHOX  H23 2488  14.678  16.966   8.745  0.1046  0.0296  3.5813
   63ETHOX   O1 2489  14.748  17.086   8.884 -0.2696  0.5593 -0.4523
   63ETHOX   C1 2490  14.884  17.095   8.830 -0.0470  0.7423 -0.1352
   63ETHOX  H11 2491  14.914  17.004   8.773  0.3275  1.2777 -0.8084
   63ETHOX  H13 2492  14.900  17.187   8.770  1.2298 -0.0049 -1.0103
   63ETHOX   C2 2493  14.987  17.105   8.947 -0.1532  0.8879  0.1940
   63ETHOX  H21 2494  14.970  17.193   9.013  1.0527  0.8942  0.5212
   63ETHOX  H23 2495  15.084  17.120   8.896 -0.4254 -1.1072 -1.0204
   64ETHOX   O1 2496  14.990  16.991   9.036 -0.5298  1.2174 -0.3502
   64ETHOX   C1 2497  15.106  16.992   9.118 -0.0721 -0.3393 -0.6284
   64ETHOX  H11 2498  15.111  17.089   9.172  1.0612 -0.9774  0.4543
   64ETHOX  H13 2499  15.195  16.984   9.052  0.3990  0.3435 -0.0830
   64ETHOX   C2 2500  15.104  16.889   9.230 -0.2999 -0.4407  0.3598
   64ETHOX  H21 2501  15.015  16.915   9.292 -1.2527 -2.2489 -0.1876
   64ETHOX  H23 2502  15.196  16.908   9.290  0.5727  1.6535 -1.4943
   65ETHOX   O1 2503  15.109  16.757   9.176  0.3638  0.0719  0.2373
   65ETHOX   C1 2504  15.243  16.717   9.140 -0.8487  0.3216  0.6258
   65ETHOX  H11 2505  15.286  16.779   9.059 -0.7528 -1.2581 -0.5909
   65ETHOX  H13 2506  15.308  16.732   9.229 -0.8417  0.2398  0.6355
   65ETHOX   C2 2507  15.247  16.565   9.109 -0.1881 -0.6979  0.4259
   65ETHOX  H21 2508  15.201  16.506   9.191 -0.8885 -1.5494 -0.5511
   65ETHOX  H23 2509  15.350  16.526   9.093  0.3590  0.5477  0.8092
   66ETHOX   O1 2510  15.170  16.538   8.987 -0.0609  0.0617 -0.0772
   66ETHOX   C1 2511  15.182  16.401   8.943 -0.2957 -0.4523  0.7430
   66ETHOX  H11 2512  15.284  16.371   8.975  0.3308  2.0978  1.3504
   66ETHOX  H13 2513  15.176  16.398   8.832 -0.5820  1.5596  0.6572
   66ETHOX   C2 2514  15.077  16.311   9.005 -0.2575 -0.2954 -0.9421
   66ETHOX  H21 2515  15.084  16.315   9.116  0.5887 -0.1244 -0.9946
   66ETHOX  H23 2516  15.111  16.206   8.991 -1.8223 -1.1515  1.0281
   67ETHOX   O1 2517  14.949  16.321   8.953  0.4795  0.0315 -0.1457
   67ETHOX   C1 2518  14.865  16.214   8.992 -0.2688  0.1738 -0.2605
   67ETHOX  H11 2519  14.903  16.121   8.944  0.6776  0.8109 -0.7737
   67ETHOX  H13 2520  14.852  16.188   9.099  0.2268 -2.1085 -0.7020
   67ETHOX   C2 2521  14.734  16.247   8.928  0.2409  0.2471  0.5583
   67ETHOX  H21 2522  14.687  16.154   8.890  3.8656 -1.5818  0.1775
   67ETHOX  H23 2523  14.758  16.310   8.839 -0.7106 -1.1690 -0.7641
   68ETHOX   O1 2524  14.648  16.321   9.017 -0.3700  0.0376  0.7552
   68ETHOX   C1 2525  14.654  16.461   9.008  0.2617  0.0157 -0.3951
   68ETHOX  H11 2526  14.752  16.502   9.038  0.0426 -0.2125  0.6853
   68ETHOX  H13 2527  14.629  16.494   8.906  1.4973  2.0093 -0.0899
   68ETHOX   C2 2528  14.545  16.526   9.095  0.6065 -0.2990 -0.0865
   68ETHOX  H21 2529  14.552  16.637   9.099 -2.2142 -0.0132 -0.5477
   68ETHOX  H23 2530  14.562  16.482   9.196  0.1432  1.5277  0.8320
   69ETHOX   O1 2531  14.416  16.476   9.056  0.3798  0.8546 -0.5024
   69ETHOX   C1 2532  14.332  16.574   8.999  0.2556 -0.0372  0.1521
   69ETHOX  H11 2533  14.294  16.633   9.085 -0.7104 -0.9575  0.3704
   69ETHOX  H13 2534  14.397  16.635   8.933 -0.0095  0.1672  0.0795
   69ETHOX   C2 2535  14.216  16.509   8.913 -0.0003 -0.3414  0.0563
   69ETHOX  H21 2536  14.207  16.411   8.965  0.1488 -0.0210  0.6973
   69ETHOX  H23 2537  14.247  16.505   8.807  0.1897 -0.8897  0.1296
   70ETHOX   O1 2538  14.096  16.576   8.933 -0.4486 -0.4088 -0.4262
   70ETHOX   C1 2539  14.067  16.668   8.833  0.1159  0.5094  1.1337
   70ETHOX  H11 2540  14.154  16.735   8.820  0.4638 -0.4251 -2.5305
   70ETHOX  H13 2541  14.052  16.615   8.736 -1.9428  0.1249  1.6160
   70ETHOX   C2 2542  13.938  16.746   8.857  0.1113 -0.4707 -0.2919
   70ETHOX  H21 2543  13.849  16.680   8.869 -1.3454  1.3802 -0.4607
   70ETHOX  H23 2544  13.920  16.808   8.767 -1.2798 -0.4200 -0.0070
   71ETHOX   O1 2545  13.954  16.834   8.973  0.2516  0.3730 -0.2794
   71ETHOX   C1 2546  13.840  16.914   9.003  1.2307 -0.2006 -0.1138
   71ETHOX  H11 2547  13.745  16.864   9.032  0.1878  0.3981 -2.3062
   71ETHOX  H13 2548  13.810  16.977   8.917  1.3157  0.9843  0.6983
   71ETHOX   C2 2549  13.879  17.010   9.116  0.3498  0.3008 -0.2423
   71ETHOX  H21 2550  13.809  17.096   9.110  1.2984  1.0588 -0.7537
   71ETHOX  H23 2551  13.977  17.057   9.093  2.5580 -3.2293  1.1818
   72ETHOX   O1 2552  13.883  16.953   9.240  0.4802 -0.1786 -0.0539
   72ETHOX   C1 2553  13.981  17.020   9.327  0.5628 -0.0873 -0.1138
   72ETHOX  H11 2554  14.083  17.016   9.282  1.4084 -1.1814  1.7710
   72ETHOX  H13 2555  13.952  17.127   9.338  0.4271 -0.0202 -1.0377
   72ETHOX   C2 2556  13.969  16.979   9.477 -0.3207 -0.5318  0.7802
   72ETHOX  H21 2557  14.038  17.043   9.535 -0.1379  0.9156 -0.9499
   72ETHOX  H23 2558  14.000  16.874   9.496 -2.2332 -1.3534 -0.2513
   73ETHOX   O1 2559  13.833  17.008   9.525  0.3352  0.2145  0.0749
   73ETHOX   C1 2560  13.804  16.938   9.647 -0.1081  0.0238  0.3128
   73ETHOX  H11 2561  13.726  16.996   9.700  0.4894  0.1340  1.0827
   73ETHOX  H13 2562  13.901  16.943   9.702  0.9491 -1.9690 -1.1843
   73ETHOX   C2 2563  13.787  16.789   9.637  0.3046  0.2094  0.7069
   73ETHOX  H21 2564  13.780  16.741   9.737 -0.2940 -0.7658  0.2153
   73ETHOX  H23 2565  13.865  16.734   9.580 -0.1536 -0.3278  0.5825
   74ETHOX   O1 2566  13.657  16.758   9.574  0.0404  0.1761 -0.3972
   74ETHOX   C1 2567  13.664  16.640   9.494  0.4451 -0.3259 -0.2874
   74ETHOX  H11 2568  13.719  16.664   9.400  2.2453 -1.4277  0.4351
   74ETHOX  H13 2569  13.728  16.567   9.548  1.0609  1.8338  2.0795
   74ETHOX   C2 2570  13.524  16.574   9.505  0.0817 -0.0827  1.1428
   74ETHOX  H21 2571  13.499  16.591   9.612  0.7466 -1.5040  1.5446
   74ETHOX  H23 2572  13.541  16.468   9.478  1.0242 -0.2219  2.2031
   75ETHOX   O1 2573  13.435  16.629   9.408  0.0979 -0.2048  0.4215
   75ETHOX   C1 2574  13.308  16.560   9.422  0.0620 -0.2515 -0.1683
   75ETHOX  H11 2575  13.271  16.558   9.526  1.0496 -1.4059  0.1853
   75ETHOX  H13 2576  13.329  16.462   9.372 -0.6506  1.1611 -3.4989
   75ETHOX   C2 2577  13.200  16.628   9.335 -0.6788  0.5338  0.7014
   75ETHOX  H21 2578  13.120  16.553   9.320  1.7602 -1.7071 -2.5134
   75ETHOX  H23 2579  13.248  16.652   9.238 -1.1136  0.1053  0.3754
   76ETHOX   O1 2580  13.141  16.753   9.385 -0.5621  0.2139  0.4811
   76ETHOX   C1 2581  13.040  16.802   9.298 -0.0220 -0.5677 -0.6086
   76ETHOX  H11 2582  13.086  16.847   9.207  0.6541 -0.8361 -0.4048
   76ETHOX  H13 2583  12.970  16.723   9.265 -2.5367  1.2864 -0.0160
   76ETHOX   C2 2584  12.945  16.903   9.365 -0.1213 -0.0769 -0.4178
   76ETHOX  H21 2585  12.886  16.865   9.450 -1.8335  0.8876 -1.1199
   76ETHOX  H23 2586  12.865  16.916   9.289 -1.4901  0.3169  1.0488
   77ETHOX   O1 2587  13.000  17.030   9.392  0.1225  0.2420  0.1244
   77ETHOX   C1 2588  12.916  17.110   9.472  0.1143  0.3304 -0.2936
   77ETHOX  H11 2589  12.897  17.059   9.569 -1.7354  3.3612  1.1124
   77ETHOX  H13 2590  12.816  17.140   9.435  0.7526  2.8982 -0.1011
   77ETHOX   C2 2591  12.993  17.248   9.498 -0.2684  0.2723  0.5588
   77ETHOX  H21 2592  12.907  17.306   9.539 -0.8120  0.8667 -1.3180
   77ETHOX  H23 2593  13.018  17.300   9.402 -2.0857  1.1783  0.5202
   78ETHOX   O1 2594  13.096  17.245   9.590  0.0461  0.3018  0.1104
   78ETHOX   C1 2595  13.166  17.364   9.604  0.1262  0.0195  0.0970
   78ETHOX  H11 2596  13.179  17.407   9.503  1.7762  4.0600  1.7992
   78ETHOX  H13 2597  13.097  17.432   9.659 -1.7211  0.2279 -2.2977
   78ETHOX   C2 2598  13.297  17.357   9.676 -0.6347 -0.6264  0.4417
   78ETHOX  H21 2599  13.275  17.285   9.757  0.8665  0.0365  1.4896
   78ETHOX  H23 2600  13.344  17.452   9.710  0.1168 -1.9172  3.3024
   79ETHOX   O1 2601  13.398  17.290   9.602  0.5100 -0.2999 -0.0406
   79ETHOX   C1 2602  13.513  17.263   9.687 -0.0164  0.0068  0.3973
   79ETHOX  H11 2603  13.474  17.233   9.787 -0.0174 -0.3601  0.2878
   79ETHOX  H13 2604  13.567  17.175   9.646 -2.1763 -0.5277 -1.5086
   79ETHOX   C2 2605  13.617  17.381   9.688 -0.2612 -0.8338  0.0435
   79ETHOX  H21 2606  13.578  17.478   9.726  1.3004  0.8101 -2.2502
   79ETHOX  H23 2607  13.640  17.414   9.584  1.6744  0.2893  0.7842
   80ETHOX   O1 2608  13.732  17.357   9.765  0.2819  0.2109  0.9497
   80ETHOX   C1 2609  13.836  17.308   9.686  0.4222  0.5406 -0.2613
   80ETHOX  H11 2610  13.801  17.210   9.648 -0.6404  0.4574  0.8686
   80ETHOX  H13 2611  13.864  17.367   9.596 -0.7817 -2.1541 -2.5493
   80ETHOX   C2 2612  13.957  17.292   9.777  0.1288 -0.0834 -0.0836
   80ETHOX  H21 2613  14.012  17.206   9.735 -0.4201  0.1248 -1.2546
   80ETHOX  H23 2614  13.923  17.258   9.877  0.0704 -0.1481 -0.1263
   81ETHOX   O1 2615  14.045  17.402   9.788 -0.1603 -0.0247 -0.5779
   81ETHOX   C1 2616  13.980  17.517   9.842 -0.2267 -0.3911  0.2802
   81ETHOX  H11 2617  13.890  17.551   9.787  0.5703 -1.8212 -2.0553
   81ETHOX  H13 2618  13.949  17.484   9.944  3.3342 -2.4578  0.8816
   81ETHOX   C2 2619  14.092  17.625   9.855 -0.2443 -0.2113 -0.5720
   81ETHOX  H21 2620  14.064  17.691   9.940  1.9646  0.2664 -0.1460
   81ETHOX  H23 2621  14.186  17.572   9.882  0.2152  0.9293  0.1606
   82ETHOX   O1 2622  14.110  17.713   9.745  0.0447  0.2175  0.0932
   82ETHOX   C1 2623  14.214  17.804   9.762 -0.5322 -0.3383  0.6810
   82ETHOX  H11 2624  14.310  17.753   9.783  0.3849 -0.5780 -3.2483
   82ETHOX  H13 2625  14.193  17.873   9.846  1.2517  0.1319  0.7805
   82ETHOX   C2 2626  14.246  17.891   9.642  0.2130 -0.0831  0.1271
   82ETHOX  H21 2627  14.307  17.977   9.677  1.2105 -0.1116 -1.4602
   82ETHOX  H23 2628  14.150  17.931   9.604 -0.1504 -1.5552 -0.5417
   83ETHOX   O1 2629  14.315  17.820   9.543  0.7627 -0.3750  0.1355
   83ETHOX   C1 2630  14.289  17.867   9.411 -0.1054  1.0839  0.1284
   83ETHOX  H11 2631  14.189  17.838   9.373  1.4231 -2.4250 -1.6164
   83ETHOX  H13 2632  14.295  17.978   9.412  1.0914  1.0389  0.2823
   83ETHOX   C2 2633  14.400  17.820   9.313 -0.4413  1.5523 -0.4933
   83ETHOX  H21 2634  14.359  17.826   9.209  2.1452  3.0755 -1.5099
   83ETHOX  H23 2635  14.420  17.715   9.341 -0.7737  2.2665  2.8203
   84ETHOX   O1 2636  14.514  17.890   9.328 -0.3324  0.2968 -0.3220
   84ETHOX   C1 2637  14.622  17.841   9.255  0.1618  0.1471 -0.4735
   84ETHOX  H11 2638  14.609  17.847   9.145  1.7678 -1.3138 -0.7864
   84ETHOX  H13 2639  14.648  17.737   9.284 -0.6548 -0.1696 -0.8579
   84ETHOX   C2 2640  14.751  17.932   9.274  0.6206 -0.3895 -0.7016
   84ETHOX  H21 2641  14.839  17.875   9.237  1.3210  0.4741 -0.3794
   84ETHOX  H23 2642  14.761  17.941   9.384 -0.2817  0.5624 -0.6769
   85ETHOX   O1 2643  14.737  18.061   9.237 -0.4325  0.0192  0.5611
   85ETHOX   C1 2644  14.854  18.151   9.270  0.2575 -0.2528 -0.3898
   85ETHOX  H11 2645  14.851  18.176   9.378 -0.3253  0.2246 -0.5085
   85ETHOX  H13 2646  14.949  18.100   9.243  0.4624 -0.2176  0.2489
   85ETHOX   C2 2647  14.848  18.277   9.195 -0.5104 -0.0518  0.4590
   85ETHOX  H21 2648  14.845  18.262   9.085  0.3487  2.2113  0.0837
   85ETHOX  H23 2649  14.929  18.341   9.235 -0.8760 -0.1962  1.4625
   86ETHOX   O1 2650  14.730  18.345   9.230  1.0945  0.2308  0.2062
   86ETHOX   C1 2651  14.730  18.477   9.192 -0.2154  0.0915  0.5660
   86ETHOX  H11 2652  14.791  18.525   9.272 -0.2938 -0.1808  0.7897
   86ETHOX  H13 2653  14.630  18.519   9.215 -0.6697 -0.1341 -0.9346
   86ETHOX   C2 2654  14.764  18.520   9.049  0.0524 -0.1001  0.2919
   86ETHOX  H21 2655  14.749  18.630   9.055 -2.3463 -0.3186 -0.8430
   86ETHOX  H23 2656  14.694  18.475   8.976 -0.4178  2.7691 -1.1579
   87ETHOX   O1 2657  14.893  18.492   9.002 -0.6862  0.4715 -0.1271
   87ETHOX   C1 2658  14.909  18.512   8.854  0.3484 -0.1293  0.1915
   87ETHOX  H11 2659  14.838  18.442   8.806 -3.3065  1.6958  2.4377
   87ETHOX  H13 2660  14.860  18.609   8.829 -1.1458 -0.8545  0.1538
   87ETHOX   C2 2661  15.053  18.495   8.800  0.0531  0.4473 -0.2246
   87ETHOX  H21 2662  15.118  18.561   8.862  1.0284  0.2177 -0.9996
   87ETHOX  H23 2663  15.053  18.542   8.700 -0.6852  0.4464 -0.2345
   88ETHOX   O1 2664  15.094  18.360   8.798 -0.4861 -0.6483 -0.2100
   88ETHOX   C1 2665  15.105  18.304   8.924 -0.2344  0.1573  0.6222
   88ETHOX  H11 2666  15.000  18.284   8.954 -1.2531 -3.3510 -4.0963
   88ETHOX  H13 2667  15.151  18.378   8.993  0.7578 -1.3778  1.6704
   88ETHOX   C2 2668  15.192  18.172   8.922  0.0276  0.6727  0.0258
   88ETHOX  H21 2669  15.285  18.209   8.874 -0.4983  2.2298  0.1423
   88ETHOX  H23 2670  15.143  18.092   8.863  1.4141 -0.6554  0.6307
   89ETHOX   O1 2671  15.211  18.116   9.049 -0.0958 -0.1072 -0.8449
   89ETHOX   C1 2672  15.296  18.003   9.048 -0.0934 -0.5757  0.3855
   89ETHOX  H11 2673  15.255  17.941   8.965 -0.8298  1.8881 -1.1918
   89ETHOX  H13 2674  15.403  18.028   9.032 -0.1606  1.4320  2.5088
   89ETHOX   C2 2675  15.288  17.918   9.176 -0.0296 -0.3352 -0.0428
   89ETHOX  H21 2676  15.293  17.994   9.257 -0.0745  1.4448 -1.6412
   89ETHOX  H23 2677  15.368  17.842   9.181 -1.1652 -1.5503  0.3851
   90ETHOX   O1 2678  15.157  17.875   9.207 -0.0206 -1.0113  0.0119
   90ETHOX   C1 2679  15.149  17.772   9.300 -0.0605 -0.1571  0.3223
   90ETHOX  H11 2680  15.252  17.760   9.341  0.3417  1.1673 -0.2365
   90ETHOX  H13 2681  15.070  17.806   9.372  0.7322  0.3531  0.9815
   90ETHOX   C2 2682  15.098  17.641   9.230  1.0157 -0.4485  0.1307
   90ETHOX  H21 2683  15.108  17.544   9.283  1.6635 -0.4860 -0.0490
   90ETHOX  H23 2684  15.169  17.638   9.144  1.6473 -0.9317  0.6573
   91ETHOX   O1 2685  14.969  17.651   9.168  0.2644 -0.7571  0.2065
   91ETHOX   C1 2686  14.924  17.530   9.100 -0.3103  0.3172 -0.3881
   91ETHOX  H11 2687  15.005  17.513   9.026  0.8361  1.4259  0.5541
   91ETHOX  H13 2688  14.933  17.450   9.176 -0.7416  1.2650  0.6960
   91ETHOX   C2 2689  14.773  17.533   9.047 -0.4360 -0.1180  0.8578
   91ETHOX  H21 2690  14.760  17.438   8.991 -0.6107 -0.6847  1.8336
   91ETHOX  H23 2691  14.763  17.617   8.976  2.8347  1.1599  1.7135
   92ETHOX   O1 2692  14.689  17.546   9.160  0.0148 -0.2380  0.5367
   92ETHOX   C1 2693  14.561  17.500   9.129  0.4409 -1.1378  0.1011
   92ETHOX  H11 2694  14.485  17.537   9.201  0.1331  0.3654 -0.9318
   92ETHOX  H13 2695  14.537  17.544   9.029 -1.6380  0.1273  1.0888
   92ETHOX   C2 2696  14.531  17.347   9.129  0.3593  0.3164  0.0934
   92ETHOX  H21 2697  14.591  17.305   9.046  2.3270 -0.0030  1.5994
   92ETHOX  H23 2698  14.428  17.320   9.097 -0.6524  1.4372  2.2355
   93ETHOX   O1 2699  14.568  17.286   9.253 -0.3832 -0.3097  0.1813
   93ETHOX   C1 2700  14.685  17.208   9.244  0.0675 -0.5736 -0.5797
   93ETHOX  H11 2701  14.767  17.261   9.190  0.9059 -1.4911 -0.2227
   93ETHOX  H13 2702  14.649  17.121   9.185 -0.9720 -2.5082  2.6936
   93ETHOX   C2 2703  14.738  17.162   9.384  0.0151 -0.1391  0.0296
   93ETHOX  H21 2704  14.739  17.238   9.465  1.4400 -0.0332 -0.0717
   93ETHOX  H23 2705  14.846  17.141   9.375  0.1537  0.5782 -0.1176
   94ETHOX   O1 2706  14.677  17.034   9.425  0.3798  0.2502 -0.1039
   94ETHOX   C1 2707  14.771  16.965   9.510 -0.3709 -0.1444 -0.1433
   94ETHOX  H11 2708  14.719  16.867   9.513 -2.9252  1.0876 -1.0573
   94ETHOX  H13 2709  14.870  16.954   9.461 -0.9965 -4.0010 -0.8454
   94ETHOX   C2 2710  14.780  17.014   9.663  0.0033  0.6382 -0.2939
   94ETHOX  H21 2711  14.813  17.120   9.664 -1.5166  1.1713 -2.0018
   94ETHOX  H23 2712  14.847  16.948   9.722 -0.2502  1.9715  1.6086
   95ETHOX   O1 2713  14.651  17.009   9.724 -0.2550 -0.0626  0.5500
   95ETHOX   C1 2714  14.616  17.119   9.807  0.4776 -0.8897  0.0062
   95ETHOX  H11 2715  14.654  17.213   9.761  0.0214 -2.0172 -2.8716
   95ETHOX  H13 2716  14.658  17.110   9.910 -0.5942  1.5450  0.7325
   95ETHOX   C2 2717  14.466  17.157   9.807  1.0153  1.0205  0.4796
   95ETHOX  H21 2718  14.430  17.171   9.703  1.7146 -0.3292  0.0349
   95ETHOX  H23 2719  14.456  17.253   9.862  0.0637  1.7224 -0.8573
   96ETHOX   O1 2720  14.390  17.057   9.862  1.0426  0.4223 -0.4672
   96ETHOX   C1 2721  14.255  17.096   9.864  0.2550 -0.1573  0.4461
   96ETHOX  H11 2722  14.246  17.205   9.883 -1.6541 -0.0049 -1.0165
   96ETHOX  H13 2723  14.209  17.077   9.764  0.6541  4.0026 -0.7219
   96ETHOX   C2 2724  14.171  17.025   9.967  0.4238  1.3668  0.2715
   96ETHOX  H21 2725  14.081  17.085   9.996 -0.5545  0.4892 -0.8326
   96ETHOX  H23 2726  14.238  17.020  10.055  0.3305 -0.0212  0.2806
   97ETHOX   O1 2727  14.134  16.893   9.923 -0.3522 -0.2103  0.0775
   97ETHOX   C1 2728  14.046  16.829  10.018 -0.4596 -0.0062  0.2047
   97ETHOX  H11 2729  13.951  16.885  10.029 -1.1067 -0.3621 -2.8072
   97ETHOX  H13 2730  14.091  16.823  10.119  0.6639 -1.8953 -0.3528
   97ETHOX   C2 2731  14.015  16.684   9.979 -0.2348  0.3021 -0.6190
   97ETHOX  H21 2732  13.991  16.678   9.871 -2.5523 -0.6738 -0.1141
   97ETHOX  H23 2733  13.926  16.660  10.042  1.2475  0.6588  1.7358
   98ETHOX   O1 2734  14.119  16.599  10.008  0.2521 -0.1506 -0.0620
   98ETHOX   C1 2735  14.078  16.458  10.020  0.4032 -0.5286 -0.3115
   98ETHOX  H11 2736  14.028  16.433  10.116  2.5169  1.0448  1.2967
   98ETHOX  H13 2737  13.995  16.439   9.948 -0.7544 -0.7830  1.0226
   98ETHOX   C2 2738  14.194  16.367  10.001 -0.1708  0.3043 -1.0142
   98ETHOX  H21 2739  14.258  16.419   9.927 -0.8870 -2.4489 -3.7598
   98ETHOX  H23 2740  14.171  16.266   9.961 -0.4624  0.5069 -1.3593
   99ETHOX   O1 2741  14.273  16.343  10.120  0.6525 -0.8600  0.5010
   99ETHOX   C1 2742  14.384  16.259  10.093 -0.3502  0.1166 -0.0624
   99ETHOX  H11 2743  14.445  16.336  10.041  0.2054 -0.8695 -0.8976
   99ETHOX  H13 2744  14.350  16.172  10.033  0.9154 -0.0511 -0.5752
   99ETHOX   C2 2745  14.460  16.219  10.221 -0.3306  0.0398 -0.3651
   99ETHOX  H21 2746  14.382  16.186  10.293 -0.8712  2.6710  0.3623
   99ETHOX  H23 2747  14.501  16.309  10.271 -2.2175 -0.5148  2.4398
  100ETHOX   O1 2748  14.566  16.126  10.202 -0.2101  0.0747  0.1082
  100ETHOX   C1 2749  14.624  16.082  10.326  0.3954  0.4938 -0.2204
  100ETHOX  H11 2750  14.729  16.056  10.304 -0.1152 -0.7855 -1.2627
  100ETHOX  H13 2751  14.620  16.157  10.408 -1.3071 -1.0837  1.2204
  100ETHOX   C2 2752  14.542  15.957  10.371 -0.4685  0.0886 -0.2090
  100ETHOX  H21 2753  14.625  15.907  10.426  0.9150 -0.5253 -2.7414
  100ETHOX  H23 2754  14.504  15.899  10.285  1.4060 -0.9807 -0.3774
  101PROXS   O1 2755  14.440  15.987  10.463  0.6218 -0.2873 -0.2333
  101PROXS   C1 2756  14.382  15.864  10.497 -0.0262 -0.1615  0.8366
  101PROXS  H11 2757  14.341  15.820  10.404 -2.9940 -0.0356  1.9960
  101PROXS  H13 2758  14.450  15.797  10.553 -0.1353  1.3157  2.8744
  101PROXS   C2 2759  14.265  15.881  10.594 -0.2855 -0.5079 -0.2225
  101PROXS  H21 2760  14.196  15.963  10.564  0.8819  0.3231 -0.6640
  101PROXS   C3 2761  14.319  15.909  10.733 -0.3567 -0.6685 -0.4993
  101PROXS  H31 2762  14.381  16.001  10.723  0.2805 -0.8852  1.0835
  101PROXS  H32 2763  14.240  15.920  10.811 -1.1156 -1.9876 -1.0619
  101PROXS  H33 2764  14.388  15.829  10.769  1.3533  1.0666  0.2827
  102PROXS   O1 2765  14.202  15.752  10.608 -0.2923 -0.2818 -0.4235
  102PROXS   C1 2766  14.096  15.738  10.512  0.2171 -0.0248 -0.6708
  102PROXS  H11 2767  14.033  15.830  10.507 -1.8604 -1.1691  2.0116
  102PROXS  H13 2768  14.139  15.719  10.411 -0.5835 -2.1331 -0.6761
  102PROXS   C2 2769  14.002  15.615  10.537  0.0519 -0.6753 -0.1199
  102PROXS  H21 2770  13.961  15.620  10.640  0.3087 -0.6156 -0.0173
  102PROXS   C3 2771  14.079  15.487  10.523 -0.0391 -0.0457  0.0741
  102PROXS  H31 2772  14.121  15.497  10.421 -1.9192 -1.5296 -0.9027
  102PROXS  H32 2773  14.156  15.476  10.602  0.3086  2.6663  0.2284
  102PROXS  H33 2774  14.005  15.404  10.512  1.6921 -1.5574 -0.5927
  103PROXR   O1 2775  13.907  15.616  10.431 -0.0372  0.4806  0.2240
  103PROXR   C1 2776  13.787  15.671  10.474 -0.2277  0.5302  0.2342
  103PROXR  H11 2777  13.756  15.601  10.555  0.9514 -0.6502 -0.2883
  103PROXR  H13 2778  13.809  15.766  10.528  1.8915  0.0699  0.2879
  103PROXR   C2 2779  13.686  15.673  10.364  0.1325  0.6321 -0.1260
  103PROXR  H21 2780  13.659  15.569  10.335 -1.8755  0.7348  1.1624
  103PROXR   C3 2781  13.741  15.765  10.247 -0.4040  0.3322  0.3080
  103PROXR  H31 2782  13.684  15.735  10.156  1.1572  0.6395 -0.8184
  103PROXR  H32 2783  13.730  15.872  10.271  0.2994  0.2975  0.8042
  103PROXR  H33 2784  13.851  15.748  10.244 -0.1784  0.8623  2.9298
  104PROXS   O1 2785  13.569  15.721  10.415 -0.3674 -0.8344 -0.2240
  104PROXS   C1 2786  13.461  15.697  10.326  0.2796  0.1795 -0.5228
  104PROXS  H11 2787  13.454  15.792  10.268 -0.8242  1.6542  1.8697
  104PROXS  H13 2788  13.474  15.615  10.252  1.1381 -1.8082  1.6879
  104PROXS   C2 2789  13.326  15.680  10.406 -0.4288  0.4503 -0.0358
  104PROXS  H21 2790  13.302  15.772  10.464  2.3399  0.8072  0.6828
  104PROXS   C3 2791  13.329  15.569  10.514 -0.3123 -0.7875  0.4047
  104PROXS  H31 2792  13.395  15.592  10.599 -0.0342  0.0865 -0.0403
  104PROXS  H32 2793  13.230  15.536  10.552 -0.4686  1.2900  1.9751
  104PROXS  H33 2794  13.365  15.477  10.462 -2.1330 -0.1856 -2.1464
  105PROXS   O1 2795  13.223  15.651  10.310 -0.0310  0.2907 -0.4826
  105PROXS   C1 2796  13.094  15.682  10.364 -0.6149 -0.4836 -0.5700
  105PROXS  H11 2797  13.067  15.614  10.447  0.7648  0.5986  0.8172
  105PROXS  H13 2798  13.098  15.787  10.399  2.5024 -0.6326 -0.2297
  105PROXS   C2 2799  12.987  15.688  10.256  0.5401  0.0736  0.4771
  105PROXS  H21 2800  12.987  15.587  10.208  2.2972 -0.7156  1.9946
  105PROXS   C3 2801  13.011  15.804  10.159 -0.1950  0.3371  0.2856
  105PROXS  H31 2802  13.120  15.818  10.142  0.1326 -0.0949  1.8993
  105PROXS  H32 2803  12.968  15.781  10.059 -1.3049 -2.9833  1.3924
  105PROXS  H33 2804  12.971  15.900  10.197 -0.7430 -0.2235  1.1573
  106PROXS   O1 2805  12.859  15.711  10.315 -0.7535 -0.4279 -0.5736
  106PROXS   C1 2806  12.746  15.659  10.243  0.5436 -0.4750  0.2184
  106PROXS  H11 2807  12.766  15.661  10.134 -0.0528 -2.7791  0.0137
  106PROXS  H13 2808  12.733  15.552  10.270  2.5635 -0.4020  1.7184
  106PROXS   C2 2809  12.620  15.746  10.277  1.3197  0.2562 -0.6941
  106PROXS  H21 2810  12.637  15.852  10.247  1.0899  1.4032  2.7564
  106PROXS   C3 2811  12.574  15.746  10.425  0.1158  0.3132  1.0034
  106PROXS  H31 2812  12.665  15.774  10.482  1.8267  0.8425 -1.8111
  106PROXS  H32 2813  12.493  15.817  10.452 -1.4873 -1.3696  0.8142
  106PROXS  H33 2814  12.525  15.648  10.442 -1.1086  0.2486 -2.1328
  107PROXR   O1 2815  12.516  15.688  10.202  0.0136 -0.9735 -0.2442
  107PROXR   C1 2816  12.395  15.771  10.200 -0.1242 -0.3722  0.3042
  107PROXR  H11 2817  12.347  15.778  10.300 -1.0096 -1.7227  0.0081
  107PROXR  H13 2818  12.433  15.873  10.177  0.5512 -0.1708  2.1708
  107PROXR   C2 2819  12.302  15.721  10.088  0.1757  0.3560  0.3129
  107PROXR  H21 2820  12.362  15.700   9.997 -0.2790  0.1711  0.0539
  107PROXR   C3 2821  12.200  15.824  10.052  0.0729  0.0931 -0.3102
  107PROXR  H31 2822  12.139  15.783   9.968 -1.5382  0.7509  0.5159
  107PROXR  H32 2823  12.136  15.839  10.141  2.6650 -1.5717  2.0285
  107PROXR  H33 2824  12.260  15.913  10.024  1.9476 -1.3684 -1.2460
  108PROXS   O1 2825  12.228  15.602  10.130 -0.0674 -0.5988  0.0811
  108PROXS   C1 2826  12.303  15.497  10.188  0.6267  0.3063 -0.1597
  108PROXS  H11 2827  12.403  15.474  10.148 -0.3657 -0.8412 -2.1229
  108PROXS  H13 2828  12.308  15.535  10.293 -0.0925 -0.3818  0.1401
  108PROXS   C2 2829  12.220  15.366  10.188 -0.2725  0.1887 -0.6690
  108PROXS  H21 2830  12.112  15.389  10.195 -0.4109 -0.3392 -0.9921
  108PROXS   C3 2831  12.257  15.268  10.299  0.2549 -0.3893  0.3323
  108PROXS  H31 2832  12.258  15.304  10.404  3.0042  0.2361  0.1591
  108PROXS  H32 2833  12.182  15.187  10.284 -0.2779 -0.4759  3.0772
  108PROXS  H33 2834  12.358  15.230  10.273  0.4215  0.1097  0.2264
  109PROXS   O1 2835  12.249  15.294  10.072  0.1555 -0.0781  0.0917
  109PROXS   C1 2836  12.211  15.363   9.949 -0.4712  0.4096 -0.3887
  109PROXS  H11 2837  12.120  15.424   9.970  1.1722  2.3954  1.4570
  109PROXS  H13 2838  12.291  15.435   9.920 -1.6062  0.9538 -2.3126
  109PROXS   C2 2839  12.185  15.279   9.822  0.2921 -0.3492  0.2993
  109PROXS  H21 2840  12.276  15.227   9.785 -0.6798 -0.3341 -2.3211
  109PROXS   C3 2841  12.146  15.369   9.700  1.0463  0.3295 -0.7003
  109PROXS  H31 2842  12.124  15.304   9.612 -0.8255  0.5775 -0.4659
  109PROXS  H32 2843  12.059  15.430   9.733  1.3248  1.7388 -2.4021
  109PROXS  H33 2844  12.231  15.438   9.683  1.1366  0.6385  0.8949
  110PROXR   O1 2845  12.079  15.184   9.835 -0.1471 -0.9213 -0.5864
  110PROXR   C1 2846  12.108  15.085   9.937  0.0862 -0.1096  0.0650
  110PROXR  H11 2847  12.218  15.073   9.949  0.1365  1.2695  1.3348
  110PROXR  H13 2848  12.072  15.125  10.034 -0.0354  1.7306 -0.6992
  110PROXR   C2 2849  12.045  14.947   9.904 -0.1500  0.8001 -0.4212
  110PROXR  H21 2850  12.088  14.916   9.806  1.2970  2.7198 -0.4539
  110PROXR   C3 2851  11.892  14.947   9.901  0.3216 -0.5123  0.3354
  110PROXR  H31 2852  11.851  14.996   9.993 -2.0511 -2.3616  0.3392
  110PROXR  H32 2853  11.854  15.009   9.817 -0.3498  1.0800  1.7524
  110PROXR  H33 2854  11.846  14.847   9.889  1.8716 -1.1774 -0.1817
  111PROXS   O1 2855  12.090  14.864  10.008  0.1989 -0.0318  0.3479
  111PROXS   C1 2856  12.038  14.736  10.001 -0.2806  0.0198  0.1542
  111PROXS  H11 2857  11.938  14.730  10.050 -0.0407 -1.3667  0.4987
  111PROXS  H13 2858  12.038  14.708   9.893  2.7949  2.7734 -0.7389
  111PROXS   C2 2859  12.133  14.635  10.063  0.9525 -0.1462  0.3208
  111PROXS  H21 2860  12.152  14.669  10.167  1.3646  1.3867 -0.2300
  111PROXS   C3 2861  12.264  14.626   9.987  0.3604 -0.6704 -0.1673
  111PROXS  H31 2862  12.247  14.618   9.878  0.2467  0.9907 -0.3004
  111PROXS  H32 2863  12.329  14.715  10.002  0.7186 -1.1184  1.0532
  111PROXS  H33 2864  12.332  14.542  10.009  0.2179 -1.5091 -2.6516
  112PROXR   O1 2865  12.081  14.504  10.052  0.1336 -0.5692 -0.0542
  112PROXR   C1 2866  12.000  14.467  10.171 -0.3360  0.8611 -0.4990
  112PROXR  H11 2867  12.057  14.511  10.255 -0.8897  1.4762 -0.4411
  112PROXR  H13 2868  11.901  14.516  10.156 -0.5261  0.1178 -1.9663
  112PROXR   C2 2869  11.990  14.313  10.170  0.1035  0.0302 -0.5376
  112PROXR  H21 2870  12.092  14.269  10.157 -0.0545 -1.1799  1.9052
  112PROXR   C3 2871  11.924  14.274  10.042  0.0029 -0.4395 -0.3012
  112PROXR  H31 2872  11.830  14.333  10.035  0.3919  0.1252 -0.9914
  112PROXR  H32 2873  11.994  14.301   9.959 -0.7617  2.0604 -0.2061
  112PROXR  H33 2874  11.885  14.170  10.035  0.1865 -0.7161  2.1438
  113PROXS   O1 2875  11.927  14.269  10.293 -0.0670 -0.0629 -0.9492
  113PROXS   C1 2876  11.980  14.147  10.338 -0.1078 -1.0361  0.2551
  113PROXS  H11 2877  11.957  14.076  10.256 -0.7903  1.8256 -2.2239
  113PROXS  H13 2878  12.090  14.160  10.344 -0.0429 -1.8781  1.0221
  113PROXS   C2 2879  11.906  14.101  10.474 -0.0852 -0.5537  0.7322
  113PROXS  H21 2880  11.799  14.126  10.457  0.3002 -0.4705 -2.0639
  113PROXS   C3 2881  11.956  14.194  10.589  0.2218  0.1630  0.1269
  113PROXS  H31 2882  12.066  14.207  10.587  0.5538 -2.1815  0.0642
  113PROXS  H32 2883  11.911  14.296  10.584 -0.2148 -0.0880 -1.8429
  113PROXS  H33 2884  11.925  14.154  10.688  2.8832 -0.9364  0.6075
  114PROXR   O1 2885  11.930  13.968  10.506 -0.0730  0.5556  0.4882
  114PROXR   C1 2886  12.064  13.917  10.471  0.6419 -0.8501 -0.3446
  114PROXR  H11 2887  12.073  13.905  10.361 -0.9934  1.5082 -0.8311
  114PROXR  H13 2888  12.140  13.990  10.503  0.6171 -1.0448  0.1578
  114PROXR   C2 2889  12.082  13.785  10.546  0.0280  0.0436  0.6221
  114PROXR  H21 2890  12.044  13.701  10.484  2.6273  0.4716 -1.7733
  114PROXR   C3 2891  12.027  13.778  10.688  0.4376  0.4867  0.2061
  114PROXR  H31 2892  11.918  13.796  10.676  0.8467  3.2119 -0.1052
  114PROXR  H32 2893  12.056  13.676  10.720  2.4875  0.3319 -1.9289
  114PROXR  H33 2894  12.070  13.864  10.744  1.4046  1.4238 -1.8744
  115PROXR   O1 2895  12.216  13.755  10.571  0.3897 -0.8774  0.2704
  115PROXR   C1 2896  12.281  13.705  10.456 -0.7592  0.8875  0.1762
  115PROXR  H11 2897  12.224  13.624  10.407 -1.0589 -0.0528  2.0110
  115PROXR  H13 2898  12.289  13.792  10.386  0.4667  1.9501  1.5735
  115PROXR   C2 2899  12.419  13.656  10.486  0.3537  0.0868  0.9191
  115PROXR  H21 2900  12.407  13.574  10.560 -1.6986 -0.8638 -0.3701
  115PROXR   C3 2901  12.504  13.769  10.542  0.3151 -0.8029 -0.6203
  115PROXR  H31 2902  12.444  13.820  10.620 -0.3835  0.9609 -2.2491
  115PROXR  H32 2903  12.592  13.725  10.592 -0.0133  1.6305  2.3763
  115PROXR  H33 2904  12.522  13.851  10.469 -0.6255 -0.3776 -0.3983
  116PROXS   O1 2905  12.471  13.599  10.364 -0.1317 -0.3158 -0.2857
  116PROXS   C1 2906  12.595  13.524  10.379 -0.2906 -0.9354  0.6780
  116PROXS  H11 2907  12.672  13.577  10.438 -0.8009  0.2819  0.2867
  116PROXS  H13 2908  12.572  13.435  10.441 -1.0938 -1.6268 -0.5528
  116PROXS   C2 2909  12.654  13.480  10.239  0.1889 -0.3956 -0.1372
  116PROXS  H21 2910  12.570  13.437  10.182 -0.4944  1.3428 -0.4959
  116PROXS   C3 2911  12.762  13.371  10.255  0.5665 -0.5118 -0.5959
  116PROXS  H31 2912  12.714  13.284  10.305 -2.7325  0.6992 -1.4022
  116PROXS  H32 2913  12.792  13.336  10.154 -1.9428  2.3553 -2.4951
  116PROXS  H33 2914  12.849  13.403  10.316 -1.6164  2.7447  1.0826
  117PROXS   O1 2915  12.711  13.597  10.179  0.2565  0.1402 -0.1709
  117PROXS   C1 2916  12.690  13.596  10.039 -0.2746  0.0391 -0.1129
  117PROXS  H11 2917  12.718  13.498   9.995  0.6821  0.6566 -0.9260
  117PROXS  H13 2918  12.582  13.618  10.024 -0.3741  0.3795  1.0602
  117PROXS   C2 2919  12.763  13.712   9.973  0.2760  0.1650  0.4470
  117PROXS  H21 2920  12.775  13.794  10.047 -0.9665 -0.2431  1.1211
  117PROXS   C3 2921  12.683  13.763   9.852  0.1390  0.1464  0.2861
  117PROXS  H31 2922  12.732  13.841   9.790  0.4517 -2.0295 -2.3928
  117PROXS  H32 2923  12.655  13.682   9.781  1.5890  0.5616 -0.8168
  117PROXS  H33 2924  12.586  13.802   9.889 -0.2945 -0.4474 -0.1928
  118PROXR   O1 2925  12.899  13.665   9.928  0.4275  0.1025  0.2763
  118PROXR   C1 2926  12.988  13.643  10.033 -0.6062  0.8882 -0.2685
  118PROXR  H11 2927  13.013  13.739  10.083 -1.8051  1.4961 -0.7944
  118PROXR  H13 2928  12.966  13.568  10.111 -0.1323  0.8325 -0.1829
  118PROXR   C2 2929  13.120  13.590   9.964  0.6819 -0.6558 -1.0889
  118PROXR  H21 2930  13.158  13.670   9.896 -0.4862 -0.8221 -1.9631
  118PROXR   C3 2931  13.103  13.463   9.882  0.3622  0.0568  0.1885
  118PROXR  H31 2932  13.195  13.421   9.837  0.6533  0.3147  0.5431
  118PROXR  H32 2933  13.062  13.389   9.953  0.8939 -0.1317  0.2942
  118PROXR  H33 2934  13.023  13.478   9.805  0.5349 -3.9790 -1.0210
  119PROXR   O1 2935  13.205  13.572  10.076  0.0596  0.3311 -0.6405
  119PROXR   C1 2936  13.335  13.599  10.056 -1.0121  0.0738  0.0525
  119PROXR  H11 2937  13.374  13.566   9.957  0.1698  0.4751  0.3655
  119PROXR  H13 2938  13.351  13.709  10.062 -0.9202  0.0464  0.3062
  119PROXR   C2 2939  13.405  13.528  10.166 -0.5458  0.0640  0.0705
  119PROXR  H21 2940  13.384  13.419  10.162  1.2981 -0.3422  0.4693
  119PROXR   C3 2941  13.356  13.569  10.311  0.2439  0.2219 -0.1240
  119PROXR  H31 2942  13.380  13.677  10.321 -0.3263  0.6145 -2.4380
  119PROXR  H32 2943  13.247  13.549  10.316  0.2083  0.6753  1.5193
  119PROXR  H33 2944  13.417  13.520  10.389 -1.3950 -0.3701  0.8349
  120PROXS   O1 2945  13.548  13.544  10.152 -0.5371 -0.4273  0.1783
  120PROXS   C1 2946  13.595  13.679  10.159  0.2454  0.3954  0.0795
  120PROXS  H11 2947  13.593  13.702  10.050  2.0692  1.3059  0.2023
  120PROXS  H13 2948  13.533  13.752  10.215 -0.1422 -0.1116  0.3197
  120PROXS   C2 2949  13.744  13.689  10.209 -0.4563  0.2882  0.9058
  120PROXS  H21 2950  13.804  13.610  10.160  1.0309  1.5724  0.5638
  120PROXS   C3 2951  13.742  13.676  10.357 -0.1797 -0.2486  0.5816
  120PROXS  H31 2952  13.845  13.688  10.398  0.4833  0.7140 -1.2333
  120PROXS  H32 2953  13.678  13.759  10.393  0.1001  0.9281 -1.4506
  120PROXS  H33 2954  13.699  13.579  10.389  1.2175 -0.9705  0.3528
  121PROXS   O1 2955  13.801  13.812  10.168 -0.5610  0.1820 -0.0253
  121PROXS   C1 2956  13.946  13.806  10.149 -0.1077  0.3772 -0.4239
  121PROXS  H11 2957  13.985  13.797  10.253 -1.4911 -0.2949  0.0582
  121PROXS  H13 2958  13.966  13.708  10.100 -0.5613 -1.1954  2.3433
  121PROXS   C2 2959  13.999  13.923  10.066  0.2034 -0.5121  0.6830
  121PROXS  H21 2960  13.968  14.018  10.114 -0.0776 -0.6090  0.6972
  121PROXS   C3 2961  13.953  13.910   9.922 -0.3841 -0.3734 -0.6602
  121PROXS  H31 2962  13.985  13.814   9.875  0.9848  0.2418 -1.0440
  121PROXS  H32 2963  13.843  13.908   9.910 -0.3580  0.5197 -1.1749
  121PROXS  H33 2964  13.982  13.994   9.855 -2.9792  0.1593 -1.2152
  122PROXS   O1 2965  14.135  13.915  10.072 -0.1536 -0.0174  0.0636
  122PROXS   C1 2966  14.206  14.037  10.076 -0.0740 -0.1595  1.3222
  122PROXS  H11 2967  14.176  14.110   9.997 -0.9617 -2.4378 -0.5390
  122PROXS  H13 2968  14.163  14.082  10.168 -0.8717  1.6699  0.1242
  122PROXS   C2 2969  14.360  13.999  10.087  0.3747 -0.5659  0.0964
  122PROXS  H21 2970  14.365  13.897  10.131  1.3277 -1.0136 -0.9934
  122PROXS   C3 2971  14.435  14.099  10.176  0.4170  0.1749  0.8277
  122PROXS  H31 2972  14.399  14.115  10.280  2.1542  0.0842  1.4729
  122PROXS  H32 2973  14.539  14.066  10.195  0.2710  0.2338  1.8308
  122PROXS  H33 2974  14.430  14.203  10.137  0.7907  0.1841  0.8050
  123PROXS   O1 2975  14.423  13.994   9.961  0.2233  1.0828  0.3544
  123PROXS   C1 2976  14.364  13.893   9.875  0.6082 -0.1231  0.1118
  123PROXS  H11 2977  14.256  13.911   9.856  1.1011  0.4255 -2.6291
  123PROXS  H13 2978  14.406  13.897   9.772 -0.2930 -0.4044 -0.2717
  123PROXS   C2 2979  14.390  13.746   9.930 -0.0167  0.7350 -0.0675
  123PROXS  H21 2980  14.324  13.720  10.015 -0.3144  1.6522 -0.0090
  123PROXS   C3 2981  14.533  13.736   9.973 -0.5311 -0.5136 -0.0948
  123PROXS  H31 2982  14.555  13.807  10.055  0.0177  0.5421 -1.1284
  123PROXS  H32 2983  14.543  13.632  10.012  0.9140  0.1542  1.4545
  123PROXS  H33 2984  14.608  13.758   9.894 -2.0235  1.7671 -0.9533
  124PROXR   O1 2985  14.371  13.653   9.830 -0.1069 -0.2956 -1.1722
  124PROXR   C1 2986  14.230  13.646   9.794 -0.2189  0.1340  0.0628
  124PROXR  H11 2987  14.170  13.697   9.873 -0.4899 -0.5893  0.3347
  124PROXR  H13 2988  14.216  13.711   9.705  0.7367  1.4770  0.8437
  124PROXR   C2 2989  14.178  13.505   9.770  1.2922 -0.5363 -0.5707
  124PROXR  H21 2990  14.185  13.444   9.862 -1.2267 -0.9076 -0.5533
  124PROXR   C3 2991  14.259  13.442   9.658 -0.4476  0.5037 -0.0719
  124PROXR  H31 2992  14.366  13.442   9.688  0.1872 -0.8922 -2.0983
  124PROXR  H32 2993  14.230  13.335   9.658 -1.4652  0.7528  1.5881
  124PROXR  H33 2994  14.242  13.494   9.562 -0.4330 -0.5707 -0.6762
  125PROXS   O1 2995  14.037  13.514   9.729  0.0182  0.0701  0.1721
  125PROXS   C1 2996  13.957  13.418   9.797  1.1641 -0.2331 -0.3818
  125PROXS  H11 2997  13.980  13.316   9.760 -0.0246 -0.5594 -0.2814
  125PROXS  H13 2998  13.958  13.425   9.908 -0.7117 -0.4762 -0.3186
  125PROXS   C2 2999  13.807  13.434   9.762  0.3028 -0.1342  0.4593
  125PROXS  H21 3000  13.792  13.437   9.652 -1.4357  1.0143  0.6868
  125PROXS   C3 3001  13.751  13.572   9.795  0.1007 -0.1635  0.3223
  125PROXS  H31 3002  13.647  13.569   9.758 -0.9877  1.2501  2.9491
  125PROXS  H32 3003  13.749  13.591   9.905  0.7749 -0.9454  0.4839
  125PROXS  H33 3004  13.801  13.660   9.748  0.3687  0.4943  1.7631
  126PROXS   O1 3005  13.734  13.322   9.818  0.7351  0.4261 -0.2301
  126PROXS   C1 3006  13.591  13.325   9.797  0.6215 -0.1070 -0.0860
  126PROXS  H11 3007  13.541  13.407   9.853  1.8330  0.6351 -0.0647
  126PROXS  H13 3008  13.574  13.343   9.689 -0.9470  1.5413  0.3738
  126PROXS   C2 3009  13.525  13.183   9.837  0.3456 -0.2140 -0.1201
  126PROXS  H21 3010  13.544  13.158   9.944  0.8088 -0.9136 -0.3618
  126PROXS   C3 3011  13.584  13.059   9.754  0.2466 -0.3671 -0.2088
  126PROXS  H31 3012  13.571  13.079   9.645 -1.1334 -0.8670 -0.1577
  126PROXS  H32 3013  13.690  13.061   9.784  0.8252  0.0680 -2.1215
  126PROXS  H33 3014  13.536  12.965   9.789  0.8763  0.4786  3.2258
  127PROXR   O1 3015  13.384  13.187   9.810  0.0918  0.2372 -0.0911
  127PROXR   C1 3016  13.309  13.075   9.857 -0.1633  0.6896  0.2012
  127PROXR  H11 3017  13.287  13.007   9.772  1.4870 -0.3319  0.5496
  127PROXR  H13 3018  13.366  13.010   9.926  1.2516  0.4922 -1.1116
  127PROXR   C2 3019  13.174  13.113   9.930  0.3990 -0.4563  0.1621
  127PROXR  H21 3020  13.134  13.188   9.859  0.2987 -0.5613  0.1063
  127PROXR   C3 3021  13.193  13.186  10.062  0.9090  0.2785 -0.2802
  127PROXR  H31 3022  13.097  13.218  10.106  0.6700  0.9720 -1.2639
  127PROXR  H32 3023  13.237  13.110  10.131 -0.6679 -0.7920 -0.4215
  127PROXR  H33 3024  13.264  13.270  10.047  1.3699 -0.0130  0.2214
  128PROXR   O1 3025  13.091  12.999   9.932  0.2841 -0.2553 -1.1064
  128PROXR   C1 3026  12.959  13.028   9.909  0.4028 -0.3663 -0.2809
  128PROXR  H11 3027  12.933  13.136   9.918 -0.7900 -0.6627 -0.0520
  128PROXR  H13 3028  12.941  12.989   9.807  0.0810 -0.0164 -0.3607
  128PROXR   C2 3029  12.862  12.957  10.015  0.0188  0.8272  0.1932
  128PROXR  H21 3030  12.886  13.007  10.111  1.0915 -0.7335  0.7597
  128PROXR   C3 3031  12.881  12.804  10.031  0.2053 -0.9491 -0.7615
  128PROXR  H31 3032  12.886  12.752   9.933  1.4482 -0.9562 -0.7162
  128PROXR  H32 3033  12.966  12.783  10.100 -1.1067 -1.5372  0.7192
  128PROXR  H33 3034  12.798  12.757  10.087  0.5690  1.1864  1.7603
  129PROXS   O1 3035  12.728  12.978   9.982 -0.2191 -0.3666 -0.1868
  129PROXS   C1 3036  12.677  13.106  10.036  0.2373  0.5296  0.1940
  129PROXS  H11 3037  12.682  13.114  10.147 -0.2496  2.0964  0.1235
  129PROXS  H13 3038  12.728  13.192   9.989  2.7296  0.4944  2.5630
  129PROXS   C2 3039  12.526  13.115  10.009  0.3594  0.7760  0.1992
  129PROXS  H21 3040  12.475  13.026  10.053  0.6970  1.9556  3.2272
  129PROXS   C3 3041  12.495  13.111   9.858  0.1644  0.4956 -0.4120
  129PROXS  H31 3042  12.559  13.032   9.813 -1.6317 -0.6730 -1.0260
  129PROXS  H32 3043  12.388  13.090   9.837 -0.0916  1.3272  0.0068
  129PROXS  H33 3044  12.519  13.211   9.815  1.9454  0.1822 -0.2302
  130PROXS   O1 3045  12.473  13.232  10.068  0.4923 -0.2690 -0.1293
  130PROXS   C1 3046  12.331  13.221  10.087  0.9845  0.0254  0.5436
  130PROXS  H11 3047  12.272  13.245   9.995  0.0295 -2.1099  0.5397
  130PROXS  H13 3048  12.304  13.124  10.132  0.3837  0.0734  0.2955
  130PROXS   C2 3049  12.293  13.322  10.196  0.2418 -0.4655  0.1380
  130PROXS  H21 3050  12.331  13.421  10.163 -1.2570 -0.0539 -0.4426
  130PROXS   C3 3051  12.356  13.278  10.328 -0.4403 -0.5787  0.4291
  130PROXS  H31 3052  12.340  13.171  10.351  0.8009 -0.7323  0.6667
  130PROXS  H32 3053  12.467  13.285  10.321 -0.5537 -0.0857 -1.4921
  130PROXS  H33 3054  12.323  13.334  10.418  0.9403  1.4549 -0.2413
  131PROXS   O1 3055  12.148  13.329  10.191  0.2568  0.0874  0.0257
  131PROXS   C1 3056  12.091  13.441  10.256 -0.2678  0.2092 -0.4738
  131PROXS  H11 3057  12.137  13.444  10.357 -1.3121  0.4420  0.0027
  131PROXS  H13 3058  12.122  13.532  10.199 -0.5649  0.4474 -0.2578
  131PROXS   C2 3059  11.937  13.431  10.259 -0.1284 -0.0046 -0.0460
  131PROXS  H21 3060  11.913  13.351  10.332  2.3382 -1.5786 -0.8402
  131PROXS   C3 3061  11.893  13.390  10.115  0.0774 -0.5390 -0.5391
  131PROXS  H31 3062  11.900  13.473  10.041  0.9758 -0.0476  0.0839
  131PROXS  H32 3063  11.944  13.304  10.066  0.3703 -0.5988 -0.1269
  131PROXS  H33 3064  11.784  13.369  10.122  0.2965 -2.6982 -2.3227
  132PROXS   O1 3065  11.883  13.562  10.290  0.6207  0.1808 -0.4735
  132PROXS   C1 3066  11.743  13.565  10.309  0.8013 -0.1577  0.1457
  132PROXS  H11 3067  11.694  13.586  10.212  4.0741  3.6117 -0.9182
  132PROXS  H13 3068  11.709  13.466  10.346 -0.2007 -0.3430 -1.1805
  132PROXS   C2 3069  11.704  13.670  10.418  0.2821 -0.4583  0.2353
  132PROXS  H21 3070  11.780  13.751  10.415  2.8562 -2.7565 -0.9055
  132PROXS   C3 3071  11.713  13.599  10.560 -0.4780  0.4450 -0.2698
  132PROXS  H31 3072  11.669  13.663  10.640 -0.4555  0.5102 -0.3088
  132PROXS  H32 3073  11.648  13.509  10.559 -2.7290  1.9699 -1.7069
  132PROXS  H33 3074  11.814  13.568  10.593 -0.4957  1.6757  1.0610
  133PROXS   O1 3075  11.573  13.724  10.401  0.2851  0.0426 -0.3578
  133PROXS   C1 3076  11.565  13.813  10.292 -0.1449  0.4784  0.8953
  133PROXS  H11 3077  11.646  13.889  10.288  0.3728 -0.1174 -0.6333
  133PROXS  H13 3078  11.558  13.763  10.193 -1.4505  0.4707  0.9737
  133PROXS   C2 3079  11.438  13.900  10.312  0.1785 -0.1782 -0.3838
  133PROXS  H21 3080  11.436  13.952  10.410  1.8710  1.6638 -1.2485
  133PROXS   C3 3081  11.307  13.827  10.319  0.0289 -0.1764 -1.2040
  133PROXS  H31 3082  11.289  13.783  10.419  0.4031 -0.1093 -1.1053
  133PROXS  H32 3083  11.223  13.894  10.292 -1.8175 -1.2276  1.4901
  133PROXS  H33 3084  11.323  13.738  10.254  0.6051 -0.6689 -0.4047
  134PROXS   O1 3085  11.426  13.999  10.209 -0.3106 -1.1085 -0.1413
  134PROXS   C1 3086  11.473  14.129  10.246 -0.2175 -0.6444  0.1852
  134PROXS  H11 3087  11.419  14.170  10.333  1.5836  0.8726  0.6726
  134PROXS  H13 3088  11.582  14.124  10.270  0.0226  1.1544 -0.3613
  134PROXS   C2 3089  11.462  14.209  10.109 -0.0572  0.4815 -1.0064
  134PROXS  H21 3090  11.357  14.225  10.075  0.1833  0.6611 -1.6806
  134PROXS   C3 3091  11.539  14.146   9.989  0.0851 -0.2588 -1.4241
  134PROXS  H31 3092  11.645  14.128  10.016  0.0768 -0.6101 -1.6120
  134PROXS  H32 3093  11.472  14.062   9.959 -1.7342  0.5500  0.1544
  134PROXS  H33 3094  11.556  14.224   9.912 -1.6770  1.0846 -0.5187
  135PROXS   O1 3095  11.503  14.346  10.133  0.4750 -0.4442 -0.4599
  135PROXS   C1 3096  11.405  14.423  10.202  0.6720  0.3210  0.6173
  135PROXS  H11 3097  11.305  14.410  10.155  0.5506  0.9567  0.6900
  135PROXS  H13 3098  11.396  14.395  10.309 -1.4575  0.6138  0.5722
  135PROXS   C2 3099  11.439  14.579  10.191  0.3365  0.3352  0.2840
  135PROXS  H21 3100  11.549  14.585  10.203  0.2141  0.0571  1.7158
  135PROXS   C3 3101  11.374  14.667  10.292 -0.5127 -0.2685 -0.5187
  135PROXS  H31 3102  11.273  14.702  10.261 -0.1571  1.3250 -0.0004
  135PROXS  H32 3103  11.375  14.610  10.387 -0.2593 -0.2457 -0.5076
  135PROXS  H33 3104  11.424  14.766  10.300 -1.4047  0.2454 -1.1898
  136PROXS   O1 3105  11.403  14.636  10.067  0.8733 -0.4036 -0.2380
  136PROXS   C1 3106  11.440  14.574   9.939  0.6196  0.1722  0.4292
  136PROXS  H11 3107  11.541  14.526   9.945  0.1138 -1.0780 -0.4644
  136PROXS  H13 3108  11.369  14.493   9.911 -0.8534  1.2192  1.0844
  136PROXS   C2 3109  11.435  14.667   9.823 -1.1647 -0.0991  0.1750
  136PROXS  H21 3110  11.493  14.759   9.847  0.9188 -0.7094 -2.2112
  136PROXS   C3 3111  11.286  14.702   9.804  0.1092  0.0288  0.5340
  136PROXS  H31 3112  11.237  14.610   9.764  1.8442 -0.9555  0.5947
  136PROXS  H32 3113  11.241  14.728   9.902 -0.4293 -0.2982  0.3786
  136PROXS  H33 3114  11.280  14.787   9.732  2.3889  0.5105  0.8644
  137PROXS   O1 3115  11.489  14.620   9.695  0.5358 -0.5279 -0.5395
  137PROXS   C1 3116  11.627  14.588   9.692 -0.1389 -0.3608  0.2926
  137PROXS  H11 3117  11.677  14.679   9.732 -1.3377  0.7717 -0.7219
  137PROXS  H13 3118  11.649  14.496   9.751 -1.0537 -0.3149  0.7184
  137PROXS   C2 3119  11.679  14.556   9.550 -0.6302 -0.2860 -0.2037
  137PROXS  H21 3120  11.678  14.650   9.490  0.5272  0.8685  1.4650
  137PROXS   C3 3121  11.604  14.446   9.481 -0.4098  0.4997 -0.8338
  137PROXS  H31 3122  11.606  14.459   9.371  0.7589  0.6055 -0.8134
  137PROXS  H32 3123  11.631  14.343   9.513 -0.1286  1.4241  2.2077
  137PROXS  H33 3124  11.498  14.468   9.507 -0.5837 -0.3408 -0.7780
  138PROXR   O1 3125  11.809  14.505   9.561 -0.4442  0.5364  0.4219
  138PROXR   C1 3126  11.911  14.599   9.593 -0.3119 -0.5830 -0.7909
  138PROXR  H11 3127  11.904  14.685   9.523 -0.1640  0.3800  0.3522
  138PROXR  H13 3128  11.898  14.630   9.699  1.0454 -0.5846 -0.6031
  138PROXR   C2 3129  12.055  14.544   9.586 -0.7544  0.0308 -0.2672
  138PROXR  H21 3130  12.075  14.512   9.481  0.4820 -1.5303  0.3837
  138PROXR   C3 3131  12.079  14.422   9.676 -0.8002 -0.1811  0.0695
  138PROXR  H31 3132  11.995  14.353   9.655  0.2088 -0.6814 -2.7852
  138PROXR  H32 3133  12.175  14.368   9.661 -0.3116  0.7971 -0.4865
  138PROXR  H33 3134  12.090  14.449   9.784  3.4515  0.7631 -0.4002
  139PROXS   O1 3135  12.147  14.648   9.619 -0.2222 -0.4947 -0.3485
  139PROXS   C1 3136  12.282  14.603   9.585 -0.2933  0.5087 -0.4043
  139PROXS  H11 3137  12.325  14.562   9.679 -2.1110  2.2434  1.3136
  139PROXS  H13 3138  12.270  14.523   9.509  0.1001  0.8169 -0.7907
  139PROXS   C2 3139  12.368  14.719   9.538  0.1562 -0.0721 -0.6073
  139PROXS  H21 3140  12.347  14.808   9.602 -0.0848 -0.0608 -0.7002
  139PROXS   C3 3141  12.330  14.777   9.405 -0.1875  0.6955 -0.1635
  139PROXS  H31 3142  12.368  14.710   9.325  2.9195  1.3583  0.6141
  139PROXS  H32 3143  12.220  14.792   9.395 -0.1085  1.0602 -0.4953
  139PROXS  H33 3144  12.387  14.872   9.392  1.9844 -0.4916  0.1835
  140PROXR   O1 3145  12.501  14.672   9.549  1.0757  0.7288 -0.3768
  140PROXR   C1 3146  12.603  14.767   9.542 -0.3776  0.0562  0.1544
  140PROXR  H11 3147  12.598  14.829   9.450  1.1778 -2.1800 -1.5415
  140PROXR  H13 3148  12.603  14.839   9.626  2.7439  0.4811 -0.0926
  140PROXR   C2 3149  12.737  14.691   9.520 -0.0086  0.0634  0.0154
  140PROXR  H21 3150  12.709  14.620   9.439  0.2349 -1.1618  0.9891
  140PROXR   C3 3151  12.782  14.621   9.655  0.1666 -0.0912  0.0424
  140PROXR  H31 3152  12.811  14.688   9.740  0.9225 -1.1107  0.6115
  140PROXR  H32 3153  12.704  14.554   9.698 -1.0571 -1.2589 -3.6514
  140PROXR  H33 3154  12.871  14.559   9.631 -0.3175 -1.1610  0.9466
  141PROXS   O1 3155  12.835  14.783   9.474 -0.2820 -0.1666 -0.4223
  141PROXS   C1 3156  12.957  14.717   9.428  0.2148  0.3670  1.2718
  141PROXS  H11 3157  13.022  14.674   9.506  1.7806  2.2572  1.0918
  141PROXS  H13 3158  12.930  14.622   9.377  1.2373  1.1736 -0.9052
  141PROXS   C2 3159  13.038  14.791   9.322 -0.3891 -0.4384  0.0932
  141PROXS  H21 3160  13.064  14.890   9.365  3.2644  0.4754 -3.5705
  141PROXS   C3 3161  12.971  14.825   9.189  0.2532  0.2361  0.9096
  141PROXS  H31 3162  12.880  14.888   9.195 -0.4034 -0.4720 -0.9803
  141PROXS  H32 3163  13.047  14.875   9.125 -0.8684  0.5160 -0.2402
  141PROXS  H33 3164  12.949  14.729   9.137  0.0526  1.3905 -1.2791
  142PROXS   O1 3165  13.161  14.722   9.302 -0.2312  0.2409  0.1970
  142PROXS   C1 3166  13.273  14.759   9.381 -0.3820 -0.0511  0.3111
  142PROXS  H11 3167  13.237  14.774   9.485 -1.5495 -2.0692  0.2433
  142PROXS  H13 3168  13.339  14.670   9.388 -2.2330 -1.5363 -0.2409
  142PROXS   C2 3169  13.359  14.885   9.335 -0.3117 -0.3868 -0.0007
  142PROXS  H21 3170  13.292  14.973   9.330 -1.3668 -1.2360 -2.2562
  142PROXS   C3 3171  13.433  14.868   9.199 -0.1341  0.2407  0.0702
  142PROXS  H31 3172  13.509  14.787   9.203 -0.0186  0.3426 -0.0306
  142PROXS  H32 3173  13.361  14.852   9.116 -0.9714  0.6724  0.7016
  142PROXS  H33 3174  13.489  14.960   9.171  0.9456 -0.1236  0.9595
  143PROXS   O1 3175  13.461  14.907   9.436 -0.4782 -0.6272  0.3516
  143PROXS   C1 3176  13.528  15.034   9.417 -0.0570 -0.6297 -0.4228
  143PROXS  H11 3177  13.490  15.089   9.328 -1.1303  0.5506  0.7072
  143PROXS  H13 3178  13.522  15.092   9.512  0.7135 -0.3308 -0.5519
  143PROXS   C2 3179  13.678  15.013   9.401 -0.3158 -0.1273  0.5417
  143PROXS  H21 3180  13.682  14.930   9.327  1.8610  0.9273 -0.6302
  143PROXS   C3 3181  13.742  14.995   9.542 -0.8441  0.0880 -0.1863
  143PROXS  H31 3182  13.842  14.947   9.529 -1.0514 -1.1213  2.1738
  143PROXS  H32 3183  13.743  15.096   9.587 -0.5127  0.7340 -1.6055
  143PROXS  H33 3184  13.674  14.931   9.603 -0.8227  0.9465  0.7670
  144PROXS   O1 3185  13.731  15.126   9.337  0.2507 -0.5690 -0.3207
  144PROXS   C1 3186  13.864  15.105   9.288  0.5718  0.4450  0.0877
  144PROXS  H11 3187  13.903  15.003   9.309  0.6809  0.0091 -2.0209
  144PROXS  H13 3188  13.864  15.098   9.177  1.7652  1.0831  0.0383
  144PROXS   C2 3189  13.973  15.218   9.310 -0.1976  0.0268  0.1250
  144PROXS  H21 3190  13.977  15.241   9.419  1.6808 -0.4860  0.1882
  144PROXS   C3 3191  13.925  15.349   9.241 -0.2771 -0.8728 -0.9046
  144PROXS  H31 3192  13.925  15.333   9.131 -1.1889  1.0746 -1.2415
  144PROXS  H32 3193  13.819  15.375   9.261  0.4443  3.4053 -1.6093
  144PROXS  H33 3194  13.988  15.436   9.270 -0.8922  0.2695 -2.8233
  145PROXR   O1 3195  14.093  15.184   9.252 -0.2472  0.2358 -0.3105
  145PROXR   C1 3196  14.167  15.085   9.327  0.5477  0.3529 -0.0646
  145PROXR  H11 3197  14.100  15.017   9.383  0.0409  1.1617  0.3384
  145PROXR  H13 3198  14.215  15.021   9.250 -0.2631  0.5197 -0.7333
  145PROXR   C2 3199  14.256  15.146   9.422  0.1128 -0.1380 -0.3591
  145PROXR  H21 3200  14.217  15.235   9.477 -0.0841 -0.8417  0.6662
  145PROXR   C3 3201  14.390  15.190   9.362  0.0272 -0.3801 -0.1250
  145PROXR  H31 3202  14.372  15.232   9.261  0.0204 -0.2254 -0.0596
  145PROXR  H32 3203  14.423  15.265   9.437 -1.7502  1.6824 -1.3180
  145PROXR  H33 3204  14.463  15.107   9.345 -1.2138 -1.3230 -0.9929
  146PROXS   O1 3205  14.282  15.054   9.530  0.2739  0.2753  0.2957
  146PROXS   C1 3206  14.193  15.073   9.638  0.3665  0.7074  0.1497
  146PROXS  H11 3207  14.212  15.171   9.686 -0.3434  0.0764  1.8219
  146PROXS  H13 3208  14.084  15.066   9.617  0.4933  1.2625 -0.7304
  146PROXS   C2 3209  14.230  14.968   9.744 -0.3053 -0.0011 -0.3714
  146PROXS  H21 3210  14.340  14.971   9.762 -0.3528  1.0101 -0.1724
  146PROXS   C3 3211  14.177  14.834   9.709  0.6411  0.1289 -0.2798
  146PROXS  H31 3212  14.068  14.832   9.729  0.8931 -0.8837  1.1609
  146PROXS  H32 3213  14.214  14.782   9.618 -1.2032  1.8108 -2.0907
  146PROXS  H33 3214  14.226  14.762   9.778  3.9686 -1.5800 -3.9962
  147PROXR   O1 3215  14.164  14.999   9.867 -0.0923 -0.1033  0.1771
  147PROXR   C1 3216  14.234  14.950   9.981 -0.2411  0.4055 -0.0554
  147PROXR  H11 3217  14.183  14.852   9.992 -1.5214  0.4801 -3.8435
  147PROXR  H13 3218  14.342  14.930   9.965 -0.3609 -0.1870 -0.1368
  147PROXR   C2 3219  14.204  15.037  10.107 -0.0024  0.0850  0.4893
  147PROXR  H21 3220  14.096  15.032  10.135 -0.5785  0.5998 -1.4736
  147PROXR   C3 3221  14.233  15.186  10.076 -0.0657  0.4068 -0.2525
  147PROXR  H31 3222  14.218  15.255  10.161 -0.8719 -1.8778  1.5412
  147PROXR  H32 3223  14.337  15.205  10.043  0.0111  0.2921 -0.0769
  147PROXR  H33 3224  14.179  15.218   9.984  2.9154  1.4737 -1.7794
  148PROXR   O1 3225  14.287  14.996  10.217 -0.2584  0.5158  0.3823
  148PROXR   C1 3226  14.232  14.880  10.276 -0.0130 -0.3256 -0.2804
  148PROXR  H11 3227  14.122  14.892  10.276  0.0722  1.4614 -3.7022
  148PROXR  H13 3228  14.259  14.796  10.208 -0.6371  1.7824 -3.3550
  148PROXR   C2 3229  14.281  14.829  10.420 -1.3555  0.1921  0.2292
  148PROXR  H21 3230  14.235  14.901  10.491 -2.5277  0.2966 -0.6019
  148PROXR   C3 3231  14.431  14.817  10.432  0.7549  0.1246 -0.3120
  148PROXR  H31 3232  14.482  14.748  10.362 -1.6986 -0.5868 -1.5130
  148PROXR  H32 3233  14.475  14.916  10.408  2.7001 -0.5924  0.0603
  148PROXR  H33 3234  14.471  14.791  10.533  0.2906  0.4489 -0.0363
  149PROXR   O1 3235  14.215  14.699  10.441 -0.2764 -0.2808  0.0899
  149PROXR   C1 3236  14.220  14.652  10.571  0.2828 -0.3371 -0.8767
  149PROXR  H11 3237  14.322  14.625  10.607 -0.4081 -0.4929  1.0529
  149PROXR  H13 3238  14.187  14.735  10.637  2.2048 -0.2574  0.0629
  149PROXR   C2 3239  14.121  14.540  10.592 -0.7255 -0.4146  0.0462
  149PROXR  H21 3240  14.021  14.588  10.578 -0.8856 -0.5301  0.7964
  149PROXR   C3 3241  14.140  14.471  10.732  0.7243  0.5507  0.6685
  149PROXR  H31 3242  14.230  14.407  10.739 -1.1226 -2.2720 -0.0208
  149PROXR  H32 3243  14.153  14.553  10.807  2.4940  1.1037 -0.1931
  149PROXR  H33 3244  14.051  14.411  10.760  0.0600 -0.0328 -2.3343
  150PROXS   O1 3245  14.150  14.442  10.496  0.5071  0.6687  0.2291
  150PROXS   C1 3246  14.063  14.442  10.386  0.0850  0.0963 -0.4705
  150PROXS  H11 3247  13.964  14.401  10.414  1.0328 -1.6752  0.4429
  150PROXS  H13 3248  14.045  14.546  10.351 -1.9052  0.5449  1.6654
  150PROXS   C2 3249  14.134  14.361  10.276 -0.0132 -0.3008 -0.3751
  150PROXS  H21 3250  14.153  14.254  10.300  1.2108 -0.1783 -0.7058
  150PROXS   C3 3251  14.264  14.415  10.240 -0.3396  0.3651 -0.1566
  150PROXS  H31 3252  14.304  14.376  10.144 -0.7397  0.2341 -0.2729
  150PROXS  H32 3253  14.256  14.525  10.228  1.0503  0.2941 -2.2617
  150PROXS  H33 3254  14.338  14.406  10.322 -0.6423  2.3497  0.4027
  151PROXR   O1 3255  14.064  14.371  10.157 -0.6879 -0.0778 -0.2282
  151PROXR   C1 3256  13.945  14.295  10.153  0.1335  0.2271 -0.5075
  151PROXR  H11 3257  13.974  14.193  10.186  2.1645  0.5815 -1.0001
  151PROXR  H13 3258  13.877  14.332  10.233  0.6106  1.2536 -0.5488
  151PROXR   C2 3259  13.873  14.288  10.022  0.0116  0.2778  0.1334
  151PROXR  H21 3260  13.955  14.259   9.952  1.2587  0.9301  1.2844
  151PROXR   C3 3261  13.811  14.421   9.977  0.5676 -0.0177 -0.2522
  151PROXR  H31 3262  13.733  14.418   9.898  0.7583 -1.5802 -0.4146
  151PROXR  H32 3263  13.749  14.455  10.063  0.6337 -1.8770  0.5614
  151PROXR  H33 3264  13.889  14.499   9.957 -0.5793  0.7192 -2.2277
  152PROXR   O1 3265  13.778  14.182  10.025  0.2099 -0.2401  0.3250
  152PROXR   C1 3266  13.654  14.209  10.100 -0.2122 -0.0573  0.3965
  152PROXR  H11 3267  13.683  14.241  10.202 -0.3909  0.9663  0.1364
  152PROXR  H13 3268  13.599  14.282  10.037 -0.6410 -1.3752 -0.8320
  152PROXR   C2 3269  13.567  14.082  10.109 -0.7612 -0.0287  0.9022
  152PROXR  H21 3270  13.624  14.010  10.172  1.2098  0.3943 -0.3221
  152PROXR   C3 3271  13.538  14.011   9.976 -0.1631 -0.3406  0.3653
  152PROXR  H31 3272  13.499  13.911  10.003  2.1181 -1.5046 -0.3707
  152PROXR  H32 3273  13.465  14.075   9.923 -0.5623  0.5021  1.8596
  152PROXR  H33 3274  13.635  14.002   9.922 -0.0776  0.2438  0.4147
  153PROXR   O1 3275  13.443  14.121  10.169  0.3730 -0.0981  0.7135
  153PROXR   C1 3276  13.378  14.022  10.249  0.5015  0.4418  0.1554
  153PROXR  H11 3277  13.357  13.933  10.186  1.1498  0.2949  0.1315
  153PROXR  H13 3278  13.456  13.990  10.322  1.1036  1.1708 -0.1537
  153PROXR   C2 3279  13.265  14.086  10.336 -0.6711 -0.4200 -0.1257
  153PROXR  H21 3280  13.187  14.123  10.266 -0.1642 -1.3805 -1.2308
  153PROXR   C3 3281  13.328  14.186  10.433  0.0945 -0.6078 -0.5593
  153PROXR  H31 3282  13.406  14.140  10.497 -1.2863  0.1522  1.8156
  153PROXR  H32 3283  13.363  14.276  10.379  0.2940 -0.0706  0.4328
  153PROXR  H33 3284  13.253  14.223  10.507  0.2566  0.2769 -0.8258
  154PROXS   O1 3285  13.213  13.984  10.421  0.1438 -0.1788  0.2127
  154PROXS   C1 3286  13.117  13.904  10.350 -0.1161 -0.0844  0.1308
  154PROXS  H11 3287  13.048  13.972  10.296 -1.4540 -2.3415 -1.1185
  154PROXS  H13 3288  13.163  13.836  10.276 -0.3480  0.7890 -0.8408
  154PROXS   C2 3289  13.034  13.821  10.451 -0.4774  0.3621  0.3417
  154PROXS  H21 3290  13.105  13.758  10.509  0.0192 -0.9610 -1.6297
  154PROXS   C3 3291  12.928  13.738  10.377  0.2811  0.3947  0.2073
  154PROXS  H31 3292  12.968  13.658  10.311 -1.6022 -2.0722  1.9016
  154PROXS  H32 3293  12.851  13.695  10.444 -0.3769 -0.1020 -0.8395
  154PROXS  H33 3294  12.875  13.807  10.307  1.6333  1.9197  0.6170
  155PROXR   O1 3295  12.970  13.908  10.549  0.5419 -0.0600 -0.4966
  155PROXR   C1 3296  12.925  13.847  10.670 -0.1008  0.8990 -0.8281
  155PROXR  H11 3297  12.866  13.755  10.652 -1.5995  1.5006  0.6938
  155PROXR  H13 3298  13.013  13.815  10.730 -0.2707  2.6269  0.4247
  155PROXR   C2 3299  12.846  13.951  10.746  0.0769 -0.8210 -0.8271
  155PROXR  H21 3300  12.913  14.036  10.769  0.1370 -1.0736 -0.0186
  155PROXR   C3 3301  12.801  13.896  10.878  1.3489 -0.1420  0.6386
  155PROXR  H31 3302  12.886  13.892  10.949  1.5043 -0.4071  0.4397
  155PROXR  H32 3303  12.725  13.966  10.920  1.7667  0.9634 -0.4017
  155PROXR  H33 3304  12.748  13.799  10.867  2.0137 -0.2493 -2.1147
  156PROXS   O1 3305  12.732  13.992  10.663  0.6711  0.5511 -0.6927
  156PROXS   C1 3306  12.754  14.071  10.553 -0.3715 -0.9503 -0.5714
  156PROXS  H11 3307  12.856  14.115  10.555 -0.3112 -1.0583 -1.2866
  156PROXS  H13 3308  12.750  14.010  10.461 -0.1799 -1.6533 -0.1202
  156PROXS   C2 3309  12.649  14.188  10.552 -0.2363  0.4059  0.1638
  156PROXS  H21 3310  12.642  14.231  10.654 -1.8802 -0.2201  0.3467
  156PROXS   C3 3311  12.507  14.156  10.512  0.1654  0.2272 -0.6163
  156PROXS  H31 3312  12.449  14.250  10.504 -2.1937 -1.1772 -1.1548
  156PROXS  H32 3313  12.504  14.097  10.418 -0.3666  0.8525 -1.0033
  156PROXS  H33 3314  12.449  14.097  10.587  0.6066  0.6516  0.0743
  157PROXS   O1 3315  12.699  14.291  10.466  0.5282  0.5941 -0.5342
  157PROXS   C1 3316  12.674  14.426  10.514  0.5597  0.4516  0.6511
  157PROXS  H11 3317  12.565  14.441  10.532  0.4797 -0.9338  1.5007
  157PROXS  H13 3318  12.723  14.433  10.613  0.9572  1.1144  0.4128
  157PROXS   C2 3319  12.742  14.543  10.432  0.5496  0.3013 -0.0174
  157PROXS  H21 3320  12.698  14.530  10.331 -1.5298  0.7654  0.7738
  157PROXS   C3 3321  12.891  14.539  10.430 -0.5850  0.0408  0.3677
  157PROXS  H31 3322  12.943  14.551  10.528  1.4907 -0.0494 -0.6736
  157PROXS  H32 3323  12.919  14.438  10.393  0.9580  0.7775 -0.5848
  157PROXS  H33 3324  12.930  14.618  10.362  1.1492  0.6860  1.9992
  158PROXR   O1 3325  12.700  14.671  10.483  0.1254  0.6631  0.4555
  158PROXR   C1 3326  12.668  14.758  10.370 -0.1086  0.3059 -0.1419
  158PROXR  H11 3327  12.712  14.729  10.273 -2.8911  1.9377 -2.0189
  158PROXR  H13 3328  12.559  14.765  10.350  0.2587  1.2702 -1.9449
  158PROXR   C2 3329  12.718  14.900  10.408  0.3771 -0.1626 -0.0391
  158PROXR  H21 3330  12.787  14.896  10.494 -0.6322 -2.0274  0.7476
  158PROXR   C3 3331  12.604  15.002  10.436 -0.1412 -1.0260  0.4958
  158PROXR  H31 3332  12.544  15.018  10.345  0.2416  1.3069  0.6050
  158PROXR  H32 3333  12.546  14.959  10.521  1.6026  1.1335  2.9625
  158PROXR  H33 3334  12.649  15.100  10.465 -1.3488  0.8845 -3.5035
  159PROXR   O1 3335  12.790  14.969  10.304  0.2230  0.4330  0.0896
  159PROXR   C1 3336  12.873  15.080  10.344 -0.3397  0.0854  0.1614
  159PROXR  H11 3337  12.818  15.170  10.310 -2.5858 -1.3812 -0.3665
  159PROXR  H13 3338  12.878  15.098  10.454  0.1673  1.2728 -0.0493
  159PROXR   C2 3339  13.020  15.065  10.298  0.1866  0.3354  0.4540
  159PROXR  H21 3340  13.022  15.050  10.188  2.5774 -1.3895  0.6501
  159PROXR   C3 3341  13.086  14.948  10.371  0.8006  0.0425  0.3535
  159PROXR  H31 3342  13.193  14.961  10.346  0.8853  3.0418  1.8101
  159PROXR  H32 3343  13.061  14.953  10.480 -2.2077 -0.5717 -0.2096
  159PROXR  H33 3344  13.057  14.845  10.341 -0.3553 -0.0076  1.5344
  160PROXS   O1 3345  13.091  15.182  10.321 -0.6098 -0.5773 -0.2682
  160PROXS   C1 3346  13.059  15.287  10.227 -0.2861 -0.1651 -0.2855
  160PROXS  H11 3347  12.969  15.263  10.167 -0.5777 -1.2384  0.5540
  160PROXS  H13 3348  13.058  15.381  10.285  0.4545 -1.5265  2.0916
  160PROXS   C2 3349  13.179  15.298  10.130 -0.3137 -0.1659  0.0301
  160PROXS  H21 3350  13.194  15.213  10.060  1.1305  1.4401 -1.7412
  160PROXS   C3 3351  13.309  15.315  10.213  0.6631  0.3863 -0.1019
  160PROXS  H31 3352  13.401  15.321  10.150  1.2567 -1.9024  0.4483
  160PROXS  H32 3353  13.307  15.405  10.279  2.1982  1.0211 -0.8630
  160PROXS  H33 3354  13.331  15.227  10.277  0.1055  0.0955 -0.3050
  161PROXR   O1 3355  13.164  15.412  10.050 -0.1233  0.1417 -0.2245
  161PROXR   C1 3356  13.045  15.409   9.969  0.6703 -0.1325 -0.0347
  161PROXR  H11 3357  13.038  15.309   9.920 -1.0277  0.1429 -0.3951
  161PROXR  H13 3358  12.946  15.426  10.016  0.4154 -0.8351 -0.2980
  161PROXR   C2 3359  13.054  15.524   9.871  0.4758  0.2632 -0.3924
  161PROXR  H21 3360  13.106  15.612   9.915 -1.8340  1.2781  0.4647
  161PROXR   C3 3361  12.911  15.558   9.823  0.4450 -0.1305  0.2089
  161PROXR  H31 3362  12.853  15.467   9.794 -2.6661  1.8196 -0.1344
  161PROXR  H32 3363  12.853  15.607   9.904 -1.6555 -3.0571  0.6587
  161PROXR  H33 3364  12.911  15.624   9.734 -1.7694 -1.3024 -0.7501
  162PROXR   O1 3365  13.110  15.477   9.753 -0.2106 -0.4380 -0.1350
  162PROXR   C1 3366  13.250  15.460   9.752  0.2517  0.4039  0.1307
  162PROXR  H11 3367  13.304  15.555   9.731  2.6954 -0.9987 -0.2684
  162PROXR  H13 3368  13.276  15.406   9.846 -2.6612 -0.0646  0.7773
  162PROXR   C2 3369  13.310  15.373   9.631 -0.5842  0.1710 -0.3963
  162PROXR  H21 3370  13.289  15.421   9.533 -0.5520 -0.5491 -0.7635
  162PROXR   C3 3371  13.259  15.228   9.627  0.0788 -0.4779  0.7534
  162PROXR  H31 3372  13.246  15.194   9.732 -2.7112 -0.1001  0.6105
  162PROXR  H32 3373  13.155  15.222   9.588  0.2147  1.3757  0.0200
  162PROXR  H33 3374  13.331  15.169   9.567  0.0538  0.3607 -0.1317
  163PROXS   O1 3375  13.450  15.359   9.648  0.0256  0.6497  0.0353
  163PROXS   C1 3376  13.529  15.478   9.632  0.5046 -0.0278 -0.7809
  163PROXS  H11 3377  13.485  15.537   9.549  0.6769  1.6641  0.2876
  163PROXS  H13 3378  13.532  15.538   9.726  0.8791  0.3794 -1.0452
  163PROXS   C2 3379  13.673  15.460   9.588  0.5680 -0.0480 -0.5484
  163PROXS  H21 3380  13.671  15.408   9.490  0.7675  1.1095 -1.1902
  163PROXS   C3 3381  13.748  15.375   9.700  1.1079  0.4559  0.8332
  163PROXS  H31 3382  13.855  15.373   9.670  0.8254  1.2826 -0.3247
  163PROXS  H32 3383  13.742  15.416   9.803 -0.3457 -0.5197  1.1694
  163PROXS  H33 3384  13.696  15.277   9.694  0.6211  0.7956 -2.6691
  164PROXR   O1 3385  13.736  15.585   9.583 -0.2891 -0.1629  0.3920
  164PROXR   C1 3386  13.850  15.583   9.487  0.3945 -0.2042 -0.5073
  164PROXR  H11 3387  13.914  15.493   9.499  0.2800 -0.0996  1.0462
  164PROXR  H13 3388  13.800  15.576   9.388 -3.9628  0.3444  1.4344
  164PROXR   C2 3389  13.937  15.703   9.504 -0.2253 -0.5394 -0.0768
  164PROXR  H21 3390  13.972  15.697   9.610 -0.1838  1.6109  0.0823
  164PROXR   C3 3391  13.856  15.831   9.490 -0.4816  0.2904  0.0771
  164PROXR  H31 3392  13.811  15.826   9.389 -0.8272  1.0229  0.1886
  164PROXR  H32 3393  13.768  15.820   9.557 -0.1671 -3.4788  0.0823
  164PROXR  H33 3394  13.908  15.927   9.508 -2.4297  1.7224 -1.5409
  165PROXR   O1 3395  14.051  15.688   9.415  0.3712 -0.4370  0.7736
  165PROXR   C1 3396  14.160  15.778   9.453  0.6550 -0.2330 -0.9949
  165PROXR  H11 3397  14.134  15.884   9.430  3.4201  1.0562  1.1869
  165PROXR  H13 3398  14.180  15.770   9.562  0.7125 -0.1365 -0.9983
  165PROXR   C2 3399  14.280  15.763   9.362  0.1535  0.4888 -0.0784
  165PROXR  H21 3400  14.258  15.786   9.256 -1.1934 -0.4982 -0.0341
  165PROXR   C3 3401  14.347  15.626   9.365  0.0365 -0.2252 -0.0219
  165PROXR  H31 3402  14.446  15.611   9.317  1.7725  1.3935  2.8061
  165PROXR  H32 3403  14.357  15.597   9.471  0.1499 -1.0578 -0.2486
  165PROXR  H33 3404  14.276  15.555   9.317 -1.4157  0.2329  1.3826
  166ETHOX   O1 3405  14.382  15.853   9.407 -0.9687  0.0685  0.1283
  166ETHOX   C1 3406  14.453  15.923   9.304  1.0268  0.2854  0.8808
  166ETHOX  H11 3407  14.383  15.996   9.258 -0.6198 -1.9289 -0.3456
  166ETHOX  H13 3408  14.473  15.854   9.219  0.6555  0.0038  1.0206
  166ETHOX   C2 3409  14.582  15.977   9.362 -0.1270 -0.2412  0.1913
  166ETHOX  H21 3410  14.556  16.057   9.435 -0.5494  0.4427 -0.6785
  166ETHOX  H23 3411  14.633  16.042   9.288  2.1355 -0.1130  1.7694
  167ETHOX   O1 3412  14.674  15.885   9.419  0.0619 -0.0405 -0.0450
  167ETHOX   C1 3413  14.803  15.949   9.430  0.2316  0.6004 -0.2033
  167ETHOX  H11 3414  14.837  15.995   9.334 -0.6356 -0.0669 -0.8465
  167ETHOX  H13 3415  14.788  16.017   9.516 -3.8462  0.8251 -0.8919
  167ETHOX   C2 3416  14.903  15.838   9.460  0.0256  0.3153  0.2048
  167ETHOX  H21 3417  14.863  15.774   9.542  0.1880 -1.3547 -0.9711
  167ETHOX  H23 3418  14.985  15.896   9.508 -1.2745  0.9076  1.8216
  168ETHOX   O1 3419  14.942  15.758   9.345 -0.5431 -0.2555  0.1574
  168ETHOX   C1 3420  15.054  15.673   9.367 -0.4439  1.0014  0.4067
  168ETHOX  H11 3421  15.017  15.583   9.422  0.4498  0.6273  0.4170
  168ETHOX  H13 3422  15.138  15.721   9.421 -0.6139  1.6437  0.1011
  168ETHOX   C2 3423  15.112  15.629   9.226 -0.2220 -0.4627 -1.3028
  168ETHOX  H21 3424  15.198  15.560   9.229 -1.5050 -2.0889 -0.1402
  168ETHOX  H23 3425  15.141  15.728   9.183 -0.3648 -0.0382 -0.4399
  169ETHOX   O1 3426  15.009  15.572   9.143  0.1480 -0.1276 -0.2422
  169ETHOX   C1 3427  15.054  15.522   9.017 -0.0018  0.3485  0.6227
  169ETHOX  H11 3428  15.032  15.606   8.948 -1.4931  0.3403  1.0481
  169ETHOX  H13 3429  15.164  15.515   9.026 -0.1404 -1.0714  1.4680
  169ETHOX   C2 3430  14.987  15.400   8.961 -0.1373 -0.0606  0.3393
  169ETHOX  H21 3431  15.012  15.386   8.853 -2.9303  0.4634 -0.4539
  169ETHOX  H23 3432  14.878  15.420   8.954 -0.4000 -1.1445  1.1272
  170ETHOX   O1 3433  14.998  15.284   9.038 -0.5629  0.1064 -0.2237
  170ETHOX   C1 3434  14.963  15.169   8.959 -0.0978  0.4597 -0.1249
  170ETHOX  H11 3435  15.031  15.165   8.871  0.9805 -0.1838  0.7091
  170ETHOX  H13 3436  14.858  15.169   8.923  0.0479 -0.9522 -0.6261
  170ETHOX   C2 3437  14.978  15.048   9.053 -0.7121  0.0307 -0.2532
  170ETHOX  H21 3438  15.064  15.063   9.122 -1.6194  1.9552  0.5367
  170ETHOX  H23 3439  14.995  14.956   8.993  0.1746 -1.4746  2.1348
  171ETHOX   O1 3440  14.867  15.027   9.133 -0.0571  0.6037  0.0386
  171ETHOX   C1 3441  14.892  14.923   9.229 -0.1249  0.1362  0.4158
  171ETHOX  H11 3442  14.895  14.823   9.181 -0.5322  0.9891 -1.4902
  171ETHOX  H13 3443  14.990  14.950   9.274  1.1171  0.4348 -2.2876
  171ETHOX   C2 3444  14.784  14.921   9.333  0.0264  0.4660 -0.7561
  171ETHOX  H21 3445  14.752  15.024   9.358  0.4772 -0.3044  3.8973
  171ETHOX  H23 3446  14.827  14.870   9.422 -0.0181 -1.6663 -1.8929
  172ETHOX   O1 3447  14.680  14.828   9.296 -0.1812 -0.3032 -0.2578
  172ETHOX   C1 3448  14.589  14.798   9.404  0.4787 -0.0122  0.8847
  172ETHOX  H11 3449  14.560  14.894   9.451  1.6401 -0.7748  3.3135
  172ETHOX  H13 3450  14.649  14.745   9.481 -0.2833 -2.0756  0.1377
  172ETHOX   C2 3451  14.475  14.713   9.356 -0.2101  0.4395  0.1900
  172ETHOX  H21 3452  14.435  14.769   9.268  2.0775 -0.0761 -1.2567
  172ETHOX  H23 3453  14.402  14.710   9.441  2.2411  0.6942  2.4216
  173ETHOX   O1 3454  14.512  14.583   9.318 -0.5429  0.3694 -0.7753
  173ETHOX   C1 3455  14.427  14.510   9.243 -0.8493  0.0553  0.1434
  173ETHOX  H11 3456  14.332  14.511   9.301 -0.6387 -0.4291  0.5008
  173ETHOX  H13 3457  14.412  14.549   9.139 -0.2562 -1.8184 -0.6877
  173ETHOX   C2 3458  14.484  14.363   9.245 -0.2152 -0.4579 -0.0648
  173ETHOX  H21 3459  14.524  14.338   9.345 -0.5242 -2.9979 -0.5117
  173ETHOX  H23 3460  14.404  14.295   9.211 -0.8282  0.5993 -0.8262
  174ETHOX   O1 3461  14.592  14.347   9.148  0.5801 -0.5824 -0.4952
  174ETHOX   C1 3462  14.639  14.209   9.138  0.2069 -0.0441 -0.3178
  174ETHOX  H11 3463  14.750  14.210   9.136  0.2099  1.4560 -0.5015
  174ETHOX  H13 3464  14.631  14.153   9.234  0.2009 -0.0791 -0.3386
  174ETHOX   C2 3465  14.571  14.140   9.021 -0.7298 -0.1680 -0.0795
  174ETHOX  H21 3466  14.496  14.206   8.974 -0.7369  0.2247  0.4715
  174ETHOX  H23 3467  14.522  14.046   9.054 -0.3189 -1.5185 -2.9685
  175ETHOX   O1 3468  14.663  14.120   8.911  0.2977 -0.6417  0.2583
  175ETHOX   C1 3469  14.602  14.025   8.817  0.1707  0.3282 -0.2770
  175ETHOX  H11 3470  14.496  14.044   8.792 -0.4559  1.5165  2.8785
  175ETHOX  H13 3471  14.652  14.047   8.720 -1.8057  1.5321 -1.0881
  175ETHOX   C2 3472  14.616  13.878   8.861  0.6733  0.0012  0.2214
  175ETHOX  H21 3473  14.539  13.814   8.813  0.2970  0.3360  0.3691
  175ETHOX  H23 3474  14.597  13.883   8.970 -1.9802 -0.7572 -0.1151
  176ETHOX   O1 3475  14.750  13.834   8.833 -0.2152 -0.1229  0.5415
  176ETHOX   C1 3476  14.792  13.723   8.917 -0.3797  0.1517 -0.0114
  176ETHOX  H11 3477  14.806  13.743   9.025  3.4676  0.8567 -0.4999
  176ETHOX  H13 3478  14.725  13.634   8.912  1.1542 -0.9674 -1.7466
  176ETHOX   C2 3479  14.929  13.678   8.866  0.0643 -0.5290 -0.4124
  176ETHOX  H21 3480  14.930  13.645   8.760  0.5645  1.1774 -0.9710
  176ETHOX  H23 3481  14.945  13.593   8.936  2.8206  1.2724  1.3400
  177ETHOX   O1 3482  15.025  13.780   8.880 -0.2781 -0.5867 -0.0661
  177ETHOX   C1 3483  15.155  13.736   8.840  0.3794  0.4679 -0.7741
  177ETHOX  H11 3484  15.147  13.676   8.748  2.1655  0.4235 -0.9421
  177ETHOX  H13 3485  15.194  13.665   8.916 -0.1239  1.1889  0.1877
  177ETHOX   C2 3486  15.246  13.855   8.829  0.1989  0.6308 -0.3397
  177ETHOX  H21 3487  15.349  13.814   8.835 -0.0558 -0.0872 -0.8311
  177ETHOX  H23 3488  15.233  13.928   8.913  1.5739 -0.2343  0.6679
  178ETHOX   O1 3489  15.236  13.919   8.702 -1.2193 -0.0946 -0.1005
  178ETHOX   C1 3490  15.341  14.007   8.685  1.2220 -0.0726  0.4181
  178ETHOX  H11 3491  15.434  13.975   8.737  0.9735 -0.5605  0.5704
  178ETHOX  H13 3492  15.355  14.022   8.576  1.1471  1.3313  0.5811
  178ETHOX   C2 3493  15.293  14.148   8.739 -0.2120  0.2955  0.0033
  178ETHOX  H21 3494  15.190  14.159   8.697  0.0064  0.3609 -0.5190
  178ETHOX  H23 3495  15.363  14.225   8.700 -0.0547  0.4072  0.4991
  179ETHOX   O1 3496  15.298  14.160   8.880 -0.4931  0.0731  0.3057
  179ETHOX   C1 3497  15.243  14.287   8.926  0.0738  0.5697 -0.5198
  179ETHOX  H11 3498  15.135  14.286   8.900 -0.0191  1.3704 -0.1670
  179ETHOX  H13 3499  15.282  14.380   8.881  1.4336 -0.0951 -0.7575
  179ETHOX   C2 3500  15.241  14.293   9.077  0.7110  0.3007  0.0168
  179ETHOX  H21 3501  15.195  14.392   9.102  0.8867  0.2545  0.5250
  179ETHOX  H23 3502  15.338  14.303   9.130 -0.3181  2.8449  1.6709
  180ETHOX   O1 3503  15.163  14.182   9.130  0.1699  0.2457 -0.3634
  180ETHOX   C1 3504  15.150  14.182   9.272  0.1878  0.2212 -0.1822
  180ETHOX  H11 3505  15.242  14.146   9.322 -0.4462 -1.3509 -0.0952
  180ETHOX  H13 3506  15.114  14.283   9.302  0.1697  0.5184 -1.1734
  180ETHOX   C2 3507  15.030  14.091   9.304 -0.1798 -0.0117 -0.3113
  180ETHOX  H21 3508  14.938  14.097   9.243 -1.4030 -1.5878  1.3035
  180ETHOX  H23 3509  14.988  14.124   9.401 -1.0716 -1.6578 -0.1001
  181ETHOX   O1 3510  15.062  13.956   9.331  0.0554 -0.0828  0.4823
  181ETHOX   C1 3511  15.053  13.879   9.213  0.1961 -0.4769 -0.4258
  181ETHOX  H11 3512  15.103  13.931   9.129 -0.5205  2.4034  0.7994
  181ETHOX  H13 3513  14.945  13.857   9.197  0.4982 -1.6442 -0.8723
  181ETHOX   C2 3514  15.119  13.742   9.230 -0.3473  0.3632  0.2649
  181ETHOX  H21 3515  15.221  13.749   9.272 -0.8639  0.8077  1.5027
  181ETHOX  H23 3516  15.132  13.690   9.132  0.6037 -0.2219  0.6894
  182ETHOX   O1 3517  15.039  13.652   9.310 -0.3387 -0.2665  0.2430
  182ETHOX   C1 3518  15.097  13.637   9.443  0.7737 -0.4742  0.3363
  182ETHOX  H11 3519  15.114  13.742   9.478  0.1129 -0.4072  0.4642
  182ETHOX  H13 3520  15.018  13.593   9.508  0.4574 -1.2148 -0.5256
  182ETHOX   C2 3521  15.225  13.559   9.457  0.5459 -0.5764 -0.4532
  182ETHOX  H21 3522  15.260  13.558   9.562 -3.5565 -2.3161  1.0748
  182ETHOX  H23 3523  15.304  13.603   9.392  0.0518  1.4482  0.2300
  183ETHOX   O1 3524  15.215  13.431   9.404  0.1789 -0.7134 -0.2472
  183ETHOX   C1 3525  15.344  13.377   9.375  0.3959  0.0787 -0.2516
  183ETHOX  H11 3526  15.413  13.367   9.461 -0.1737 -1.4919  0.0435
  183ETHOX  H13 3527  15.399  13.445   9.306 -1.2977 -0.5474 -2.3364
  183ETHOX   C2 3528  15.329  13.237   9.309  0.0960 -0.0009 -0.2300
  183ETHOX  H21 3529  15.429  13.216   9.267  0.1544 -2.0128  0.8229
  183ETHOX  H23 3530  15.252  13.249   9.230  0.3314  0.4653 -0.3911
  184ETHOX   O1 3531  15.297  13.141   9.412 -0.4395 -0.3274  0.0639
  184ETHOX   C1 3532  15.312  13.009   9.364  0.2195  0.3010 -0.3202
  184ETHOX  H11 3533  15.223  12.985   9.301 -1.8254  1.0937  2.1037
  184ETHOX  H13 3534  15.410  12.992   9.314  0.5278  2.8136 -0.6680
  184ETHOX   C2 3535  15.280  12.920   9.483  0.2091  0.4880 -0.6011
  184ETHOX  H21 3536  15.277  12.816   9.445  1.9915 -0.1624  0.8296
  184ETHOX  H23 3537  15.183  12.951   9.528  1.8050  0.2483  3.4750
  185ETHOX   O1 3538  15.380  12.928   9.588  0.0417  0.1734  0.3416
  185ETHOX   C1 3539  15.334  12.860   9.703 -0.1337 -0.1193 -0.0918
  185ETHOX  H11 3540  15.235  12.895   9.739 -0.3838 -2.3123  1.5117
  185ETHOX  H13 3541  15.318  12.753   9.680 -1.0624 -0.3079  1.3496
  185ETHOX   C2 3542  15.432  12.880   9.829  0.2818  0.6293  0.1309
  185ETHOX  H21 3543  15.533  12.841   9.807  0.0590 -0.6648  1.2741
  185ETHOX  H23 3544  15.393  12.805   9.900  0.0331 -1.6185 -2.2455
  186ETHOX   O1 3545  15.429  13.017   9.877 -0.7637 -0.0527  1.2371
  186ETHOX   C1 3546  15.451  13.018  10.019  0.3711 -0.7585 -0.5116
  186ETHOX  H11 3547  15.382  12.954  10.077  0.4908  0.8780  1.5369
  186ETHOX  H13 3548  15.549  12.973  10.044 -0.2366 -1.1865  1.2509
  186ETHOX   C2 3549  15.423  13.163  10.070 -0.0531 -0.6633  0.1829
  186ETHOX  H21 3550  15.435  13.239   9.990 -0.1684 -0.3136  0.4972
  186ETHOX  H23 3551  15.480  13.193  10.160 -1.1756  2.3984 -0.0164
  187ETHOX   O1 3552  15.287  13.167  10.099 -0.1737 -0.1531 -0.6453
  187ETHOX   C1 3553  15.230  13.299  10.097 -0.2952 -0.8513  0.0594
  187ETHOX  H11 3554  15.272  13.356  10.183  1.4810 -0.5092 -1.0036
  187ETHOX  H13 3555  15.254  13.353  10.003 -2.5655  1.4235  0.6786
  187ETHOX   C2 3556  15.079  13.273  10.123 -0.6889 -0.3924  1.2842
  187ETHOX  H21 3557  15.031  13.365  10.164  1.2408  0.8367  0.8884
  187ETHOX  H23 3558  15.068  13.187  10.193  0.1948 -2.2636 -0.7638
  188ETHOX   O1 3559  14.995  13.244  10.013 -0.4041 -0.1426  0.8821
  188ETHOX   C1 3560  15.027  13.125   9.939 -0.4959  0.9370  0.4737
  188ETHOX  H11 3561  14.933  13.068   9.930  0.0151 -0.0097  0.9963
  188ETHOX  H13 3562  15.101  13.067   9.999 -1.4916  0.2037  1.0100
  188ETHOX   C2 3563  15.077  13.160   9.800 -0.1953  0.0819 -0.5909
  188ETHOX  H21 3564  15.138  13.079   9.756 -1.5109 -0.4838 -1.4077
  188ETHOX  H23 3565  15.134  13.254   9.817 -1.7491  0.9008  0.3264
  189ETHOX   O1 3566  14.963  13.180   9.721  0.4702  0.2497  0.5501
  189ETHOX   C1 3567  14.992  13.253   9.598  0.5868 -0.9896  0.4849
  189ETHOX  H11 3568  15.044  13.345   9.634  0.7723  0.3661 -2.9374
  189ETHOX  H13 3569  15.053  13.200   9.522 -0.0539 -0.1650 -0.6191
  189ETHOX   C2 3570  14.863  13.317   9.533 -0.0489 -0.0144  0.1316
  189ETHOX  H21 3571  14.796  13.228   9.534 -2.2718  1.4271 -3.1600
  189ETHOX  H23 3572  14.887  13.345   9.428  0.2184  0.2835  0.2719
  190ETHOX   O1 3573  14.816  13.416   9.615 -0.7395  0.0280  0.4598
  190ETHOX   C1 3574  14.731  13.500   9.541  0.0377 -0.2400  0.5097
  190ETHOX  H11 3575  14.657  13.435   9.489 -0.7424  0.6645  0.4617
  190ETHOX  H13 3576  14.789  13.546   9.458  0.1295  2.4569  1.9513
  190ETHOX   C2 3577  14.662  13.607   9.629  0.0973 -0.1194  0.1126
  190ETHOX  H21 3578  14.646  13.566   9.731 -0.8690 -0.0163  0.0154
  190ETHOX  H23 3579  14.561  13.634   9.590  0.3069 -1.6170 -1.6139
  191ETHOX   O1 3580  14.747  13.720   9.639 -0.0419 -0.0641  0.0781
  191ETHOX   C1 3581  14.698  13.837   9.583  0.4264  0.2901  0.3644
  191ETHOX  H11 3582  14.598  13.858   9.626  0.4197  0.2316  0.3765
  191ETHOX  H13 3583  14.765  13.918   9.619  0.1784  0.7092 -0.1108
  191ETHOX   C2 3584  14.685  13.826   9.432 -0.0309 -0.0848  0.8342
  191ETHOX  H21 3585  14.777  13.782   9.388 -0.6708  1.0482 -1.8675
  191ETHOX  H23 3586  14.674  13.933   9.404 -1.0960 -0.4642 -0.2550
  192ETHOX   O1 3587  14.565  13.762   9.389  0.7754 -0.4019  0.1444
  192ETHOX   C1 3588  14.577  13.730   9.255 -0.2866 -0.0829  0.2642
  192ETHOX  H11 3589  14.649  13.647   9.241  1.2458  1.1505  0.6292
  192ETHOX  H13 3590  14.635  13.807   9.200  0.2630 -1.6269 -1.4361
  192ETHOX   C2 3591  14.444  13.700   9.186 -0.0315 -0.0545  0.0612
  192ETHOX  H21 3592  14.372  13.640   9.245  0.4940  0.0319  0.8045
  192ETHOX  H23 3593  14.475  13.639   9.098  1.0443  1.2735 -0.5269
  193ETHOX   O1 3594  14.383  13.815   9.119 -0.5594 -0.5286 -0.7021
  193ETHOX   C1 3595  14.265  13.785   9.050 -0.7891  0.1884 -0.7029
  193ETHOX  H11 3596  14.285  13.725   8.959  1.7267  0.1658 -0.2016
  193ETHOX  H13 3597  14.203  13.722   9.117  0.5033 -0.3333  0.0551
  193ETHOX   C2 3598  14.177  13.901   8.991  0.2020 -0.2346  0.5597
  193ETHOX  H21 3599  14.144  13.976   9.066  1.5744 -1.1866  2.1843
  193ETHOX  H23 3600  14.088  13.857   8.940  0.9950 -0.4693 -0.6808
  194ETHOX   O1 3601  14.251  13.971   8.891  0.5104  0.5078 -0.2812
  194ETHOX   C1 3602  14.180  14.055   8.798  0.5420 -0.3216 -0.1956
  194ETHOX  H11 3603  14.111  14.122   8.854  0.5754  0.7474 -1.3811
  194ETHOX  H13 3604  14.108  13.991   8.741  0.0110  1.0179 -1.0789
  194ETHOX   C2 3605  14.261  14.132   8.691 -0.1811  0.3756  0.1064
  194ETHOX  H21 3606  14.186  14.161   8.615 -2.3792 -2.0687  1.1823
  194ETHOX  H23 3607  14.337  14.063   8.647 -1.6994 -1.1669 -0.1879
  195ETHOX   O1 3608  14.331  14.241   8.754 -0.4918  0.0805 -0.2976
  195ETHOX   C1 3609  14.423  14.315   8.673  0.2111  0.0786 -0.0765
  195ETHOX  H11 3610  14.492  14.246   8.620  1.3049  1.2562 -0.2236
  195ETHOX  H13 3611  14.364  14.363   8.593  0.4367  1.4067  0.5302
  195ETHOX   C2 3612  14.505  14.425   8.752 -0.0051  0.2184 -0.0557
  195ETHOX  H21 3613  14.577  14.469   8.681 -1.1256 -1.3820 -2.3006
  195ETHOX  H23 3614  14.559  14.398   8.845  2.2284  3.2767 -0.3131
  196ETHOX   O1 3615  14.415  14.527   8.791  0.5251  0.8402  0.0759
  196ETHOX   C1 3616  14.480  14.639   8.845 -0.0801 -0.6392  0.0235
  196ETHOX  H11 3617  14.541  14.608   8.932  0.1317  0.8553  0.4349
  196ETHOX  H13 3618  14.547  14.680   8.767 -0.7758  0.1187 -0.1903
  196ETHOX   C2 3619  14.381  14.751   8.881 -0.5403  0.4064 -0.5920
  196ETHOX  H21 3620  14.333  14.787   8.788 -0.5105  3.1974  0.3798
  196ETHOX  H23 3621  14.441  14.834   8.923 -0.5005 -0.3123  0.8739
  197ETHOX   O1 3622  14.285  14.721   8.979  0.1812  0.3170  0.5740
  197ETHOX   C1 3623  14.172  14.812   8.993 -0.3573  0.4157 -0.3048
  197ETHOX  H11 3624  14.204  14.911   9.032 -2.2225  0.2997  1.7333
  197ETHOX  H13 3625  14.132  14.833   8.891  1.9550 -2.5904 -1.9920
  197ETHOX   C2 3626  14.063  14.755   9.084 -0.0406  0.3065  0.7188
  197ETHOX  H21 3627  14.038  14.649   9.063 -0.5911 -0.0856  3.1181
  197ETHOX  H23 3628  13.963  14.801   9.074 -0.5243 -0.8370  0.1412
  198ETHOX   O1 3629  14.085  14.777   9.225 -0.2567  0.2506 -0.3149
  198ETHOX   C1 3630  14.030  14.676   9.310 -0.2186 -0.2990  0.7290
  198ETHOX  H11 3631  14.065  14.576   9.276  0.9767  1.0100 -2.3238
  198ETHOX  H13 3632  14.073  14.685   9.411  1.4607 -0.5094  0.0586
  198ETHOX   C2 3633  13.874  14.664   9.309 -0.2920 -0.8583  0.7673
  198ETHOX  H21 3634  13.837  14.664   9.204 -1.9678  3.5758  1.1333
  198ETHOX  H23 3635  13.837  14.761   9.348  1.3527  0.4202 -0.6764
  199ETHOX   O1 3636  13.821  14.552   9.379 -0.5321 -0.3413 -0.4577
  199ETHOX   C1 3637  13.792  14.571   9.517 -0.2506  0.0658  0.1447
  199ETHOX  H11 3638  13.869  14.644   9.552  0.6409  0.7460 -2.9082
  199ETHOX  H13 3639  13.787  14.476   9.574 -4.5139  0.3878  0.6644
  199ETHOX   C2 3640  13.648  14.622   9.552 -0.1172  0.3938  0.1385
  199ETHOX  H21 3641  13.575  14.540   9.531 -0.2230  0.7404 -0.8992
  199ETHOX  H23 3642  13.628  14.701   9.476 -0.1899  1.4865  1.2727
  200ETHOX   O1 3643  13.633  14.667   9.686  0.0717  0.1442 -0.9416
  200ETHOX   C1 3644  13.499  14.725   9.701  0.2252  0.7417 -0.1051
  200ETHOX  H11 3645  13.505  14.835   9.689  1.4366  1.1328  3.1255
  200ETHOX  H13 3646  13.423  14.683   9.631  0.2328  2.8191 -1.4597
  200ETHOX   C2 3647  13.473  14.694   9.849  0.0791 -0.0754  0.1871
  200ETHOX  H21 3648  13.553  14.731   9.916 -0.5335 -3.5191  3.1643
  200ETHOX  H23 3649  13.474  14.583   9.852  0.1515 -0.0530  1.3617
  201ETHOX   O1 3650  13.339  14.745   9.880 -0.0089 -0.4429 -0.2784
  201ETHOX   C1 3651  13.346  14.878   9.944  0.7483  0.1782 -0.3353
  201ETHOX  H11 3652  13.368  14.960   9.872  0.9655  1.3882  1.0594
  201ETHOX  H13 3653  13.417  14.884  10.029 -1.2170  2.3004  1.2909
  201ETHOX   C2 3654  13.210  14.896  10.014 -0.1364  0.1607  0.2044
  201ETHOX  H21 3655  13.225  14.953  10.109 -1.4723  0.1748  0.4315
  201ETHOX  H23 3656  13.161  14.803  10.051  0.0241  0.1604  0.4181
  202ETHOX   O1 3657  13.118  14.968   9.930 -0.5139  0.0431 -0.5906
  202ETHOX   C1 3658  13.040  14.892   9.837 -0.5612 -0.5941  0.4039
  202ETHOX  H11 3659  13.109  14.836   9.771  0.3234 -0.4514  1.1923
  202ETHOX  H13 3660  12.984  14.814   9.892 -1.0532 -1.5468 -1.3593
  202ETHOX   C2 3661  12.941  14.979   9.756  0.0061  0.7723  0.5076
  202ETHOX  H21 3662  12.902  14.930   9.664 -1.4451  2.4260  0.1959
  202ETHOX  H23 3663  12.980  15.079   9.726  2.2395 -0.6703 -1.7847
  203ETHOX   O1 3664  12.820  14.994   9.823 -0.9247  0.6183 -0.4072
  203ETHOX   C1 3665  12.839  15.053   9.949  0.7230 -0.3973 -0.3926
  203ETHOX  H11 3666  12.924  15.125   9.944 -1.5458  2.7778  2.3109
  203ETHOX  H13 3667  12.867  14.973  10.021  1.5150 -0.9470 -1.2902
  203ETHOX   C2 3668  12.714  15.133   9.994  0.0365  0.2382  0.9452
  203ETHOX  H21 3669  12.726  15.162  10.101  0.2123  1.4345  0.6078
  203ETHOX  H23 3670  12.623  15.070   9.992 -0.8640  1.5263 -0.0792
  204ETHOX   O1 3671  12.695  15.252   9.918  0.1704  0.1826  0.3391
  204ETHOX   C1 3672  12.579  15.328   9.963 -0.1837 -0.7629  0.0412
  204ETHOX  H11 3673  12.490  15.271   9.927 -0.2910  0.3675 -1.5882
  204ETHOX  H13 3674  12.580  15.330  10.074 -0.3670 -1.6277  0.0726
  204ETHOX   C2 3675  12.577  15.475   9.908 -0.4044  0.6193  0.3628
  204ETHOX  H21 3676  12.673  15.519   9.942  0.4284 -1.2444  0.5725
  204ETHOX  H23 3677  12.507  15.531   9.974 -0.5569 -0.6372  1.3256
  205ETHOX   O1 3678  12.548  15.495   9.771 -0.1397  0.8894 -0.9035
  205ETHOX   C1 3679  12.546  15.630   9.739  0.2274  0.6432 -0.4110
  205ETHOX  H11 3680  12.652  15.663   9.744  0.1139  0.8983  0.8960
  205ETHOX  H13 3681  12.487  15.680   9.819  1.7381 -2.2501  2.8026
  205ETHOX   C2 3682  12.497  15.659   9.599 -0.2726 -0.2875  0.1372
  205ETHOX  H21 3683  12.534  15.579   9.531 -0.6088 -0.7824  0.5322
  205ETHOX  H23 3684  12.526  15.759   9.559 -0.4904 -0.5123 -0.6155
  206ETHOX   O1 3685  12.349  15.651   9.600 -0.3312 -0.2911 -0.6517
  206ETHOX   C1 3686  12.290  15.654   9.462 -0.5942 -0.3240 -0.2790
  206ETHOX  H11 3687  12.334  15.750   9.425  0.6746 -1.3495 -1.5397
  206ETHOX  H13 3688  12.348  15.582   9.401 -0.4160  0.4941 -1.0986
  206ETHOX   C2 3689  12.147  15.640   9.425 -0.5411  0.0342 -0.2132
  206ETHOX  H21 3690  12.135  15.651   9.315  0.1593  0.8190 -0.2283
  206ETHOX  H23 3691  12.118  15.536   9.448  1.9736 -0.8233 -0.5796
  207ETHOX   O1 3692  12.075  15.741   9.489 -0.4541  0.3882  0.6661
  207ETHOX   C1 3693  12.043  15.717   9.623 -0.2383  0.2928  0.9267
  207ETHOX  H11 3694  12.135  15.697   9.682  0.8337  1.0047 -0.4395
  207ETHOX  H13 3695  11.981  15.625   9.621 -1.9563  1.3979  1.0837
  207ETHOX   C2 3696  11.969  15.830   9.694 -0.3960  0.2346 -0.4681
  207ETHOX  H21 3697  11.912  15.800   9.784  2.4929  0.0025  1.3998
  207ETHOX  H23 3698  11.891  15.873   9.627 -1.0009 -0.5894 -0.2998
  208ETHOX   O1 3699  12.065  15.924   9.743  0.1391 -0.4363 -0.1406
  208ETHOX   C1 3700  11.994  16.027   9.814 -0.1790  0.6796 -0.0224
  208ETHOX  H11 3701  11.932  16.070   9.733  2.8455  0.4778 -2.6387
  208ETHOX  H13 3702  11.930  15.992   9.897  0.3255  1.4564  0.7125
  208ETHOX   C2 3703  12.096  16.128   9.865 -0.0648  0.4523  0.2536
  208ETHOX  H21 3704  12.173  16.147   9.787 -0.8405  0.9084 -0.4131
  208ETHOX  H23 3705  12.147  16.079   9.951 -1.3391 -2.4117 -0.4988
  209ETHOX   O1 3706  12.039  16.253   9.905 -0.3596 -0.1311 -0.7232
  209ETHOX   C1 3707  12.143  16.353   9.892 -0.0209 -0.0196  0.0330
  209ETHOX  H11 3708  12.185  16.352   9.789 -0.8968 -0.3156 -0.3337
  209ETHOX  H13 3709  12.218  16.316   9.966 -0.7392  2.0716  1.9392
  209ETHOX   C2 3710  12.092  16.491   9.936  0.7030  0.2400  0.3247
  209ETHOX  H21 3711  12.180  16.553   9.961  1.0696  0.4109 -1.2921
  209ETHOX  H23 3712  12.014  16.488  10.015 -0.9201  0.3331 -1.2058
  210ETHOX   O1 3713  12.023  16.550   9.828  0.3371 -0.1127  0.2910
  210ETHOX   C1 3714  12.009  16.692   9.834 -0.0802 -0.1072  0.4592
  210ETHOX  H11 3715  11.909  16.725   9.799 -1.1079 -1.7012  1.7260
  210ETHOX  H13 3716  12.011  16.715   9.943 -0.8739 -1.4689  0.7940
  210ETHOX   C2 3717  12.126  16.777   9.771 -0.6332 -0.1705  0.3881
  210ETHOX  H21 3718  12.217  16.729   9.811 -1.3897 -0.0796  2.3266
  210ETHOX  H23 3719  12.119  16.877   9.819  4.2760 -0.5236  2.3988
  211ETHOX   O1 3720  12.134  16.783   9.627  0.0956  0.1488 -0.1372
  211ETHOX   C1 3721  12.052  16.883   9.577  0.3155  0.1312  0.3261
  211ETHOX  H11 3722  11.947  16.874   9.611 -1.0320 -1.1344 -3.6957
  211ETHOX  H13 3723  12.091  16.983   9.609  0.8967  0.3951 -1.1335
  211ETHOX   C2 3724  12.056  16.855   9.433 -0.1182 -0.0366  1.0816
  211ETHOX  H21 3725  12.156  16.873   9.389 -0.5765 -1.2355 -0.5473
  211ETHOX  H23 3726  11.989  16.931   9.385  1.6164  0.8549 -0.0447
  212ETHOX   O1 3727  12.015  16.726   9.401 -0.1679 -0.3702 -0.1005
  212ETHOX   C1 3728  12.034  16.692   9.262 -0.2532  0.7701 -0.0350
  212ETHOX  H11 3729  11.957  16.615   9.247 -0.8707  1.3406  0.1523
  212ETHOX  H13 3730  11.997  16.782   9.207 -0.8477  1.8518  2.0181
  212ETHOX   C2 3731  12.168  16.648   9.209  0.3698  0.9485  0.5664
  212ETHOX  H21 3732  12.253  16.716   9.229  1.0783 -0.2743  1.8894
  212ETHOX  H23 3733  12.160  16.657   9.098  1.2890  2.8345  0.6191
  213ETHOX   O1 3734  12.201  16.511   9.235 -0.0322 -0.4225  0.0534
  213ETHOX   C1 3735  12.342  16.493   9.206  0.9029  0.4897  0.3255
  213ETHOX  H11 3736  12.366  16.514   9.100  1.5199  0.5019  0.4624
  213ETHOX  H13 3737  12.394  16.551   9.285 -0.4250  0.1075  1.5214
  213ETHOX   C2 3738  12.384  16.342   9.219 -0.6048 -0.7050  0.0909
  213ETHOX  H21 3739  12.476  16.314   9.163 -0.4530 -2.7241  1.2498
  213ETHOX  H23 3740  12.305  16.280   9.172  0.8158 -1.0715 -1.9638
  214ETHOX   O1 3741  12.405  16.309   9.355 -0.0605  0.3427  0.0673
  214ETHOX   C1 3742  12.491  16.193   9.385 -0.8675  0.4735 -0.2187
  214ETHOX  H11 3743  12.522  16.186   9.492  0.1361 -0.0085 -0.5306
  214ETHOX  H13 3744  12.584  16.205   9.326 -1.3043 -0.1210 -1.0436
  214ETHOX   C2 3745  12.432  16.050   9.345 -0.3881  0.3338  0.1986
  214ETHOX  H21 3746  12.350  16.021   9.414 -1.5479  0.0890 -1.2447
  214ETHOX  H23 3747  12.507  15.968   9.352 -0.3422 -0.0702 -3.1946
  215ETHOX   O1 3748  12.386  16.043   9.207  0.4754  0.0832 -0.4230
  215ETHOX   C1 3749  12.307  15.923   9.179 -0.5122  0.2143  1.1551
  215ETHOX  H11 3750  12.370  15.834   9.202 -1.5566 -0.9042 -0.1640
  215ETHOX  H13 3751  12.216  15.917   9.242 -0.9627 -0.8726  0.4356
  215ETHOX   C2 3752  12.268  15.919   9.029  0.4923  0.5704  0.3034
  215ETHOX  H21 3753  12.226  16.016   8.996  0.9455  0.1118 -1.7843
  215ETHOX  H23 3754  12.197  15.835   9.011 -0.8122  1.1992  2.2011
  216ETHOX   O1 3755  12.378  15.890   8.949 -0.4234 -0.2421  0.2393
  216ETHOX   C1 3756  12.341  15.878   8.813  0.7674 -0.1154 -0.2747
  216ETHOX  H11 3757  12.314  15.974   8.764 -1.2270 -0.6072 -0.2581
  216ETHOX  H13 3758  12.254  15.812   8.790  0.3304 -0.2361  1.5110
  216ETHOX   C2 3759  12.460  15.817   8.731 -0.1225  0.4339  0.3581
  216ETHOX  H21 3760  12.550  15.876   8.757  0.5546  0.5787 -2.0421
  216ETHOX  H23 3761  12.437  15.842   8.625  1.8183  1.7243  0.2078
  217ETHOX   O1 3762  12.492  15.679   8.746  1.0334  0.0379 -0.7331
  217ETHOX   C1 3763  12.628  15.657   8.708  0.5613  0.2317 -0.3641
  217ETHOX  H11 3764  12.649  15.704   8.609  1.2255 -0.2744 -0.4729
  217ETHOX  H13 3765  12.710  15.690   8.776  0.7507 -0.4674 -0.2462
  217ETHOX   C2 3766  12.649  15.502   8.697  0.5640  0.0398  0.5733
  217ETHOX  H21 3767  12.622  15.454   8.794 -1.0292 -2.4147 -0.9780
  217ETHOX  H23 3768  12.753  15.487   8.661  0.9408 -0.1326  1.6888
  218ETHOX   O1 3769  12.559  15.450   8.606 -0.3226  0.2501  0.0814
  218ETHOX   C1 3770  12.576  15.317   8.571  0.1871  0.8090  0.3109
  218ETHOX  H11 3771  12.605  15.257   8.660 -0.9499  1.2292  0.9779
  218ETHOX  H13 3772  12.653  15.294   8.494 -1.1024 -1.8308 -0.2989
  218ETHOX   C2 3773  12.442  15.253   8.522 -0.0997 -0.7695 -0.1983
  218ETHOX  H21 3774  12.466  15.148   8.496 -2.3115 -1.6032  0.8389
  218ETHOX  H23 3775  12.392  15.308   8.440  2.4607 -0.2972 -1.5615
  219ETHOX   O1 3776  12.347  15.238   8.635 -0.0420  0.2283  0.1709
  219ETHOX   C1 3777  12.218  15.200   8.590 -0.3882  0.0437 -0.2187
  219ETHOX  H11 3778  12.190  15.270   8.509 -1.3553 -1.4948 -1.2739
  219ETHOX  H13 3779  12.220  15.097   8.548 -1.3427  0.1738 -0.6229
  219ETHOX   C2 3780  12.124  15.206   8.705 -0.2713  0.9866 -0.6062
  219ETHOX  H21 3781  12.018  15.201   8.673 -0.3566  0.5181 -0.2567
  219ETHOX  H23 3782  12.129  15.300   8.764 -1.0559 -0.2375  1.5089
  220ETHOX   O1 3783  12.151  15.104   8.806  0.1642 -0.5649  0.4478
  220ETHOX   C1 3784  12.057  15.102   8.909  0.0505  0.1050  0.2002
  220ETHOX  H11 3785  11.984  15.022   8.881  0.9548 -1.3284  1.7340
  220ETHOX  H13 3786  11.992  15.192   8.902 -0.9629 -0.4527  1.7094
  220ETHOX   C2 3787  12.116  15.060   9.046 -0.4198  0.5887  0.8757
  220ETHOX  H21 3788  12.188  14.976   9.043 -0.3304  0.6421  1.3252
  220ETHOX  H23 3789  12.033  15.033   9.115  0.0814 -1.4579  0.7339
  221ETHOX   O1 3790  12.183  15.158   9.114  0.4123 -0.0575  0.2273
  221ETHOX   C1 3791  12.268  15.106   9.212  0.5070 -0.2352 -0.5400
  221ETHOX  H11 3792  12.198  15.050   9.277  0.7352 -1.8185 -1.5975
  221ETHOX  H13 3793  12.344  15.045   9.160  2.0748  0.9783  0.2506
  221ETHOX   C2 3794  12.337  15.219   9.300  0.4220  0.4210  0.5582
  221ETHOX  H21 3795  12.265  15.291   9.344  0.1897  0.6485 -0.1787
  221ETHOX  H23 3796  12.403  15.264   9.223  1.2339 -2.0486 -0.2834
  222ETHOX   O1 3797  12.422  15.161   9.395 -0.1357 -0.0554 -0.6617
  222ETHOX   C1 3798  12.459  15.257   9.490  0.1175 -0.0075 -0.1236
  222ETHOX  H11 3799  12.495  15.351   9.441  2.2743 -0.2737  0.8318
  222ETHOX  H13 3800  12.370  15.284   9.551  1.2761  1.0874  1.1539
  222ETHOX   C2 3801  12.583  15.220   9.576  0.3508  0.2189  0.5480
  222ETHOX  H21 3802  12.572  15.118   9.619 -1.7272  0.1579  0.0059
  222ETHOX  H23 3803  12.580  15.294   9.659  2.5342  1.9179 -0.7884
  223ETHOX   O1 3804  12.689  15.232   9.489 -0.0641  0.9389 -0.5844
  223ETHOX   C1 3805  12.792  15.297   9.547  0.0361  0.4131  0.6132
  223ETHOX  H11 3806  12.758  15.397   9.583 -0.3617  1.3591 -2.1694
  223ETHOX  H13 3807  12.825  15.247   9.641  0.2099  2.8350  1.9544
  223ETHOX   C2 3808  12.916  15.307   9.456  0.0834  0.0696  0.4822
  223ETHOX  H21 3809  12.946  15.212   9.406  1.8836 -0.9204  3.1562
  223ETHOX  H23 3810  12.997  15.330   9.529  1.9132  1.0861 -1.7455
  224ETHOX   O1 3811  12.910  15.405   9.354 -0.2697  0.9456 -0.5730
  224ETHOX   C1 3812  13.041  15.438   9.301  0.2803  0.7568  0.0624
  224ETHOX  H11 3813  13.092  15.498   9.380 -2.4725  0.6388  2.0563
  224ETHOX  H13 3814  13.095  15.343   9.283 -1.8946 -0.4552 -0.3108
  224ETHOX   C2 3815  13.033  15.520   9.175 -0.5851  0.1267  0.1192
  224ETHOX  H21 3816  13.135  15.562   9.157  0.1803 -0.5191  2.5236
  224ETHOX  H23 3817  12.966  15.608   9.183  1.2271  1.9514 -2.9763
  225ETHOX   O1 3818  12.971  15.432   9.078 -0.1390 -0.3362 -0.2729
  225ETHOX   C1 3819  12.910  15.504   8.967 -0.0030  0.0818  0.4038
  225ETHOX  H11 3820  12.848  15.590   8.998  0.9573  1.0211 -0.2337
  225ETHOX  H13 3821  12.845  15.424   8.924  0.7461 -0.3481  0.0314
  225ETHOX   C2 3822  13.016  15.529   8.849 -0.4964 -0.7519  0.4228
  225ETHOX  H21 3823  12.969  15.547   8.750  0.6277  1.9977  0.2961
  225ETHOX  H23 3824  13.072  15.434   8.835  0.2097 -0.3153  0.2668
  226ETHOX   O1 3825  13.081  15.651   8.884 -0.0957  0.1228  0.2800
  226ETHOX   C1 3826  13.222  15.650   8.874 -0.3074  0.2774  0.3723
  226ETHOX  H11 3827  13.273  15.589   8.951  0.4550  1.1112  0.5406
  226ETHOX  H13 3828  13.256  15.617   8.773  0.1020  1.2818  0.1720
  226ETHOX   C2 3829  13.266  15.801   8.858 -0.2737  0.2074 -1.1500
  226ETHOX  H21 3830  13.232  15.853   8.766 -0.0232  1.4650 -0.5443
  226ETHOX  H23 3831  13.376  15.817   8.861 -0.2972  0.3679 -1.1919
  227ETHOX   O1 3832  13.226  15.870   8.973 -0.4783 -0.2520 -0.5418
  227ETHOX   C1 3833  13.266  16.007   8.970 -0.8580  0.3475  0.0574
  227ETHOX  H11 3834  13.201  16.059   8.897 -0.9116  0.5070  0.2214
  227ETHOX  H13 3835  13.375  16.016   8.948 -1.1960 -1.9712 -3.3885
  227ETHOX   C2 3836  13.238  16.079   9.098  0.5408 -0.5021 -0.2445
  227ETHOX  H21 3837  13.257  16.187   9.082  0.4582 -0.3256  0.7805
  227ETHOX  H23 3838  13.306  16.036   9.175  0.5511  1.6030  0.9862
  228ETHOX   O1 3839  13.100  16.075   9.141  0.2582  0.6229  0.3083
  228ETHOX   C1 3840  13.074  16.151   9.258 -0.0320 -0.3016 -0.3502
  228ETHOX  H11 3841  13.116  16.099   9.347 -0.7008 -0.0985  0.0902
  228ETHOX  H13 3842  13.112  16.256   9.250 -0.0875 -0.2131  0.3871
  228ETHOX   C2 3843  12.920  16.164   9.269  0.0256  0.9155 -0.3948
  228ETHOX  H21 3844  12.903  16.154   9.379  0.3986  0.0955 -0.4068
  228ETHOX  H23 3845  12.875  16.079   9.213 -1.5073  0.3308  1.6053
  229ETHOX   O1 3846  12.856  16.280   9.221  0.3655  0.3540 -0.1599
  229ETHOX   C1 3847  12.845  16.388   9.322 -0.0532  0.6754  0.2265
  229ETHOX  H11 3848  12.946  16.421   9.354  0.3378  1.2105 -1.4667
  229ETHOX  H13 3849  12.799  16.343   9.413  0.2042 -1.5315 -0.6520
  229ETHOX   C2 3850  12.760  16.490   9.247  0.0014 -0.2513 -0.1292
  229ETHOX  H21 3851  12.728  16.570   9.317 -0.8831 -0.3383 -0.4255
  229ETHOX  H23 3852  12.666  16.437   9.222 -1.2202 -0.1843  3.6839
  230ETHOX   O1 3853  12.837  16.545   9.139 -0.2723 -0.2556  0.0050
  230ETHOX   C1 3854  12.762  16.648   9.093 -0.0563 -0.6359 -0.3929
  230ETHOX  H11 3855  12.661  16.614   9.063 -1.3794  1.8021  1.0052
  230ETHOX  H13 3856  12.743  16.726   9.169 -0.3050  0.9394 -2.0132
  230ETHOX   C2 3857  12.831  16.714   8.973 -0.1052  0.2650  0.3816
  230ETHOX  H21 3858  12.782  16.808   8.938  0.4292  1.0288  1.6236
  230ETHOX  H23 3859  12.820  16.651   8.883  3.5735  0.1576 -0.1486
  231ETHOX   O1 3860  12.972  16.746   9.004 -0.4566 -0.0183 -0.0285
  231ETHOX   C1 3861  13.022  16.846   8.916  0.3865 -0.1278 -0.9116
  231ETHOX  H11 3862  12.982  16.938   8.964  0.7296 -1.5299  2.3508
  231ETHOX  H13 3863  12.991  16.838   8.810  0.0869 -3.2721 -0.6816
  231ETHOX   C2 3864  13.174  16.858   8.927 -0.0490  0.8392  0.0867
  231ETHOX  H21 3865  13.207  16.813   9.023  2.2085  0.0963 -0.9694
  231ETHOX  H23 3866  13.219  16.957   8.907  0.1070  0.8217  0.3406
  232ETHOX   O1 3867  13.222  16.770   8.827  0.5226  0.3212 -0.2835
  232ETHOX   C1 3868  13.359  16.762   8.839 -0.7625 -0.9225 -0.1467
  232ETHOX  H11 3869  13.390  16.773   8.945 -0.4688  3.0115 -0.4970
  232ETHOX  H13 3870  13.398  16.662   8.811  0.3015 -0.8581  1.0004
  232ETHOX   C2 3871  13.431  16.866   8.762  0.1614 -0.8009 -0.1577
  232ETHOX  H21 3872  13.536  16.859   8.798  0.2032  0.2172 -0.0737
  232ETHOX  H23 3873  13.394  16.967   8.787  0.5725 -0.9883  1.3298
  233ETHOX   O1 3874  13.422  16.837   8.620  0.2496  0.6861  0.0709
  233ETHOX   C1 3875  13.532  16.871   8.544  0.4441 -0.0425 -0.4290
  233ETHOX  H11 3876  13.474  16.917   8.461 -1.1388 -1.6315 -0.2661
  233ETHOX  H13 3877  13.600  16.945   8.591 -0.1693  1.6956 -2.1330
  233ETHOX   C2 3878  13.614  16.752   8.489  0.0209  0.6798 -0.6774
  233ETHOX  H21 3879  13.676  16.794   8.407  2.1400  1.6798  1.2887
  233ETHOX  H23 3880  13.539  16.676   8.461 -1.7995  1.5766  1.3898
  234ETHOX   O1 3881  13.709  16.708   8.579 -0.3204 -0.7374  0.2059
  234ETHOX   C1 3882  13.772  16.591   8.530 -1.1532  0.1281  0.4721
  234ETHOX  H11 3883  13.753  16.582   8.421 -1.4767  0.4754  0.4975
  234ETHOX  H13 3884  13.879  16.602   8.558 -1.1269  0.6769  0.1671
  234ETHOX   C2 3885  13.707  16.469   8.591  0.4195  0.0617 -0.1848
  234ETHOX  H21 3886  13.730  16.390   8.517 -0.7067  1.3804 -2.0191
  234ETHOX  H23 3887  13.597  16.486   8.592  0.6664  1.9250 -0.2473
  235ETHOX   O1 3888  13.771  16.445   8.718 -0.1813  0.4587 -0.1062
  235ETHOX   C1 3889  13.684  16.402   8.824 -0.4587 -1.0524 -0.2337
  235ETHOX  H11 3890  13.610  16.482   8.845  1.4905  0.9416 -0.5273
  235ETHOX  H13 3891  13.629  16.317   8.778 -2.0258  0.0689 -0.5263
  235ETHOX   C2 3892  13.762  16.363   8.951 -1.1680 -0.9119 -0.0828
  235ETHOX  H21 3893  13.706  16.354   9.046  1.9388  1.4611  2.2052
  235ETHOX  H23 3894  13.828  16.451   8.969 -0.8336 -1.1893  0.0756
  236ETHOX   O1 3895  13.840  16.246   8.927  0.1346 -0.9268 -0.3294
  236ETHOX   C1 3896  13.964  16.253   8.998  0.0485 -0.5236 -0.2548
  236ETHOX  H11 3897  13.948  16.229   9.106  2.0884 -0.2560  0.1584
  236ETHOX  H13 3898  14.013  16.353   8.996 -0.6378 -0.1867 -0.3630
  236ETHOX   C2 3899  14.067  16.158   8.954 -0.0352  0.6212  0.0029
  236ETHOX  H21 3900  14.154  16.173   9.022 -0.8313 -1.0166  1.4547
  236ETHOX  H23 3901  14.087  16.160   8.844 -1.6253  2.5049 -0.3279
  237ETHOX   O1 3902  14.021  16.028   8.976  0.4833  0.2330 -0.2103
  237ETHOX   C1 3903  14.047  15.973   9.105  0.3286 -0.0927  0.1109
  237ETHOX  H11 3904  14.156  15.984   9.127  0.5192  0.1539 -0.9074
  237ETHOX  H13 3905  13.986  16.038   9.172 -0.5096 -0.0165 -0.7182
  237ETHOX   C2 3906  13.991  15.826   9.114  0.1335 -0.5594 -0.0425
  237ETHOX  H21 3907  13.887  15.841   9.075  0.3522  1.4765  0.0538
  237ETHOX  H23 3908  13.992  15.796   9.221  1.6823  0.4137  0.2420
  238ETHOX   O1 3909  14.073  15.737   9.029 -0.0767 -0.2422 -0.6306
  238ETHOX   C1 3910  14.006  15.617   9.021  0.0473 -0.0366 -0.3870
  238ETHOX  H11 3911  13.915  15.627   8.958 -0.4640  1.8205  0.6024
  238ETHOX  H13 3912  13.979  15.598   9.127  0.1917  1.5442 -0.0485
  238ETHOX   C2 3913  14.100  15.504   8.957  0.3917 -0.9194 -0.0515
  238ETHOX  H21 3914  14.055  15.403   8.959  1.3123 -1.4783 -2.7191
  238ETHOX  H23 3915  14.192  15.505   9.019 -0.1334  0.2256  0.7488
  239ETHOX   O1 3916  14.125  15.537   8.823 -0.9149 -0.1540  0.0015
  239ETHOX   C1 3917  14.209  15.434   8.765  0.4417 -0.3665 -0.5666
  239ETHOX  H11 3918  14.310  15.436   8.811  0.1014 -3.6981  0.5575
  239ETHOX  H13 3919  14.162  15.337   8.791 -0.2893  0.2890  0.6279
  239ETHOX   C2 3920  14.207  15.462   8.610  0.0177 -0.1007 -0.3308
  239ETHOX  H21 3921  14.217  15.567   8.575 -2.1598 -0.5379 -2.5842
  239ETHOX  H23 3922  14.299  15.413   8.573 -0.0055 -1.7917  1.6618
  240ETHOX   O1 3923  14.091  15.412   8.544 -0.2499 -0.2247  0.1376
  240ETHOX   C1 3924  14.101  15.383   8.401 -0.0826 -1.0999 -0.1700
  240ETHOX  H11 3925  14.204  15.348   8.375 -0.5207  0.2463 -4.2845
  240ETHOX  H13 3926  14.096  15.484   8.355 -1.0745 -2.1096 -2.3718
  240ETHOX   C2 3927  13.996  15.282   8.354  1.1337 -1.6232 -0.6583
  240ETHOX  H21 3928  13.976  15.300   8.247 -0.2989 -1.5267 -0.3944
  240ETHOX  H23 3929  13.904  15.285   8.417  2.2900 -2.0280  1.1427
  241ETHOX   O1 3930  14.060  15.157   8.371 -0.1566 -0.6396  0.1207
  241ETHOX   C1 3931  13.992  15.055   8.292 -0.4754  0.4549 -0.1720
  241ETHOX  H11 3932  13.894  15.045   8.344 -1.4827  2.6138 -1.4962
  241ETHOX  H13 3933  13.991  15.081   8.184 -1.8075  0.9266 -0.0749
  241ETHOX   C2 3934  14.085  14.926   8.305  0.1412 -0.3076 -0.0414
  241ETHOX  H21 3935  14.192  14.946   8.285 -0.5354  3.2471 -0.8192
  241ETHOX  H23 3936  14.071  14.850   8.225  2.4393 -0.6810 -0.1605
  242ETHOX   O1 3937  14.084  14.870   8.439  0.4056  0.1977  0.0330
  242ETHOX   C1 3938  14.003  14.753   8.435 -0.0356  0.1025  0.1936
  242ETHOX  H11 3939  14.034  14.687   8.351  1.2452  0.1781  0.5824
  242ETHOX  H13 3940  13.897  14.787   8.432 -0.1214 -0.2581 -1.8513
  242ETHOX   C2 3941  14.020  14.666   8.559  0.0746 -0.3559 -0.1414
  242ETHOX  H21 3942  14.007  14.729   8.651 -2.0521 -2.5570  1.1919
  242ETHOX  H23 3943  14.111  14.604   8.565 -0.6148 -1.3024  0.9270
  243ETHOX   O1 3944  13.911  14.570   8.566  0.2948  0.5806  0.6064
  243ETHOX   C1 3945  13.911  14.493   8.679 -0.2779 -0.7123  0.4048
  243ETHOX  H11 3946  13.986  14.411   8.675 -0.4203 -0.8442  0.3957
  243ETHOX  H13 3947  13.936  14.550   8.771  0.8710 -0.9776  0.2680
  243ETHOX   C2 3948  13.773  14.428   8.687 -0.8844  0.0362  0.7547
  243ETHOX  H21 3949  13.797  14.335   8.742  1.0771 -0.0949 -0.2304
  243ETHOX  H23 3950  13.731  14.394   8.590  2.2857 -1.2219 -0.3197
  244ETHOX   O1 3951  13.680  14.510   8.754  0.5790  0.1270  0.2109
  244ETHOX   C1 3952  13.549  14.446   8.741  0.2235 -0.5974 -0.0127
  244ETHOX  H11 3953  13.558  14.351   8.799 -1.3544 -1.5344 -1.1978
  244ETHOX  H13 3954  13.517  14.425   8.637 -1.1642 -0.9984  0.4659
  244ETHOX   C2 3955  13.454  14.533   8.818 -0.4382  0.1236 -0.1629
  244ETHOX  H21 3956  13.498  14.559   8.917 -0.8631 -1.4602  0.4780
  244ETHOX  H23 3957  13.360  14.478   8.838  0.5149 -0.5741  2.9301
  245ETHOX   O1 3958  13.417  14.657   8.758 -0.7378 -0.0196 -0.0577
  245ETHOX   C1 3959  13.310  14.707   8.838  0.7959 -1.1658 -0.0497
  245ETHOX  H11 3960  13.225  14.636   8.844 -0.3232  0.1957  0.6179
  245ETHOX  H13 3961  13.344  14.733   8.940 -1.6253 -0.7115  0.7123
  245ETHOX   C2 3962  13.270  14.847   8.786  0.7939 -0.4458  0.2027
  245ETHOX  H21 3963  13.188  14.893   8.846  2.8395  1.8979  1.3758
  245ETHOX  H23 3964  13.245  14.817   8.682 -1.6819  0.3757  0.4792
  246ETHOX   O1 3965  13.378  14.939   8.802  0.4760 -0.2353 -0.2923
  246ETHOX   C1 3966  13.335  15.071   8.752  0.1249  1.0342  0.5540
  246ETHOX  H11 3967  13.260  15.048   8.673  3.0054 -1.2625 -1.7046
  246ETHOX  H13 3968  13.424  15.118   8.707  0.2849  0.3884  0.1836
  246ETHOX   C2 3969  13.267  15.157   8.856 -0.1716 -0.0314 -0.2833
  246ETHOX  H21 3970  13.190  15.100   8.913  0.2722 -0.6744 -0.3139
  246ETHOX  H23 3971  13.229  15.247   8.804  2.1128  0.9745 -0.3136
  247ETHOX   O1 3972  13.366  15.206   8.944  0.3851 -0.4068  0.7636
  247ETHOX   C1 3973  13.308  15.258   9.056  0.0779  0.2915 -0.4023
  247ETHOX  H11 3974  13.227  15.329   9.031 -0.1147  0.8538  1.6513
  247ETHOX  H13 3975  13.262  15.170   9.108  0.8852  2.5267  4.7472
  247ETHOX   C2 3976  13.401  15.329   9.162 -0.1384 -0.2202 -0.1691
  247ETHOX  H21 3977  13.377  15.293   9.264 -0.8082  2.5310  0.7284
  247ETHOX  H23 3978  13.506  15.304   9.135 -0.1631  0.1029 -0.5655
  248ETHOX   O1 3979  13.381  15.464   9.158 -0.4676  0.0490  0.3093
  248ETHOX   C1 3980  13.489  15.545   9.208  0.2151  0.6271 -0.0522
  248ETHOX  H11 3981  13.532  15.491   9.295 -2.4032 -2.5618 -0.5776
  248ETHOX  H13 3982  13.555  15.560   9.120 -2.0855 -0.3753 -2.0681
  248ETHOX   C2 3983  13.453  15.687   9.252 -0.1442 -0.5695  0.1061
  248ETHOX  H21 3984  13.405  15.732   9.162 -0.8192 -0.2182  0.6270
  248ETHOX  H23 3985  13.547  15.742   9.272  0.5360 -0.4897 -2.7932
  249ETHOX   O1 3986  13.366  15.682   9.365  0.0486 -0.3460  0.0021
  249ETHOX   C1 3987  13.321  15.817   9.404 -0.0943 -0.2953 -0.1094
  249ETHOX  H11 3988  13.400  15.894   9.391 -0.6504  0.0852 -1.4289
  249ETHOX  H13 3989  13.231  15.832   9.340 -0.3274 -2.1440 -0.2772
  249ETHOX   C2 3990  13.264  15.819   9.549  0.0621 -0.2172  0.7660
  249ETHOX  H21 3991  13.186  15.741   9.554 -0.8450  0.7376  2.6371
  249ETHOX  H23 3992  13.215  15.917   9.566 -1.4721 -0.5087 -1.5685
  250ETHOX   O1 3993  13.352  15.798   9.657 -0.1096  0.5486 -0.1923
  250ETHOX   C1 3994  13.293  15.852   9.778  0.2847  0.3702  0.5490
  250ETHOX  H11 3995  13.294  15.963   9.773  1.1035  0.3169 -1.3243
  250ETHOX  H13 3996  13.185  15.825   9.774  0.1764  0.8673  0.1163
  250ETHOX   C2 3997  13.362  15.816   9.912  0.1657  0.0168  0.0287
  250ETHOX  H21 3998  13.398  15.712   9.898  1.9263  0.2157  2.4354
  250ETHOX  H23 3999  13.296  15.833  10.000  0.0481 -1.3291  0.2228
  251ETHOX   O1 4000  13.475  15.892   9.950 -0.1056 -0.0429  0.1073
  251ETHOX   C1 4001  13.597  15.852   9.883  0.7884 -0.4088  0.1351
  251ETHOX  H11 4002  13.569  15.845   9.775  1.4504  0.0364 -0.0748
  251ETHOX  H13 4003  13.617  15.747   9.915 -0.1428 -0.4722  0.5269
  251ETHOX   C2 4004  13.726  15.940   9.887 -0.1055  0.2326  0.4555
  251ETHOX  H21 4005  13.798  15.877   9.831 -0.9145  0.4974 -0.9152
  251ETHOX  H23 4006  13.739  15.961   9.996  0.6292 -1.3857  0.7140
  252ETHOX   O1 4007  13.712  16.066   9.820  0.6368  0.4589 -0.4838
  252ETHOX   C1 4008  13.827  16.154   9.843 -0.5687 -0.3876  0.0221
  252ETHOX  H11 4009  13.855  16.155   9.950 -0.8167  2.8953  0.1686
  252ETHOX  H13 4010  13.911  16.112   9.784  0.1782 -1.2284  1.6209
  252ETHOX   C2 4011  13.786  16.293   9.799 -0.6938  0.0882  0.2270
  252ETHOX  H21 4012  13.721  16.288   9.709 -0.8617 -3.0993  0.4037
  252ETHOX  H23 4013  13.875  16.358   9.789 -0.5924 -0.3035 -1.8421
  253ETHOX   O1 4014  13.710  16.354   9.906  0.3442 -0.3331 -0.4148
  253ETHOX   C1 4015  13.695  16.495   9.891  0.3041  0.0421  0.0686
  253ETHOX  H11 4016  13.631  16.518   9.803 -1.6043 -2.2424  0.7658
  253ETHOX  H13 4017  13.784  16.559   9.877 -0.7835  1.2296 -2.0175
  253ETHOX   C2 4018  13.618  16.550  10.007 -0.8007 -0.6958 -0.2153
  253ETHOX  H21 4019  13.543  16.474  10.037 -0.3597 -0.9448  0.2915
  253ETHOX  H23 4020  13.567  16.646   9.987  0.3444  0.3589  1.7022
  254ETHOX   O1 4021  13.704  16.568  10.117  0.5220 -0.0752 -0.2802
  254ETHOX   C1 4022  13.638  16.611  10.237 -0.2322 -0.0241  0.6007
  254ETHOX  H11 4023  13.542  16.660  10.210  0.3296  0.9167  0.2528
  254ETHOX  H13 4024  13.601  16.520  10.289  0.4887 -0.9361 -0.4249
  254ETHOX   C2 4025  13.730  16.697  10.321 -0.3564  0.1316  0.0351
  254ETHOX  H21 4026  13.680  16.722  10.418  1.1569  0.1716  0.8327
  254ETHOX  H23 4027  13.767  16.783  10.261  1.6300 -1.3620 -0.9829
  255ETHOX   O1 4028  13.844  16.633  10.382  0.2847  0.1105 -0.0322
  255ETHOX   C1 4029  13.913  16.711  10.480 -0.4849 -0.8868  0.1132
  255ETHOX  H11 4030  13.925  16.653  10.574 -1.4002 -1.5270 -0.1435
  255ETHOX  H13 4031  13.852  16.801  10.504  0.9565  1.2917 -3.5405
  255ETHOX   C2 4032  14.048  16.748  10.425 -0.0921 -1.0156 -0.0390
  255ETHOX  H21 4033  14.097  16.828  10.485  0.1967 -1.1440 -0.1010
  255ETHOX  H23 4034  14.033  16.788  10.322 -0.2182 -4.7791 -1.6099
  256ETHOX   O1 4035  14.120  16.625  10.433  0.3449 -0.1708  0.1097
  256ETHOX   C1 4036  14.233  16.623  10.346  0.1665  0.1105 -0.5701
  256ETHOX  H11 4037  14.188  16.592  10.250 -4.7550  0.0572  1.4876
  256ETHOX  H13 4038  14.291  16.716  10.360 -0.1884  0.0074  2.1608
  256ETHOX   C2 4039  14.335  16.515  10.391 -0.0071  0.2651  0.1572
  256ETHOX  H21 4040  14.428  16.527  10.332  1.0266 -0.0627  1.6452
  256ETHOX  H23 4041  14.294  16.412  10.394  1.5211 -0.5186 -2.4662
  257ETHOX   O1 4042  14.386  16.534  10.528 -0.6853 -1.0248 -0.0040
  257ETHOX   C1 4043  14.469  16.420  10.572  0.7405 -0.3315 -0.6852
  257ETHOX  H11 4044  14.437  16.327  10.520  1.6460 -2.8466  2.9183
  257ETHOX  H13 4045  14.441  16.411  10.679  0.3643  0.6555 -0.6812
  257ETHOX   C2 4046  14.620  16.435  10.536 -0.3222 -0.5253 -0.3732
  257ETHOX  H21 4047  14.672  16.339  10.555  0.4607 -0.3289 -1.4432
  257ETHOX  H23 4048  14.664  16.510  10.605 -0.6061 -1.6173  1.0416
  258ETHOX   O1 4049  14.645  16.452  10.399 -0.8289 -0.1033  0.4476
  258ETHOX   C1 4050  14.788  16.439  10.374  0.2577 -0.0469 -0.1624
  258ETHOX  H11 4051  14.847  16.503  10.443 -1.5056  0.7673  0.6609
  258ETHOX  H13 4052  14.820  16.333  10.385  1.6824  0.4657  0.9901
  258ETHOX   C2 4053  14.823  16.489  10.233 -0.1252 -0.3029  0.1128
  258ETHOX  H21 4054  14.761  16.423  10.168  0.9070 -1.4205  0.2222
  258ETHOX  H23 4055  14.931  16.480  10.212  0.7017  1.8165  2.9477
  259ETHOX   O1 4056  14.780  16.625  10.211  0.5081  0.3729  0.0023
  259ETHOX   C1 4057  14.783  16.653  10.072  0.6699  0.4782 -0.0910
  259ETHOX  H11 4058  14.865  16.597  10.023 -1.0404 -0.5706 -1.8389
  259ETHOX  H13 4059  14.687  16.623  10.026  1.7864 -1.4136 -1.2748
  259ETHOX   C2 4060  14.806  16.808  10.044  0.5578  0.0291  0.2064
  259ETHOX  H21 4061  14.727  16.873  10.087  1.2266  0.8899  0.1680
  259ETHOX  H23 4062  14.811  16.831   9.936  0.3170 -3.5841 -0.7026
  260ETHOX   O1 4063  14.927  16.846  10.108  0.1045  0.0029 -0.3061
  260ETHOX   C1 4064  14.934  16.987  10.120 -0.8953 -0.5061  0.5687
  260ETHOX  H11 4065  14.927  17.027  10.017 -0.7460 -0.4398  0.5845
  260ETHOX  H13 4066  14.845  17.031  10.170 -0.8378 -0.6809  0.8293
  260ETHOX   C2 4067  15.058  17.051  10.177 -0.0361  0.4690  0.0598
  260ETHOX  H21 4068  15.074  17.008  10.278 -3.7003  0.6481  0.8506
  260ETHOX  H23 4069  15.029  17.158  10.179 -0.6271  0.4013 -2.5509
  261ETHOX   O1 4070  15.174  17.028  10.093 -0.2973 -0.6548 -0.3566
  261ETHOX   C1 4071  15.287  17.095  10.145 -0.8605 -0.4144 -0.8263
  261ETHOX  H11 4072  15.288  17.198  10.105 -0.2633  0.0177  0.2774
  261ETHOX  H13 4073  15.279  17.112  10.254 -2.0329  2.4360 -1.2771
  261ETHOX   C2 4074  15.427  17.031  10.123 -0.0890  0.4864 -0.7761
  261ETHOX  H21 4075  15.446  17.019  10.014 -1.3253 -2.0931 -0.7831
  261ETHOX  H23 4076  15.425  16.931  10.172 -1.2423  0.7330 -0.2936
  262ETHOX   O1 4077  15.533  17.109  10.180 -0.2711 -0.3095  0.1728
  262ETHOX   C1 4078  15.661  17.048  10.180  0.2613 -0.1860  0.1653
  262ETHOX  H11 4079  15.740  17.115  10.139  2.3605 -2.6134 -0.0460
  262ETHOX  H13 4080  15.659  16.970  10.100 -1.5105  1.9212 -2.0144
  262ETHOX   C2 4081  15.701  16.982  10.313 -0.3335  0.8718 -0.4102
  262ETHOX  H21 4082  15.697  17.072  10.378 -1.5437  0.3556  0.2655
  262ETHOX  H23 4083  15.806  16.946  10.313 -0.1418  1.1061  3.4106
  263ETHOX   O1 4084  15.614  16.889  10.375  0.2055  0.6008 -0.2560
  263ETHOX   C1 4085  15.608  16.768  10.306 -0.8427 -0.5245  0.5454
  263ETHOX  H11 4086  15.708  16.723  10.322 -1.1893 -1.7681 -0.6389
  263ETHOX  H13 4087  15.584  16.787  10.199 -2.0566  1.2661  1.0879
  263ETHOX   C2 4088  15.494  16.674  10.362 -1.5704 -0.7118  0.8613
  263ETHOX  H21 4089  15.503  16.655  10.471 -0.3502  0.3023  0.9655
  263ETHOX  H23 4090  15.493  16.579  10.305 -0.7075  0.4977 -1.2545
  264ETHOX   O1 4091  15.368  16.739  10.327 -0.2183 -0.3118  0.0356
  264ETHOX   C1 4092  15.259  16.650  10.347 -0.5171  0.0706  0.2644
  264ETHOX  H11 4093  15.268  16.601  10.447 -0.1980 -0.7516 -0.1527
  264ETHOX  H13 4094  15.265  16.574  10.266 -1.3623  1.1472 -0.8493
  264ETHOX   C2 4095  15.127  16.714  10.340  0.1941  0.1821  0.1905
  264ETHOX  H21 4096  15.041  16.649  10.315 -0.5657  1.5740 -0.9664
  264ETHOX  H23 4097  15.123  16.779  10.250 -6.2407  0.2515  0.0437
  265ETHOX   O1 4098  15.088  16.779  10.466 -0.1373  0.3715  0.5735
  265ETHOX   C1 4099  14.943  16.791  10.481 -0.3018 -0.1569  0.1959
  265ETHOX  H11 4100  14.906  16.864  10.405  2.4205 -0.7590 -1.8972
  265ETHOX  H13 4101  14.886  16.698  10.463 -1.6325  0.3242  1.7319
  265ETHOX   C2 4102  14.894  16.851  10.613 -0.2446 -0.4415 -0.4852
  265ETHOX  H21 4103  14.784  16.854  10.603 -0.1988  1.2179 -0.9528
  265ETHOX  H23 4104  14.920  16.959  10.617  2.3110 -0.9077 -1.9100
  265ETHOX   OZ 4105  14.941  16.774  10.728  0.0200 -0.2332  0.0930
  265ETHOX  HZ1 4106  14.913  16.827  10.803  1.7408 -1.1506  1.4612
    1ETHOX   O1 4107  15.793  11.532  14.009 -0.7257  0.5828 -0.0286
    1ETHOX  HO1 4108  15.765  11.467  14.074 -1.5826  0.4182 -0.5427
    1ETHOX   C1 4109  15.743  11.494  13.882  0.3077 -0.4148 -0.3307
    1ETHOX  H11 4110  15.633  11.501  13.894  0.4916  2.4870  0.5036
    1ETHOX  H13 4111  15.788  11.399  13.848  0.6042 -0.3765 -0.0576
    1ETHOX   C2 4112  15.798  11.604  13.792  0.5165 -0.2914 -0.7780
    1ETHOX  H21 4113  15.786  11.574  13.686  0.3901 -1.0198 -0.5626
    1ETHOX  H23 4114  15.905  11.624  13.814  0.0752  1.0963  0.3237
    2ETHOX   O1 4115  15.729  11.725  13.817 -0.4551 -0.6370  0.3716
    2ETHOX   C1 4116  15.757  11.834  13.729  0.9141  0.3024 -0.5763
    2ETHOX  H11 4117  15.779  11.798  13.626 -2.6333  0.9926 -1.7185
    2ETHOX  H13 4118  15.670  11.903  13.729  2.0947  1.8353 -0.4617
    2ETHOX   C2 4119  15.875  11.915  13.774 -0.0971  0.3268 -0.3789
    2ETHOX  H21 4120  15.852  11.958  13.874  0.2450 -0.0956 -0.1184
    2ETHOX  H23 4121  15.887  11.996  13.699 -2.0393 -0.4528 -1.6097
    3ETHOX   O1 4122  15.996  11.839  13.780 -0.3944 -0.5672 -0.2570
    3ETHOX   C1 4123  16.101  11.912  13.843  0.0868  0.1154  0.2088
    3ETHOX  H11 4124  16.059  11.961  13.934 -0.2867  2.4251 -1.1266
    3ETHOX  H13 4125  16.130  12.000  13.781  1.5786  0.3600  1.2220
    3ETHOX   C2 4126  16.221  11.822  13.868 -0.7389  0.3536 -0.0754
    3ETHOX  H21 4127  16.317  11.871  13.840 -1.0624  1.0774  0.0573
    3ETHOX  H23 4128  16.224  11.731  13.805  1.9543 -0.1081  0.5890
    4ETHOX   O1 4129  16.233  11.778  14.003 -0.3187  0.1270 -0.3362
    4ETHOX   C1 4130  16.352  11.705  14.021 -0.0737  0.9298 -0.1819
    4ETHOX  H11 4131  16.342  11.624  13.945  2.9408 -1.5558  1.8447
    4ETHOX  H13 4132  16.443  11.768  14.009 -0.2695  0.6286 -5.7801
    4ETHOX   C2 4133  16.352  11.647  14.165  0.0484 -0.2822 -0.1842
    4ETHOX  H21 4134  16.418  11.559  14.164 -0.8890 -0.9975 -0.5769
    4ETHOX  H23 4135  16.256  11.601  14.195 -2.5018  5.1341  1.3299
    5ETHOX   O1 4136  16.380  11.742  14.269 -0.0382 -0.4546  0.3090
    5ETHOX   C1 4137  16.402  11.688  14.393 -0.2362 -0.3169  0.4996
    5ETHOX  H11 4138  16.312  11.705  14.455 -0.2853 -1.1520  0.6675
    5ETHOX  H13 4139  16.422  11.578  14.392 -2.7434 -0.8494  1.3052
    5ETHOX   C2 4140  16.525  11.736  14.475  0.1978 -0.1036 -0.2498
    5ETHOX  H21 4141  16.622  11.717  14.425  0.8852  0.3383  0.8792
    5ETHOX  H23 4142  16.513  11.691  14.576 -1.4658 -1.0210 -0.8071
    6ETHOX   O1 4143  16.510  11.879  14.487  0.7025  0.1589 -0.5880
    6ETHOX   C1 4144  16.608  11.940  14.576  0.2020  0.4987  0.1148
    6ETHOX  H11 4145  16.708  11.910  14.539  0.7688  0.7390  1.4187
    6ETHOX  H13 4146  16.608  12.050  14.564  2.3564  0.9577  3.1214
    6ETHOX   C2 4147  16.598  11.920  14.728 -0.0939 -0.3978 -0.3457
    6ETHOX  H21 4148  16.697  11.935  14.777  0.7019  0.3201 -2.1046
    6ETHOX  H23 4149  16.549  11.826  14.763 -0.7275 -0.5030 -1.4850
    7ETHOX   O1 4150  16.516  12.021  14.783 -0.5196 -0.7121  0.2975
    7ETHOX   C1 4151  16.511  12.012  14.922  1.0938  0.4743 -0.3650
    7ETHOX  H11 4152  16.497  11.906  14.953  0.9380  0.3820 -0.7416
    7ETHOX  H13 4153  16.608  12.037  14.970  0.5854  2.3472 -0.2642
    7ETHOX   C2 4154  16.401  12.099  14.984  0.1009 -0.1906  0.5860
    7ETHOX  H21 4155  16.391  12.077  15.092  1.8741 -0.2257  0.7728
    7ETHOX  H23 4156  16.297  12.083  14.947  0.9541 -2.3235 -1.1044
    8ETHOX   O1 4157  16.441  12.241  14.983 -0.4244  0.0945  0.1942
    8ETHOX   C1 4158  16.349  12.337  15.033  0.6663 -0.0111  0.3132
    8ETHOX  H11 4159  16.314  12.302  15.132 -0.1663 -2.9008 -0.8907
    8ETHOX  H13 4160  16.253  12.335  14.977  0.2335  1.2924  0.9707
    8ETHOX   C2 4161  16.400  12.484  15.031 -0.1862 -1.1892  0.0498
    8ETHOX  H21 4162  16.496  12.496  15.086 -0.1750 -0.1035 -0.1929
    8ETHOX  H23 4163  16.330  12.554  15.080  1.0384 -1.0771  1.7216
    9ETHOX   O1 4164  16.427  12.536  14.903  0.0558 -0.2745  0.1993
    9ETHOX   C1 4165  16.539  12.627  14.894  0.7805 -0.0259  0.0847
    9ETHOX  H11 4166  16.512  12.716  14.954 -2.2595 -0.5965 -0.2742
    9ETHOX  H13 4167  16.630  12.582  14.938  0.5144 -1.6031 -0.8969
    9ETHOX   C2 4168  16.557  12.672  14.754 -0.4566  0.3946 -0.5473
    9ETHOX  H21 4169  16.648  12.735  14.747  1.3680 -1.9511  0.6789
    9ETHOX  H23 4170  16.463  12.710  14.708  0.0897  2.3614 -0.1040
   10ETHOX   O1 4171  16.595  12.560  14.671  0.1746 -0.4889 -0.1706
   10ETHOX   C1 4172  16.622  12.600  14.543  0.2145  0.2189  0.0227
   10ETHOX  H11 4173  16.708  12.670  14.550  0.1967  0.1325  1.3961
   10ETHOX  H13 4174  16.537  12.654  14.497  0.6838 -0.2462 -1.4314
   10ETHOX   C2 4175  16.641  12.480  14.453 -0.0644  0.4342  0.4229
   10ETHOX  H21 4176  16.566  12.408  14.491  0.5467  1.2927  3.5378
   10ETHOX  H23 4177  16.743  12.439  14.469  0.0065 -0.5136 -1.9787
   11ETHOX   O1 4178  16.624  12.509  14.316  0.3433 -0.2330  0.2143
   11ETHOX   C1 4179  16.635  12.385  14.248 -0.0978  0.0257 -0.7491
   11ETHOX  H11 4180  16.739  12.351  14.266 -0.0208 -1.1626 -3.0929
   11ETHOX  H13 4181  16.569  12.308  14.293  0.1740  0.8121  1.1218
   11ETHOX   C2 4182  16.621  12.403  14.099  0.7300 -0.1101  0.0920
   11ETHOX  H21 4183  16.579  12.311  14.052 -0.8035  0.2398  0.7277
   11ETHOX  H23 4184  16.544  12.482  14.090 -0.0446 -0.6985  1.2120
   12ETHOX   O1 4185  16.749  12.435  14.036 -0.1045 -0.4759 -0.3329
   12ETHOX   C1 4186  16.731  12.484  13.909  0.3504  0.1663  0.6799
   12ETHOX  H11 4187  16.633  12.445  13.872  0.9348 -1.2958  0.6123
   12ETHOX  H13 4188  16.817  12.458  13.844 -1.1090 -0.5353 -1.0826
   12ETHOX   C2 4189  16.732  12.642  13.912 -0.4208 -0.8170  0.5169
   12ETHOX  H21 4190  16.695  12.666  14.014 -1.2928  0.5139 -0.0882
   12ETHOX  H23 4191  16.661  12.669  13.831  0.2083 -3.0807 -0.8869
   13ETHOX   O1 4192  16.859  12.705  13.895 -0.3049 -0.5003 -0.8854
   13ETHOX   C1 4193  16.856  12.847  13.907  0.6727 -0.1869  0.2428
   13ETHOX  H11 4194  16.813  12.908  13.825 -2.3286 -0.6400  1.3583
   13ETHOX  H13 4195  16.793  12.873  13.995 -0.1652  0.6534 -0.5775
   13ETHOX   C2 4196  16.998  12.904  13.931  0.5815  0.0254 -0.8168
   13ETHOX  H21 4197  17.022  12.852  14.026  0.9406 -0.3299 -1.0973
   13ETHOX  H23 4198  17.000  13.014  13.946  0.4956 -0.0326 -0.3524
   14ETHOX   O1 4199  17.087  12.865  13.833  0.1120 -0.3501  0.6843
   14ETHOX   C1 4200  17.203  12.942  13.837  0.1034 -0.5563 -0.2212
   14ETHOX  H11 4201  17.248  12.934  13.938 -2.3049  2.4445  1.2428
   14ETHOX  H13 4202  17.179  13.049  13.820  1.0390 -0.3126 -0.0952
   14ETHOX   C2 4203  17.296  12.902  13.719  0.1613  0.1313 -0.6632
   14ETHOX  H21 4204  17.389  12.960  13.740  0.2438 -0.9161  2.2993
   14ETHOX  H23 4205  17.237  12.923  13.627 -1.9838 -2.6327 -0.0714
   15ETHOX   O1 4206  17.321  12.762  13.728 -0.1025 -0.2464 -0.0083
   15ETHOX   C1 4207  17.372  12.708  13.611 -0.1453  0.0516  0.4804
   15ETHOX  H11 4208  17.291  12.702  13.534 -0.5920 -2.7805  1.0619
   15ETHOX  H13 4209  17.446  12.782  13.574 -0.2702 -0.2687 -0.4589
   15ETHOX   C2 4210  17.436  12.569  13.626  0.9012 -0.2661  0.5774
   15ETHOX  H21 4211  17.501  12.552  13.537 -0.2216 -0.8787 -0.1533
   15ETHOX  H23 4212  17.504  12.562  13.713 -0.4240 -1.8896  1.5332
   16ETHOX   O1 4213  17.334  12.469  13.622 -0.3255 -0.1542 -0.4691
   16ETHOX   C1 4214  17.372  12.352  13.544 -0.0223 -0.2224 -0.2638
   16ETHOX  H11 4215  17.367  12.378  13.436 -2.6374  0.6634  0.0002
   16ETHOX  H13 4216  17.468  12.316  13.586  0.6896  3.0865  1.2950
   16ETHOX   C2 4217  17.276  12.232  13.563 -0.2694 -0.8852  0.9386
   16ETHOX  H21 4218  17.257  12.220  13.672  1.6764 -1.8258  1.2107
   16ETHOX  H23 4219  17.326  12.138  13.532 -0.4658 -1.1448  1.4147
   17ETHOX   O1 4220  17.154  12.256  13.488  0.1053  1.0517  0.6297
   17ETHOX   C1 4221  17.061  12.149  13.478 -0.2177 -0.3137 -0.0223
   17ETHOX  H11 4222  17.106  12.062  13.426  0.1929  1.0214 -2.0254
   17ETHOX  H13 4223  17.039  12.118  13.582  1.0651  0.0787  0.3944
   17ETHOX   C2 4224  16.931  12.189  13.411 -0.1859 -0.0744 -0.4055
   17ETHOX  H21 4225  16.860  12.103  13.411 -1.0707  0.6342  0.6688
   17ETHOX  H23 4226  16.952  12.218  13.306  0.3567 -0.8250 -0.5173
   18ETHOX   O1 4227  16.888  12.297  13.484 -0.1061  0.1525  0.0330
   18ETHOX   C1 4228  16.748  12.326  13.450 -0.6325  0.7589 -0.3234
   18ETHOX  H11 4229  16.732  12.338  13.340  0.0343  1.2990 -0.3675
   18ETHOX  H13 4230  16.689  12.238  13.483 -0.9979  0.8154 -0.8076
   18ETHOX   C2 4231  16.696  12.451  13.524 -0.3690  0.7254 -0.4460
   18ETHOX  H21 4232  16.773  12.526  13.497  0.6730 -0.7831 -1.8192
   18ETHOX  H23 4233  16.697  12.420  13.631  0.0750 -1.2604 -0.9857
   19ETHOX   O1 4234  16.559  12.484  13.500 -0.4908  0.2269 -0.0013
   19ETHOX   C1 4235  16.513  12.598  13.573  0.9391  0.3034  0.3140
   19ETHOX  H11 4236  16.583  12.681  13.547 -0.1723  2.1728  2.8770
   19ETHOX  H13 4237  16.507  12.576  13.681 -0.7066 -1.0386 -0.0185
   19ETHOX   C2 4238  16.367  12.642  13.540 -0.6803  0.3263  0.2031
   19ETHOX  H21 4239  16.360  12.648  13.429 -0.8814  0.1515  0.2053
   19ETHOX  H23 4240  16.356  12.746  13.576 -0.8410  0.5018 -0.3332
   20ETHOX   O1 4241  16.269  12.552  13.597  0.2806 -0.3373 -0.2771
   20ETHOX   C1 4242  16.155  12.551  13.508  0.1285 -0.8004  0.5338
   20ETHOX  H11 4243  16.172  12.497  13.413  0.9368  0.8493 -0.2956
   20ETHOX  H13 4244  16.085  12.480  13.558 -1.5752  1.5650  1.6983
   20ETHOX   C2 4245  16.084  12.686  13.476 -0.5152  0.4270 -0.6171
   20ETHOX  H21 4246  16.015  12.662  13.392 -0.3666 -1.3323 -0.2770
   20ETHOX  H23 4247  16.151  12.761  13.430 -1.0374  0.5275 -1.2349
   21ETHOX   O1 4248  16.016  12.745  13.589  0.5396  0.4285 -0.1393
   21ETHOX   C1 4249  15.981  12.879  13.564 -0.1670 -0.2566  0.4989
   21ETHOX  H11 4250  15.914  12.885  13.475  0.7905  1.4195 -0.1458
   21ETHOX  H13 4251  16.069  12.929  13.519  0.5678 -2.3326 -0.5102
   21ETHOX   C2 4252  15.932  12.958  13.686  0.2959  0.6091  0.2346
   21ETHOX  H21 4253  15.852  12.901  13.738  1.0145  0.4869  1.2519
   21ETHOX  H23 4254  15.880  13.050  13.652 -1.1477  0.0544  0.8497
   22ETHOX   O1 4255  16.031  12.984  13.781  0.3375 -0.2586 -0.0225
   22ETHOX   C1 4256  15.984  13.056  13.895 -0.5965 -0.5525 -0.1126
   22ETHOX  H11 4257  15.910  12.999  13.956 -1.5906  0.3604 -0.4254
   22ETHOX  H13 4258  16.061  13.078  13.972 -1.4870  0.8344  0.4307
   22ETHOX   C2 4259  15.917  13.200  13.874 -0.3295 -0.5401 -0.7190
   22ETHOX  H21 4260  15.898  13.246  13.973 -0.5969 -2.3963  0.1153
   22ETHOX  H23 4261  15.981  13.271  13.817 -1.5654  3.3212  2.2808
   23ETHOX   O1 4262  15.792  13.193  13.815 -0.1928 -0.2574 -0.1640
   23ETHOX   C1 4263  15.728  13.325  13.800 -0.4187  0.8739 -0.1065
   23ETHOX  H11 4264  15.626  13.306  13.759 -0.4157 -1.4980  0.8309
   23ETHOX  H13 4265  15.780  13.391  13.728  1.0576 -0.0375  0.0941
   23ETHOX   C2 4266  15.696  13.397  13.931 -0.0920  0.0930 -0.0420
   23ETHOX  H21 4267  15.673  13.320  14.007 -1.8457  1.7468  1.1896
   23ETHOX  H23 4268  15.611  13.468  13.926  0.4122  0.6467 -1.3719
   24ETHOX   O1 4269  15.814  13.476  13.963  0.4988 -0.0977 -0.5837
   24ETHOX   C1 4270  15.800  13.541  14.093 -0.0399  0.0756  0.2507
   24ETHOX  H11 4271  15.715  13.612  14.105 -0.8632 -0.9421  0.6900
   24ETHOX  H13 4272  15.792  13.454  14.162  1.1137 -0.9614 -0.8867
   24ETHOX   C2 4273  15.926  13.613  14.119  0.2746  0.3789 -0.1088
   24ETHOX  H21 4274  15.910  13.664  14.216 -0.8038 -2.5597  1.3684
   24ETHOX  H23 4275  15.952  13.694  14.047 -1.6018  1.7059  0.6097
   25ETHOX   O1 4276  16.043  13.532  14.131 -0.1407  0.5039 -0.4931
   25ETHOX   C1 4277  16.152  13.614  14.185 -0.2039 -0.8816 -0.1914
   25ETHOX  H11 4278  16.128  13.633  14.291  0.2770 -1.5590  0.0480
   25ETHOX  H13 4279  16.157  13.706  14.123  0.0672 -1.5773 -1.2537
   25ETHOX   C2 4280  16.301  13.555  14.186  0.7999  0.2517 -0.5821
   25ETHOX  H21 4281  16.376  13.635  14.202 -0.2399  1.0146  0.6608
   25ETHOX  H23 4282  16.325  13.497  14.094 -0.6492 -1.1842 -0.0981
   26ETHOX   O1 4283  16.309  13.459  14.296  0.8632  0.4759  0.5116
   26ETHOX   C1 4284  16.440  13.409  14.304 -0.0226 -0.8651  0.4871
   26ETHOX  H11 4285  16.447  13.338  14.218 -1.7700 -0.4310 -0.0584
   26ETHOX  H13 4286  16.511  13.491  14.283 -0.4474 -0.6990 -0.3630
   26ETHOX   C2 4287  16.482  13.330  14.428  0.5495  0.6019 -0.7183
   26ETHOX  H21 4288  16.566  13.263  14.398  1.0022  0.1360  1.4421
   26ETHOX  H23 4289  16.392  13.274  14.461  1.5161  0.0667  1.1350
   27ETHOX   O1 4290  16.523  13.422  14.531  0.3999 -0.3548  0.3912
   27ETHOX   C1 4291  16.579  13.357  14.646  0.4216  0.4566  0.1116
   27ETHOX  H11 4292  16.653  13.279  14.617 -0.1200 -0.0713  0.1313
   27ETHOX  H13 4293  16.497  13.306  14.700 -0.5468  1.0799 -0.7462
   27ETHOX   C2 4294  16.626  13.457  14.756 -0.0490 -0.6447 -0.5896
   27ETHOX  H21 4295  16.627  13.391  14.845 -4.0726 -0.5904 -0.3104
   27ETHOX  H23 4296  16.547  13.535  14.761 -1.7489 -2.3075 -0.5834
   28ETHOX   O1 4297  16.754  13.514  14.731  0.2232 -0.1978  0.0775
   28ETHOX   C1 4298  16.795  13.594  14.842 -0.3626  0.6563 -0.4978
   28ETHOX  H11 4299  16.741  13.690  14.841 -3.1884 -0.7814  1.2144
   28ETHOX  H13 4300  16.760  13.555  14.940 -1.7310 -0.2218 -1.2983
   28ETHOX   C2 4301  16.944  13.614  14.825  0.0053  0.1272  0.0959
   28ETHOX  H21 4302  16.996  13.692  14.883  0.5795 -0.4018  0.3088
   28ETHOX  H23 4303  16.959  13.641  14.718  0.9476  0.7154  0.3680
   29ETHOX   O1 4304  17.034  13.501  14.853 -0.1534 -0.6881 -0.4389
   29ETHOX   C1 4305  17.174  13.529  14.821 -0.3290  0.4524 -0.0543
   29ETHOX  H11 4306  17.203  13.619  14.877 -0.9383  0.3731  0.4020
   29ETHOX  H13 4307  17.179  13.555  14.713 -1.2703 -2.8748 -1.0358
   29ETHOX   C2 4308  17.269  13.420  14.848 -0.3231  0.1155  0.7055
   29ETHOX  H21 4309  17.251  13.368  14.944  0.6970 -1.6452  0.0113
   29ETHOX  H23 4310  17.368  13.470  14.855  0.7344 -1.7229 -0.1696
   30ETHOX   O1 4311  17.261  13.323  14.738 -0.0807  0.2929  0.4103
   30ETHOX   C1 4312  17.361  13.220  14.745  0.4225  0.1351  0.0710
   30ETHOX  H11 4313  17.353  13.165  14.649 -0.6172 -0.4935  0.4980
   30ETHOX  H13 4314  17.456  13.276  14.738 -0.3195  1.3081 -1.1544
   30ETHOX   C2 4315  17.361  13.120  14.857  0.3462  0.1547 -0.0109
   30ETHOX  H21 4316  17.345  13.177  14.952 -0.8407 -0.1904  0.0178
   30ETHOX  H23 4317  17.458  13.068  14.851  1.8014  2.5686  1.1514
   31ETHOX   O1 4318  17.264  13.018  14.847 -0.0653 -0.1565 -0.7293
   31ETHOX   C1 4319  17.292  12.916  14.942 -0.1862 -0.4477 -0.0036
   31ETHOX  H11 4320  17.398  12.885  14.926  0.3516  0.5568  1.3945
   31ETHOX  H13 4321  17.286  12.959  15.044 -0.1125 -1.6866  0.5414
   31ETHOX   C2 4322  17.179  12.804  14.941  0.4096  0.3966 -0.5750
   31ETHOX  H21 4323  17.079  12.852  14.937 -0.0983 -0.5898  0.0440
   31ETHOX  H23 4324  17.183  12.745  15.035  0.1964  3.2666  1.3624
   32ETHOX   O1 4325  17.190  12.714  14.835 -0.1619 -0.0528 -0.3330
   32ETHOX   C1 4326  17.312  12.643  14.831 -0.8256 -0.1735  0.0867
   32ETHOX  H11 4327  17.392  12.696  14.776  0.0116 -1.0868  0.3842
   32ETHOX  H13 4328  17.351  12.623  14.933 -0.3463 -3.0189 -0.5685
   32ETHOX   C2 4329  17.278  12.508  14.762  0.0204  0.0581  0.7452
   32ETHOX  H21 4330  17.188  12.480  14.820  0.5690  1.5212  2.4046
   32ETHOX  H23 4331  17.360  12.433  14.770 -0.2032 -0.0639  2.1848
   33ETHOX   O1 4332  17.253  12.540  14.626 -0.8879 -0.4535  0.2202
   33ETHOX   C1 4333  17.193  12.427  14.557 -0.2622  0.2549  0.6694
   33ETHOX  H11 4334  17.271  12.353  14.528 -0.8134 -0.3546  0.6987
   33ETHOX  H13 4335  17.110  12.379  14.615  0.1743  0.3823  1.4042
   33ETHOX   C2 4336  17.138  12.470  14.423 -0.2780 -0.2243  1.4342
   33ETHOX  H21 4337  17.094  12.383  14.369  0.4211 -0.6650  1.5547
   33ETHOX  H23 4338  17.224  12.510  14.365 -0.8348  0.7524  1.2634
   34ETHOX   O1 4339  17.039  12.568  14.425 -0.1920  0.1158 -0.3220
   34ETHOX   C1 4340  16.978  12.584  14.301 -0.3078 -0.7134 -0.2354
   34ETHOX  H11 4341  16.894  12.512  14.295 -0.4718 -0.6345  0.8512
   34ETHOX  H13 4342  17.053  12.574  14.220  0.5975  0.1075  0.4635
   34ETHOX   C2 4343  16.900  12.721  14.286 -0.0286  0.7087  0.2389
   34ETHOX  H21 4344  16.831  12.740  14.371  0.2444 -1.8450  1.1129
   34ETHOX  H23 4345  16.850  12.741  14.189  1.0164  1.8723 -0.0920
   35ETHOX   O1 4346  17.003  12.820  14.297 -0.2576  0.3925  0.3755
   35ETHOX   C1 4347  16.960  12.955  14.300 -1.0696 -0.3952 -0.0159
   35ETHOX  H11 4348  16.889  12.976  14.217 -0.7798  2.6927  0.4014
   35ETHOX  H13 4349  16.905  12.960  14.396 -1.1365 -1.7016  0.0337
   35ETHOX   C2 4350  17.073  13.057  14.307  0.0721 -0.1164  1.3037
   35ETHOX  H21 4351  17.158  13.013  14.363  0.3748 -2.9491 -1.1235
   35ETHOX  H23 4352  17.050  13.152  14.358  1.7979 -0.0764  2.0660
   36ETHOX   O1 4353  17.122  13.091  14.180 -0.4105  0.1686  0.1379
   36ETHOX   C1 4354  17.238  13.180  14.184  0.0892  0.3580 -0.2145
   36ETHOX  H11 4355  17.327  13.113  14.193 -1.8751 -2.5213 -0.7639
   36ETHOX  H13 4356  17.227  13.237  14.279 -2.9369 -1.6049  0.7514
   36ETHOX   C2 4357  17.265  13.289  14.076 -1.0340  0.1243 -0.6663
   36ETHOX  H21 4358  17.299  13.231  13.988  0.0555 -1.0412  0.4810
   36ETHOX  H23 4359  17.352  13.349  14.111 -1.7837  0.8665 -0.0214
   37ETHOX   O1 4360  17.147  13.365  14.054  0.5126 -0.0047  0.0204
   37ETHOX   C1 4361  17.158  13.498  14.000 -0.6527  0.4688  0.1473
   37ETHOX  H11 4362  17.251  13.528  14.052 -0.3467 -1.5590  0.8345
   37ETHOX  H13 4363  17.174  13.498  13.890 -1.4494 -0.6506  0.0135
   37ETHOX   C2 4364  17.029  13.578  14.020 -0.0852  0.2740  0.1043
   37ETHOX  H21 4365  17.057  13.685  14.013  3.3523 -0.6362 -2.0087
   37ETHOX  H23 4366  16.999  13.554  14.125  2.0806 -1.7958  0.3137
   38ETHOX   O1 4367  16.935  13.541  13.919  0.0114  0.4333 -0.0169
   38ETHOX   C1 4368  16.884  13.646  13.840 -0.2013  0.4108 -0.2434
   38ETHOX  H11 4369  16.970  13.708  13.806 -0.1390 -0.3873 -1.6020
   38ETHOX  H13 4370  16.828  13.712  13.910  0.8131  1.5424 -0.4635
   38ETHOX   C2 4371  16.789  13.610  13.726 -0.6723 -0.9064  0.1983
   38ETHOX  H21 4372  16.749  13.706  13.687  1.0743  0.7371  2.2216
   38ETHOX  H23 4373  16.711  13.535  13.752 -0.4942 -1.5077 -0.9161
   39ETHOX   O1 4374  16.879  13.552  13.625 -0.3019 -0.0324  0.4764
   39ETHOX   C1 4375  16.807  13.488  13.521  0.2963  0.7632  0.5238
   39ETHOX  H11 4376  16.738  13.405  13.552  0.5767  0.5232  0.5034
   39ETHOX  H13 4377  16.746  13.569  13.476  0.8510  1.6893  1.4078
   39ETHOX   C2 4378  16.907  13.460  13.403  0.1561 -0.0720  0.3996
   39ETHOX  H21 4379  16.931  13.560  13.362 -1.5815  0.2439  0.1051
   39ETHOX  H23 4380  16.851  13.406  13.323  1.3779 -1.6855  0.5776
   40ETHOX   O1 4381  17.019  13.383  13.441 -0.2856  0.3730 -0.0266
   40ETHOX   C1 4382  17.088  13.324  13.326  0.6345 -0.3374  0.2201
   40ETHOX  H11 4383  17.083  13.397  13.242  1.7549 -0.1115  0.3356
   40ETHOX  H13 4384  17.037  13.227  13.306 -2.4729  0.5671  2.9552
   40ETHOX   C2 4385  17.229  13.297  13.373 -0.0108  0.9012 -0.3816
   40ETHOX  H21 4386  17.300  13.252  13.300 -0.0023  0.3537 -0.0406
   40ETHOX  H23 4387  17.228  13.230  13.462 -0.7225  1.7564  0.2759
   41ETHOX   O1 4388  17.294  13.418  13.400  0.3635  0.2765 -0.3309
   41ETHOX   C1 4389  17.419  13.394  13.460 -0.0950  0.7272 -0.2057
   41ETHOX  H11 4390  17.399  13.338  13.553 -1.0911 -1.5089 -1.6832
   41ETHOX  H13 4391  17.488  13.335  13.396 -0.8192  0.1330 -0.4543
   41ETHOX   C2 4392  17.502  13.526  13.477 -0.0794  0.2782 -0.3530
   41ETHOX  H21 4393  17.581  13.503  13.552  1.4928 -0.2097 -2.0858
   41ETHOX  H23 4394  17.431  13.604  13.515  0.7587  2.9850 -3.8313
   42ETHOX   O1 4395  17.550  13.586  13.359  0.3159 -0.2313  0.1544
   42ETHOX   C1 4396  17.581  13.728  13.379  0.0010 -0.2035 -0.2109
   42ETHOX  H11 4397  17.484  13.775  13.404 -0.4394 -0.6223 -1.0800
   42ETHOX  H13 4398  17.651  13.733  13.465  1.2235 -2.0637 -1.0354
   42ETHOX   C2 4399  17.652  13.795  13.253 -1.3387 -0.5048  0.6702
   42ETHOX  H21 4400  17.724  13.720  13.214  0.3767  1.0486  0.7342
   42ETHOX  H23 4401  17.711  13.881  13.289  0.7720 -0.8194 -1.7569
   43ETHOX   O1 4402  17.564  13.845  13.156  0.8763  0.2196 -0.1851
   43ETHOX   C1 4403  17.620  13.922  13.050  0.3037  0.0863 -0.6657
   43ETHOX  H11 4404  17.662  14.014  13.096 -0.5435 -0.2185  0.7801
   43ETHOX  H13 4405  17.698  13.866  12.995 -1.2273 -1.4014 -1.4101
   43ETHOX   C2 4406  17.495  13.970  12.959  0.2291 -0.0685 -0.2255
   43ETHOX  H21 4407  17.528  14.052  12.891  0.9525 -2.1296 -2.5403
   43ETHOX  H23 4408  17.418  14.005  13.030 -2.3474 -0.4290 -2.6847
   44ETHOX   O1 4409  17.457  13.856  12.883  0.2406  0.1658 -0.3076
   44ETHOX   C1 4410  17.316  13.840  12.883  0.1124 -0.8062 -0.0662
   44ETHOX  H11 4411  17.277  13.737  12.887 -2.8053  0.1918 -0.5073
   44ETHOX  H13 4412  17.266  13.888  12.970 -0.0297 -0.4765 -0.3252
   44ETHOX   C2 4413  17.251  13.901  12.754 -0.0613  0.1369  0.5775
   44ETHOX  H21 4414  17.284  14.007  12.750  3.5003 -0.5268  4.5026
   44ETHOX  H23 4415  17.143  13.903  12.777 -0.4835  2.2691 -1.2482
   45ETHOX   O1 4416  17.276  13.826  12.641 -0.3480 -0.2283 -0.2164
   45ETHOX   C1 4417  17.214  13.889  12.527 -0.7574  0.3264 -0.5032
   45ETHOX  H11 4418  17.269  13.983  12.506  1.3625 -0.3349  1.6044
   45ETHOX  H13 4419  17.108  13.905  12.554 -0.2814 -0.4578  2.1199
   45ETHOX   C2 4420  17.229  13.803  12.404 -0.7771 -0.9357 -0.3247
   45ETHOX  H21 4421  17.334  13.767  12.395 -0.5841 -0.0425 -2.4489
   45ETHOX  H23 4422  17.208  13.870  12.317  0.6585  0.6771  0.5008
   46ETHOX   O1 4423  17.133  13.699  12.400 -0.2047 -0.6710  0.0247
   46ETHOX   C1 4424  17.168  13.591  12.310 -0.1816 -0.2590 -0.8529
   46ETHOX  H11 4425  17.194  13.642  12.215  1.5749 -1.4171 -1.0230
   46ETHOX  H13 4426  17.260  13.543  12.348 -1.4017 -1.2872  0.9773
   46ETHOX   C2 4427  17.064  13.478  12.293  0.3260  0.0720 -0.1837
   46ETHOX  H21 4428  17.073  13.407  12.208 -1.2706  0.9716 -1.1714
   46ETHOX  H23 4429  16.973  13.530  12.257 -0.4871 -0.5287  0.9607
   47ETHOX   O1 4430  17.036  13.411  12.410 -0.2861  0.0039 -0.0202
   47ETHOX   C1 4431  16.960  13.291  12.382  0.1573  0.6311 -0.7765
   47ETHOX  H11 4432  17.012  13.204  12.335  2.3032  0.7351  1.1972
   47ETHOX  H13 4433  16.879  13.314  12.310 -0.9107 -1.7168 -0.4285
   47ETHOX   C2 4434  16.919  13.236  12.521 -0.5942 -0.4697 -0.0861
   47ETHOX  H21 4435  16.837  13.160  12.516  0.7552 -2.0503  0.9110
   47ETHOX  H23 4436  16.865  13.318  12.572 -0.1712 -1.3601  1.8734
   48ETHOX   O1 4437  17.026  13.185  12.601  0.4293  0.2827 -0.7133
   48ETHOX   C1 4438  17.002  13.200  12.740  0.1180  0.1032 -0.6708
   48ETHOX  H11 4439  17.101  13.178  12.785 -0.2062 -0.6972 -0.3339
   48ETHOX  H13 4440  16.983  13.305  12.770  0.8946 -0.1398  0.7446
   48ETHOX   C2 4441  16.897  13.110  12.809  0.3198 -0.2728  0.0866
   48ETHOX  H21 4442  16.801  13.122  12.755  0.8104  1.8062 -0.3993
   48ETHOX  H23 4443  16.941  13.008  12.798  1.5671 -0.0714  2.4576
   49ETHOX   O1 4444  16.874  13.127  12.950  0.0092 -0.6168 -0.1934
   49ETHOX   C1 4445  16.779  13.033  13.009  0.1460 -0.1493  0.2097
   49ETHOX  H11 4446  16.822  12.931  13.007 -0.0855 -0.2413 -0.8135
   49ETHOX  H13 4447  16.691  13.035  12.940  0.8104  1.8142 -0.6562
   49ETHOX   C2 4448  16.751  13.084  13.144 -0.1342 -0.0945 -0.1819
   49ETHOX  H21 4449  16.849  13.104  13.192  0.3401 -2.5711 -0.0002
   49ETHOX  H23 4450  16.696  13.009  13.204  1.0059 -1.8564 -1.2275
   50ETHOX   O1 4451  16.669  13.204  13.143 -0.5880 -0.0581  0.8118
   50ETHOX   C1 4452  16.609  13.248  13.260  0.0053  0.3488 -0.4668
   50ETHOX  H11 4453  16.547  13.166  13.300 -0.9377  1.0377 -0.4784
   50ETHOX  H13 4454  16.688  13.261  13.337 -0.0846 -1.7513  0.0413
   50ETHOX   C2 4455  16.529  13.379  13.233 -0.8012 -0.6289 -0.0108
   50ETHOX  H21 4456  16.476  13.405  13.327  1.8154 -0.4380  1.5092
   50ETHOX  H23 4457  16.450  13.378  13.155 -1.6851 -0.2217  0.8563
   51ETHOX   O1 4458  16.615  13.488  13.208 -0.0903 -0.0584 -0.2745
   51ETHOX   C1 4459  16.558  13.617  13.236 -0.3192 -0.1132  0.3561
   51ETHOX  H11 4460  16.553  13.633  13.346  0.7254  2.2921  0.1219
   51ETHOX  H13 4461  16.457  13.614  13.189 -0.6197 -1.6999  1.0341
   51ETHOX   C2 4462  16.648  13.727  13.174  0.0327 -0.4525  0.0911
   51ETHOX  H21 4463  16.747  13.718  13.224  0.3700 -1.0101 -0.6681
   51ETHOX  H23 4464  16.604  13.825  13.202  0.4148 -0.1457 -0.3737
   52ETHOX   O1 4465  16.663  13.721  13.032 -0.3766  0.3566 -0.4910
   52ETHOX   C1 4466  16.804  13.734  12.998  0.1384  0.3227  0.1818
   52ETHOX  H11 4467  16.840  13.836  13.019 -1.7181  0.8006  1.3518
   52ETHOX  H13 4468  16.868  13.680  13.071 -0.6222  0.4510  0.9612
   52ETHOX   C2 4469  16.844  13.688  12.856 -0.3450  0.4993 -0.5558
   52ETHOX  H21 4470  16.806  13.586  12.833 -0.0787  0.0990  0.7281
   52ETHOX  H23 4471  16.954  13.685  12.870 -0.5119  0.3897  0.8806
   53ETHOX   O1 4472  16.803  13.773  12.752  0.3210  0.2981  0.2646
   53ETHOX   C1 4473  16.818  13.703  12.630  0.1042  0.6553 -0.3443
   53ETHOX  H11 4474  16.924  13.685  12.602 -0.2099 -1.9716 -0.1085
   53ETHOX  H13 4475  16.771  13.604  12.644 -2.1623  1.6419 -0.5379
   53ETHOX   C2 4476  16.761  13.768  12.503 -0.6120 -0.0097 -0.5495
   53ETHOX  H21 4477  16.845  13.817  12.448 -1.5240 -0.1177 -2.1009
   53ETHOX  H23 4478  16.689  13.850  12.526 -1.4095 -0.7581 -0.3482
   54ETHOX   O1 4479  16.703  13.678  12.410  0.5876  0.0079  0.0350
   54ETHOX   C1 4480  16.681  13.740  12.281  0.1456  0.3237  0.6151
   54ETHOX  H11 4481  16.775  13.775  12.232 -0.3992 -1.2800 -1.7529
   54ETHOX  H13 4482  16.648  13.662  12.210 -0.3234  1.4779 -0.4633
   54ETHOX   C2 4483  16.577  13.849  12.268  0.3799  0.2560  0.8792
   54ETHOX  H21 4484  16.480  13.805  12.300  0.5144 -0.3203  0.5162
   54ETHOX  H23 4485  16.574  13.881  12.162 -1.1803 -1.5875  0.3058
   55ETHOX   O1 4486  16.602  13.969  12.342 -0.0924 -0.0781 -0.2789
   55ETHOX   C1 4487  16.480  14.018  12.400 -0.3627  0.4714 -0.0324
   55ETHOX  H11 4488  16.422  14.048  12.310  0.8686 -2.2729 -1.8717
   55ETHOX  H13 4489  16.425  13.937  12.451  1.2501 -1.4349 -1.1808
   55ETHOX   C2 4490  16.495  14.145  12.489 -0.3267 -0.8127 -0.3695
   55ETHOX  H21 4491  16.404  14.179  12.543 -0.3555  0.5678 -1.2450
   55ETHOX  H23 4492  16.570  14.131  12.570 -0.1030 -1.0073 -0.6097
   56ETHOX   O1 4493  16.523  14.253  12.400 -0.2514  0.3569  0.1126
   56ETHOX   C1 4494  16.589  14.359  12.467 -0.2665  0.3685  0.4478
   56ETHOX  H11 4495  16.660  14.328  12.546  0.2580  1.6718  0.5085
   56ETHOX  H13 4496  16.509  14.416  12.517 -0.9572 -1.5305  1.6285
   56ETHOX   C2 4497  16.651  14.457  12.368 -0.0646 -0.2411 -0.5678
   56ETHOX  H21 4498  16.671  14.551  12.422 -1.5358 -0.9080  1.2278
   56ETHOX  H23 4499  16.574  14.478  12.290  1.2534  1.4197 -1.4795
   57ETHOX   O1 4500  16.769  14.414  12.306 -0.2682  0.0764  1.0343
   57ETHOX   C1 4501  16.793  14.478  12.180  0.0412 -0.2255  0.1716
   57ETHOX  H11 4502  16.739  14.573  12.165 -0.9296 -0.7276  0.4195
   57ETHOX  H13 4503  16.900  14.503  12.165 -0.3711  3.2281  2.1438
   57ETHOX   C2 4504  16.730  14.392  12.063 -0.5318 -0.4415 -0.0779
   57ETHOX  H21 4505  16.718  14.460  11.977 -0.0270 -1.7347 -1.2091
   57ETHOX  H23 4506  16.624  14.365  12.087 -0.6224 -0.0443 -0.0187
   58ETHOX   O1 4507  16.811  14.283  12.022 -0.4104  0.4074 -0.0518
   58ETHOX   C1 4508  16.737  14.205  11.929  0.5150  0.2468  0.1412
   58ETHOX  H11 4509  16.753  14.251  11.829 -0.1946  0.2622  0.0320
   58ETHOX  H13 4510  16.629  14.200  11.955  0.3827  0.3078 -0.3739
   58ETHOX   C2 4511  16.766  14.059  11.919 -0.6250 -0.6080 -0.5560
   58ETHOX  H21 4512  16.689  13.996  11.869 -1.4876  0.8729 -1.1411
   58ETHOX  H23 4513  16.777  14.013  12.020  0.9176  0.4694 -0.1956
   59ETHOX   O1 4514  16.890  14.042  11.850 -0.1100  0.3555 -0.2646
   59ETHOX   C1 4515  16.875  14.021  11.712 -0.6464  0.3136 -0.3189
   59ETHOX  H11 4516  16.817  13.929  11.691 -0.3009  0.2312 -0.9377
   59ETHOX  H13 4517  16.818  14.109  11.677 -0.5019  0.4804 -0.1366
   59ETHOX   C2 4518  17.017  14.014  11.646 -0.0290  0.3472 -0.6831
   59ETHOX  H21 4519  17.071  14.105  11.680 -0.5372  0.3472  0.1570
   59ETHOX  H23 4520  17.012  14.015  11.535  2.0351  0.1850 -0.8205
   60ETHOX   O1 4521  17.095  13.904  11.684  0.1870  0.4270 -0.4172
   60ETHOX   C1 4522  17.092  13.798  11.592 -0.3259  1.1019 -0.5930
   60ETHOX  H11 4523  17.121  13.844  11.495 -2.1267  2.2440 -0.6453
   60ETHOX  H13 4524  16.987  13.761  11.594  0.2387 -0.5259  0.9420
   60ETHOX   C2 4525  17.189  13.687  11.646  0.1421 -0.5768 -0.2043
   60ETHOX  H21 4526  17.216  13.619  11.563  1.3422 -0.4170  0.0400
   60ETHOX  H23 4527  17.147  13.629  11.731 -1.8172  0.3858 -0.4429
   61ETHOX   O1 4528  17.315  13.745  11.680 -0.5613 -0.8615  0.0047
   61ETHOX   C1 4529  17.407  13.635  11.705 -0.5244  1.0559  0.6782
   61ETHOX  H11 4530  17.355  13.568  11.776  0.1217  0.1061  0.2675
   61ETHOX  H13 4531  17.433  13.573  11.617  0.4623  3.5210 -0.8703
   61ETHOX   C2 4532  17.540  13.678  11.779 -0.1728 -1.0287 -0.1417
   61ETHOX  H21 4533  17.583  13.590  11.831  0.6820 -1.2729 -1.2203
   61ETHOX  H23 4534  17.516  13.763  11.846  1.7481  2.3118 -3.3376
   62ETHOX   O1 4535  17.634  13.730  11.680  0.6285 -0.4107  0.0932
   62ETHOX   C1 4536  17.598  13.867  11.653 -0.2188  0.3757  0.3125
   62ETHOX  H11 4537  17.599  13.919  11.752  1.5298 -0.2214  0.6533
   62ETHOX  H13 4538  17.497  13.870  11.607 -0.2995 -2.4574  0.1534
   62ETHOX   C2 4539  17.710  13.932  11.570 -0.5489 -0.7194  0.4333
   62ETHOX  H21 4540  17.796  13.955  11.637 -1.5226 -1.2241  1.9135
   62ETHOX  H23 4541  17.672  14.029  11.533  1.0757  0.0199  0.6089
   63ETHOX   O1 4542  17.754  13.843  11.471  0.0818  0.0276 -0.0320
   63ETHOX   C1 4543  17.829  13.902  11.371  0.1007 -0.0056  0.1403
   63ETHOX  H11 4544  17.767  13.966  11.305  0.3753  1.4850  1.2510
   63ETHOX  H13 4545  17.907  13.963  11.423  0.2513 -0.5162  0.5226
   63ETHOX   C2 4546  17.907  13.801  11.290 -0.4016 -0.1049 -0.2579
   63ETHOX  H21 4547  17.967  13.725  11.345 -0.3326 -0.0185 -0.2161
   63ETHOX  H23 4548  17.975  13.856  11.222 -2.8688  0.6936 -2.2705
   64ETHOX   O1 4549  17.807  13.742  11.215  0.1557 -0.1994  0.4232
   64ETHOX   C1 4550  17.855  13.631  11.140 -0.2709 -0.4293  0.0601
   64ETHOX  H11 4551  17.890  13.556  11.214  0.0785  0.3624  0.7034
   64ETHOX  H13 4552  17.935  13.672  11.074 -0.4851 -1.5678 -0.9339
   64ETHOX   C2 4553  17.747  13.582  11.050 -0.0322 -0.4230  0.0831
   64ETHOX  H21 4554  17.777  13.507  10.973 -3.0477 -1.2840 -0.3655
   64ETHOX  H23 4555  17.706  13.662  10.984 -1.0695 -2.4419 -1.8336
   65ETHOX   O1 4556  17.642  13.526  11.122 -0.0682 -0.1214  0.3088
   65ETHOX   C1 4557  17.539  13.481  11.040 -0.1178 -0.5536 -0.1935
   65ETHOX  H11 4558  17.515  13.566  10.972  2.4909  1.4042  1.1059
   65ETHOX  H13 4559  17.564  13.394  10.976 -2.8976  0.4717 -2.8964
   65ETHOX   C2 4560  17.413  13.457  11.126 -0.0800 -0.6240 -1.2533
   65ETHOX  H21 4561  17.327  13.465  11.057 -1.6257  1.0013  0.7417
   65ETHOX  H23 4562  17.398  13.535  11.203  1.3298 -2.1382  0.6511
   66ETHOX   O1 4563  17.420  13.324  11.181 -0.8312  0.0320 -0.1359
   66ETHOX   C1 4564  17.290  13.266  11.193 -0.3903  0.2967 -0.7878
   66ETHOX  H11 4565  17.216  13.348  11.204 -0.2950  0.6200 -2.2874
   66ETHOX  H13 4566  17.286  13.195  11.278  1.6976 -0.2439 -1.0836
   66ETHOX   C2 4567  17.253  13.184  11.071 -0.0163  0.5788  0.8579
   66ETHOX  H21 4568  17.166  13.119  11.090 -0.6324  0.5238 -1.7272
   66ETHOX  H23 4569  17.335  13.113  11.047 -1.6606 -1.1328  0.1205
   67ETHOX   O1 4570  17.236  13.257  10.951  0.1805 -0.5887 -0.3572
   67ETHOX   C1 4571  17.100  13.292  10.930 -0.1816 -0.4837  0.7980
   67ETHOX  H11 4572  17.038  13.203  10.908  0.8918 -1.3026  1.0043
   67ETHOX  H13 4573  17.053  13.357  11.008 -0.4307 -0.2132  0.4261
   67ETHOX   C2 4574  17.080  13.378  10.799  0.5072  0.2249  0.0517
   67ETHOX  H21 4575  16.972  13.394  10.782  0.0983 -1.7258  0.6230
   67ETHOX  H23 4576  17.144  13.334  10.720  1.9390  0.6042  0.9339
   68ETHOX   O1 4577  17.125  13.513  10.825 -0.5239  0.0240 -0.2284
   68ETHOX   C1 4578  17.099  13.605  10.717 -0.2849 -0.2545 -0.6088
   68ETHOX  H11 4579  17.011  13.568  10.659 -0.6856 -1.1547  0.5360
   68ETHOX  H13 4580  17.063  13.696  10.769 -1.5210 -1.3764  0.5945
   68ETHOX   C2 4581  17.217  13.654  10.634 -0.6638 -0.0195  0.2529
   68ETHOX  H21 4582  17.285  13.712  10.699  3.1507 -2.3313 -1.3128
   68ETHOX  H23 4583  17.173  13.725  10.561 -3.5022 -0.8200  1.0580
   69ETHOX   O1 4584  17.282  13.541  10.566 -0.2679 -0.2695 -0.0247
   69ETHOX   C1 4585  17.380  13.570  10.469  0.2558 -0.1494 -0.6348
   69ETHOX  H11 4586  17.328  13.626  10.388  0.0750  0.8016  0.1223
   69ETHOX  H13 4587  17.457  13.640  10.508  1.3908 -1.4963 -0.3832
   69ETHOX   C2 4588  17.448  13.457  10.386  0.1421  0.1090 -0.6675
   69ETHOX  H21 4589  17.475  13.375  10.457  1.0813  0.7648 -0.2492
   69ETHOX  H23 4590  17.546  13.497  10.350  0.8938 -0.3546  0.7599
   70ETHOX   O1 4591  17.360  13.418  10.284 -0.2522 -0.2318 -0.0252
   70ETHOX   C1 4592  17.433  13.352  10.188  1.2327 -0.1588  0.4984
   70ETHOX  H11 4593  17.524  13.405  10.150  1.9556 -1.6367  0.0936
   70ETHOX  H13 4594  17.470  13.266  10.248 -0.3298 -0.0967  1.5915
   70ETHOX   C2 4595  17.335  13.307  10.083 -0.2393  0.3327 -0.1809
   70ETHOX  H21 4596  17.255  13.248  10.132  0.2821  0.7365  1.1780
   70ETHOX  H23 4597  17.384  13.236  10.012  0.9372  0.3421  0.5940
   71ETHOX   O1 4598  17.284  13.406   9.995  0.2729 -0.3344 -0.0445
   71ETHOX   C1 4599  17.162  13.372   9.924 -0.0704 -0.2251  0.0042
   71ETHOX  H11 4600  17.091  13.336  10.002 -0.0695 -1.3390 -0.4914
   71ETHOX  H13 4601  17.173  13.296   9.844 -1.4307 -0.4044 -0.0424
   71ETHOX   C2 4602  17.093  13.497   9.865  0.7387 -0.5083 -0.7163
   71ETHOX  H21 4603  17.150  13.591   9.878 -0.1291  0.1069 -1.2339
   71ETHOX  H23 4604  16.993  13.516   9.909 -0.5186 -0.6564 -3.3149
   72ETHOX   O1 4605  17.064  13.476   9.721 -0.3386 -0.4033 -0.2913
   72ETHOX   C1 4606  17.002  13.595   9.677 -0.0001 -0.3121  0.3660
   72ETHOX  H11 4607  16.910  13.604   9.739  0.0903  1.3191  0.3104
   72ETHOX  H13 4608  17.068  13.685   9.675  1.1518 -1.1069  1.3398
   72ETHOX   C2 4609  16.947  13.571   9.527  0.0660  0.3485 -0.3046
   72ETHOX  H21 4610  17.035  13.579   9.460 -0.1430 -0.6330 -0.7222
   72ETHOX  H23 4611  16.866  13.644   9.507 -2.2980 -2.0033  0.0551
   73ETHOX   O1 4612  16.875  13.448   9.515 -0.2339 -0.0643 -0.1900
   73ETHOX   C1 4613  16.828  13.443   9.384  0.1926  0.1473 -0.0553
   73ETHOX  H11 4614  16.909  13.467   9.311  1.3490 -2.2642  0.3416
   73ETHOX  H13 4615  16.737  13.506   9.374 -0.0542  0.7117  4.1527
   73ETHOX   C2 4616  16.787  13.301   9.350  0.0536  0.4524 -0.1602
   73ETHOX  H21 4617  16.861  13.221   9.374  1.8191  2.2835  0.7906
   73ETHOX  H23 4618  16.763  13.293   9.242 -0.4437 -0.2577 -0.0055
   74ETHOX   O1 4619  16.673  13.267   9.432 -0.1700  0.5243 -0.1537
   74ETHOX   C1 4620  16.612  13.146   9.381 -0.3831 -0.0834 -0.3624
   74ETHOX  H11 4621  16.602  13.151   9.271  5.2330  0.2533 -1.1338
   74ETHOX  H13 4622  16.682  13.061   9.397 -2.0005 -1.5158 -0.6008
   74ETHOX   C2 4623  16.480  13.112   9.447 -0.9326  0.2603 -0.4115
   74ETHOX  H21 4624  16.492  13.123   9.557  0.8311 -1.3862 -0.3904
   74ETHOX  H23 4625  16.461  13.004   9.434  0.7303 -0.1278  0.1379
   75ETHOX   O1 4626  16.372  13.188   9.393 -0.8039 -0.5772 -0.1384
   75ETHOX   C1 4627  16.253  13.165   9.461 -0.5782  0.0457 -0.4896
   75ETHOX  H11 4628  16.277  13.195   9.565 -3.9941  0.0332  0.4165
   75ETHOX  H13 4629  16.234  13.056   9.473  1.0867 -0.1635  0.6860
   75ETHOX   C2 4630  16.138  13.245   9.405  0.2439 -0.1160 -0.1735
   75ETHOX  H21 4631  16.158  13.352   9.383  1.1763 -0.8740 -3.5757
   75ETHOX  H23 4632  16.072  13.253   9.494  0.4912  2.5388 -0.1579
   76ETHOX   O1 4633  16.074  13.191   9.297  0.1355 -0.6135 -0.0825
   76ETHOX   C1 4634  16.149  13.181   9.181 -0.3706 -0.1929 -0.3628
   76ETHOX  H11 4635  16.164  13.286   9.148 -2.2740 -0.8512 -3.8014
   76ETHOX  H13 4636  16.246  13.129   9.191 -0.0984 -0.0321 -1.9271
   76ETHOX   C2 4637  16.075  13.106   9.065 -0.3575 -0.1503 -0.2518
   76ETHOX  H21 4638  16.145  13.107   8.979 -1.6554  2.2287 -1.3815
   76ETHOX  H23 4639  15.979  13.155   9.035 -0.7760 -1.4093 -1.0517
   77ETHOX   O1 4640  16.047  12.971   9.115  0.7838 -0.7448  0.4116
   77ETHOX   C1 4641  16.033  12.877   9.001  0.1043 -0.2111  0.0052
   77ETHOX  H11 4642  16.132  12.877   8.951  0.7378 -1.2997  1.2093
   77ETHOX  H13 4643  15.965  12.927   8.928  2.5435  1.5591 -1.2139
   77ETHOX   C2 4644  15.997  12.730   9.047 -0.3098  0.3253  1.0348
   77ETHOX  H21 4645  15.958  12.666   8.965 -2.2659  1.1122  1.2966
   77ETHOX  H23 4646  15.923  12.741   9.129 -1.4434 -0.4540  0.1503
   78ETHOX   O1 4647  16.110  12.661   9.096  0.1890  0.1944  0.9645
   78ETHOX   C1 4648  16.067  12.533   9.145  0.2422  1.0341 -0.6481
   78ETHOX  H11 4649  15.980  12.501   9.085 -2.1044  3.0390  1.4141
   78ETHOX  H13 4650  16.149  12.458   9.149  0.4505  1.3082  1.2701
   78ETHOX   C2 4651  16.015  12.553   9.287 -0.2241  1.1605 -0.4112
   78ETHOX  H21 4652  16.009  12.449   9.326 -1.4566  0.9463 -1.1187
   78ETHOX  H23 4653  15.910  12.588   9.296 -1.7381 -2.8992 -0.2171
   79ETHOX   O1 4654  16.102  12.623   9.371 -0.3221 -0.6087 -0.3121
   79ETHOX   C1 4655  16.058  12.610   9.509  0.4454  1.0585 -0.2325
   79ETHOX  H11 4656  16.056  12.503   9.540 -1.1745  0.7634 -1.1884
   79ETHOX  H13 4657  16.130  12.665   9.572  0.1492  1.7966 -0.5260
   79ETHOX   C2 4658  15.916  12.671   9.544  0.0823  0.0783 -0.0010
   79ETHOX  H21 4659  15.900  12.769   9.495  1.2474  0.1528 -0.2613
   79ETHOX  H23 4660  15.918  12.685   9.654  0.8141 -0.0643  0.0151
   80ETHOX   O1 4661  15.807  12.575   9.527 -0.1982  0.0791 -0.2313
   80ETHOX   C1 4662  15.684  12.653   9.511  0.2579  1.1737  0.0255
   80ETHOX  H11 4663  15.702  12.739   9.579  0.4552  1.0570  0.1232
   80ETHOX  H13 4664  15.670  12.682   9.405 -1.4984 -0.7314 -0.3082
   80ETHOX   C2 4665  15.563  12.571   9.557 -0.2011 -0.1735  0.5943
   80ETHOX  H21 4666  15.474  12.638   9.553 -0.9429 -1.1543 -2.9813
   80ETHOX  H23 4667  15.594  12.523   9.653  2.1456  0.2148  0.0827
   81ETHOX   O1 4668  15.527  12.456   9.481  0.3077 -0.3713  0.3485
   81ETHOX   C1 4669  15.427  12.375   9.542  0.2255  0.0671 -0.0271
   81ETHOX  H11 4670  15.472  12.327   9.632  0.3681  0.5942  0.1858
   81ETHOX  H13 4671  15.338  12.437   9.563  0.2477  0.9320 -2.2076
   81ETHOX   C2 4672  15.376  12.270   9.438 -0.2034  0.0058 -0.3353
   81ETHOX  H21 4673  15.275  12.235   9.469 -0.3299  0.4364 -0.2552
   81ETHOX  H23 4674  15.377  12.323   9.340  0.8010  0.9470  0.1554
   82ETHOX   O1 4675  15.477  12.170   9.437  0.2104  0.3153 -0.0421
   82ETHOX   C1 4676  15.441  12.048   9.373  0.6577  0.4715  0.3793
   82ETHOX  H11 4677  15.344  12.017   9.417  1.5846 -2.6264  0.5050
   82ETHOX  H13 4678  15.512  11.967   9.399 -0.1050  0.3951  2.3630
   82ETHOX   C2 4679  15.427  12.043   9.219 -0.5126 -0.1453  0.0113
   82ETHOX  H21 4680  15.401  11.943   9.178 -2.7369  0.4598 -0.1675
   82ETHOX  H23 4681  15.525  12.081   9.181 -0.2866 -2.4827 -2.0209
   83ETHOX   O1 4682  15.326  12.125   9.160 -0.0852 -0.3130 -0.6630
   83ETHOX   C1 4683  15.193  12.074   9.181 -0.4714  0.0174 -0.2030
   83ETHOX  H11 4684  15.190  11.974   9.131  1.4917  0.7351 -1.8810
   83ETHOX  H13 4685  15.170  12.066   9.289  0.1124  0.0466 -0.0764
   83ETHOX   C2 4686  15.089  12.171   9.124  0.0867  0.8315 -0.5607
   83ETHOX  H21 4687  15.116  12.271   9.166  0.9767 -0.0610  1.0695
   83ETHOX  H23 4688  14.990  12.138   9.161  1.1945 -1.7226  0.3267
   84ETHOX   O1 4689  15.101  12.176   8.986  0.1449 -0.0749  0.0187
   84ETHOX   C1 4690  14.979  12.229   8.930 -0.2897 -0.1209 -0.5119
   84ETHOX  H11 4691  14.948  12.311   8.997 -0.2213 -0.2747 -0.2889
   84ETHOX  H13 4692  14.910  12.142   8.931  0.2956 -0.5904  0.6032
   84ETHOX   C2 4693  15.001  12.293   8.793 -0.1285  0.2786 -0.1976
   84ETHOX  H21 4694  15.073  12.378   8.806  1.3355 -0.7682 -1.1680
   84ETHOX  H23 4695  14.908  12.344   8.761  0.8493  0.9206 -2.1722
   85ETHOX   O1 4696  15.040  12.194   8.701 -0.4808 -0.1517  0.1832
   85ETHOX   C1 4697  15.067  12.242   8.568 -0.3852 -0.4949  0.2027
   85ETHOX  H11 4698  14.981  12.304   8.534  0.2365 -0.9511 -2.3490
   85ETHOX  H13 4699  15.155  12.309   8.579  0.1616 -0.9748 -1.0615
   85ETHOX   C2 4700  15.101  12.128   8.469 -0.4901 -0.0427 -0.3695
   85ETHOX  H21 4701  15.096  12.175   8.369  1.9347  0.6910 -0.2138
   85ETHOX  H23 4702  15.025  12.047   8.477 -0.3539 -0.0075  2.2102
   86ETHOX   O1 4703  15.234  12.081   8.497 -0.6415 -0.4823 -0.4492
   86ETHOX   C1 4704  15.259  11.980   8.389  0.0344 -0.2412 -0.1175
   86ETHOX  H11 4705  15.239  12.036   8.295  3.0669 -0.5536 -1.0583
   86ETHOX  H13 4706  15.185  11.897   8.383 -0.1108 -0.3282  2.1231
   86ETHOX   C2 4707  15.391  11.910   8.400 -0.5550 -0.6804  0.2966
   86ETHOX  H21 4708  15.403  11.845   8.311  0.2855  1.7791 -1.4920
   86ETHOX  H23 4709  15.407  11.857   8.496 -3.4998 -2.1551  0.1000
   87ETHOX   O1 4710  15.488  12.009   8.383 -0.1903 -0.0521  0.2684
   87ETHOX   C1 4711  15.618  11.957   8.375 -0.2129 -0.7885 -0.4543
   87ETHOX  H11 4712  15.628  11.870   8.443 -0.6610 -1.5136 -1.2966
   87ETHOX  H13 4713  15.637  11.913   8.275  0.3100 -1.4965 -0.0494
   87ETHOX   C2 4714  15.711  12.069   8.410  0.2795 -0.6833  0.1303
   87ETHOX  H21 4715  15.733  12.120   8.313  2.5132 -1.1512  0.3221
   87ETHOX  H23 4716  15.814  12.031   8.430  0.9373  0.7103 -0.4096
   88ETHOX   O1 4717  15.677  12.158   8.509 -0.3055 -0.0309 -0.3691
   88ETHOX   C1 4718  15.681  12.104   8.644 -0.3308 -0.3206  0.7968
   88ETHOX  H11 4719  15.781  12.058   8.664  0.1392  1.0891  1.9139
   88ETHOX  H13 4720  15.598  12.032   8.653 -0.2192 -0.2703  2.7393
   88ETHOX   C2 4721  15.657  12.199   8.760 -0.4601 -0.0237  0.2256
   88ETHOX  H21 4722  15.620  12.161   8.858 -0.7423  0.8030  0.4538
   88ETHOX  H23 4723  15.579  12.272   8.729  1.8353  2.5997  0.1997
   89ETHOX   O1 4724  15.775  12.273   8.794 -0.8666 -0.4471  0.2881
   89ETHOX   C1 4725  15.753  12.357   8.915  0.3412  0.0229  0.3040
   89ETHOX  H11 4726  15.683  12.297   8.977 -1.5869  0.7995 -1.0082
   89ETHOX  H13 4727  15.850  12.381   8.963 -1.3772  0.0685  4.1316
   89ETHOX   C2 4728  15.694  12.496   8.877  0.3530  0.5595 -0.4105
   89ETHOX  H21 4729  15.670  12.557   8.967  0.8548  1.6451 -0.9976
   89ETHOX  H23 4730  15.605  12.488   8.811  2.3446  3.1603 -3.7063
   90ETHOX   O1 4731  15.793  12.579   8.817  0.0517  0.2597  0.5332
   90ETHOX   C1 4732  15.745  12.694   8.757 -0.2871 -0.1103 -0.1147
   90ETHOX  H11 4733  15.649  12.674   8.704  0.1473 -3.5227  0.1939
   90ETHOX  H13 4734  15.723  12.771   8.834  2.5107 -0.4759  1.1462
   90ETHOX   C2 4735  15.864  12.758   8.678 -0.0324  0.8725  0.6916
   90ETHOX  H21 4736  15.954  12.747   8.744  1.3885 -1.9348 -1.4913
   90ETHOX  H23 4737  15.826  12.860   8.654  2.0014  1.2903 -1.0429
   91ETHOX   O1 4738  15.895  12.693   8.558  0.0298 -0.6448  0.7885
   91ETHOX   C1 4739  15.991  12.767   8.483 -0.7085 -0.9511 -0.5937
   91ETHOX  H11 4740  16.061  12.820   8.551 -0.6247 -0.7372 -0.8423
   91ETHOX  H13 4741  16.049  12.710   8.407 -1.5374 -2.3963 -0.1834
   91ETHOX   C2 4742  15.911  12.874   8.403 -1.0554  0.3905  0.7084
   91ETHOX  H21 4743  15.826  12.811   8.367 -1.5185  0.2594  1.9941
   91ETHOX  H23 4744  15.966  12.884   8.307 -1.0191 -2.4921  0.3264
   92ETHOX   O1 4745  15.886  12.997   8.468 -0.6612 -0.1155  0.3365
   92ETHOX   C1 4746  15.765  13.050   8.412 -0.1571 -0.1191 -0.1952
   92ETHOX  H11 4747  15.765  13.157   8.441  1.7280 -0.0146 -0.4857
   92ETHOX  H13 4748  15.763  13.047   8.301 -0.5035  1.4297 -0.2592
   92ETHOX   C2 4749  15.634  12.993   8.476 -0.2009 -0.2973  1.0404
   92ETHOX  H21 4750  15.648  12.884   8.461 -0.3940 -0.1511 -0.3605
   92ETHOX  H23 4751  15.537  13.028   8.433  0.2846  2.9742  2.2770
   93ETHOX   O1 4752  15.628  13.027   8.616 -0.1398  0.2184  0.2326
   93ETHOX   C1 4753  15.524  12.960   8.680 -0.0929 -0.1847 -0.8018
   93ETHOX  H11 4754  15.540  12.851   8.686  1.9878  0.1248  0.2996
   93ETHOX  H13 4755  15.430  12.977   8.624 -0.4454 -1.4486 -0.6167
   93ETHOX   C2 4756  15.510  13.018   8.825 -0.2553  0.3693 -0.6623
   93ETHOX  H21 4757  15.427  12.968   8.879  0.7873  1.4138  2.0540
   93ETHOX  H23 4758  15.490  13.127   8.819  0.1911  0.6419  1.8307
   94ETHOX   O1 4759  15.633  12.993   8.902  0.1632 -0.4166  0.5391
   94ETHOX   C1 4760  15.616  13.001   9.037 -0.6408  0.0577  0.6870
   94ETHOX  H11 4761  15.712  13.043   9.073  0.0025 -0.7767 -0.0220
   94ETHOX  H13 4762  15.533  13.071   9.060 -2.7210 -1.4242 -1.8081
   94ETHOX   C2 4763  15.593  12.864   9.099  0.5609 -0.3614 -0.3114
   94ETHOX  H21 4764  15.595  12.870   9.210 -1.1532  0.2851 -0.2851
   94ETHOX  H23 4765  15.677  12.796   9.074  0.7013  0.0338 -0.9330
   95ETHOX   O1 4766  15.460  12.837   9.053  0.1699 -0.2678  0.4712
   95ETHOX   C1 4767  15.412  12.719   9.115 -0.0426  0.2360 -0.1103
   95ETHOX  H11 4768  15.386  12.731   9.223  0.4436  1.0034 -0.0676
   95ETHOX  H13 4769  15.485  12.635   9.110  0.1637  0.3978  0.1138
   95ETHOX   C2 4770  15.292  12.673   9.031  0.4808  0.1423  0.1626
   95ETHOX  H21 4771  15.224  12.761   9.022  0.7591  0.2215 -1.4070
   95ETHOX  H23 4772  15.234  12.596   9.086  0.3646 -0.2230 -0.4726
   96ETHOX   O1 4773  15.320  12.616   8.902 -0.3738 -0.7787 -0.3299
   96ETHOX   C1 4774  15.206  12.611   8.825  0.2123 -0.3475 -0.2797
   96ETHOX  H11 4775  15.233  12.535   8.748  1.8454  0.3204 -0.4091
   96ETHOX  H13 4776  15.124  12.577   8.891 -0.3515 -2.0546 -1.7674
   96ETHOX   C2 4777  15.177  12.740   8.750  0.0125 -1.1206  0.5090
   96ETHOX  H21 4778  15.109  12.723   8.663 -1.5973 -1.2538  1.7547
   96ETHOX  H23 4779  15.265  12.795   8.711 -1.3800  0.4272 -0.6140
   97ETHOX   O1 4780  15.109  12.838   8.826 -0.2407  0.1718  0.0803
   97ETHOX   C1 4781  15.074  12.946   8.744  1.1670 -0.5349 -0.1892
   97ETHOX  H11 4782  14.997  12.912   8.671  1.3484 -0.5355 -0.3824
   97ETHOX  H13 4783  15.166  12.980   8.694  1.6679 -0.7564  0.5670
   97ETHOX   C2 4784  15.017  13.055   8.832  0.2638  0.8706 -0.3815
   97ETHOX  H21 4785  15.031  13.153   8.781  0.0915  0.7911 -0.5816
   97ETHOX  H23 4786  15.090  13.048   8.916  1.6305 -2.5114 -1.6609
   98ETHOX   O1 4787  14.883  13.036   8.865 -0.3824  0.6477  0.4673
   98ETHOX   C1 4788  14.853  13.128   8.966 -0.4954  0.1032 -0.1161
   98ETHOX  H11 4789  14.877  13.233   8.940  0.1679  0.9001  3.2739
   98ETHOX  H13 4790  14.743  13.146   8.972 -0.4843 -0.0270  0.5716
   98ETHOX   C2 4791  14.904  13.090   9.100  0.6077 -0.5045 -0.4699
   98ETHOX  H21 4792  14.877  13.166   9.176 -2.0510 -2.6331  0.8646
   98ETHOX  H23 4793  15.015  13.088   9.109  0.4752 -2.9115  2.1371
   99ETHOX   O1 4794  14.869  12.961   9.149  0.1035  0.8787 -0.3526
   99ETHOX   C1 4795  14.875  12.963   9.289  0.8050  0.1263  0.7312
   99ETHOX  H11 4796  14.771  12.973   9.328  0.9277 -3.2184  2.2395
   99ETHOX  H13 4797  14.940  13.038   9.339 -1.2279  1.2488  1.8073
   99ETHOX   C2 4798  14.903  12.817   9.339  0.0766  0.1672  0.7530
   99ETHOX  H21 4799  14.811  12.759   9.320  0.7100 -1.4594  2.4296
   99ETHOX  H23 4800  14.930  12.816   9.446  0.8888 -0.6126  0.5503
  100ETHOX   O1 4801  15.008  12.757   9.262 -0.1315  0.2519 -0.2847
  100ETHOX   C1 4802  15.019  12.619   9.283 -0.4322  0.5160 -0.1215
  100ETHOX  H11 4803  14.918  12.583   9.312  1.2601 -1.9390  3.5281
  100ETHOX  H13 4804  15.033  12.572   9.183 -3.8045 -1.4484  0.1749
  100ETHOX   C2 4805  15.137  12.560   9.370  1.0538  0.5505 -0.4961
  100ETHOX  H21 4806  15.236  12.603   9.347  0.4338  1.9290 -0.6654
  100ETHOX  H23 4807  15.134  12.452   9.344  1.2466  0.5730 -0.6073
  101PROXS   O1 4808  15.121  12.589   9.505 -0.1278  0.0497 -0.2292
  101PROXS   C1 4809  15.025  12.508   9.571  0.4235  0.5072 -0.5398
  101PROXS  H11 4810  14.942  12.471   9.507  0.1415 -1.0611  0.6680
  101PROXS  H13 4811  15.079  12.413   9.592 -0.0047  0.0573 -1.3979
  101PROXS   C2 4812  14.976  12.559   9.705  0.3886  0.1406 -0.5369
  101PROXS  H21 4813  14.913  12.483   9.756  1.0197 -0.7042 -0.9887
  101PROXS   C3 4814  14.883  12.682   9.701  0.3551  0.2351 -0.3834
  101PROXS  H31 4815  14.815  12.684   9.788 -0.5553  0.3396 -1.0845
  101PROXS  H32 4816  14.941  12.777   9.693 -1.2252  1.1726 -1.3234
  101PROXS  H33 4817  14.831  12.680   9.603 -0.8892  2.4628  0.1575
  102PROXS   O1 4818  15.085  12.588   9.793  0.3229 -0.1790 -0.0100
  102PROXS   C1 4819  15.053  12.589   9.928 -0.5369  0.1777  0.3703
  102PROXS  H11 4820  14.964  12.652   9.945  0.9478  1.9239  2.1871
  102PROXS  H13 4821  15.039  12.483   9.959  2.1339 -0.1233  0.7848
  102PROXS   C2 4822  15.161  12.655  10.018  0.2228  0.5047  0.6653
  102PROXS  H21 4823  15.195  12.750   9.972  2.3810 -0.9032 -0.8627
  102PROXS   C3 4824  15.287  12.571  10.034 -0.2994  0.3017  0.2969
  102PROXS  H31 4825  15.340  12.548   9.939 -1.6109  0.9994 -0.6395
  102PROXS  H32 4826  15.347  12.627  10.109 -1.2316  1.5822  0.1369
  102PROXS  H33 4827  15.258  12.471  10.072 -0.4104 -0.1901 -1.0296
  103PROXR   O1 4828  15.111  12.685  10.151 -0.2254 -0.1611  0.4723
  103PROXR   C1 4829  15.002  12.780  10.165  0.3052  0.8024  0.4865
  103PROXR  H11 4830  15.029  12.879  10.122  1.4044  0.4734  0.3669
  103PROXR  H13 4831  14.910  12.743  10.115 -0.3162  3.3646 -0.4075
  103PROXR   C2 4832  14.968  12.802  10.310  0.1996 -0.2737 -0.0851
  103PROXR  H21 4833  14.964  12.708  10.370  1.1367 -0.0721  0.3179
  103PROXR   C3 4834  14.833  12.876  10.322  0.4780  0.0954 -0.1739
  103PROXR  H31 4835  14.746  12.808  10.308  0.5690  0.0798 -0.6873
  103PROXR  H32 4836  14.821  12.919  10.423 -1.2019 -0.2860 -0.1868
  103PROXR  H33 4837  14.826  12.957  10.246 -0.1269 -1.6251 -2.0528
  104PROXS   O1 4838  15.059  12.893  10.371  0.0656  0.4394 -0.4012
  104PROXS   C1 4839  15.177  12.827  10.435 -0.0893 -0.1401 -0.9481
  104PROXS  H11 4840  15.147  12.758  10.517  0.4590  3.1371  2.2727
  104PROXS  H13 4841  15.215  12.770  10.347  0.3885  0.6302 -1.2466
  104PROXS   C2 4842  15.287  12.917  10.502  0.0237  0.1319  0.9304
  104PROXS  H21 4843  15.221  12.949  10.586 -1.2817 -2.6028  1.0578
  104PROXS   C3 4844  15.320  13.038  10.410 -0.7124 -0.2850  0.1570
  104PROXS  H31 4845  15.382  13.113  10.464 -2.1777  1.0846 -0.0143
  104PROXS  H32 4846  15.375  13.003  10.320  0.3940 -0.1712  0.7624
  104PROXS  H33 4847  15.229  13.094  10.379  1.1598  3.6683  1.0715
  105PROXS   O1 4848  15.403  12.842  10.550 -0.1504  0.7173 -0.0382
  105PROXS   C1 4849  15.465  12.904  10.663  0.5297 -0.0071 -0.8662
  105PROXS  H11 4850  15.500  13.007  10.643  0.2907  0.3204  0.3151
  105PROXS  H13 4851  15.381  12.915  10.734  0.0855  0.0794 -1.3963
  105PROXS   C2 4852  15.585  12.813  10.711  0.1143  0.4814 -0.3296
  105PROXS  H21 4853  15.562  12.705  10.723  0.6528  0.1320 -2.1237
  105PROXS   C3 4854  15.649  12.857  10.841  0.4385  0.1979  0.0905
  105PROXS  H31 4855  15.582  12.837  10.928 -2.0639  0.8950 -1.5590
  105PROXS  H32 4856  15.747  12.804  10.847  0.6271  0.7094  2.7744
  105PROXS  H33 4857  15.664  12.967  10.845  1.2067  0.1021 -0.0478
  106PROXS   O1 4858  15.691  12.831  10.619  0.4541  0.3925 -0.0207
  106PROXS   C1 4859  15.722  12.711  10.558 -0.3543  0.7353 -0.2899
  106PROXS  H11 4860  15.754  12.629  10.626  0.8139  1.2787 -0.1542
  106PROXS  H13 4861  15.638  12.671  10.498 -0.0501  0.3509 -0.4630
  106PROXS   C2 4862  15.841  12.739  10.451  0.4186 -0.5541 -0.2527
  106PROXS  H21 4863  15.929  12.761  10.514  0.6131  1.6780 -1.2367
  106PROXS   C3 4864  15.816  12.857  10.354  0.2736  0.1237  0.1183
  106PROXS  H31 4865  15.707  12.873  10.338  0.0879  0.5191  1.6844
  106PROXS  H32 4866  15.853  12.948  10.405  0.6165 -0.2989  0.6281
  106PROXS  H33 4867  15.866  12.847  10.255 -0.8553  1.6209 -0.6415
  107PROXR   O1 4868  15.849  12.616  10.375  0.5524 -0.6373 -0.0786
  107PROXR   C1 4869  15.978  12.594  10.330  0.1726 -0.1214  0.3807
  107PROXR  H11 4870  16.012  12.672  10.259  2.1857 -1.6112 -0.3546
  107PROXR  H13 4871  16.042  12.598  10.421 -0.4866 -0.3533  0.8654
  107PROXR   C2 4872  15.981  12.463  10.248  0.2415  0.4711 -0.4643
  107PROXR  H21 4873  15.933  12.380  10.304 -0.3094  1.5412  0.6819
  107PROXR   C3 4874  16.125  12.422  10.225  0.2886 -0.1378 -0.1519
  107PROXR  H31 4875  16.118  12.329  10.164 -0.5601 -0.2888  0.1615
  107PROXR  H32 4876  16.187  12.504  10.183 -0.3524  0.2316 -0.3845
  107PROXR  H33 4877  16.172  12.389  10.321  1.7610 -0.8869 -1.0882
  108PROXS   O1 4878  15.924  12.491  10.118  0.6154 -0.3788  0.2328
  108PROXS   C1 4879  15.792  12.430  10.107 -0.0018 -0.0717 -0.2666
  108PROXS  H11 4880  15.805  12.321  10.129 -0.9726 -0.1448  0.0014
  108PROXS  H13 4881  15.740  12.471  10.196 -0.8467  0.0646 -0.8127
  108PROXS   C2 4882  15.721  12.455   9.971 -0.0238 -0.1138 -0.0726
  108PROXS  H21 4883  15.798  12.433   9.894 -1.2866 -0.6074 -1.2484
  108PROXS   C3 4884  15.670  12.593   9.958  0.0745 -0.0611  0.2761
  108PROXS  H31 4885  15.575  12.594  10.016  1.2934 -2.2312  2.5242
  108PROXS  H32 4886  15.742  12.668   9.997  1.2909  0.5775 -2.8973
  108PROXS  H33 4887  15.656  12.614   9.850 -1.2114  2.1231  0.8015
  109PROXS   O1 4888  15.621  12.361   9.951  0.6024  0.2885  0.4461
  109PROXS   C1 4889  15.679  12.237   9.906  0.5912 -0.1943 -0.3493
  109PROXS  H11 4890  15.687  12.233   9.795 -1.1826  0.4983 -0.5364
  109PROXS  H13 4891  15.782  12.223   9.945 -0.0391  1.1154  1.9175
  109PROXS   C2 4892  15.599  12.106   9.938 -0.4637 -0.9235  0.5740
  109PROXS  H21 4893  15.660  12.019   9.906 -0.3729 -0.9298  0.7577
  109PROXS   C3 4894  15.458  12.102   9.867 -0.6646 -0.1347 -0.0364
  109PROXS  H31 4895  15.429  12.208   9.855 -0.8758 -0.4678 -3.3914
  109PROXS  H32 4896  15.490  12.058   9.770  2.5558 -0.9622  1.2701
  109PROXS  H33 4897  15.381  12.041   9.919  0.9699 -0.1312  2.6058
  110PROXR   O1 4898  15.600  12.096  10.079  0.0654  0.0881  0.4882
  110PROXR   C1 4899  15.509  12.010  10.143  0.3266 -0.2396  0.3665
  110PROXR  H11 4900  15.410  12.060  10.138  0.6253  0.4376  1.0390
  110PROXR  H13 4901  15.523  11.910  10.095 -1.7344  0.5809 -2.1315
  110PROXR   C2 4902  15.552  11.988  10.296  0.4052  0.5075  0.1336
  110PROXR  H21 4903  15.660  11.978  10.319 -0.0397  1.2927  2.9408
  110PROXR   C3 4904  15.502  11.863  10.374  0.2788  0.3075  0.4904
  110PROXR  H31 4905  15.514  11.766  10.321 -0.8595 -0.6174  1.8443
  110PROXR  H32 4906  15.548  11.843  10.473 -3.1655 -2.5107  1.7553
  110PROXR  H33 4907  15.393  11.870  10.396  0.3501  0.6509  0.7357
  111PROXS   O1 4908  15.511  12.086  10.388  0.0583 -0.6745 -0.1678
  111PROXS   C1 4909  15.563  12.221  10.357  0.1735 -0.0347  0.0156
  111PROXS  H11 4910  15.669  12.207  10.324 -0.2081 -0.5366 -1.0367
  111PROXS  H13 4911  15.507  12.260  10.269  1.2036 -0.1094 -0.7007
  111PROXS   C2 4912  15.545  12.332  10.469  0.3788 -0.6382  0.4731
  111PROXS  H21 4913  15.559  12.432  10.422 -0.4981 -0.4785  0.5301
  111PROXS   C3 4914  15.658  12.336  10.571  0.0203 -0.6236 -0.1076
  111PROXS  H31 4915  15.756  12.355  10.522  0.9044  2.4523  2.5006
  111PROXS  H32 4916  15.639  12.410  10.651 -0.9398 -0.6754 -0.2819
  111PROXS  H33 4917  15.653  12.248  10.638 -3.4459 -0.0974  0.4959
  112PROXR   O1 4918  15.418  12.314  10.526  0.1796 -0.2062 -0.2575
  112PROXR   C1 4919  15.384  12.428  10.601  0.0133 -0.2533 -0.0542
  112PROXR  H11 4920  15.441  12.416  10.695  0.3455  0.3730 -0.1664
  112PROXR  H13 4921  15.423  12.515  10.544  2.4212 -2.6014 -2.2458
  112PROXR   C2 4922  15.230  12.449  10.625 -0.8748 -0.6690 -0.3967
  112PROXR  H21 4923  15.194  12.365  10.688 -0.0316 -0.3674  0.5071
  112PROXR   C3 4924  15.141  12.453  10.503 -0.3353  0.0027  0.0036
  112PROXR  H31 4925  15.172  12.526  10.426  1.5247 -3.4819 -2.9039
  112PROXR  H32 4926  15.131  12.352  10.455 -3.8200 -0.6385  1.7605
  112PROXR  H33 4927  15.036  12.478  10.529  0.0731  1.0945  0.6440
  113PROXS   O1 4928  15.220  12.577  10.695 -0.5386  0.5726  0.0918
  113PROXS   C1 4929  15.103  12.573  10.785 -0.3295  0.2786  0.5697
  113PROXS  H11 4930  15.009  12.537  10.738  0.6414 -0.4409 -0.9361
  113PROXS  H13 4931  15.117  12.509  10.875  0.5014 -2.1524 -1.1598
  113PROXS   C2 4932  15.072  12.717  10.820  0.1099 -0.1418  0.6168
  113PROXS  H21 4933  15.071  12.787  10.735  0.9301 -1.6579 -0.7020
  113PROXS   C3 4934  15.185  12.764  10.915 -0.0387 -0.7593  0.3697
  113PROXS  H31 4935  15.193  12.875  10.911  0.2609 -0.7314  1.6536
  113PROXS  H32 4936  15.171  12.725  11.018  1.2561 -1.6163  0.2412
  113PROXS  H33 4937  15.282  12.721  10.883 -0.7700 -0.8337 -1.9825
  114PROXR   O1 4938  14.942  12.703  10.882  0.2033  0.0802 -0.0651
  114PROXR   C1 4939  14.865  12.819  10.875  0.2914 -0.0664  0.7172
  114PROXR  H11 4940  14.920  12.910  10.907  0.3126 -0.4198  1.7439
  114PROXR  H13 4941  14.826  12.838  10.773 -0.4039 -1.5557  0.6780
  114PROXR   C2 4942  14.736  12.809  10.967  0.5444  0.3195  0.1169
  114PROXR  H21 4943  14.792  12.787  11.060  0.5602 -0.7434 -0.1336
  114PROXR   C3 4944  14.631  12.694  10.938 -0.7503 -0.4101  0.1528
  114PROXR  H31 4945  14.566  12.709  10.849  0.3083  1.8056 -0.3170
  114PROXR  H32 4946  14.688  12.602  10.913 -0.6847 -0.6050  0.9878
  114PROXR  H33 4947  14.572  12.679  11.031 -0.2257 -2.3291  0.2219
  115PROXR   O1 4948  14.665  12.934  10.957  0.0361  0.7637 -0.6832
  115PROXR   C1 4949  14.604  12.958  11.077 -0.0742 -0.7683 -0.3464
  115PROXR  H11 4950  14.549  12.868  11.111 -0.5486 -0.9137 -1.4584
  115PROXR  H13 4951  14.677  13.004  11.147  1.0590  0.4983 -2.2805
  115PROXR   C2 4952  14.497  13.073  11.063  0.2116  0.4294  1.1037
  115PROXR  H21 4953  14.424  13.046  10.984  0.8450 -1.6211  1.1714
  115PROXR   C3 4954  14.569  13.204  11.027 -0.0751  0.6687 -0.9109
  115PROXR  H31 4955  14.492  13.276  10.992  0.5241  1.2691 -1.0083
  115PROXR  H32 4956  14.622  13.243  11.116 -3.0586  3.5730 -0.1911
  115PROXR  H33 4957  14.644  13.191  10.946 -0.0119  1.8743 -1.0602
  116PROXS   O1 4958  14.427  13.085  11.180 -0.0395 -0.1430 -0.9977
  116PROXS   C1 4959  14.315  13.172  11.170  0.0744 -0.5010  0.7673
  116PROXS  H11 4960  14.344  13.279  11.176 -0.3063 -0.3792  0.5297
  116PROXS  H13 4961  14.276  13.153  11.067  1.2459 -2.6308  0.6637
  116PROXS   C2 4962  14.201  13.145  11.272 -0.2646 -0.1597 -0.1484
  116PROXS  H21 4963  14.246  13.151  11.373 -2.4112  1.0755  0.7887
  116PROXS   C3 4964  14.152  13.006  11.238 -0.6926  0.4753 -0.0277
  116PROXS  H31 4965  14.092  12.952  11.314 -1.7634 -1.2876 -2.0222
  116PROXS  H32 4966  14.097  13.012  11.142  0.1464  1.2404 -0.4756
  116PROXS  H33 4967  14.233  12.933  11.215 -1.8251 -1.5328  1.9704
  117PROXS   O1 4968  14.101  13.245  11.269  0.1891 -0.3477 -0.0225
  117PROXS   C1 4969  13.985  13.208  11.346 -0.6382 -0.0071 -0.4614
  117PROXS  H11 4970  13.935  13.122  11.299  3.3069 -2.2132 -1.0880
  117PROXS  H13 4971  14.019  13.171  11.445 -1.6091  1.0560  0.2956
  117PROXS   C2 4972  13.873  13.320  11.368  0.5897  0.3691  0.7714
  117PROXS  H21 4973  13.847  13.345  11.263  0.6261 -0.6523  0.5106
  117PROXS   C3 4974  13.932  13.444  11.432 -0.6686  0.0393  0.6971
  117PROXS  H31 4975  13.858  13.525  11.451 -0.9714 -0.6857  2.8555
  117PROXS  H32 4976  13.979  13.418  11.529  2.9098 -0.9389 -1.1157
  117PROXS  H33 4977  14.013  13.479  11.364 -1.5351  1.1785  0.2054
  118PROXR   O1 4978  13.762  13.266  11.432 -0.2847  0.0219 -0.7046
  118PROXR   C1 4979  13.651  13.354  11.443  0.2340 -0.0535  0.3915
  118PROXR  H11 4980  13.658  13.445  11.507 -0.6666  0.0837  0.3083
  118PROXR  H13 4981  13.635  13.378  11.336  0.7074 -0.9498  0.1123
  118PROXR   C2 4982  13.536  13.265  11.488 -0.0197  0.6646 -0.0730
  118PROXR  H21 4983  13.552  13.227  11.591 -0.8334 -3.2275 -1.2389
  118PROXR   C3 4984  13.523  13.149  11.396  0.4983  0.8249  0.1232
  118PROXR  H31 4985  13.440  13.078  11.416  0.8876 -0.0344 -1.1751
  118PROXR  H32 4986  13.506  13.174  11.289 -0.1131  0.6240  0.1691
  118PROXR  H33 4987  13.620  13.097  11.381 -0.1648 -0.6805  0.7980
  119PROXR   O1 4988  13.414  13.339  11.477 -0.4975 -0.0424  0.5247
  119PROXR   C1 4989  13.314  13.274  11.552 -0.5120 -0.0510 -0.2113
  119PROXR  H11 4990  13.344  13.180  11.603  1.2675 -0.0478 -1.1716
  119PROXR  H13 4991  13.266  13.342  11.626 -0.0015  0.4004 -0.2863
  119PROXR   C2 4992  13.197  13.231  11.462 -0.1865 -0.5575 -0.1450
  119PROXR  H21 4993  13.236  13.219  11.358 -0.8689 -0.8085 -0.3749
  119PROXR   C3 4994  13.083  13.327  11.468  1.0952 -1.2415  0.0090
  119PROXR  H31 4995  13.115  13.423  11.423  2.4758 -0.3847  2.5979
  119PROXR  H32 4996  12.991  13.287  11.420  0.4255  1.4124 -1.0693
  119PROXR  H33 4997  13.059  13.350  11.574  0.7032 -0.3548 -0.2621
  120PROXS   O1 4998  13.150  13.108  11.511 -0.2321 -0.0916  0.6210
  120PROXS   C1 4999  13.084  13.027  11.414  0.3211  0.2018 -0.0118
  120PROXS  H11 5000  12.986  13.076  11.393  0.4632 -0.3533 -2.2488
  120PROXS  H13 5001  13.135  13.018  11.315 -0.7071  2.6533 -0.8357
  120PROXS   C2 5002  13.053  12.878  11.454 -0.1334 -0.5929  0.4499
  120PROXS  H21 5003  12.987  12.894  11.542  1.5442 -1.9831  2.0565
  120PROXS   C3 5004  13.178  12.799  11.500 -0.4846  0.3610 -0.5557
  120PROXS  H31 5005  13.255  12.776  11.424 -0.2036  1.4561 -0.6188
  120PROXS  H32 5006  13.226  12.848  11.587  0.0647 -3.2053  1.3713
  120PROXS  H33 5007  13.136  12.702  11.536  1.7256  0.0274  1.3037
  121PROXS   O1 5008  12.979  12.825  11.347 -0.3428  0.2659 -0.1427
  121PROXS   C1 5009  12.915  12.698  11.381 -0.3731 -0.3546 -0.3793
  121PROXS  H11 5010  12.969  12.623  11.443  1.4810  1.6638  0.6066
  121PROXS  H13 5011  12.824  12.720  11.441 -0.5592  1.4508 -1.2564
  121PROXS   C2 5012  12.862  12.622  11.254  0.5621 -0.3731 -0.1138
  121PROXS  H21 5013  12.841  12.711  11.191  1.1867  1.1829  1.7649
  121PROXS   C3 5014  12.736  12.538  11.279 -0.0141 -0.1003 -0.3830
  121PROXS  H31 5015  12.644  12.593  11.310 -0.2720 -0.7056 -0.0694
  121PROXS  H32 5016  12.705  12.489  11.184  1.0043  0.2522 -0.9186
  121PROXS  H33 5017  12.750  12.464  11.360 -2.2472  0.8254  0.9802
  122PROXS   O1 5018  12.972  12.545  11.192  0.4718 -0.2307  0.0565
  122PROXS   C1 5019  13.061  12.624  11.118 -0.7569 -0.4621  0.0429
  122PROXS  H11 5020  12.998  12.678  11.044  2.8591  1.2134 -2.0938
  122PROXS  H13 5021  13.107  12.706  11.176 -0.9216  0.3146 -0.8957
  122PROXS   C2 5022  13.160  12.539  11.040  0.2965 -0.4764  0.9133
  122PROXS  H21 5023  13.099  12.453  11.006 -0.7175  0.1844  1.0133
  122PROXS   C3 5024  13.267  12.488  11.135  0.3567  0.0699  0.4177
  122PROXS  H31 5025  13.330  12.568  11.179 -0.9734  1.1770  0.3894
  122PROXS  H32 5026  13.208  12.435  11.213 -0.7913 -3.6556 -2.6822
  122PROXS  H33 5027  13.329  12.405  11.095  2.1492  1.8565 -0.7160
  123PROXS   O1 5028  13.212  12.613  10.930 -1.0870 -0.3096  0.4943
  123PROXS   C1 5029  13.244  12.534  10.820 -0.0846  0.0202  0.0189
  123PROXS  H11 5030  13.315  12.454  10.850  0.5075  0.4798 -0.1423
  123PROXS  H13 5031  13.152  12.482  10.785  0.6854 -1.0576 -0.4839
  123PROXS   C2 5032  13.306  12.625  10.707 -0.7075  0.3308 -0.4932
  123PROXS  H21 5033  13.264  12.726  10.725 -0.6564  0.1131  0.9265
  123PROXS   C3 5034  13.271  12.566  10.570 -0.0921  0.9492 -0.0472
  123PROXS  H31 5035  13.337  12.477  10.564 -0.0183  0.9337  0.8950
  123PROXS  H32 5036  13.164  12.536  10.571 -0.2517  1.5246  0.4774
  123PROXS  H33 5037  13.287  12.643  10.492  1.9667  3.9804  3.0714
  124PROXR   O1 5038  13.448  12.624  10.717 -0.1970  0.2549  0.0294
  124PROXR   C1 5039  13.492  12.702  10.829 -0.7281  0.4247  0.0066
  124PROXR  H11 5040  13.461  12.805  10.801  1.4866  1.3448  0.7517
  124PROXR  H13 5041  13.444  12.662  10.921  2.4072 -1.3346  0.9989
  124PROXR   C2 5042  13.642  12.680  10.843  0.0392 -0.0307  0.0137
  124PROXR  H21 5043  13.701  12.707  10.753 -0.5471  2.1813  0.2355
  124PROXR   C3 5044  13.681  12.537  10.879 -0.3540 -0.1013  0.1433
  124PROXR  H31 5045  13.791  12.544  10.892 -0.4834  1.5031  0.5194
  124PROXR  H32 5046  13.636  12.497  10.972 -0.3898 -1.6918 -0.5096
  124PROXR  H33 5047  13.666  12.476  10.787 -0.1087  1.9132 -1.2931
  125PROXS   O1 5048  13.693  12.763  10.945  0.3487 -0.2960 -0.6828
  125PROXS   C1 5049  13.692  12.906  10.915 -0.0927 -0.1158 -0.7069
  125PROXS  H11 5050  13.733  12.930  10.814  0.8722 -1.1231 -0.5872
  125PROXS  H13 5051  13.587  12.941  10.908 -0.8303 -2.2275 -1.1012
  125PROXS   C2 5052  13.758  12.972  11.034 -0.3143 -0.6846  0.2302
  125PROXS  H21 5053  13.863  12.936  11.035  0.5518  1.6100  2.4313
  125PROXS   C3 5054  13.689  12.945  11.169  0.4403 -0.9155 -0.6423
  125PROXS  H31 5055  13.755  12.972  11.254  0.2461 -2.3314 -0.0197
  125PROXS  H32 5056  13.590  12.994  11.185  0.1152 -2.1844  1.6754
  125PROXS  H33 5057  13.682  12.835  11.180  1.3474 -1.0716 -1.4681
  126PROXS   O1 5058  13.756  13.113  11.022  0.2568  0.0434  0.0373
  126PROXS   C1 5059  13.861  13.162  10.937  0.2049  0.3136  0.2464
  126PROXS  H11 5060  13.960  13.122  10.965 -0.2390 -1.3045 -0.3337
  126PROXS  H13 5061  13.840  13.126  10.833  0.2994  1.2881 -0.1235
  126PROXS   C2 5062  13.865  13.318  10.944 -0.4480  0.0470 -0.9809
  126PROXS  H21 5063  13.874  13.351  11.050 -0.6719  0.5187 -1.1026
  126PROXS   C3 5064  13.744  13.384  10.880  0.0500 -0.2050 -0.0120
  126PROXS  H31 5065  13.750  13.380  10.769  3.1017  3.7155 -0.2013
  126PROXS  H32 5066  13.656  13.333  10.924  0.8903 -2.9321 -1.2610
  126PROXS  H33 5067  13.738  13.493  10.898  1.2467 -0.2621  0.8587
  127PROXR   O1 5068  13.973  13.374  10.873 -0.1555  0.1598  0.6977
  127PROXR   C1 5069  14.080  13.412  10.961  0.3246  0.3392 -0.3832
  127PROXR  H11 5070  14.050  13.502  11.018 -1.7173 -0.9072  0.6248
  127PROXR  H13 5071  14.112  13.336  11.035  1.6187 -1.5951 -2.7905
  127PROXR   C2 5072  14.211  13.454  10.877  0.7595  0.2897 -0.1698
  127PROXR  H21 5073  14.165  13.534  10.815  1.9858  1.2011  0.0556
  127PROXR   C3 5074  14.266  13.345  10.797 -0.0441  0.4183 -0.3329
  127PROXR  H31 5075  14.187  13.281  10.752  0.0222 -0.5927  0.9226
  127PROXR  H32 5076  14.330  13.382  10.713  0.8333 -0.2008  0.0376
  127PROXR  H33 5077  14.323  13.273  10.860  2.5742  0.4870 -2.3944
  128PROXR   O1 5078  14.314  13.515  10.963  0.4214 -0.1624 -0.3276
  128PROXR   C1 5079  14.397  13.604  10.891  0.4552 -0.6276 -0.4479
  128PROXR  H11 5080  14.429  13.553  10.797  0.6760 -1.6825  0.1815
  128PROXR  H13 5081  14.341  13.698  10.871  0.9193  0.1375  1.5904
  128PROXR   C2 5082  14.517  13.656  10.961 -0.0280 -0.5663 -0.5413
  128PROXR  H21 5083  14.587  13.570  10.967  0.3650 -0.1742  0.7934
  128PROXR   C3 5084  14.493  13.701  11.106  0.0066  0.1331 -0.0223
  128PROXR  H31 5085  14.585  13.700  11.169  0.5888  0.6280 -0.8418
  128PROXR  H32 5086  14.436  13.796  11.101 -0.1345  0.0959  0.7703
  128PROXR  H33 5087  14.422  13.623  11.141 -0.7229  0.7482 -0.0884
  129PROXS   O1 5088  14.580  13.767  10.898 -0.5296  0.1676  0.5970
  129PROXS   C1 5089  14.704  13.797  10.946 -0.5017 -0.0006 -0.4817
  129PROXS  H11 5090  14.698  13.852  11.042  0.6517 -1.7682  0.6756
  129PROXS  H13 5091  14.762  13.705  10.968  0.7242  0.5496 -1.3361
  129PROXS   C2 5092  14.769  13.895  10.846 -0.7519 -0.0125  0.1571
  129PROXS  H21 5093  14.700  13.981  10.838 -0.2727  0.6433  2.2978
  129PROXS   C3 5094  14.796  13.822  10.710  0.2783 -0.4028  0.2657
  129PROXS  H31 5095  14.861  13.733  10.726 -0.7755 -1.5722 -1.5734
  129PROXS  H32 5096  14.692  13.792  10.685 -0.4753  2.3894 -0.2206
  129PROXS  H33 5097  14.839  13.889  10.633 -0.3321 -2.1379 -1.6450
  130PROXS   O1 5098  14.890  13.944  10.898  0.2114 -0.3255 -0.1296
  130PROXS   C1 5099  14.961  14.023  10.803 -0.4246 -0.2608  0.4194
  130PROXS  H11 5100  15.005  13.962  10.721 -0.9607  0.6630 -0.5764
  130PROXS  H13 5101  14.879  14.083  10.757 -1.9809 -1.7501  1.1133
  130PROXS   C2 5102  15.070  14.110  10.866 -0.3416 -0.5877 -0.1758
  130PROXS  H21 5103  15.143  14.032  10.898  1.3716  0.1859 -1.9676
  130PROXS   C3 5104  15.014  14.175  10.997  0.9109 -0.9037  0.0336
  130PROXS  H31 5105  15.089  14.254  11.022  0.3898 -0.2879 -0.3283
  130PROXS  H32 5106  14.913  14.218  10.978  0.2306 -1.9489  1.1541
  130PROXS  H33 5107  15.004  14.110  11.087  3.7262  1.4515  2.2715
  131PROXS   O1 5108  15.142  14.189  10.772 -0.3327 -0.0107 -0.0838
  131PROXS   C1 5109  15.074  14.308  10.734 -0.2147 -0.2206 -0.0220
  131PROXS  H11 5110  14.969  14.284  10.707  0.7268 -1.8097 -2.7101
  131PROXS  H13 5111  15.071  14.387  10.811  0.1515  0.9670 -1.1900
  131PROXS   C2 5112  15.148  14.368  10.611  0.5934  0.1238  0.7189
  131PROXS  H21 5113  15.141  14.296  10.527  0.9869  2.9696 -1.9149
  131PROXS   C3 5114  15.287  14.408  10.637 -0.0032 -0.2677 -0.3617
  131PROXS  H31 5115  15.301  14.464  10.732  4.8767 -1.1364 -0.2983
  131PROXS  H32 5116  15.354  14.319  10.646  0.7863  0.2407 -1.0731
  131PROXS  H33 5117  15.322  14.460  10.545  0.6149 -0.0504 -0.0102
  132PROXS   O1 5118  15.084  14.490  10.571 -0.7230 -0.2367 -0.2921
  132PROXS   C1 5119  14.949  14.476  10.517 -0.3502  0.8829 -0.1818
  132PROXS  H11 5120  14.938  14.384  10.455  0.5907  0.1256  0.7240
  132PROXS  H13 5121  14.874  14.459  10.597 -2.2543 -0.4147 -2.1379
  132PROXS   C2 5122  14.899  14.599  10.442 -0.1566  0.2179 -0.0479
  132PROXS  H21 5123  14.971  14.598  10.358  0.4214  3.4781  0.3141
  132PROXS   C3 5124  14.903  14.731  10.524 -0.3964 -0.3544 -0.0829
  132PROXS  H31 5125  14.873  14.824  10.470 -0.7266  2.2435  4.1237
  132PROXS  H32 5126  14.829  14.730  10.607  0.9478 -1.9320  1.1458
  132PROXS  H33 5127  14.999  14.745  10.576 -0.4694 -1.4141  0.3604
  133PROXS   O1 5128  14.759  14.572  10.397 -0.1161  0.3170 -0.3011
  133PROXS   C1 5129  14.732  14.652  10.279  0.9918  0.0612 -0.5440
  133PROXS  H11 5130  14.693  14.748  10.318 -0.3216 -0.9270  0.6726
  133PROXS  H13 5131  14.825  14.670  10.220  0.3199 -2.5899 -2.6071
  133PROXS   C2 5132  14.627  14.583  10.187  0.0007  0.2193 -0.1204
  133PROXS  H21 5133  14.535  14.558  10.244  0.9080  0.7929  1.6697
  133PROXS   C3 5134  14.684  14.449  10.132 -0.5914  0.1799 -0.1013
  133PROXS  H31 5135  14.605  14.405  10.067 -0.4908  0.2065 -0.2411
  133PROXS  H32 5136  14.772  14.472  10.068 -1.3345 -1.1615 -1.6798
  133PROXS  H33 5137  14.712  14.373  10.208  2.9593  0.3520 -1.0395
  134PROXS   O1 5138  14.595  14.670  10.075  0.5812 -0.1240  0.1824
  134PROXS   C1 5139  14.471  14.637  10.012  0.3768  0.0388  0.4132
  134PROXS  H11 5140  14.430  14.548  10.065  1.7608 -0.2754  1.0096
  134PROXS  H13 5141  14.413  14.731  10.020 -1.6161 -1.2103  1.1953
  134PROXS   C2 5142  14.492  14.595   9.863 -0.5234 -0.5140 -0.2636
  134PROXS  H21 5143  14.578  14.524   9.864 -0.4779 -0.4675 -0.5787
  134PROXS   C3 5144  14.530  14.705   9.766 -0.1946  0.3879  0.4509
  134PROXS  H31 5145  14.626  14.756   9.786 -0.3219  1.3120 -1.1113
  134PROXS  H32 5146  14.528  14.668   9.661  0.2878 -0.7484  0.8225
  134PROXS  H33 5147  14.451  14.781   9.781  0.7325  1.3038  0.8181
  135PROXS   O1 5148  14.376  14.532   9.822  0.7874 -0.7924 -0.2185
  135PROXS   C1 5149  14.402  14.421   9.741  0.0219 -0.3874 -0.5144
  135PROXS  H11 5150  14.473  14.445   9.659 -0.9789 -0.1897 -1.3456
  135PROXS  H13 5151  14.445  14.335   9.797 -2.0613 -1.3644 -0.2790
  135PROXS   C2 5152  14.280  14.384   9.664 -0.7611  0.1862 -0.0104
  135PROXS  H21 5153  14.257  14.462   9.588 -0.3846  0.3901  0.0802
  135PROXS   C3 5154  14.156  14.375   9.761  0.5700 -0.1233  1.0658
  135PROXS  H31 5155  14.143  14.469   9.818 -1.8676 -0.0110  0.4717
  135PROXS  H32 5156  14.064  14.375   9.698  1.4858  1.0785 -0.3200
  135PROXS  H33 5157  14.174  14.288   9.828  2.3787  0.2925  1.1507
  136PROXS   O1 5158  14.306  14.257   9.598 -0.8612 -0.3959 -0.6854
  136PROXS   C1 5159  14.193  14.194   9.535  0.3427  0.2579 -0.0263
  136PROXS  H11 5160  14.111  14.169   9.606 -0.2308 -1.8231 -1.3403
  136PROXS  H13 5161  14.145  14.262   9.461 -0.8064 -0.4333  0.0618
  136PROXS   C2 5162  14.242  14.063   9.485 -0.1360  0.6976 -0.1312
  136PROXS  H21 5163  14.268  14.008   9.578 -1.1718  0.7614  0.2153
  136PROXS   C3 5164  14.357  14.062   9.393 -0.2278 -0.3078 -0.3182
  136PROXS  H31 5165  14.317  14.087   9.292 -1.6429 -1.2758 -0.0274
  136PROXS  H32 5166  14.430  14.143   9.415 -1.0140  0.5673 -0.8315
  136PROXS  H33 5167  14.413  13.965   9.394  0.4747  0.0172  2.9844
  137PROXS   O1 5168  14.135  13.986   9.434 -0.1421 -0.0864 -0.2672
  137PROXS   C1 5169  14.167  13.856   9.399 -0.2828 -0.4090 -0.0593
  137PROXS  H11 5170  14.206  13.854   9.295 -0.7530  0.4729 -0.2622
  137PROXS  H13 5171  14.253  13.810   9.453  0.4549 -0.6285 -1.3700
  137PROXS   C2 5172  14.040  13.770   9.390  0.1569 -0.3271  1.1317
  137PROXS  H21 5173  13.978  13.818   9.312 -0.7308  2.8501  3.5884
  137PROXS   C3 5174  13.964  13.753   9.523  0.1012  0.4487  0.5428
  137PROXS  H31 5175  13.867  13.701   9.508  0.8286 -0.0655 -3.5278
  137PROXS  H32 5176  14.037  13.685   9.573  2.1092  2.5917  0.7048
  137PROXS  H33 5177  13.960  13.848   9.582  0.2559  0.6728  0.1944
  138PROXR   O1 5178  14.081  13.647   9.339 -0.3150  0.1000 -0.3129
  138PROXR   C1 5179  13.986  13.544   9.338 -0.0088 -0.0716  0.2977
  138PROXR  H11 5180  13.978  13.501   9.440 -2.8405  1.3554  0.8072
  138PROXR  H13 5181  13.892  13.595   9.307  1.2415  1.3401 -1.3685
  138PROXR   C2 5182  14.011  13.420   9.238  0.4161 -0.6629  0.0868
  138PROXR  H21 5183  14.118  13.392   9.252 -0.2014 -2.5416  1.6138
  138PROXR   C3 5184  13.987  13.460   9.091  0.0950 -0.7734  0.5999
  138PROXR  H31 5185  13.882  13.449   9.059  0.6544 -1.7428 -1.0469
  138PROXR  H32 5186  14.029  13.560   9.064 -0.4175 -0.7228 -0.0100
  138PROXR  H33 5187  14.040  13.390   9.023 -0.1079 -0.2879 -0.0685
  139PROXS   O1 5188  13.922  13.315   9.260 -0.1445  0.1098 -0.1693
  139PROXS   C1 5189  13.977  13.238   9.362 -0.3154  0.4637 -0.2851
  139PROXS  H11 5190  14.081  13.200   9.348 -0.6465 -0.6487  0.2071
  139PROXS  H13 5191  13.954  13.285   9.461 -1.2682 -0.0335 -0.2633
  139PROXS   C2 5192  13.893  13.111   9.381  0.5098  0.2667 -0.1965
  139PROXS  H21 5193  13.920  13.041   9.298  1.3555 -0.3874  0.6063
  139PROXS   C3 5194  13.738  13.142   9.380 -0.9004 -0.3006  0.5910
  139PROXS  H31 5195  13.674  13.058   9.414 -1.1130 -0.5133 -0.3089
  139PROXS  H32 5196  13.722  13.216   9.461 -1.1660  0.0211  0.2441
  139PROXS  H33 5197  13.718  13.180   9.278 -0.6040 -0.0797  0.6132
  140PROXR   O1 5198  13.918  13.041   9.505  0.0990 -0.6854  0.5775
  140PROXR   C1 5199  14.038  12.966   9.506  0.3468 -0.0490  0.4921
  140PROXR  H11 5200  14.004  12.866   9.472 -0.0138  0.3792 -0.4477
  140PROXR  H13 5201  14.118  13.001   9.438  2.0556 -0.9675  1.9366
  140PROXR   C2 5202  14.095  12.940   9.645 -1.0269 -0.0719 -0.4795
  140PROXR  H21 5203  14.023  12.898   9.719  2.2778 -2.3141  1.7070
  140PROXR   C3 5204  14.145  13.067   9.718 -0.2628 -0.3307  0.8130
  140PROXR  H31 5205  14.220  13.131   9.666 -0.7020  1.9659  2.8236
  140PROXR  H32 5206  14.066  13.146   9.715 -1.0553 -1.0198 -3.3672
  140PROXR  H33 5207  14.173  13.046   9.823 -0.6607 -3.1848  0.4147
  141PROXS   O1 5208  14.196  12.843   9.638 -0.4600 -0.0969  0.4848
  141PROXS   C1 5209  14.260  12.818   9.764 -0.4004 -0.8239  0.3064
  141PROXS  H11 5210  14.338  12.895   9.784  1.0877 -1.9535 -0.9464
  141PROXS  H13 5211  14.191  12.834   9.851 -0.2490 -0.9292  0.4466
  141PROXS   C2 5212  14.329  12.680   9.761 -0.6481  0.2957 -0.3808
  141PROXS  H21 5213  14.395  12.682   9.672 -0.8652  1.5158 -0.5386
  141PROXS   C3 5214  14.237  12.560   9.750  0.1499 -0.1327  0.0103
  141PROXS  H31 5215  14.148  12.587   9.689 -1.3970 -2.8221  0.9303
  141PROXS  H32 5216  14.302  12.487   9.698  0.4560 -1.1548  1.7434
  141PROXS  H33 5217  14.202  12.517   9.846  2.7495 -0.0461  1.0681
  142PROXS   O1 5218  14.412  12.675   9.873  0.1217 -0.2805 -0.3828
  142PROXS   C1 5219  14.523  12.582   9.861  0.2219  0.2186 -0.1593
  142PROXS  H11 5220  14.492  12.478   9.841  1.7124 -0.1876 -0.5043
  142PROXS  H13 5221  14.593  12.613   9.780 -1.3241 -0.4817 -1.8204
  142PROXS   C2 5222  14.604  12.582   9.996  0.0164 -0.3832  0.6703
  142PROXS  H21 5223  14.540  12.539  10.076  0.4546  0.6344  1.5894
  142PROXS   C3 5224  14.651  12.722  10.034  0.5653  0.3130  0.5324
  142PROXS  H31 5225  14.695  12.712  10.136  3.1419  0.5417 -0.4757
  142PROXS  H32 5226  14.730  12.752   9.962 -0.2204 -2.6271 -1.7639
  142PROXS  H33 5227  14.570  12.797  10.048  2.0300  1.9287  0.7106
  143PROXS   O1 5228  14.711  12.497   9.980 -0.3799 -0.0675  0.1475
  143PROXS   C1 5229  14.763  12.446  10.101 -0.2297  0.9609 -0.3161
  143PROXS  H11 5230  14.833  12.527  10.132 -0.9950  1.1442  1.0193
  143PROXS  H13 5231  14.683  12.432  10.177 -0.0448  0.8084 -0.1487
  143PROXS   C2 5232  14.843  12.311  10.085  0.0234 -0.4725 -0.0695
  143PROXS  H21 5233  14.915  12.314  10.000  1.0656 -0.0402  0.7938
  143PROXS   C3 5234  14.735  12.200  10.058 -0.0298  0.4919  0.0168
  143PROXS  H31 5235  14.651  12.223  10.126  1.1737  1.1113  1.3430
  143PROXS  H32 5236  14.696  12.202   9.954  1.9041  0.1920 -0.7745
  143PROXS  H33 5237  14.783  12.100  10.070 -2.1627 -0.8745 -1.8710
  144PROXS   O1 5238  14.908  12.289  10.209  0.0878  0.1672  0.2340
  144PROXS   C1 5239  15.026  12.207  10.197  0.3329 -0.0241 -0.0540
  144PROXS  H11 5240  15.039  12.153  10.101 -1.0735  1.0752 -0.8906
  144PROXS  H13 5241  15.114  12.275  10.205  0.0196  0.7308 -2.3194
  144PROXS   C2 5242  15.022  12.105  10.314 -0.1641 -0.9217 -0.2907
  144PROXS  H21 5243  14.980  12.164  10.399 -0.4989 -1.5617 -0.0048
  144PROXS   C3 5244  15.157  12.044  10.355  0.5672 -0.4636 -0.0334
  144PROXS  H31 5245  15.192  11.983  10.269  0.7199 -0.4180 -0.0018
  144PROXS  H32 5246  15.220  12.129  10.389 -2.9758  1.5801  2.0960
  144PROXS  H33 5247  15.147  11.982  10.447 -0.1231  1.3788  1.2154
  145PROXR   O1 5248  14.945  11.993  10.275  0.4167 -0.2090 -0.6484
  145PROXR   C1 5249  14.886  11.934  10.388  0.7947  0.2856  0.1223
  145PROXR  H11 5250  14.958  11.882  10.456  0.4643  1.2305  1.2309
  145PROXR  H13 5251  14.830  12.016  10.438  0.3308  0.2618 -0.3565
  145PROXR   C2 5252  14.782  11.830  10.339  0.8398  0.1883 -0.2647
  145PROXR  H21 5253  14.842  11.762  10.274 -0.2293 -0.4962 -0.5613
  145PROXR   C3 5254  14.673  11.882  10.248  0.2462  0.3418 -0.2926
  145PROXR  H31 5255  14.591  11.809  10.234  0.5570 -0.0376 -0.1743
  145PROXR  H32 5256  14.639  11.978  10.291 -1.3520 -0.4524  0.2958
  145PROXR  H33 5257  14.723  11.900  10.150 -0.7480 -1.7237 -1.2396
  146PROXS   O1 5258  14.733  11.748  10.445 -0.4143  0.7031 -0.1004
  146PROXS   C1 5259  14.657  11.822  10.539  0.6401  0.0894  0.9791
  146PROXS  H11 5260  14.728  11.854  10.619  0.1775  1.4107  0.8832
  146PROXS  H13 5261  14.612  11.908  10.485  2.2654 -0.3434 -1.2087
  146PROXS   C2 5262  14.550  11.737  10.597  0.0575 -1.0769 -0.2809
  146PROXS  H21 5263  14.593  11.638  10.624  2.3306  0.0624  0.5228
  146PROXS   C3 5264  14.438  11.735  10.486  0.0835 -0.1546 -0.1045
  146PROXS  H31 5265  14.500  11.697  10.402  2.2754 -1.4185  1.9715
  146PROXS  H32 5266  14.357  11.669  10.522 -1.4300  2.5015  1.6767
  146PROXS  H33 5267  14.410  11.831  10.437 -1.9046 -1.6378 -2.0956
  147PROXR   O1 5268  14.500  11.806  10.714 -0.0428 -0.5401 -0.2617
  147PROXR   C1 5269  14.392  11.740  10.781 -0.3416  0.2065  0.8951
  147PROXR  H11 5270  14.298  11.767  10.727 -0.8802  2.0688  2.6157
  147PROXR  H13 5271  14.405  11.630  10.782  0.9712  0.2790 -1.6757
  147PROXR   C2 5272  14.381  11.789  10.928  0.6014 -0.5621 -0.3168
  147PROXR  H21 5273  14.476  11.775  10.983  0.6123 -1.0660 -0.4566
  147PROXR   C3 5274  14.273  11.714  11.014 -0.1842  0.1612  0.0753
  147PROXR  H31 5275  14.305  11.739  11.117  0.2974  2.0285 -0.4916
  147PROXR  H32 5276  14.172  11.755  10.993 -0.2598  0.2926  0.6694
  147PROXR  H33 5277  14.279  11.604  11.000  0.1318  0.0991  0.6726
  148PROXR   O1 5278  14.338  11.922  10.936 -0.1997  0.8881  0.0716
  148PROXR   C1 5279  14.435  12.010  10.900  0.1570 -0.1737  0.2957
  148PROXR  H11 5280  14.535  11.971  10.928  0.5520 -0.2972 -1.1876
  148PROXR  H13 5281  14.427  12.024  10.790 -0.3713  1.7465  0.5343
  148PROXR   C2 5282  14.412  12.153  10.965  0.5359 -0.1482 -0.4185
  148PROXR  H21 5283  14.397  12.144  11.075 -3.0894 -0.7644 -0.8245
  148PROXR   C3 5284  14.281  12.221  10.928 -0.6296 -0.2599  0.4012
  148PROXR  H31 5285  14.197  12.149  10.941 -0.2744 -0.7186  0.1595
  148PROXR  H32 5286  14.280  12.316  10.985  2.5367  0.3445 -0.3762
  148PROXR  H33 5287  14.278  12.251  10.821 -1.8562 -1.3190  0.1064
  149PROXR   O1 5288  14.514  12.241  10.923 -0.2168 -0.3526  0.1074
  149PROXR   C1 5289  14.645  12.215  10.970 -0.3871  0.0130  0.2508
  149PROXR  H11 5290  14.661  12.283  11.057  1.9933  1.0368 -0.8944
  149PROXR  H13 5291  14.654  12.112  11.010  1.4631 -0.1444 -0.4751
  149PROXR   C2 5292  14.756  12.247  10.868 -0.1763  0.5023  0.7433
  149PROXR  H21 5293  14.772  12.357  10.875 -1.2280  0.6781  0.6684
  149PROXR   C3 5294  14.723  12.206  10.725 -0.1176 -0.1648 -0.1859
  149PROXR  H31 5295  14.685  12.103  10.736 -0.3256  0.1527  2.7888
  149PROXR  H32 5296  14.643  12.272  10.686 -1.6082 -1.7108  0.1338
  149PROXR  H33 5297  14.812  12.214  10.658  0.0510 -0.2896  0.0221
  150PROXS   O1 5298  14.866  12.169  10.916  0.4826 -0.2028 -0.0025
  150PROXS   C1 5299  14.994  12.212  10.863 -0.1869  0.5154  0.6450
  150PROXS  H11 5300  15.012  12.203  10.754  0.0780 -0.5083  0.7705
  150PROXS  H13 5301  14.998  12.320  10.889  1.4958  0.4787  0.5860
  150PROXS   C2 5302  15.105  12.123  10.921 -0.6252 -0.6092  0.3016
  150PROXS  H21 5303  15.093  12.114  11.031  2.0264  1.8965  0.9130
  150PROXS   C3 5304  15.247  12.174  10.886 -0.2359 -0.2686  0.1158
  150PROXS  H31 5305  15.321  12.120  10.949 -0.3363 -0.7067 -0.1361
  150PROXS  H32 5306  15.281  12.165  10.781  2.1515 -1.4586  0.9191
  150PROXS  H33 5307  15.240  12.282  10.912 -0.4684 -0.1379 -0.4674
  151PROXR   O1 5308  15.107  12.000  10.858  0.0796  0.2607  0.1298
  151PROXR   C1 5309  14.997  11.911  10.894  0.3742  0.1997  0.2227
  151PROXR  H11 5310  14.977  11.919  11.003  0.0421  0.7683  0.1244
  151PROXR  H13 5311  14.905  11.941  10.839  0.2572 -1.8481 -0.7892
  151PROXR   C2 5312  15.021  11.765  10.858  0.1319  1.1139  0.0972
  151PROXR  H21 5313  15.100  11.736  10.930  0.2716 -1.2871 -0.9510
  151PROXR   C3 5314  15.053  11.751  10.712 -0.6951 -0.2682  0.9531
  151PROXR  H31 5315  15.069  11.645  10.684 -0.5172 -0.3412  1.3407
  151PROXR  H32 5316  14.965  11.792  10.657  1.5046 -0.1878 -2.8702
  151PROXR  H33 5317  15.142  11.806  10.675  1.0321 -4.1032 -1.1448
  152PROXR   O1 5318  14.898  11.693  10.878 -0.3811 -0.3505 -0.0095
  152PROXR   C1 5319  14.917  11.559  10.923 -0.6160  0.1412 -0.2182
  152PROXR  H11 5320  15.006  11.527  10.865 -1.2032  0.5170 -1.3563
  152PROXR  H13 5321  14.934  11.559  11.033 -1.1439 -0.6746 -0.1320
  152PROXR   C2 5322  14.796  11.474  10.885 -0.7785  0.6963  0.0048
  152PROXR  H21 5323  14.781  11.494  10.777  3.1620  0.2876 -0.7872
  152PROXR   C3 5324  14.674  11.506  10.971  0.1805 -0.2969  0.1544
  152PROXR  H31 5325  14.691  11.495  11.080 -1.0542 -1.2062  0.2696
  152PROXR  H32 5326  14.643  11.612  10.958  1.3404 -0.0264 -0.6349
  152PROXR  H33 5327  14.594  11.433  10.945 -0.4045  0.4035 -0.0540
  153PROXR   O1 5328  14.833  11.341  10.913 -0.2749  0.2710 -0.2232
  153PROXR   C1 5329  14.899  11.273  10.804 -0.1665 -0.3212  0.4265
  153PROXR  H11 5330  14.843  11.273  10.708 -1.2544 -2.8575  1.0019
  153PROXR  H13 5331  14.990  11.332  10.775 -1.1930 -0.1532 -2.8584
  153PROXR   C2 5332  14.953  11.136  10.829 -0.4452 -0.2354 -0.0661
  153PROXR  H21 5333  14.862  11.080  10.858  0.6196 -1.4674  0.9645
  153PROXR   C3 5334  15.054  11.128  10.943  0.1145  0.0256  0.4157
  153PROXR  H31 5335  15.155  11.109  10.899 -0.9426 -1.8588 -1.3828
  153PROXR  H32 5336  15.052  11.217  11.008 -0.6349  0.0087  0.4250
  153PROXR  H33 5337  15.039  11.045  11.015  0.5332  0.5169  1.0742
  154PROXS   O1 5338  15.006  11.090  10.705  0.4268 -0.5491  0.4298
  154PROXS   C1 5339  15.004  10.946  10.704 -0.3744 -1.0164 -0.4329
  154PROXS  H11 5340  15.044  10.900  10.796  0.0740 -0.0103 -0.1075
  154PROXS  H13 5341  14.896  10.921  10.706 -1.7217  3.8051 -0.1654
  154PROXS   C2 5342  15.070  10.894  10.581  0.0458 -0.3851 -0.2550
  154PROXS  H21 5343  15.024  10.948  10.495 -0.5826 -3.0812 -1.7309
  154PROXS   C3 5344  15.030  10.744  10.560  0.4356  0.4604  0.0001
  154PROXS  H31 5345  15.108  10.682  10.609  1.6636  0.1193 -2.2673
  154PROXS  H32 5346  14.926  10.727  10.596  0.0809 -1.2365 -1.6380
  154PROXS  H33 5347  15.027  10.718  10.452  0.5602  2.9361 -0.6483
  155PROXR   O1 5348  15.208  10.908  10.596 -0.4425  0.0490  0.2274
  155PROXR   C1 5349  15.281  10.876  10.480  0.5443 -0.2101  0.3189
  155PROXR  H11 5350  15.286  10.767  10.461 -1.6813 -0.5705  1.5200
  155PROXR  H13 5351  15.246  10.906  10.379  0.7427 -0.4266  0.1838
  155PROXR   C2 5352  15.425  10.922  10.491 -1.0338 -0.3247  0.0492
  155PROXR  H21 5353  15.474  10.881  10.400 -0.5063 -1.1049  0.6665
  155PROXR   C3 5354  15.498  10.865  10.614 -0.1833  0.1672  0.5533
  155PROXR  H31 5355  15.428  10.869  10.700 -4.1322 -1.8455 -2.2666
  155PROXR  H32 5356  15.505  10.757  10.591 -1.3868  0.4689 -1.4220
  155PROXR  H33 5357  15.595  10.916  10.634 -0.6511  1.9268 -1.3488
  156PROXS   O1 5358  15.454  11.063  10.499  0.2662  0.8806  0.7455
  156PROXS   C1 5359  15.368  11.148  10.418  0.0407 -0.0292  0.0159
  156PROXS  H11 5360  15.363  11.100  10.318  0.5271  1.7290 -0.8970
  156PROXS  H13 5361  15.262  11.161  10.450  0.2128  3.3440 -0.4252
  156PROXS   C2 5362  15.438  11.283  10.400 -0.8451  0.2120  0.4134
  156PROXS  H21 5363  15.544  11.256  10.381 -0.8933  1.0049 -1.0924
  156PROXS   C3 5364  15.435  11.361  10.530 -0.0262 -0.2917 -0.8114
  156PROXS  H31 5365  15.452  11.291  10.614 -0.5767  1.1452  0.5436
  156PROXS  H32 5366  15.509  11.443  10.535 -2.2186  1.6842  2.0541
  156PROXS  H33 5367  15.334  11.399  10.557  0.4242 -1.0810  2.3104
  157PROXS   O1 5368  15.379  11.350  10.293 -0.4639  0.1820 -0.2191
  157PROXS   C1 5369  15.434  11.475  10.247 -0.8527  0.4929 -0.0135
  157PROXS  H11 5370  15.402  11.552  10.320 -3.2515 -0.4292 -0.0251
  157PROXS  H13 5371  15.544  11.471  10.234 -0.6944  2.2116  0.4993
  157PROXS   C2 5372  15.372  11.512  10.110 -0.0121  0.3114  0.3484
  157PROXS  H21 5373  15.264  11.514  10.133  0.1276 -1.6294  1.3944
  157PROXS   C3 5374  15.415  11.409  10.001  0.1186 -0.1745 -0.2338
  157PROXS  H31 5375  15.524  11.417   9.981  0.0140 -0.9137 -1.1360
  157PROXS  H32 5376  15.397  11.302  10.025  0.7330 -0.4256 -0.8799
  157PROXS  H33 5377  15.368  11.418   9.901 -1.7787 -2.8616  0.3006
  158PROXR   O1 5378  15.405  11.645  10.075 -0.2348  0.0726 -0.0631
  158PROXR   C1 5379  15.328  11.696   9.962  0.8126 -0.5624  0.4723
  158PROXR  H11 5380  15.399  11.748   9.894 -0.7778  2.8449  1.2596
  158PROXR  H13 5381  15.282  11.609   9.909  0.1358 -0.6702  1.2303
  158PROXR   C2 5382  15.221  11.805  10.006 -0.1504 -0.4425  0.5358
  158PROXR  H21 5383  15.284  11.870  10.070 -2.8802  0.8357  2.1077
  158PROXR   C3 5384  15.106  11.755  10.092  0.4817 -0.0675 -0.0302
  158PROXR  H31 5385  15.157  11.697  10.171  0.0979 -0.7166 -0.2506
  158PROXR  H32 5386  15.050  11.839  10.140  0.8120  1.6889 -2.5085
  158PROXR  H33 5387  15.039  11.688  10.035  0.1303 -0.3927  0.7462
  159PROXR   O1 5388  15.176  11.863   9.882  0.5039 -0.2985 -0.0059
  159PROXR   C1 5389  15.068  11.954   9.881 -1.0424 -0.2718  0.1610
  159PROXR  H11 5390  14.980  11.917   9.938  0.2098 -2.6425  0.7022
  159PROXR  H13 5391  15.117  12.043   9.925  2.8083 -0.7565 -2.6179
  159PROXR   C2 5392  15.038  12.002   9.736  0.2104 -0.8833 -0.1824
  159PROXR  H21 5393  15.000  11.920   9.671 -0.3589 -0.0349 -0.9565
  159PROXR   C3 5394  15.174  12.042   9.666 -0.0340 -0.1180  0.1282
  159PROXR  H31 5395  15.226  12.133   9.704 -0.0515  0.2522 -0.7068
  159PROXR  H32 5396  15.248  11.959   9.671 -0.3853 -0.4706 -0.4529
  159PROXR  H33 5397  15.154  12.066   9.559  2.5589  0.5647 -0.2823
  160PROXS   O1 5398  14.944  12.111   9.740  0.1114 -0.1768 -0.3926
  160PROXS   C1 5399  14.901  12.151   9.605 -1.0999  0.3429 -0.0312
  160PROXS  H11 5400  14.988  12.208   9.566 -1.0072  0.2961  0.1041
  160PROXS  H13 5401  14.875  12.067   9.537 -1.2960  1.8298 -1.8823
  160PROXS   C2 5402  14.775  12.236   9.619 -0.1503  0.0166 -0.9282
  160PROXS  H21 5403  14.791  12.313   9.697 -0.4544 -0.9941  0.1606
  160PROXS   C3 5404  14.662  12.133   9.653  0.2565 -0.3927  0.0212
  160PROXS  H31 5405  14.635  12.074   9.562 -1.4338  0.2798  0.0471
  160PROXS  H32 5406  14.692  12.065   9.735  0.4355  0.0201  0.2996
  160PROXS  H33 5407  14.574  12.192   9.686  0.4634  0.7516 -1.3618
  161PROXR   O1 5408  14.734  12.300   9.501  0.0091 -0.0908 -0.1010
  161PROXR   C1 5409  14.647  12.412   9.518 -0.2787  0.5809  0.0365
  161PROXR  H11 5410  14.570  12.381   9.591  1.3636 -2.6490  0.5992
  161PROXR  H13 5411  14.703  12.502   9.552  0.4441  0.8717 -1.8108
  161PROXR   C2 5412  14.581  12.463   9.390  0.1053 -0.9347  0.1128
  161PROXR  H21 5413  14.509  12.389   9.349 -0.2129 -0.9267  0.6531
  161PROXR   C3 5414  14.672  12.478   9.266  0.4558 -0.2275  0.0128
  161PROXR  H31 5415  14.616  12.474   9.170  0.4320  2.4033 -0.1516
  161PROXR  H32 5416  14.713  12.578   9.242 -1.3111  0.9845  1.7224
  161PROXR  H33 5417  14.755  12.404   9.263  0.1672 -0.5515 -0.1184
  162PROXR   O1 5418  14.499  12.577   9.424  0.7886 -0.4147 -0.0238
  162PROXR   C1 5419  14.410  12.607   9.315 -0.1548  0.2437  0.4430
  162PROXR  H11 5420  14.467  12.649   9.229 -2.1088  0.3359 -0.8547
  162PROXR  H13 5421  14.353  12.519   9.279  1.0930 -0.2487 -0.3905
  162PROXR   C2 5422  14.311  12.736   9.336  0.0161  0.4247  0.0374
  162PROXR  H21 5423  14.261  12.732   9.435  0.7859 -1.6912  0.3848
  162PROXR   C3 5424  14.201  12.733   9.231  0.0086  0.4253 -0.1066
  162PROXR  H31 5425  14.145  12.637   9.223  0.3085  0.2428 -0.0456
  162PROXR  H32 5426  14.118  12.804   9.252 -0.8120 -0.7734  0.8778
  162PROXR  H33 5427  14.252  12.769   9.139  1.3546  0.0690  0.4762
  163PROXS   O1 5428  14.379  12.859   9.306 -0.0724  0.0622 -0.1656
  163PROXS   C1 5429  14.471  12.890   9.411  0.0420  0.4986 -0.4393
  163PROXS  H11 5430  14.423  12.854   9.505  1.1184  0.8980  0.2858
  163PROXS  H13 5431  14.571  12.842   9.401 -0.1087 -0.2110  1.1113
  163PROXS   C2 5432  14.482  13.043   9.411  0.3650 -0.5192  0.0648
  163PROXS  H21 5433  14.381  13.080   9.436  0.6832  2.5480 -2.5847
  163PROXS   C3 5434  14.505  13.108   9.275  0.1079 -0.0600 -0.4722
  163PROXS  H31 5435  14.454  13.055   9.191 -1.3540  0.1514  0.2417
  163PROXS  H32 5436  14.472  13.214   9.264 -0.1300 -0.1306 -0.4485
  163PROXS  H33 5437  14.612  13.115   9.245  1.0699 -1.8058  2.2819
  164PROXR   O1 5438  14.572  13.085   9.513  0.3303  0.3102 -0.4808
  164PROXR   C1 5439  14.510  13.095   9.646  0.2047  0.2571  0.2627
  164PROXR  H11 5440  14.450  13.189   9.644 -0.8855 -0.4416 -0.4410
  164PROXR  H13 5441  14.447  13.005   9.664 -2.1955  2.2468  2.6769
  164PROXR   C2 5442  14.606  13.101   9.768 -0.9705 -0.3503  0.8284
  164PROXR  H21 5443  14.667  13.194   9.758  1.2250 -1.8561 -0.5248
  164PROXR   C3 5444  14.702  12.984   9.787 -0.2082 -0.0838 -0.5633
  164PROXR  H31 5445  14.794  12.988   9.726  0.7790  0.1990  0.8983
  164PROXR  H32 5446  14.736  12.974   9.892  1.0252 -0.3261 -0.9628
  164PROXR  H33 5447  14.647  12.889   9.768  1.7241 -2.3184  3.5767
  165PROXR   O1 5448  14.530  13.122   9.885  0.7682  0.7439  0.3175
  165PROXR   C1 5449  14.586  13.213   9.978  0.1769 -0.2939  0.2776
  165PROXR  H11 5450  14.679  13.171  10.022  0.3331  0.8159  1.0697
  165PROXR  H13 5451  14.622  13.304   9.925  0.9681 -1.1176 -0.6289
  165PROXR   C2 5452  14.486  13.242  10.096  0.2918 -0.6226  0.5323
  165PROXR  H21 5453  14.460  13.147  10.148 -3.2358  1.7107  3.5849
  165PROXR   C3 5454  14.350  13.303  10.052 -0.0893  0.5253  0.3553
  165PROXR  H31 5455  14.312  13.261   9.956  0.1053  0.1347  0.4505
  165PROXR  H32 5456  14.266  13.291  10.123  0.0981  0.5666  0.5831
  165PROXR  H33 5457  14.365  13.411  10.031  0.9078  0.6272  1.5576
  166ETHOX   O1 5458  14.543  13.330  10.195 -0.7408  0.1980  0.0003
  166ETHOX   C1 5459  14.517  13.302  10.329 -0.3640  0.1996 -0.2708
  166ETHOX  H11 5460  14.505  13.194  10.351  4.3234 -0.9103 -2.0370
  166ETHOX  H13 5461  14.419  13.343  10.363 -0.4605 -0.7125  0.6083
  166ETHOX   C2 5462  14.626  13.356  10.423 -0.1104 -0.7146 -0.1521
  166ETHOX  H21 5463  14.641  13.464  10.404  0.3955 -0.5727  1.0057
  166ETHOX  H23 5464  14.714  13.299  10.386 -0.1661 -1.3352  0.6371
  167ETHOX   O1 5465  14.587  13.310  10.557  0.5949  1.0461  0.0911
  167ETHOX   C1 5466  14.667  13.374  10.653 -0.5488  0.0987 -1.4806
  167ETHOX  H11 5467  14.716  13.468  10.621  2.0466 -0.4026  0.6531
  167ETHOX  H13 5468  14.607  13.383  10.747  0.0525 -0.3736 -1.0447
  167ETHOX   C2 5469  14.775  13.268  10.691  0.5850 -0.5458 -0.3189
  167ETHOX  H21 5470  14.727  13.179  10.738 -0.5508 -0.5400 -1.3969
  167ETHOX  H23 5471  14.836  13.310  10.773  1.2876  0.4138 -1.2940
  168ETHOX   O1 5472  14.854  13.231  10.578 -0.0938  0.5519  0.4715
  168ETHOX   C1 5473  14.949  13.133  10.611  0.3703 -0.1538 -0.6524
  168ETHOX  H11 5474  15.001  13.095  10.520 -0.3302  3.5552 -2.8077
  168ETHOX  H13 5475  14.893  13.049  10.657 -0.7930  0.6251 -0.6081
  168ETHOX   C2 5476  15.060  13.181  10.711 -0.5201  0.0849 -0.0459
  168ETHOX  H21 5477  15.122  13.093  10.735  0.4724  1.1564  1.4690
  168ETHOX  H23 5478  15.022  13.218  10.809  0.9949 -2.2489  1.5147
  169ETHOX   O1 5479  15.142  13.275  10.647  0.4157 -0.2242  0.2319
  169ETHOX   C1 5480  15.254  13.322  10.717 -0.6231  0.3871  0.3068
  169ETHOX  H11 5481  15.216  13.344  10.819 -2.8260  0.6411 -0.4973
  169ETHOX  H13 5482  15.330  13.241  10.720 -0.0954  0.7315 -1.8526
  169ETHOX   C2 5483  15.313  13.443  10.649 -0.3060  0.3988 -0.0292
  169ETHOX  H21 5484  15.347  13.414  10.547 -0.4548 -0.5240  0.1760
  169ETHOX  H23 5485  15.404  13.464  10.709  0.1923 -2.7915  0.5073
  170ETHOX   O1 5486  15.227  13.557  10.644 -0.1327  0.0631 -0.7440
  170ETHOX   C1 5487  15.308  13.669  10.646  0.0128 -0.5542  0.4227
  170ETHOX  H11 5488  15.376  13.656  10.559 -1.3157  0.9746 -0.9316
  170ETHOX  H13 5489  15.373  13.668  10.735 -2.4115  1.8307  2.3934
  170ETHOX   C2 5490  15.235  13.802  10.613  0.3533 -0.1406  0.6284
  170ETHOX  H21 5491  15.233  13.867  10.703  0.1505 -0.9715  1.2268
  170ETHOX  H23 5492  15.128  13.777  10.601 -0.7748  4.4482 -0.9228
  171ETHOX   O1 5493  15.280  13.861  10.494  1.1198 -0.1218  0.4577
  171ETHOX   C1 5494  15.216  13.989  10.485 -0.5655  0.4937 -0.1636
  171ETHOX  H11 5495  15.109  13.962  10.498 -0.5585  0.3429 -0.4163
  171ETHOX  H13 5496  15.238  14.048  10.576 -1.0566 -0.9711  0.9472
  171ETHOX   C2 5497  15.246  14.060  10.349  0.8773  0.2790 -0.3726
  171ETHOX  H21 5498  15.299  13.995  10.277  0.1247 -0.4492 -0.2839
  171ETHOX  H23 5499  15.317  14.142  10.372  1.4720 -0.7376  1.6300
  172ETHOX   O1 5500  15.123  14.107  10.288  0.1650 -0.0437 -0.3300
  172ETHOX   C1 5501  15.058  14.000  10.223  0.2656  0.2651  0.5769
  172ETHOX  H11 5502  15.041  13.928  10.306  1.1268  0.2817  0.7711
  172ETHOX  H13 5503  15.127  13.949  10.153  0.9846  1.2855  0.5319
  172ETHOX   C2 5504  14.923  14.018  10.163 -0.0781  0.0313  0.3781
  172ETHOX  H21 5505  14.861  14.076  10.234  0.0623  1.8443 -0.9097
  172ETHOX  H23 5506  14.883  13.916  10.144  0.2467  0.3136 -2.1928
  173ETHOX   O1 5507  14.926  14.090  10.038  0.0822  0.0350 -0.4084
  173ETHOX   C1 5508  14.799  14.088   9.969  0.0739  0.7319 -0.4008
  173ETHOX  H11 5509  14.797  13.994   9.910  1.3399  1.0745 -1.0244
  173ETHOX  H13 5510  14.719  14.097  10.046 -0.4696 -0.2706 -0.8288
  173ETHOX   C2 5511  14.787  14.212   9.865  0.1288 -0.4191 -0.0744
  173ETHOX  H21 5512  14.680  14.241   9.866 -0.2453 -1.7584 -0.0879
  173ETHOX  H23 5513  14.852  14.297   9.896 -0.7171  0.4860 -0.7014
  174ETHOX   O1 5514  14.821  14.166   9.732  0.4282  0.5634 -0.3898
  174ETHOX   C1 5515  14.730  14.212   9.630 -0.3730  0.7865  0.2131
  174ETHOX  H11 5516  14.744  14.146   9.542  0.8420 -1.3046  1.8997
  174ETHOX  H13 5517  14.626  14.214   9.669 -0.8198  2.7408 -0.8945
  174ETHOX   C2 5518  14.746  14.353   9.585 -0.4801 -0.3212  0.3094
  174ETHOX  H21 5519  14.737  14.425   9.669  1.8287  2.9032 -1.9439
  174ETHOX  H23 5520  14.661  14.366   9.515 -1.7284 -4.8501  0.6729
  175ETHOX   O1 5521  14.866  14.386   9.520  0.0705 -0.2237  0.8411
  175ETHOX   C1 5522  14.835  14.496   9.431  0.3587  0.0475 -0.6071
  175ETHOX  H11 5523  14.755  14.467   9.359 -2.0584  2.4296  0.9175
  175ETHOX  H13 5524  14.786  14.573   9.494  3.0025  1.4239 -0.1059
  175ETHOX   C2 5525  14.967  14.540   9.366  0.1706 -0.1514 -0.6453
  175ETHOX  H21 5526  14.958  14.641   9.321  0.7732  0.3493  0.3092
  175ETHOX  H23 5527  15.006  14.474   9.286  2.8413  0.5826 -0.0732
  176ETHOX   O1 5528  15.074  14.545   9.463  0.0405 -0.1726  0.3401
  176ETHOX   C1 5529  15.049  14.640   9.566  0.9523  0.1966 -0.0746
  176ETHOX  H11 5530  14.988  14.724   9.526 -0.8746 -0.2337  1.6219
  176ETHOX  H13 5531  14.992  14.595   9.650  1.1353  0.3127  0.1133
  176ETHOX   C2 5532  15.171  14.708   9.615  0.1886  0.0152 -0.0063
  176ETHOX  H21 5533  15.151  14.780   9.697 -0.0767  1.2522 -1.1219
  176ETHOX  H23 5534  15.215  14.764   9.530 -0.4103 -1.4745 -1.3675
  177ETHOX   O1 5535  15.259  14.607   9.660  0.5409 -0.0906  0.0315
  177ETHOX   C1 5536  15.378  14.662   9.712  0.7336  0.2435 -0.3048
  177ETHOX  H11 5537  15.352  14.714   9.807 -0.5077 -0.4036 -0.2713
  177ETHOX  H13 5538  15.424  14.727   9.635  1.7499 -0.3947 -0.2706
  177ETHOX   C2 5539  15.492  14.567   9.743 -0.4584 -0.7011  0.2081
  177ETHOX  H21 5540  15.460  14.478   9.801  0.7989  0.7904  3.4687
  177ETHOX  H23 5541  15.568  14.622   9.804  0.2974 -1.3657 -0.1088
  178ETHOX   O1 5542  15.548  14.533   9.616  0.2912  0.9238  0.1481
  178ETHOX   C1 5543  15.664  14.439   9.627 -0.1079 -0.4285  0.5609
  178ETHOX  H11 5544  15.728  14.464   9.714  1.9354 -2.1989 -0.3265
  178ETHOX  H13 5545  15.626  14.335   9.641  0.8107 -0.9794 -0.8531
  178ETHOX   C2 5546  15.753  14.452   9.496 -0.3404  0.5102 -0.4106
  178ETHOX  H21 5547  15.850  14.407   9.523 -1.3480 -0.5897  1.5327
  178ETHOX  H23 5548  15.759  14.561   9.475 -0.7974  0.8712  1.1783
  179ETHOX   O1 5549  15.697  14.383   9.383 -0.4074  0.6002 -0.0434
  179ETHOX   C1 5550  15.779  14.393   9.265 -0.2287 -0.0457 -0.0477
  179ETHOX  H11 5551  15.873  14.341   9.292 -1.4565 -0.9356  2.9089
  179ETHOX  H13 5552  15.805  14.498   9.239 -1.7462  0.6702  1.1863
  179ETHOX   C2 5553  15.734  14.305   9.137  0.2625 -0.4034  0.0549
  179ETHOX  H21 5554  15.664  14.224   9.167  1.6798 -1.7796 -0.2942
  179ETHOX  H23 5555  15.827  14.251   9.112  1.1837  0.3222  1.7309
  180ETHOX   O1 5556  15.679  14.385   9.035  0.3039 -0.1343  0.1895
  180ETHOX   C1 5557  15.649  14.317   8.915  0.4976 -0.2822 -0.3309
  180ETHOX  H11 5558  15.740  14.258   8.887  0.6628  0.0281 -0.4550
  180ETHOX  H13 5559  15.574  14.237   8.933  0.4960 -0.3051 -0.4392
  180ETHOX   C2 5560  15.623  14.409   8.795  0.0434  0.5254  0.1846
  180ETHOX  H21 5561  15.665  14.509   8.818 -0.2207  0.4350  1.0716
  180ETHOX  H23 5562  15.513  14.423   8.797 -0.1433  0.6722 -3.4616
  181ETHOX   O1 5563  15.639  14.348   8.668 -0.4806  0.4470 -0.1574
  181ETHOX   C1 5564  15.562  14.396   8.562  0.5473 -0.4369  0.4785
  181ETHOX  H11 5565  15.592  14.501   8.542 -0.8411 -0.1988 -0.4935
  181ETHOX  H13 5566  15.455  14.393   8.590  0.0948  0.5767 -1.0158
  181ETHOX   C2 5567  15.573  14.309   8.430  0.5754 -0.0251  0.0723
  181ETHOX  H21 5568  15.680  14.312   8.400  1.0140 -1.0698  1.4047
  181ETHOX  H23 5569  15.515  14.357   8.349 -2.2394  0.8309  2.4190
  182ETHOX   O1 5570  15.532  14.176   8.448  0.5092 -0.5434  0.3959
  182ETHOX   C1 5571  15.552  14.105   8.326 -0.3841 -0.4150  0.4133
  182ETHOX  H11 5572  15.499  14.154   8.243 -0.9485  0.5190  1.3021
  182ETHOX  H13 5573  15.652  14.120   8.280 -0.2372  1.4300  1.2394
  182ETHOX   C2 5574  15.520  13.951   8.342  0.0513 -0.8318  0.0978
  182ETHOX  H21 5575  15.412  13.943   8.369  0.4945 -1.1084  1.9054
  182ETHOX  H23 5576  15.578  13.905   8.425 -0.4693  1.0872  1.6186
  183ETHOX   O1 5577  15.548  13.875   8.230  1.0685 -0.6808  0.8113
  183ETHOX   C1 5578  15.493  13.745   8.242  0.0955  0.5347 -0.3622
  183ETHOX  H11 5579  15.386  13.750   8.271  0.2702 -2.6103  1.2106
  183ETHOX  H13 5580  15.541  13.703   8.333 -0.2583  2.6669  0.9024
  183ETHOX   C2 5581  15.530  13.647   8.138  0.1363  0.0556  0.1805
  183ETHOX  H21 5582  15.487  13.547   8.159  0.2568  0.1583  0.9386
  183ETHOX  H23 5583  15.640  13.631   8.131 -0.2157 -3.1394  0.6211
  184ETHOX   O1 5584  15.462  13.679   8.020 -0.8179  0.5289 -0.2261
  184ETHOX   C1 5585  15.512  13.608   7.914 -0.5498 -0.0553 -0.6670
  184ETHOX  H11 5586  15.616  13.646   7.899  0.5083 -0.7000  3.6703
  184ETHOX  H13 5587  15.518  13.501   7.944  0.3081 -0.6892 -2.8476
  184ETHOX   C2 5588  15.421  13.627   7.797  0.7954 -0.4491 -0.3928
  184ETHOX  H21 5589  15.480  13.685   7.723  1.6452  0.8113  1.1979
  184ETHOX  H23 5590  15.338  13.692   7.834  0.8244 -0.2418 -0.6902
  185ETHOX   O1 5591  15.365  13.496   7.753  0.1387  0.5132 -0.1845
  185ETHOX   C1 5592  15.323  13.482   7.619 -0.2228 -0.3240  0.0978
  185ETHOX  H11 5593  15.242  13.407   7.612 -1.2912  0.9106 -1.3963
  185ETHOX  H13 5594  15.283  13.579   7.584  0.5192 -0.1434 -0.2736
  185ETHOX   C2 5595  15.437  13.438   7.525 -0.5849  0.2968 -0.1076
  185ETHOX  H21 5596  15.536  13.480   7.553  0.5204 -1.9197 -0.3896
  185ETHOX  H23 5597  15.424  13.465   7.418  0.9950 -1.9193 -0.9528
  186ETHOX   O1 5598  15.446  13.296   7.536 -0.6827  0.6306  0.1227
  186ETHOX   C1 5599  15.565  13.243   7.479  0.2651 -0.1409  0.2921
  186ETHOX  H11 5600  15.542  13.248   7.370 -0.8739 -2.9925  0.3212
  186ETHOX  H13 5601  15.651  13.311   7.496 -0.8932  1.0888  1.4300
  186ETHOX   C2 5602  15.584  13.097   7.521 -0.7922  0.1313 -0.3311
  186ETHOX  H21 5603  15.654  13.043   7.453 -1.9031 -0.5039 -1.0006
  186ETHOX  H23 5604  15.492  13.035   7.522  0.7394 -2.2948 -0.3568
  187ETHOX   O1 5605  15.635  13.091   7.650  0.0451 -0.4951 -0.0625
  187ETHOX   C1 5606  15.655  12.956   7.681  0.3139 -0.4905  0.0099
  187ETHOX  H11 5607  15.559  12.906   7.658 -1.0897  1.4609  1.2612
  187ETHOX  H13 5608  15.741  12.913   7.625  0.9004  0.4752  0.1433
  187ETHOX   C2 5609  15.681  12.940   7.835  0.2364  0.6549  0.2924
  187ETHOX  H21 5610  15.683  12.831   7.857 -1.2655  1.1584  3.6725
  187ETHOX  H23 5611  15.597  12.989   7.890 -0.2854  3.8084 -2.8866
  188ETHOX   O1 5612  15.801  12.997   7.878  0.3249  0.3470  0.0799
  188ETHOX   C1 5613  15.810  12.987   8.024  0.5905 -0.1301  0.3647
  188ETHOX  H11 5614  15.787  12.883   8.056  2.0849 -1.3605 -2.1895
  188ETHOX  H13 5615  15.736  13.061   8.059  0.1760 -0.1148 -0.5213
  188ETHOX   C2 5616  15.949  13.025   8.066 -0.4707  0.1816 -0.1055
  188ETHOX  H21 5617  15.940  13.056   8.173  0.4681 -1.1420  0.3851
  188ETHOX  H23 5618  15.978  13.116   8.009 -3.5952  1.7906  0.6469
  189ETHOX   O1 5619  16.043  12.919   8.047 -0.1156 -0.1070 -0.2885
  189ETHOX   C1 5620  16.169  12.973   8.008  0.4653 -0.1937 -0.0313
  189ETHOX  H11 5621  16.160  13.045   7.924 -1.9671 -1.9516 -1.4137
  189ETHOX  H13 5622  16.200  13.042   8.090  0.6743  3.1575 -2.6775
  189ETHOX   C2 5623  16.275  12.864   7.981  0.0077 -0.0416  0.0465
  189ETHOX  H21 5624  16.365  12.908   7.934 -0.4214 -0.6252 -1.3593
  189ETHOX  H23 5625  16.239  12.785   7.912  0.1981 -0.3385  0.2881
  190ETHOX   O1 5626  16.309  12.809   8.108  0.0533  0.2573  0.4447
  190ETHOX   C1 5627  16.232  12.690   8.131 -0.4296  0.0376  0.3534
  190ETHOX  H11 5628  16.261  12.616   8.054  1.3093  0.0941  0.8960
  190ETHOX  H13 5629  16.122  12.701   8.130 -0.6136 -1.2816  1.9114
  190ETHOX   C2 5630  16.269  12.638   8.274 -0.4069 -0.2056  0.5800
  190ETHOX  H21 5631  16.201  12.553   8.292 -2.6156  1.8614  2.8624
  190ETHOX  H23 5632  16.251  12.730   8.335 -2.0145  2.7253 -3.7961
  191ETHOX   O1 5633  16.411  12.597   8.278 -0.4889  0.2532  0.2723
  191ETHOX   C1 5634  16.452  12.566   8.410 -0.3170  0.2816  0.1886
  191ETHOX  H11 5635  16.419  12.647   8.479  1.2811  1.2966 -0.1741
  191ETHOX  H13 5636  16.412  12.468   8.443 -2.2204  1.3317  1.2298
  191ETHOX   C2 5637  16.605  12.569   8.422 -1.1487 -0.0332  0.0418
  191ETHOX  H21 5638  16.631  12.582   8.529 -2.1179  1.3378  0.1332
  191ETHOX  H23 5639  16.654  12.660   8.380 -0.8435  0.0291  0.5272
  192ETHOX   O1 5640  16.671  12.459   8.361  0.3164 -0.1353 -0.0293
  192ETHOX   C1 5641  16.809  12.484   8.345  0.1922  0.5236 -0.1194
  192ETHOX  H11 5642  16.859  12.511   8.441  2.7738  0.2993 -1.3171
  192ETHOX  H13 5643  16.828  12.564   8.271  2.1958  1.4281  1.2790
  192ETHOX   C2 5644  16.870  12.347   8.298 -0.3016 -0.3125  0.0251
  192ETHOX  H21 5645  16.969  12.377   8.255 -0.4858  1.0820  0.5209
  192ETHOX  H23 5646  16.814  12.298   8.215 -0.0598  0.4534 -0.6048
  193ETHOX   O1 5647  16.869  12.251   8.406 -0.9775  0.7253  0.1972
  193ETHOX   C1 5648  16.998  12.187   8.422  0.0165 -0.4701  0.0279
  193ETHOX  H11 5649  17.035  12.163   8.320  0.0974  0.7124 -0.2348
  193ETHOX  H13 5650  17.067  12.254   8.477 -0.8976  0.0331  0.5752
  193ETHOX   C2 5651  16.988  12.049   8.486  1.0022  0.4589 -0.2382
  193ETHOX  H21 5652  17.071  11.979   8.463 -0.9410 -2.6193  1.3203
  193ETHOX  H23 5653  16.892  12.004   8.451  1.3025 -1.7338  1.4963
  194ETHOX   O1 5654  16.970  12.066   8.628 -0.0718  0.6157 -0.0919
  194ETHOX   C1 5655  16.915  11.945   8.682 -0.2600  0.2928  0.3892
  194ETHOX  H11 5656  16.996  11.870   8.678 -0.8517 -0.3605  0.5428
  194ETHOX  H13 5657  16.829  11.906   8.624  0.8900 -0.4734 -0.8528
  194ETHOX   C2 5658  16.858  11.949   8.834 -0.0659 -0.8396 -0.2931
  194ETHOX  H21 5659  16.783  11.868   8.847  0.6369 -2.1278 -3.2721
  194ETHOX  H23 5660  16.811  12.048   8.851 -1.0424 -1.4007  0.3254
  195ETHOX   O1 5661  16.952  11.919   8.931  0.3783  0.1977 -0.5224
  195ETHOX   C1 5662  16.909  11.955   9.063 -0.1403 -0.3573  0.4927
  195ETHOX  H11 5663  16.900  12.066   9.064  1.9571 -0.1386  0.6801
  195ETHOX  H13 5664  16.810  11.907   9.079 -0.0461  0.3196  3.8819
  195ETHOX   C2 5665  17.013  11.917   9.161  0.4024 -0.2853 -0.0427
  195ETHOX  H21 5666  17.109  11.969   9.141 -0.8746  2.4166  0.3216
  195ETHOX  H23 5667  17.024  11.807   9.163  1.0633 -0.2177  1.7266
  196ETHOX   O1 5668  16.980  11.957   9.295 -0.2380  0.2009 -0.2219
  196ETHOX   C1 5669  17.083  11.925   9.382  0.5249  0.1997 -0.5418
  196ETHOX  H11 5670  17.184  11.954   9.346  0.2837  3.5257  1.0865
  196ETHOX  H13 5671  17.064  11.993   9.467 -0.3859 -0.2991 -0.3285
  196ETHOX   C2 5672  17.082  11.780   9.445 -0.2032  0.3751 -0.2523
  196ETHOX  H21 5673  17.178  11.767   9.499  0.2503  1.1112 -0.8466
  196ETHOX  H23 5674  17.076  11.704   9.364 -1.1234  0.0067  0.1592
  197ETHOX   O1 5675  16.966  11.763   9.524  0.2055  0.5062 -0.1170
  197ETHOX   C1 5676  16.992  11.758   9.666 -0.9948  1.2772 -0.0956
  197ETHOX  H11 5677  17.079  11.691   9.683 -0.4467  1.7277 -1.0282
  197ETHOX  H13 5678  17.022  11.859   9.701 -0.9457  1.0052  0.6479
  197ETHOX   C2 5679  16.860  11.722   9.738 -0.9116 -0.5494 -0.7115
  197ETHOX  H21 5680  16.876  11.736   9.847 -1.7536  1.9903 -0.8583
  197ETHOX  H23 5681  16.822  11.621   9.711 -1.9376  0.1895 -2.1622
  198ETHOX   O1 5682  16.748  11.800   9.699  0.5600  0.6757 -0.2827
  198ETHOX   C1 5683  16.633  11.772   9.782  0.6485  0.4434  0.4141
  198ETHOX  H11 5684  16.604  11.666   9.767  3.4298 -0.1981 -1.1360
  198ETHOX  H13 5685  16.659  11.799   9.886  2.9605 -0.8886  0.2480
  198ETHOX   C2 5686  16.521  11.859   9.739  0.2682 -0.3072 -0.0374
  198ETHOX  H21 5687  16.423  11.838   9.787  0.2462 -1.0404 -0.3966
  198ETHOX  H23 5688  16.511  11.837   9.631  1.2528 -1.3610  0.0682
  199ETHOX   O1 5689  16.559  11.992   9.745 -0.5433  0.2480  0.3078
  199ETHOX   C1 5690  16.454  12.083   9.725 -0.4745  0.2970  0.1784
  199ETHOX  H11 5691  16.376  12.024   9.671  0.6663 -1.5371  0.4282
  199ETHOX  H13 5692  16.492  12.163   9.659  0.8380 -0.3297  0.1408
  199ETHOX   C2 5693  16.388  12.138   9.850  0.3149  0.4248 -0.5572
  199ETHOX  H21 5694  16.353  12.055   9.916 -0.7371  2.0413  1.0298
  199ETHOX  H23 5695  16.299  12.197   9.819  0.8278  1.7075  0.3113
  200ETHOX   O1 5696  16.468  12.221   9.928  0.0004  0.3800  0.6687
  200ETHOX   C1 5697  16.393  12.290  10.026  0.8736  0.4311  0.6782
  200ETHOX  H11 5698  16.315  12.353   9.978  1.9379  1.9359  0.8792
  200ETHOX  H13 5699  16.343  12.212  10.088 -2.0799 -0.4908 -2.5020
  200ETHOX   C2 5700  16.490  12.373  10.110  0.8050  1.0319 -0.1556
  200ETHOX  H21 5701  16.583  12.328  10.152  0.3387  0.7456  0.5767
  200ETHOX  H23 5702  16.435  12.392  10.204  2.3991 -1.3401  1.3692
  201ETHOX   O1 5703  16.524  12.491  10.039 -0.0593 -0.3595 -0.3659
  201ETHOX   C1 5704  16.597  12.570  10.130 -0.1772 -0.0841  1.1715
  201ETHOX  H11 5705  16.668  12.513  10.193 -1.7572 -0.7654  2.4059
  201ETHOX  H13 5706  16.520  12.618  10.193  0.6896  1.5486  1.0261
  201ETHOX   C2 5707  16.668  12.680  10.056  0.6782 -0.2447 -0.6440
  201ETHOX  H21 5708  16.667  12.775  10.113 -0.7506 -1.0236  0.7238
  201ETHOX  H23 5709  16.621  12.691   9.956  1.0082  1.2815 -0.6611
  202ETHOX   O1 5710  16.801  12.657  10.047  0.2966 -0.5311 -0.2824
  202ETHOX   C1 5711  16.869  12.752   9.961  0.1204 -1.2322  0.6367
  202ETHOX  H11 5712  16.810  12.765   9.868  1.6382  0.4386 -0.1655
  202ETHOX  H13 5713  16.872  12.850  10.013 -0.8614 -1.0967  0.4541
  202ETHOX   C2 5714  17.010  12.718   9.923  0.4042 -0.1795 -1.0487
  202ETHOX  H21 5715  17.064  12.681  10.012  0.0558  0.4256 -0.5822
  202ETHOX  H23 5716  17.063  12.809   9.887  1.4716 -0.8003 -1.1213
  203ETHOX   O1 5717  17.010  12.609   9.827 -0.1180 -0.1228  0.0248
  203ETHOX   C1 5718  17.138  12.584   9.770 -0.0735  0.4771 -0.1466
  203ETHOX  H11 5719  17.174  12.484   9.802 -1.5458  0.2735  0.9711
  203ETHOX  H13 5720  17.198  12.670   9.808 -2.7515  1.8945  1.1609
  203ETHOX   C2 5721  17.136  12.603   9.622 -0.5273  0.1524  0.1440
  203ETHOX  H21 5722  17.242  12.601   9.588 -1.3024 -1.3887 -2.4644
  203ETHOX  H23 5723  17.082  12.691   9.580  1.0774 -0.6588 -4.1760
  204ETHOX   O1 5724  17.065  12.496   9.553  0.0077  0.0626  0.4604
  204ETHOX   C1 5725  17.112  12.490   9.417  0.1635  0.7529 -0.3462
  204ETHOX  H11 5726  17.092  12.583   9.360 -2.0793 -0.7770 -2.2517
  204ETHOX  H13 5727  17.222  12.479   9.424  0.0409 -0.7114 -0.2952
  204ETHOX   C2 5728  17.052  12.364   9.343 -0.3552 -0.2753 -0.3829
  204ETHOX  H21 5729  17.062  12.273   9.405  1.1048  0.3766  0.3870
  204ETHOX  H23 5730  17.108  12.347   9.249  0.6341 -1.1479  0.3380
  205ETHOX   O1 5731  16.912  12.390   9.300  0.1345  0.1704 -0.5653
  205ETHOX   C1 5732  16.868  12.286   9.215 -0.7032 -0.0018 -0.5078
  205ETHOX  H11 5733  16.861  12.194   9.278  0.6280  1.3847  1.8372
  205ETHOX  H13 5734  16.945  12.266   9.138 -0.8772  0.0787 -0.7010
  205ETHOX   C2 5735  16.731  12.310   9.153 -0.0436 -0.8681  0.8642
  205ETHOX  H21 5736  16.693  12.221   9.099  0.9100  0.2473 -1.8162
  205ETHOX  H23 5737  16.744  12.384   9.071  2.0103 -0.2640  1.6711
  206ETHOX   O1 5738  16.636  12.343   9.253 -0.3580 -0.3904  0.4173
  206ETHOX   C1 5739  16.504  12.364   9.207 -0.1882  0.3099 -0.3688
  206ETHOX  H11 5740  16.486  12.283   9.133  0.7143 -0.8243  0.6208
  206ETHOX  H13 5741  16.427  12.339   9.284 -1.2258 -2.5459 -2.1620
  206ETHOX   C2 5742  16.474  12.497   9.143  0.9176  0.3770  0.3962
  206ETHOX  H21 5743  16.365  12.517   9.151  1.1894  1.6318  1.3154
  206ETHOX  H23 5744  16.518  12.578   9.205  0.4055  0.7380  0.2928
  207ETHOX   O1 5745  16.524  12.497   9.007 -0.0444  0.4603  0.2246
  207ETHOX   C1 5746  16.469  12.621   8.946  0.7035 -0.0020 -0.2767
  207ETHOX  H11 5747  16.545  12.697   8.976  0.1718  0.3778  0.1245
  207ETHOX  H13 5748  16.378  12.659   8.997 -0.1994 -0.7125 -1.3400
  207ETHOX   C2 5749  16.446  12.620   8.797 -0.0441 -0.5122  0.0800
  207ETHOX  H21 5750  16.544  12.592   8.753 -1.2494 -1.4797 -2.1324
  207ETHOX  H23 5751  16.422  12.716   8.748 -1.0029 -0.5062  0.5363
  208ETHOX   O1 5752  16.358  12.525   8.741  0.0081  0.3316  0.2797
  208ETHOX   C1 5753  16.225  12.569   8.745 -0.7522 -0.5043 -0.2444
  208ETHOX  H11 5754  16.212  12.624   8.840  0.7285 -0.0670 -0.2708
  208ETHOX  H13 5755  16.216  12.639   8.659  1.1396  0.9149  0.6387
  208ETHOX   C2 5756  16.130  12.454   8.736  0.3381 -0.1613 -0.2497
  208ETHOX  H21 5757  16.032  12.506   8.742  1.4312  1.9423  0.2851
  208ETHOX  H23 5758  16.150  12.382   8.819  1.6742  0.8159  0.3125
  209ETHOX   O1 5759  16.134  12.392   8.606  0.1189 -0.5919  0.3309
  209ETHOX   C1 5760  16.037  12.287   8.601 -0.4679 -0.7469 -0.1279
  209ETHOX  H11 5761  15.939  12.338   8.589 -0.5445 -1.0000 -0.6230
  209ETHOX  H13 5762  16.042  12.222   8.690  0.1320 -2.9211 -1.6670
  209ETHOX   C2 5763  16.066  12.201   8.472  1.1240  0.5559 -0.6062
  209ETHOX  H21 5764  16.016  12.103   8.483 -0.1536  1.2639  0.1903
  209ETHOX  H23 5765  16.176  12.188   8.468  1.1617  0.9884 -1.1489
  210ETHOX   O1 5766  16.030  12.255   8.348 -0.0798 -0.1659 -0.1915
  210ETHOX   C1 5767  16.094  12.179   8.243 -0.7488  0.5034  0.5772
  210ETHOX  H11 5768  16.083  12.238   8.150 -1.2958  0.0434  0.3448
  210ETHOX  H13 5769  16.202  12.159   8.256 -0.5188  1.5503  0.3986
  210ETHOX   C2 5770  16.022  12.039   8.217 -0.6116 -0.5241  0.4355
  210ETHOX  H21 5771  16.072  12.009   8.123  0.9772  0.3205  0.9587
  210ETHOX  H23 5772  15.912  12.056   8.215 -0.3758  2.9818  3.7597
  211ETHOX   O1 5773  16.074  11.942   8.310 -0.0642 -0.1807  0.1657
  211ETHOX   C1 5774  16.007  11.817   8.295  0.4011  1.2865  0.1178
  211ETHOX  H11 5775  15.899  11.842   8.285 -0.1785  0.1584  2.5700
  211ETHOX  H13 5776  16.037  11.761   8.204 -1.1195 -0.9762  0.9201
  211ETHOX   C2 5777  16.024  11.718   8.417  0.4197  0.2019  0.0884
  211ETHOX  H21 5778  16.127  11.717   8.458  1.9095  0.7589 -3.2553
  211ETHOX  H23 5779  16.016  11.610   8.390  0.8581  0.2660 -0.3173
  212ETHOX   O1 5780  15.925  11.745   8.517 -0.0828  0.2891  0.7676
  212ETHOX   C1 5781  15.897  11.633   8.605  0.0215 -0.6246 -0.3095
  212ETHOX  H11 5782  15.882  11.535   8.555 -0.7885 -0.5146 -0.3071
  212ETHOX  H13 5783  15.983  11.626   8.674 -0.3429 -1.1082  0.0972
  212ETHOX   C2 5784  15.772  11.674   8.679 -0.4637 -0.4931  0.4488
  212ETHOX  H21 5785  15.742  11.580   8.731 -1.5699 -0.7091 -0.5400
  212ETHOX  H23 5786  15.702  11.710   8.601  0.1615  0.1893  0.1892
  213ETHOX   O1 5787  15.791  11.782   8.777 -0.4887  0.2501 -0.1915
  213ETHOX   C1 5788  15.678  11.802   8.856 -0.1012 -0.6893 -0.3861
  213ETHOX  H11 5789  15.594  11.839   8.793 -0.3861 -1.4091 -0.4418
  213ETHOX  H13 5790  15.636  11.710   8.901  0.0925 -1.1783 -1.1844
  213ETHOX   C2 5791  15.709  11.913   8.955  0.3314  0.4462  0.2143
  213ETHOX  H21 5792  15.610  11.929   9.004 -1.1513 -1.4456 -1.9194
  213ETHOX  H23 5793  15.757  12.001   8.907  0.7642  0.6754  1.0470
  214ETHOX   O1 5794  15.792  11.868   9.054 -0.0387  0.0702  0.7360
  214ETHOX   C1 5795  15.806  11.956   9.174  1.0483  0.3902  0.4240
  214ETHOX  H11 5796  15.710  11.993   9.216  1.7428  2.2731  0.4373
  214ETHOX  H13 5797  15.860  12.048   9.144 -0.4191  0.8849 -0.7959
  214ETHOX   C2 5798  15.887  11.887   9.280  0.1861  0.4437  0.3727
  214ETHOX  H21 5799  15.921  11.961   9.356 -0.0906  0.0916  0.8435
  214ETHOX  H23 5800  15.972  11.837   9.229 -0.0664 -0.1552  0.5283
  215ETHOX   O1 5801  15.820  11.782   9.347 -0.0510  0.6206  0.3576
  215ETHOX   C1 5802  15.917  11.713   9.430 -0.8447 -0.1350  0.2316
  215ETHOX  H11 5803  15.978  11.656   9.356  0.8677 -0.3756  1.7607
  215ETHOX  H13 5804  15.987  11.790   9.469 -1.0807 -0.8878  2.2637
  215ETHOX   C2 5805  15.850  11.618   9.531  0.5303 -0.6379 -0.0477
  215ETHOX  H21 5806  15.929  11.546   9.561 -0.3215 -0.6229  2.4335
  215ETHOX  H23 5807  15.776  11.558   9.473  0.9151  0.2595 -1.5149
  216ETHOX   O1 5808  15.795  11.685   9.653  0.0165  0.2815  0.1928
  216ETHOX   C1 5809  15.741  11.591   9.743  0.7157 -0.0361  0.3453
  216ETHOX  H11 5810  15.819  11.512   9.758  1.1102  0.5883  1.8014
  216ETHOX  H13 5811  15.652  11.538   9.702 -1.2562  2.3507  1.3135
  216ETHOX   C2 5812  15.713  11.657   9.877  0.7632 -0.3121 -0.0269
  216ETHOX  H21 5813  15.621  11.602   9.903  0.5634 -0.5419 -1.1733
  216ETHOX  H23 5814  15.678  11.761   9.857 -1.0617 -0.9813 -0.5001
  217ETHOX   O1 5815  15.813  11.670   9.976  0.1278 -0.3165 -0.5651
  217ETHOX   C1 5816  15.763  11.725  10.097  0.3640 -0.2522  0.7532
  217ETHOX  H11 5817  15.725  11.827  10.074 -0.3878 -0.8462 -0.7462
  217ETHOX  H13 5818  15.667  11.672  10.119  0.3704  0.2557  2.1541
  217ETHOX   C2 5819  15.866  11.717  10.206 -0.2112 -0.0206  0.3877
  217ETHOX  H21 5820  15.908  11.615  10.227  3.0186  0.7653 -1.5380
  217ETHOX  H23 5821  15.810  11.744  10.298 -0.7768  1.9294 -0.4821
  218ETHOX   O1 5822  15.989  11.798  10.191  0.2041 -1.0896  0.4394
  218ETHOX   C1 5823  15.954  11.941  10.215 -0.1303  0.1563 -0.1196
  218ETHOX  H11 5824  15.853  11.974  10.182 -0.9196 -1.8416  0.1823
  218ETHOX  H13 5825  16.033  11.999  10.162  1.3609 -0.4719  1.3453
  218ETHOX   C2 5826  15.987  11.984  10.357  0.8504 -0.6331 -0.3430
  218ETHOX  H21 5827  15.987  12.095  10.358  3.2821 -0.5873  1.1285
  218ETHOX  H23 5828  16.090  11.970  10.395  0.6483  1.3823  1.1188
  219ETHOX   O1 5829  15.886  11.949  10.450 -0.0080  0.7131  0.3008
  219ETHOX   C1 5830  15.876  12.038  10.558  0.2193 -0.1577 -0.5557
  219ETHOX  H11 5831  15.981  12.057  10.588  1.3456 -3.6930 -1.6914
  219ETHOX  H13 5832  15.838  12.137  10.528  0.0588 -0.6222 -1.9771
  219ETHOX   C2 5833  15.797  11.967  10.671  0.2054 -0.1993 -0.0840
  219ETHOX  H21 5834  15.857  11.877  10.695  1.3247  0.2837 -1.0142
  219ETHOX  H23 5835  15.697  11.934  10.636  0.1158 -0.6263  0.5463
  220ETHOX   O1 5836  15.798  12.040  10.790 -0.6877  0.5253  0.8262
  220ETHOX   C1 5837  15.705  11.984  10.881 -0.5843  0.0400  0.3706
  220ETHOX  H11 5838  15.747  11.887  10.913 -0.0273  0.0017 -0.4510
  220ETHOX  H13 5839  15.610  11.969  10.826  0.6901 -0.3686 -1.8336
  220ETHOX   C2 5840  15.689  12.075  11.000 -0.5790 -0.5624  0.3837
  220ETHOX  H21 5841  15.655  12.179  10.982  0.0829  0.4532  4.0100
  220ETHOX  H23 5842  15.787  12.083  11.053 -1.5497  0.9759  2.0984
  221ETHOX   O1 5843  15.602  12.032  11.093 -0.4883  0.1870  0.2114
  221ETHOX   C1 5844  15.617  12.102  11.218  0.7221 -0.0947  0.0476
  221ETHOX  H11 5845  15.547  12.056  11.291  0.9488  2.0889  1.7240
  221ETHOX  H13 5846  15.721  12.088  11.253  0.9391 -0.1043 -0.5904
  221ETHOX   C2 5847  15.585  12.254  11.218  0.1570 -0.1326  0.2522
  221ETHOX  H21 5848  15.547  12.280  11.320 -2.6053 -2.0190 -0.1659
  221ETHOX  H23 5849  15.497  12.274  11.152 -0.3935 -1.8536  0.4134
  222ETHOX   O1 5850  15.691  12.335  11.165 -0.1352 -0.0695 -0.0839
  222ETHOX   C1 5851  15.653  12.472  11.146  0.6301 -0.4520  0.2341
  222ETHOX  H11 5852  15.559  12.464  11.087  1.9710 -0.9505 -1.9719
  222ETHOX  H13 5853  15.646  12.515  11.248 -0.2324 -2.3244  1.0104
  222ETHOX   C2 5854  15.749  12.557  11.056  0.0087  0.0655 -0.6499
  222ETHOX  H21 5855  15.840  12.577  11.116  0.5718 -2.8519 -0.3793
  222ETHOX  H23 5856  15.704  12.656  11.032 -1.0504 -0.0307  0.8387
  223ETHOX   O1 5857  15.778  12.502  10.923 -0.3129 -0.2256 -0.4993
  223ETHOX   C1 5858  15.882  12.408  10.918  0.0297  0.1851  0.2038
  223ETHOX  H11 5859  15.946  12.411  11.009  3.7857 -1.8388 -2.1023
  223ETHOX  H13 5860  15.842  12.305  10.930 -0.8896  0.4469 -0.4853
  223ETHOX   C2 5861  15.969  12.421  10.790 -0.4906  0.1127 -0.1610
  223ETHOX  H21 5862  15.885  12.417  10.717 -0.9352  1.1172  0.2659
  223ETHOX  H23 5863  16.028  12.329  10.772 -0.3730  0.1784 -0.1111
  224ETHOX   O1 5864  16.042  12.544  10.771 -0.0571  0.0520  0.5141
  224ETHOX   C1 5865  16.150  12.570  10.862  0.0330  0.1756  0.5275
  224ETHOX  H11 5866  16.121  12.537  10.964 -3.1138 -0.3689 -0.4188
  224ETHOX  H13 5867  16.241  12.516  10.828  0.1004  1.7331 -1.9919
  224ETHOX   C2 5868  16.177  12.717  10.867 -0.1780 -0.7373  0.3823
  224ETHOX  H21 5869  16.238  12.747  10.955  2.7999 -0.7694 -1.5031
  224ETHOX  H23 5870  16.080  12.771  10.875  1.2185  1.7793  1.6474
  225ETHOX   O1 5871  16.247  12.758  10.749 -0.3498  0.0275 -0.0325
  225ETHOX   C1 5872  16.274  12.897  10.740 -0.1420 -0.1305 -0.5650
  225ETHOX  H11 5873  16.309  12.941  10.835 -0.5474  0.7146 -0.7980
  225ETHOX  H13 5874  16.174  12.943  10.721  0.4560  1.9510  0.9906
  225ETHOX   C2 5875  16.355  12.935  10.617  0.3652 -0.6703  0.4908
  225ETHOX  H21 5876  16.458  12.896  10.607 -0.1204 -1.5496 -1.7029
  225ETHOX  H23 5877  16.367  13.046  10.616 -2.3988 -0.2940  0.3640
  226ETHOX   O1 5878  16.280  12.900  10.505 -0.2180  0.3299  0.3894
  226ETHOX   C1 5879  16.297  12.762  10.470 -0.3292  0.7176 -0.3000
  226ETHOX  H11 5880  16.397  12.727  10.502 -1.5516 -1.3527  1.5836
  226ETHOX  H13 5881  16.217  12.696  10.509 -1.2322  0.7951 -1.9308
  226ETHOX   C2 5882  16.295  12.754  10.321 -0.4222 -0.4210 -0.1819
  226ETHOX  H21 5883  16.194  12.789  10.291 -0.6457  1.1148  2.1592
  226ETHOX  H23 5884  16.313  12.650  10.284  2.2753 -0.2443  0.4277
  227ETHOX   O1 5885  16.406  12.825  10.261  0.3927  0.0138 -0.8643
  227ETHOX   C1 5886  16.379  12.919  10.149  0.2519 -0.5788 -0.7364
  227ETHOX  H11 5887  16.476  12.968  10.128 -1.1299  3.1196  0.6912
  227ETHOX  H13 5888  16.309  13.001  10.178 -0.1367 -0.6875 -1.3359
  227ETHOX   C2 5889  16.317  12.854  10.024 -0.5602 -0.0618  1.0926
  227ETHOX  H21 5890  16.384  12.774   9.986 -0.1087 -0.1191  1.9955
  227ETHOX  H23 5891  16.323  12.933   9.946 -1.4350  0.3208  1.4050
  228ETHOX   O1 5892  16.188  12.805  10.055 -0.3705 -0.5323 -0.7419
  228ETHOX   C1 5893  16.129  12.718   9.957  0.0564  0.3495 -0.0850
  228ETHOX  H11 5894  16.041  12.673  10.007  1.5045  0.8840  3.2314
  228ETHOX  H13 5895  16.099  12.763   9.860 -2.1307 -2.3034 -0.7588
  228ETHOX   C2 5896  16.226  12.610   9.918  0.4634  0.1188 -0.3053
  228ETHOX  H21 5897  16.162  12.521   9.903  0.1494  0.3550 -0.3650
  228ETHOX  H23 5898  16.288  12.581  10.005 -1.3790 -2.2928  0.2965
  229ETHOX   O1 5899  16.306  12.636   9.793 -0.5943  0.0850 -0.3971
  229ETHOX   C1 5900  16.358  12.520   9.739 -0.6480  0.4579  0.4161
  229ETHOX  H11 5901  16.276  12.450   9.710 -1.2112  1.5927 -0.8450
  229ETHOX  H13 5902  16.421  12.463   9.810 -0.3556 -0.9900 -0.9325
  229ETHOX   C2 5903  16.435  12.541   9.607 -0.2229 -0.0097  0.4399
  229ETHOX  H21 5904  16.374  12.593   9.530  0.5127  0.4049  0.1191
  229ETHOX  H23 5905  16.460  12.440   9.567  1.9646  1.0006 -0.9826
  230ETHOX   O1 5906  16.556  12.605   9.633  0.4732 -0.8640  0.1763
  230ETHOX   C1 5907  16.659  12.602   9.534 -0.0990 -0.4385 -0.1932
  230ETHOX  H11 5908  16.694  12.498   9.521  1.0925 -0.4453  2.4354
  230ETHOX  H13 5909  16.628  12.643   9.435 -1.7766  0.4412  0.6598
  230ETHOX   C2 5910  16.780  12.688   9.586 -0.2529  0.1225 -0.2420
  230ETHOX  H21 5911  16.853  12.667   9.505 -1.3604  0.0847 -1.2619
  230ETHOX  H23 5912  16.816  12.657   9.687  0.2914 -1.1707 -0.8007
  231ETHOX   O1 5913  16.753  12.826   9.588 -0.6807 -0.1184  0.8702
  231ETHOX   C1 5914  16.868  12.912   9.572 -0.4730 -0.5451  0.3366
  231ETHOX  H11 5915  16.895  12.920   9.465 -2.1967 -2.8100 -0.3774
  231ETHOX  H13 5916  16.951  12.857   9.620  0.6313 -1.2947 -2.2291
  231ETHOX   C2 5917  16.848  13.043   9.645  0.6034 -0.2699 -0.1349
  231ETHOX  H21 5918  16.762  13.104   9.610  0.1353 -0.2515  1.0096
  231ETHOX  H23 5919  16.938  13.098   9.609  1.2395 -1.4210 -0.3458
  232ETHOX   O1 5920  16.858  13.031   9.787  0.1987 -0.0910 -0.0973
  232ETHOX   C1 5921  16.831  13.157   9.847  0.2457  0.0079  0.0708
  232ETHOX  H11 5922  16.914  13.227   9.827 -1.4036  2.5162  1.4354
  232ETHOX  H13 5923  16.735  13.198   9.808  0.3808  0.9860  0.7306
  232ETHOX   C2 5924  16.825  13.154  10.000  0.1274  0.4064 -0.4573
  232ETHOX  H21 5925  16.743  13.094  10.043  1.0073 -1.6732 -1.5141
  232ETHOX  H23 5926  16.808  13.255  10.043 -0.3018 -0.1616  0.7554
  233ETHOX   O1 5927  16.952  13.104  10.045 -0.4937 -0.1801  0.3348
  233ETHOX   C1 5928  16.978  13.106  10.188  0.1188 -0.0101  0.9514
  233ETHOX  H11 5929  17.086  13.092  10.210  0.0484 -0.8414  0.8108
  233ETHOX  H13 5930  16.956  13.209  10.222 -1.5033  0.6867 -1.9177
  233ETHOX   C2 5931  16.912  12.997  10.268  0.5511  0.7544 -0.4735
  233ETHOX  H21 5932  16.809  12.975  10.235  1.6288 -1.1354 -2.8945
  233ETHOX  H23 5933  16.912  13.017  10.377 -0.5160 -2.3646  0.1841
  234ETHOX   O1 5934  16.990  12.880  10.254  0.5093 -0.7422  0.1734
  234ETHOX   C1 5935  16.942  12.769  10.332  0.0480 -0.2005 -0.3652
  234ETHOX  H11 5936  16.899  12.800  10.430 -0.5337 -2.0500  0.0001
  234ETHOX  H13 5937  16.850  12.735  10.279 -1.4050  0.6310  1.5130
  234ETHOX   C2 5938  17.035  12.646  10.340  0.6996 -0.7478 -0.2343
  234ETHOX  H21 5939  16.991  12.582  10.420 -0.8535  3.0930  2.2722
  234ETHOX  H23 5940  17.134  12.682  10.373 -0.0347  1.5891 -0.3962
  235ETHOX   O1 5941  17.034  12.580  10.217 -0.5411  0.3906  0.0069
  235ETHOX   C1 5942  17.082  12.447  10.222  0.3399 -0.2018 -0.8116
  235ETHOX  H11 5943  17.192  12.446  10.239  0.5230 -0.9837 -1.9801
  235ETHOX  H13 5944  17.050  12.384  10.308  0.1624  0.2561 -0.5356
  235ETHOX   C2 5945  17.058  12.375  10.092 -0.4349 -0.0521 -0.6178
  235ETHOX  H21 5946  17.122  12.411  10.010 -0.2953 -1.5500 -1.2096
  235ETHOX  H23 5947  16.952  12.375  10.057 -0.4523 -0.8246 -0.5877
  236ETHOX   O1 5948  17.108  12.246  10.125 -0.8180  0.4613  0.0960
  236ETHOX   C1 5949  17.072  12.149  10.028  0.3828  0.5507 -0.1827
  236ETHOX  H11 5950  17.120  12.186   9.935  3.4924  1.5753  1.6794
  236ETHOX  H13 5951  16.961  12.146  10.018  0.2995 -1.3329  0.8812
  236ETHOX   C2 5952  17.128  12.010  10.061  0.8470 -0.0104 -0.1719
  236ETHOX  H21 5953  17.232  12.031  10.093  0.2102  2.7067  0.3780
  236ETHOX  H23 5954  17.111  11.941   9.975 -2.9081 -0.8224  1.0051
  237ETHOX   O1 5955  17.056  11.949  10.161  0.3334 -0.1533  0.0006
  237ETHOX   C1 5956  17.113  11.820  10.195  0.2955  0.6624 -0.4007
  237ETHOX  H11 5957  17.112  11.760  10.101 -1.5691 -2.5433  1.4403
  237ETHOX  H13 5958  17.213  11.848  10.232  0.7426 -1.5606  0.2625
  237ETHOX   C2 5959  17.017  11.759  10.298 -0.8176  0.3430 -0.2749
  237ETHOX  H21 5960  17.011  11.831  10.383  1.7596 -1.1374  1.3114
  237ETHOX  H23 5961  17.068  11.668  10.336  0.9671  1.3888 -0.0232
  238ETHOX   O1 5962  16.890  11.725  10.254  0.2548  0.6292  0.1869
  238ETHOX   C1 5963  16.824  11.648  10.360 -0.1351 -0.7521  0.1993
  238ETHOX  H11 5964  16.818  11.723  10.441  1.4931  0.0513 -0.3645
  238ETHOX  H13 5965  16.898  11.572  10.392  0.0776 -0.4411  0.4620
  238ETHOX   C2 5966  16.687  11.598  10.326 -0.5382  0.7896 -0.2706
  238ETHOX  H21 5967  16.614  11.678  10.301 -1.7966 -0.5537 -1.0476
  238ETHOX  H23 5968  16.645  11.548  10.416  0.6410  0.1168 -0.0769
  239ETHOX   O1 5969  16.691  11.500  10.220  0.1986 -0.2574  0.2239
  239ETHOX   C1 5970  16.700  11.369  10.283 -0.4754 -0.5489  0.0014
  239ETHOX  H11 5971  16.779  11.361  10.361 -1.7085  0.4041  1.4198
  239ETHOX  H13 5972  16.607  11.341  10.336  0.1748  1.2524  2.3079
  239ETHOX   C2 5973  16.717  11.251  10.178  0.4751  0.4642 -0.4189
  239ETHOX  H21 5974  16.725  11.162  10.243  1.0940  2.7632  2.8788
  239ETHOX  H23 5975  16.625  11.265  10.117  0.3895  2.5069  0.0870
  240ETHOX   O1 5976  16.835  11.266  10.099  0.0814  0.3293 -0.0910
  240ETHOX   C1 5977  16.876  11.142  10.045  0.7654 -0.8865 -0.2042
  240ETHOX  H11 5978  16.793  11.087   9.996  0.7272 -0.1009 -1.0511
  240ETHOX  H13 5979  16.917  11.079  10.126  1.9308  0.5228  0.3572
  240ETHOX   C2 5980  16.984  11.152   9.928 -0.0123 -0.1300 -0.1564
  240ETHOX  H21 5981  17.018  11.051   9.900  0.3787 -0.0235 -0.0653
  240ETHOX  H23 5982  17.074  11.202   9.970 -0.3845 -0.5785  1.2179
  241ETHOX   O1 5983  16.947  11.235   9.812 -0.4216 -0.2354 -0.3633
  241ETHOX   C1 5984  17.041  11.210   9.703  0.4547 -0.7139  0.1457
  241ETHOX  H11 5985  17.139  11.196   9.754  0.3386 -1.1345  0.2610
  241ETHOX  H13 5986  17.026  11.104   9.673  0.5883 -0.3062 -1.4690
  241ETHOX   C2 5987  17.042  11.329   9.608 -0.3065  0.5555  0.2343
  241ETHOX  H21 5988  17.139  11.343   9.555 -0.6537 -1.4070 -1.0591
  241ETHOX  H23 5989  17.022  11.416   9.673 -0.4388  1.3286 -0.8164
  242ETHOX   O1 5990  16.938  11.321   9.514  0.4121 -0.2044 -0.5037
  242ETHOX   C1 5991  16.940  11.434   9.433  0.1022 -0.2249 -0.3661
  242ETHOX  H11 5992  17.022  11.427   9.358  1.0192  0.0330  0.5895
  242ETHOX  H13 5993  16.960  11.522   9.498  0.4393  1.0534 -2.1436
  242ETHOX   C2 5994  16.809  11.457   9.361  0.3684  0.8790 -0.7626
  242ETHOX  H21 5995  16.738  11.511   9.427  0.2509 -1.3661  1.1134
  242ETHOX  H23 5996  16.762  11.357   9.351 -2.6977  2.0056  1.0321
  243ETHOX   O1 5997  16.835  11.518   9.237 -0.2651  0.1763  0.2681
  243ETHOX   C1 5998  16.733  11.476   9.144 -0.6361 -0.1739  0.0909
  243ETHOX  H11 5999  16.732  11.368   9.118 -0.1462  0.0859 -1.0507
  243ETHOX  H13 6000  16.636  11.502   9.192 -0.2626  1.1717  0.1458
  243ETHOX   C2 6001  16.753  11.556   9.021 -0.1245 -0.2750  0.3689
  243ETHOX  H21 6002  16.806  11.497   8.943 -4.3287 -0.8637 -2.3859
  243ETHOX  H23 6003  16.794  11.656   9.047 -0.4253  0.4683 -1.7721
  244ETHOX   O1 6004  16.621  11.594   8.966 -0.0002 -0.0924  0.1859
  244ETHOX   C1 6005  16.549  11.483   8.909 -1.0011 -0.3120 -0.4461
  244ETHOX  H11 6006  16.519  11.407   8.984  0.3639 -0.7485 -0.3056
  244ETHOX  H13 6007  16.626  11.430   8.848  0.8705 -1.2564  2.5353
  244ETHOX   C2 6008  16.429  11.537   8.834  0.0425  1.5032 -0.2264
  244ETHOX  H21 6009  16.401  11.461   8.757  1.8724  2.5659 -2.0378
  244ETHOX  H23 6010  16.449  11.631   8.778  2.7202  1.0976 -0.0453
  245ETHOX   O1 6011  16.312  11.548   8.910 -0.1976 -0.6582 -0.3562
  245ETHOX   C1 6012  16.216  11.605   8.832 -0.0935  0.0661  0.0769
  245ETHOX  H11 6013  16.248  11.704   8.792  0.3849  0.7231  2.0098
  245ETHOX  H13 6014  16.197  11.534   8.749  1.3630  1.4290 -1.5104
  245ETHOX   C2 6015  16.094  11.630   8.920 -0.6280  0.1953  0.2479
  245ETHOX  H21 6016  16.035  11.711   8.872 -1.1310 -1.4156 -2.0035
  245ETHOX  H23 6017  16.124  11.669   9.020 -0.2886  1.1556 -0.2168
  246ETHOX   O1 6018  16.011  11.515   8.934  0.8405 -0.0515 -0.4555
  246ETHOX   C1 6019  15.907  11.534   9.032  0.2624  1.1531 -0.5634
  246ETHOX  H11 6020  15.829  11.592   8.977  0.8065 -0.0158 -2.6629
  246ETHOX  H13 6021  15.934  11.592   9.123 -3.8589  0.4763  1.3126
  246ETHOX   C2 6022  15.838  11.409   9.094  0.1410  1.0564 -0.1156
  246ETHOX  H21 6023  15.846  11.329   9.017  1.7666  1.1741 -0.1102
  246ETHOX  H23 6024  15.730  11.432   9.102 -0.2659 -0.7560  0.0375
  247ETHOX   O1 6025  15.901  11.360   9.214  0.5120 -0.5222  0.1019
  247ETHOX   C1 6026  15.828  11.256   9.266  0.4981  0.0945 -0.7094
  247ETHOX  H11 6027  15.732  11.305   9.290  0.2010 -1.4165  1.4248
  247ETHOX  H13 6028  15.816  11.181   9.185 -0.6999 -0.4873 -0.0217
  247ETHOX   C2 6029  15.898  11.202   9.385  0.1568 -0.5158  0.1331
  247ETHOX  H21 6030  15.852  11.104   9.413  2.4529 -1.5487  0.5687
  247ETHOX  H23 6031  15.996  11.170   9.345 -0.3011 -2.2914  0.3411
  248ETHOX   O1 6032  15.909  11.287   9.496  0.1152 -0.0512 -0.2723
  248ETHOX   C1 6033  16.004  11.237   9.586  0.0085 -0.4882  0.3054
  248ETHOX  H11 6034  15.977  11.132   9.613 -1.6145  0.2458  1.6972
  248ETHOX  H13 6035  16.101  11.240   9.532  0.1279 -0.9065  0.4908
  248ETHOX   C2 6036  16.014  11.312   9.722  0.1141 -0.3529 -0.0332
  248ETHOX  H21 6037  16.003  11.421   9.705 -1.0075 -0.1079  1.9507
  248ETHOX  H23 6038  16.120  11.299   9.752  0.5572  1.7598 -0.4915
  249ETHOX   O1 6039  15.927  11.269   9.824 -0.8582 -0.3270  0.3823
  249ETHOX   C1 6040  15.953  11.340   9.948  0.3119  0.0080  0.8527
  249ETHOX  H11 6041  16.054  11.302   9.973 -0.0409 -1.1306  0.6074
  249ETHOX  H13 6042  15.956  11.448   9.922  1.2423 -0.2914 -0.3207
  249ETHOX   C2 6043  15.859  11.301  10.067 -0.6291 -0.3168 -0.2042
  249ETHOX  H21 6044  15.753  11.331  10.057 -0.2314  0.8303 -1.2175
  249ETHOX  H23 6045  15.910  11.349  10.153  2.1193 -1.2888 -1.1778
  250ETHOX   O1 6046  15.872  11.163  10.096 -0.2340 -0.4939 -0.6208
  250ETHOX   C1 6047  15.809  11.141  10.224 -0.5243  0.5416 -0.3681
  250ETHOX  H11 6048  15.859  11.212  10.293 -0.3852  0.9422 -0.8782
  250ETHOX  H13 6049  15.699  11.156  10.227 -1.2541 -3.6587  0.3035
  250ETHOX   C2 6050  15.825  10.989  10.266  0.0418 -0.8688 -0.0035
  250ETHOX  H21 6051  15.814  10.932  10.172 -0.6153  0.6057 -0.8516
  250ETHOX  H23 6052  15.736  10.958  10.327 -0.1644 -1.4834 -0.6109
  251ETHOX   O1 6053  15.956  10.955  10.324  0.0307 -0.2771  0.1593
  251ETHOX   C1 6054  15.966  10.820  10.330 -0.4045  0.3650  0.3140
  251ETHOX  H11 6055  16.076  10.815  10.338 -0.4046  0.3557  0.3003
  251ETHOX  H13 6056  15.936  10.766  10.238 -1.1190  1.6112 -0.2028
  251ETHOX   C2 6057  15.893  10.772  10.454  0.9171  0.2952 -0.0808
  251ETHOX  H21 6058  15.906  10.845  10.537  1.1258  1.0742 -0.7808
  251ETHOX  H23 6059  15.948  10.678  10.474  2.6381  1.1530 -0.5861
  252ETHOX   O1 6060  15.760  10.736  10.440  0.2622  0.0672 -0.0125
  252ETHOX   C1 6061  15.720  10.631  10.354  0.2363 -0.4581  0.5371
  252ETHOX  H11 6062  15.719  10.680  10.254  0.0836 -0.3711  0.5823
  252ETHOX  H13 6063  15.796  10.551  10.342  1.0035  0.1577  1.1622
  252ETHOX   C2 6064  15.582  10.571  10.370  0.3161 -0.0410  0.2773
  252ETHOX  H21 6065  15.580  10.485  10.301  1.4727 -0.4133  0.6953
  252ETHOX  H23 6066  15.494  10.632  10.340  0.8848  0.2721 -0.8032
  253ETHOX   O1 6067  15.562  10.513  10.499 -0.0536 -0.1975  0.2866
  253ETHOX   C1 6068  15.640  10.402  10.529  0.4498  0.5826 -0.2080
  253ETHOX  H11 6069  15.745  10.428  10.554 -0.3804  0.8824  3.6729
  253ETHOX  H13 6070  15.646  10.327  10.448 -0.0172  0.2139  0.0899
  253ETHOX   C2 6071  15.591  10.340  10.669 -0.2656 -0.6755 -0.5783
  253ETHOX  H21 6072  15.486  10.306  10.656 -0.4365 -1.4539  2.1970
  253ETHOX  H23 6073  15.593  10.425  10.739 -0.7846  1.2239 -2.7440
  254ETHOX   O1 6074  15.668  10.227  10.711 -0.4230 -0.7226  0.0139
  254ETHOX   C1 6075  15.632  10.172  10.836 -0.4710 -0.1309  0.9610
  254ETHOX  H11 6076  15.677  10.240  10.912  0.6260 -0.7129  0.8542
  254ETHOX  H13 6077  15.521  10.162  10.840 -0.4749  0.0610  1.3999
  254ETHOX   C2 6078  15.698  10.039  10.855  0.4655  0.0983 -0.4491
  254ETHOX  H21 6079  15.689  10.006  10.961 -0.0154 -2.9168 -1.3459
  254ETHOX  H23 6080  15.804  10.053  10.828 -0.0922  0.7554 -2.5368
  255ETHOX   O1 6081  15.640   9.939  10.773 -0.1817  0.1509 -0.5560
  255ETHOX   C1 6082  15.709   9.814  10.799  0.1483  0.1532  0.1407
  255ETHOX  H11 6083  15.712   9.794  10.908 -0.5631 -3.3188 -0.3343
  255ETHOX  H13 6084  15.814   9.827  10.765 -0.1760 -1.4922 -1.7093
  255ETHOX   C2 6085  15.627   9.694  10.745 -0.1462  0.6357 -0.6206
  255ETHOX  H21 6086  15.640   9.700  10.635 -2.0650  1.2097 -0.8492
  255ETHOX  H23 6087  15.521   9.710  10.771  0.0007  1.5684 -0.5719
  256ETHOX   O1 6088  15.685   9.576  10.799  0.0732 -0.3842  0.0687
  256ETHOX   C1 6089  15.608   9.464  10.762  0.1409  0.2894 -0.4726
  256ETHOX  H11 6090  15.501   9.475  10.789  0.2192  0.6975 -0.3308
  256ETHOX  H13 6091  15.601   9.442  10.653 -0.4187 -1.6248 -0.0918
  256ETHOX   C2 6092  15.672   9.342  10.830  0.4442  0.3864  0.1801
  256ETHOX  H21 6093  15.598   9.260  10.822  0.4658  0.3701  0.1566
  256ETHOX  H23 6094  15.694   9.382  10.932  1.5229  2.4527 -0.7900
  257ETHOX   O1 6095  15.795   9.299  10.777 -0.6807  0.0279 -0.1137
  257ETHOX   C1 6096  15.783   9.202  10.673  0.0333 -0.3141 -0.6587
  257ETHOX  H11 6097  15.725   9.245  10.589 -1.7722  1.5683  1.4047
  257ETHOX  H13 6098  15.732   9.111  10.713  0.1423 -0.1670 -0.1822
  257ETHOX   C2 6099  15.915   9.145  10.618 -0.7371  0.0803 -0.1894
  257ETHOX  H21 6100  15.965   9.235  10.574 -2.1351 -0.0676 -2.2351
  257ETHOX  H23 6101  15.895   9.077  10.532  1.2843 -0.5504 -0.2349
  258ETHOX   O1 6102  15.995   9.075  10.710  0.3813 -0.1375 -0.1560
  258ETHOX   C1 6103  16.103   9.004  10.645  0.3055 -0.0311  0.4624
  258ETHOX  H11 6104  16.059   8.911  10.602 -1.9765  0.5471  1.4304
  258ETHOX  H13 6105  16.154   9.072  10.573  0.8315  0.2811  1.1176
  258ETHOX   C2 6106  16.215   8.950  10.740  0.1341 -0.2124  0.6694
  258ETHOX  H21 6107  16.259   8.858  10.696  0.3694  0.6540 -0.9903
  258ETHOX  H23 6108  16.153   8.917  10.826 -3.2934 -0.5972 -1.7292
  259ETHOX   O1 6109  16.310   9.047  10.765 -0.2921  0.0761 -0.6585
  259ETHOX   C1 6110  16.396   9.024  10.881  0.4292 -0.1769 -0.3301
  259ETHOX  H11 6111  16.330   8.996  10.966 -0.1852 -0.6010 -0.9292
  259ETHOX  H13 6112  16.474   8.945  10.874  0.3764 -0.3798  1.0488
  259ETHOX   C2 6113  16.479   9.152  10.917  0.7479 -0.0198 -0.0349
  259ETHOX  H21 6114  16.538   9.188  10.831 -0.9418  1.8675 -0.4846
  259ETHOX  H23 6115  16.556   9.120  10.989  1.3396 -0.3971 -0.8183
  260ETHOX   O1 6116  16.401   9.263  10.961 -0.2949  0.1909 -0.5257
  260ETHOX   C1 6117  16.484   9.352  11.043  0.4062  0.3143 -0.2468
  260ETHOX  H11 6118  16.532   9.299  11.128  0.5178  0.6519 -0.0976
  260ETHOX  H13 6119  16.567   9.397  10.984  0.9264 -0.2846  0.0088
  260ETHOX   C2 6120  16.405   9.480  11.093  0.4677  0.0964  0.2156
  260ETHOX  H21 6121  16.343   9.518  11.009  1.0732 -1.3477 -0.9334
  260ETHOX  H23 6122  16.477   9.561  11.118  1.4523 -0.3191 -1.1894
  261ETHOX   O1 6123  16.332   9.460  11.214  0.0726  0.8306 -0.1522
  261ETHOX   C1 6124  16.211   9.529  11.213 -1.1898 -0.3173 -0.0572
  261ETHOX  H11 6125  16.240   9.635  11.196  0.8546 -1.2336 -3.2019
  261ETHOX  H13 6126  16.148   9.503  11.125  0.4399  0.6632 -1.5695
  261ETHOX   C2 6127  16.135   9.509  11.343  0.1399 -0.4905 -0.1643
  261ETHOX  H21 6128  16.113   9.403  11.365  1.2735 -0.5581  0.6940
  261ETHOX  H23 6129  16.037   9.562  11.335  0.1628 -0.6845 -2.0888
  262ETHOX   O1 6130  16.208   9.560  11.458  0.3533  0.3236 -0.4380
  262ETHOX   C1 6131  16.174   9.494  11.582 -0.1114 -0.5572  0.1649
  262ETHOX  H11 6132  16.237   9.552  11.652 -0.3789  1.6202 -1.2961
  262ETHOX  H13 6133  16.213   9.390  11.578  0.7090 -0.2676  0.5164
  262ETHOX   C2 6134  16.027   9.503  11.619 -0.0706  0.3190 -0.1102
  262ETHOX  H21 6135  15.984   9.594  11.571 -2.8936  0.2480  2.0241
  262ETHOX  H23 6136  16.006   9.503  11.728  0.5602  1.2356  0.0147
  263ETHOX   O1 6137  15.971   9.382  11.561 -0.2806 -0.0087 -0.1129
  263ETHOX   C1 6138  15.833   9.392  11.540 -0.0795  0.9342  0.2822
  263ETHOX  H11 6139  15.817   9.471  11.463  0.8238 -1.6595 -2.7717
  263ETHOX  H13 6140  15.763   9.404  11.626  0.1496 -3.3936  1.3009
  263ETHOX   C2 6141  15.783   9.261  11.470 -0.3322  0.1222  0.1632
  263ETHOX  H21 6142  15.854   9.248  11.386 -0.4179  0.3671  0.0482
  263ETHOX  H23 6143  15.682   9.293  11.436  0.0557  2.4684  1.0218
  264ETHOX   O1 6144  15.780   9.146  11.551  0.1298 -0.2212  0.0138
  264ETHOX   C1 6145  15.713   9.040  11.489  0.1356 -0.3181  0.7105
  264ETHOX  H11 6146  15.768   9.030  11.393 -1.1669  0.6349 -0.1722
  264ETHOX  H13 6147  15.615   9.088  11.466 -0.2101 -1.1753  0.3626
  264ETHOX   C2 6148  15.707   8.924  11.577  0.6957 -0.4829  0.4729
  264ETHOX  H21 6149  15.612   8.870  11.556  0.0589  1.1416 -1.1361
  264ETHOX  H23 6150  15.703   8.959  11.682 -0.5508 -1.2135  0.6915
  265ETHOX   O1 6151  15.825   8.834  11.564  0.4301 -0.3301 -0.3006
  265ETHOX   C1 6152  15.802   8.735  11.465  0.2387  0.2794 -0.1773
  265ETHOX  H11 6153  15.701   8.693  11.484 -0.3218  1.7026  0.1356
  265ETHOX  H13 6154  15.788   8.803  11.378 -1.1937  0.1187 -0.0942
  265ETHOX   C2 6155  15.911   8.630  11.464  0.0118  0.0505  0.2508
  265ETHOX  H21 6156  16.010   8.677  11.449  0.4305 -1.3466 -1.7023
  265ETHOX  H23 6157  15.890   8.551  11.388  1.1387  0.9115 -0.9887
  265ETHOX   OZ 6158  15.916   8.556  11.588 -0.5778 -0.2359  0.5075
  265ETHOX  HZ1 6159  16.006   8.523  11.582  0.7913  3.1775 -0.0973
    1ETHOX   O1 6160   7.656  18.373   8.242  0.6544 -0.0646 -0.1354
    1ETHOX  HO1 6161   7.704  18.434   8.300  0.3680 -1.3335  1.5338
    1ETHOX   C1 6162   7.630  18.251   8.316 -0.4684  0.3417  0.8816
    1ETHOX  H11 6163   7.574  18.270   8.410 -0.2290  1.3191  0.8306
    1ETHOX  H13 6164   7.720  18.194   8.345 -0.3467  1.3363  2.5501
    1ETHOX   C2 6165   7.537  18.162   8.223 -0.2345  0.6681 -0.0555
    1ETHOX  H21 6166   7.587  18.148   8.125 -0.0719 -0.1808  0.1489
    1ETHOX  H23 6167   7.431  18.195   8.215 -0.9244 -1.2007  0.7597
    2ETHOX   O1 6168   7.519  18.031   8.274 -0.4074 -0.1079 -0.1331
    2ETHOX   C1 6169   7.479  17.943   8.167  0.5555  0.2006 -0.9416
    2ETHOX  H11 6170   7.387  17.984   8.121 -0.4540 -0.7290  0.1671
    2ETHOX  H13 6171   7.562  17.925   8.095  1.7446 -0.8212  0.6136
    2ETHOX   C2 6172   7.455  17.803   8.225 -0.8879  0.2181  0.6649
    2ETHOX  H21 6173   7.358  17.803   8.280 -0.6561 -2.2495  1.1831
    2ETHOX  H23 6174   7.536  17.790   8.300  0.6259  0.6804 -0.8107
    3ETHOX   O1 6175   7.467  17.699   8.130 -0.1075 -0.2472  0.0003
    3ETHOX   C1 6176   7.363  17.684   8.028  0.2863 -0.0401 -0.0292
    3ETHOX  H11 6177   7.408  17.654   7.931 -0.7517  0.8479 -0.8171
    3ETHOX  H13 6178   7.321  17.785   8.009 -0.6070 -0.5818 -1.0851
    3ETHOX   C2 6179   7.249  17.591   8.078 -0.5680  0.4256  0.1806
    3ETHOX  H21 6180   7.170  17.602   8.000 -0.5341  1.7676  0.3158
    3ETHOX  H23 6181   7.215  17.613   8.181 -2.5981 -0.7672 -0.1709
    4ETHOX   O1 6182   7.282  17.459   8.080 -0.5222 -0.8269 -0.1620
    4ETHOX   C1 6183   7.183  17.363   8.112 -0.4120 -0.3580 -0.0856
    4ETHOX  H11 6184   7.152  17.379   8.218  2.7925 -2.0032  1.2375
    4ETHOX  H13 6185   7.093  17.378   8.050 -0.8649  2.0095  1.0235
    4ETHOX   C2 6186   7.225  17.219   8.099 -0.7224 -0.1708  0.1236
    4ETHOX  H21 6187   7.136  17.156   8.122 -0.6296  0.0139  1.0425
    4ETHOX  H23 6188   7.294  17.205   8.185 -0.7110  0.9787  0.3205
    5ETHOX   O1 6189   7.282  17.187   7.969 -0.0159  0.2825  0.7822
    5ETHOX   C1 6190   7.336  17.050   7.966 -0.1415  0.2086  0.4174
    5ETHOX  H11 6191   7.418  17.034   8.038  3.1129  1.6585 -2.6659
    5ETHOX  H13 6192   7.258  16.978   8.000  0.0132 -0.3804 -0.4243
    5ETHOX   C2 6193   7.398  17.008   7.829  0.3797 -0.4174 -0.1325
    5ETHOX  H21 6194   7.333  17.026   7.741  0.6502 -0.6145 -0.3771
    5ETHOX  H23 6195   7.413  16.899   7.841  0.8994 -0.2098  1.4299
    6ETHOX   O1 6196   7.521  17.067   7.810 -0.1583  0.2615 -0.4102
    6ETHOX   C1 6197   7.602  16.985   7.722  0.1092  0.2709  0.2883
    6ETHOX  H11 6198   7.607  16.880   7.756 -0.5756  0.0271 -0.3355
    6ETHOX  H13 6199   7.563  16.992   7.618 -3.0150  2.3330  1.4395
    6ETHOX   C2 6200   7.749  17.030   7.718  0.3679  0.2079 -0.5052
    6ETHOX  H21 6201   7.753  17.134   7.678  0.6645  0.8831  1.2100
    6ETHOX  H23 6202   7.801  16.975   7.637 -0.9266 -1.2889 -0.3775
    7ETHOX   O1 6203   7.803  17.016   7.850 -0.8135 -0.2019  0.3235
    7ETHOX   C1 6204   7.918  17.098   7.871 -0.5151  0.0106  0.0465
    7ETHOX  H11 6205   7.972  17.045   7.952 -1.3741 -2.6870 -1.0444
    7ETHOX  H13 6206   7.990  17.097   7.786 -0.4231 -1.3646  0.1265
    7ETHOX   C2 6207   7.881  17.231   7.933  0.4272  0.4057 -0.8285
    7ETHOX  H21 6208   7.964  17.285   7.985  1.1230 -2.3362  1.1017
    7ETHOX  H23 6209   7.811  17.197   8.012  0.6329  2.5539  0.3513
    8ETHOX   O1 6210   7.816  17.314   7.835 -0.4230  0.1610  0.1204
    8ETHOX   C1 6211   7.918  17.369   7.747  0.3189  0.1310  0.0581
    8ETHOX  H11 6212   7.860  17.389   7.654 -0.0082  0.5285  0.3439
    8ETHOX  H13 6213   7.998  17.294   7.727 -0.3237 -0.5389 -0.0316
    8ETHOX   C2 6214   7.990  17.497   7.788 -0.0480  0.0558  0.3231
    8ETHOX  H21 6215   8.065  17.534   7.714 -1.6205  1.0275 -0.8412
    8ETHOX  H23 6216   8.032  17.481   7.889 -1.7814  0.4428  1.1380
    9ETHOX   O1 6217   7.894  17.601   7.813 -0.3214 -0.0569 -0.0674
    9ETHOX   C1 6218   7.953  17.727   7.832  0.0819  0.3888  0.0735
    9ETHOX  H11 6219   8.050  17.723   7.885 -2.1414  1.1940  4.7116
    9ETHOX  H13 6220   7.973  17.762   7.728 -2.2754  0.6398 -0.3668
    9ETHOX   C2 6221   7.870  17.833   7.900  0.2561 -0.5022 -0.0149
    9ETHOX  H21 6222   7.930  17.925   7.919 -0.8836  0.2400  0.1507
    9ETHOX  H23 6223   7.821  17.798   7.994 -2.3204 -0.6089 -1.2977
   10ETHOX   O1 6224   7.769  17.880   7.805 -0.6391 -0.3581 -0.0702
   10ETHOX   C1 6225   7.640  17.816   7.819 -0.5407  0.2517  0.4775
   10ETHOX  H11 6226   7.588  17.823   7.917 -2.9241  0.2596 -0.6979
   10ETHOX  H13 6227   7.656  17.708   7.797 -1.1026  0.4749 -1.2506
   10ETHOX   C2 6228   7.539  17.883   7.723 -0.6696  0.2035  0.5994
   10ETHOX  H21 6229   7.445  17.824   7.723 -0.1446 -0.7062 -0.8303
   10ETHOX  H23 6230   7.588  17.888   7.624 -0.2851  0.1169  0.7817
   11ETHOX   O1 6231   7.514  18.012   7.771 -1.2324 -0.1527  0.0844
   11ETHOX   C1 6232   7.423  18.077   7.693  0.3630 -0.1665  0.1138
   11ETHOX  H11 6233   7.463  18.130   7.605  0.8581 -1.5805 -0.5377
   11ETHOX  H13 6234   7.352  18.004   7.647  2.0840 -0.7132 -1.7988
   11ETHOX   C2 6235   7.340  18.191   7.762 -0.2836  0.3598 -0.7997
   11ETHOX  H21 6236   7.416  18.260   7.805  0.4509 -0.4293 -0.8029
   11ETHOX  H23 6237   7.280  18.244   7.686 -1.6446  0.3175  0.2080
   12ETHOX   O1 6238   7.260  18.130   7.865 -0.4472 -0.3075 -0.4091
   12ETHOX   C1 6239   7.198  18.221   7.951  0.2667  0.1932 -0.8724
   12ETHOX  H11 6240   7.137  18.301   7.903 -1.4187  1.3295  2.7937
   12ETHOX  H13 6241   7.281  18.278   7.998  0.6282  0.5247 -1.8791
   12ETHOX   C2 6242   7.115  18.145   8.059 -0.3708 -0.5839  0.2824
   12ETHOX  H21 6243   7.106  18.210   8.149 -2.4132 -1.2659  0.6110
   12ETHOX  H23 6244   7.169  18.054   8.092  0.3922  0.0431  0.8132
   13ETHOX   O1 6245   6.994  18.114   8.005 -0.1180 -0.1801  0.0780
   13ETHOX   C1 6246   6.921  18.040   8.102  0.1987 -0.3303  0.2151
   13ETHOX  H11 6247   6.979  17.945   8.108 -1.3872 -1.3625 -0.2517
   13ETHOX  H13 6248   6.914  18.093   8.199  0.0078  1.0281 -0.5226
   13ETHOX   C2 6249   6.777  17.996   8.071  0.1630  0.1872 -0.6005
   13ETHOX  H21 6250   6.736  17.943   8.159  0.8549  0.3993 -0.1385
   13ETHOX  H23 6251   6.768  17.939   7.977  1.0750  2.0933 -1.9114
   14ETHOX   O1 6252   6.692  18.112   8.083 -0.2132  0.3927  0.1698
   14ETHOX   C1 6253   6.591  18.110   7.983  0.0107 -0.3961 -0.1487
   14ETHOX  H11 6254   6.535  18.017   7.959  2.3721 -1.8088 -0.4700
   14ETHOX  H13 6255   6.633  18.136   7.883  2.8128  0.7885  1.2283
   14ETHOX   C2 6256   6.492  18.222   8.025 -0.4285 -0.5423 -0.3389
   14ETHOX  H21 6257   6.407  18.238   7.955  0.9679  0.9988 -1.7773
   14ETHOX  H23 6258   6.552  18.315   8.024 -0.1010 -0.7505 -1.2425
   15ETHOX   O1 6259   6.438  18.196   8.159 -0.1542 -0.0835  0.7310
   15ETHOX   C1 6260   6.388  18.309   8.228 -0.5024 -1.5906  0.0625
   15ETHOX  H11 6261   6.470  18.382   8.250 -2.9464  1.1507  0.7252
   15ETHOX  H13 6262   6.330  18.367   8.153 -1.6356 -0.1441  1.9529
   15ETHOX   C2 6263   6.308  18.267   8.338  0.1895  0.0139  0.1900
   15ETHOX  H21 6264   6.252  18.354   8.378  0.7027  0.9967 -1.1437
   15ETHOX  H23 6265   6.225  18.199   8.306  0.1886  0.9440 -2.0113
   16ETHOX   O1 6266   6.389  18.215   8.437 -0.0469  0.3908 -0.0563
   16ETHOX   C1 6267   6.318  18.133   8.531  0.0853  0.3451 -0.0844
   16ETHOX  H11 6268   6.248  18.074   8.469  1.6460 -0.7349 -0.8844
   16ETHOX  H13 6269   6.386  18.059   8.580 -0.7512  0.3033  1.0520
   16ETHOX   C2 6270   6.235  18.206   8.640 -0.0737  0.1374 -0.1546
   16ETHOX  H21 6271   6.153  18.145   8.682 -0.5903  2.6104  2.7962
   16ETHOX  H23 6272   6.196  18.299   8.593 -1.0250 -0.1002  0.1450
   17ETHOX   O1 6273   6.311  18.234   8.761 -0.1499  0.3602  0.2913
   17ETHOX   C1 6274   6.380  18.356   8.765  0.4371 -0.1074 -0.1952
   17ETHOX  H11 6275   6.465  18.354   8.693 -0.8437  1.4669 -1.8408
   17ETHOX  H13 6276   6.303  18.427   8.728  0.5543  0.0907 -0.0602
   17ETHOX   C2 6277   6.426  18.409   8.906  0.0839  0.1443 -0.4328
   17ETHOX  H21 6278   6.339  18.408   8.975  0.7872  0.4169  0.4711
   17ETHOX  H23 6279   6.455  18.515   8.887  2.9943 -0.7318 -1.2520
   18ETHOX   O1 6280   6.540  18.343   8.954  0.9865  0.5475 -0.0316
   18ETHOX   C1 6281   6.553  18.376   9.092 -0.6040  0.0378 -0.2108
   18ETHOX  H11 6282   6.661  18.379   9.119 -0.3990  1.3449 -1.0841
   18ETHOX  H13 6283   6.506  18.474   9.117  0.2249  0.2708  0.4882
   18ETHOX   C2 6284   6.489  18.260   9.180 -0.5971  0.2089  0.4113
   18ETHOX  H21 6285   6.533  18.277   9.281  1.4190  0.7543 -0.5237
   18ETHOX  H23 6286   6.535  18.166   9.142  0.5406  1.1642 -0.6332
   19ETHOX   O1 6287   6.345  18.245   9.191  0.6443  0.3062 -0.6953
   19ETHOX   C1 6288   6.308  18.238   9.328  0.5912  0.2865 -0.8918
   19ETHOX  H11 6289   6.355  18.320   9.386  1.7562 -2.6993  2.8408
   19ETHOX  H13 6290   6.352  18.148   9.376 -0.9573 -0.8102 -1.4364
   19ETHOX   C2 6291   6.158  18.224   9.339  0.2449  0.4940  0.1350
   19ETHOX  H21 6292   6.098  18.289   9.273 -1.0447 -1.7606 -1.0409
   19ETHOX  H23 6293   6.134  18.248   9.445  1.4215 -1.7681  0.9777
   20ETHOX   O1 6294   6.126  18.086   9.313  0.3876  0.9379  0.0365
   20ETHOX   C1 6295   5.995  18.049   9.357  0.3499  0.7537  0.1287
   20ETHOX  H11 6296   5.991  18.064   9.467 -0.2102  3.6969 -0.2317
   20ETHOX  H13 6297   5.921  18.122   9.318 -0.6677 -0.2590  0.1065
   20ETHOX   C2 6298   5.952  17.908   9.319  0.0476 -0.3840  1.2785
   20ETHOX  H21 6299   5.982  17.896   9.212  0.4499  1.7035  1.1135
   20ETHOX  H23 6300   5.843  17.885   9.322 -0.5888  1.9836 -0.4986
   21ETHOX   O1 6301   6.025  17.829   9.413 -0.0575 -0.1214  0.0514
   21ETHOX   C1 6302   6.037  17.697   9.359 -0.4916  0.1263 -0.2311
   21ETHOX  H11 6303   6.063  17.703   9.251  2.0532 -0.9042  0.2657
   21ETHOX  H13 6304   5.938  17.646   9.361 -0.4857  0.0651 -1.0134
   21ETHOX   C2 6305   6.130  17.605   9.447 -0.4863  0.0594 -0.2734
   21ETHOX  H21 6306   6.229  17.655   9.450  0.7328 -2.2765  0.4969
   21ETHOX  H23 6307   6.154  17.504   9.407  0.1324  0.2196 -0.3218
   22ETHOX   O1 6308   6.085  17.595   9.584 -0.2767 -0.0528  0.2390
   22ETHOX   C1 6309   6.132  17.486   9.653  0.0613  0.5513 -0.2060
   22ETHOX  H11 6310   6.109  17.398   9.589  1.0593  1.8216 -2.4498
   22ETHOX  H13 6311   6.242  17.501   9.665  0.1836 -0.2804 -0.2233
   22ETHOX   C2 6312   6.060  17.476   9.792  0.4335 -0.1963  0.3524
   22ETHOX  H21 6313   6.106  17.388   9.841  1.3046 -0.0087 -0.0973
   22ETHOX  H23 6314   6.082  17.564   9.856 -0.5807  0.1550  0.2280
   23ETHOX   O1 6315   5.923  17.462   9.777 -0.2215  0.1758  0.4700
   23ETHOX   C1 6316   5.855  17.478   9.899  0.3799  0.8551  0.2656
   23ETHOX  H11 6317   5.874  17.585   9.922  2.4581  0.4324  0.7592
   23ETHOX  H13 6318   5.898  17.426   9.988 -2.5990  1.6721  2.3481
   23ETHOX   C2 6319   5.702  17.449   9.873  0.1553  0.2959  0.0961
   23ETHOX  H21 6320   5.667  17.503   9.783  2.9117  1.5493 -0.3174
   23ETHOX  H23 6321   5.629  17.484   9.950 -1.3384 -1.6822 -0.3296
   24ETHOX   O1 6322   5.688  17.312   9.840  0.0835  0.5221 -0.4459
   24ETHOX   C1 6323   5.564  17.269   9.783 -0.0510 -0.3777 -0.2506
   24ETHOX  H11 6324   5.528  17.341   9.707 -0.2742 -1.0702 -0.8139
   24ETHOX  H13 6325   5.576  17.167   9.739 -0.3082  0.2981 -1.9795
   24ETHOX   C2 6326   5.448  17.257   9.887 -0.3674 -0.1182  0.3310
   24ETHOX  H21 6327   5.345  17.244   9.846 -0.6283  1.4958  0.4148
   24ETHOX  H23 6328   5.443  17.353   9.943  0.2203  1.6012 -2.3775
   25ETHOX   O1 6329   5.475  17.149   9.976  0.7217 -0.2005  0.7101
   25ETHOX   C1 6330   5.375  17.134  10.075  0.5169  0.4694 -0.2707
   25ETHOX  H11 6331   5.273  17.137  10.030 -0.5557 -0.9150  1.8850
   25ETHOX  H13 6332   5.391  17.210  10.154  0.0487  0.8499 -0.5328
   25ETHOX   C2 6333   5.404  16.995  10.134 -0.1993 -0.1531 -0.8238
   25ETHOX  H21 6334   5.369  16.918  10.061  1.9474 -0.2655 -1.7885
   25ETHOX  H23 6335   5.345  16.981  10.227  0.8582  2.5570  0.3230
   26ETHOX   O1 6336   5.542  16.976  10.172 -0.2114 -0.1359 -0.7385
   26ETHOX   C1 6337   5.574  16.841  10.207 -0.7911 -0.2788 -0.4150
   26ETHOX  H11 6338   5.522  16.808  10.299  0.9588 -0.0122  0.7041
   26ETHOX  H13 6339   5.551  16.772  10.124  0.0464  1.6726 -2.3806
   26ETHOX   C2 6340   5.726  16.837  10.214  0.0373  0.3581 -0.1093
   26ETHOX  H21 6341   5.774  16.879  10.122 -0.0164  1.3868  0.3163
   26ETHOX  H23 6342   5.756  16.730  10.218 -2.2351 -0.4232 -1.9837
   27ETHOX   O1 6343   5.778  16.917  10.320 -0.2450 -0.0719  0.4217
   27ETHOX   C1 6344   5.912  16.895  10.335 -0.2632 -0.0639  0.2984
   27ETHOX  H11 6345   5.960  16.861  10.241 -1.0006  0.6597 -0.3651
   27ETHOX  H13 6346   5.919  16.821  10.417 -0.7711  2.1326  2.4442
   27ETHOX   C2 6347   5.981  17.033  10.371 -0.0016 -0.0574  0.2533
   27ETHOX  H21 6348   5.907  17.086  10.434 -1.0036  0.7298 -1.5033
   27ETHOX  H23 6349   5.985  17.097  10.280 -0.2844  1.0094  0.9814
   28ETHOX   O1 6350   6.101  17.028  10.455  0.1068 -0.3466 -0.5755
   28ETHOX   C1 6351   6.133  17.160  10.495 -0.0602  0.4867  0.2724
   28ETHOX  H11 6352   6.122  17.232  10.411 -0.5112 -0.8589 -0.8606
   28ETHOX  H13 6353   6.060  17.188  10.574 -0.2297 -1.4545  0.8651
   28ETHOX   C2 6354   6.271  17.167  10.557  0.0686 -0.3016  0.6136
   28ETHOX  H21 6355   6.273  17.088  10.635  1.0876 -0.7864  0.1184
   28ETHOX  H23 6356   6.281  17.266  10.606  0.9881  1.5165 -2.9081
   29ETHOX   O1 6357   6.385  17.144  10.468 -0.8190 -0.0330 -0.0214
   29ETHOX   C1 6358   6.508  17.152  10.546 -0.1266  0.0956 -0.0555
   29ETHOX  H11 6359   6.512  17.071  10.622  2.3901  0.2360  0.0519
   29ETHOX  H13 6360   6.528  17.249  10.598  1.1208 -0.6218  0.8533
   29ETHOX   C2 6361   6.638  17.123  10.472  0.5391 -0.1398  0.0900
   29ETHOX  H21 6362   6.723  17.121  10.544  0.9763 -0.0496 -0.4141
   29ETHOX  H23 6363   6.647  17.205  10.397 -0.0874  0.7215  0.9434
   30ETHOX   O1 6364   6.642  16.992  10.419  0.1147 -0.3628  0.1507
   30ETHOX   C1 6365   6.769  16.955  10.362 -0.1746 -0.7638 -0.2110
   30ETHOX  H11 6366   6.809  17.043  10.308 -1.0511  1.3089  2.2719
   30ETHOX  H13 6367   6.832  16.957  10.454 -1.0438  3.1267  0.4855
   30ETHOX   C2 6368   6.768  16.819  10.295  0.1206  0.7837 -0.2680
   30ETHOX  H21 6369   6.866  16.804  10.244 -0.2595 -0.9257 -0.5825
   30ETHOX  H23 6370   6.697  16.823  10.209  0.4319 -0.2081 -0.5933
   31ETHOX   O1 6371   6.724  16.716  10.380 -0.3842 -0.4163  0.0289
   31ETHOX   C1 6372   6.708  16.594  10.311 -0.4867  0.1598 -0.2623
   31ETHOX  H11 6373   6.612  16.595  10.256 -0.0414 -1.7274 -1.1743
   31ETHOX  H13 6374   6.793  16.572  10.243 -1.1182 -2.3932 -0.3343
   31ETHOX   C2 6375   6.719  16.480  10.413 -0.0170 -0.2892 -0.4099
   31ETHOX  H21 6376   6.694  16.376  10.382  1.6438 -1.1571  0.9978
   31ETHOX  H23 6377   6.653  16.503  10.499  0.4894 -0.4575  0.0298
   32ETHOX   O1 6378   6.861  16.476  10.453  0.2455  0.0374 -0.6017
   32ETHOX   C1 6379   6.868  16.434  10.583  0.1022  0.5514  1.0604
   32ETHOX  H11 6380   6.826  16.513  10.649  1.6609  1.2674  1.2250
   32ETHOX  H13 6381   6.821  16.334  10.591 -2.0202  1.4896  1.1558
   32ETHOX   C2 6382   7.013  16.422  10.635 -1.1747  0.0568 -0.2211
   32ETHOX  H21 6383   7.002  16.379  10.737 -1.2702 -0.9191 -0.6303
   32ETHOX  H23 6384   7.063  16.520  10.651  0.9339 -1.1095  0.8034
   33ETHOX   O1 6385   7.086  16.331  10.553 -0.8108 -0.2086 -0.8059
   33ETHOX   C1 6386   7.225  16.347  10.573 -0.1622  0.4391 -0.4038
   33ETHOX  H11 6387   7.273  16.412  10.497 -0.5802  1.4842  0.2179
   33ETHOX  H13 6388   7.251  16.387  10.673 -0.9311 -0.8008  0.3207
   33ETHOX   C2 6389   7.319  16.215  10.566  0.1994 -0.3896  0.0450
   33ETHOX  H21 6390   7.421  16.259  10.568  0.6344 -1.3219 -0.7606
   33ETHOX  H23 6391   7.298  16.164  10.469  0.0441 -1.1281  0.4605
   34ETHOX   O1 6392   7.309  16.121  10.665  0.1693  0.8958 -0.6540
   34ETHOX   C1 6393   7.385  16.007  10.632 -0.1235 -0.4469  0.0182
   34ETHOX  H11 6394   7.464  16.037  10.560 -1.6271  0.9623 -1.1212
   34ETHOX  H13 6395   7.319  15.927  10.592 -0.1034  0.1296 -1.2151
   34ETHOX   C2 6396   7.443  15.950  10.763 -0.1455  0.4728  0.0386
   34ETHOX  H21 6397   7.504  15.861  10.739  0.1513  0.7356 -0.1994
   34ETHOX  H23 6398   7.352  15.916  10.817 -0.5475  0.4418 -0.6538
   35ETHOX   O1 6399   7.530  16.045  10.832  0.5975  0.3502  0.1185
   35ETHOX   C1 6400   7.531  16.008  10.973  0.1242 -0.1428  0.4292
   35ETHOX  H11 6401   7.429  16.008  11.017  0.2585 -0.5682  0.7445
   35ETHOX  H13 6402   7.577  15.909  10.987  2.1923  1.0174  2.4142
   35ETHOX   C2 6403   7.608  16.120  11.060  1.2186  0.4715  0.0635
   35ETHOX  H21 6404   7.704  16.135  11.006  1.5348  0.7024  0.6724
   35ETHOX  H23 6405   7.623  16.074  11.160  3.1649 -3.2037 -1.7538
   36ETHOX   O1 6406   7.544  16.246  11.066 -0.1755  0.5479 -0.1521
   36ETHOX   C1 6407   7.630  16.336  11.133  0.3304 -0.3358 -0.2921
   36ETHOX  H11 6408   7.733  16.318  11.097  1.1754  0.1111  1.7664
   36ETHOX  H13 6409   7.622  16.314  11.242 -0.4149 -1.9886 -0.6527
   36ETHOX   C2 6410   7.580  16.478  11.106 -0.2873  0.6757 -0.2060
   36ETHOX  H21 6411   7.470  16.487  11.122 -0.6690 -2.9672  0.0535
   36ETHOX  H23 6412   7.607  16.515  11.005  1.7879  0.6712  0.3009
   37ETHOX   O1 6413   7.642  16.556  11.202 -0.3420 -0.6937  0.1786
   37ETHOX   C1 6414   7.568  16.659  11.253  0.5303 -0.2196  0.2280
   37ETHOX  H11 6415   7.543  16.735  11.175  1.3076  1.6542  1.7042
   37ETHOX  H13 6416   7.469  16.617  11.282  0.0793  0.8339  0.2658
   37ETHOX   C2 6417   7.638  16.746  11.364 -0.1614 -0.6435 -1.1577
   37ETHOX  H21 6418   7.589  16.846  11.355 -0.3261 -0.8177 -2.4189
   37ETHOX  H23 6419   7.742  16.768  11.330  0.3400 -1.4018 -0.1603
   38ETHOX   O1 6420   7.633  16.702  11.498  0.2936 -0.2906 -0.1797
   38ETHOX   C1 6421   7.656  16.816  11.586  0.2168 -0.6870  0.4372
   38ETHOX  H11 6422   7.576  16.891  11.567  0.9805 -0.7427 -3.9961
   38ETHOX  H13 6423   7.753  16.866  11.565 -0.4364  1.6782  2.4893
   38ETHOX   C2 6424   7.654  16.772  11.731 -0.0365  0.4020  0.7250
   38ETHOX  H21 6425   7.552  16.732  11.751  0.0024 -0.0456  0.0502
   38ETHOX  H23 6426   7.671  16.861  11.795  0.6250 -0.5537  1.9210
   39ETHOX   O1 6427   7.761  16.685  11.767  0.2884  0.0198 -0.1921
   39ETHOX   C1 6428   7.780  16.679  11.908  0.1884 -0.0416  0.4734
   39ETHOX  H11 6429   7.776  16.781  11.953  0.2021  0.1261  0.1052
   39ETHOX  H13 6430   7.698  16.614  11.945  0.0684  0.5438  1.2498
   39ETHOX   C2 6431   7.911  16.614  11.942  0.0245  0.1148  0.4204
   39ETHOX  H21 6432   7.914  16.519  11.884  0.0461 -0.0552  0.6985
   39ETHOX  H23 6433   7.919  16.587  12.049  0.1348 -1.1021  0.1209
   40ETHOX   O1 6434   8.025  16.685  11.897 -0.5569  0.6713  0.1886
   40ETHOX   C1 6435   8.141  16.600  11.908 -0.4170  0.2841 -0.4996
   40ETHOX  H11 6436   8.154  16.524  11.828  2.1765  0.4196 -0.2809
   40ETHOX  H13 6437   8.146  16.553  12.009 -0.5152  0.9180 -0.1979
   40ETHOX   C2 6438   8.275  16.681  11.902  0.2092  0.2581  0.9484
   40ETHOX  H21 6439   8.360  16.614  11.929  0.8503  1.1932  1.3093
   40ETHOX  H23 6440   8.274  16.752  11.988 -2.5668 -0.8204  1.9336
   41ETHOX   O1 6441   8.304  16.741  11.775  0.2240  0.5497  0.2004
   41ETHOX   C1 6442   8.371  16.655  11.695 -0.5609 -0.5688 -0.0648
   41ETHOX  H11 6443   8.464  16.612  11.737 -1.1922 -3.8629 -1.7349
   41ETHOX  H13 6444   8.304  16.567  11.682 -0.4192 -1.1872  2.8596
   41ETHOX   C2 6445   8.408  16.724  11.560  0.6135  0.6182  0.3965
   41ETHOX  H21 6446   8.310  16.752  11.515  1.5960  0.1315 -2.2142
   41ETHOX  H23 6447   8.461  16.648  11.499 -0.1874 -0.4616  1.0221
   42ETHOX   O1 6448   8.490  16.835  11.592 -0.0062  0.0233 -0.0395
   42ETHOX   C1 6449   8.528  16.911  11.474 -0.0019  0.0501  0.0553
   42ETHOX  H11 6450   8.453  16.991  11.461  1.6401  1.4242 -1.6742
   42ETHOX  H13 6451   8.628  16.958  11.491 -0.6126  1.0871  0.8802
   42ETHOX   C2 6452   8.528  16.852  11.329  0.2564 -0.0549 -0.1962
   42ETHOX  H21 6453   8.556  16.933  11.258  2.1557  0.8708  1.5088
   42ETHOX  H23 6454   8.445  16.784  11.301  0.9757 -1.2545  0.4864
   43ETHOX   O1 6455   8.633  16.754  11.315  0.2267 -0.4682  0.2395
   43ETHOX   C1 6456   8.638  16.705  11.183  0.4438 -0.2406  0.4120
   43ETHOX  H11 6457   8.544  16.649  11.165 -0.2541  1.7129 -2.7475
   43ETHOX  H13 6458   8.631  16.787  11.109  0.2692  0.2514  0.9722
   43ETHOX   C2 6459   8.760  16.611  11.141  0.1275 -0.8669 -0.6033
   43ETHOX  H21 6460   8.713  16.515  11.114 -3.5021  1.3136 -2.8258
   43ETHOX  H23 6461   8.825  16.609  11.232 -0.5714  0.5366 -0.0391
   44ETHOX   O1 6462   8.840  16.675  11.044 -0.0504  0.1922  0.2621
   44ETHOX   C1 6463   8.949  16.597  10.992  0.4020 -0.1059 -0.8435
   44ETHOX  H11 6464   9.013  16.553  11.072  0.8712 -1.0773 -1.7354
   44ETHOX  H13 6465   8.900  16.508  10.947 -0.5021 -1.2760  2.1561
   44ETHOX   C2 6466   9.014  16.674  10.874  0.0029  0.0904 -0.5972
   44ETHOX  H21 6467   9.091  16.607  10.830  0.5573  0.5259 -0.3189
   44ETHOX  H23 6468   9.057  16.769  10.913 -0.2009 -0.3130  0.6617
   45ETHOX   O1 6469   8.918  16.707  10.773 -0.5108  0.1117 -0.3330
   45ETHOX   C1 6470   8.983  16.760  10.652  0.3588 -0.5329  0.5786
   45ETHOX  H11 6471   9.046  16.847  10.681  3.6588 -2.7095  0.5201
   45ETHOX  H13 6472   8.908  16.803  10.582  2.2098  0.9276 -0.5969
   45ETHOX   C2 6473   9.065  16.657  10.568  0.3005  0.2869  0.7801
   45ETHOX  H21 6474   9.119  16.587  10.635  2.5312  0.8290 -0.3657
   45ETHOX  H23 6475   9.145  16.698  10.502  0.8820 -3.1116 -0.8872
   46ETHOX   O1 6476   8.974  16.590  10.478 -0.5534  0.1113  0.0268
   46ETHOX   C1 6477   9.050  16.525  10.378 -0.0358 -0.0864  0.0542
   46ETHOX  H11 6478   8.962  16.493  10.318  1.3829 -0.4672 -1.9013
   46ETHOX  H13 6479   9.113  16.602  10.330 -0.3797  1.7700  2.3913
   46ETHOX   C2 6480   9.130  16.406  10.427 -0.1188 -0.7072  0.3092
   46ETHOX  H21 6481   9.199  16.435  10.510  0.9097 -3.0221  0.3442
   46ETHOX  H23 6482   9.214  16.367  10.365  0.5029  0.4848  0.3613
   47ETHOX   O1 6483   9.042  16.298  10.470 -0.0380  0.1510  0.3299
   47ETHOX   C1 6484   9.040  16.208  10.360 -0.1484 -0.2321  0.1849
   47ETHOX  H11 6485   9.132  16.147  10.352  0.9584  1.5117 -1.2409
   47ETHOX  H13 6486   9.035  16.256  10.260  1.8543  0.8252  0.5315
   47ETHOX   C2 6487   8.922  16.113  10.368 -0.5049  0.3768  0.1906
   47ETHOX  H21 6488   8.917  16.051  10.276 -0.9584  1.7327 -0.7243
   47ETHOX  H23 6489   8.826  16.166  10.352 -0.3559 -0.0396 -2.4960
   48ETHOX   O1 6490   8.922  16.034  10.491 -0.3612  0.4055  0.0325
   48ETHOX   C1 6491   8.796  15.974  10.519  0.1819 -0.7013  0.0715
   48ETHOX  H11 6492   8.729  16.056  10.550  2.1779  0.3263  1.9922
   48ETHOX  H13 6493   8.767  15.922  10.425  1.4632  2.6395 -2.3460
   48ETHOX   C2 6494   8.809  15.875  10.637 -0.1949 -0.3120 -0.2684
   48ETHOX  H21 6495   8.830  15.934  10.729  0.0718  0.8243 -1.0354
   48ETHOX  H23 6496   8.713  15.822  10.650  0.1469 -0.8221  0.1765
   49ETHOX   O1 6497   8.902  15.771  10.609 -0.4197  0.4843 -0.1325
   49ETHOX   C1 6498   8.923  15.685  10.715 -0.5360 -0.4390 -0.6193
   49ETHOX  H11 6499   8.829  15.634  10.744  0.1151 -0.5417  1.4122
   49ETHOX  H13 6500   8.962  15.738  10.804  0.8702 -1.6604 -0.4675
   49ETHOX   C2 6501   9.019  15.568  10.681 -0.1963 -0.0017  1.0075
   49ETHOX  H21 6502   8.984  15.505  10.596  0.6683 -0.3153  0.8753
   49ETHOX  H23 6503   9.018  15.500  10.769  0.1622 -2.7768 -0.9747
   50ETHOX   O1 6504   9.146  15.605  10.654  0.1492  0.0250  0.4374
   50ETHOX   C1 6505   9.244  15.501  10.657 -0.2282  0.1903  0.7019
   50ETHOX  H11 6506   9.214  15.438  10.744  0.4664  0.8090  1.4017
   50ETHOX  H13 6507   9.264  15.445  10.563  2.3073  1.2265  0.5438
   50ETHOX   C2 6508   9.390  15.556  10.701  0.2400 -0.0191  0.1510
   50ETHOX  H21 6509   9.456  15.476  10.739  1.6778  1.0124 -0.0962
   50ETHOX  H23 6510   9.382  15.624  10.790 -1.4132  0.6442 -0.4668
   51ETHOX   O1 6511   9.443  15.623  10.583  0.7584  0.3460  0.5927
   51ETHOX   C1 6512   9.549  15.714  10.616 -0.1878  0.4311 -0.0939
   51ETHOX  H11 6513   9.520  15.784  10.698  0.1465 -0.2499  0.6250
   51ETHOX  H13 6514   9.578  15.772  10.526  0.9470 -1.4264 -0.9855
   51ETHOX   C2 6515   9.679  15.642  10.667 -0.1143 -0.7057 -0.3172
   51ETHOX  H21 6516   9.653  15.574  10.751  1.3152  0.0766  0.7967
   51ETHOX  H23 6517   9.749  15.724  10.693  1.0867 -1.5003 -0.9468
   52ETHOX   O1 6518   9.730  15.577  10.552  0.3791  0.5523  0.4658
   52ETHOX   C1 6519   9.845  15.498  10.582  0.0370  0.1312 -0.3281
   52ETHOX  H11 6520   9.923  15.553  10.638  0.5723 -2.5869  1.8364
   52ETHOX  H13 6521   9.816  15.410  10.644  0.4160 -0.2640 -0.7033
   52ETHOX   C2 6522   9.904  15.435  10.450 -0.2575 -0.3420 -0.3012
   52ETHOX  H21 6523   9.839  15.354  10.410  1.7777 -1.6703 -1.0783
   52ETHOX  H23 6524  10.002  15.395  10.485 -0.6031 -0.4782  0.5184
   53ETHOX   O1 6525   9.926  15.540  10.356 -0.0225  0.1016 -0.0692
   53ETHOX   C1 6526   9.990  15.497  10.242  0.1210 -0.0216 -0.3537
   53ETHOX  H11 6527   9.941  15.405  10.203 -0.4347  0.4700 -0.8348
   53ETHOX  H13 6528   9.965  15.567  10.159  0.2169 -1.0192 -1.2488
   53ETHOX   C2 6529  10.144  15.493  10.252  0.0997  0.0996  0.5932
   53ETHOX  H21 6530  10.177  15.580  10.311 -0.1994  2.7778 -2.8365
   53ETHOX  H23 6531  10.184  15.491  10.148 -0.6851 -0.2750  0.2901
   54ETHOX   O1 6532  10.200  15.376  10.319  0.6318  0.2241 -0.1200
   54ETHOX   C1 6533  10.341  15.395  10.329  0.3028 -0.3092  0.5733
   54ETHOX  H11 6534  10.376  15.423  10.227 -1.3208 -0.8951 -0.1822
   54ETHOX  H13 6535  10.362  15.476  10.402  0.9105 -0.3085  0.4072
   54ETHOX   C2 6536  10.418  15.268  10.371 -0.0396  0.2208  0.2082
   54ETHOX  H21 6537  10.524  15.269  10.339  0.1737  0.6939  0.9065
   54ETHOX  H23 6538  10.371  15.180  10.323 -1.0444  0.1105  1.3353
   55ETHOX   O1 6539  10.401  15.247  10.513 -0.0274 -0.4747  0.0125
   55ETHOX   C1 6540  10.500  15.166  10.566  0.0886  0.0609 -0.0485
   55ETHOX  H11 6541  10.520  15.077  10.503  2.2347 -0.3874  1.1729
   55ETHOX  H13 6542  10.585  15.238  10.568 -1.5669  2.1760 -1.4953
   55ETHOX   C2 6543  10.459  15.105  10.700  0.3263 -0.0768 -0.1979
   55ETHOX  H21 6544  10.361  15.053  10.690  1.4380 -2.2515 -0.3435
   55ETHOX  H23 6545  10.524  15.020  10.730 -0.1906 -0.0882  0.9220
   56ETHOX   O1 6546  10.459  15.199  10.807 -0.2286 -0.0745  0.9886
   56ETHOX   C1 6547  10.402  15.148  10.928  0.6737 -0.4400 -0.1003
   56ETHOX  H11 6548  10.454  15.057  10.965  0.1753 -0.4689  0.5430
   56ETHOX  H13 6549  10.299  15.119  10.900  1.8990 -2.2129 -3.3371
   56ETHOX   C2 6550  10.404  15.259  11.038  0.4036  0.7611  0.3703
   56ETHOX  H21 6551  10.513  15.275  11.055  0.1512  0.8406  2.1486
   56ETHOX  H23 6552  10.357  15.202  11.121  1.0743 -1.7195 -0.8505
   57ETHOX   O1 6553  10.325  15.376  11.005 -0.1747  0.6009  0.5502
   57ETHOX   C1 6554  10.306  15.454  11.124 -0.5322  0.4365  0.4101
   57ETHOX  H11 6555  10.241  15.408  11.201  1.1785 -2.1969  0.4059
   57ETHOX  H13 6556  10.408  15.461  11.168 -0.6910  0.5109  0.7724
   57ETHOX   C2 6557  10.259  15.597  11.082  0.3371 -0.3911  0.3194
   57ETHOX  H21 6558  10.318  15.625  10.992  0.0761 -0.6903  0.0554
   57ETHOX  H23 6559  10.279  15.670  11.163 -0.1382  0.0145  0.0752
   58ETHOX   O1 6560  10.113  15.591  11.053  0.3048  0.1053 -0.0757
   58ETHOX   C1 6561  10.074  15.685  10.957 -0.5856  0.4356  0.7832
   58ETHOX  H11 6562   9.971  15.662  10.924 -2.3145  2.6104  4.1175
   58ETHOX  H13 6563  10.140  15.668  10.869 -0.9496  0.1110  0.5708
   58ETHOX   C2 6564  10.064  15.826  11.007 -0.2616 -0.3258  0.0805
   58ETHOX  H21 6565  10.010  15.822  11.104  1.2718  0.2107  0.9950
   58ETHOX  H23 6566  10.001  15.889  10.941 -0.2972  0.2035  0.6102
   59ETHOX   O1 6567  10.195  15.874  11.034 -0.0417 -0.4922  0.1073
   59ETHOX   C1 6568  10.196  16.007  11.095  0.3079 -0.3237  0.1759
   59ETHOX  H11 6569  10.108  16.019  11.162 -0.5558 -0.7240 -0.8588
   59ETHOX  H13 6570  10.281  16.036  11.159 -1.2658 -0.3885  2.4188
   59ETHOX   C2 6571  10.184  16.103  10.979  0.2398 -0.5614  0.5291
   59ETHOX  H21 6572  10.090  16.076  10.926 -0.0614  1.5115 -0.1040
   59ETHOX  H23 6573  10.272  16.094  10.912 -0.5397 -3.8672 -0.2017
   60ETHOX   O1 6574  10.166  16.241  11.013 -0.1044 -0.0935  0.9020
   60ETHOX   C1 6575  10.142  16.328  10.901  0.8345 -0.1361  0.1137
   60ETHOX  H11 6576  10.051  16.295  10.846  0.7413 -1.3203  0.9565
   60ETHOX  H13 6577  10.222  16.311  10.827  2.3921  0.8627  1.4937
   60ETHOX   C2 6578  10.134  16.476  10.949  0.6119  0.1710  0.4651
   60ETHOX  H21 6579  10.115  16.494  11.058  1.5249 -1.6355  0.9643
   60ETHOX  H23 6580  10.051  16.531  10.900  0.6506 -0.8713 -0.8088
   61ETHOX   O1 6581  10.253  16.541  10.914 -0.1203 -0.9036  0.1849
   61ETHOX   C1 6582  10.342  16.520  11.020 -0.5654  0.0980  0.0787
   61ETHOX  H11 6583  10.300  16.580  11.103 -0.1155  0.4742  0.0445
   61ETHOX  H13 6584  10.330  16.414  11.052 -0.9678 -0.3041 -1.3241
   61ETHOX   C2 6585  10.489  16.560  10.985  1.1229 -0.6204 -0.0954
   61ETHOX  H21 6586  10.517  16.495  10.899 -1.6357 -0.0574 -1.5221
   61ETHOX  H23 6587  10.551  16.545  11.076 -0.2397 -0.3011  0.9059
   62ETHOX   O1 6588  10.487  16.697  10.942  0.2474  0.3992  0.2831
   62ETHOX   C1 6589  10.609  16.733  10.879  0.2111 -0.3814  0.2149
   62ETHOX  H11 6590  10.614  16.664  10.792  1.1182 -1.1029  0.8159
   62ETHOX  H13 6591  10.694  16.707  10.945  0.1563  1.8747  1.2735
   62ETHOX   C2 6592  10.619  16.883  10.836 -0.2011 -0.7051  0.1593
   62ETHOX  H21 6593  10.719  16.904  10.794 -0.3397 -0.8299 -0.2359
   62ETHOX  H23 6594  10.596  16.940  10.929 -2.9557  1.8977 -1.8921
   63ETHOX   O1 6595  10.518  16.924  10.737  0.6048 -0.5378  0.0116
   63ETHOX   C1 6596  10.471  17.062  10.754  0.7860  0.6724 -0.6156
   63ETHOX  H11 6597  10.409  17.056  10.845  0.9675 -1.2531 -0.5679
   63ETHOX  H13 6598  10.548  17.140  10.770 -1.0628  2.2485  1.0228
   63ETHOX   C2 6599  10.368  17.105  10.642 -0.0950  0.2260 -0.1068
   63ETHOX  H21 6600  10.330  17.206  10.668  0.0001 -0.5458  3.6311
   63ETHOX  H23 6601  10.285  17.032  10.648  0.7245 -0.6172  2.1940
   64ETHOX   O1 6602  10.421  17.104  10.509  0.2452  0.4486 -0.0131
   64ETHOX   C1 6603  10.321  17.147  10.419 -0.4098  0.1606  0.3738
   64ETHOX  H11 6604  10.327  17.258  10.416  0.0832  0.1176 -0.5151
   64ETHOX  H13 6605  10.218  17.111  10.443 -0.0663 -0.7692  0.4623
   64ETHOX   C2 6606  10.369  17.113  10.274  0.9460 -0.2362 -0.3374
   64ETHOX  H21 6607  10.473  17.151  10.271  0.6704  0.5536 -3.6999
   64ETHOX  H23 6608  10.310  17.172  10.201  2.6205 -1.6444 -2.9754
   65ETHOX   O1 6609  10.363  16.972  10.246  0.0351 -0.2083  0.0267
   65ETHOX   C1 6610  10.229  16.932  10.207  0.0273 -0.6618 -0.1719
   65ETHOX  H11 6611  10.165  16.987  10.278 -0.6631 -2.9199  1.0410
   65ETHOX  H13 6612  10.201  16.955  10.102 -0.0157 -2.4682 -0.5787
   65ETHOX   C2 6613  10.194  16.787  10.221 -0.0023  0.0530 -0.5526
   65ETHOX  H21 6614  10.228  16.749  10.320 -1.1339  0.3694 -0.0202
   65ETHOX  H23 6615  10.249  16.716  10.155  0.1796 -1.6879  1.3403
   66ETHOX   O1 6616  10.053  16.778  10.218  0.0045  0.1991  0.8082
   66ETHOX   C1 6617  10.011  16.641  10.220  0.4868  0.4658  0.1818
   66ETHOX  H11 6618  10.024  16.590  10.317  0.1151 -0.0747 -0.0507
   66ETHOX  H13 6619  10.074  16.590  10.144  0.6542  2.6433 -1.2559
   66ETHOX   C2 6620   9.862  16.625  10.192 -0.0458 -0.1261 -0.1712
   66ETHOX  H21 6621   9.807  16.659  10.282  1.5602 -1.2640  1.3310
   66ETHOX  H23 6622   9.855  16.515  10.179 -0.1458 -0.4144  1.9657
   67ETHOX   O1 6623   9.812  16.688  10.079 -0.0035 -0.1218  0.0441
   67ETHOX   C1 6624   9.675  16.646  10.044 -0.0956  0.5323  0.2053
   67ETHOX  H11 6625   9.652  16.692   9.946  0.1763 -0.2147 -0.2170
   67ETHOX  H13 6626   9.674  16.535  10.037  0.0228  0.5415  0.0593
   67ETHOX   C2 6627   9.569  16.694  10.148 -0.1011  0.7726  0.2668
   67ETHOX  H21 6628   9.466  16.697  10.108 -0.0720  4.0541  0.1975
   67ETHOX  H23 6629   9.597  16.798  10.174  2.2351  0.3109 -0.1867
   68ETHOX   O1 6630   9.560  16.612  10.269 -0.4464 -0.4153  0.4103
   68ETHOX   C1 6631   9.490  16.676  10.370 -0.0117  0.2117  0.8459
   68ETHOX  H11 6632   9.544  16.772  10.388  0.1674  0.5963 -1.4611
   68ETHOX  H13 6633   9.385  16.696  10.337  0.6994  0.3816 -1.4852
   68ETHOX   C2 6634   9.491  16.588  10.496 -0.2415 -0.8236 -0.5164
   68ETHOX  H21 6635   9.421  16.502  10.495 -0.4230 -0.6761 -0.5251
   68ETHOX  H23 6636   9.452  16.657  10.574 -0.2521 -1.1977 -0.1910
   69ETHOX   O1 6637   9.620  16.543  10.523 -0.4355  0.5844 -0.2315
   69ETHOX   C1 6638   9.629  16.431  10.616 -0.7665  0.2196  0.1062
   69ETHOX  H11 6639   9.729  16.428  10.663 -1.3434 -3.5554  1.4696
   69ETHOX  H13 6640   9.560  16.437  10.703 -2.1487 -0.3858 -0.8898
   69ETHOX   C2 6641   9.617  16.285  10.562 -0.5662  0.5813 -0.8164
   69ETHOX  H21 6642   9.684  16.214  10.614 -2.1367 -2.3394 -2.5059
   69ETHOX  H23 6643   9.632  16.277  10.452 -1.8215 -0.8319 -0.9238
   70ETHOX   O1 6644   9.487  16.234  10.584  0.4872  0.1685  0.5298
   70ETHOX   C1 6645   9.478  16.095  10.541  0.4465 -0.0427  0.4031
   70ETHOX  H11 6646   9.488  16.093  10.430 -1.1542  2.0121  0.1457
   70ETHOX  H13 6647   9.561  16.041  10.591  0.9164  0.2239 -0.0716
   70ETHOX   C2 6648   9.345  16.025  10.580 -0.8663  0.3069 -0.2465
   70ETHOX  H21 6649   9.328  15.930  10.524 -0.6898 -0.0406  0.2830
   70ETHOX  H23 6650   9.276  16.108  10.553 -0.6691  0.9323  1.0835
   71ETHOX   O1 6651   9.353  16.008  10.721 -0.4910 -0.3287  0.0266
   71ETHOX   C1 6652   9.236  15.938  10.772 -0.4068  0.6691  0.2191
   71ETHOX  H11 6653   9.217  15.837  10.729  0.9637  0.0031  1.0980
   71ETHOX  H13 6654   9.149  16.007  10.769 -1.1650 -0.2471  0.5620
   71ETHOX   C2 6655   9.243  15.906  10.926 -1.0033 -0.5925  0.6346
   71ETHOX  H21 6656   9.336  15.848  10.946 -1.2298 -0.6309  1.6623
   71ETHOX  H23 6657   9.160  15.839  10.956 -1.6237 -0.5520 -0.8993
   72ETHOX   O1 6658   9.235  16.021  11.001 -0.8072  0.1536 -0.5214
   72ETHOX   C1 6659   9.302  16.016  11.127  0.3234 -0.1223  0.1027
   72ETHOX  H11 6660   9.279  15.913  11.162  1.0328 -1.2400 -2.4714
   72ETHOX  H13 6661   9.410  16.022  11.103  0.8636  2.5909  2.5820
   72ETHOX   C2 6662   9.255  16.120  11.224  0.3578  0.1477 -0.3933
   72ETHOX  H21 6663   9.278  16.093  11.329 -0.3509  3.9006  0.9035
   72ETHOX  H23 6664   9.144  16.124  11.225  0.2259 -1.7328  2.0503
   73ETHOX   O1 6665   9.304  16.254  11.198  0.5146 -0.5477  0.8611
   73ETHOX   C1 6666   9.277  16.347  11.306 -0.0447 -0.0807  0.4288
   73ETHOX  H11 6667   9.338  16.335  11.397  0.8530  0.4008 -0.0961
   73ETHOX  H13 6668   9.170  16.330  11.333 -1.0280  3.7321 -0.4831
   73ETHOX   C2 6669   9.262  16.494  11.256  0.6662  0.9108 -0.5870
   73ETHOX  H21 6670   9.209  16.554  11.334  3.5567  2.4977  0.3438
   73ETHOX  H23 6671   9.193  16.500  11.169 -0.0938  4.0884  0.1020
   74ETHOX   O1 6672   9.381  16.566  11.222 -0.2584  0.0651 -0.2985
   74ETHOX   C1 6673   9.334  16.701  11.182 -0.1853 -0.2858 -0.2144
   74ETHOX  H11 6674   9.420  16.757  11.139 -0.4960 -0.1125 -0.6036
   74ETHOX  H13 6675   9.245  16.705  11.116 -0.5777 -2.0023  0.1640
   74ETHOX   C2 6676   9.289  16.802  11.296 -0.5472  0.2116  0.0382
   74ETHOX  H21 6677   9.291  16.907  11.259 -0.9074  0.6406  1.1977
   74ETHOX  H23 6678   9.338  16.784  11.394 -0.1760 -0.8881 -0.3330
   75ETHOX   O1 6679   9.154  16.783  11.316  0.0229 -0.3062  0.5178
   75ETHOX   C1 6680   9.106  16.873  11.413  0.9570  0.3679  0.3861
   75ETHOX  H11 6681   9.105  16.978  11.378 -2.7732  0.1933 -0.4303
   75ETHOX  H13 6682   9.163  16.853  11.507  0.9775 -1.4447  0.0341
   75ETHOX   C2 6683   8.966  16.832  11.448  0.0888  0.0480  0.4697
   75ETHOX  H21 6684   8.901  16.823  11.359 -2.8484 -0.7823  2.5413
   75ETHOX  H23 6685   8.929  16.919  11.506 -1.5351 -0.6653  0.5483
   76ETHOX   O1 6686   8.950  16.719  11.528  0.1802 -0.2256  0.4787
   76ETHOX   C1 6687   8.817  16.695  11.568  0.1763 -0.5605  0.0588
   76ETHOX  H11 6688   8.773  16.794  11.593  1.9703 -0.1909  2.0377
   76ETHOX  H13 6689   8.758  16.661  11.480 -2.4361  2.1907  0.5818
   76ETHOX   C2 6690   8.803  16.599  11.685  0.1592  0.5526 -0.1574
   76ETHOX  H21 6691   8.869  16.511  11.668  2.5591  2.3884 -1.0231
   76ETHOX  H23 6692   8.704  16.558  11.714  0.2568  0.7187  0.4299
   77ETHOX   O1 6693   8.836  16.653  11.814 -0.1884 -0.1479  0.2736
   77ETHOX   C1 6694   8.864  16.549  11.910  0.2850 -0.2331 -0.2034
   77ETHOX  H11 6695   8.951  16.490  11.875  0.4543 -1.2636  1.8076
   77ETHOX  H13 6696   8.789  16.466  11.914  1.1883 -1.2971 -2.7364
   77ETHOX   C2 6697   8.900  16.604  12.050  0.5861  0.3171 -0.0777
   77ETHOX  H21 6698   8.905  16.514  12.115 -0.4599 -0.2975 -0.8095
   77ETHOX  H23 6699   8.816  16.669  12.082 -1.3656 -1.7030 -0.7593
   78ETHOX   O1 6700   9.016  16.681  12.043  0.3322  0.6278  0.4618
   78ETHOX   C1 6701   9.055  16.727  12.175 -0.2101 -0.0342  0.6792
   78ETHOX  H11 6702   8.991  16.810  12.210  0.9971  1.5329 -0.6636
   78ETHOX  H13 6703   9.062  16.637  12.240  1.8499  0.1390  0.7662
   78ETHOX   C2 6704   9.194  16.783  12.177 -0.2668  0.6639  0.4972
   78ETHOX  H21 6705   9.200  16.875  12.116  0.1476  0.1824 -0.2061
   78ETHOX  H23 6706   9.258  16.709  12.124 -0.4370 -0.0145  1.2274
   79ETHOX   O1 6707   9.246  16.800  12.310 -0.0363  0.1637 -0.0726
   79ETHOX   C1 6708   9.369  16.866  12.313 -0.0191  0.4821  0.1881
   79ETHOX  H11 6709   9.349  16.967  12.271  1.0233  0.8333  0.5193
   79ETHOX  H13 6710   9.410  16.878  12.416 -1.5405 -0.1119  0.9080
   79ETHOX   C2 6711   9.487  16.784  12.247  0.1528  0.2020 -0.2504
   79ETHOX  H21 6712   9.577  16.849  12.253 -0.1304  0.4834  1.5787
   79ETHOX  H23 6713   9.451  16.765  12.144 -2.0323  2.1002  0.1015
   80ETHOX   O1 6714   9.514  16.659  12.316  0.3075  0.1545  0.4546
   80ETHOX   C1 6715   9.608  16.581  12.241 -0.1373 -0.2832 -0.0464
   80ETHOX  H11 6716   9.572  16.557  12.138 -0.1902 -2.2569  0.3914
   80ETHOX  H13 6717   9.708  16.628  12.233 -0.7461  1.2007  0.7312
   80ETHOX   C2 6718   9.644  16.448  12.302 -0.2050 -0.5654 -1.0802
   80ETHOX  H21 6719   9.656  16.461  12.412 -0.6212 -2.9804 -0.6957
   80ETHOX  H23 6720   9.737  16.415  12.251  0.3588 -0.5059 -0.1099
   81ETHOX   O1 6721   9.541  16.351  12.296  0.6822  0.5539  0.1162
   81ETHOX   C1 6722   9.568  16.245  12.379  0.6896  0.3354 -0.0680
   81ETHOX  H11 6723   9.623  16.166  12.325 -1.5800 -1.1684 -0.3427
   81ETHOX  H13 6724   9.631  16.281  12.463  1.3481  1.3159 -0.9601
   81ETHOX   C2 6725   9.437  16.190  12.427  0.1116  0.0594  0.7698
   81ETHOX  H21 6726   9.444  16.125  12.516 -0.0066 -1.0220  0.0120
   81ETHOX  H23 6727   9.376  16.281  12.444 -0.0028  0.6877 -2.3352
   82ETHOX   O1 6728   9.382  16.111  12.325 -0.0202  0.2548 -0.1577
   82ETHOX   C1 6729   9.263  16.043  12.365  0.0585  0.1077  0.1212
   82ETHOX  H11 6730   9.278  16.000  12.466  1.0213  0.1162 -0.0089
   82ETHOX  H13 6731   9.254  15.959  12.293  1.5896 -0.8127  0.9572
   82ETHOX   C2 6732   9.144  16.134  12.360  0.3794  0.0564 -0.1394
   82ETHOX  H21 6733   9.157  16.232  12.410 -0.5976  0.7150 -1.1346
   82ETHOX  H23 6734   9.065  16.080  12.416  1.0330 -0.8398 -0.0633
   83ETHOX   O1 6735   9.102  16.158  12.226 -0.3025  0.5873  0.0205
   83ETHOX   C1 6736   8.983  16.243  12.228 -0.0698 -0.0854  0.1599
   83ETHOX  H11 6737   8.912  16.204  12.304  0.2143 -0.4166  0.2559
   83ETHOX  H13 6738   9.007  16.344  12.267  0.7255 -0.1461 -0.1424
   83ETHOX   C2 6739   8.913  16.243  12.091 -0.8324 -0.5480 -0.2871
   83ETHOX  H21 6740   8.987  16.294  12.027  0.8692  0.9592  2.6571
   83ETHOX  H23 6741   8.825  16.311  12.090  0.2311  0.9919  1.8750
   84ETHOX   O1 6742   8.888  16.120  12.039  0.0684  0.5407 -0.3412
   84ETHOX   C1 6743   8.796  16.123  11.935 -0.0586 -0.1248 -0.2252
   84ETHOX  H11 6744   8.821  16.191  11.851 -1.1193 -0.7995 -1.1223
   84ETHOX  H13 6745   8.693  16.137  11.976 -0.5294  2.0001 -1.9402
   84ETHOX   C2 6746   8.791  15.981  11.864  0.3291  0.5547  0.0015
   84ETHOX  H21 6747   8.896  15.950  11.841 -0.1285  0.3161 -1.9858
   84ETHOX  H23 6748   8.732  15.993  11.771 -1.0804  1.9449  1.0357
   85ETHOX   O1 6749   8.737  15.886  11.941  0.0548 -0.1971 -0.0798
   85ETHOX   C1 6750   8.728  15.768  11.864  0.3899  0.1197 -0.0760
   85ETHOX  H11 6751   8.678  15.785  11.766  0.7169  0.5660 -0.1708
   85ETHOX  H13 6752   8.833  15.734  11.855  1.1368  1.5701  2.1962
   85ETHOX   C2 6753   8.645  15.657  11.934 -0.1993 -0.5648 -0.2218
   85ETHOX  H21 6754   8.677  15.627  12.036 -1.3197 -1.9468 -0.2470
   85ETHOX  H23 6755   8.657  15.569  11.867 -0.7240 -1.2515  0.5732
   86ETHOX   O1 6756   8.519  15.702  11.941  0.0993  0.1228 -0.0861
   86ETHOX   C1 6757   8.445  15.663  11.825 -0.5948  0.2193  0.0423
   86ETHOX  H11 6758   8.417  15.556  11.829  0.5860 -0.1287 -0.5526
   86ETHOX  H13 6759   8.510  15.680  11.736  0.4150  2.1720  1.0819
   86ETHOX   C2 6760   8.312  15.733  11.832 -1.2326 -0.0625  0.9184
   86ETHOX  H21 6761   8.258  15.722  11.929 -0.9671  0.8592  1.1809
   86ETHOX  H23 6762   8.249  15.682  11.756 -0.1936 -1.5979  1.0501
   87ETHOX   O1 6763   8.326  15.869  11.809 -0.1679 -0.0979  0.0981
   87ETHOX   C1 6764   8.219  15.936  11.749  0.0071  0.8356  0.0438
   87ETHOX  H11 6765   8.196  15.895  11.648 -0.0168 -1.5224  0.9505
   87ETHOX  H13 6766   8.127  15.906  11.803 -0.3329 -1.1804 -1.5306
   87ETHOX   C2 6767   8.238  16.087  11.741 -0.9567 -0.0767  0.0009
   87ETHOX  H21 6768   8.271  16.124  11.841 -0.0191 -0.4995 -0.1423
   87ETHOX  H23 6769   8.149  16.139  11.699 -0.3428  0.5572 -0.5336
   88ETHOX   O1 6770   8.340  16.115  11.645  0.5660  0.2495 -0.2616
   88ETHOX   C1 6771   8.383  16.248  11.656 -0.1084 -0.1749 -0.3170
   88ETHOX  H11 6772   8.416  16.279  11.757 -1.1051  3.8247 -1.0553
   88ETHOX  H13 6773   8.303  16.317  11.622  0.6654 -0.6624 -3.4416
   88ETHOX   C2 6774   8.496  16.268  11.554  0.0184 -0.0851 -0.0584
   88ETHOX  H21 6775   8.525  16.374  11.535 -1.3401  0.0376 -1.5960
   88ETHOX  H23 6776   8.458  16.240  11.454  0.4830 -2.5001  0.3768
   89ETHOX   O1 6777   8.614  16.194  11.585 -0.1082  0.0093 -0.3198
   89ETHOX   C1 6778   8.700  16.193  11.466  0.1821 -0.0675 -0.5298
   89ETHOX  H11 6779   8.663  16.126  11.385 -0.5517  0.1588 -0.3945
   89ETHOX  H13 6780   8.703  16.296  11.424 -0.1583  0.3491  0.4343
   89ETHOX   C2 6781   8.839  16.135  11.487  0.6224  0.4184  0.6857
   89ETHOX  H21 6782   8.889  16.125  11.388 -0.6597  0.2765  0.0158
   89ETHOX  H23 6783   8.815  16.030  11.515 -3.1956  0.6189 -1.1154
   90ETHOX   O1 6784   8.907  16.220  11.583 -0.4216  0.2708 -0.9130
   90ETHOX   C1 6785   9.023  16.160  11.633 -0.4783 -0.1462 -0.2908
   90ETHOX  H11 6786   8.994  16.073  11.696  2.6962 -1.0749  0.0705
   90ETHOX  H13 6787   9.087  16.126  11.549  1.1428  2.1832 -0.1176
   90ETHOX   C2 6788   9.104  16.261  11.721  0.0855 -0.1647  0.5483
   90ETHOX  H21 6789   9.170  16.199  11.786 -1.4939 -3.4478 -0.7081
   90ETHOX  H23 6790   9.054  16.321  11.799 -0.0943 -1.5440  1.5359
   91ETHOX   O1 6791   9.192  16.342  11.643 -0.0753  0.3772  0.2183
   91ETHOX   C1 6792   9.279  16.416  11.725 -0.0535 -0.2567 -0.1420
   91ETHOX  H11 6793   9.221  16.492  11.780  0.5833 -0.3910  0.7426
   91ETHOX  H13 6794   9.314  16.349  11.807 -1.0128  1.5853  1.8751
   91ETHOX   C2 6795   9.388  16.477  11.642  0.2647  0.2790  0.5409
   91ETHOX  H21 6796   9.354  16.533  11.552 -0.7009  1.0110  1.3452
   91ETHOX  H23 6797   9.452  16.391  11.611  3.2327  2.6641 -0.3692
   92ETHOX   O1 6798   9.463  16.560  11.715  0.4156  0.1267 -0.2470
   92ETHOX   C1 6799   9.536  16.487  11.811 -0.5770  0.1834 -0.3762
   92ETHOX  H11 6800   9.461  16.471  11.891 -1.0499 -0.2878 -0.9071
   92ETHOX  H13 6801   9.575  16.390  11.772  0.1183  0.2920  0.0363
   92ETHOX   C2 6802   9.656  16.566  11.865  0.0242  0.5066  0.2194
   92ETHOX  H21 6803   9.736  16.576  11.789  0.1066 -0.7994  0.0994
   92ETHOX  H23 6804   9.709  16.505  11.942 -1.8227  2.1118  2.9326
   93ETHOX   O1 6805   9.615  16.689  11.922 -0.0096 -0.7811  0.2856
   93ETHOX   C1 6806   9.726  16.779  11.949  0.1911  0.5428 -0.4182
   93ETHOX  H11 6807   9.801  16.721  12.006 -1.5995 -0.5316  0.9252
   93ETHOX  H13 6808   9.695  16.867  12.009  1.9734 -0.8861  2.8671
   93ETHOX   C2 6809   9.775  16.843  11.824 -0.1995  0.5565 -0.4296
   93ETHOX  H21 6810   9.805  16.946  11.854  0.4990 -0.5638  3.1748
   93ETHOX  H23 6811   9.684  16.852  11.761 -1.5643  1.1026  1.5251
   94ETHOX   O1 6812   9.878  16.773  11.765 -0.1030 -0.0305 -0.8424
   94ETHOX   C1 6813   9.995  16.854  11.754 -0.7664 -0.6977 -1.0147
   94ETHOX  H11 6814  10.016  16.898  11.853 -2.2557  0.0175 -0.9896
   94ETHOX  H13 6815  10.072  16.776  11.739 -0.5527 -0.9316  1.1023
   94ETHOX   C2 6816  10.008  16.964  11.640 -0.1972  0.0134 -0.3102
   94ETHOX  H21 6817   9.956  16.913  11.555 -0.5161  0.5004 -0.4120
   94ETHOX  H23 6818  10.114  16.989  11.619 -0.1173 -0.2785 -0.2708
   95ETHOX   O1 6819   9.929  17.079  11.658  0.2440  0.2874 -0.3754
   95ETHOX   C1 6820  10.000  17.178  11.740 -0.4789 -0.4191  0.5752
   95ETHOX  H11 6821  10.106  17.189  11.709 -0.4009 -1.6141  0.3606
   95ETHOX  H13 6822  10.001  17.167  11.850  1.6377  1.3867  0.7928
   95ETHOX   C2 6823   9.937  17.315  11.709  0.2543 -0.1038 -0.2579
   95ETHOX  H21 6824  10.003  17.390  11.758  1.9275  1.1106 -3.9953
   95ETHOX  H23 6825   9.836  17.321  11.756  0.7412 -2.3131  1.2190
   96ETHOX   O1 6826   9.922  17.360  11.570  0.2965 -0.3056 -0.2263
   96ETHOX   C1 6827   9.797  17.313  11.507 -0.5559 -0.1953 -1.0105
   96ETHOX  H11 6828   9.806  17.202  11.498  0.1809  0.0068 -4.0444
   96ETHOX  H13 6829   9.711  17.333  11.574  1.0482  2.7104  0.3536
   96ETHOX   C2 6830   9.765  17.380  11.375 -0.2957 -0.0595 -0.1494
   96ETHOX  H21 6831   9.795  17.487  11.380  0.7419 -0.3811  1.0692
   96ETHOX  H23 6832   9.660  17.367  11.341 -0.4572  0.0418  0.3017
   97ETHOX   O1 6833   9.845  17.316  11.273  0.2717  0.1749  0.3204
   97ETHOX   C1 6834   9.840  17.386  11.144  0.4164 -0.0056  0.1703
   97ETHOX  H11 6835   9.853  17.497  11.147 -1.5005  0.3404 -1.5992
   97ETHOX  H13 6836   9.735  17.374  11.110  0.3418 -1.0921  0.7341
   97ETHOX   C2 6837   9.920  17.321  11.031  0.4209 -0.7766 -0.0584
   97ETHOX  H21 6838  10.030  17.324  11.048  0.3245 -0.5872  0.5597
   97ETHOX  H23 6839   9.908  17.375  10.935 -2.9182  0.4708  0.9273
   98ETHOX   O1 6840   9.886  17.181  11.028  0.6410  0.4752 -0.1124
   98ETHOX   C1 6841   9.971  17.100  10.937 -0.4248 -0.0836  0.6433
   98ETHOX  H11 6842   9.960  17.151  10.839  1.7643  2.4858  1.5954
   98ETHOX  H13 6843  10.077  17.122  10.961 -0.4193 -0.5608  1.0649
   98ETHOX   C2 6844   9.942  16.949  10.948  0.4123 -0.9764 -0.2404
   98ETHOX  H21 6845   9.963  16.890  10.856  1.4713 -2.1871  0.7355
   98ETHOX  H23 6846   9.833  16.932  10.962  0.1477 -0.2712 -1.2979
   99ETHOX   O1 6847  10.012  16.894  11.057 -0.8896 -0.5950 -0.3913
   99ETHOX   C1 6848   9.944  16.779  11.111  0.1077  0.3441  0.8061
   99ETHOX  H11 6849   9.979  16.701  11.041  0.8098  0.5266  0.9444
   99ETHOX  H13 6850   9.833  16.777  11.100  0.0131 -5.2367 -0.1479
   99ETHOX   C2 6851   9.985  16.729  11.252  0.4877  0.2698  0.6912
   99ETHOX  H21 6852   9.916  16.652  11.292 -2.1944  1.7839 -0.7576
   99ETHOX  H23 6853   9.979  16.817  11.319 -0.7653  0.6166  0.1421
  100ETHOX   O1 6854  10.117  16.671  11.242 -0.3538  0.5313 -0.0025
  100ETHOX   C1 6855  10.176  16.641  11.364 -0.3678 -0.1035  0.6712
  100ETHOX  H11 6856  10.098  16.597  11.430 -1.9778  1.0193 -0.4235
  100ETHOX  H13 6857  10.249  16.557  11.354  1.2038  1.1554  1.1882
  100ETHOX   C2 6858  10.243  16.766  11.432  0.2346  0.3251  0.2144
  100ETHOX  H21 6859  10.169  16.849  11.438 -0.8574 -0.7211  2.0990
  100ETHOX  H23 6860  10.332  16.792  11.371  1.0539  2.5795  2.1697
  101PROXS   O1 6861  10.295  16.739  11.563 -0.1401 -0.4798 -0.0747
  101PROXS   C1 6862  10.395  16.841  11.597 -0.1045  0.1135  0.1520
  101PROXS  H11 6863  10.472  16.848  11.517 -0.4935 -0.2265 -0.2581
  101PROXS  H13 6864  10.349  16.942  11.602  1.4708  0.8093  2.5404
  101PROXS   C2 6865  10.449  16.809  11.736 -0.4267 -0.3131 -0.0666
  101PROXS  H21 6866  10.500  16.711  11.732  0.7211  0.2738 -0.1155
  101PROXS   C3 6867  10.352  16.798  11.855 -0.1422 -0.8481  0.4802
  101PROXS  H31 6868  10.308  16.899  11.863  2.1468  0.3372 -0.8841
  101PROXS  H32 6869  10.269  16.732  11.822 -1.3699 -0.6494  2.9266
  101PROXS  H33 6870  10.395  16.755  11.948 -0.4784  0.6148  1.3317
  102PROXS   O1 6871  10.548  16.905  11.781  0.9049  0.0819  0.0008
  102PROXS   C1 6872  10.682  16.894  11.721  0.6447 -0.0850 -0.2712
  102PROXS  H11 6873  10.712  16.792  11.689 -1.3082  0.3621 -4.0985
  102PROXS  H13 6874  10.680  16.944  11.622 -2.0400  0.0021 -0.2387
  102PROXS   C2 6875  10.796  16.958  11.808 -0.1850  0.3665  0.0375
  102PROXS  H21 6876  10.800  16.891  11.897 -1.7844 -1.4888 -1.2026
  102PROXS   C3 6877  10.773  17.102  11.861  0.7309  0.5485 -0.4821
  102PROXS  H31 6878  10.761  17.174  11.778  1.7816  1.3312  0.0405
  102PROXS  H32 6879  10.679  17.094  11.920 -0.2102  1.5060 -1.8034
  102PROXS  H33 6880  10.863  17.130  11.919 -0.2579 -0.0059  1.4227
  103PROXR   O1 6881  10.924  16.941  11.745 -0.1572 -0.2834 -0.1923
  103PROXR   C1 6882  11.037  16.944  11.840  0.1924 -0.0423 -0.0883
  103PROXR  H11 6883  11.044  17.039  11.898 -0.3620 -1.2326  2.0493
  103PROXR  H13 6884  11.020  16.868  11.919 -0.1830  2.2104  2.1487
  103PROXR   C2 6885  11.169  16.904  11.770  0.1106  0.1384  0.3312
  103PROXR  H21 6886  11.190  16.984  11.696 -0.1785 -0.8536 -0.8527
  103PROXR   C3 6887  11.156  16.775  11.692  0.2651  0.2273  0.1601
  103PROXR  H31 6888  11.236  16.766  11.616 -0.8659 -0.0219 -1.0359
  103PROXR  H32 6889  11.166  16.700  11.773 -2.6535  2.7090  3.1042
  103PROXR  H33 6890  11.062  16.762  11.634 -0.8972 -0.6256  2.1319
  104PROXS   O1 6891  11.279  16.897  11.861  0.0619 -0.3912  0.3285
  104PROXS   C1 6892  11.411  16.905  11.801  0.6585 -0.1144 -0.2662
  104PROXS  H11 6893  11.422  16.814  11.738 -2.2338 -1.5512  1.1614
  104PROXS  H13 6894  11.413  16.998  11.740  0.8243  1.4935  2.0577
  104PROXS   C2 6895  11.524  16.902  11.900  0.0809  0.2736 -0.7425
  104PROXS  H21 6896  11.525  16.807  11.958  0.3091  1.0497  0.5661
  104PROXS   C3 6897  11.508  17.013  11.997  0.5052 -0.0436 -0.5644
  104PROXS  H31 6898  11.602  17.031  12.052  0.3057  3.5165 -1.1248
  104PROXS  H32 6899  11.495  17.109  11.942  0.4687 -0.8520 -2.0085
  104PROXS  H33 6900  11.420  16.997  12.063 -0.4583  0.0950 -1.7696
  105PROXS   O1 6901  11.645  16.924  11.830  0.3493  0.1046 -0.0043
  105PROXS   C1 6902  11.760  16.844  11.868  0.3830  0.1941  0.4229
  105PROXS  H11 6903  11.850  16.886  11.817 -0.0146 -1.5841 -1.9308
  105PROXS  H13 6904  11.769  16.844  11.979  0.8517  0.0187  0.3902
  105PROXS   C2 6905  11.753  16.701  11.814 -0.1163 -0.1501  0.4357
  105PROXS  H21 6906  11.858  16.665  11.822 -0.3020 -0.4172  2.1074
  105PROXS   C3 6907  11.727  16.693  11.662 -0.2800  0.2688  0.3283
  105PROXS  H31 6908  11.766  16.596  11.627 -1.5259 -0.1125 -0.0682
  105PROXS  H32 6909  11.619  16.691  11.635 -0.5126  1.7980  1.0163
  105PROXS  H33 6910  11.776  16.781  11.615 -1.5967 -0.9259 -3.6949
  106PROXS   O1 6911  11.660  16.621  11.881  0.5491  0.1522 -0.5030
  106PROXS   C1 6912  11.710  16.561  11.997 -0.2980  0.5011 -0.1555
  106PROXS  H11 6913  11.748  16.647  12.057  0.5963 -0.0296  0.0593
  106PROXS  H13 6914  11.620  16.515  12.044 -1.3843  1.4252 -1.2673
  106PROXS   C2 6915  11.813  16.450  11.988 -0.2413  0.4086  0.7229
  106PROXS  H21 6916  11.904  16.491  11.938  0.8037 -1.3636  1.0820
  106PROXS   C3 6917  11.760  16.342  11.887 -0.2999 -0.3028 -0.0187
  106PROXS  H31 6918  11.839  16.266  11.871  0.6862  1.0030 -1.8042
  106PROXS  H32 6919  11.667  16.288  11.915 -1.0119  1.5118  1.3298
  106PROXS  H33 6920  11.735  16.393  11.791 -1.3422  1.7049  1.2516
  107PROXR   O1 6921  11.848  16.403  12.119 -0.5650  0.5369 -0.1055
  107PROXR   C1 6922  11.988  16.364  12.124  0.3291  0.4138 -0.2155
  107PROXR  H11 6923  12.000  16.289  12.043 -0.0960 -2.3685  2.1413
  107PROXR  H13 6924  12.055  16.452  12.114  0.7153  0.4058  1.8527
  107PROXR   C2 6925  12.017  16.285  12.258  0.5063  0.2962 -0.5242
  107PROXR  H21 6926  11.939  16.206  12.267  2.6041 -1.8686 -0.4153
  107PROXR   C3 6927  12.014  16.373  12.381 -0.7240 -0.3753 -0.3146
  107PROXR  H31 6928  12.038  16.316  12.473 -2.8762 -0.1945  0.4068
  107PROXR  H32 6929  12.100  16.442  12.366 -0.0152 -1.6124 -2.4225
  107PROXR  H33 6930  11.920  16.433  12.383  0.7000  2.0812  2.9831
  108PROXS   O1 6931  12.136  16.215  12.249 -0.3411 -0.0643 -0.4710
  108PROXS   C1 6932  12.134  16.085  12.186 -0.9160 -0.2000  0.1704
  108PROXS  H11 6933  12.100  16.003  12.252 -1.3675 -0.2963 -0.1742
  108PROXS  H13 6934  12.065  16.096  12.099 -1.3057 -1.5286  0.2911
  108PROXS   C2 6935  12.275  16.055  12.122 -0.6842 -0.1913  0.1351
  108PROXS  H21 6936  12.345  16.052  12.208 -0.6704 -2.9084  0.1227
  108PROXS   C3 6937  12.326  16.155  12.013  0.1763 -0.2290  0.5658
  108PROXS  H31 6938  12.272  16.123  11.921 -0.0673  0.4783  0.4590
  108PROXS  H32 6939  12.299  16.261  12.030 -1.5621 -0.3565 -1.0894
  108PROXS  H33 6940  12.436  16.141  12.004 -0.0661 -1.5306 -0.9404
  109PROXS   O1 6941  12.273  15.918  12.072 -0.9626 -0.8216 -0.2546
  109PROXS   C1 6942  12.404  15.863  12.047  0.1495 -1.0693 -0.1233
  109PROXS  H11 6943  12.421  15.857  11.937 -0.6180 -0.4511 -0.2773
  109PROXS  H13 6944  12.480  15.929  12.094 -0.8406 -0.0764  0.1200
  109PROXS   C2 6945  12.412  15.725  12.120  0.4038 -0.0532 -0.4090
  109PROXS  H21 6946  12.329  15.660  12.084 -0.6349  1.9838 -1.8977
  109PROXS   C3 6947  12.405  15.745  12.272 -0.1201 -0.2873  1.0077
  109PROXS  H31 6948  12.376  15.654  12.329 -3.4619 -0.9339 -1.3610
  109PROXS  H32 6949  12.500  15.794  12.301  0.9024 -0.7129 -1.3817
  109PROXS  H33 6950  12.333  15.829  12.285  1.2641  1.3346 -0.9975
  110PROXR   O1 6951  12.542  15.669  12.095  0.5226 -0.1760  0.3216
  110PROXR   C1 6952  12.543  15.531  12.113 -1.1903  0.7358  0.3931
  110PROXR  H11 6953  12.487  15.502  12.204  0.8319 -0.8481  1.1964
  110PROXR  H13 6954  12.488  15.485  12.028  1.4770  0.2727 -1.1896
  110PROXR   C2 6955  12.696  15.483  12.123 -0.0304  0.4005 -0.0917
  110PROXR  H21 6956  12.757  15.551  12.059  0.4208  1.5926  1.5423
  110PROXR   C3 6957  12.712  15.342  12.051 -0.4959  0.3438 -0.0860
  110PROXR  H31 6958  12.650  15.264  12.099 -0.2284  1.6462  2.5149
  110PROXR  H32 6959  12.679  15.356  11.945 -0.2069  0.1981 -0.1976
  110PROXR  H33 6960  12.815  15.299  12.047 -0.7027 -0.8143  3.5938
  111PROXS   O1 6961  12.742  15.467  12.260  0.5676 -0.0779  0.0824
  111PROXS   C1 6962  12.747  15.594  12.321  0.0727  0.4509 -0.4267
  111PROXS  H11 6963  12.644  15.636  12.328 -0.6894 -1.3557 -0.2771
  111PROXS  H13 6964  12.787  15.570  12.422  3.3928 -0.2617 -1.7861
  111PROXS   C2 6965  12.858  15.681  12.254  0.8210  0.3787 -0.4262
  111PROXS  H21 6966  12.832  15.708  12.150  2.4576 -3.7049 -2.1291
  111PROXS   C3 6967  12.990  15.598  12.253  0.2290  0.5019 -0.1848
  111PROXS  H31 6968  13.007  15.550  12.352 -1.7785 -0.1050 -0.0849
  111PROXS  H32 6969  12.982  15.512  12.183  2.3598  0.6724 -0.6983
  111PROXS  H33 6970  13.079  15.656  12.223  0.0413  1.1823  0.5206
  112PROXR   O1 6971  12.876  15.791  12.337  0.0482 -0.0952 -0.7217
  112PROXR   C1 6972  12.775  15.891  12.339  0.1850 -0.7123 -0.3170
  112PROXR  H11 6973  12.746  15.894  12.232  2.1060 -0.2638 -0.8619
  112PROXR  H13 6974  12.686  15.857  12.396  0.9623 -0.5836  1.0072
  112PROXR   C2 6975  12.839  16.029  12.366  0.3357 -1.0033  0.1958
  112PROXR  H21 6976  12.932  16.039  12.306  0.3904 -1.4293  0.2035
  112PROXR   C3 6977  12.866  16.056  12.514  0.8428  0.1739  0.4492
  112PROXR  H31 6978  12.774  16.063  12.576  0.4615 -2.4088  0.3064
  112PROXR  H32 6979  12.926  15.968  12.546 -0.2346 -1.1947 -1.1298
  112PROXR  H33 6980  12.940  16.136  12.536  0.1060  0.6646  1.2005
  113PROXS   O1 6981  12.745  16.126  12.322 -0.0606  0.1103 -0.1515
  113PROXS   C1 6982  12.775  16.263  12.324 -0.6807 -0.0970  0.4350
  113PROXS  H11 6983  12.787  16.299  12.428  0.5963 -0.6674  0.5040
  113PROXS  H13 6984  12.874  16.266  12.274  1.1500 -1.0360  3.7544
  113PROXS   C2 6985  12.658  16.333  12.249  0.1236  0.0845  0.3593
  113PROXS  H21 6986  12.561  16.295  12.289 -0.6417  1.1204 -0.4506
  113PROXS   C3 6987  12.667  16.290  12.103 -0.2659 -0.1059 -0.0661
  113PROXS  H31 6988  12.703  16.186  12.094  2.2123  0.7870 -1.3909
  113PROXS  H32 6989  12.571  16.291  12.046  0.0254 -0.8749 -0.5796
  113PROXS  H33 6990  12.727  16.368  12.052 -2.0175 -0.5392 -2.9999
  114PROXR   O1 6991  12.671  16.472  12.275 -0.2218 -0.5225 -0.4655
  114PROXR   C1 6992  12.557  16.551  12.235  0.6534  1.3630  0.2061
  114PROXR  H11 6993  12.535  16.506  12.136  1.1442  0.4404  0.5092
  114PROXR  H13 6994  12.465  16.523  12.290 -0.5475 -0.5359 -2.5671
  114PROXR   C2 6995  12.579  16.702  12.229  0.2778 -0.8777 -0.7523
  114PROXR  H21 6996  12.659  16.721  12.154  1.6482 -0.5614  0.7263
  114PROXR   C3 6997  12.618  16.750  12.368  0.3631  0.7465 -0.0981
  114PROXR  H31 6998  12.554  16.711  12.451  2.1098  0.4808  1.1848
  114PROXR  H32 6999  12.718  16.704  12.386 -0.7473 -1.2931  1.3192
  114PROXR  H33 7000  12.625  16.860  12.380 -0.5015  0.7624  0.4082
  115PROXR   O1 7001  12.455  16.761  12.184 -0.1317 -0.2139 -0.0877
  115PROXR   C1 7002  12.428  16.746  12.045 -0.3856 -0.3894 -0.3737
  115PROXR  H11 7003  12.504  16.812  12.000 -0.9042  2.7167  2.9002
  115PROXR  H13 7004  12.436  16.645  11.998 -0.7687 -0.3370 -0.5543
  115PROXR   C2 7005  12.295  16.805  12.004  0.8391  1.0465 -0.1175
  115PROXR  H21 7006  12.301  16.915  11.992 -1.4455  1.0372 -2.3968
  115PROXR   C3 7007  12.183  16.765  12.105 -0.3911  0.5083 -0.3928
  115PROXR  H31 7008  12.219  16.782  12.209 -0.6697 -1.3290  0.0277
  115PROXR  H32 7009  12.090  16.824  12.089 -0.9789 -0.0592  0.8661
  115PROXR  H33 7010  12.158  16.658  12.093  0.5578  0.0652  1.2734
  116PROXS   O1 7011  12.255  16.748  11.878  0.0900  0.4188 -0.3440
  116PROXS   C1 7012  12.329  16.799  11.767 -0.1309  0.4870  0.2562
  116PROXS  H11 7013  12.306  16.908  11.761  0.2856  0.5067 -3.0061
  116PROXS  H13 7014  12.438  16.793  11.783 -0.1893 -0.4398  0.3593
  116PROXS   C2 7015  12.288  16.737  11.626  0.3488  0.2353  0.9751
  116PROXS  H21 7016  12.354  16.787  11.552 -1.2961  1.4878  0.2872
  116PROXS   C3 7017  12.143  16.757  11.597  0.5230  0.5989  0.0077
  116PROXS  H31 7018  12.122  16.866  11.589 -0.1139  0.3965 -1.2063
  116PROXS  H32 7019  12.104  16.693  11.515  1.2101 -3.5778  2.6058
  116PROXS  H33 7020  12.077  16.729  11.682  0.2503 -1.4249 -0.8148
  117PROXS   O1 7021  12.329  16.599  11.633 -0.3779 -0.3337 -0.1379
  117PROXS   C1 7022  12.336  16.541  11.500 -0.1868  0.2923  1.3087
  117PROXS  H11 7023  12.244  16.551  11.438  1.0234 -0.1631 -0.6282
  117PROXS  H13 7024  12.415  16.590  11.441 -0.9335  0.7746  0.6853
  117PROXS   C2 7025  12.371  16.383  11.500  0.1142 -0.5535  0.0351
  117PROXS  H21 7026  12.445  16.362  11.580 -0.4110  0.4217  0.8107
  117PROXS   C3 7027  12.427  16.335  11.365  0.2009 -0.0544 -0.1194
  117PROXS  H31 7028  12.435  16.226  11.385  0.6821  0.3297  2.0610
  117PROXS  H32 7029  12.366  16.364  11.277  3.8673 -0.9392 -3.2381
  117PROXS  H33 7030  12.532  16.363  11.346  0.3189 -1.2338 -1.3809
  118PROXR   O1 7031  12.249  16.322  11.522 -0.3581 -0.0146  0.2841
  118PROXR   C1 7032  12.269  16.192  11.580 -0.0525 -0.3122 -0.1914
  118PROXR  H11 7033  12.332  16.130  11.512  0.0939 -0.3686 -0.0032
  118PROXR  H13 7034  12.315  16.205  11.680  0.1558 -0.6514 -0.2422
  118PROXR   C2 7035  12.135  16.122  11.603  0.0574  0.0427  0.0332
  118PROXR  H21 7036  12.074  16.120  11.511  0.9604 -0.6710 -0.5704
  118PROXR   C3 7037  12.051  16.201  11.704  0.7688 -0.5986 -0.2875
  118PROXR  H31 7038  12.049  16.306  11.669  3.1233 -0.7637 -1.0898
  118PROXR  H32 7039  11.949  16.157  11.710  0.3130  0.5478  0.6287
  118PROXR  H33 7040  12.095  16.210  11.805  2.4892  0.5579 -1.0915
  119PROXR   O1 7041  12.153  15.983  11.635 -0.2664 -0.3320  0.1077
  119PROXR   C1 7042  12.042  15.913  11.685  0.0963 -0.1206 -0.5013
  119PROXR  H11 7043  11.992  15.954  11.776 -2.4511 -0.0158 -1.8649
  119PROXR  H13 7044  11.960  15.924  11.611 -0.0931  1.6021 -0.0895
  119PROXR   C2 7045  12.077  15.758  11.696  0.1637 -0.3161 -0.0899
  119PROXR  H21 7046  12.151  15.748  11.778 -1.2774 -2.8579  1.0184
  119PROXR   C3 7047  12.145  15.707  11.566  0.2798 -0.2828  0.9723
  119PROXR  H31 7048  12.071  15.732  11.487  1.7322 -3.8145 -1.7585
  119PROXR  H32 7049  12.233  15.770  11.543 -0.8238  0.1386 -2.6919
  119PROXR  H33 7050  12.168  15.599  11.572 -1.4392 -0.9476 -2.2409
  120PROXS   O1 7051  11.962  15.672  11.718 -0.5670  0.3880  0.0686
  120PROXS   C1 7052  11.977  15.605  11.843 -1.0434  0.2697 -0.8967
  120PROXS  H11 7053  12.074  15.553  11.861 -0.7664  1.3438  1.0512
  120PROXS  H13 7054  11.985  15.680  11.924  2.1760 -2.0593  1.1830
  120PROXS   C2 7055  11.863  15.506  11.861 -0.3709  0.1633 -0.0596
  120PROXS  H21 7056  11.868  15.421  11.790 -0.2169 -1.9280  2.2849
  120PROXS   C3 7057  11.728  15.572  11.865  0.2521 -0.8056 -0.8634
  120PROXS  H31 7058  11.734  15.640  11.953 -1.1386  1.3848 -2.3657
  120PROXS  H32 7059  11.711  15.612  11.763 -2.0935 -0.5469 -0.4472
  120PROXS  H33 7060  11.641  15.504  11.876 -0.0964 -0.3590 -0.8070
  121PROXS   O1 7061  11.871  15.444  11.991  0.4783  0.1058  1.4181
  121PROXS   C1 7062  11.811  15.315  12.003  0.1288 -0.1779  0.2686
  121PROXS  H11 7063  11.702  15.332  11.989  0.1954 -1.1246 -1.8141
  121PROXS  H13 7064  11.833  15.250  11.916 -1.2747 -1.4918  0.8446
  121PROXS   C2 7065  11.831  15.242  12.135  0.5671  0.4354  0.0283
  121PROXS  H21 7066  11.808  15.312  12.219  0.8929  1.4474 -0.7005
  121PROXS   C3 7067  11.977  15.217  12.161  0.3105  0.2088 -0.2829
  121PROXS  H31 7068  12.019  15.143  12.089 -3.2427 -2.1940 -0.1124
  121PROXS  H32 7069  12.038  15.309  12.148 -0.4684  0.4541 -2.8293
  121PROXS  H33 7070  11.989  15.182  12.265 -1.8592 -0.2374 -0.1292
  122PROXS   O1 7071  11.746  15.122  12.148 -0.2953 -0.1937  0.3838
  122PROXS   C1 7072  11.607  15.156  12.174  0.1947  0.4492 -0.0415
  122PROXS  H11 7073  11.614  15.238  12.249  1.1467  0.0830  0.2814
  122PROXS  H13 7074  11.565  15.213  12.089  0.4946  0.4051 -0.2190
  122PROXS   C2 7075  11.512  15.035  12.219 -0.4559 -0.5255  0.2170
  122PROXS  H21 7076  11.556  14.985  12.308 -2.7794  0.6614  2.1545
  122PROXS   C3 7077  11.507  14.942  12.101 -0.0710 -0.7732 -0.0968
  122PROXS  H31 7078  11.453  15.000  12.024 -0.7985 -2.8338 -1.2286
  122PROXS  H32 7079  11.608  14.913  12.065  0.2839 -0.0210  0.2667
  122PROXS  H33 7080  11.447  14.854  12.133 -2.4337  1.0520  0.8186
  123PROXS   O1 7081  11.386  15.089  12.262 -0.5111 -0.2453  0.4652
  123PROXS   C1 7082  11.304  14.989  12.316 -0.1541  0.3787  0.2442
  123PROXS  H11 7083  11.245  14.941  12.234 -1.4077  1.0274  0.7456
  123PROXS  H13 7084  11.351  14.924  12.393 -1.6693 -1.4489 -0.2711
  123PROXS   C2 7085  11.201  15.055  12.411 -0.4302 -0.3144 -0.6059
  123PROXS  H21 7086  11.145  15.130  12.351  0.3100  1.9866  1.4225
  123PROXS   C3 7087  11.269  15.123  12.535 -0.3055  0.0786 -0.4409
  123PROXS  H31 7088  11.195  15.124  12.618 -0.3351 -0.2040 -0.4608
  123PROXS  H32 7089  11.362  15.070  12.565 -0.3371  0.9665  1.3678
  123PROXS  H33 7090  11.301  15.228  12.516 -1.6356  0.1465 -2.6084
  124PROXR   O1 7091  11.108  14.952  12.461  0.1030  0.4264  0.9335
  124PROXR   C1 7092  10.978  15.005  12.474 -0.0468  0.2616 -0.5403
  124PROXR  H11 7093  10.979  15.096  12.538 -0.0986 -0.4261  0.4759
  124PROXR  H13 7094  10.939  15.028  12.373  3.2467  1.0307 -1.7453
  124PROXR   C2 7095  10.878  14.908  12.543  0.7768  0.0786  0.1051
  124PROXR  H21 7096  10.919  14.892  12.645  0.0106 -0.5988  0.3183
  124PROXR   C3 7097  10.876  14.764  12.480  0.2702 -1.0901 -1.3693
  124PROXR  H31 7098  10.978  14.720  12.479  1.4808  1.4163  0.8881
  124PROXR  H32 7099  10.807  14.703  12.542 -0.7748  1.6440  0.3020
  124PROXR  H33 7100  10.839  14.768  12.375 -3.4362 -1.2723 -0.1998
  125PROXS   O1 7101  10.744  14.973  12.553 -0.3780 -0.2174  0.0377
  125PROXS   C1 7102  10.731  15.046  12.675  0.5726 -0.7966 -0.2359
  125PROXS  H11 7103  10.752  14.979  12.761 -0.8420 -0.4917  0.3781
  125PROXS  H13 7104  10.781  15.144  12.670 -0.5012 -0.2761 -1.2136
  125PROXS   C2 7105  10.581  15.098  12.696 -0.7276  0.2714 -0.0015
  125PROXS  H21 7106  10.508  15.015  12.683 -0.4821 -0.0525  0.6261
  125PROXS   C3 7107  10.544  15.205  12.592 -0.0545 -0.4923  0.7752
  125PROXS  H31 7108  10.585  15.306  12.613  1.8736 -0.8036 -1.1751
  125PROXS  H32 7109  10.580  15.186  12.489  0.6103  0.6197  0.7827
  125PROXS  H33 7110  10.434  15.218  12.588  0.1861  2.8725  1.6152
  126PROXS   O1 7111  10.568  15.150  12.826 -0.4333 -0.3455 -0.3367
  126PROXS   C1 7112  10.531  15.053  12.916 -0.2253  0.6649 -0.7371
  126PROXS  H11 7113  10.429  15.012  12.895  0.0445 -0.6058  0.3064
  126PROXS  H13 7114  10.601  14.968  12.907 -0.7964  0.2372 -1.2616
  126PROXS   C2 7115  10.550  15.109  13.061 -0.8230  0.4111  0.5924
  126PROXS  H21 7116  10.651  15.154  13.058  0.2809 -1.9280  0.2266
  126PROXS   C3 7117  10.559  14.986  13.160  0.0916  0.3968  0.3415
  126PROXS  H31 7118  10.652  14.927  13.148  0.8335  1.7086 -0.6907
  126PROXS  H32 7119  10.549  15.032  13.260  0.0817 -0.4683  0.7463
  126PROXS  H33 7120  10.467  14.924  13.151 -0.5569  1.4844 -0.8633
  127PROXR   O1 7121  10.446  15.195  13.100  0.3597 -0.8364 -0.0741
  127PROXR   C1 7122  10.418  15.304  13.015 -0.5021 -0.3091  0.3237
  127PROXR  H11 7123  10.391  15.270  12.912  0.3039  0.5889 -0.1945
  127PROXR  H13 7124  10.324  15.350  13.054  0.1505  2.3439 -0.9757
  127PROXR   C2 7125  10.531  15.408  13.033 -0.3878  0.3362  0.0884
  127PROXR  H21 7126  10.628  15.359  13.012 -0.1104  1.0686 -0.4081
  127PROXR   C3 7127  10.549  15.461  13.180  0.3856  0.0648  0.2597
  127PROXR  H31 7128  10.465  15.533  13.188  0.5040  0.3664 -1.0182
  127PROXR  H32 7129  10.545  15.371  13.245 -1.3806 -0.3976 -0.4211
  127PROXR  H33 7130  10.640  15.525  13.178 -1.1976  2.4494 -2.1039
  128PROXR   O1 7131  10.517  15.515  12.946  0.4801  0.4404  0.1754
  128PROXR   C1 7132  10.641  15.562  12.888  0.6802 -0.6589  0.1260
  128PROXR  H11 7133  10.697  15.612  12.969 -1.2231  1.9414 -0.0569
  128PROXR  H13 7134  10.703  15.488  12.832  1.8070 -0.3187  0.9102
  128PROXR   C2 7135  10.613  15.674  12.777 -0.5371 -0.2163  0.2632
  128PROXR  H21 7136  10.557  15.757  12.825 -1.9378 -0.5131 -0.7786
  128PROXR   C3 7137  10.523  15.616  12.669  0.3659 -0.1083 -0.4505
  128PROXR  H31 7138  10.486  15.697  12.602  0.0854 -0.5240 -0.7995
  128PROXR  H32 7139  10.566  15.539  12.601 -2.3494 -2.4330  0.2930
  128PROXR  H33 7140  10.433  15.569  12.714 -0.2077 -0.4239 -1.8801
  129PROXS   O1 7141  10.732  15.713  12.709  0.3040  0.4964 -0.3148
  129PROXS   C1 7142  10.715  15.808  12.602  0.5765 -0.7775 -0.2476
  129PROXS  H11 7143  10.682  15.764  12.505  0.7771  1.0633 -1.1763
  129PROXS  H13 7144  10.636  15.876  12.640 -0.8582 -2.0225 -0.8530
  129PROXS   C2 7145  10.842  15.892  12.582 -0.3592 -0.0182  0.1998
  129PROXS  H21 7146  10.928  15.824  12.562  2.0946  2.7085  0.8561
  129PROXS   C3 7147  10.877  15.943  12.723  0.3009 -0.2532  0.2820
  129PROXS  H31 7148  10.982  15.980  12.718  0.2476 -0.2459 -0.9448
  129PROXS  H32 7149  10.799  16.014  12.759  0.5175  1.4332 -2.3005
  129PROXS  H33 7150  10.890  15.859  12.794 -0.7348  0.3721  1.2513
  130PROXS   O1 7151  10.818  15.985  12.473 -0.2869 -0.3663 -0.1047
  130PROXS   C1 7152  10.854  15.920  12.353 -0.3203 -0.6721  0.1128
  130PROXS  H11 7153  10.964  15.902  12.358 -0.5473 -1.8543  1.5243
  130PROXS  H13 7154  10.814  15.816  12.344 -2.7581  0.3100 -1.4234
  130PROXS   C2 7155  10.817  15.990  12.220 -0.4207  0.6095 -0.4457
  130PROXS  H21 7156  10.871  16.087  12.214  1.3456 -0.3861 -1.7086
  130PROXS   C3 7157  10.672  16.005  12.206 -0.6186  0.0581  0.0601
  130PROXS  H31 7158  10.609  15.913  12.213  0.6110 -0.9810 -1.7203
  130PROXS  H32 7159  10.644  16.080  12.284  3.0074  0.2745  1.3403
  130PROXS  H33 7160  10.646  16.046  12.107 -2.6359  1.5543  1.1280
  131PROXS   O1 7161  10.872  15.906  12.115 -0.0560 -0.5690 -0.3685
  131PROXS   C1 7162  10.897  15.972  11.988 -0.8891 -0.2606 -0.0301
  131PROXS  H11 7163  10.886  15.898  11.906 -0.2825  0.2673 -0.5934
  131PROXS  H13 7164  10.824  16.052  11.964  1.6088  1.8216 -1.1501
  131PROXS   C2 7165  11.045  16.036  11.974  0.1467  0.1827 -0.0113
  131PROXS  H21 7166  11.071  16.080  12.072 -2.2080 -1.8942  1.7054
  131PROXS   C3 7167  11.058  16.128  11.855  0.3621 -0.3023 -0.3390
  131PROXS  H31 7168  10.968  16.187  11.829  0.9009  0.5763 -0.2208
  131PROXS  H32 7169  11.140  16.203  11.864 -0.6817  0.7701  0.4979
  131PROXS  H33 7170  11.075  16.060  11.768  1.3022  0.2591 -0.6140
  132PROXS   O1 7171  11.137  15.928  11.957  0.1827 -0.2968  0.3941
  132PROXS   C1 7172  11.272  15.957  11.996 -0.4035 -0.2588 -0.3128
  132PROXS  H11 7173  11.303  16.049  11.943  1.0527  0.2028  1.2373
  132PROXS  H13 7174  11.274  15.978  12.105 -0.8360  0.3361 -0.4158
  132PROXS   C2 7175  11.373  15.841  11.964  0.7832 -0.5655 -0.1892
  132PROXS  H21 7176  11.354  15.825  11.855  2.1011  0.9355 -0.6852
  132PROXS   C3 7177  11.367  15.711  12.048 -0.2497  0.5930 -0.0801
  132PROXS  H31 7178  11.416  15.628  11.993 -2.3766 -1.1554  0.4961
  132PROXS  H32 7179  11.422  15.725  12.144 -1.4587 -0.1574  0.7599
  132PROXS  H33 7180  11.261  15.686  12.069 -0.0993  0.9231  1.1898
  133PROXS   O1 7181  11.507  15.879  11.985  0.3993  0.1495  0.1555
  133PROXS   C1 7182  11.549  15.965  11.878  0.3970  0.4571  0.0503
  133PROXS  H11 7183  11.486  15.946  11.788  0.9323 -1.5763  0.0600
  133PROXS  H13 7184  11.549  16.071  11.911 -1.4551  0.0449  1.5456
  133PROXS   C2 7185  11.696  15.939  11.844 -0.2892 -0.0444 -0.0806
  133PROXS  H21 7186  11.702  15.836  11.805 -0.2665  0.1051 -0.4799
  133PROXS   C3 7187  11.792  15.971  11.965 -0.2269 -0.4808 -0.0882
  133PROXS  H31 7188  11.753  15.919  12.056 -1.5330  0.3143 -0.1655
  133PROXS  H32 7189  11.897  15.938  11.951  1.0647  3.2909 -0.3864
  133PROXS  H33 7190  11.796  16.080  11.987  0.9603 -0.4001 -0.6614
  134PROXS   O1 7191  11.739  16.022  11.738 -0.0249 -0.2737  0.3860
  134PROXS   C1 7192  11.700  15.980  11.605  0.4280 -0.2921 -0.2128
  134PROXS  H11 7193  11.742  15.880  11.584  0.1634 -0.5379  0.4139
  134PROXS  H13 7194  11.589  15.968  11.599  0.3484 -0.3538  1.0716
  134PROXS   C2 7195  11.748  16.076  11.487 -0.7113  0.5533  0.6102
  134PROXS  H21 7196  11.858  16.086  11.501 -0.9597  1.8298  1.9472
  134PROXS   C3 7197  11.669  16.209  11.488 -0.2496  0.1181  0.3798
  134PROXS  H31 7198  11.559  16.196  11.493 -0.1824 -1.8469 -1.6106
  134PROXS  H32 7199  11.698  16.276  11.571 -0.2146  1.3118 -0.5633
  134PROXS  H33 7200  11.695  16.273  11.401  0.8510  0.7618  1.1629
  135PROXS   O1 7201  11.715  16.015  11.365 -0.4167  0.3865  0.7283
  135PROXS   C1 7202  11.807  16.043  11.263  0.6814  0.2965 -0.4728
  135PROXS  H11 7203  11.763  16.022  11.163  1.3145  2.0312 -1.1660
  135PROXS  H13 7204  11.819  16.153  11.274 -0.4018  0.2786  1.2631
  135PROXS   C2 7205  11.935  15.962  11.278  0.0075  0.5571  0.2591
  135PROXS  H21 7206  11.955  15.943  11.385 -1.8086  2.8555  1.0989
  135PROXS   C3 7207  12.053  16.044  11.228  0.5774  0.1369  0.6018
  135PROXS  H31 7208  12.030  16.076  11.124  4.1097  0.0143 -0.3459
  135PROXS  H32 7209  12.067  16.133  11.292  1.7006 -0.8180  1.7436
  135PROXS  H33 7210  12.144  15.981  11.224  1.0768  0.8838  0.0613
  136PROXS   O1 7211  11.924  15.838  11.202  0.3109 -0.0719 -0.3516
  136PROXS   C1 7212  11.837  15.743  11.271 -0.4154 -0.5131 -1.3664
  136PROXS  H11 7213  11.873  15.752  11.376  2.0549  0.3943 -2.2274
  136PROXS  H13 7214  11.730  15.771  11.264  0.3240  3.1969 -0.0027
  136PROXS   C2 7215  11.857  15.599  11.224  0.1179  0.6929  0.0511
  136PROXS  H21 7216  11.967  15.583  11.219  0.5798  3.0926  0.7294
  136PROXS   C3 7217  11.804  15.574  11.085  0.5863  0.0970 -0.7217
  136PROXS  H31 7218  11.799  15.466  11.058 -1.4584  0.0532 -0.3234
  136PROXS  H32 7219  11.698  15.606  11.081 -0.4965 -3.1749 -1.0251
  136PROXS  H33 7220  11.864  15.618  11.002 -0.7120  1.4955 -0.9559
  137PROXS   O1 7221  11.786  15.505  11.302 -0.2726 -0.1235  0.2887
  137PROXS   C1 7222  11.866  15.451  11.408  0.4059  0.1082 -0.2869
  137PROXS  H11 7223  11.973  15.441  11.379  1.0318 -0.8112  2.1421
  137PROXS  H13 7224  11.854  15.519  11.495  0.5898  0.4300 -0.5105
  137PROXS   C2 7225  11.815  15.314  11.452 -0.3617 -0.1099 -0.7182
  137PROXS  H21 7226  11.824  15.252  11.361  0.8456  0.1544 -0.8022
  137PROXS   C3 7227  11.675  15.318  11.502  0.3164  0.2017  1.0028
  137PROXS  H31 7228  11.624  15.398  11.444  0.7028  0.9822  1.7101
  137PROXS  H32 7229  11.624  15.221  11.484 -1.1356  1.3331 -1.3972
  137PROXS  H33 7230  11.672  15.351  11.608  0.3998 -1.0435  1.4098
  138PROXR   O1 7231  11.896  15.269  11.560 -0.3690 -0.0314 -0.3675
  138PROXR   C1 7232  11.895  15.122  11.567 -1.0939 -0.4663 -0.1143
  138PROXR  H11 7233  11.797  15.087  11.605 -0.7059 -1.6268 -0.1386
  138PROXR  H13 7234  11.913  15.072  11.469 -0.1162  0.5244 -0.4549
  138PROXR   C2 7235  12.010  15.084  11.651 -0.3317  0.3174  0.4404
  138PROXR  H21 7236  12.008  15.135  11.749  1.7533  2.0212 -0.3130
  138PROXR   C3 7237  12.151  15.104  11.586  0.3363 -0.0130  0.1476
  138PROXR  H31 7238  12.173  15.213  11.576 -0.1732 -0.0673 -2.1555
  138PROXR  H32 7239  12.228  15.061  11.654  0.1446 -0.3443  0.1547
  138PROXR  H33 7240  12.163  15.054  11.487  1.4289 -0.1584  0.3348
  139PROXS   O1 7241  12.000  14.945  11.671  0.3885  0.1589 -0.4463
  139PROXS   C1 7242  11.912  14.895  11.774  0.0337  0.5274 -0.1545
  139PROXS  H11 7243  11.887  14.974  11.848  0.2929  0.9885 -0.5605
  139PROXS  H13 7244  11.821  14.857  11.721  0.1995  0.2807 -0.2654
  139PROXS   C2 7245  11.972  14.765  11.837  0.1001 -0.5268  0.6144
  139PROXS  H21 7246  12.072  14.788  11.880  0.4687  3.4450 -1.9188
  139PROXS   C3 7247  11.998  14.648  11.739  0.5775 -0.5349  0.1351
  139PROXS  H31 7248  12.073  14.583  11.788  1.5403  2.2709  2.7500
  139PROXS  H32 7249  11.901  14.599  11.718  0.3104  0.8030 -2.0297
  139PROXS  H33 7250  12.042  14.694  11.647 -0.3105  0.8630  0.3725
  140PROXR   O1 7251  11.888  14.710  11.943  0.2302 -0.0331  0.3690
  140PROXR   C1 7252  11.902  14.778  12.064  0.0315  0.2466 -0.6231
  140PROXR  H11 7253  12.003  14.818  12.088  1.0239 -2.3508 -0.1157
  140PROXR  H13 7254  11.835  14.867  12.057 -2.5075 -1.4271  0.9450
  140PROXR   C2 7255  11.852  14.692  12.191  0.8193  0.2903  0.3093
  140PROXR  H21 7256  11.778  14.618  12.154 -0.9167  1.3192  1.5595
  140PROXR   C3 7257  11.795  14.779  12.299  0.6879 -0.0727 -0.1899
  140PROXR  H31 7258  11.864  14.862  12.324 -1.4681  1.0304  2.7194
  140PROXR  H32 7259  11.694  14.811  12.267  1.0436 -0.7913 -2.1974
  140PROXR  H33 7260  11.778  14.729  12.397  0.7168 -2.5932 -1.3777
  141PROXS   O1 7261  11.950  14.606  12.249 -0.9112 -0.1721  0.5959
  141PROXS   C1 7262  12.027  14.542  12.150  0.5601 -0.3221  0.9226
  141PROXS  H11 7263  11.964  14.495  12.072  3.1475 -0.2012 -1.4003
  141PROXS  H13 7264  12.086  14.613  12.088 -1.0197 -1.7901 -2.5181
  141PROXS   C2 7265  12.120  14.432  12.208 -0.1783 -0.7377  0.4161
  141PROXS  H21 7266  12.062  14.354  12.261 -1.0823  0.7549  1.7346
  141PROXS   C3 7267  12.202  14.494  12.315 -0.9100  0.0488  0.1028
  141PROXS  H31 7268  12.140  14.541  12.395 -0.3337  0.1109  0.5175
  141PROXS  H32 7269  12.263  14.426  12.378 -0.6595  1.0669  0.9979
  141PROXS  H33 7270  12.263  14.579  12.278 -1.6297  0.7208  0.4143
  142PROXS   O1 7271  12.189  14.371  12.103  0.2911 -0.3270  0.4266
  142PROXS   C1 7272  12.242  14.244  12.139 -0.4765 -0.1061 -0.2611
  142PROXS  H11 7273  12.288  14.245  12.240  0.4786 -2.4991 -0.6064
  142PROXS  H13 7274  12.155  14.175  12.140 -0.6439  0.1059  0.0910
  142PROXS   C2 7275  12.349  14.199  12.035  0.6974 -0.3014 -0.2530
  142PROXS  H21 7276  12.330  14.239  11.933  0.5391  2.2538  0.7048
  142PROXS   C3 7277  12.349  14.045  12.025 -0.8729 -0.2917 -0.9208
  142PROXS  H31 7278  12.255  13.993  11.999 -0.7847 -0.3312 -1.1707
  142PROXS  H32 7279  12.437  14.019  11.961 -0.4957  0.6094 -0.7856
  142PROXS  H33 7280  12.386  13.999  12.119 -0.6676 -1.5280 -1.5856
  143PROXS   O1 7281  12.483  14.224  12.068 -0.1533  0.0520 -0.0758
  143PROXS   C1 7282  12.511  14.364  12.064  0.4297  0.1163 -0.1697
  143PROXS  H11 7283  12.433  14.419  12.121  1.3971 -0.6781  2.0311
  143PROXS  H13 7284  12.603  14.373  12.126  1.5252  0.4461 -1.7909
  143PROXS   C2 7285  12.534  14.423  11.927  0.6697 -0.3659  0.2568
  143PROXS  H21 7286  12.443  14.407  11.865  1.5725  2.8487 -2.1597
  143PROXS   C3 7287  12.654  14.370  11.850  0.1159 -0.1074  0.1085
  143PROXS  H31 7288  12.748  14.369  11.909 -1.3707 -0.8471  2.6395
  143PROXS  H32 7289  12.634  14.265  11.817  1.5561 -0.7716  1.2086
  143PROXS  H33 7290  12.674  14.434  11.762  2.6369 -0.6604  0.2013
  144PROXS   O1 7291  12.543  14.562  11.952 -0.0907  0.8184 -0.2988
  144PROXS   C1 7292  12.546  14.647  11.840 -0.4559  0.3441  0.2920
  144PROXS  H11 7293  12.645  14.652  11.792  0.2689 -2.4907  1.2823
  144PROXS  H13 7294  12.484  14.606  11.757  0.3695 -0.9208  0.2699
  144PROXS   C2 7295  12.500  14.780  11.883 -0.5039  0.2804  0.3923
  144PROXS  H21 7296  12.549  14.816  11.976 -1.3979  1.9940  0.2318
  144PROXS   C3 7297  12.345  14.800  11.895  0.4479  0.2227  0.0049
  144PROXS  H31 7298  12.291  14.775  11.801  0.3920  0.3677 -0.0011
  144PROXS  H32 7299  12.310  14.744  11.984 -0.6497  1.9066  0.6860
  144PROXS  H33 7300  12.318  14.907  11.904 -0.7291  0.0694 -1.4148
  145PROXR   O1 7301  12.520  14.865  11.776  0.3038  0.5166  0.5347
  145PROXR   C1 7302  12.568  14.999  11.812 -0.6790 -0.3230  0.7549
  145PROXR  H11 7303  12.495  15.050  11.879  0.4062  1.1916  0.8336
  145PROXR  H13 7304  12.675  15.003  11.840 -0.7067  2.1551  0.7326
  145PROXR   C2 7305  12.580  15.085  11.686 -0.1619 -0.1616 -0.8334
  145PROXR  H21 7306  12.499  15.078  11.610  1.0565  1.6002 -2.3682
  145PROXR   C3 7307  12.693  15.040  11.597 -0.7244 -0.2455  0.1694
  145PROXR  H31 7308  12.717  15.117  11.521  1.3838  0.1601  1.1757
  145PROXR  H32 7309  12.780  15.032  11.665 -0.7750 -0.7575  0.1750
  145PROXR  H33 7310  12.674  14.943  11.545 -0.6494 -0.9611  1.4387
  146PROXS   O1 7311  12.606  15.220  11.729 -0.5126 -0.1827  0.0546
  146PROXS   C1 7312  12.598  15.320  11.627  0.0042  0.0184  0.3772
  146PROXS  H11 7313  12.694  15.330  11.572  1.3079 -0.9473  2.3607
  146PROXS  H13 7314  12.530  15.282  11.548 -1.4705  0.1906  1.5099
  146PROXS   C2 7315  12.551  15.456  11.682  0.2327 -0.0520  0.1366
  146PROXS  H21 7316  12.634  15.472  11.754 -0.5305 -1.7407  1.4345
  146PROXS   C3 7317  12.417  15.436  11.762 -0.0996  0.3799  0.7443
  146PROXS  H31 7318  12.334  15.428  11.689  0.6347  1.0090 -0.1883
  146PROXS  H32 7319  12.424  15.346  11.827 -0.4174  1.0267  1.6722
  146PROXS  H33 7320  12.399  15.524  11.826  1.4972  0.8076  0.6601
  147PROXR   O1 7321  12.539  15.549  11.576  0.7239 -0.0394  0.2912
  147PROXR   C1 7322  12.531  15.685  11.619  0.0892 -0.4930  0.2517
  147PROXR  H11 7323  12.428  15.696  11.660  0.3739  1.1846  0.6097
  147PROXR  H13 7324  12.616  15.692  11.690  2.3885 -0.8921 -2.2731
  147PROXR   C2 7325  12.553  15.784  11.500 -0.1336  0.2313 -0.1315
  147PROXR  H21 7326  12.654  15.759  11.460  0.5346 -0.9340  2.1555
  147PROXR   C3 7327  12.554  15.916  11.570 -0.0362 -0.3705 -0.2356
  147PROXR  H31 7328  12.450  15.945  11.598 -1.0346 -3.8871  0.1920
  147PROXR  H32 7329  12.607  15.916  11.667 -2.0499  1.3185  0.9470
  147PROXR  H33 7330  12.595  15.994  11.502  1.6615 -1.7907 -0.9376
  148PROXR   O1 7331  12.453  15.781  11.398  0.0938 -0.2737  0.5254
  148PROXR   C1 7332  12.451  15.662  11.319 -0.1680 -0.3564 -0.1475
  148PROXR  H11 7333  12.556  15.628  11.301  0.1720  1.3620 -1.7895
  148PROXR  H13 7334  12.386  15.589  11.370  0.2823  0.3482  1.4973
  148PROXR   C2 7335  12.386  15.703  11.192  0.0678 -0.3293  0.3899
  148PROXR  H21 7336  12.416  15.804  11.156 -0.1354 -0.9639 -1.6993
  148PROXR   C3 7337  12.234  15.722  11.219 -0.1058  0.0105 -0.1529
  148PROXR  H31 7338  12.173  15.768  11.139 -1.7579  0.3830  1.2457
  148PROXR  H32 7339  12.198  15.624  11.256 -0.9877  1.4508  3.2025
  148PROXR  H33 7340  12.223  15.803  11.294 -0.0676  0.2493 -0.4049
  149PROXR   O1 7341  12.410  15.612  11.080 -0.3063  0.1235  0.1103
  149PROXR   C1 7342  12.543  15.627  11.031 -0.3239  0.0602  0.4211
  149PROXR  H11 7343  12.536  15.698  10.945  1.3324  0.6066  0.6974
  149PROXR  H13 7344  12.614  15.662  11.110  2.0440 -1.7747 -0.7609
  149PROXR   C2 7345  12.586  15.492  10.965 -0.1479 -0.5545  0.7111
  149PROXR  H21 7346  12.506  15.455  10.898  0.4622 -0.1277 -0.2747
  149PROXR   C3 7347  12.605  15.386  11.066 -0.1431  0.0607 -0.4840
  149PROXR  H31 7348  12.627  15.283  11.031 -0.7414 -0.1431 -0.2659
  149PROXR  H32 7349  12.693  15.421  11.125  1.2241 -0.4586 -2.1153
  149PROXR  H33 7350  12.519  15.372  11.134  1.4610 -3.1281  1.0744
  150PROXS   O1 7351  12.697  15.521  10.887 -0.5572 -0.0877 -0.1003
  150PROXS   C1 7352  12.720  15.437  10.777 -0.0720  0.2940  0.3373
  150PROXS  H11 7353  12.697  15.331  10.801  2.3539 -0.4785 -0.3968
  150PROXS  H13 7354  12.656  15.461  10.690 -1.5879 -1.5496  0.8868
  150PROXS   C2 7355  12.873  15.453  10.752 -0.4062  0.0171 -0.1322
  150PROXS  H21 7356  12.927  15.428  10.846 -1.4634 -1.8730  0.0236
  150PROXS   C3 7357  12.914  15.594  10.699  0.2722  0.3032  0.0106
  150PROXS  H31 7358  12.877  15.661  10.779 -1.6341 -0.3139 -0.3054
  150PROXS  H32 7359  13.025  15.603  10.699  0.2859  0.1736 -0.4119
  150PROXS  H33 7360  12.860  15.608  10.603  1.3529 -2.5316 -1.1236
  151PROXR   O1 7361  12.908  15.355  10.657  0.4621  0.0952  0.4553
  151PROXR   C1 7362  13.049  15.330  10.649 -0.1976 -0.2450 -0.1050
  151PROXR  H11 7363  13.074  15.336  10.541  0.4657 -0.1629  0.0439
  151PROXR  H13 7364  13.112  15.403  10.705  2.3996 -2.1742 -0.3225
  151PROXR   C2 7365  13.091  15.193  10.704  0.4777  0.4856  0.2409
  151PROXR  H21 7366  13.068  15.126  10.618  0.9081  2.3923 -1.4565
  151PROXR   C3 7367  13.028  15.151  10.832 -0.1812  0.4231  0.4789
  151PROXR  H31 7368  13.042  15.219  10.918 -1.0833 -3.2637  3.8330
  151PROXR  H32 7369  12.921  15.131  10.809 -0.2073 -0.8706  1.5951
  151PROXR  H33 7370  13.068  15.054  10.869 -1.0197  0.5671  1.8078
  152PROXR   O1 7371  13.229  15.199  10.724  0.2625  0.0313  0.4393
  152PROXR   C1 7372  13.303  15.185  10.603 -0.2210  0.1416  0.1262
  152PROXR  H11 7373  13.235  15.144  10.525 -3.3561  0.0933  2.7062
  152PROXR  H13 7374  13.333  15.290  10.583 -0.5821  0.3399  0.6022
  152PROXR   C2 7375  13.425  15.090  10.615  0.6374 -1.1240  0.1556
  152PROXR  H21 7376  13.476  15.126  10.707 -0.7489 -2.3209  1.4397
  152PROXR   C3 7377  13.522  15.098  10.491 -0.3588 -0.2327  0.8011
  152PROXR  H31 7378  13.469  15.033  10.418  1.0307  1.4120 -1.8557
  152PROXR  H32 7379  13.521  15.193  10.433 -1.5361 -0.1109  0.9919
  152PROXR  H33 7380  13.617  15.041  10.498  1.0807  1.2795 -3.3831
  153PROXR   O1 7381  13.387  14.960  10.635 -0.4105  0.9987  0.2954
  153PROXR   C1 7382  13.319  14.927  10.754  0.0436 -0.4710 -0.2867
  153PROXR  H11 7383  13.350  14.988  10.841 -0.1708  0.8145 -1.0768
  153PROXR  H13 7384  13.213  14.935  10.724  0.4853  0.9404 -1.6374
  153PROXR   C2 7385  13.340  14.780  10.798 -0.2026  0.0389  0.2365
  153PROXR  H21 7386  13.449  14.783  10.821  0.9659  1.6075 -4.4195
  153PROXR   C3 7387  13.297  14.683  10.687 -0.4570 -0.1352  0.8794
  153PROXR  H31 7388  13.288  14.578  10.722 -1.6458 -0.0973  0.7149
  153PROXR  H32 7389  13.195  14.715  10.656  0.5269  1.5202 -0.8374
  153PROXR  H33 7390  13.370  14.696  10.605  0.6317  0.5309  1.9112
  154PROXS   O1 7391  13.266  14.768  10.915  0.3091  0.0820 -0.2868
  154PROXS   C1 7392  13.314  14.660  10.997 -0.0534  0.3788 -0.2967
  154PROXS  H11 7393  13.331  14.570  10.933  1.2795 -0.2991  0.9579
  154PROXS  H13 7394  13.414  14.683  11.040  0.5623  0.8295 -1.8926
  154PROXS   C2 7395  13.213  14.640  11.105 -0.1208  0.1088  0.2677
  154PROXS  H21 7396  13.111  14.642  11.061  0.3128  0.2660 -0.7565
  154PROXS   C3 7397  13.229  14.752  11.199 -0.0301  0.2093 -0.3361
  154PROXS  H31 7398  13.139  14.754  11.264 -1.0805  1.1580 -1.7551
  154PROXS  H32 7399  13.314  14.742  11.269 -1.1456 -2.4604  0.7701
  154PROXS  H33 7400  13.224  14.846  11.140  0.4967  0.9719  0.8053
  155PROXR   O1 7401  13.239  14.517  11.159 -0.0025  0.8477  0.1459
  155PROXR   C1 7402  13.158  14.478  11.270 -0.3459 -0.2756 -0.3236
  155PROXR  H11 7403  13.183  14.550  11.351 -0.3390  0.1362 -0.6854
  155PROXR  H13 7404  13.050  14.490  11.246 -1.1746 -0.3048  2.9196
  155PROXR   C2 7405  13.173  14.339  11.326  0.0244 -0.4063 -0.2613
  155PROXR  H21 7406  13.280  14.320  11.352 -0.3013 -1.7220  0.2037
  155PROXR   C3 7407  13.134  14.219  11.232  0.5723 -0.0274 -0.4671
  155PROXR  H31 7408  13.131  14.131  11.299  1.9686  1.0882  1.1671
  155PROXR  H32 7409  13.033  14.235  11.189  0.7335 -0.2636 -0.9352
  155PROXR  H33 7410  13.193  14.194  11.141 -1.8131 -1.2113 -1.7635
  156PROXS   O1 7411  13.101  14.344  11.452 -0.5603  0.0612 -0.3365
  156PROXS   C1 7412  13.143  14.231  11.534  0.2634 -0.1414 -0.2385
  156PROXS  H11 7413  13.114  14.128  11.503  1.3018 -0.3853 -0.4263
  156PROXS  H13 7414  13.253  14.235  11.548  0.1586 -0.5553  0.7617
  156PROXS   C2 7415  13.088  14.236  11.679 -0.8248  0.7766 -0.4496
  156PROXS  H21 7416  12.988  14.191  11.693 -0.4090 -0.1837 -0.4607
  156PROXS   C3 7417  13.085  14.384  11.726  0.8814  0.0930  0.3753
  156PROXS  H31 7418  13.075  14.378  11.837 -0.1162 -1.4616  0.2411
  156PROXS  H32 7419  13.179  14.432  11.695  0.2041  1.9291  1.0590
  156PROXS  H33 7420  12.996  14.437  11.685 -0.7288 -3.2078 -0.7756
  157PROXS   O1 7421  13.183  14.158  11.752  0.5818  0.6637 -0.4829
  157PROXS   C1 7422  13.124  14.090  11.862  0.0599  0.0888 -0.4084
  157PROXS  H11 7423  13.084  14.173  11.923  0.6146 -0.2089  0.3740
  157PROXS  H13 7424  13.043  14.023  11.827 -0.1024  0.5541 -0.9427
  157PROXS   C2 7425  13.237  14.008  11.934  0.5281 -0.3308  0.1192
  157PROXS  H21 7426  13.277  13.946  11.851 -3.1580 -1.5749 -0.9337
  157PROXS   C3 7427  13.187  13.931  12.054  0.6179 -0.0151  0.1030
  157PROXS  H31 7428  13.143  14.004  12.125 -1.8457 -1.0386 -0.2427
  157PROXS  H32 7429  13.103  13.860  12.035 -1.8095  1.8723  2.8756
  157PROXS  H33 7430  13.267  13.875  12.106 -0.2074 -0.6576  0.7087
  158PROXR   O1 7431  13.346  14.098  11.970 -0.3260  0.2188 -0.2793
  158PROXR   C1 7432  13.324  14.178  12.088 -0.1270 -0.2999 -0.1702
  158PROXR  H11 7433  13.219  14.215  12.091 -1.0753 -2.8399 -0.0925
  158PROXR  H13 7434  13.336  14.123  12.184 -0.6001 -0.5217 -0.2402
  158PROXR   C2 7435  13.421  14.303  12.087  0.1499 -0.2841  0.5523
  158PROXR  H21 7436  13.446  14.322  11.980 -0.9484  1.4783  0.5698
  158PROXR   C3 7437  13.546  14.282  12.171  0.8935 -0.1692  0.0426
  158PROXR  H31 7438  13.589  14.184  12.141  0.1473 -0.0721 -1.4082
  158PROXR  H32 7439  13.626  14.354  12.145  1.9690 -1.2663  0.2033
  158PROXR  H33 7440  13.545  14.283  12.282  0.7504 -2.3427  0.1062
  159PROXR   O1 7441  13.360  14.425  12.135  0.0118  0.2284  0.2046
  159PROXR   C1 7442  13.274  14.479  12.040 -0.1142  0.0983 -0.2928
  159PROXR  H11 7443  13.322  14.550  11.969 -1.6545  1.2023 -0.2802
  159PROXR  H13 7444  13.234  14.398  11.975  2.2381 -1.2442 -0.1954
  159PROXR   C2 7445  13.163  14.564  12.107  0.6505  0.6144  0.6907
  159PROXR  H21 7446  13.203  14.626  12.190  1.3958 -0.2004  0.9605
  159PROXR   C3 7447  13.043  14.479  12.159 -0.3284 -0.5886  0.4958
  159PROXR  H31 7448  12.995  14.419  12.078 -0.7652  0.7409 -0.2684
  159PROXR  H32 7449  13.082  14.406  12.233  2.0956 -2.8153 -2.7093
  159PROXR  H33 7450  12.963  14.533  12.213 -1.6675 -2.5879  0.6320
  160PROXS   O1 7451  13.102  14.648  12.004  0.3317 -0.0962 -0.2362
  160PROXS   C1 7452  13.165  14.782  11.995 -1.0416 -0.0446 -0.4466
  160PROXS  H11 7453  13.171  14.837  12.092  1.5713 -1.3114  0.1992
  160PROXS  H13 7454  13.267  14.785  11.951 -0.6370  1.3343  0.5169
  160PROXS   C2 7455  13.075  14.870  11.904  0.4381 -0.0683 -0.3843
  160PROXS  H21 7456  12.969  14.849  11.932  0.3510 -1.1747 -1.4513
  160PROXS   C3 7457  13.090  14.830  11.752 -0.0076 -0.0482  0.9240
  160PROXS  H31 7458  13.073  14.721  11.744 -0.8125  0.2218 -2.6040
  160PROXS  H32 7459  13.006  14.871  11.692 -0.1737  0.3935  1.4429
  160PROXS  H33 7460  13.187  14.870  11.717 -0.0005 -0.0525  0.9423
  161PROXR   O1 7461  13.101  15.003  11.932  0.0231 -0.3278  0.3068
  161PROXR   C1 7462  13.020  15.102  11.868 -0.1088  0.7539  0.2631
  161PROXR  H11 7463  13.016  15.090  11.758 -0.1840 -0.8663  0.4168
  161PROXR  H13 7464  12.918  15.108  11.911  0.0120 -0.4826  0.7716
  161PROXR   C2 7465  13.090  15.241  11.905  0.3512  0.0013  0.4912
  161PROXR  H21 7466  13.187  15.233  11.853 -0.4753 -1.2914 -0.9402
  161PROXR   C3 7467  13.119  15.262  12.054  0.1500  0.0544 -0.5261
  161PROXR  H31 7468  13.025  15.293  12.105  0.3780  0.3462 -0.2795
  161PROXR  H32 7469  13.157  15.168  12.100 -1.1176 -0.4075 -0.3779
  161PROXR  H33 7470  13.194  15.343  12.068  0.8205 -0.8213  1.2792
  162PROXR   O1 7471  12.998  15.337  11.843 -0.4499 -1.1506  0.5549
  162PROXR   C1 7472  13.050  15.471  11.853  0.7841 -0.6875 -0.4127
  162PROXR  H11 7473  13.040  15.497  11.961 -1.4213  1.2023 -0.9924
  162PROXR  H13 7474  13.150  15.474  11.806  0.9993 -0.7961  0.0267
  162PROXR   C2 7475  12.949  15.571  11.785 -0.8802  0.4611  0.5626
  162PROXR  H21 7476  12.849  15.541  11.824 -1.2695  0.6078 -0.2905
  162PROXR   C3 7477  12.961  15.540  11.635  0.2995 -0.8672  0.3571
  162PROXR  H31 7478  12.886  15.605  11.586  1.5078  1.4283  1.3711
  162PROXR  H32 7479  13.062  15.565  11.596 -0.4503 -1.1342 -1.8720
  162PROXR  H33 7480  12.940  15.432  11.621  0.6528 -1.2958  2.6522
  163PROXS   O1 7481  12.984  15.708  11.811 -0.2702  0.1985  0.6189
  163PROXS   C1 7482  12.891  15.802  11.766  0.6084 -0.0259  0.7807
  163PROXS  H11 7483  12.878  15.796  11.656 -2.7916  0.9741  1.0353
  163PROXS  H13 7484  12.792  15.778  11.810  0.7781 -1.8431  0.2654
  163PROXS   C2 7485  12.933  15.947  11.809  0.8151 -0.1811  0.2596
  163PROXS  H21 7486  13.035  15.970  11.773  0.5776 -1.6223 -1.4758
  163PROXS   C3 7487  12.935  15.956  11.963  0.4823  0.2456  0.1359
  163PROXS  H31 7488  12.840  15.919  12.009 -0.0784  2.0293  0.4857
  163PROXS  H32 7489  13.007  15.887  12.011 -1.0014 -1.3241  0.2185
  163PROXS  H33 7490  12.953  16.061  11.991 -0.5141 -0.0303  1.9602
  164PROXR   O1 7491  12.835  16.043  11.771  0.2124  0.3388  0.0674
  164PROXR   C1 7492  12.884  16.177  11.763  0.5948 -0.7020 -0.2130
  164PROXR  H11 7493  12.874  16.227  11.862  0.9770 -2.5288  0.7954
  164PROXR  H13 7494  12.989  16.171  11.728  0.0998 -1.2949 -1.6382
  164PROXR   C2 7495  12.800  16.253  11.654  0.0526  0.0126 -0.3532
  164PROXR  H21 7496  12.698  16.251  11.698  0.0787  0.8405 -0.2535
  164PROXR   C3 7497  12.801  16.188  11.512  0.0895  0.3909  0.4059
  164PROXR  H31 7498  12.896  16.214  11.461 -0.3324  0.7545 -0.1999
  164PROXR  H32 7499  12.798  16.079  11.531 -0.8415  0.6040  1.5965
  164PROXR  H33 7500  12.719  16.225  11.448 -2.4474 -1.0323  2.6239
  165PROXR   O1 7501  12.837  16.389  11.660 -0.7713 -0.2647  0.3113
  165PROXR   C1 7502  12.772  16.471  11.562 -0.4995 -0.4755  0.2421
  165PROXR  H11 7503  12.812  16.449  11.461 -3.0627 -0.8582 -0.7549
  165PROXR  H13 7504  12.664  16.447  11.554 -0.8885  1.2047  0.0809
  165PROXR   C2 7505  12.772  16.618  11.598  0.3040 -0.7714 -0.4039
  165PROXR  H21 7506  12.875  16.660  11.601 -0.3711  0.9907 -0.2880
  165PROXR   C3 7507  12.695  16.638  11.738 -0.6523 -0.1866  0.4830
  165PROXR  H31 7508  12.686  16.747  11.760  1.0132 -0.3994  2.4905
  165PROXR  H32 7509  12.598  16.584  11.733  0.4286 -2.2094  0.3972
  165PROXR  H33 7510  12.755  16.593  11.819 -2.8482 -1.0227  1.7302
  166ETHOX   O1 7511  12.708  16.684  11.491 -0.3348  0.2080 -0.4462
  166ETHOX   C1 7512  12.723  16.823  11.485  0.5453  0.3480 -0.1744
  166ETHOX  H11 7513  12.830  16.855  11.480  0.4940  0.3908 -1.0852
  166ETHOX  H13 7514  12.682  16.876  11.573 -0.8262  0.8687 -1.0976
  166ETHOX   C2 7515  12.652  16.882  11.363 -0.0597 -0.2750  0.5858
  166ETHOX  H21 7516  12.693  16.833  11.272 -1.0753  0.0709 -0.0734
  166ETHOX  H23 7517  12.674  16.989  11.342  0.1311 -0.4198  0.0457
  167ETHOX   O1 7518  12.514  16.870  11.378  0.5042  0.2062 -0.6452
  167ETHOX   C1 7519  12.440  16.915  11.259 -0.7905 -0.1538 -0.3781
  167ETHOX  H11 7520  12.429  17.025  11.268 -1.5706 -0.3516  1.7162
  167ETHOX  H13 7521  12.508  16.901  11.173 -1.0729  2.0900 -1.0443
  167ETHOX   C2 7522  12.297  16.859  11.248 -0.2308 -0.0820  0.3082
  167ETHOX  H21 7523  12.240  16.889  11.339  0.1594 -0.5964  0.7304
  167ETHOX  H23 7524  12.315  16.750  11.238 -1.4966 -0.1173 -2.3509
  168ETHOX   O1 7525  12.230  16.902  11.128 -0.0247 -0.1047 -0.5486
  168ETHOX   C1 7526  12.149  17.020  11.148 -0.5244 -0.3538 -0.0339
  168ETHOX  H11 7527  12.213  17.111  11.153 -1.4881  0.2838  1.2889
  168ETHOX  H13 7528  12.093  17.000  11.242 -1.3458 -2.3840 -0.8848
  168ETHOX   C2 7529  12.043  17.034  11.038  0.2873  0.2655  0.7977
  168ETHOX  H21 7530  11.962  17.110  11.051  0.4867  0.5906  0.1618
  168ETHOX  H23 7531  11.978  16.946  11.021 -0.3925  0.9979 -0.5602
  169ETHOX   O1 7532  12.117  17.059  10.914  0.1879 -0.0524 -0.5160
  169ETHOX   C1 7533  12.040  17.050  10.798 -0.4573 -0.1455  0.0422
  169ETHOX  H11 7534  11.990  16.951  10.792  1.6625 -1.2016 -0.8729
  169ETHOX  H13 7535  11.960  17.128  10.803 -0.3905 -0.0868  0.1934
  169ETHOX   C2 7536  12.127  17.071  10.676  0.1905  0.5980  0.0797
  169ETHOX  H21 7537  12.067  17.043  10.587  0.8156  3.2917 -1.2804
  169ETHOX  H23 7538  12.217  17.005  10.683 -0.5724 -0.3063  2.2127
  170ETHOX   O1 7539  12.170  17.203  10.655  0.2450 -0.6456  0.2097
  170ETHOX   C1 7540  12.262  17.224  10.541  0.3512  0.1139  0.5041
  170ETHOX  H11 7541  12.216  17.176  10.452  1.0861 -1.5072  0.9619
  170ETHOX  H13 7542  12.350  17.161  10.563  1.5098  0.8159 -1.8083
  170ETHOX   C2 7543  12.309  17.371  10.525  0.2160  0.4654 -0.0145
  170ETHOX  H21 7544  12.225  17.443  10.525  1.2201  1.6606 -0.2617
  170ETHOX  H23 7545  12.365  17.384  10.430 -0.9445  0.7606 -0.6701
  171ETHOX   O1 7546  12.379  17.404  10.643 -0.0272  0.3219  0.1393
  171ETHOX   C1 7547  12.419  17.541  10.658 -0.2304 -0.0774  0.5102
  171ETHOX  H11 7548  12.488  17.563  10.573  0.7072 -2.4900  0.5658
  171ETHOX  H13 7549  12.335  17.613  10.648  1.1025  1.5461  0.4362
  171ETHOX   C2 7550  12.507  17.562  10.775  0.5431  0.0190  0.2577
  171ETHOX  H21 7551  12.460  17.500  10.854 -0.2204 -1.4518 -1.2987
  171ETHOX  H23 7552  12.525  17.669  10.800 -3.1214  0.9573 -0.5526
  172ETHOX   O1 7553  12.636  17.505  10.761  0.0996 -0.2092 -0.7298
  172ETHOX   C1 7554  12.728  17.545  10.864 -0.1493 -0.6206  0.4297
  172ETHOX  H11 7555  12.703  17.490  10.957  0.3197 -1.8712 -0.1617
  172ETHOX  H13 7556  12.729  17.656  10.868 -1.2661 -0.6316  1.7723
  172ETHOX   C2 7557  12.868  17.490  10.813 -0.6625 -0.5442 -0.0197
  172ETHOX  H21 7558  12.872  17.379  10.811  0.9394 -0.4990 -1.9547
  172ETHOX  H23 7559  12.953  17.527  10.875  1.9796 -2.9412 -1.9828
  173ETHOX   O1 7560  12.882  17.535  10.676 -0.2230  0.3115 -0.9772
  173ETHOX   C1 7561  12.995  17.476  10.626  0.0881  0.2311 -0.0452
  173ETHOX  H11 7562  13.080  17.475  10.699 -0.0782  1.5385  0.2009
  173ETHOX  H13 7563  12.960  17.374  10.601 -2.0996  1.2805 -1.5441
  173ETHOX   C2 7564  13.037  17.535  10.494 -0.1170 -0.3043  0.5684
  173ETHOX  H21 7565  12.958  17.511  10.420 -0.1858  0.3888  0.4081
  173ETHOX  H23 7566  13.051  17.645  10.507  0.1722 -0.2108 -0.4526
  174ETHOX   O1 7567  13.162  17.474  10.469 -0.1681 -0.2250 -0.4074
  174ETHOX   C1 7568  13.204  17.490  10.333 -0.2911  0.4831 -0.3484
  174ETHOX  H11 7569  13.132  17.439  10.266 -0.5420  0.2754  0.0819
  174ETHOX  H13 7570  13.186  17.596  10.303 -0.3987  0.8940  1.0600
  174ETHOX   C2 7571  13.352  17.458  10.303 -0.3735 -0.0093 -0.3627
  174ETHOX  H21 7572  13.356  17.347  10.307 -2.3304 -0.0834  1.1228
  174ETHOX  H23 7573  13.420  17.500  10.381 -1.4277 -1.5179  1.4666
  175ETHOX   O1 7574  13.401  17.496  10.174  0.1686 -0.3270  0.0997
  175ETHOX   C1 7575  13.535  17.445  10.149 -0.0343  0.1822  0.0196
  175ETHOX  H11 7576  13.615  17.490  10.213  2.2177 -0.3968 -2.2121
  175ETHOX  H13 7577  13.538  17.336  10.169  2.8220 -0.3696 -2.6334
  175ETHOX   C2 7578  13.574  17.461  10.006  0.4036  0.2697  0.0711
  175ETHOX  H21 7579  13.511  17.392   9.947  1.5450 -0.7801  0.0323
  175ETHOX  H23 7580  13.683  17.444   9.994  0.7970  2.0779  0.7175
  176ETHOX   O1 7581  13.553  17.596   9.968  0.1179 -0.5093  0.7366
  176ETHOX   C1 7582  13.648  17.693  10.003 -0.4679  1.0772 -0.1102
  176ETHOX  H11 7583  13.648  17.690  10.114 -0.7317 -0.9869 -0.1311
  176ETHOX  H13 7584  13.750  17.673   9.963 -0.7411  0.8618 -0.6976
  176ETHOX   C2 7585  13.616  17.836   9.959 -0.2368  0.0190  0.8569
  176ETHOX  H21 7586  13.549  17.886  10.032 -2.5075 -0.1788 -1.0026
  176ETHOX  H23 7587  13.562  17.824   9.863 -1.5697  0.2647  1.5473
  177ETHOX   O1 7588  13.727  17.918   9.941  0.5750  0.7550  0.1762
  177ETHOX   C1 7589  13.768  17.981  10.058  0.4700  0.3430 -0.3211
  177ETHOX  H11 7590  13.684  17.986  10.131 -1.7430  0.7343 -2.7472
  177ETHOX  H13 7591  13.781  18.083  10.016  4.5129 -0.5211 -1.6300
  177ETHOX   C2 7592  13.911  17.935  10.097  0.1019  0.6440  0.1178
  177ETHOX  H21 7593  13.949  18.005  10.175 -2.7182  0.2818  1.9694
  177ETHOX  H23 7594  13.972  17.935  10.004 -2.2252 -3.2665 -1.6348
  178ETHOX   O1 7595  13.902  17.801  10.147  0.5460 -0.4838  0.0183
  178ETHOX   C1 7596  13.949  17.791  10.283 -0.5478 -0.2112 -0.4190
  178ETHOX  H11 7597  14.048  17.840  10.284 -1.3245  1.4784  1.3035
  178ETHOX  H13 7598  13.877  17.841  10.352  0.2662  2.4369 -1.4155
  178ETHOX   C2 7599  13.960  17.636  10.306 -0.0961 -0.1590  0.2369
  178ETHOX  H21 7600  13.866  17.590  10.269  1.6107 -1.1061 -3.4216
  178ETHOX  H23 7601  13.982  17.628  10.414  1.5492 -0.3514 -0.0793
  179ETHOX   O1 7602  14.066  17.575  10.227 -0.2420  0.3559 -0.6280
  179ETHOX   C1 7603  14.054  17.426  10.237  0.3829 -0.3848  0.5059
  179ETHOX  H11 7604  13.959  17.392  10.190  0.1488 -2.4102  2.3241
  179ETHOX  H13 7605  14.050  17.403  10.345  0.7757 -1.9418  0.2177
  179ETHOX   C2 7606  14.164  17.345  10.167 -0.0166 -0.1710 -0.1000
  179ETHOX  H21 7607  14.151  17.356  10.058 -1.4632 -0.6159  0.0067
  179ETHOX  H23 7608  14.155  17.239  10.200  1.2435  0.9051  4.5689
  180ETHOX   O1 7609  14.292  17.388  10.202 -0.2572 -0.4061  0.3205
  180ETHOX   C1 7610  14.310  17.393  10.347 -0.5469 -0.1984 -0.2276
  180ETHOX  H11 7611  14.266  17.490  10.378  0.4396 -0.1247  0.9977
  180ETHOX  H13 7612  14.239  17.315  10.385 -0.9002 -0.0957 -0.6727
  180ETHOX   C2 7613  14.450  17.358  10.398  0.7480  0.3002 -0.2972
  180ETHOX  H21 7614  14.490  17.274  10.337  0.9778  1.1610 -1.3669
  180ETHOX  H23 7615  14.436  17.338  10.506 -0.3150  1.6169 -0.1660
  181ETHOX   O1 7616  14.534  17.475  10.393 -0.2746 -0.2065  0.1679
  181ETHOX   C1 7617  14.655  17.452  10.465  0.0532  0.3159 -0.9099
  181ETHOX  H11 7618  14.709  17.367  10.418 -0.1122  0.2508 -0.9822
  181ETHOX  H13 7619  14.619  17.424  10.566 -0.0488 -0.0012 -1.0337
  181ETHOX   C2 7620  14.752  17.567  10.468  0.9346  0.0922  0.1704
  181ETHOX  H21 7621  14.800  17.570  10.368  2.1829  1.2315  0.7581
  181ETHOX  H23 7622  14.831  17.542  10.543  0.0635  0.6448  1.3186
  182ETHOX   O1 7623  14.694  17.699  10.491 -0.0328  0.2709 -0.0420
  182ETHOX   C1 7624  14.794  17.792  10.445 -0.3397 -0.1268 -0.0198
  182ETHOX  H11 7625  14.888  17.775  10.501 -0.2957  0.2045  0.0092
  182ETHOX  H13 7626  14.791  17.779  10.335 -1.0190 -1.4316  0.1374
  182ETHOX   C2 7627  14.754  17.937  10.473  0.0431 -0.3667 -0.3008
  182ETHOX  H21 7628  14.843  17.999  10.446  0.6550 -2.0761 -2.4782
  182ETHOX  H23 7629  14.734  17.951  10.581  0.1741 -1.5143 -0.1175
  183ETHOX   O1 7630  14.633  17.970  10.401  0.4874 -0.3746 -0.7922
  183ETHOX   C1 7631  14.591  18.094  10.438  0.4439  0.1431  0.5591
  183ETHOX  H11 7632  14.673  18.165  10.413  2.5069 -2.1575  0.4169
  183ETHOX  H13 7633  14.574  18.106  10.547 -1.0420  1.5029  0.2211
  183ETHOX   C2 7634  14.453  18.131  10.377 -0.3418 -0.5494  0.1223
  183ETHOX  H21 7635  14.457  18.088  10.274 -0.5105 -1.3406  0.4416
  183ETHOX  H23 7636  14.448  18.242  10.384  0.2089 -0.6147  2.0599
  184ETHOX   O1 7637  14.355  18.065  10.461 -0.0239 -0.3219 -0.0619
  184ETHOX   C1 7638  14.223  18.078  10.407  0.0591  0.0931  0.5520
  184ETHOX  H11 7639  14.218  18.180  10.364 -1.4734 -0.4044 -0.5419
  184ETHOX  H13 7640  14.202  18.004  10.327 -0.0491 -0.1946  0.8452
  184ETHOX   C2 7641  14.116  18.087  10.512  0.1743  0.0059  0.0312
  184ETHOX  H21 7642  14.027  18.140  10.472  1.0930  1.7593  0.1762
  184ETHOX  H23 7643  14.160  18.139  10.600  1.7337 -2.8532  1.0650
  185ETHOX   O1 7644  14.068  17.963  10.560 -0.3609 -0.6215  0.2428
  185ETHOX   C1 7645  14.001  17.982  10.690  0.2314  0.0651  0.4601
  185ETHOX  H11 7646  13.978  17.885  10.739 -2.1096  0.2631 -0.1280
  185ETHOX  H13 7647  14.062  18.036  10.765 -0.2460  4.2173 -1.8379
  185ETHOX   C2 7648  13.866  18.048  10.680 -0.5675  0.5004 -0.0665
  185ETHOX  H21 7649  13.884  18.157  10.670  2.5162  0.0305 -0.7129
  185ETHOX  H23 7650  13.800  18.044  10.768 -0.5360 -1.2575 -0.0810
  186ETHOX   O1 7651  13.785  18.009  10.573 -0.3792  0.3263 -0.5248
  186ETHOX   C1 7652  13.667  18.082  10.558  0.4785 -0.3838 -0.4306
  186ETHOX  H11 7653  13.599  18.061  10.643  0.1118  1.5224 -0.2033
  186ETHOX  H13 7654  13.691  18.188  10.578  0.6246 -0.9628  3.0077
  186ETHOX   C2 7655  13.603  18.066  10.415  0.3023 -0.7618 -0.5172
  186ETHOX  H21 7656  13.681  18.089  10.339 -1.5638  4.0277 -1.3419
  186ETHOX  H23 7657  13.529  18.148  10.402  0.7791 -0.4476 -1.3361
  187ETHOX   O1 7658  13.547  17.935  10.390 -0.3452 -0.3654  0.2462
  187ETHOX   C1 7659  13.416  17.927  10.434 -0.0287  0.2049  0.1558
  187ETHOX  H11 7660  13.413  17.983  10.529  0.1894 -1.6492  1.2997
  187ETHOX  H13 7661  13.355  17.985  10.361 -0.0807 -0.7356 -0.5814
  187ETHOX   C2 7662  13.356  17.783  10.435  0.0102  0.3580 -0.4153
  187ETHOX  H21 7663  13.374  17.738  10.335  1.6434 -1.3110  0.5708
  187ETHOX  H23 7664  13.247  17.784  10.458  0.2601 -1.6907  1.2139
  188ETHOX   O1 7665  13.429  17.710  10.530 -0.3628  0.3411  0.1718
  188ETHOX   C1 7666  13.361  17.681  10.652  0.2526 -0.0998 -0.6127
  188ETHOX  H11 7667  13.266  17.628  10.628  1.0001 -0.7780 -2.2847
  188ETHOX  H13 7668  13.341  17.782  10.694 -0.7179 -0.7285  0.4602
  188ETHOX   C2 7669  13.439  17.583  10.735  0.3076 -0.4189  0.3018
  188ETHOX  H21 7670  13.432  17.483  10.686 -2.5621  0.1383 -0.5784
  188ETHOX  H23 7671  13.394  17.570  10.836 -0.4301  0.6967  0.1242
  189ETHOX   O1 7672  13.578  17.620  10.748 -0.2728  0.1665  0.3234
  189ETHOX   C1 7673  13.592  17.749  10.818  0.4924 -0.0196  0.0168
  189ETHOX  H11 7674  13.589  17.837  10.750  2.7818 -0.6132 -0.9533
  189ETHOX  H13 7675  13.508  17.766  10.888  1.3367  3.4697  0.3986
  189ETHOX   C2 7676  13.721  17.766  10.909 -0.9663 -0.1150 -0.2091
  189ETHOX  H21 7677  13.747  17.874  10.897 -0.9239 -0.2567 -1.5335
  189ETHOX  H23 7678  13.799  17.702  10.865  0.0076  0.3703  0.7540
  190ETHOX   O1 7679  13.720  17.750  11.050 -0.1236  0.5203  0.5098
  190ETHOX   C1 7680  13.718  17.613  11.091 -0.2963  0.6690 -0.2762
  190ETHOX  H11 7681  13.811  17.554  11.074 -0.6100  0.7270 -2.6239
  190ETHOX  H13 7682  13.647  17.559  11.024  1.8992 -1.4615 -1.0328
  190ETHOX   C2 7683  13.671  17.593  11.234 -0.2759 -0.6313  1.1449
  190ETHOX  H21 7684  13.731  17.649  11.310  0.5387  2.3491 -1.5085
  190ETHOX  H23 7685  13.673  17.483  11.249  0.8040 -1.5337 -3.8713
  191ETHOX   O1 7686  13.535  17.643  11.227 -1.3096 -0.3278 -0.6636
  191ETHOX   C1 7687  13.444  17.619  11.340 -0.0948 -0.2563  0.4436
  191ETHOX  H11 7688  13.497  17.632  11.437 -0.1748  2.4298  0.2148
  191ETHOX  H13 7689  13.371  17.702  11.328  0.5395  0.4170  1.1687
  191ETHOX   C2 7690  13.367  17.488  11.321  0.8339 -0.2378 -0.0310
  191ETHOX  H21 7691  13.328  17.479  11.217  1.4379  1.6580 -0.4698
  191ETHOX  H23 7692  13.278  17.494  11.387  0.9782 -1.5038  0.2938
  192ETHOX   O1 7693  13.448  17.373  11.353 -0.2976 -0.5872  0.6060
  192ETHOX   C1 7694  13.373  17.254  11.350 -0.2381 -0.3741  0.1112
  192ETHOX  H11 7695  13.287  17.256  11.279  0.0467 -2.2606 -0.3212
  192ETHOX  H13 7696  13.334  17.223  11.449  0.8297 -0.5323  0.4890
  192ETHOX   C2 7697  13.475  17.145  11.318 -0.0530  0.4368 -0.5363
  192ETHOX  H21 7698  13.440  17.043  11.342  0.2330 -0.1877 -2.5979
  192ETHOX  H23 7699  13.569  17.171  11.372  1.0945  1.2764 -2.7569
  193ETHOX   O1 7700  13.494  17.136  11.175  0.6071 -0.3588  0.2875
  193ETHOX   C1 7701  13.585  17.039  11.137 -0.1431 -0.3036 -0.3063
  193ETHOX  H11 7702  13.628  16.980  11.221  2.1135  3.7133  1.6820
  193ETHOX  H13 7703  13.527  16.966  11.076 -0.7220 -0.7912  0.7881
  193ETHOX   C2 7704  13.697  17.106  11.057 -0.4573 -0.4442 -0.1787
  193ETHOX  H21 7705  13.655  17.185  10.991 -2.1595  1.5895  3.1000
  193ETHOX  H23 7706  13.747  17.020  11.006 -0.7183 -1.3251  1.0141
  194ETHOX   O1 7707  13.785  17.177  11.139 -0.2478 -0.2617  0.1715
  194ETHOX   C1 7708  13.882  17.241  11.059  0.6590  0.2406  0.7877
  194ETHOX  H11 7709  13.827  17.323  11.007 -0.8964  0.1436  2.1738
  194ETHOX  H13 7710  13.922  17.164  10.989  0.0520 -0.7867  1.5295
  194ETHOX   C2 7711  13.986  17.305  11.143 -0.0580  0.9426  0.1929
  194ETHOX  H21 7712  13.934  17.372  11.215 -0.0572  0.3065  0.7925
  194ETHOX  H23 7713  14.057  17.357  11.075 -0.5571 -0.7595 -1.7127
  195ETHOX   O1 7714  14.070  17.207  11.215 -0.2705 -0.2253  0.5087
  195ETHOX   C1 7715  14.185  17.165  11.144  0.4387 -0.3627 -0.1907
  195ETHOX  H11 7716  14.159  17.160  11.036 -1.0915  0.8181  0.0815
  195ETHOX  H13 7717  14.249  17.254  11.159 -1.3741  0.6073  2.5771
  195ETHOX   C2 7718  14.215  17.017  11.176  0.0253  0.2744  0.6904
  195ETHOX  H21 7719  14.295  16.989  11.104  0.2228  1.2940  0.4862
  195ETHOX  H23 7720  14.124  16.953  11.171  0.9711 -1.1308  1.0794
  196ETHOX   O1 7721  14.271  17.021  11.307  0.0469 -0.2285 -0.2795
  196ETHOX   C1 7722  14.315  16.891  11.329  0.3949 -0.6515 -0.4846
  196ETHOX  H11 7723  14.228  16.822  11.334  1.1124 -1.5651 -0.1330
  196ETHOX  H13 7724  14.389  16.852  11.256 -0.3817 -1.6323 -0.7698
  196ETHOX   C2 7725  14.380  16.881  11.473  0.5416 -0.8036 -0.4071
  196ETHOX  H21 7726  14.393  16.773  11.495 -3.5154 -1.3798 -0.0510
  196ETHOX  H23 7727  14.298  16.901  11.546 -0.4029 -0.8303 -1.4325
  197ETHOX   O1 7728  14.495  16.957  11.498  0.1904  0.3118  0.1277
  197ETHOX   C1 7729  14.565  16.893  11.604 -0.5665 -0.4254 -0.2907
  197ETHOX  H11 7730  14.505  16.878  11.696 -0.2426 -0.8095 -0.1382
  197ETHOX  H13 7731  14.585  16.789  11.572 -2.3464 -1.7401  2.5662
  197ETHOX   C2 7732  14.681  16.984  11.629 -0.1560 -0.5529  0.4464
  197ETHOX  H21 7733  14.717  17.000  11.525 -0.7252  3.2033  0.6898
  197ETHOX  H23 7734  14.756  16.927  11.688  0.9294 -1.4972 -1.7290
  198ETHOX   O1 7735  14.647  17.107  11.698  0.3068  0.4530 -0.2429
  198ETHOX   C1 7736  14.763  17.194  11.708  0.7139  0.3688  0.2100
  198ETHOX  H11 7737  14.854  17.139  11.739  0.8068  0.4766  0.1253
  198ETHOX  H13 7738  14.766  17.224  11.601 -1.1966  2.1817  0.5947
  198ETHOX   C2 7739  14.735  17.313  11.801 -0.1141 -0.3076  0.0768
  198ETHOX  H21 7740  14.831  17.353  11.840 -0.9187 -0.9489  3.0209
  198ETHOX  H23 7741  14.669  17.283  11.885 -0.6712  0.4664 -0.0678
  199ETHOX   O1 7742  14.667  17.422  11.731 -0.7093  0.1903 -0.5814
  199ETHOX   C1 7743  14.621  17.520  11.825  0.1785  0.4263  0.1655
  199ETHOX  H11 7744  14.687  17.563  11.903 -1.0125  0.4766  1.1924
  199ETHOX  H13 7745  14.533  17.480  11.882 -0.3695 -0.5341 -1.2825
  199ETHOX   C2 7746  14.557  17.640  11.758  0.7695  0.2042 -0.5878
  199ETHOX  H21 7747  14.488  17.698  11.822  2.4466  0.9638  0.6089
  199ETHOX  H23 7748  14.502  17.588  11.676  1.0210 -0.2729 -0.4624
  200ETHOX   O1 7749  14.660  17.725  11.709  0.2047 -0.2005 -0.0684
  200ETHOX   C1 7750  14.601  17.842  11.649  0.1450  0.2760 -0.3772
  200ETHOX  H11 7751  14.568  17.836  11.543  1.0790 -2.1549 -0.5842
  200ETHOX  H13 7752  14.520  17.885  11.712 -0.7258 -0.7559 -0.7631
  200ETHOX   C2 7753  14.715  17.949  11.641  0.4944 -0.0628 -0.1738
  200ETHOX  H21 7754  14.683  18.032  11.575 -0.6353 -1.0153 -0.8681
  200ETHOX  H23 7755  14.799  17.897  11.590 -2.1331 -3.0419 -1.8589
  201ETHOX   O1 7756  14.763  17.994  11.766  0.6917  0.6185  0.1307
  201ETHOX   C1 7757  14.887  18.058  11.758  0.6720  0.4216  0.1100
  201ETHOX  H11 7758  14.884  18.144  11.829 -0.8118  2.3793 -2.1459
  201ETHOX  H13 7759  14.897  18.105  11.658 -1.0468  1.8150  0.5439
  201ETHOX   C2 7760  14.999  17.964  11.798 -0.0433  0.0528 -0.3903
  201ETHOX  H21 7761  14.975  17.870  11.744 -0.3478 -0.7167  1.0329
  201ETHOX  H23 7762  14.998  17.952  11.909 -1.3869  0.7901 -0.3006
  202ETHOX   O1 7763  15.128  17.999  11.746 -0.0174 -0.3746 -0.4089
  202ETHOX   C1 7764  15.205  17.879  11.724  0.0771 -0.8605  0.7956
  202ETHOX  H11 7765  15.236  17.835  11.822  0.3788 -3.3701 -0.3690
  202ETHOX  H13 7766  15.158  17.796  11.667  1.3938 -0.8381 -0.3733
  202ETHOX   C2 7767  15.332  17.920  11.656  1.0956 -0.3730  0.7372
  202ETHOX  H21 7768  15.399  17.832  11.666  2.0733  0.0245 -1.5904
  202ETHOX  H23 7769  15.377  18.011  11.702 -1.9780  1.8093 -0.2484
  203ETHOX   O1 7770  15.312  17.947  11.516 -0.4222 -0.4109 -0.7775
  203ETHOX   C1 7771  15.437  17.967  11.454 -0.3684  0.4188  0.8724
  203ETHOX  H11 7772  15.486  17.867  11.461 -3.2897 -1.0503  2.2965
  203ETHOX  H13 7773  15.502  18.048  11.493 -0.6213  0.4900  1.1583
  203ETHOX   C2 7774  15.422  17.999  11.309  0.6746  0.6871  0.3341
  203ETHOX  H21 7775  15.520  18.030  11.268  0.9701 -0.9273 -0.2673
  203ETHOX  H23 7776  15.350  18.084  11.301  0.1110  0.3060  1.1680
  204ETHOX   O1 7777  15.377  17.878  11.245 -0.3487  0.3643 -0.0182
  204ETHOX   C1 7778  15.357  17.903  11.106  0.1733 -0.0443 -0.7516
  204ETHOX  H11 7779  15.276  17.978  11.104 -0.9113 -1.1158  0.8307
  204ETHOX  H13 7780  15.445  17.950  11.056 -0.5079  2.4280  0.2622
  204ETHOX   C2 7781  15.326  17.774  11.031  0.6665  0.1940 -1.0343
  204ETHOX  H21 7782  15.416  17.713  11.053 -0.4366 -0.7050  1.2935
  204ETHOX  H23 7783  15.315  17.790  10.921  0.1203 -0.4616 -1.0835
  205ETHOX   O1 7784  15.209  17.716  11.089 -0.1999 -0.8287  0.0820
  205ETHOX   C1 7785  15.213  17.572  11.066 -0.2117  0.5774 -0.4120
  205ETHOX  H11 7786  15.299  17.527  11.118  0.6159  0.8098 -1.5326
  205ETHOX  H13 7787  15.218  17.551  10.957 -1.0094 -1.2552 -0.1219
  205ETHOX   C2 7788  15.086  17.506  11.126 -0.2481 -0.1720 -0.6841
  205ETHOX  H21 7789  15.044  17.573  11.203 -0.2387 -0.2335 -0.6264
  205ETHOX  H23 7790  15.103  17.406  11.173 -0.7906  0.7515  1.5789
  206ETHOX   O1 7791  14.989  17.475  11.034  0.3897  0.0313  0.5981
  206ETHOX   C1 7792  14.863  17.452  11.102  0.2047 -0.0134 -0.3809
  206ETHOX  H11 7793  14.858  17.354  11.154  0.5389  0.1616 -0.0096
  206ETHOX  H13 7794  14.834  17.523  11.181  0.0133  0.6516 -1.0407
  206ETHOX   C2 7795  14.743  17.454  10.999  0.8549 -0.4967  0.6048
  206ETHOX  H21 7796  14.768  17.398  10.906  3.1624  0.3638  0.6391
  206ETHOX  H23 7797  14.658  17.415  11.059  0.0289  0.4712  0.0883
  207ETHOX   O1 7798  14.705  17.589  10.959  0.0855  0.4317 -0.0097
  207ETHOX   C1 7799  14.646  17.594  10.834  0.2256  0.0958 -0.8172
  207ETHOX  H11 7800  14.576  17.508  10.834 -0.5499  0.7145 -0.3070
  207ETHOX  H13 7801  14.727  17.575  10.761  1.0905  0.5759  0.0053
  207ETHOX   C2 7802  14.578  17.724  10.804  0.0862 -0.4286 -0.2097
  207ETHOX  H21 7803  14.552  17.720  10.696 -0.1958  0.1582 -0.1686
  207ETHOX  H23 7804  14.655  17.802  10.824 -0.2016 -0.3711  0.7113
  208ETHOX   O1 7805  14.454  17.751  10.874  0.4344  0.3380  0.1146
  208ETHOX   C1 7806  14.380  17.857  10.818 -0.4403 -0.1947 -0.5908
  208ETHOX  H11 7807  14.329  17.824  10.725  0.0014 -0.1222 -0.8615
  208ETHOX  H13 7808  14.289  17.876  10.879  0.5353  0.1168  0.8110
  208ETHOX   C2 7809  14.450  17.992  10.786  0.0002 -0.3815 -0.0425
  208ETHOX  H21 7810  14.377  18.066  10.746  3.4850  3.4993  0.0615
  208ETHOX  H23 7811  14.528  17.981  10.708  1.2812 -0.7615  1.2428
  209ETHOX   O1 7812  14.508  18.049  10.902  0.5243  0.0474  0.3077
  209ETHOX   C1 7813  14.573  18.168  10.873 -0.6668 -0.0259 -0.0428
  209ETHOX  H11 7814  14.503  18.255  10.874 -0.1067  0.4409 -0.8206
  209ETHOX  H13 7815  14.619  18.149  10.773 -1.1097 -0.1495 -0.2278
  209ETHOX   C2 7816  14.682  18.203  10.979  0.4375  0.6389 -0.0437
  209ETHOX  H21 7817  14.752  18.278  10.937  0.3666  0.3871 -0.6201
  209ETHOX  H23 7818  14.745  18.112  10.988  0.7786  0.4103 -3.4540
  210ETHOX   O1 7819  14.618  18.250  11.098  0.0077 -0.0246 -0.0329
  210ETHOX   C1 7820  14.703  18.244  11.208 -0.4591 -0.6125  0.6413
  210ETHOX  H11 7821  14.726  18.137  11.230 -3.3334 -1.0782  1.8014
  210ETHOX  H13 7822  14.796  18.297  11.179 -1.6326  1.7776  1.0614
  210ETHOX   C2 7823  14.636  18.316  11.317  0.3291  0.0857  0.4753
  210ETHOX  H21 7824  14.642  18.424  11.291 -1.2315  0.4467  1.4689
  210ETHOX  H23 7825  14.695  18.306  11.410  1.5471  3.0074  0.1004
  211ETHOX   O1 7826  14.505  18.270  11.330 -0.3775 -0.1235 -0.2214
  211ETHOX   C1 7827  14.461  18.263  11.470 -0.1621 -0.0129  0.1108
  211ETHOX  H11 7828  14.532  18.205  11.532  1.1566 -0.1985 -1.5103
  211ETHOX  H13 7829  14.449  18.369  11.503 -0.2574  0.6659 -1.9352
  211ETHOX   C2 7830  14.313  18.216  11.480 -0.1855  0.5534  0.2475
  211ETHOX  H21 7831  14.297  18.193  11.587 -0.4932  1.3312  0.3750
  211ETHOX  H23 7832  14.291  18.118  11.434 -0.5423  0.8172 -0.1540
  212ETHOX   O1 7833  14.212  18.320  11.441 -0.0768  0.4936 -0.5549
  212ETHOX   C1 7834  14.129  18.282  11.331  0.3523 -0.2940  0.2693
  212ETHOX  H11 7835  14.096  18.369  11.271 -1.7822 -0.2990  1.3379
  212ETHOX  H13 7836  14.193  18.210  11.276  0.0661  0.1119 -0.6111
  212ETHOX   C2 7837  13.997  18.207  11.367  0.0574 -0.4609  0.4968
  212ETHOX  H21 7838  14.019  18.133  11.447 -1.4748 -0.3567  1.0525
  212ETHOX  H23 7839  13.956  18.164  11.273 -0.8223 -0.9167  1.0821
  213ETHOX   O1 7840  13.902  18.302  11.418 -0.5445 -0.2285 -0.0187
  213ETHOX   C1 7841  13.793  18.234  11.486 -0.1860 -0.3076 -0.6964
  213ETHOX  H11 7842  13.729  18.185  11.410  0.6608 -1.4206 -0.7010
  213ETHOX  H13 7843  13.834  18.149  11.544  0.2465  0.4102  0.0865
  213ETHOX   C2 7844  13.709  18.333  11.575  0.1966  0.4061 -0.1310
  213ETHOX  H21 7845  13.623  18.273  11.613 -0.4703  1.2966 -0.2072
  213ETHOX  H23 7846  13.663  18.397  11.496  2.2079  2.0118 -0.0670
  214ETHOX   O1 7847  13.769  18.401  11.686  0.0192 -0.1733 -0.1069
  214ETHOX   C1 7848  13.680  18.474  11.761  0.0571 -1.1096  0.4145
  214ETHOX  H11 7849  13.601  18.507  11.690  0.5645  0.0883  0.3964
  214ETHOX  H13 7850  13.730  18.568  11.790 -0.0339 -0.9400  0.0241
  214ETHOX   C2 7851  13.608  18.397  11.875 -0.6860  0.0103  0.4469
  214ETHOX  H21 7852  13.573  18.484  11.934 -0.1587  1.1740 -0.9216
  214ETHOX  H23 7853  13.682  18.352  11.944  0.8523  0.4203 -0.8960
  215ETHOX   O1 7854  13.499  18.317  11.838 -0.0706  0.2034 -0.0170
  215ETHOX   C1 7855  13.435  18.253  11.949 -0.2729  0.6969  0.1685
  215ETHOX  H11 7856  13.518  18.200  12.000 -0.0726 -2.0963 -2.7130
  215ETHOX  H13 7857  13.396  18.337  12.009 -0.6085 -0.9430  2.3572
  215ETHOX   C2 7858  13.322  18.156  11.903  0.0247 -0.5465  0.4880
  215ETHOX  H21 7859  13.296  18.094  11.991  1.1437  1.9007  2.6609
  215ETHOX  H23 7860  13.364  18.096  11.819  2.8315 -1.4486  2.3726
  216ETHOX   O1 7861  13.210  18.231  11.855  0.0564  0.4051  0.4886
  216ETHOX   C1 7862  13.121  18.262  11.961 -0.5884 -1.2174  0.4374
  216ETHOX  H11 7863  13.176  18.285  12.055 -1.2115 -1.0320  0.7641
  216ETHOX  H13 7864  13.050  18.177  11.968 -3.9609  1.3731  0.3735
  216ETHOX   C2 7865  13.041  18.384  11.918 -0.4588 -0.3887  0.2745
  216ETHOX  H21 7866  13.117  18.463  11.898 -0.6211  0.2137  1.9277
  216ETHOX  H23 7867  12.975  18.415  12.002  0.1321 -1.4377  1.1456
  217ETHOX   O1 7868  12.961  18.363  11.800  0.6355  1.3526  0.2703
  217ETHOX   C1 7869  12.897  18.484  11.757  0.2435  0.4559  0.5719
  217ETHOX  H11 7870  12.857  18.531  11.849 -1.1395 -2.8231  1.8037
  217ETHOX  H13 7871  12.970  18.554  11.710  1.5164 -0.3893  1.2107
  217ETHOX   C2 7872  12.785  18.449  11.659 -0.6606  0.0588  0.3264
  217ETHOX  H21 7873  12.711  18.531  11.644 -1.9601 -1.6015 -3.6191
  217ETHOX  H23 7874  12.734  18.361  11.702 -1.6108 -0.6429 -2.0627
  218ETHOX   O1 7875  12.841  18.411  11.537  0.3198  0.4063 -0.3962
  218ETHOX   C1 7876  12.749  18.424  11.430 -0.6003 -0.3089  0.6756
  218ETHOX  H11 7877  12.647  18.384  11.449 -0.8236 -0.3088 -0.4735
  218ETHOX  H13 7878  12.797  18.353  11.360  1.0767  1.2144  0.1958
  218ETHOX   C2 7879  12.748  18.562  11.375 -0.0351 -0.4374 -0.1990
  218ETHOX  H21 7880  12.712  18.553  11.271  0.6376  2.2256 -0.7241
  218ETHOX  H23 7881  12.853  18.595  11.371 -0.5076  1.5203  1.7558
  219ETHOX   O1 7882  12.659  18.645  11.445 -0.4479  0.4481 -0.1236
  219ETHOX   C1 7883  12.652  18.774  11.375  0.1174  0.6417 -0.5278
  219ETHOX  H11 7884  12.749  18.827  11.386 -0.0281  0.6405  1.0823
  219ETHOX  H13 7885  12.625  18.769  11.267  0.9175  0.7130 -0.7354
  219ETHOX   C2 7886  12.541  18.840  11.445  0.0264  1.0953 -0.0689
  219ETHOX  H21 7887  12.528  18.942  11.402  2.9802  0.8857 -1.7985
  219ETHOX  H23 7888  12.563  18.852  11.553 -2.1330  0.5621  0.4686
  220ETHOX   O1 7889  12.417  18.770  11.430 -0.2786  0.3721  0.2754
  220ETHOX   C1 7890  12.330  18.790  11.542  0.4431 -0.1854 -0.7372
  220ETHOX  H11 7891  12.325  18.900  11.557  1.0873 -0.0951 -1.1367
  220ETHOX  H13 7892  12.371  18.746  11.635 -0.5928 -0.6870 -0.5000
  220ETHOX   C2 7893  12.184  18.737  11.514  0.0696 -0.1120  0.5067
  220ETHOX  H21 7894  12.139  18.776  11.420 -1.4389  1.9597  1.9927
  220ETHOX  H23 7895  12.120  18.775  11.596  0.6072  0.3919  0.6976
  221ETHOX   O1 7896  12.188  18.595  11.518 -0.3474 -0.1432  0.6074
  221ETHOX   C1 7897  12.058  18.545  11.493  1.0988  0.3858 -0.2264
  221ETHOX  H11 7898  11.999  18.548  11.588 -1.2440  0.8389 -1.6136
  221ETHOX  H13 7899  12.002  18.599  11.414  0.4808 -3.1091 -2.3907
  221ETHOX   C2 7900  12.061  18.400  11.439 -0.0318  0.6230  0.3508
  221ETHOX  H21 7901  12.105  18.346  11.525  1.0251 -0.1532 -0.6555
  221ETHOX  H23 7902  12.128  18.399  11.351  0.9408  0.3000  1.0730
  222ETHOX   O1 7903  11.933  18.345  11.422  0.3187 -0.1165  0.3840
  222ETHOX   C1 7904  11.941  18.217  11.377 -0.0096 -0.0028  0.2499
  222ETHOX  H11 7905  11.851  18.187  11.320  0.3495 -0.0456 -0.3010
  222ETHOX  H13 7906  12.024  18.201  11.305 -2.0833 -2.0952 -1.8613
  222ETHOX   C2 7907  11.967  18.110  11.482  0.6130  0.9671 -0.4239
  222ETHOX  H21 7908  11.935  18.015  11.437  1.3195 -0.0709  1.1549
  222ETHOX  H23 7909  11.898  18.122  11.568 -0.8652  0.0949 -1.4592
  223ETHOX   O1 7910  12.101  18.107  11.529  0.0715 -0.0505  0.4330
  223ETHOX   C1 7911  12.133  17.981  11.581  0.1676  0.2922 -0.0328
  223ETHOX  H11 7912  12.049  17.922  11.621  1.8662 -1.7947  0.6210
  223ETHOX  H13 7913  12.186  17.916  11.508  0.7839 -1.5436  1.9307
  223ETHOX   C2 7914  12.226  17.999  11.700  0.0361 -0.0523 -0.9919
  223ETHOX  H21 7915  12.293  18.085  11.680  1.2119 -0.4154  1.0877
  223ETHOX  H23 7916  12.287  17.907  11.714 -1.5821 -1.2700 -1.5653
  224ETHOX   O1 7917  12.140  18.030  11.809 -0.1312  0.3090  0.2201
  224ETHOX   C1 7918  12.212  18.024  11.931 -0.0474 -0.0426 -1.1865
  224ETHOX  H11 7919  12.245  17.919  11.942 -0.6509  0.0493  3.1612
  224ETHOX  H13 7920  12.295  18.097  11.923 -1.2394  1.2781 -2.2588
  224ETHOX   C2 7921  12.124  18.073  12.044  0.0108 -0.1042  0.3034
  224ETHOX  H21 7922  12.161  18.026  12.138  2.9784  0.5358 -0.4460
  224ETHOX  H23 7923  12.026  18.021  12.029  1.6275 -2.7019 -2.4793
  225ETHOX   O1 7924  12.104  18.215  12.050  0.0347 -0.3968  0.8173
  225ETHOX   C1 7925  12.020  18.260  12.154 -0.4124 -0.3100  0.2997
  225ETHOX  H11 7926  12.032  18.371  12.158  0.3145 -0.4141  3.0290
  225ETHOX  H13 7927  12.068  18.224  12.248  1.2856  1.0167 -0.0091
  225ETHOX   C2 7928  11.868  18.223  12.163  0.3004 -0.0031 -0.0628
  225ETHOX  H21 7929  11.812  18.250  12.255 -0.7807 -1.5712 -0.2325
  225ETHOX  H23 7930  11.865  18.112  12.168  0.1769  0.0349  1.1445
  226ETHOX   O1 7931  11.806  18.280  12.044 -0.4519  0.1331 -0.1796
  226ETHOX   C1 7932  11.664  18.261  12.040 -0.4677 -0.0937 -0.6051
  226ETHOX  H11 7933  11.622  18.263  11.937 -3.1586  1.6127  0.4200
  226ETHOX  H13 7934  11.634  18.165  12.085 -0.7881  0.5459  0.5863
  226ETHOX   C2 7935  11.608  18.385  12.118 -1.1102  0.4082  0.6530
  226ETHOX  H21 7936  11.504  18.389  12.077 -0.9780  1.7990  0.3835
  226ETHOX  H23 7937  11.644  18.481  12.075  0.8593  0.1756  1.7105
  227ETHOX   O1 7938  11.608  18.383  12.260 -0.1612  0.6183  0.2851
  227ETHOX   C1 7939  11.586  18.509  12.320 -0.1925  0.3140 -0.8666
  227ETHOX  H11 7940  11.671  18.574  12.292  1.1386 -0.3099  1.4608
  227ETHOX  H13 7941  11.602  18.489  12.428 -0.3025  1.0101 -0.7175
  227ETHOX   C2 7942  11.442  18.560  12.311  0.3666 -0.4937  1.0758
  227ETHOX  H21 7943  11.429  18.639  12.388  1.1372  1.3516 -0.6252
  227ETHOX  H23 7944  11.366  18.480  12.326 -0.5878  0.2022  0.0295
  228ETHOX   O1 7945  11.419  18.615  12.182  0.0637  0.1915  0.1910
  228ETHOX   C1 7946  11.287  18.679  12.169 -0.1486  0.6719 -0.7167
  228ETHOX  H11 7947  11.208  18.608  12.201 -0.8071  2.4139  1.8794
  228ETHOX  H13 7948  11.290  18.766  12.239  1.6358  0.1308 -0.0514
  228ETHOX   C2 7949  11.249  18.709  12.024 -0.2741  0.0215  0.0048
  228ETHOX  H21 7950  11.323  18.763  11.961  0.3546 -1.1364 -0.2716
  228ETHOX  H23 7951  11.148  18.755  12.027 -0.5023 -0.5071  2.1448
  229ETHOX   O1 7952  11.231  18.588  11.951 -0.2380  0.0116 -0.2916
  229ETHOX   C1 7953  11.183  18.612  11.816  0.6135 -0.0469 -0.1221
  229ETHOX  H11 7954  11.258  18.672  11.761  0.1796  0.5081 -0.1237
  229ETHOX  H13 7955  11.091  18.675  11.826  1.8553  1.5061  3.4950
  229ETHOX   C2 7956  11.129  18.480  11.752 -0.0932 -0.1352 -0.0754
  229ETHOX  H21 7957  11.072  18.514  11.663 -0.1054  1.4208  0.4940
  229ETHOX  H23 7958  11.070  18.420  11.825 -0.1160  0.2720  0.2409
  230ETHOX   O1 7959  11.238  18.397  11.718  0.0585 -0.4238  0.0495
  230ETHOX   C1 7960  11.195  18.267  11.679  0.2341 -0.4590  0.1489
  230ETHOX  H11 7961  11.085  18.267  11.685  0.2566 -0.4216  0.5510
  230ETHOX  H13 7962  11.213  18.254  11.570 -1.3299  0.0530 -0.1858
  230ETHOX   C2 7963  11.270  18.158  11.752  0.2913 -0.7027  0.3208
  230ETHOX  H21 7964  11.380  18.172  11.758  0.2627 -0.6359  0.6835
  230ETHOX  H23 7965  11.260  18.070  11.683  0.9679 -0.2483 -0.3759
  231ETHOX   O1 7966  11.212  18.113  11.874 -0.0080 -0.0046  0.1676
  231ETHOX   C1 7967  11.201  18.215  11.968 -0.3411 -0.3464 -0.0980
  231ETHOX  H11 7968  11.109  18.276  11.949 -0.2102 -0.7800 -2.5444
  231ETHOX  H13 7969  11.283  18.291  11.966  0.0458 -0.7717 -0.9834
  231ETHOX   C2 7970  11.199  18.167  12.111  0.3418  0.9559 -0.3561
  231ETHOX  H21 7971  11.118  18.092  12.120  0.1465  1.1101 -0.8299
  231ETHOX  H23 7972  11.170  18.249  12.180  0.4550 -0.2794  1.2271
  232ETHOX   O1 7973  11.322  18.116  12.154  0.2866  0.1340 -0.0344
  232ETHOX   C1 7974  11.362  17.994  12.085  0.9077 -0.2448 -0.4423
  232ETHOX  H11 7975  11.277  17.951  12.027 -0.5933  1.4330  0.3976
  232ETHOX  H13 7976  11.450  18.022  12.023  0.4343  0.4324 -0.8222
  232ETHOX   C2 7977  11.384  17.888  12.190 -0.7163 -0.3517 -0.1280
  232ETHOX  H21 7978  11.480  17.911  12.240 -0.7858 -1.3529  0.4821
  232ETHOX  H23 7979  11.415  17.805  12.123  1.2251 -0.1328  0.4504
  233ETHOX   O1 7980  11.274  17.843  12.279 -0.0335  0.2174 -0.1087
  233ETHOX   C1 7981  11.175  17.763  12.211  0.4931 -0.2113  0.3268
  233ETHOX  H11 7982  11.160  17.780  12.102 -2.5856 -2.9275  0.1424
  233ETHOX  H13 7983  11.206  17.656  12.217 -0.4640 -0.5811 -0.6980
  233ETHOX   C2 7984  11.036  17.790  12.274  0.2043  0.4306 -0.1203
  233ETHOX  H21 7985  11.026  17.776  12.383 -1.2905  2.1055 -0.0103
  233ETHOX  H23 7986  10.971  17.715  12.222 -0.8723  1.4357 -0.2739
  234ETHOX   O1 7987  10.979  17.920  12.246 -0.0318  0.3315  0.5251
  234ETHOX   C1 7988  10.843  17.925  12.277 -0.3105 -0.4918  0.5672
  234ETHOX  H11 7989  10.781  17.877  12.198 -1.2776  0.1280  0.9366
  234ETHOX  H13 7990  10.827  17.881  12.378  0.0053 -0.2847  0.7085
  234ETHOX   C2 7991  10.779  18.068  12.284  0.5464 -0.6904  0.3859
  234ETHOX  H21 7992  10.671  18.056  12.306  0.9472 -1.3734  2.0983
  234ETHOX  H23 7993  10.784  18.113  12.182 -0.2567 -0.9398  0.2249
  235ETHOX   O1 7994  10.842  18.141  12.391 -0.4962 -0.4518 -0.2052
  235ETHOX   C1 7995  10.748  18.234  12.441  0.0250 -0.0726 -0.4373
  235ETHOX  H11 7996  10.691  18.280  12.357 -0.2930  0.1102 -0.1242
  235ETHOX  H13 7997  10.684  18.179  12.513  1.2669  2.7097  3.0843
  235ETHOX   C2 7998  10.805  18.346  12.529 -0.1434  0.0505 -0.3075
  235ETHOX  H21 7999  10.886  18.305  12.593 -0.7102 -2.6164 -1.1904
  235ETHOX  H23 8000  10.718  18.370  12.594 -0.2696  1.1849 -0.8636
  236ETHOX   O1 8001  10.848  18.456  12.452  0.4305  0.1395  0.2704
  236ETHOX   C1 8002  10.780  18.573  12.494 -0.0642  0.0687 -0.2617
  236ETHOX  H11 8003  10.802  18.595  12.600 -3.9775 -1.2976  1.0158
  236ETHOX  H13 8004  10.670  18.559  12.492  0.2278 -3.0712 -0.2303
  236ETHOX   C2 8005  10.809  18.691  12.408  0.3520 -0.5952  0.3874
  236ETHOX  H21 8006  10.909  18.701  12.361 -1.1903  2.1903 -2.7621
  236ETHOX  H23 8007  10.815  18.789  12.459 -1.8369 -1.5551  2.6991
  237ETHOX   O1 8008  10.711  18.700  12.307  0.7783  0.1597  0.4086
  237ETHOX   C1 8009  10.742  18.794  12.204  0.0939 -0.4280  0.9384
  237ETHOX  H11 8010  10.648  18.823  12.152  0.7506  0.9146  0.4546
  237ETHOX  H13 8011  10.769  18.886  12.259  0.9402 -1.4549  2.3190
  237ETHOX   C2 8012  10.855  18.747  12.109 -0.4515  0.4156  0.5436
  237ETHOX  H21 8013  10.946  18.717  12.165 -0.3540 -1.0212 -0.3511
  237ETHOX  H23 8014  10.878  18.831  12.040 -0.5648 -0.3727 -0.4724
  238ETHOX   O1 8015  10.822  18.638  12.022  0.4625 -0.5801  0.2666
  238ETHOX   C1 8016  10.859  18.514  12.078  0.1241  0.2740 -0.0672
  238ETHOX  H11 8017  10.824  18.497  12.182 -0.6977 -0.1582 -0.4031
  238ETHOX  H13 8018  10.970  18.512  12.080  0.1336  0.4640 -0.2850
  238ETHOX   C2 8019  10.804  18.395  11.993  0.5420 -0.2342  0.0860
  238ETHOX  H21 8020  10.840  18.300  12.039  2.0256 -0.0764 -0.7017
  238ETHOX  H23 8021  10.825  18.403  11.885 -0.6787  1.2356 -0.0704
  239ETHOX   O1 8022  10.658  18.399  12.001  0.3555  0.4349 -0.1321
  239ETHOX   C1 8023  10.605  18.288  11.930  0.9049 -0.3942  0.2842
  239ETHOX  H11 8024  10.615  18.323  11.825  0.7528  2.4659  1.1471
  239ETHOX  H13 8025  10.672  18.200  11.941  0.2271 -0.8487  0.9543
  239ETHOX   C2 8026  10.459  18.277  11.978  0.5278 -0.6281 -0.4810
  239ETHOX  H21 8027  10.412  18.378  11.978  0.4512 -0.6398  1.2667
  239ETHOX  H23 8028  10.408  18.205  11.910  2.0547 -0.0109 -2.3819
  240ETHOX   O1 8029  10.461  18.233  12.112 -0.1141 -0.0708 -0.2265
  240ETHOX   C1 8030  10.327  18.227  12.155 -0.5231 -0.3578 -0.5482
  240ETHOX  H11 8031  10.282  18.140  12.103  3.5113 -1.6868 -2.2323
  240ETHOX  H13 8032  10.269  18.320  12.138 -2.8275 -1.6724 -0.2753
  240ETHOX   C2 8033  10.326  18.203  12.300  0.0021 -0.4393  0.5418
  240ETHOX  H21 8034  10.234  18.245  12.346  0.0637 -0.6442  0.8603
  240ETHOX  H23 8035  10.414  18.249  12.352 -0.4563 -1.0165  1.8826
  241ETHOX   O1 8036  10.318  18.060  12.319 -0.2713 -0.2754  0.4080
  241ETHOX   C1 8037  10.303  18.021  12.451 -0.3585  0.3856 -0.5575
  241ETHOX  H11 8038  10.375  18.067  12.522 -1.8321  0.0167  1.2616
  241ETHOX  H13 8039  10.202  18.045  12.491  0.0354  0.2745  0.5231
  241ETHOX   C2 8040  10.331  17.870  12.468 -0.4171 -0.1167  0.5547
  241ETHOX  H21 8041  10.347  17.830  12.570  0.4396 -0.3524  0.3402
  241ETHOX  H23 8042  10.432  17.859  12.422 -0.5889  1.1158 -0.1615
  242ETHOX   O1 8043  10.237  17.779  12.407  0.1694 -0.4423 -0.3440
  242ETHOX   C1 8044  10.273  17.646  12.423  0.2109  0.0309 -0.1316
  242ETHOX  H11 8045  10.374  17.616  12.388 -0.3906 -1.8385 -0.3457
  242ETHOX  H13 8046  10.209  17.596  12.348  0.0367 -1.8264  1.1862
  242ETHOX   C2 8047  10.257  17.585  12.564  0.5163 -0.0043 -0.1049
  242ETHOX  H21 8048  10.304  17.654  12.637  2.0671  0.2325 -1.2703
  242ETHOX  H23 8049  10.292  17.480  12.554 -1.1065 -0.9757  3.0159
  243ETHOX   O1 8050  10.115  17.579  12.584 -0.7047 -0.1111 -0.2043
  243ETHOX   C1 8051  10.078  17.573  12.718 -0.1419  0.6342  0.3727
  243ETHOX  H11 8052  10.130  17.483  12.756 -0.9157 -0.2098 -0.5230
  243ETHOX  H13 8053  10.115  17.664  12.770  0.8712  0.3594  0.1501
  243ETHOX   C2 8054   9.924  17.563  12.732  0.4069  0.9066 -0.3485
  243ETHOX  H21 8055   9.905  17.513  12.829  2.1220  1.5079  0.3359
  243ETHOX  H23 8056   9.884  17.505  12.647 -1.0495  1.0887  0.1927
  244ETHOX   O1 8057   9.860  17.687  12.740 -0.5148 -0.3684 -1.4054
  244ETHOX   C1 8058   9.725  17.675  12.721  0.2212  0.4093  0.2105
  244ETHOX  H11 8059   9.674  17.622  12.805 -0.2599  1.3150  0.5137
  244ETHOX  H13 8060   9.721  17.614  12.628 -0.8252 -3.0057  2.2859
  244ETHOX   C2 8061   9.667  17.818  12.684 -0.1384  0.0665  0.6363
  244ETHOX  H21 8062   9.563  17.809  12.646  0.4972  1.0988 -1.5657
  244ETHOX  H23 8063   9.745  17.859  12.616 -1.2298  1.3047  0.0905
  245ETHOX   O1 8064   9.681  17.899  12.799  0.3966  0.5420 -0.6662
  245ETHOX   C1 8065   9.644  18.033  12.776 -0.3955  0.2975  0.2122
  245ETHOX  H11 8066   9.706  18.059  12.687  0.4140  1.0954  0.9936
  245ETHOX  H13 8067   9.538  18.033  12.743 -0.1849 -0.3076 -0.4844
  245ETHOX   C2 8068   9.674  18.133  12.888  0.5070  0.4726  0.1201
  245ETHOX  H21 8069   9.662  18.238  12.855 -0.1031  0.1658 -0.6866
  245ETHOX  H23 8070   9.782  18.127  12.913  0.6906  1.0231 -0.5250
  246ETHOX   O1 8071   9.595  18.098  12.999  0.2574  0.2585  0.6487
  246ETHOX   C1 8072   9.468  18.154  12.997  0.7399  0.0953  0.1167
  246ETHOX  H11 8073   9.422  18.139  12.897  0.0534 -2.1484  0.7298
  246ETHOX  H13 8074   9.453  18.264  13.005  1.1851  0.0816  1.2566
  246ETHOX   C2 8075   9.375  18.104  13.112  0.1987 -0.2517 -0.5619
  246ETHOX  H21 8076   9.410  18.001  13.137  0.6252  0.4254  1.8062
  246ETHOX  H23 8077   9.269  18.097  13.079  0.3112 -2.2512 -0.6410
  247ETHOX   O1 8078   9.378  18.181  13.229 -0.1670 -0.1863 -0.0647
  247ETHOX   C1 8079   9.308  18.122  13.333 -0.7518  0.0452 -0.3795
  247ETHOX  H11 8080   9.199  18.125  13.312 -1.5603  0.1734  3.1834
  247ETHOX  H13 8081   9.342  18.017  13.345  2.0386  1.0401  1.4349
  247ETHOX   C2 8082   9.325  18.199  13.463 -1.0124 -1.0807  0.2066
  247ETHOX  H21 8083   9.310  18.128  13.547 -2.2724  0.9274  1.7712
  247ETHOX  H23 8084   9.425  18.246  13.474 -1.2576 -0.3497 -0.5712
  248ETHOX   O1 8085   9.219  18.292  13.484 -0.1314  0.2610  0.0645
  248ETHOX   C1 8086   9.236  18.401  13.406  0.1953  0.0008  0.7350
  248ETHOX  H11 8087   9.343  18.430  13.406 -0.1383  1.2490  0.2647
  248ETHOX  H13 8088   9.205  18.375  13.303  1.8382  2.5672 -0.4911
  248ETHOX   C2 8089   9.159  18.522  13.460 -0.3604 -0.0421 -0.3768
  248ETHOX  H21 8090   9.195  18.609  13.401 -0.7773  0.0568 -0.4816
  248ETHOX  H23 8091   9.193  18.539  13.565  2.0238 -0.0137 -1.0825
  249ETHOX   O1 8092   9.013  18.525  13.447 -0.6185 -0.2346 -0.1041
  249ETHOX   C1 8093   8.967  18.640  13.514  0.5631  0.4389  0.1636
  249ETHOX  H11 8094   9.014  18.642  13.615 -1.2054  0.3605  1.0254
  249ETHOX  H13 8095   9.007  18.723  13.452 -1.2935 -0.4236 -2.3377
  249ETHOX   C2 8096   8.816  18.659  13.513 -0.1653  0.1502 -0.5585
  249ETHOX  H21 8097   8.791  18.757  13.559  0.6603  0.7120 -1.2823
  249ETHOX  H23 8098   8.776  18.580  13.581  0.7572  1.4786  1.6459
  250ETHOX   O1 8099   8.757  18.662  13.382  0.2272 -0.3666 -0.4145
  250ETHOX   C1 8100   8.712  18.535  13.342  0.5244 -0.0505  0.0282
  250ETHOX  H11 8101   8.778  18.449  13.365 -1.3526 -1.4105  0.5559
  250ETHOX  H13 8102   8.613  18.530  13.392 -0.2439  0.5531 -1.3737
  250ETHOX   C2 8103   8.676  18.533  13.191 -0.1261 -0.2294  1.0193
  250ETHOX  H21 8104   8.613  18.623  13.177 -1.3063 -1.2888 -0.7598
  250ETHOX  H23 8105   8.606  18.447  13.182  0.3931 -0.4261 -2.9795
  251ETHOX   O1 8106   8.787  18.524  13.099  0.2346  0.4544 -0.0748
  251ETHOX   C1 8107   8.871  18.635  13.104 -0.2186  0.3371 -0.0737
  251ETHOX  H11 8108   8.946  18.637  13.186 -0.5444  1.8558  0.2144
  251ETHOX  H13 8109   8.814  18.729  13.118 -1.7291 -0.8230  2.2146
  251ETHOX   C2 8110   8.950  18.653  12.983  0.2948 -0.4418 -0.1562
  251ETHOX  H21 8111   8.986  18.555  12.944  0.1390 -0.4687 -0.2271
  251ETHOX  H23 8112   9.029  18.730  12.990 -0.4783  0.3294  0.1414
  252ETHOX   O1 8113   8.859  18.702  12.890 -0.0703  0.2340 -0.1913
  252ETHOX   C1 8114   8.923  18.762  12.773  0.4899  0.8749 -0.7309
  252ETHOX  H11 8115   9.011  18.817  12.814 -0.7181  0.9042  2.0959
  252ETHOX  H13 8116   8.957  18.675  12.713 -2.0330 -0.6179 -0.1940
  252ETHOX   C2 8117   8.821  18.844  12.694 -0.3702 -0.3153  0.2525
  252ETHOX  H21 8118   8.736  18.785  12.654  0.2217  0.8932 -3.0765
  252ETHOX  H23 8119   8.879  18.881  12.607  0.8852  1.4486  1.7631
  253ETHOX   O1 8120   8.788  18.955  12.776  0.3252 -0.1263 -0.0438
  253ETHOX   C1 8121   8.709  19.055  12.704  0.1364 -0.4849 -0.4781
  253ETHOX  H11 8122   8.601  19.032  12.719 -0.1307 -0.0886 -1.6481
  253ETHOX  H13 8123   8.732  19.044  12.596 -0.9520 -0.1504 -0.7578
  253ETHOX   C2 8124   8.754  19.194  12.744  0.1126  0.4948  0.3149
  253ETHOX  H21 8125   8.707  19.273  12.681  2.2503  0.5020 -1.3894
  253ETHOX  H23 8126   8.863  19.201  12.726  0.2453  1.0262  1.2938
  254ETHOX   O1 8127   8.749  19.233  12.877 -0.0765  0.2265 -0.6502
  254ETHOX   C1 8128   8.617  19.225  12.922  0.4682 -0.3741  0.1373
  254ETHOX  H11 8129   8.559  19.299  12.862 -0.6889 -0.6619  0.8672
  254ETHOX  H13 8130   8.577  19.123  12.908  0.5693 -0.1555 -2.0439
  254ETHOX   C2 8131   8.606  19.261  13.067 -0.2952  0.6178 -0.7085
  254ETHOX  H21 8132   8.657  19.196  13.141 -2.9633  1.1191  1.7590
  254ETHOX  H23 8133   8.495  19.260  13.077 -0.2717  3.3464  0.8743
  255ETHOX   O1 8134   8.643  19.394  13.089 -0.0963 -0.3551 -0.3962
  255ETHOX   C1 8135   8.633  19.424  13.231 -0.3293  0.4337  0.1346
  255ETHOX  H11 8136   8.693  19.354  13.292  0.3518  2.4350  1.8927
  255ETHOX  H13 8137   8.529  19.423  13.268 -0.9362  1.9087 -1.3904
  255ETHOX   C2 8138   8.705  19.559  13.268 -0.1078  0.0740 -0.7999
  255ETHOX  H21 8139   8.810  19.565  13.235  0.3311 -0.4727  0.4210
  255ETHOX  H23 8140   8.699  19.573  13.378  2.6842  0.4419 -0.6302
  256ETHOX   O1 8141   8.648  19.669  13.208  0.2183 -0.7159 -0.0946
  256ETHOX   C1 8142   8.714  19.789  13.233 -0.9348 -0.4662  0.9909
  256ETHOX  H11 8143   8.719  19.811  13.342  1.5106 -1.7400  1.1876
  256ETHOX  H13 8144   8.815  19.784  13.188 -1.4280  0.4808 -0.2864
  256ETHOX   C2 8145   8.635  19.894  13.163  0.0134 -0.6236 -0.0975
  256ETHOX  H21 8146   8.612  19.867  13.058  0.7734 -0.6691 -0.2619
  256ETHOX  H23 8147   8.685  19.993  13.158  1.1776 -1.1966 -0.2382
  257ETHOX   O1 8148   8.515  19.919  13.229 -0.1640  0.2351 -0.1479
  257ETHOX   C1 8149   8.459  20.041  13.191  0.3846 -0.1716 -0.5431
  257ETHOX  H11 8150   8.412  20.030  13.091 -1.7333  0.5389  0.3362
  257ETHOX  H13 8151   8.529  20.125  13.206 -0.1713 -0.0187  1.4648
  257ETHOX   C2 8152   8.350  20.084  13.284  0.2569  0.5420 -0.6011
  257ETHOX  H21 8153   8.268  20.012  13.261  0.0714  0.8118 -0.7992
  257ETHOX  H23 8154   8.299  20.177  13.252  0.1555  1.3369  1.6808
  258ETHOX   O1 8155   8.384  20.094  13.421 -1.0136 -0.4168 -0.0177
  258ETHOX   C1 8156   8.268  20.094  13.504 -0.3857 -0.5645 -0.1507
  258ETHOX  H11 8157   8.191  20.042  13.443 -0.5113 -0.4379 -0.0990
  258ETHOX  H13 8158   8.304  20.043  13.596  0.0327  1.1216  0.6589
  258ETHOX   C2 8159   8.208  20.235  13.537 -0.1413  0.0400  0.0707
  258ETHOX  H21 8160   8.294  20.290  13.582  0.2825 -1.2961  0.9428
  258ETHOX  H23 8161   8.129  20.225  13.615 -1.4415  0.1490 -1.1924
  259ETHOX   O1 8162   8.148  20.307  13.422  0.2143 -0.0265 -0.2936
  259ETHOX   C1 8163   8.178  20.440  13.437 -0.5847 -0.9402  0.5361
  259ETHOX  H11 8164   8.119  20.483  13.521  1.6210  1.9104  0.8262
  259ETHOX  H13 8165   8.288  20.456  13.450 -0.9221  2.3475  0.3328
  259ETHOX   C2 8166   8.149  20.521  13.311 -0.0038  0.8386 -0.4746
  259ETHOX  H21 8167   8.204  20.483  13.222 -0.5433 -1.1948  0.0107
  259ETHOX  H23 8168   8.176  20.624  13.341  0.6640 -0.0597  2.2682
  260ETHOX   O1 8169   8.010  20.517  13.290  0.0502 -0.2150  0.1067
  260ETHOX   C1 8170   7.980  20.515  13.147  0.1457  0.2858  0.2497
  260ETHOX  H11 8171   8.005  20.611  13.098  3.0594 -1.1464 -1.3503
  260ETHOX  H13 8172   8.039  20.429  13.108  0.4978  1.1446 -1.1608
  260ETHOX   C2 8173   7.835  20.480  13.104  0.4272 -0.7041  0.0241
  260ETHOX  H21 8174   7.825  20.378  13.147  0.3117 -1.3676 -1.5320
  260ETHOX  H23 8175   7.818  20.470  12.995  1.2955 -2.1077 -0.0130
  261ETHOX   O1 8176   7.728  20.563  13.157 -0.0877 -0.0796  0.8582
  261ETHOX   C1 8177   7.734  20.696  13.110  0.2155 -0.1417  0.0056
  261ETHOX  H11 8178   7.806  20.756  13.169  0.2783 -0.7928  0.5962
  261ETHOX  H13 8179   7.767  20.693  13.004  2.4280 -1.1491  0.6644
  261ETHOX   C2 8180   7.600  20.771  13.092  0.5022 -0.6298 -0.2591
  261ETHOX  H21 8181   7.535  20.709  13.027 -0.3460 -1.2359  1.1352
  261ETHOX  H23 8182   7.623  20.867  13.041 -0.5125  1.5084  2.9864
  262ETHOX   O1 8183   7.539  20.791  13.217  0.1720  0.0036  0.1925
  262ETHOX   C1 8184   7.419  20.860  13.211  0.4003 -0.2510 -0.2215
  262ETHOX  H11 8185   7.352  20.790  13.157  0.2315 -0.0096 -0.3220
  262ETHOX  H13 8186   7.437  20.956  13.157  0.3928  0.0865  0.3592
  262ETHOX   C2 8187   7.352  20.894  13.353 -0.1018 -0.7104  0.6989
  262ETHOX  H21 8188   7.288  20.984  13.341  1.6521  0.7746  2.1136
  262ETHOX  H23 8189   7.425  20.925  13.430 -1.7732  0.8671  1.7341
  263ETHOX   O1 8190   7.264  20.793  13.411  0.0842 -0.0707  0.4718
  263ETHOX   C1 8191   7.339  20.676  13.451  0.2940  0.3463 -0.1873
  263ETHOX  H11 8192   7.399  20.646  13.363  0.8003 -0.3926  0.3929
  263ETHOX  H13 8193   7.258  20.601  13.464  2.8553 -2.6735 -0.5064
  263ETHOX   C2 8194   7.423  20.687  13.578 -0.3572 -0.8958  0.1992
  263ETHOX  H21 8195   7.509  20.758  13.571 -1.2197  0.2702  1.0037
  263ETHOX  H23 8196   7.476  20.590  13.579 -0.3444 -0.9615 -1.8158
  264ETHOX   O1 8197   7.364  20.715  13.704  0.4465 -0.1547  0.3876
  264ETHOX   C1 8198   7.315  20.851  13.708 -0.2111  0.3490  0.2585
  264ETHOX  H11 8199   7.230  20.866  13.638  1.6277  1.8952 -1.8052
  264ETHOX  H13 8200   7.400  20.919  13.685 -1.7330  1.5648 -2.2626
  264ETHOX   C2 8201   7.261  20.866  13.850 -0.2613  1.1359  0.3707
  264ETHOX  H21 8202   7.225  20.970  13.857  0.0218  1.1631  1.6571
  264ETHOX  H23 8203   7.340  20.861  13.927  0.9536 -0.0866 -0.8861
  265ETHOX   O1 8204   7.161  20.762  13.870  0.1493 -0.0492 -0.6332
  265ETHOX   C1 8205   7.157  20.708  14.008 -0.1274 -0.0878 -0.2354
  265ETHOX  H11 8206   7.261  20.679  14.034 -0.4327 -0.0934  1.0647
  265ETHOX  H13 8207   7.139  20.798  14.071 -1.5046 -0.7772  0.4208
  265ETHOX   C2 8208   7.044  20.596  14.033 -0.3635 -0.9732  0.8604
  265ETHOX  H21 8209   6.950  20.653  14.015 -0.3762 -0.3835  2.6528
  265ETHOX  H23 8210   7.035  20.557  14.136  0.5499 -0.2960  1.2090
  265ETHOX   OZ 8211   7.053  20.483  13.942 -0.1505  0.5280 -0.3298
  265ETHOX  HZ1 8212   6.966  20.443  13.948  0.1087  0.0850  0.7988
    1ETHOX   O1 8213  11.510  11.795   8.451  0.0874  0.1447  0.0131
    1ETHOX  HO1 8214  11.552  11.781   8.537  0.7623 -1.9575 -0.5937
    1ETHOX   C1 8215  11.396  11.870   8.493  0.2943  0.2009  1.3179
    1ETHOX  H11 8216  11.316  11.818   8.550  1.2900 -1.3681  1.3349
    1ETHOX  H13 8217  11.342  11.914   8.406 -1.1525 -0.0304  2.0740
    1ETHOX   C2 8218  11.448  11.994   8.571  0.1162 -0.7693 -0.3964
    1ETHOX  H21 8219  11.357  12.052   8.597  1.3153  0.5325  1.1339
    1ETHOX  H23 8220  11.503  12.059   8.501 -2.7565  1.5836 -0.6784
    2ETHOX   O1 8221  11.538  11.973   8.683 -0.0375 -0.0443  0.0858
    2ETHOX   C1 8222  11.569  12.094   8.742 -0.1675 -0.0210 -0.7543
    2ETHOX  H11 8223  11.674  12.084   8.778 -0.3705 -1.0731 -0.4208
    2ETHOX  H13 8224  11.574  12.181   8.673  0.5854  2.8887  2.6673
    2ETHOX   C2 8225  11.471  12.127   8.856 -0.3784  0.4192 -0.6534
    2ETHOX  H21 8226  11.502  12.218   8.911 -0.2998  1.1139 -1.8113
    2ETHOX  H23 8227  11.471  12.040   8.925 -1.2958  0.3877 -0.6749
    3ETHOX   O1 8228  11.339  12.142   8.802 -0.2865 -0.1411  0.0991
    3ETHOX   C1 8229  11.252  12.171   8.918 -0.6599 -0.1104  0.6274
    3ETHOX  H11 8230  11.269  12.280   8.936  2.3178 -0.3430 -0.2046
    3ETHOX  H13 8231  11.285  12.127   9.014 -1.3521  0.1625  0.9952
    3ETHOX   C2 8232  11.103  12.145   8.891  0.1206  0.1188 -0.2314
    3ETHOX  H21 8233  11.070  12.187   8.794 -0.0637  0.2471 -0.1162
    3ETHOX  H23 8234  11.052  12.210   8.966 -0.3259 -1.7610  1.1732
    4ETHOX   O1 8235  11.064  12.006   8.906  0.2044 -0.2902 -0.4887
    4ETHOX   C1 8236  10.928  11.983   8.923 -0.2491  0.3001  0.5055
    4ETHOX  H11 8237  10.879  12.020   8.830  1.1666  0.9498  0.0014
    4ETHOX  H13 8238  10.914  11.873   8.922  0.6365  0.1730 -1.4022
    4ETHOX   C2 8239  10.857  12.040   9.052 -0.2738  0.4111  0.4172
    4ETHOX  H21 8240  10.747  12.035   9.035 -0.2887  0.0174  0.6249
    4ETHOX  H23 8241  10.893  12.145   9.051  2.0093 -0.3085 -0.4816
    5ETHOX   O1 8242  10.907  11.970   9.167 -0.0756 -0.3653 -0.5565
    5ETHOX   C1 8243  10.835  12.009   9.289 -0.1722 -0.2487 -0.5362
    5ETHOX  H11 8244  10.883  11.956   9.374  0.0840 -1.7423 -1.5693
    5ETHOX  H13 8245  10.839  12.115   9.323  0.1594 -0.4727  0.1552
    5ETHOX   C2 8246  10.691  11.951   9.291 -0.1638 -0.0741 -0.2806
    5ETHOX  H21 8247  10.652  11.947   9.395  2.4845  2.6064  0.9469
    5ETHOX  H23 8248  10.688  11.844   9.261 -1.7887 -0.6213  1.5858
    6ETHOX   O1 8249  10.595  12.032   9.217 -0.0717  0.6512 -0.5269
    6ETHOX   C1 8250  10.482  11.961   9.175 -0.4969 -0.0836 -0.2111
    6ETHOX  H11 8251  10.509  11.871   9.117  2.6247  0.7197 -0.2220
    6ETHOX  H13 8252  10.419  11.941   9.264  2.2920  1.3784  2.3108
    6ETHOX   C2 8253  10.398  12.065   9.097  0.3287 -0.3619  0.1317
    6ETHOX  H21 8254  10.355  12.142   9.164 -1.3849 -1.7132  0.6693
    6ETHOX  H23 8255  10.312  12.006   9.059  0.5586  0.1107 -1.1757
    7ETHOX   O1 8256  10.456  12.124   8.976 -0.1405  0.0810  0.6085
    7ETHOX   C1 8257  10.360  12.209   8.911  0.3165 -0.1829 -0.4255
    7ETHOX  H11 8258  10.265  12.153   8.914 -0.3036  0.8751  1.4233
    7ETHOX  H13 8259  10.344  12.306   8.962 -1.4990 -0.4055 -0.5300
    7ETHOX   C2 8260  10.409  12.239   8.770 -0.6874  0.4955  0.1218
    7ETHOX  H21 8261  10.329  12.292   8.714 -1.6475 -1.8999 -0.8703
    7ETHOX  H23 8262  10.438  12.145   8.718 -0.1101  0.0667  1.1866
    8ETHOX   O1 8263  10.531  12.316   8.785  0.5135 -0.9208 -0.4897
    8ETHOX   C1 8264  10.581  12.360   8.664  0.0402 -0.9843  0.2388
    8ETHOX  H11 8265  10.509  12.418   8.604  3.9940  2.1992 -1.9488
    8ETHOX  H13 8266  10.610  12.266   8.612  0.3811  0.5756 -2.5694
    8ETHOX   C2 8267  10.701  12.441   8.697  0.1862 -0.2945  0.9453
    8ETHOX  H21 8268  10.752  12.469   8.602 -0.6327 -0.6723  0.3888
    8ETHOX  H23 8269  10.766  12.374   8.758  1.9152 -0.1246 -0.6193
    9ETHOX   O1 8270  10.666  12.557   8.771 -0.4613 -0.6380  0.4296
    9ETHOX   C1 8271  10.772  12.609   8.853 -0.2373  0.0318 -0.5017
    9ETHOX  H11 8272  10.779  12.548   8.946  0.0529 -0.9592 -1.1506
    9ETHOX  H13 8273  10.869  12.602   8.800  1.1602  0.7793  1.7970
    9ETHOX   C2 8274  10.752  12.752   8.909  0.3867 -0.2166  0.5211
    9ETHOX  H21 8275  10.812  12.756   9.002 -0.7287 -0.4171  1.2797
    9ETHOX  H23 8276  10.645  12.765   8.936  0.2368 -0.0890 -0.1091
   10ETHOX   O1 8277  10.796  12.854   8.814  0.2052  0.4888  0.0757
   10ETHOX   C1 8278  10.825  12.975   8.875 -0.1275 -0.5611 -0.0791
   10ETHOX  H11 8279  10.900  12.964   8.956  1.5316 -2.2386 -1.7544
   10ETHOX  H13 8280  10.732  13.026   8.909 -1.2048 -1.9116 -0.9034
   10ETHOX   C2 8281  10.893  13.078   8.784 -0.9262  0.0946  0.2679
   10ETHOX  H21 8282  10.912  13.174   8.836  1.2022  0.1342 -0.4875
   10ETHOX  H23 8283  10.833  13.115   8.698 -0.5488  1.7842  0.6969
   11ETHOX   O1 8284  11.028  13.033   8.759  0.4316 -0.6945  0.2782
   11ETHOX   C1 8285  11.106  13.123   8.681  0.2400 -0.1615  0.1705
   11ETHOX  H11 8286  11.056  13.139   8.583 -0.6680  1.3267  0.8362
   11ETHOX  H13 8287  11.111  13.217   8.740 -0.5925 -0.1440  0.2233
   11ETHOX   C2 8288  11.247  13.058   8.678 -0.3641  0.1609  0.8819
   11ETHOX  H21 8289  11.318  13.140   8.652  1.1913 -0.9826  1.3337
   11ETHOX  H23 8290  11.263  13.022   8.782  0.1097  1.8507  1.4278
   12ETHOX   O1 8291  11.252  12.956   8.577  0.2399  0.0483  0.3918
   12ETHOX   C1 8292  11.391  12.916   8.543  0.4175 -0.2243  0.5185
   12ETHOX  H11 8293  11.422  12.852   8.629  0.7915  2.2762  2.3553
   12ETHOX  H13 8294  11.454  13.007   8.531  1.2284 -0.9289 -0.8049
   12ETHOX   C2 8295  11.398  12.845   8.413 -0.0238  0.5213  0.3368
   12ETHOX  H21 8296  11.497  12.816   8.371 -1.6127 -2.2375 -1.8293
   12ETHOX  H23 8297  11.357  12.916   8.337 -1.4852 -0.1547  0.4806
   13ETHOX   O1 8298  11.313  12.728   8.417 -0.2412  0.0487  0.0707
   13ETHOX   C1 8299  11.281  12.691   8.285 -0.4488 -0.2642 -0.0766
   13ETHOX  H11 8300  11.206  12.611   8.301 -1.1191  0.0237 -1.5914
   13ETHOX  H13 8301  11.237  12.770   8.221 -0.5045 -2.6217 -3.1634
   13ETHOX   C2 8302  11.405  12.612   8.218  0.0213 -0.2938  0.5174
   13ETHOX  H21 8303  11.369  12.534   8.148 -1.3572  0.1635  0.6913
   13ETHOX  H23 8304  11.464  12.560   8.297 -2.3699 -3.0911  0.6326
   14ETHOX   O1 8305  11.490  12.699   8.147  0.1389  0.1682 -0.1691
   14ETHOX   C1 8306  11.619  12.642   8.110 -0.0659 -0.6820  0.7946
   14ETHOX  H11 8307  11.609  12.550   8.048 -3.3157 -0.0697  0.2110
   14ETHOX  H13 8308  11.681  12.619   8.199  1.4747  1.3866  0.3334
   14ETHOX   C2 8309  11.696  12.753   8.030  0.3946 -0.2308 -1.3549
   14ETHOX  H21 8310  11.802  12.721   8.016  0.3992 -0.4738 -0.8142
   14ETHOX  H23 8311  11.696  12.835   8.105  1.6181 -2.6910  1.5418
   15ETHOX   O1 8312  11.646  12.786   7.903 -0.4451 -0.7373  0.1448
   15ETHOX   C1 8313  11.708  12.900   7.859 -0.2096 -0.0402 -0.2894
   15ETHOX  H11 8314  11.709  12.973   7.943 -1.9008 -0.8233  0.4478
   15ETHOX  H13 8315  11.808  12.857   7.836  0.1414  0.2055  0.7235
   15ETHOX   C2 8316  11.636  12.949   7.734 -0.3149  0.2384  0.1749
   15ETHOX  H21 8317  11.712  12.970   7.655 -0.0568 -1.0134  0.0780
   15ETHOX  H23 8318  11.565  12.871   7.699  0.9118 -1.3537  1.1076
   16ETHOX   O1 8319  11.549  13.059   7.768 -0.9221  0.0421 -0.2422
   16ETHOX   C1 8320  11.475  13.111   7.656  0.1939  0.6483  0.9971
   16ETHOX  H11 8321  11.550  13.139   7.580  0.8524  0.4612  1.5695
   16ETHOX  H13 8322  11.414  13.026   7.619  1.0357 -1.1235  3.4058
   16ETHOX   C2 8323  11.380  13.225   7.679  0.2445 -0.6939  0.9038
   16ETHOX  H21 8324  11.361  13.273   7.581  2.0419  1.2986  1.4459
   16ETHOX  H23 8325  11.431  13.295   7.749 -1.3084 -0.4311  1.8262
   17ETHOX   O1 8326  11.261  13.183   7.743 -0.0073 -0.1174  0.3918
   17ETHOX   C1 8327  11.168  13.289   7.763  0.3166 -0.6119  0.0053
   17ETHOX  H11 8328  11.129  13.258   7.862 -0.3566 -0.0154 -0.0620
   17ETHOX  H13 8329  11.207  13.393   7.771 -3.4742  0.8576  2.4103
   17ETHOX   C2 8330  11.058  13.280   7.660 -0.2066  0.0813 -0.2831
   17ETHOX  H21 8331  10.969  13.336   7.696  0.4082 -0.2926  1.9239
   17ETHOX  H23 8332  11.021  13.178   7.635 -0.0356 -0.0288 -0.0914
   18ETHOX   O1 8333  11.112  13.341   7.540  0.5167 -0.1158  0.1813
   18ETHOX   C1 8334  11.027  13.365   7.433  0.0356 -0.7325 -0.4425
   18ETHOX  H11 8335  10.982  13.266   7.412  0.3778 -0.9821 -0.0223
   18ETHOX  H13 8336  10.953  13.440   7.469  0.7082  0.2375 -1.0196
   18ETHOX   C2 8337  11.093  13.450   7.328  0.4640 -0.1323  0.7004
   18ETHOX  H21 8338  11.180  13.510   7.361  1.2687 -1.4987  1.1353
   18ETHOX  H23 8339  11.013  13.522   7.301  1.0151  0.1485 -0.2100
   19ETHOX   O1 8340  11.134  13.370   7.217  0.1880  0.0595 -0.3522
   19ETHOX   C1 8341  11.168  13.453   7.113  0.1176 -0.5133 -0.7801
   19ETHOX  H11 8342  11.259  13.514   7.133  1.3110 -1.9739 -1.4713
   19ETHOX  H13 8343  11.075  13.506   7.084 -1.9673 -3.0118  0.8385
   19ETHOX   C2 8344  11.191  13.348   7.003  0.4056 -0.1875 -0.1260
   19ETHOX  H21 8345  11.281  13.287   7.024 -0.9331 -1.5806  1.9827
   19ETHOX  H23 8346  11.214  13.416   6.918  1.0945  0.8256  0.8317
   20ETHOX   O1 8347  11.071  13.275   6.968  0.1145 -0.0401  0.3916
   20ETHOX   C1 8348  11.101  13.183   6.864  0.7822  0.4998  1.2985
   20ETHOX  H11 8349  11.008  13.153   6.811  2.6948 -2.1890 -0.8205
   20ETHOX  H13 8350  11.169  13.229   6.789 -1.5556  0.0171 -1.2725
   20ETHOX   C2 8351  11.156  13.051   6.928  0.2605 -0.9383  1.0617
   20ETHOX  H21 8352  11.250  13.066   6.985  0.9028 -2.1435  0.3463
   20ETHOX  H23 8353  11.186  12.984   6.845  0.1700 -1.0352  1.1062
   21ETHOX   O1 8354  11.061  12.975   7.002  0.2293  0.0133  0.2803
   21ETHOX   C1 8355  11.092  12.983   7.144  0.1718  0.2439  0.3631
   21ETHOX  H11 8356  11.115  13.084   7.181 -0.0684  0.0327  1.1007
   21ETHOX  H13 8357  11.184  12.920   7.141  0.7820  1.0756  1.0906
   21ETHOX   C2 8358  10.982  12.928   7.234 -0.2068 -0.4385  0.2104
   21ETHOX  H21 8359  11.028  12.908   7.333 -1.1152 -2.0933  0.3348
   21ETHOX  H23 8360  10.946  12.829   7.200  2.5357 -1.3965 -0.1366
   22ETHOX   O1 8361  10.872  13.025   7.233  0.1423 -0.8942  0.2966
   22ETHOX   C1 8362  10.756  12.975   7.303 -0.0813 -0.6705  0.1883
   22ETHOX  H11 8363  10.672  13.044   7.280 -0.3661 -0.6236  1.3133
   22ETHOX  H13 8364  10.723  12.873   7.274  1.4002 -0.0410 -4.5221
   22ETHOX   C2 8365  10.780  12.987   7.447 -0.7115 -0.0196  0.2403
   22ETHOX  H21 8366  10.807  12.885   7.482 -1.3655  0.3050  1.7983
   22ETHOX  H23 8367  10.870  13.051   7.457  0.2458 -1.4482  1.1242
   23ETHOX   O1 8368  10.681  13.037   7.534 -0.1488 -0.1043 -0.5090
   23ETHOX   C1 8369  10.704  13.011   7.675  0.3786  0.2642  0.1956
   23ETHOX  H11 8370  10.790  13.073   7.708  1.6973 -1.6954  0.6319
   23ETHOX  H13 8371  10.730  12.904   7.687  2.2363  0.7148  0.5068
   23ETHOX   C2 8372  10.578  13.036   7.757  0.3393 -0.1894 -0.0765
   23ETHOX  H21 8373  10.587  13.010   7.865  0.8570  0.2083 -0.0222
   23ETHOX  H23 8374  10.505  12.968   7.708 -2.2181  3.1534 -1.2779
   24ETHOX   O1 8375  10.526  13.164   7.741 -0.7186 -0.1074 -0.2556
   24ETHOX   C1 8376  10.403  13.191   7.805  0.4786  0.1581  0.4191
   24ETHOX  H11 8377  10.343  13.103   7.776  0.7537 -0.7533  2.4535
   24ETHOX  H13 8378  10.412  13.190   7.916  2.6682 -2.5082  0.3265
   24ETHOX   C2 8379  10.342  13.321   7.755 -0.3530 -0.5679  0.0329
   24ETHOX  H21 8380  10.410  13.403   7.786 -1.3890  1.2871 -2.3416
   24ETHOX  H23 8381  10.240  13.334   7.798  0.1467  0.6344  0.9102
   25ETHOX   O1 8382  10.344  13.350   7.616  0.2098 -0.0135 -0.3541
   25ETHOX   C1 8383  10.302  13.483   7.587 -0.0531 -0.0675 -0.3209
   25ETHOX  H11 8384  10.346  13.557   7.658 -1.7652 -0.4645  1.2151
   25ETHOX  H13 8385  10.192  13.469   7.582  0.2147 -2.1047 -2.9598
   25ETHOX   C2 8386  10.333  13.538   7.445  0.5748 -0.6407 -0.0139
   25ETHOX  H21 8387  10.247  13.603   7.418  3.1720  3.0171 -0.1823
   25ETHOX  H23 8388  10.338  13.459   7.367 -0.3213 -0.2205 -0.5153
   26ETHOX   O1 8389  10.456  13.609   7.451  0.0407 -0.2544 -0.3135
   26ETHOX   C1 8390  10.507  13.626   7.322 -0.1082 -0.0822  0.2373
   26ETHOX  H11 8391  10.530  13.529   7.272 -2.0353 -0.3253 -0.2314
   26ETHOX  H13 8392  10.431  13.678   7.261 -0.9974  0.6607  1.9095
   26ETHOX   C2 8393  10.624  13.725   7.309  0.4827  0.0058  0.4036
   26ETHOX  H21 8394  10.582  13.827   7.321  0.1523 -0.3767  3.1182
   26ETHOX  H23 8395  10.663  13.709   7.206  2.3195  0.0405  1.0464
   27ETHOX   O1 8396  10.734  13.696   7.397  0.6749  0.4414 -0.1672
   27ETHOX   C1 8397  10.822  13.799   7.411 -0.1759  0.0897  0.1310
   27ETHOX  H11 8398  10.765  13.893   7.423  2.3134  2.1177 -2.5666
   27ETHOX  H13 8399  10.884  13.828   7.324  0.4037 -0.7393  0.2587
   27ETHOX   C2 8400  10.917  13.765   7.534  0.2301 -0.5333  0.2445
   27ETHOX  H21 8401  10.951  13.863   7.575  3.0439 -1.9378  1.5968
   27ETHOX  H23 8402  11.006  13.709   7.497  1.4200  1.9806 -1.0641
   28ETHOX   O1 8403  10.862  13.691   7.642  0.0866 -0.1578 -0.5879
   28ETHOX   C1 8404  10.970  13.672   7.740  1.0060  0.3203  0.5802
   28ETHOX  H11 8405  11.056  13.611   7.707  1.3928  1.1950 -0.0908
   28ETHOX  H13 8406  11.016  13.769   7.770  0.5633  0.1550  1.8675
   28ETHOX   C2 8407  10.930  13.614   7.877  0.0390  0.3336 -0.2938
   28ETHOX  H21 8408  10.843  13.545   7.873 -0.6536  0.7775  3.4564
   28ETHOX  H23 8409  10.903  13.695   7.949  0.3906  0.7377 -0.6170
   29ETHOX   O1 8410  11.040  13.551   7.937 -0.5940  0.4720  0.2097
   29ETHOX   C1 8411  11.004  13.484   8.058 -1.2912  0.3924  0.0698
   29ETHOX  H11 8412  10.931  13.402   8.044 -0.5407 -0.5809  1.4837
   29ETHOX  H13 8413  10.953  13.559   8.123 -3.0344 -1.0832  0.4749
   29ETHOX   C2 8414  11.135  13.425   8.115  0.2500 -0.6422  0.1055
   29ETHOX  H21 8415  11.191  13.514   8.151 -1.4133  0.4227  0.1940
   29ETHOX  H23 8416  11.195  13.371   8.039  0.4709  0.8511 -0.8247
   30ETHOX   O1 8417  11.115  13.335   8.222 -0.6779  0.0467  0.3347
   30ETHOX   C1 8418  11.225  13.253   8.246 -0.6473  0.3824  0.2002
   30ETHOX  H11 8419  11.184  13.178   8.317 -1.4787 -0.7239 -1.4002
   30ETHOX  H13 8420  11.249  13.197   8.154  3.3226  2.8099 -0.4678
   30ETHOX   C2 8421  11.350  13.330   8.297 -0.5687  0.1018 -0.2825
   30ETHOX  H21 8422  11.403  13.270   8.374 -0.4047  0.4458 -0.1262
   30ETHOX  H23 8423  11.321  13.422   8.352 -0.6184 -0.6097  0.9170
   31ETHOX   O1 8424  11.446  13.366   8.194  0.5564 -0.4227 -0.3472
   31ETHOX   C1 8425  11.470  13.508   8.184 -0.4054  0.5635  0.7360
   31ETHOX  H11 8426  11.382  13.577   8.184  0.4553  1.7328 -1.0939
   31ETHOX  H13 8427  11.539  13.541   8.264  1.9936 -0.4353 -0.8337
   31ETHOX   C2 8428  11.544  13.521   8.050  0.0732  0.3445  0.5414
   31ETHOX  H21 8429  11.578  13.625   8.032 -1.3543  0.9355  1.1867
   31ETHOX  H23 8430  11.471  13.500   7.969  0.0229  2.8686 -0.1442
   32ETHOX   O1 8431  11.653  13.430   8.032 -0.1730 -0.0324 -0.0092
   32ETHOX   C1 8432  11.715  13.460   7.908  0.1116  0.5303  0.2972
   32ETHOX  H11 8433  11.644  13.468   7.823 -1.2112 -0.1806  1.2819
   32ETHOX  H13 8434  11.778  13.551   7.910  3.2437 -1.4853  0.2227
   32ETHOX   C2 8435  11.799  13.332   7.862  0.3600  0.0573  0.5288
   32ETHOX  H21 8436  11.863  13.356   7.775 -0.5981 -2.9283 -1.1127
   32ETHOX  H23 8437  11.734  13.247   7.833 -0.0304 -0.4899  2.7928
   33ETHOX   O1 8438  11.881  13.290   7.973  0.0974  0.3718  0.1566
   33ETHOX   C1 8439  11.976  13.195   7.932  0.3852 -0.1662  0.4869
   33ETHOX  H11 8440  11.921  13.110   7.886 -1.1871  0.7303  0.6322
   33ETHOX  H13 8441  12.035  13.243   7.851  0.6281  0.2706  0.9215
   33ETHOX   C2 8442  12.057  13.124   8.038  1.1470 -0.1763  0.3972
   33ETHOX  H21 8443  11.996  13.058   8.104  2.2079 -1.4992  0.1046
   33ETHOX  H23 8444  12.113  13.202   8.094  0.8322  2.7664 -3.0698
   34ETHOX   O1 8445  12.151  13.034   7.968 -0.2117  0.1460 -0.4947
   34ETHOX   C1 8446  12.239  12.962   8.061  0.1458  0.0947  0.6787
   34ETHOX  H11 8447  12.185  12.916   8.146  1.4718  0.5587  1.8025
   34ETHOX  H13 8448  12.302  13.039   8.110 -0.5696  0.5874  0.8422
   34ETHOX   C2 8449  12.330  12.860   7.992  0.3228  0.8647  0.3021
   34ETHOX  H21 8450  12.386  12.815   8.077 -0.8010 -0.5637  0.3249
   34ETHOX  H23 8451  12.392  12.914   7.918  1.2473  0.2474  0.6139
   35ETHOX   O1 8452  12.264  12.750   7.936 -0.0769 -0.0027 -0.5059
   35ETHOX   C1 8453  12.359  12.652   7.891  0.3172  1.2336  0.4662
   35ETHOX  H11 8454  12.457  12.696   7.863  1.5566 -1.7498 -0.2339
   35ETHOX  H13 8455  12.382  12.587   7.978 -0.4743 -2.0857 -1.6008
   35ETHOX   C2 8456  12.323  12.563   7.768 -0.4539 -0.0733 -0.8124
   35ETHOX  H21 8457  12.420  12.512   7.749 -0.0734 -0.5989  2.0245
   35ETHOX  H23 8458  12.276  12.615   7.682 -1.8711 -0.0332 -0.0508
   36ETHOX   O1 8459  12.230  12.469   7.805 -0.5339 -0.4058  0.4900
   36ETHOX   C1 8460  12.193  12.384   7.695 -0.2178  0.0847  0.5531
   36ETHOX  H11 8461  12.280  12.359   7.630 -1.3841 -2.7228 -0.0818
   36ETHOX  H13 8462  12.126  12.448   7.635  1.4716  1.7981  0.3705
   36ETHOX   C2 8463  12.125  12.250   7.738 -0.4471 -0.7991 -0.7144
   36ETHOX  H21 8464  12.072  12.199   7.654  0.8992 -3.4816 -0.0655
   36ETHOX  H23 8465  12.042  12.271   7.807 -0.4041 -1.3897 -0.4746
   37ETHOX   O1 8466  12.220  12.156   7.791 -0.1415 -0.2887 -0.4923
   37ETHOX   C1 8467  12.155  12.084   7.898 -0.3256  0.1590 -0.2460
   37ETHOX  H11 8468  12.147  12.150   7.987  1.5042 -2.1087  1.7453
   37ETHOX  H13 8469  12.050  12.053   7.874  0.0523 -1.0506 -0.4124
   37ETHOX   C2 8470  12.240  11.962   7.956 -1.0578  0.0951 -0.3120
   37ETHOX  H21 8471  12.184  11.919   8.042 -0.1485 -0.0385  0.2283
   37ETHOX  H23 8472  12.343  11.992   7.983 -1.0480 -0.5431  0.3715
   38ETHOX   O1 8473  12.243  11.871   7.844  0.8087 -0.8453 -0.4581
   38ETHOX   C1 8474  12.307  11.751   7.881 -0.4775  0.3805  0.2721
   38ETHOX  H11 8475  12.418  11.743   7.875 -0.5510  0.0662 -0.8771
   38ETHOX  H13 8476  12.267  11.681   7.805  2.5180 -1.3996  0.1925
   38ETHOX   C2 8477  12.264  11.676   8.017 -0.8424  0.5613 -0.4145
   38ETHOX  H21 8478  12.152  11.677   8.018 -0.8868 -0.4769  1.6713
   38ETHOX  H23 8479  12.298  11.717   8.114 -0.9092  1.3286 -0.7107
   39ETHOX   O1 8480  12.309  11.536   8.014  0.3278  0.2980 -0.5340
   39ETHOX   C1 8481  12.250  11.474   8.125 -0.3174  0.0953 -1.0818
   39ETHOX  H11 8482  12.287  11.509   8.224 -1.3807  0.0103 -0.6491
   39ETHOX  H13 8483  12.140  11.484   8.135 -0.1388  0.6411  0.5955
   39ETHOX   C2 8484  12.289  11.325   8.120  0.9908 -0.2759  0.6223
   39ETHOX  H21 8485  12.291  11.271   8.217  2.1242  0.3254  0.9599
   39ETHOX  H23 8486  12.390  11.311   8.075  0.4109 -0.6812 -0.6319
   40ETHOX   O1 8487  12.208  11.266   8.029  0.0861 -0.3309  0.0305
   40ETHOX   C1 8488  12.242  11.132   7.983 -0.3837 -1.0050 -0.3761
   40ETHOX  H11 8489  12.329  11.145   7.915 -0.4743  2.2762 -0.0298
   40ETHOX  H13 8490  12.160  11.105   7.913 -0.6713  1.1346 -0.9137
   40ETHOX   C2 8491  12.255  11.024   8.089 -0.7159 -0.3846  0.0741
   40ETHOX  H21 8492  12.321  11.062   8.170 -1.7896  0.2837  0.6605
   40ETHOX  H23 8493  12.303  10.946   8.028 -1.5053 -0.4063 -0.5287
   41ETHOX   O1 8494  12.131  10.980   8.150  0.3463 -0.2845 -0.2300
   41ETHOX   C1 8495  12.083  11.076   8.248  0.0552 -0.1029 -0.3199
   41ETHOX  H11 8496  12.062  11.024   8.345 -1.5422  0.2050 -0.4677
   41ETHOX  H13 8497  12.160  11.153   8.265  0.0218 -0.5593  2.3567
   41ETHOX   C2 8498  11.948  11.148   8.204  0.0938 -1.2560 -0.7262
   41ETHOX  H21 8499  11.969  11.181   8.100  3.2494  4.4695  1.2846
   41ETHOX  H23 8500  11.946  11.240   8.266  0.8300  0.7755 -3.5547
   42ETHOX   O1 8501  11.829  11.067   8.230 -0.2151 -0.2505  0.5139
   42ETHOX   C1 8502  11.790  11.069   8.371  0.3451  0.5315  0.5579
   42ETHOX  H11 8503  11.882  11.061   8.433  0.7513 -2.3022 -0.2732
   42ETHOX  H13 8504  11.732  11.155   8.410 -2.9808 -1.5236  0.5259
   42ETHOX   C2 8505  11.712  10.934   8.396  0.1379  0.2261  0.0981
   42ETHOX  H21 8506  11.715  10.914   8.505  0.9357  0.1473  0.0644
   42ETHOX  H23 8507  11.773  10.850   8.356  0.4454  0.9129 -0.9188
   43ETHOX   O1 8508  11.578  10.942   8.338  0.3654 -0.2877 -0.0798
   43ETHOX   C1 8509  11.497  10.837   8.367 -0.1441  0.3346  0.1261
   43ETHOX  H11 8510  11.561  10.758   8.323  1.6983  0.8584  1.7010
   43ETHOX  H13 8511  11.486  10.838   8.478  0.9790  1.8247  0.2420
   43ETHOX   C2 8512  11.369  10.838   8.280 -0.0409  0.6257 -0.1344
   43ETHOX  H21 8513  11.374  10.872   8.175  1.8954 -0.7659 -0.5426
   43ETHOX  H23 8514  11.307  10.914   8.333  2.2696  0.4059  3.2231
   44ETHOX   O1 8515  11.314  10.712   8.301 -0.3685  0.0745 -0.6815
   44ETHOX   C1 8516  11.178  10.721   8.286  0.1128 -0.0346  0.0559
   44ETHOX  H11 8517  11.128  10.795   8.352  0.1185 -0.6973  0.8211
   44ETHOX  H13 8518  11.150  10.746   8.182  0.6078  3.5990  0.6652
   44ETHOX   C2 8519  11.110  10.592   8.326  0.4972  0.3508  0.2299
   44ETHOX  H21 8520  11.180  10.510   8.298 -1.6141 -1.1122 -1.0543
   44ETHOX  H23 8521  11.016  10.584   8.268  0.5866 -0.8003  0.2186
   45ETHOX   O1 8522  11.091  10.586   8.463 -0.3383  0.4349 -1.2227
   45ETHOX   C1 8523  11.021  10.462   8.488  0.9417  0.4075  0.1025
   45ETHOX  H11 8524  11.051  10.386   8.413 -2.4209  1.3455 -2.4457
   45ETHOX  H13 8525  10.913  10.464   8.460  0.9594  0.2270  0.0155
   45ETHOX   C2 8526  11.038  10.413   8.635  0.3826 -0.2188  0.1827
   45ETHOX  H21 8527  11.142  10.382   8.654  0.5567  2.0728  4.0398
   45ETHOX  H23 8528  10.969  10.326   8.643 -0.3850  0.5176  2.0399
   46ETHOX   O1 8529  10.977  10.495   8.733 -0.2680 -0.0687 -1.0131
   46ETHOX   C1 8530  11.008  10.438   8.864 -0.0867  0.5025  0.1099
   46ETHOX  H11 8531  10.919  10.374   8.875 -0.6484  0.6480 -2.7174
   46ETHOX  H13 8532  11.104  10.382   8.853 -0.4592  0.2188 -2.1039
   46ETHOX   C2 8533  11.019  10.540   8.985  0.2572 -0.3479  0.0545
   46ETHOX  H21 8534  11.031  10.476   9.076 -0.2322 -1.0120 -0.3411
   46ETHOX  H23 8535  10.924  10.597   8.994 -0.0750 -0.6582 -1.3494
   47ETHOX   O1 8536  11.116  10.641   8.983 -0.3122 -0.3213 -0.1667
   47ETHOX   C1 8537  11.135  10.709   9.107  0.2082 -0.1061  0.4130
   47ETHOX  H11 8538  11.174  10.634   9.179  1.2598 -0.2184 -0.2497
   47ETHOX  H13 8539  11.038  10.753   9.140  1.2551  1.4239  1.6512
   47ETHOX   C2 8540  11.230  10.834   9.106 -0.3089 -0.0796  0.5278
   47ETHOX  H21 8541  11.214  10.875   9.208 -1.4306 -2.4569  1.4027
   47ETHOX  H23 8542  11.182  10.902   9.033  1.4404  0.8283  0.1836
   48ETHOX   O1 8543  11.370  10.804   9.075 -0.2258 -0.2896  0.6398
   48ETHOX   C1 8544  11.441  10.925   9.077  0.3067 -0.4538 -0.7264
   48ETHOX  H11 8545  11.547  10.903   9.050  0.3009 -0.0434 -1.1083
   48ETHOX  H13 8546  11.403  10.994   8.998 -0.5974 -0.8546 -0.6426
   48ETHOX   C2 8547  11.456  10.993   9.213  0.4050  0.1630 -0.0222
   48ETHOX  H21 8548  11.475  10.917   9.292  1.4786  0.8510  0.4006
   48ETHOX  H23 8549  11.549  11.052   9.203  1.2829 -1.0018  0.9312
   49ETHOX   O1 8550  11.338  11.076   9.238 -0.5969  0.2937  0.4956
   49ETHOX   C1 8551  11.347  11.133   9.361 -0.1665 -0.0096 -0.2422
   49ETHOX  H11 8552  11.436  11.198   9.373 -0.8256  0.6263  1.5089
   49ETHOX  H13 8553  11.339  11.051   9.436 -0.1778 -0.3118 -0.5713
   49ETHOX   C2 8554  11.238  11.236   9.395 -0.3929  0.5033  0.5142
   49ETHOX  H21 8555  11.261  11.284   9.493  1.5616  1.4502 -0.3460
   49ETHOX  H23 8556  11.137  11.189   9.397 -1.0493  1.6985 -1.5937
   50ETHOX   O1 8557  11.230  11.341   9.307  0.8145  0.4548  0.4444
   50ETHOX   C1 8558  11.148  11.449   9.353  0.5289  0.0217  0.5792
   50ETHOX  H11 8559  11.050  11.409   9.388  0.0460  0.0789 -0.6549
   50ETHOX  H13 8560  11.200  11.499   9.437  0.7977  2.7669 -1.0839
   50ETHOX   C2 8561  11.113  11.558   9.251 -0.5999  0.0917  0.2612
   50ETHOX  H21 8562  11.206  11.576   9.192 -0.0657  1.2092  1.4074
   50ETHOX  H23 8563  11.086  11.648   9.309  3.0752  0.7772  1.1898
   51ETHOX   O1 8564  11.009  11.507   9.170  0.1463 -0.0344  0.0845
   51ETHOX   C1 8565  10.960  11.605   9.074  0.7495  0.8736  0.3407
   51ETHOX  H11 8566  11.030  11.614   8.988  2.8124  0.8919  1.9656
   51ETHOX  H13 8567  10.968  11.707   9.115  0.6427  3.0082 -4.3279
   51ETHOX   C2 8568  10.815  11.577   9.022  0.2659  0.2752  0.3232
   51ETHOX  H21 8569  10.760  11.555   9.116  1.5225  0.0060  1.0180
   51ETHOX  H23 8570  10.827  11.487   8.958 -0.2838  0.0818  0.4844
   52ETHOX   O1 8571  10.770  11.687   8.950  0.4080 -0.4019  0.1913
   52ETHOX   C1 8572  10.646  11.662   8.890  0.7195  0.4416 -0.1082
   52ETHOX  H11 8573  10.652  11.556   8.858 -0.6077 -0.2084  1.6133
   52ETHOX  H13 8574  10.574  11.664   8.976  0.5131 -0.6188 -0.2442
   52ETHOX   C2 8575  10.611  11.758   8.789  0.2005  0.5273  0.2469
   52ETHOX  H21 8576  10.627  11.858   8.835  0.7393  0.3507  0.4514
   52ETHOX  H23 8577  10.502  11.752   8.773 -0.1437  2.9740  1.2465
   53ETHOX   O1 8578  10.684  11.742   8.666  0.3163  0.2327 -0.5582
   53ETHOX   C1 8579  10.632  11.841   8.580  0.0743 -0.2392 -0.3172
   53ETHOX  H11 8580  10.523  11.838   8.562  0.0064  0.1086  0.0308
   53ETHOX  H13 8581  10.662  11.936   8.628  3.8424 -0.9377 -0.9376
   53ETHOX   C2 8582  10.707  11.830   8.451  0.0192  0.2890  0.0258
   53ETHOX  H21 8583  10.814  11.822   8.483  0.4267 -0.7183 -1.5060
   53ETHOX  H23 8584  10.689  11.927   8.400 -0.3830  1.5337  2.3891
   54ETHOX   O1 8585  10.669  11.729   8.361 -0.0439 -0.3601  0.1882
   54ETHOX   C1 8586  10.744  11.736   8.241 -0.7659  0.0274 -0.1281
   54ETHOX  H11 8587  10.746  11.841   8.205 -2.2757 -0.4373 -1.6831
   54ETHOX  H13 8588  10.845  11.695   8.260 -1.4217 -1.7706 -0.2905
   54ETHOX   C2 8589  10.683  11.644   8.127  0.0091 -0.6364  0.3906
   54ETHOX  H21 8590  10.669  11.538   8.158  0.2129 -1.3041 -1.6858
   54ETHOX  H23 8591  10.749  11.648   8.038 -0.4273  0.7034  0.1078
   55ETHOX   O1 8592  10.553  11.691   8.090 -0.0833  0.5885  0.5060
   55ETHOX   C1 8593  10.515  11.632   7.964 -0.2790 -0.4131  0.5519
   55ETHOX  H11 8594  10.607  11.615   7.905  0.4983 -1.6439  2.0369
   55ETHOX  H13 8595  10.456  11.538   7.975 -2.7183  0.8889 -0.4899
   55ETHOX   C2 8596  10.422  11.724   7.886  1.4079 -0.6583  0.2650
   55ETHOX  H21 8597  10.435  11.832   7.910 -0.1002 -0.8843  2.4391
   55ETHOX  H23 8598  10.437  11.717   7.776 -0.0901 -1.0206  0.0615
   56ETHOX   O1 8599  10.288  11.693   7.922 -0.1733  0.6097  0.1226
   56ETHOX   C1 8600  10.201  11.748   7.824 -0.5811  0.6587 -0.1427
   56ETHOX  H11 8601  10.184  11.688   7.733 -1.7863 -0.3615  0.7182
   56ETHOX  H13 8602  10.245  11.844   7.789 -1.2365  0.7668 -0.6850
   56ETHOX   C2 8603  10.066  11.784   7.898 -0.4899  0.1747  0.0704
   56ETHOX  H21 8604  10.010  11.860   7.839 -1.5796 -0.7905 -0.1765
   56ETHOX  H23 8605  10.085  11.828   7.998  0.9594  0.6875 -0.3985
   57ETHOX   O1 8606   9.979  11.674   7.917  0.1640 -0.0682  0.6303
   57ETHOX   C1 8607   9.881  11.654   7.805 -0.9925  0.2892 -0.4728
   57ETHOX  H11 8608   9.820  11.747   7.800  1.0329  1.8691  1.9209
   57ETHOX  H13 8609   9.925  11.644   7.703 -1.0587 -3.1703 -0.2787
   57ETHOX   C2 8610   9.802  11.534   7.834  0.2225  0.9020 -1.4174
   57ETHOX  H21 8611   9.729  11.527   7.750 -1.3400 -0.2018 -0.0234
   57ETHOX  H23 8612   9.745  11.537   7.930  0.5734  0.8741 -1.2087
   58ETHOX   O1 8613   9.892  11.418   7.834  1.0535  0.6566 -0.0800
   58ETHOX   C1 8614   9.826  11.293   7.867  0.6599 -0.7508 -0.6255
   58ETHOX  H11 8615   9.730  11.301   7.812  0.1960  0.4009  0.3192
   58ETHOX  H13 8616   9.803  11.280   7.975  0.3714 -0.7365 -0.6842
   58ETHOX   C2 8617   9.913  11.176   7.816 -0.2151  0.2426 -0.4741
   58ETHOX  H21 8618   9.951  11.194   7.713 -1.2590 -0.8267 -1.0716
   58ETHOX  H23 8619   9.852  11.083   7.818 -0.7567  0.6107  0.5481
   59ETHOX   O1 8620  10.020  11.163   7.905 -0.4005  0.2254  0.5182
   59ETHOX   C1 8621  10.120  11.090   7.831  0.1806 -0.3959  0.0138
   59ETHOX  H11 8622  10.074  11.005   7.777  0.2823 -0.5158  0.1183
   59ETHOX  H13 8623  10.170  11.149   7.751 -0.0507  2.0134  1.5405
   59ETHOX   C2 8624  10.225  11.038   7.926  0.6128  0.1997  0.6640
   59ETHOX  H21 8625  10.308  10.992   7.869  0.9125  2.0003 -0.4269
   59ETHOX  H23 8626  10.174  10.965   7.994  1.3744 -0.2650  0.7468
   60ETHOX   O1 8627  10.286  11.145   8.001 -0.0597  0.4628 -0.1118
   60ETHOX   C1 8628  10.257  11.139   8.145  0.1878 -0.1238  0.5995
   60ETHOX  H11 8629  10.266  11.041   8.197 -0.6283  0.8318  2.6808
   60ETHOX  H13 8630  10.154  11.173   8.167  0.7341  2.5514 -0.5867
   60ETHOX   C2 8631  10.338  11.242   8.223  0.7653  0.6336  0.1602
   60ETHOX  H21 8632  10.289  11.250   8.322  1.2744  1.8027  0.3270
   60ETHOX  H23 8633  10.352  11.337   8.167 -0.1010 -0.3819 -1.8871
   61ETHOX   O1 8634  10.462  11.184   8.248  0.5483  0.3235  0.1260
   61ETHOX   C1 8635  10.559  11.284   8.273 -0.3053 -0.1724 -0.4923
   61ETHOX  H11 8636  10.587  11.334   8.178  1.8859 -0.8190 -0.2413
   61ETHOX  H13 8637  10.515  11.359   8.343  4.0690  2.6041 -0.3369
   61ETHOX   C2 8638  10.681  11.226   8.333  0.1189  0.2436 -0.0196
   61ETHOX  H21 8639  10.741  11.166   8.261 -1.1217 -1.9213  0.6571
   61ETHOX  H23 8640  10.647  11.154   8.410 -2.7498  0.4708 -0.9555
   62ETHOX   O1 8641  10.741  11.329   8.405  0.2194 -0.2701 -0.4305
   62ETHOX   C1 8642  10.858  11.380   8.336 -0.5019  0.1633 -0.5419
   62ETHOX  H11 8643  10.880  11.475   8.388 -1.7150  1.7532 -2.7431
   62ETHOX  H13 8644  10.831  11.412   8.232  1.9908 -0.2232 -1.3850
   62ETHOX   C2 8645  10.976  11.282   8.337 -0.0712 -0.1936  0.2331
   62ETHOX  H21 8646  11.048  11.325   8.265 -1.8369 -1.2253 -2.2789
   62ETHOX  H23 8647  10.945  11.187   8.288  3.1871  0.5258 -3.7350
   63ETHOX   O1 8648  11.022  11.264   8.473  0.6742 -0.1600  0.2639
   63ETHOX   C1 8649  11.124  11.168   8.478  0.6763  0.0218  0.1158
   63ETHOX  H11 8650  11.075  11.078   8.436 -1.0818  2.0628 -2.4657
   63ETHOX  H13 8651  11.205  11.183   8.403 -0.3286 -1.4830 -1.3315
   63ETHOX   C2 8652  11.178  11.151   8.624  0.6002 -0.9695 -0.6892
   63ETHOX  H21 8653  11.245  11.063   8.617 -0.6861 -2.1587  1.2081
   63ETHOX  H23 8654  11.095  11.123   8.692  1.3571 -1.5806  0.0065
   64ETHOX   O1 8655  11.249  11.270   8.663 -0.6659  0.2827 -0.1941
   64ETHOX   C1 8656  11.281  11.267   8.806  0.1145 -0.8858 -0.4623
   64ETHOX  H11 8657  11.356  11.347   8.826 -0.6814 -0.1866 -0.2391
   64ETHOX  H13 8658  11.323  11.168   8.834 -0.6795 -1.2602 -0.5996
   64ETHOX   C2 8659  11.169  11.293   8.920 -0.0149 -0.6236 -0.2643
   64ETHOX  H21 8660  11.124  11.394   8.905  0.0942 -0.5844 -0.3358
   64ETHOX  H23 8661  11.231  11.308   9.011  2.4027  0.3126 -1.9342
   65ETHOX   O1 8662  11.071  11.191   8.939 -0.1801 -0.0334 -0.3106
   65ETHOX   C1 8663  10.990  11.219   9.050  0.2627 -0.4381  0.6437
   65ETHOX  H11 8664  11.043  11.261   9.138  0.2819  3.3603 -0.9752
   65ETHOX  H13 8665  10.916  11.295   9.016  0.4614 -1.8256 -3.4220
   65ETHOX   C2 8666  10.916  11.095   9.094 -0.1077  1.0402  0.4038
   65ETHOX  H21 8667  10.864  11.116   9.190  2.2386 -1.4737  2.4090
   65ETHOX  H23 8668  10.988  11.012   9.113 -1.6088 -0.9525 -1.9983
   66ETHOX   O1 8669  10.831  11.042   8.990  0.6874  0.3263 -0.0778
   66ETHOX   C1 8670  10.761  10.919   9.027 -0.5995 -0.4044  0.0241
   66ETHOX  H11 8671  10.691  10.934   9.112 -0.8174  1.2447 -0.4121
   66ETHOX  H13 8672  10.831  10.842   9.067 -2.1973 -0.3364  3.3465
   66ETHOX   C2 8673  10.675  10.863   8.914 -0.3253  0.4922 -0.0551
   66ETHOX  H21 8674  10.619  10.947   8.867  1.4888  1.1140 -1.2186
   66ETHOX  H23 8675  10.609  10.787   8.960 -0.4172  0.7326  0.2135
   67ETHOX   O1 8676  10.735  10.796   8.798 -0.1397  0.0995  0.0671
   67ETHOX   C1 8677  10.823  10.883   8.726  0.3887  0.5842  0.4217
   67ETHOX  H11 8678  10.781  10.985   8.714  0.4303  0.4775 -0.7680
   67ETHOX  H13 8679  10.919  10.887   8.781  0.3341  0.6089  0.5159
   67ETHOX   C2 8680  10.861  10.817   8.588  0.2193  0.7524  0.2868
   67ETHOX  H21 8681  10.882  10.709   8.602 -0.0558  0.4649 -1.3075
   67ETHOX  H23 8682  10.955  10.861   8.548  0.1205 -0.4269 -1.3134
   68ETHOX   O1 8683  10.753  10.827   8.495 -0.2948  0.1377  0.1670
   68ETHOX   C1 8684  10.795  10.781   8.363 -0.0954 -0.2402  0.3436
   68ETHOX  H11 8685  10.891  10.834   8.341 -0.6491  1.1347  1.1090
   68ETHOX  H13 8686  10.805  10.671   8.351  3.0398  0.1679 -2.4118
   68ETHOX   C2 8687  10.694  10.824   8.257  0.6585 -0.6465  0.1735
   68ETHOX  H21 8688  10.735  10.808   8.155  0.0106 -0.8995 -0.0575
   68ETHOX  H23 8689  10.676  10.932   8.274  0.6051 -0.6255 -0.0158
   69ETHOX   O1 8690  10.576  10.754   8.278 -0.0599 -0.1256  1.2296
   69ETHOX   C1 8691  10.471  10.817   8.215 -0.0422  0.4982  1.3122
   69ETHOX  H11 8692  10.448  10.901   8.285 -2.5795 -0.1174  1.3102
   69ETHOX  H13 8693  10.499  10.876   8.125 -0.1982 -0.6529  0.4900
   69ETHOX   C2 8694  10.338  10.734   8.222 -0.6984  0.3499 -0.4941
   69ETHOX  H21 8695  10.345  10.643   8.158 -2.7139 -0.0939 -0.1581
   69ETHOX  H23 8696  10.257  10.788   8.168 -2.5871 -1.7894  0.0117
   70ETHOX   O1 8697  10.307  10.700   8.358 -0.2339 -0.3159 -0.3533
   70ETHOX   C1 8698  10.200  10.600   8.370  0.2714 -0.0781 -0.1340
   70ETHOX  H11 8699  10.114  10.635   8.309 -0.1351 -2.0315 -0.7590
   70ETHOX  H13 8700  10.244  10.503   8.337 -1.9485 -1.2176  0.0167
   70ETHOX   C2 8701  10.149  10.574   8.513 -0.7869  0.2741 -0.0285
   70ETHOX  H21 8702  10.081  10.654   8.549  0.8632  2.6370 -1.8916
   70ETHOX  H23 8703  10.236  10.572   8.582  0.7000 -0.3781 -1.8521
   71ETHOX   O1 8704  10.055  10.462   8.528  0.0706 -0.0282  0.3365
   71ETHOX   C1 8705  10.025  10.445   8.667 -0.5397 -0.9888  0.3781
   71ETHOX  H11 8706   9.977  10.533   8.715 -0.3184 -1.7164  1.9844
   71ETHOX  H13 8707  10.120  10.434   8.722 -0.1532  0.2429 -0.0088
   71ETHOX   C2 8708   9.940  10.324   8.692  0.1656 -0.7450  0.1482
   71ETHOX  H21 8709   9.845  10.339   8.636  1.7100  2.6497 -1.8988
   71ETHOX  H23 8710   9.923  10.323   8.801  1.3612  1.4926  0.3989
   72ETHOX   O1 8711  10.002  10.204   8.647  0.2705  0.4736 -0.4565
   72ETHOX   C1 8712   9.945  10.086   8.705  0.0537  0.2780  0.3225
   72ETHOX  H11 8713   9.977  10.084   8.812  0.9097 -0.5889  0.0630
   72ETHOX  H13 8714   9.835  10.097   8.692  0.2837  2.5511 -0.1689
   72ETHOX   C2 8715   9.994   9.954   8.634  0.6495  0.3598  0.7072
   72ETHOX  H21 8716   9.935   9.867   8.669 -3.1043  0.6213 -3.9190
   72ETHOX  H23 8717  10.104   9.938   8.642  0.9285  1.0866 -1.2096
   73ETHOX   O1 8718   9.972   9.966   8.496  0.4845  0.1589 -0.2426
   73ETHOX   C1 8719  10.035   9.863   8.428  0.1868 -0.5595  0.6446
   73ETHOX  H11 8720  10.002   9.763   8.463  1.3526 -0.6616  1.4790
   73ETHOX  H13 8721  10.145   9.873   8.440  0.3628 -1.1434 -0.3346
   73ETHOX   C2 8722   9.996   9.870   8.275  0.0920 -0.7741 -0.4590
   73ETHOX  H21 8723  10.057   9.794   8.220 -0.5975 -1.4374 -0.3115
   73ETHOX  H23 8724  10.015   9.974   8.238 -0.8398 -0.8003 -1.0254
   74ETHOX   O1 8725   9.867   9.829   8.238 -0.0776 -0.1895 -0.4273
   74ETHOX   C1 8726   9.828   9.874   8.107 -0.0336 -0.4662  0.4983
   74ETHOX  H11 8727   9.815   9.984   8.106 -0.1529 -0.4793  0.6473
   74ETHOX  H13 8728   9.914   9.855   8.040 -1.3321  0.4681 -1.5190
   74ETHOX   C2 8729   9.695   9.805   8.064  0.0150  0.1034  0.4455
   74ETHOX  H21 8730   9.660   9.833   7.963  0.0487 -3.3431 -0.6705
   74ETHOX  H23 8731   9.618   9.819   8.143 -1.4691 -1.0843 -0.7139
   75ETHOX   O1 8732   9.700   9.663   8.062  0.0112 -0.3757 -0.1015
   75ETHOX   C1 8733   9.803   9.615   7.984 -1.0642  0.4601  0.9601
   75ETHOX  H11 8734   9.905   9.655   8.006 -0.8619  0.4880  0.0326
   75ETHOX  H13 8735   9.785   9.656   7.882  1.7431  0.2656  0.2814
   75ETHOX   C2 8736   9.816   9.461   7.963  0.4497  0.1649  0.1803
   75ETHOX  H21 8737   9.889   9.439   7.883  1.2241 -1.1306  1.1928
   75ETHOX  H23 8738   9.721   9.415   7.929  0.0961  0.3585  0.8679
   76ETHOX   O1 8739   9.853   9.393   8.082  0.1737  0.1128 -0.5922
   76ETHOX   C1 8740   9.993   9.391   8.106  0.1916  0.9609 -0.4453
   76ETHOX  H11 8741  10.030   9.315   8.034  1.1359 -0.6337  1.6284
   76ETHOX  H13 8742  10.037   9.492   8.090  0.8093  0.6701 -0.6109
   76ETHOX   C2 8743  10.035   9.339   8.240 -0.6358 -0.1516 -0.9783
   76ETHOX  H21 8744  10.145   9.328   8.228 -0.5878 -1.5857  0.4034
   76ETHOX  H23 8745   9.994   9.236   8.253 -0.0478 -0.2057  0.6895
   77ETHOX   O1 8746  10.008   9.426   8.349  0.3203  0.0123  0.4413
   77ETHOX   C1 8747  10.007   9.347   8.465 -0.1711  0.0856 -0.6611
   77ETHOX  H11 8748  10.100   9.288   8.478 -0.7108 -0.8062 -0.7163
   77ETHOX  H13 8749   9.918   9.280   8.464 -0.5193  0.5449 -0.8171
   77ETHOX   C2 8750   9.994   9.424   8.599  0.1953  0.3670  0.1836
   77ETHOX  H21 8751   9.976   9.348   8.678 -1.5528 -0.9958 -1.4601
   77ETHOX  H23 8752   9.916   9.503   8.603 -1.2706 -0.8387 -2.3198
   78ETHOX   O1 8753  10.121   9.493   8.623  0.0314  0.5490 -0.2006
   78ETHOX   C1 8754  10.125   9.545   8.755  0.5857  0.5168  0.1758
   78ETHOX  H11 8755  10.040   9.615   8.767  0.9304  0.5050  4.0560
   78ETHOX  H13 8756  10.100   9.465   8.827  0.9035  0.9719  0.7997
   78ETHOX   C2 8757  10.253   9.617   8.786  0.8528  0.4393 -0.6769
   78ETHOX  H21 8758  10.334   9.544   8.769  0.7423  0.3517 -0.8240
   78ETHOX  H23 8759  10.250   9.652   8.892 -0.2674 -1.9352  0.1366
   79ETHOX   O1 8760  10.277   9.717   8.699  0.3436  0.4320 -0.4041
   79ETHOX   C1 8761  10.383   9.793   8.753  0.5447 -0.5340  0.5426
   79ETHOX  H11 8762  10.348   9.869   8.826  2.6322  1.2420 -0.2089
   79ETHOX  H13 8763  10.451   9.742   8.824 -0.4432  1.5435  3.1515
   79ETHOX   C2 8764  10.456   9.876   8.640 -0.0805  0.4249 -0.0814
   79ETHOX  H21 8765  10.388   9.945   8.587 -1.7270 -1.7198 -0.9030
   79ETHOX  H23 8766  10.498   9.797   8.574 -0.0790  0.9404 -0.7063
   80ETHOX   O1 8767  10.576   9.944   8.688  0.2445 -0.4302  0.7642
   80ETHOX   C1 8768  10.626  10.029   8.591  0.2107 -0.1664 -0.8243
   80ETHOX  H11 8769  10.674   9.964   8.516  0.1375 -2.2342  0.8156
   80ETHOX  H13 8770  10.539  10.075   8.539  2.0689  3.9881 -0.6550
   80ETHOX   C2 8771  10.712  10.148   8.639 -0.2319 -0.6744  0.4862
   80ETHOX  H21 8772  10.659  10.202   8.720 -1.1215 -1.9815  0.8106
   80ETHOX  H23 8773  10.729  10.212   8.550  0.9235  0.1372  1.2616
   81ETHOX   O1 8774  10.846  10.115   8.678  0.1733 -0.0152  0.2052
   81ETHOX   C1 8775  10.844  10.047   8.801 -0.0049 -0.1682 -0.4954
   81ETHOX  H11 8776  10.812  10.110   8.887  1.1904  0.0732 -0.2064
   81ETHOX  H13 8777  10.787   9.953   8.786 -0.7761  0.1850  0.1723
   81ETHOX   C2 8778  10.991   9.992   8.809  0.4440 -0.6141 -0.1403
   81ETHOX  H21 8779  10.988   9.925   8.898  0.8842 -1.5544 -0.8279
   81ETHOX  H23 8780  11.020   9.934   8.719  2.0007 -0.8046  0.4636
   82ETHOX   O1 8781  11.081  10.101   8.831 -0.2183  0.1888  0.2712
   82ETHOX   C1 8782  11.218  10.060   8.833  0.4930  0.3259  0.3105
   82ETHOX  H11 8783  11.250  10.017   8.735  0.0631 -1.7319  1.0172
   82ETHOX  H13 8784  11.237   9.979   8.907  0.2388  1.9584  2.2456
   82ETHOX   C2 8785  11.309  10.170   8.875 -0.8205  0.2191  0.8416
   82ETHOX  H21 8786  11.416  10.160   8.902 -1.3142  0.8474  3.2614
   82ETHOX  H23 8787  11.258  10.203   8.968 -0.6812 -3.8787  2.5714
   83ETHOX   O1 8788  11.312  10.274   8.788  0.3093 -0.7643 -0.1112
   83ETHOX   C1 8789  11.384  10.392   8.823 -0.1606 -0.8263  0.1454
   83ETHOX  H11 8790  11.331  10.440   8.908 -0.1399 -1.0605  0.2915
   83ETHOX  H13 8791  11.489  10.373   8.855  0.8809  0.9860 -1.9258
   83ETHOX   C2 8792  11.391  10.483   8.700  0.7213 -0.8351 -0.0430
   83ETHOX  H21 8793  11.447  10.575   8.724 -0.5469  0.0326 -0.2975
   83ETHOX  H23 8794  11.288  10.510   8.667  1.1856  1.2022  0.0866
   84ETHOX   O1 8795  11.475  10.423   8.605 -0.3202 -0.1774  0.2999
   84ETHOX   C1 8796  11.467  10.480   8.478  0.0624 -0.2871 -0.4352
   84ETHOX  H11 8797  11.435  10.586   8.481 -2.7162 -0.9537 -2.3847
   84ETHOX  H13 8798  11.392  10.426   8.416 -0.0854  0.4412 -0.8940
   84ETHOX   C2 8799  11.608  10.475   8.414  0.1212  1.0311  0.7285
   84ETHOX  H21 8800  11.590  10.492   8.306 -0.2135 -0.0455  0.6108
   84ETHOX  H23 8801  11.643  10.370   8.411  2.0753  1.6500 -0.5912
   85ETHOX   O1 8802  11.699  10.571   8.462 -0.0760 -0.3243  0.1973
   85ETHOX   C1 8803  11.760  10.537   8.590  0.2542  0.0136 -0.4778
   85ETHOX  H11 8804  11.685  10.564   8.668  0.7947 -1.3752  0.5493
   85ETHOX  H13 8805  11.788  10.431   8.607  1.0745  0.6406  2.7937
   85ETHOX   C2 8806  11.898  10.603   8.593 -0.3957  0.3228 -0.2735
   85ETHOX  H21 8807  11.900  10.713   8.583 -0.5243  0.8158  3.5981
   85ETHOX  H23 8808  11.973  10.564   8.522  0.4141 -0.3994  0.9335
   86ETHOX   O1 8809  11.942  10.592   8.721  0.7723  0.1898  0.4885
   86ETHOX   C1 8810  12.079  10.628   8.745  0.5207 -0.0596 -0.0296
   86ETHOX  H11 8811  12.093  10.735   8.721  0.9754 -0.3640 -1.1853
   86ETHOX  H13 8812  12.149  10.572   8.680  2.0005 -0.4647  1.8341
   86ETHOX   C2 8813  12.112  10.597   8.891 -0.1171  0.4058  0.1911
   86ETHOX  H21 8814  12.102  10.487   8.903 -2.0714  0.2895 -1.7665
   86ETHOX  H23 8815  12.033  10.649   8.949  2.0236  3.2291  0.8260
   87ETHOX   O1 8816  12.234  10.647   8.937  0.2739  0.1139  0.0398
   87ETHOX   C1 8817  12.229  10.786   8.961  0.1216 -0.4905 -0.1668
   87ETHOX  H11 8818  12.183  10.843   8.877  0.6798 -1.4684 -1.1514
   87ETHOX  H13 8819  12.182  10.806   9.060  0.2760  0.4877 -0.2767
   87ETHOX   C2 8820  12.372  10.843   8.968 -0.2861 -0.6294  0.5084
   87ETHOX  H21 8821  12.446  10.779   9.020  2.5723  1.4494 -0.7704
   87ETHOX  H23 8822  12.364  10.937   9.028  1.9194  0.6586 -1.0940
   88ETHOX   O1 8823  12.428  10.876   8.841  0.5931  0.2504 -0.6426
   88ETHOX   C1 8824  12.568  10.887   8.838  0.1058 -0.9419  0.3925
   88ETHOX  H11 8825  12.612  10.797   8.885  2.2960 -1.0489 -1.6615
   88ETHOX  H13 8826  12.602  10.973   8.901 -0.2269  1.1644 -2.1218
   88ETHOX   C2 8827  12.640  10.906   8.704  0.0560 -0.4674  0.4618
   88ETHOX  H21 8828  12.749  10.913   8.724 -0.1183 -0.8655  1.6435
   88ETHOX  H23 8829  12.594  10.992   8.650 -1.4577 -2.1060 -1.0176
   89ETHOX   O1 8830  12.632  10.791   8.626  0.0766 -0.3501 -0.0268
   89ETHOX   C1 8831  12.677  10.817   8.495  0.3471  0.6103 -0.0422
   89ETHOX  H11 8832  12.597  10.792   8.423  1.0703  0.4101 -0.7845
   89ETHOX  H13 8833  12.716  10.920   8.482  0.7954  0.5702  0.8631
   89ETHOX   C2 8834  12.798  10.731   8.456 -0.1085  0.2682 -0.0228
   89ETHOX  H21 8835  12.804  10.730   8.345  0.0718  0.7009 -0.0189
   89ETHOX  H23 8836  12.783  10.631   8.502 -1.4359  0.7821  0.7295
   90ETHOX   O1 8837  12.923  10.779   8.499  0.3719  0.2822 -0.5596
   90ETHOX   C1 8838  13.030  10.715   8.431  0.2574 -0.6574  0.5105
   90ETHOX  H11 8839  13.011  10.605   8.433 -1.9768 -0.4255 -1.8527
   90ETHOX  H13 8840  13.030  10.747   8.324 -1.2450 -0.6565  0.4839
   90ETHOX   C2 8841  13.161  10.754   8.491 -0.4483 -0.4225  0.3908
   90ETHOX  H21 8842  13.241  10.688   8.451 -1.3116 -1.8440  0.9439
   90ETHOX  H23 8843  13.166  10.744   8.601  2.3140  0.1606  0.3951
   91ETHOX   O1 8844  13.196  10.892   8.456  0.2836  0.0463  0.0884
   91ETHOX   C1 8845  13.299  10.943   8.535 -0.1712 -0.3496  0.8305
   91ETHOX  H11 8846  13.255  10.932   8.637 -5.0977 -0.1751 -0.9934
   91ETHOX  H13 8847  13.386  10.875   8.523  0.0375  0.0225  0.2115
   91ETHOX   C2 8848  13.330  11.091   8.499  0.5944 -0.0439  0.0650
   91ETHOX  H21 8849  13.337  11.108   8.390 -1.7780  1.1027  0.0258
   91ETHOX  H23 8850  13.420  11.118   8.558 -0.8254  2.8169  1.1162
   92ETHOX   O1 8851  13.234  11.180   8.547  1.1794 -0.4995 -0.4143
   92ETHOX   C1 8852  13.262  11.321   8.533 -0.4239  0.0668 -0.1914
   92ETHOX  H11 8853  13.360  11.340   8.582 -0.6939  1.4228 -0.1246
   92ETHOX  H13 8854  13.270  11.321   8.422 -2.5967  0.1839 -0.3773
   92ETHOX   C2 8855  13.146  11.394   8.592  0.6462  0.0128 -0.3582
   92ETHOX  H21 8856  13.168  11.497   8.627 -1.5800  0.5304 -0.3391
   92ETHOX  H23 8857  13.118  11.335   8.682 -0.3085  0.8352 -0.1071
   93ETHOX   O1 8858  13.034  11.408   8.502  0.0921  0.5272  0.7557
   93ETHOX   C1 8859  12.908  11.409   8.559 -0.2816  0.3525  0.4845
   93ETHOX  H11 8860  12.888  11.498   8.622 -0.9798 -0.9310  2.1654
   93ETHOX  H13 8861  12.909  11.318   8.623  0.9300 -0.0133 -0.0270
   93ETHOX   C2 8862  12.805  11.379   8.450 -0.3083 -0.4349 -0.4121
   93ETHOX  H21 8863  12.707  11.389   8.502 -0.4090  0.4898 -0.7548
   93ETHOX  H23 8864  12.808  11.277   8.407 -0.3475  0.0584 -1.6273
   94ETHOX   O1 8865  12.821  11.480   8.346 -0.6087  0.8135 -0.0033
   94ETHOX   C1 8866  12.733  11.436   8.242 -0.3474 -0.7457 -0.2687
   94ETHOX  H11 8867  12.764  11.340   8.196  0.8323  0.0948 -1.2920
   94ETHOX  H13 8868  12.633  11.418   8.285 -0.9319  0.0024 -1.2662
   94ETHOX   C2 8869  12.715  11.541   8.130 -0.1852 -0.6698  0.0150
   94ETHOX  H21 8870  12.631  11.506   8.066  0.2512  0.1918 -1.0566
   94ETHOX  H23 8871  12.806  11.541   8.066 -2.0920 -1.0577 -2.8917
   95ETHOX   O1 8872  12.695  11.678   8.162 -0.0429  0.4516  0.1679
   95ETHOX   C1 8873  12.639  11.751   8.052 -0.0196 -0.8702 -0.1061
   95ETHOX  H11 8874  12.538  11.713   8.026 -0.2944  0.2526 -0.7516
   95ETHOX  H13 8875  12.718  11.743   7.975 -1.1202 -1.8971 -1.1623
   95ETHOX   C2 8876  12.613  11.897   8.093  0.2851  0.5580 -0.4129
   95ETHOX  H21 8877  12.585  11.963   8.008  0.9165  3.1934  1.3101
   95ETHOX  H23 8878  12.703  11.944   8.140 -1.4001  3.8090 -0.1162
   96ETHOX   O1 8879  12.520  11.900   8.198  0.4775 -0.5182  0.0725
   96ETHOX   C1 8880  12.494  12.034   8.226  0.6320  0.4243 -0.2168
   96ETHOX  H11 8881  12.578  12.084   8.279  1.7974 -0.0187 -1.5804
   96ETHOX  H13 8882  12.456  12.089   8.138  1.1936  1.2228  0.0225
   96ETHOX   C2 8883  12.370  12.035   8.319 -0.1727 -0.1199 -0.0153
   96ETHOX  H21 8884  12.365  12.139   8.357 -2.2522  0.0680 -0.6590
   96ETHOX  H23 8885  12.395  11.967   8.403 -1.4521 -0.9936 -0.3028
   97ETHOX   O1 8886  12.254  11.994   8.256 -0.0540  0.8468 -0.3155
   97ETHOX   C1 8887  12.135  12.002   8.339 -0.2475  1.0322 -0.3369
   97ETHOX  H11 8888  12.103  12.107   8.358 -0.7661  1.1089 -1.5305
   97ETHOX  H13 8889  12.160  11.956   8.437  1.1782 -0.7146 -1.4483
   97ETHOX   C2 8890  12.016  11.929   8.276  0.2089 -0.4476 -0.0511
   97ETHOX  H21 8891  11.952  11.904   8.362  0.1102 -0.4289 -0.1191
   97ETHOX  H23 8892  12.037  11.831   8.228 -1.6612 -0.7940 -0.2320
   98ETHOX   O1 8893  11.939  12.018   8.191  0.0092 -0.0966 -0.3093
   98ETHOX   C1 8894  11.820  11.960   8.134  0.1503  0.1038  0.3718
   98ETHOX  H11 8895  11.862  11.877   8.073  2.1590 -0.0414  1.8505
   98ETHOX  H13 8896  11.759  11.904   8.207  1.4094 -2.4743 -0.4065
   98ETHOX   C2 8897  11.734  12.051   8.048  0.4222 -0.2642  0.2709
   98ETHOX  H21 8898  11.677  12.007   7.964 -3.2357  0.9997  1.8811
   98ETHOX  H23 8899  11.805  12.120   7.997  0.4528 -1.9910 -2.1451
   99ETHOX   O1 8900  11.647  12.126   8.132  0.4319  0.1060 -0.3151
   99ETHOX   C1 8901  11.521  12.065   8.151 -0.0509 -0.2653  0.2851
   99ETHOX  H11 8902  11.530  11.985   8.227 -0.2673 -0.4910  0.0754
   99ETHOX  H13 8903  11.488  12.023   8.054  2.5360  0.6224 -1.0729
   99ETHOX   C2 8904  11.408  12.160   8.200 -0.1524  0.1543 -0.2067
   99ETHOX  H21 8905  11.311  12.110   8.177  1.0095 -1.3190 -2.2468
   99ETHOX  H23 8906  11.406  12.249   8.133 -1.5034 -0.7439 -1.4221
  100ETHOX   O1 8907  11.421  12.189   8.338  0.2435 -0.6273 -1.1481
  100ETHOX   C1 8908  11.306  12.275   8.379 -0.2097 -0.0544  0.2784
  100ETHOX  H11 8909  11.303  12.365   8.313 -0.8141 -0.1304  0.1915
  100ETHOX  H13 8910  11.209  12.222   8.364  0.1039 -0.6797  0.4732
  100ETHOX   C2 8911  11.327  12.341   8.519  0.5823  0.2353 -0.1077
  100ETHOX  H21 8912  11.329  12.268   8.603  0.1633  0.7821  0.3925
  100ETHOX  H23 8913  11.239  12.405   8.542  0.1003  0.1203 -1.5697
  101PROXS   O1 8914  11.452  12.400   8.524 -0.2366  0.3126  0.0626
  101PROXS   C1 8915  11.454  12.500   8.625  0.1931  0.2522  0.9717
  101PROXS  H11 8916  11.366  12.568   8.617 -0.7227 -1.0189 -0.4181
  101PROXS  H13 8917  11.449  12.447   8.723  0.7649 -0.2379  0.7460
  101PROXS   C2 8918  11.582  12.588   8.639 -0.6081  0.2710  0.4290
  101PROXS  H21 8919  11.576  12.660   8.555  2.1460  0.8627  0.6579
  101PROXS   C3 8920  11.710  12.501   8.639  0.1794  0.1650 -0.1008
  101PROXS  H31 8921  11.712  12.431   8.552  1.0519 -1.7036  1.3570
  101PROXS  H32 8922  11.808  12.552   8.646 -0.3996  1.6518 -1.7816
  101PROXS  H33 8923  11.698  12.439   8.730 -1.7250 -2.4489 -1.9844
  102PROXS   O1 8924  11.585  12.662   8.765  0.2641  0.2421  0.1694
  102PROXS   C1 8925  11.714  12.720   8.795 -0.1556 -0.4734 -0.3791
  102PROXS  H11 8926  11.772  12.654   8.863 -1.5823 -0.7209  0.6522
  102PROXS  H13 8927  11.783  12.743   8.711  3.0738  0.2688  2.2795
  102PROXS   C2 8928  11.703  12.853   8.877  0.3886 -0.3008  0.6878
  102PROXS  H21 8929  11.638  12.833   8.964 -1.2119 -1.1879 -0.6504
  102PROXS   C3 8930  11.624  12.958   8.795 -0.0602 -0.1481 -0.8768
  102PROXS  H31 8931  11.519  12.924   8.795  0.0813 -0.8116  1.8825
  102PROXS  H32 8932  11.621  13.053   8.853  2.1713 -1.4448  1.5799
  102PROXS  H33 8933  11.677  12.971   8.698 -0.3306  0.3712 -0.9568
  103PROXR   O1 8934  11.828  12.904   8.913 -0.3424  0.1989 -0.4701
  103PROXR   C1 8935  11.899  12.832   9.010 -0.5637 -0.6405  0.0478
  103PROXR  H11 8936  11.829  12.793   9.087 -0.3207  0.6639  0.9609
  103PROXR  H13 8937  11.946  12.741   8.968 -0.9051 -0.3220 -1.0504
  103PROXR   C2 8938  12.006  12.935   9.071 -0.0715  0.3119 -0.1843
  103PROXR  H21 8939  12.065  12.982   8.990  1.3707 -1.4888 -0.2399
  103PROXR   C3 8940  12.102  12.855   9.162 -0.5443  0.1418 -0.0238
  103PROXR  H31 8941  12.159  12.912   9.238 -0.3451  1.3027 -1.0050
  103PROXR  H32 8942  12.044  12.771   9.205  1.6462 -1.2632  0.3207
  103PROXR  H33 8943  12.168  12.798   9.092 -2.3358  0.5125 -2.1448
  104PROXS   O1 8944  11.941  13.030   9.151 -0.3257 -0.4714  0.9609
  104PROXS   C1 8945  12.012  13.155   9.177 -0.0919 -0.3055 -0.0620
  104PROXS  H11 8946  12.013  13.164   9.288  0.0632 -5.0902  0.5017
  104PROXS  H13 8947  12.118  13.147   9.142 -0.3584 -0.7005 -0.7934
  104PROXS   C2 8948  11.959  13.277   9.099 -0.3375 -0.2409  0.4264
  104PROXS  H21 8949  11.857  13.304   9.136 -0.4282  1.7915 -1.1280
  104PROXS   C3 8950  11.939  13.243   8.951  0.4031 -0.4549  0.0549
  104PROXS  H31 8951  12.031  13.204   8.901  0.5826  2.7229 -2.4864
  104PROXS  H32 8952  11.858  13.168   8.945 -0.3405  0.3276  0.1554
  104PROXS  H33 8953  11.909  13.331   8.889 -0.2944 -0.4795  0.3560
  105PROXS   O1 8954  12.045  13.391   9.098  0.3966 -0.0582 -0.6362
  105PROXS   C1 8955  12.008  13.489   9.194  0.2871 -0.3575  0.1202
  105PROXS  H11 8956  11.975  13.445   9.290  1.4875  0.1686  0.8040
  105PROXS  H13 8957  12.094  13.553   9.226 -0.4344 -0.3256  2.1312
  105PROXS   C2 8958  11.906  13.582   9.129  0.6740 -0.4119 -0.0561
  105PROXS  H21 8959  11.829  13.525   9.072  0.4153 -0.0570 -0.0671
  105PROXS   C3 8960  11.962  13.683   9.028  0.6739  0.0677 -0.1588
  105PROXS  H31 8961  11.890  13.756   8.985  1.0948  0.7223  0.2362
  105PROXS  H32 8962  12.046  13.742   9.070 -0.3095  0.0581  1.9688
  105PROXS  H33 8963  12.001  13.613   8.950  1.5986 -0.8841  1.1192
  106PROXS   O1 8964  11.852  13.657   9.236  0.4254  0.2047 -0.8632
  106PROXS   C1 8965  11.713  13.681   9.224  0.4762 -0.0576 -0.0073
  106PROXS  H11 8966  11.701  13.789   9.247  2.0447  0.0436  0.4516
  106PROXS  H13 8967  11.670  13.679   9.122  1.3612 -0.0447 -0.3872
  106PROXS   C2 8968  11.638  13.613   9.334  0.0458 -0.0371 -0.0416
  106PROXS  H21 8969  11.697  13.616   9.428 -0.6778 -0.4182  0.4359
  106PROXS   C3 8970  11.601  13.469   9.303  0.7636  0.0806  0.4269
  106PROXS  H31 8971  11.687  13.398   9.298 -0.3470 -1.4273  1.5586
  106PROXS  H32 8972  11.529  13.428   9.377  1.5565 -0.1259  1.1002
  106PROXS  H33 8973  11.551  13.463   9.204  1.1323 -2.6522  0.3141
  107PROXR   O1 8974  11.520  13.685   9.365 -0.2625  0.3092  0.4024
  107PROXR   C1 8975  11.530  13.790   9.454 -0.0420  0.3523  0.6807
  107PROXR  H11 8976  11.558  13.741   9.550 -0.2495  0.8491  0.9979
  107PROXR  H13 8977  11.609  13.855   9.413 -2.0707  0.0323 -4.3873
  107PROXR   C2 8978  11.399  13.862   9.470  0.3574 -0.2693 -0.0482
  107PROXR  H21 8979  11.353  13.862   9.369  1.1952  2.6035 -0.5203
  107PROXR   C3 8980  11.427  14.007   9.518 -0.0434 -1.0220  0.0047
  107PROXR  H31 8981  11.335  14.066   9.539 -0.1822 -0.6676 -1.4856
  107PROXR  H32 8982  11.503  14.015   9.598 -0.8625  3.0918  0.6077
  107PROXR  H33 8983  11.469  14.064   9.433  1.3737 -0.6155  0.9395
  108PROXS   O1 8984  11.318  13.800   9.564  0.5011  0.9043 -0.0954
  108PROXS   C1 8985  11.254  13.673   9.532 -0.4354 -0.3313 -0.3835
  108PROXS  H11 8986  11.328  13.599   9.495  0.0931 -0.3485  0.6692
  108PROXS  H13 8987  11.215  13.636   9.630  0.3775  1.1363  0.5175
  108PROXS   C2 8988  11.136  13.687   9.441  0.7259 -0.0155  0.8813
  108PROXS  H21 8989  11.165  13.756   9.359 -0.8260  0.7197  0.9044
  108PROXS   C3 8990  11.007  13.746   9.497  0.4302 -0.0829  0.3538
  108PROXS  H31 8991  11.023  13.835   9.561  1.5842  1.2816 -1.7110
  108PROXS  H32 8992  10.939  13.778   9.415 -1.4850 -2.1654  1.0312
  108PROXS  H33 8993  10.958  13.668   9.558  0.9528  0.8456  2.0189
  109PROXS   O1 8994  11.098  13.561   9.390 -0.0340 -0.2914  0.5737
  109PROXS   C1 8995  11.185  13.526   9.274 -0.1218 -0.2667 -0.0987
  109PROXS  H11 8996  11.151  13.590   9.189 -3.7080 -0.2816  1.1572
  109PROXS  H13 8997  11.294  13.537   9.291 -0.5458  1.4025  1.9481
  109PROXS   C2 8998  11.156  13.377   9.246  0.7760  1.0790  0.1952
  109PROXS  H21 8999  11.045  13.368   9.245  0.9445 -3.0079  0.2545
  109PROXS   C3 9000  11.207  13.298   9.369  0.4749 -0.2634 -0.0831
  109PROXS  H31 9001  11.143  13.322   9.457  3.0930 -1.5279  2.3696
  109PROXS  H32 9002  11.189  13.189   9.354  0.1121 -0.0708 -1.1325
  109PROXS  H33 9003  11.309  13.324   9.406  0.7553 -0.6333 -0.5830
  110PROXR   O1 9004  11.217  13.334   9.123  0.3178  0.0230 -0.2875
  110PROXR   C1 9005  11.186  13.203   9.076 -0.0617 -0.2993  0.4500
  110PROXR  H11 9006  11.100  13.157   9.129 -1.1600  1.0603 -0.0764
  110PROXR  H13 9007  11.165  13.212   8.967  2.7163  0.3725 -0.0955
  110PROXR   C2 9008  11.309  13.107   9.077 -0.3290  0.4884  0.3421
  110PROXR  H21 9009  11.334  13.080   9.182  0.4453 -1.6601 -0.3489
  110PROXR   C3 9010  11.423  13.180   9.010 -0.4089  0.4507 -0.3966
  110PROXR  H31 9011  11.432  13.282   9.053  1.2656 -0.3349  1.2753
  110PROXR  H32 9012  11.514  13.122   9.035 -0.5008  0.3914 -0.1983
  110PROXR  H33 9013  11.410  13.185   8.900 -0.8902  0.2460 -0.3507
  111PROXS   O1 9014  11.281  12.990   9.006 -0.1323 -0.1070 -0.1179
  111PROXS   C1 9015  11.340  12.873   9.061 -0.0844 -1.0761 -0.7607
  111PROXS  H11 9016  11.449  12.890   9.043  0.1898 -0.8627  0.8889
  111PROXS  H13 9017  11.314  12.866   9.169 -1.7179  0.5087 -1.0178
  111PROXS   C2 9018  11.288  12.746   8.996 -0.1450  0.8222  0.5370
  111PROXS  H21 9019  11.327  12.742   8.892 -2.1217  0.4357 -0.2378
  111PROXS   C3 9020  11.138  12.737   8.985  0.1114  0.0947 -1.1085
  111PROXS  H31 9021  11.099  12.724   9.088  3.4627  1.5204  0.5159
  111PROXS  H32 9022  11.096  12.824   8.930  0.8378  0.0014 -1.8187
  111PROXS  H33 9023  11.104  12.647   8.931 -1.8778 -0.3099  0.6951
  112PROXR   O1 9024  11.333  12.628   9.076  0.0195 -0.4176 -0.1634
  112PROXR   C1 9025  11.471  12.603   9.059  0.0354  0.0630  0.0120
  112PROXR  H11 9026  11.483  12.539   8.969 -0.5210 -2.2657  1.4896
  112PROXR  H13 9027  11.534  12.694   9.052 -0.9094  0.6314 -1.4986
  112PROXR   C2 9028  11.521  12.505   9.180  0.4751 -0.1593 -0.7058
  112PROXR  H21 9029  11.452  12.417   9.181  0.0703  0.1542 -0.1624
  112PROXR   C3 9030  11.530  12.559   9.323  0.0378  0.2698  0.0107
  112PROXR  H31 9031  11.426  12.585   9.353  0.0752 -0.3556  0.7277
  112PROXR  H32 9032  11.573  12.478   9.386  0.7858 -0.1841 -1.0652
  112PROXR  H33 9033  11.595  12.649   9.323  1.5265 -0.7635  0.4130
  113PROXS   O1 9034  11.653  12.469   9.147 -0.3606  1.1033 -0.0151
  113PROXS   C1 9035  11.689  12.336   9.186  0.0038  0.0509  0.1739
  113PROXS  H11 9036  11.687  12.342   9.297  1.7133  1.5940  0.1832
  113PROXS  H13 9037  11.614  12.267   9.142  2.6896 -1.6090 -2.1494
  113PROXS   C2 9038  11.822  12.287   9.126 -0.2750 -0.3640 -0.2831
  113PROXS  H21 9039  11.902  12.340   9.182 -0.5388 -0.2835  0.0226
  113PROXS   C3 9040  11.832  12.308   8.975 -0.0629  0.2976 -0.8398
  113PROXS  H31 9041  11.816  12.414   8.945 -0.1988  0.4870 -0.1325
  113PROXS  H32 9042  11.932  12.271   8.943 -0.7548 -3.3378  0.6445
  113PROXS  H33 9043  11.761  12.248   8.914  0.0841  1.9922 -2.7877
  114PROXR   O1 9044  11.836  12.152   9.139 -0.0000 -0.2169  0.0525
  114PROXR   C1 9045  11.954  12.116   9.206  0.3928 -0.8496  0.1868
  114PROXR  H11 9046  11.971  12.009   9.178  2.9771 -0.9376  1.7191
  114PROXR  H13 9047  12.039  12.177   9.169 -1.7536  0.9149 -2.1105
  114PROXR   C2 9048  11.947  12.133   9.365  0.0980 -0.0529 -0.2060
  114PROXR  H21 9049  12.033  12.083   9.415 -0.5584 -0.5221  0.4830
  114PROXR   C3 9050  11.815  12.070   9.415  0.4032  0.4048 -0.1142
  114PROXR  H31 9051  11.818  11.960   9.400  2.7198  0.5252 -0.8601
  114PROXR  H32 9052  11.807  12.086   9.525  0.5399 -0.2332 -0.0106
  114PROXR  H33 9053  11.721  12.111   9.371 -0.0034 -0.1434  0.2365
  115PROXR   O1 9054  11.938  12.268   9.411  0.4839  0.2325 -0.0104
  115PROXR   C1 9055  12.059  12.339   9.423  0.7704 -0.1558 -1.2281
  115PROXR  H11 9056  12.107  12.279   9.503 -1.7806  0.2009  0.7135
  115PROXR  H13 9057  12.114  12.334   9.326  0.1280  1.3526 -1.7119
  115PROXR   C2 9058  12.027  12.479   9.467 -0.7540 -0.3894  0.1001
  115PROXR  H21 9059  11.991  12.480   9.572 -0.5409 -2.6775  0.2493
  115PROXR   C3 9060  11.928  12.556   9.366 -0.1651  0.6665  0.5352
  115PROXR  H31 9061  11.981  12.553   9.268 -0.5586  0.1037  0.3341
  115PROXR  H32 9062  11.838  12.490   9.369  0.8405 -0.7712  0.4807
  115PROXR  H33 9063  11.913  12.661   9.397  0.1282  0.9014 -0.1018
  116PROXS   O1 9064  12.148  12.562   9.460 -0.0393  0.1617 -0.0897
  116PROXS   C1 9065  12.247  12.518   9.557 -0.3730 -0.3945  0.0646
  116PROXS  H11 9066  12.195  12.507   9.655 -1.0185  0.3313 -0.1842
  116PROXS  H13 9067  12.288  12.419   9.530  0.1800 -0.3765  0.8044
  116PROXS   C2 9068  12.371  12.617   9.569 -0.4170 -0.5339  0.0374
  116PROXS  H21 9069  12.315  12.712   9.554 -0.3138 -0.4885 -0.0610
  116PROXS   C3 9070  12.468  12.610   9.444 -0.1716 -0.6654  0.2394
  116PROXS  H31 9071  12.550  12.682   9.465 -2.1298  1.1402  2.2716
  116PROXS  H32 9072  12.504  12.506   9.430 -4.1750 -2.4893  1.7989
  116PROXS  H33 9073  12.414  12.637   9.351 -1.5480  0.6835  1.3760
  117PROXS   O1 9074  12.431  12.590   9.697  0.1100 -0.0184  0.9799
  117PROXS   C1 9075  12.502  12.703   9.748 -0.4016  0.3472  0.4613
  117PROXS  H11 9076  12.594  12.724   9.690 -0.1181 -0.8867  0.4259
  117PROXS  H13 9077  12.432  12.788   9.734  0.3909  0.7052 -1.7741
  117PROXS   C2 9078  12.545  12.679   9.895  0.5290  0.0624  0.4142
  117PROXS  H21 9079  12.601  12.768   9.933  1.5364 -1.4904  2.8084
  117PROXS   C3 9080  12.637  12.560   9.917  0.1758 -0.0700 -0.4147
  117PROXS  H31 9081  12.591  12.463   9.888  0.3320 -0.0213 -0.8334
  117PROXS  H32 9082  12.718  12.566   9.842  0.4521 -1.2878 -0.2278
  117PROXS  H33 9083  12.680  12.551  10.019  0.7516 -1.5988 -0.7611
  118PROXR   O1 9084  12.426  12.675   9.967 -1.0801  0.7143 -0.2647
  118PROXR   C1 9085  12.450  12.700  10.110  0.7023  0.0332  0.8587
  118PROXR  H11 9086  12.486  12.613  10.169 -0.1369  1.1570  3.1574
  118PROXR  H13 9087  12.524  12.783  10.116  0.7139  0.3559 -2.1556
  118PROXR   C2 9088  12.320  12.751  10.177 -0.1979 -0.4191  0.1848
  118PROXR  H21 9089  12.271  12.826  10.111 -2.0029 -0.6795  1.1729
  118PROXR   C3 9090  12.355  12.827  10.307 -0.0812 -0.1712  0.0281
  118PROXR  H31 9091  12.423  12.911  10.283  1.9755 -2.1139 -1.2605
  118PROXR  H32 9092  12.258  12.869  10.342 -0.6043 -0.8791 -0.5392
  118PROXR  H33 9093  12.403  12.755  10.377 -0.6549 -2.2017 -1.5471
  119PROXR   O1 9094  12.238  12.640  10.210  0.5956 -0.0258 -0.4393
  119PROXR   C1 9095  12.199  12.559  10.101 -0.0419 -0.4153 -0.3488
  119PROXR  H11 9096  12.186  12.630  10.016 -1.5197 -0.5173 -0.2381
  119PROXR  H13 9097  12.277  12.481  10.092  1.4301  0.5089  2.9304
  119PROXR   C2 9098  12.062  12.492  10.120 -0.5718 -0.0313 -0.5504
  119PROXR  H21 9099  11.993  12.564  10.169 -1.9963  0.0706 -2.5680
  119PROXR   C3 9100  12.062  12.376  10.210  0.4576  0.9383  0.0427
  119PROXR  H31 9101  11.964  12.323  10.207  0.4241  0.9712  0.5951
  119PROXR  H32 9102  12.133  12.295  10.180  2.0237  1.8130  1.2629
  119PROXR  H33 9103  12.088  12.410  10.312  0.3370 -0.3726  0.5223
  120PROXS   O1 9104  11.999  12.463  10.000 -0.7120  0.4674 -0.3166
  120PROXS   C1 9105  11.856  12.463   9.997  0.3624  0.7114 -0.1777
  120PROXS  H11 9106  11.823  12.358  10.014  1.7966  0.1660 -0.5991
  120PROXS  H13 9107  11.811  12.527  10.076  0.8059  0.9627 -0.1272
  120PROXS   C2 9108  11.806  12.509   9.860  0.2734 -0.3727  0.4740
  120PROXS  H21 9109  11.873  12.448   9.796  0.6769 -0.4842  0.9983
  120PROXS   C3 9110  11.833  12.658   9.836 -0.3908  0.6774  0.0625
  120PROXS  H31 9111  11.942  12.671   9.856 -0.5977  0.9055  1.0806
  120PROXS  H32 9112  11.808  12.686   9.732  0.6147  0.5900 -0.2172
  120PROXS  H33 9113  11.771  12.727   9.896  1.3608  0.9059  1.7326
  121PROXS   O1 9114  11.670  12.471   9.840  0.2912  1.0515 -0.2364
  121PROXS   C1 9115  11.647  12.413   9.711  0.1281  0.9927  0.0854
  121PROXS  H11 9116  11.653  12.494   9.634  2.0199 -0.3032 -1.2307
  121PROXS  H13 9117  11.719  12.339   9.670 -0.5889  0.6134 -0.5243
  121PROXS   C2 9118  11.499  12.370   9.701 -0.7358  0.3763 -0.4065
  121PROXS  H21 9119  11.428  12.453   9.720 -1.8155 -1.0275  2.2287
  121PROXS   C3 9120  11.475  12.263   9.801  0.0088  0.0051  0.1604
  121PROXS  H31 9121  11.376  12.214   9.789  1.1147 -1.6303 -4.0532
  121PROXS  H32 9122  11.547  12.184   9.771  2.1494  1.7870  0.3309
  121PROXS  H33 9123  11.510  12.290   9.903  0.7257 -1.6616  0.3743
  122PROXS   O1 9124  11.475  12.316   9.567 -0.2334 -0.8212 -0.6397
  122PROXS   C1 9125  11.335  12.314   9.530 -0.3939 -0.0922  0.0569
  122PROXS  H11 9126  11.262  12.274   9.604 -1.3265 -1.3935 -1.5014
  122PROXS  H13 9127  11.309  12.420   9.509 -1.4551 -0.0176  1.6007
  122PROXS   C2 9128  11.322  12.251   9.387  0.9325  0.6874 -0.7311
  122PROXS  H21 9129  11.413  12.275   9.329  0.5499 -0.6901 -1.9609
  122PROXS   C3 9130  11.197  12.303   9.312 -0.1578 -0.2947  0.1505
  122PROXS  H31 9131  11.104  12.274   9.365 -0.6182 -0.8886 -0.9615
  122PROXS  H32 9132  11.196  12.414   9.303  1.7302 -0.2475  0.0474
  122PROXS  H33 9133  11.189  12.250   9.215 -1.0955  0.3992 -0.1638
  123PROXS   O1 9134  11.311  12.111   9.397  0.1419  0.9683  0.7799
  123PROXS   C1 9135  11.424  12.037   9.360  0.3679 -0.1213 -0.0650
  123PROXS  H11 9136  11.476  12.076   9.270 -2.2927 -0.2223 -1.7679
  123PROXS  H13 9137  11.487  12.048   9.450 -2.1468  0.9592  1.6671
  123PROXS   C2 9138  11.394  11.886   9.356 -0.0532 -0.1314 -0.1991
  123PROXS  H21 9139  11.318  11.869   9.276 -0.7167  2.1740 -0.1559
  123PROXS   C3 9140  11.346  11.827   9.496 -0.1536 -0.3343  0.0508
  123PROXS  H31 9141  11.420  11.828   9.579 -2.1399  0.5354  1.9036
  123PROXS  H32 9142  11.266  11.889   9.543  0.3169 -0.5366  1.1551
  123PROXS  H33 9143  11.307  11.726   9.475  1.2455 -0.2093 -4.1506
  124PROXR   O1 9144  11.509  11.812   9.315  0.4510 -0.2910  0.2830
  124PROXR   C1 9145  11.535  11.813   9.173  0.3247  0.4990 -0.0136
  124PROXR  H11 9146  11.459  11.751   9.121 -1.3744  2.0073  0.6035
  124PROXR  H13 9147  11.512  11.917   9.142 -3.9873  0.2275  1.6582
  124PROXR   C2 9148  11.671  11.762   9.141 -0.2767  1.0854  0.2606
  124PROXR  H21 9149  11.740  11.798   9.220  0.3720 -3.1282  1.9030
  124PROXR   C3 9150  11.727  11.811   9.010 -0.1487 -0.5538  0.0534
  124PROXR  H31 9151  11.735  11.921   9.019 -3.5531 -0.2726  0.9442
  124PROXR  H32 9152  11.829  11.768   8.999  1.1330  1.9107  1.3857
  124PROXR  H33 9153  11.667  11.783   8.920  1.8035  0.7959 -1.7748
  125PROXS   O1 9154  11.687  11.616   9.126 -0.4275 -0.1852  0.5716
  125PROXS   C1 9155  11.670  11.546   9.248  0.3526  0.5000  0.0946
  125PROXS  H11 9156  11.574  11.576   9.295 -0.6469 -3.7394  1.1521
  125PROXS  H13 9157  11.659  11.436   9.233  1.1197  0.2127  1.5115
  125PROXS   C2 9158  11.784  11.552   9.346 -0.0687 -0.5746 -0.2920
  125PROXS  H21 9159  11.802  11.654   9.387 -2.5067 -0.4047  0.5022
  125PROXS   C3 9160  11.916  11.524   9.279 -0.3763  0.2153  0.7158
  125PROXS  H31 9161  11.930  11.415   9.263  1.8871  0.5328  0.1141
  125PROXS  H32 9162  11.919  11.576   9.181 -0.8469  0.8418  1.0296
  125PROXS  H33 9163  12.004  11.568   9.331 -0.7373  1.9507 -0.0511
  126PROXS   O1 9164  11.758  11.463   9.455 -0.6900 -0.7171  0.1915
  126PROXS   C1 9165  11.682  11.524   9.562 -0.0318  0.9825  0.8809
  126PROXS  H11 9166  11.751  11.600   9.606  0.1950  0.7065  1.0105
  126PROXS  H13 9167  11.589  11.573   9.527 -0.3218 -0.2996 -0.2193
  126PROXS   C2 9168  11.645  11.428   9.675  0.3357  0.6458 -0.7802
  126PROXS  H21 9169  11.736  11.393   9.727  0.6474  1.6391 -0.6384
  126PROXS   C3 9170  11.575  11.303   9.632  0.1895 -0.3925  0.3130
  126PROXS  H31 9171  11.639  11.235   9.570  0.9973 -0.3507  1.0828
  126PROXS  H32 9172  11.524  11.241   9.709  0.5488 -4.3530 -2.3196
  126PROXS  H33 9173  11.489  11.342   9.574 -0.3183 -1.1848  0.5164
  127PROXR   O1 9174  11.545  11.492   9.764 -0.2388 -0.4172  0.3448
  127PROXR   C1 9175  11.620  11.583   9.848  0.2964 -0.7636 -0.1873
  127PROXR  H11 9176  11.713  11.535   9.884  2.7885  2.7193 -1.4497
  127PROXR  H13 9177  11.650  11.675   9.794  0.5913 -1.5193 -1.3241
  127PROXR   C2 9178  11.533  11.625   9.967  0.2117  0.3089  0.3165
  127PROXR  H21 9179  11.498  11.529  10.010  0.6360 -0.5116 -1.1133
  127PROXR   C3 9180  11.401  11.696   9.922  0.2416  0.2520 -0.3963
  127PROXR  H31 9181  11.422  11.797   9.882  2.2091 -0.1288 -0.4325
  127PROXR  H32 9182  11.363  11.633   9.838 -0.5111 -0.5415  0.5196
  127PROXR  H33 9183  11.320  11.690   9.997  1.2687 -1.2986  0.6498
  128PROXR   O1 9184  11.609  11.701  10.061 -0.0851  0.4384  0.0844
  128PROXR   C1 9185  11.540  11.695  10.193 -0.2302  0.4564  0.0117
  128PROXR  H11 9186  11.433  11.725  10.200 -0.7275 -1.4787  3.3005
  128PROXR  H13 9187  11.542  11.587  10.220  2.2368  0.5170  0.2214
  128PROXR   C2 9188  11.623  11.773  10.290  0.3112 -0.6209  0.8075
  128PROXR  H21 9189  11.730  11.754  10.266 -0.0541  0.5647 -2.4186
  128PROXR   C3 9190  11.584  11.744  10.434 -0.7739 -0.1655 -0.2459
  128PROXR  H31 9191  11.486  11.789  10.460 -0.1903  0.0321  1.7400
  128PROXR  H32 9192  11.581  11.634  10.449 -1.4758  0.0100  1.0684
  128PROXR  H33 9193  11.661  11.786  10.502  0.3063 -1.3285 -0.7108
  129PROXS   O1 9194  11.595  11.913  10.276  0.2579 -0.9955  0.2635
  129PROXS   C1 9195  11.683  11.988  10.194  0.3006 -0.3065  0.7968
  129PROXS  H11 9196  11.701  11.927  10.103  1.8453  0.0132  0.8482
  129PROXS  H13 9197  11.634  12.085  10.174 -0.9830 -1.1510 -0.3630
  129PROXS   C2 9198  11.813  12.013  10.260 -0.4977 -0.2165 -0.1039
  129PROXS  H21 9199  11.874  11.923  10.283  0.3899 -0.2593 -2.3783
  129PROXS   C3 9200  11.793  12.091  10.383  0.3677  0.3628  0.2339
  129PROXS  H31 9201  11.887  12.142  10.415  1.3246 -1.1166 -0.1017
  129PROXS  H32 9202  11.718  12.170  10.362 -1.9658 -1.6065  0.6430
  129PROXS  H33 9203  11.738  12.033  10.460 -0.5870  0.8239 -0.0866
  130PROXS   O1 9204  11.887  12.102  10.174  0.5728 -0.8673 -0.2882
  130PROXS   C1 9205  11.948  12.029  10.073 -0.4883 -0.1534 -0.3671
  130PROXS  H11 9206  12.056  12.027  10.097  0.0473  3.1024 -2.0685
  130PROXS  H13 9207  11.914  11.923  10.067  2.0245 -0.9922 -0.9429
  130PROXS   C2 9208  11.945  12.085   9.925 -0.4087  0.0643 -0.4680
  130PROXS  H21 9209  11.972  12.192   9.937  0.6479 -0.3676  1.5465
  130PROXS   C3 9210  11.804  12.081   9.853 -0.1512  0.1408 -0.1496
  130PROXS  H31 9211  11.722  12.115   9.920 -1.6660  0.2335 -1.9518
  130PROXS  H32 9212  11.816  12.145   9.762  1.9297 -1.4333 -1.0516
  130PROXS  H33 9213  11.773  11.977   9.829 -0.2552  0.6945 -2.8155
  131PROXS   O1 9214  12.038  12.016   9.851  0.0756 -0.7835 -0.1026
  131PROXS   C1 9215  12.100  12.098   9.746 -0.0232  0.4275  0.0680
  131PROXS  H11 9216  12.112  12.041   9.651  1.6100  0.9385 -0.0609
  131PROXS  H13 9217  12.041  12.188   9.717 -0.8207 -0.6761 -1.9820
  131PROXS   C2 9218  12.246  12.132   9.777  0.0293 -0.3166 -0.0727
  131PROXS  H21 9219  12.296  12.036   9.800  0.1344 -0.7113 -1.7936
  131PROXS   C3 9220  12.256  12.228   9.897  0.2810  0.0585  0.5792
  131PROXS  H31 9221  12.230  12.328   9.855  0.1376  0.1306  0.8359
  131PROXS  H32 9222  12.186  12.194   9.977  1.0997 -0.8435  0.9270
  131PROXS  H33 9223  12.360  12.220   9.935  0.7971  3.8213  0.3587
  132PROXS   O1 9224  12.306  12.181   9.663 -0.0364 -0.6931 -0.4374
  132PROXS   C1 9225  12.449  12.198   9.677  0.0980 -0.6637  0.2678
  132PROXS  H11 9226  12.469  12.287   9.740 -2.1158 -0.0367  0.1708
  132PROXS  H13 9227  12.496  12.112   9.729 -0.4595 -1.5658 -0.6876
  132PROXS   C2 9228  12.522  12.214   9.541 -0.0682  0.5005  0.3869
  132PROXS  H21 9229  12.492  12.315   9.505 -0.2129  0.2330 -0.2541
  132PROXS   C3 9230  12.480  12.113   9.431 -0.7586  0.1069  0.3547
  132PROXS  H31 9231  12.545  12.132   9.343  0.6277  0.5215  1.4343
  132PROXS  H32 9232  12.474  12.008   9.469 -0.4000  0.1982  0.6739
  132PROXS  H33 9233  12.378  12.148   9.404 -0.1611  0.9740 -0.8363
  133PROXS   O1 9234  12.660  12.197   9.551 -0.2999 -0.2459  0.1428
  133PROXS   C1 9235  12.727  12.308   9.603 -0.1677  0.3420  0.3303
  133PROXS  H11 9236  12.753  12.380   9.522 -0.0386  1.0260  0.9662
  133PROXS  H13 9237  12.661  12.363   9.674 -0.2626  1.7048 -0.7584
  133PROXS   C2 9238  12.853  12.273   9.671  0.1377  0.3280 -0.1941
  133PROXS  H21 9239  12.925  12.227   9.599 -1.6565 -1.4485 -0.9452
  133PROXS   C3 9240  12.817  12.190   9.789 -0.2192 -0.2057 -0.0960
  133PROXS  H31 9241  12.802  12.083   9.762 -3.0433 -0.5393  2.3418
  133PROXS  H32 9242  12.898  12.206   9.864 -1.6070  1.9669  1.0367
  133PROXS  H33 9243  12.722  12.231   9.828 -0.0315  0.9349 -0.7900
  134PROXS   O1 9244  12.912  12.391   9.716 -0.4834  0.3597 -0.5878
  134PROXS   C1 9245  12.999  12.461   9.622 -0.0029 -0.1310 -0.9549
  134PROXS  H11 9246  13.104  12.427   9.632 -0.0784 -0.0704  0.0740
  134PROXS  H13 9247  12.968  12.422   9.522 -2.0294 -1.7271  0.2252
  134PROXS   C2 9248  12.996  12.619   9.638 -0.5409 -0.7806  0.2560
  134PROXS  H21 9249  13.028  12.635   9.744  2.6046 -0.2822 -0.6658
  134PROXS   C3 9250  12.869  12.689   9.605 -0.0132 -0.0837 -0.3503
  134PROXS  H31 9251  12.787  12.637   9.659  1.0306  0.4432  1.8743
  134PROXS  H32 9252  12.866  12.795   9.639 -3.5566 -0.4852  1.0575
  134PROXS  H33 9253  12.855  12.675   9.496  2.3161  0.8032 -0.8087
  135PROXS   O1 9254  13.102  12.673   9.561  0.1845  0.0960 -0.4991
  135PROXS   C1 9255  13.150  12.800   9.598 -0.4946  0.0839  0.3037
  135PROXS  H11 9256  13.093  12.870   9.662 -0.0546  0.0192  0.7743
  135PROXS  H13 9257  13.238  12.785   9.664  0.1228 -0.6413 -0.6530
  135PROXS   C2 9258  13.206  12.873   9.473 -0.7776  0.0329 -0.3012
  135PROXS  H21 9259  13.119  12.905   9.412 -0.7542  1.1698  0.2346
  135PROXS   C3 9260  13.301  12.778   9.404  0.0071 -0.1844 -0.1283
  135PROXS  H31 9261  13.395  12.776   9.463  0.2402  3.1534 -0.1870
  135PROXS  H32 9262  13.253  12.678   9.404 -4.3576  1.6914  0.6997
  135PROXS  H33 9263  13.326  12.810   9.300  0.9360 -0.8247 -0.1238
  136PROXS   O1 9264  13.281  12.986   9.522 -0.1739 -0.6195  0.1672
  136PROXS   C1 9265  13.307  13.087   9.425  0.1792  0.6538 -0.1152
  136PROXS  H11 9266  13.405  13.071   9.374  1.0272  1.5342  1.1894
  136PROXS  H13 9267  13.223  13.079   9.352  0.6520 -2.0077 -0.4925
  136PROXS   C2 9268  13.317  13.217   9.499  0.5180 -0.1828 -0.0967
  136PROXS  H21 9269  13.388  13.200   9.584  1.1342 -2.6263 -1.0165
  136PROXS   C3 9270  13.177  13.272   9.550 -0.8302 -0.4475  0.4166
  136PROXS  H31 9271  13.178  13.373   9.597 -0.3549 -0.5076  0.5475
  136PROXS  H32 9272  13.113  13.271   9.459  2.2789 -1.7454 -1.9400
  136PROXS  H33 9273  13.144  13.202   9.630  2.1125 -0.6938  1.5472
  137PROXS   O1 9274  13.372  13.316   9.407  0.2819  0.2105  0.1721
  137PROXS   C1 9275  13.388  13.443   9.465  0.1825 -0.1562  0.5269
  137PROXS  H11 9276  13.293  13.496   9.485  0.3756  1.5782 -2.5814
  137PROXS  H13 9277  13.445  13.443   9.561  0.7771  0.3597  0.1884
  137PROXS   C2 9278  13.474  13.530   9.358 -0.0880 -0.0717 -0.1127
  137PROXS  H21 9279  13.425  13.524   9.259 -1.6934  2.4578  0.4286
  137PROXS   C3 9280  13.615  13.469   9.346  0.4665 -0.8962 -0.8304
  137PROXS  H31 9281  13.642  13.483   9.239 -0.2172 -1.9098 -1.1546
  137PROXS  H32 9282  13.693  13.504   9.417 -0.0819 -0.8949 -0.2179
  137PROXS  H33 9283  13.609  13.359   9.360  0.7106 -0.6283  1.8840
  138PROXR   O1 9284  13.486  13.661   9.404 -0.1062 -0.1555  0.6262
  138PROXR   C1 9285  13.398  13.757   9.341 -0.3138  0.6793 -0.0946
  138PROXR  H11 9286  13.424  13.752   9.233 -1.0459 -1.7578 -0.1969
  138PROXR  H13 9287  13.294  13.719   9.343 -0.4221  0.9577 -0.3597
  138PROXR   C2 9288  13.411  13.905   9.387  0.4029 -0.0248  0.2068
  138PROXR  H21 9289  13.407  13.902   9.498  0.7789 -1.7196  0.1961
  138PROXR   C3 9290  13.295  14.000   9.345 -0.3139  0.0785  0.7075
  138PROXR  H31 9291  13.316  14.102   9.383 -0.3964 -0.2861  1.7548
  138PROXR  H32 9292  13.285  14.006   9.234  1.8694  1.8491  0.5306
  138PROXR  H33 9293  13.204  13.959   9.394 -1.9188  0.7826 -1.5062
  139PROXS   O1 9294  13.535  13.960   9.348  0.0240  0.4004 -0.4146
  139PROXS   C1 9295  13.639  13.944   9.440 -0.1645 -0.9457 -0.4303
  139PROXS  H11 9296  13.625  13.853   9.503 -0.2578  0.5814  1.8788
  139PROXS  H13 9297  13.728  13.933   9.374  0.7756  0.2645  0.5878
  139PROXS   C2 9298  13.660  14.079   9.529  0.0132  0.2531 -0.3140
  139PROXS  H21 9299  13.669  14.162   9.456 -0.6008  1.4623  0.9343
  139PROXS   C3 9300  13.779  14.077   9.627 -0.3005 -0.0695  0.1260
  139PROXS  H31 9301  13.754  14.009   9.711 -0.3789 -2.3862 -1.6697
  139PROXS  H32 9302  13.863  14.033   9.569  0.7804  0.2248  1.4152
  139PROXS  H33 9303  13.809  14.175   9.670 -0.8889 -0.5369  1.6690
  140PROXR   O1 9304  13.543  14.103   9.605  0.4428  0.0693  0.4377
  140PROXR   C1 9305  13.538  14.231   9.674  0.3538  0.3123  0.2617
  140PROXR  H11 9306  13.593  14.220   9.770 -0.4662  0.0381  0.7048
  140PROXR  H13 9307  13.601  14.307   9.623  0.6742  0.6511  1.1291
  140PROXR   C2 9308  13.389  14.276   9.696 -0.0332  0.4795  0.8419
  140PROXR  H21 9309  13.334  14.186   9.730  1.0080  0.3650  2.2797
  140PROXR   C3 9310  13.328  14.341   9.568  0.2028 -0.4963 -0.7430
  140PROXR  H31 9311  13.325  14.272   9.481 -1.2983 -1.6493  0.1564
  140PROXR  H32 9312  13.228  14.371   9.607  1.2303  1.1318  0.7817
  140PROXR  H33 9313  13.380  14.435   9.541  1.3809 -1.1848 -0.9472
  141PROXS   O1 9314  13.382  14.377   9.797 -0.4656  0.3701  0.1413
  141PROXS   C1 9315  13.307  14.352   9.909  0.0312 -0.5530  0.4015
  141PROXS  H11 9316  13.333  14.255   9.956  0.8266  0.4318  2.0910
  141PROXS  H13 9317  13.347  14.424   9.984 -0.5111 -1.6098  1.7560
  141PROXS   C2 9318  13.155  14.374   9.890  0.4269  1.0634  0.9693
  141PROXS  H21 9319  13.119  14.323   9.798 -0.7478  1.7849  1.0121
  141PROXS   C3 9320  13.128  14.529   9.885 -0.0392 -0.0275  0.0174
  141PROXS  H31 9321  13.018  14.540   9.886 -0.0565 -0.0938 -0.7677
  141PROXS  H32 9322  13.167  14.572   9.980  0.6221  0.3307 -0.4102
  141PROXS  H33 9323  13.178  14.579   9.800  0.8883 -2.6950 -1.1359
  142PROXS   O1 9324  13.078  14.310   9.994 -0.0916  0.1472 -0.2613
  142PROXS   C1 9325  12.939  14.302   9.963 -0.3041  0.3774 -0.2548
  142PROXS  H11 9326  12.880  14.396   9.974 -3.6205 -1.5656 -0.2846
  142PROXS  H13 9327  12.919  14.260   9.863 -1.9701 -1.4687  0.7780
  142PROXS   C2 9328  12.884  14.200  10.065  0.3776 -0.1774  0.0662
  142PROXS  H21 9329  12.905  14.222  10.172  1.5144 -3.3185  0.5886
  142PROXS   C3 9330  12.955  14.068  10.039  0.0933  0.0588  0.1877
  142PROXS  H31 9331  12.948  14.051   9.929 -0.2991  0.0944  0.2087
  142PROXS  H32 9332  13.065  14.082  10.051 -0.0522  0.4785  1.0952
  142PROXS  H33 9333  12.907  13.986  10.097  1.5821 -2.5792 -2.0330
  143PROXS   O1 9334  12.745  14.191  10.041  0.2134 -0.6251 -0.0600
  143PROXS   C1 9335  12.669  14.119  10.142  0.2472 -0.4468  0.1038
  143PROXS  H11 9336  12.702  14.015  10.160 -0.5259 -0.7006  0.0738
  143PROXS  H13 9337  12.673  14.165  10.243 -1.8783  0.8587 -0.3444
  143PROXS   C2 9338  12.516  14.120  10.107 -0.8534 -1.3184  0.7813
  143PROXS  H21 9339  12.515  14.101   9.997 -1.7308  1.1271  0.3051
  143PROXS   C3 9340  12.468  14.265  10.130  0.0566  0.1878  0.3613
  143PROXS  H31 9341  12.361  14.283  10.105 -0.2212  0.0102  1.3971
  143PROXS  H32 9342  12.488  14.285  10.237  1.7220 -2.1446  0.5729
  143PROXS  H33 9343  12.527  14.326  10.059  0.2769  0.1217  0.4874
  144PROXS   O1 9344  12.439  14.024  10.181 -0.1566  0.4721 -0.1264
  144PROXS   C1 9345  12.431  13.889  10.123  0.1195 -0.8964 -0.6224
  144PROXS  H11 9346  12.536  13.860  10.103  0.3954 -1.8333  1.8210
  144PROXS  H13 9347  12.395  13.823  10.205 -1.1323  0.8235  0.2848
  144PROXS   C2 9348  12.330  13.876  10.013  0.0696  0.9472  0.1491
  144PROXS  H21 9349  12.370  13.929   9.924 -1.9272  1.1642 -0.6834
  144PROXS   C3 9350  12.190  13.928  10.060  0.4317  0.0722 -0.5589
  144PROXS  H31 9351  12.195  14.036  10.087 -0.5542  0.4434 -1.7576
  144PROXS  H32 9352  12.123  13.913   9.973 -1.0443 -3.4995  1.0055
  144PROXS  H33 9353  12.143  13.870  10.142 -0.6840  0.3115 -1.0137
  145PROXR   O1 9354  12.322  13.737   9.972  0.3710  0.0561 -0.2030
  145PROXR   C1 9355  12.269  13.705   9.842 -0.1355 -0.9203  0.1741
  145PROXR  H11 9356  12.169  13.752   9.828  0.2285  0.3982  1.7289
  145PROXR  H13 9357  12.327  13.748   9.757 -1.4175  1.4835  0.4295
  145PROXR   C2 9358  12.260  13.556   9.837  0.7261  0.6359  0.1036
  145PROXR  H21 9359  12.187  13.522   9.913 -2.8256  1.9573 -2.4475
  145PROXR   C3 9360  12.399  13.491   9.849 -0.3475 -0.0044  0.1709
  145PROXR  H31 9361  12.441  13.506   9.951 -1.9075 -0.1337  0.8573
  145PROXR  H32 9362  12.393  13.383   9.827  2.8622  0.0388 -1.4798
  145PROXR  H33 9363  12.475  13.531   9.778 -1.0254  1.4819  0.2485
  146PROXS   O1 9364  12.209  13.513   9.709 -0.1693  0.3927  0.1618
  146PROXS   C1 9365  12.070  13.500   9.715  0.0172 -0.6144 -0.2185
  146PROXS  H11 9366  12.047  13.404   9.765  0.1671  0.7869  2.8052
  146PROXS  H13 9367  12.024  13.587   9.768  1.3069 -0.7843  1.2568
  146PROXS   C2 9368  12.005  13.509   9.580  0.7454  0.0989 -0.2768
  146PROXS  H21 9369  12.060  13.439   9.512  0.8115 -0.7887  0.6632
  146PROXS   C3 9370  12.016  13.655   9.526 -0.3529  0.0693  0.8471
  146PROXS  H31 9371  12.099  13.709   9.577  1.5794 -1.3288 -0.6367
  146PROXS  H32 9372  12.036  13.637   9.418 -2.5538 -2.7685  0.7993
  146PROXS  H33 9373  11.920  13.710   9.524  0.1250  0.9249 -1.0701
  147PROXR   O1 9374  11.866  13.478   9.597  0.4230  0.2163 -0.5726
  147PROXR   C1 9375  11.833  13.338   9.580  0.6241 -0.7439 -0.3364
  147PROXR  H11 9376  11.824  13.328   9.470  0.8696 -0.6192 -0.3659
  147PROXR  H13 9377  11.918  13.273   9.610  1.9108  0.8144 -0.5021
  147PROXR   C2 9378  11.699  13.285   9.634  0.4162 -0.4441 -0.4046
  147PROXR  H21 9379  11.614  13.343   9.592 -0.2169 -1.7757 -1.0135
  147PROXR   C3 9380  11.710  13.289   9.787  0.7513  0.6956  0.4295
  147PROXR  H31 9381  11.619  13.252   9.838 -0.1105  2.3242  0.1553
  147PROXR  H32 9382  11.801  13.243   9.832  0.0023  0.9975  2.3520
  147PROXR  H33 9383  11.720  13.397   9.813  1.4649  0.7873 -0.1949
  148PROXR   O1 9384  11.685  13.158   9.583  0.0398  0.2004 -0.2921
  148PROXR   C1 9385  11.553  13.100   9.608  0.2651  0.1595 -0.3137
  148PROXR  H11 9386  11.499  13.145   9.694  3.5137  0.5609  1.6764
  148PROXR  H13 9387  11.498  13.112   9.512  1.4067  1.6877 -0.8302
  148PROXR   C2 9388  11.575  12.951   9.648 -0.2177 -0.5982 -0.5327
  148PROXR  H21 9389  11.642  12.953   9.736  0.1378  2.5046 -0.7341
  148PROXR   C3 9390  11.615  12.868   9.533 -0.3078 -0.2056 -0.4559
  148PROXR  H31 9391  11.722  12.895   9.515 -1.3396  3.8667 -1.4681
  148PROXR  H32 9392  11.612  12.758   9.549 -0.4791 -0.2080 -0.4993
  148PROXR  H33 9393  11.558  12.881   9.439 -0.1444 -0.9168 -0.6552
  149PROXR   O1 9394  11.444  12.900   9.690  0.0662  0.3468  0.7790
  149PROXR   C1 9395  11.446  12.839   9.817  0.3950 -0.1094 -0.1440
  149PROXR  H11 9396  11.516  12.753   9.829 -0.4308 -0.4102  4.1784
  149PROXR  H13 9397  11.469  12.917   9.893 -0.9160 -0.7409  0.9360
  149PROXR   C2 9398  11.304  12.778   9.851  0.2480 -0.8271 -0.0966
  149PROXR  H21 9399  11.287  12.695   9.779 -3.8649  0.3924 -0.7813
  149PROXR   C3 9400  11.191  12.873   9.836  0.1318  0.0979 -0.4140
  149PROXR  H31 9401  11.173  12.894   9.728 -1.4234 -1.3297 -0.4814
  149PROXR  H32 9402  11.098  12.821   9.869  0.7639 -1.2931 -0.7334
  149PROXR  H33 9403  11.219  12.966   9.890  2.0108 -0.6713 -0.0103
  150PROXS   O1 9404  11.294  12.728   9.988  0.0513 -0.5046 -0.1975
  150PROXS   C1 9405  11.320  12.585   9.997 -0.0718 -0.5344  0.0024
  150PROXS  H11 9406  11.245  12.534   9.934 -1.4397  1.2273  0.1334
  150PROXS  H13 9407  11.425  12.564   9.965 -0.1435  0.7257 -1.1247
  150PROXS   C2 9408  11.304  12.529  10.141 -0.6698 -0.0686  0.5469
  150PROXS  H21 9409  11.358  12.596  10.212 -0.9147  1.6328 -0.7772
  150PROXS   C3 9410  11.363  12.396  10.133  0.1637 -0.1691  0.4870
  150PROXS  H31 9411  11.458  12.404  10.076 -0.7719  1.9758 -0.9151
  150PROXS  H32 9412  11.396  12.360  10.233  1.1281  0.8916  0.5665
  150PROXS  H33 9413  11.289  12.328  10.085 -0.6683  1.5048 -0.7195
  151PROXR   O1 9414  11.169  12.513  10.176 -0.0479  0.3866  0.0906
  151PROXR   C1 9415  11.111  12.637  10.216  0.5141  0.3331 -0.5060
  151PROXR  H11 9416  11.170  12.680  10.300  0.4859  0.7887 -0.7199
  151PROXR  H13 9417  11.123  12.715  10.138 -0.8471  0.1249 -0.9396
  151PROXR   C2 9418  10.960  12.633  10.268  0.4566  0.7322  0.9513
  151PROXR  H21 9419  10.944  12.551  10.341  1.3376  0.7889  1.2199
  151PROXR   C3 9420  10.870  12.600  10.146 -0.7005  0.8863 -0.2398
  151PROXR  H31 9421  10.765  12.591  10.182  0.1503 -1.9360  1.8630
  151PROXR  H32 9422  10.879  12.690  10.082 -0.2922  0.2935 -1.0347
  151PROXR  H33 9423  10.898  12.511  10.086 -2.6857 -0.5048  0.7786
  152PROXR   O1 9424  10.925  12.756  10.321  0.0749 -0.4640  0.4730
  152PROXR   C1 9425  10.793  12.764  10.368  0.5113 -0.0646 -0.8418
  152PROXR  H11 9426  10.719  12.766  10.285 -0.9787 -0.4012  0.4401
  152PROXR  H13 9427  10.776  12.679  10.437 -0.1161  0.2655 -0.5924
  152PROXR   C2 9428  10.765  12.900  10.446 -0.2908  0.4073 -0.5356
  152PROXR  H21 9429  10.830  12.908  10.536 -0.9830 -0.0166  0.0075
  152PROXR   C3 9430  10.621  12.910  10.480  0.3212 -0.3291  0.5028
  152PROXR  H31 9431  10.598  13.014  10.509 -0.0203  0.1852 -1.4538
  152PROXR  H32 9432  10.550  12.882  10.398 -0.2159 -1.1738  1.2296
  152PROXR  H33 9433  10.591  12.833  10.555 -1.0478 -0.0173  0.3114
  153PROXR   O1 9434  10.792  13.007  10.359  0.1640  0.1031 -0.6833
  153PROXR   C1 9435  10.921  13.059  10.377 -0.3834  0.1767  0.9139
  153PROXR  H11 9436  10.927  13.122  10.468  0.5392  0.1801  0.8653
  153PROXR  H13 9437  10.988  12.972  10.395 -1.7918 -0.8299  1.4336
  153PROXR   C2 9438  10.965  13.132  10.245  0.1280 -0.0667 -0.2966
  153PROXR  H21 9439  10.884  13.203  10.217  0.1273  1.0875  2.3725
  153PROXR   C3 9440  10.992  13.033  10.133 -0.4783  0.6712 -0.2958
  153PROXR  H31 9441  10.914  12.954  10.131 -0.9732  1.1598 -1.8291
  153PROXR  H32 9442  11.007  13.083  10.035  1.0492  1.5176  0.3438
  153PROXR  H33 9443  11.084  12.982  10.170 -2.5586 -1.5212  2.2922
  154PROXS   O1 9444  11.089  13.198  10.274 -0.2859  0.0441 -0.0647
  154PROXS   C1 9445  11.115  13.315  10.196 -0.4326 -0.2274 -0.4463
  154PROXS  H11 9446  11.109  13.291  10.087 -0.5749 -2.0347 -0.0649
  154PROXS  H13 9447  11.040  13.395  10.213 -0.3361 -0.2775  0.2153
  154PROXS   C2 9448  11.260  13.370  10.211  0.4983 -1.0634  0.3234
  154PROXS  H21 9449  11.340  13.293  10.212  3.2904  1.6456  1.0121
  154PROXS   C3 9450  11.281  13.433  10.349 -0.7384  0.1450 -0.6214
  154PROXS  H31 9451  11.264  13.363  10.434  1.8834  0.2243  0.0559
  154PROXS  H32 9452  11.385  13.471  10.352 -0.5430 -0.4592  0.6971
  154PROXS  H33 9453  11.223  13.525  10.369 -0.4753  0.1286  0.2370
  155PROXR   O1 9454  11.281  13.457  10.102 -0.1734 -0.0118  0.3020
  155PROXR   C1 9455  11.412  13.518  10.085  0.1103 -0.4777 -0.8636
  155PROXR  H11 9456  11.442  13.583  10.170  0.1660  0.2543 -1.4252
  155PROXR  H13 9457  11.486  13.437  10.074 -1.2112 -2.1853  1.7472
  155PROXR   C2 9458  11.410  13.612   9.960  0.2557  1.6074  0.0971
  155PROXR  H21 9459  11.344  13.700   9.978 -1.7091  0.2261  0.0130
  155PROXR   C3 9460  11.371  13.521   9.844 -0.6601 -0.0526  0.7431
  155PROXR  H31 9461  11.384  13.572   9.746  2.3865 -2.3244 -0.1951
  155PROXR  H32 9462  11.441  13.435   9.840  1.6838  1.7538 -1.8352
  155PROXR  H33 9463  11.265  13.492   9.863 -1.5070  2.5250  0.3921
  156PROXS   O1 9464  11.549  13.645   9.932  0.1638  0.1381  0.3121
  156PROXS   C1 9465  11.560  13.763   9.860 -0.5398 -0.1352 -0.2406
  156PROXS  H11 9466  11.516  13.748   9.759  0.5907  1.1466 -0.9486
  156PROXS  H13 9467  11.512  13.838   9.927 -1.3346 -0.3401 -0.5642
  156PROXS   C2 9468  11.711  13.781   9.839 -0.8085  0.3252  0.2467
  156PROXS  H21 9469  11.752  13.697   9.779 -0.9763  0.1067  0.4357
  156PROXS   C3 9470  11.788  13.793   9.967 -0.3368 -0.6598 -0.3549
  156PROXS  H31 9471  11.790  13.701  10.030  0.5043 -1.6985 -1.8554
  156PROXS  H32 9472  11.896  13.812   9.951 -0.4083  1.8810  1.5050
  156PROXS  H33 9473  11.758  13.879  10.031  0.6791  0.2838 -1.1343
  157PROXS   O1 9474  11.736  13.909   9.779 -0.1028 -0.1209 -0.0953
  157PROXS   C1 9475  11.857  13.920   9.702 -0.3140 -0.4022 -0.1737
  157PROXS  H11 9476  11.939  13.865   9.754  0.8880  1.0935 -0.4260
  157PROXS  H13 9477  11.834  13.861   9.611 -0.8314 -2.7773  1.4145
  157PROXS   C2 9478  11.892  14.067   9.671 -0.5926 -0.6272 -0.0617
  157PROXS  H21 9479  11.914  14.115   9.769 -0.4733 -0.4277 -0.1858
  157PROXS   C3 9480  11.790  14.146   9.591  0.0850  0.1919 -0.1406
  157PROXS  H31 9481  11.830  14.247   9.569 -0.6706  0.3106 -1.0275
  157PROXS  H32 9482  11.774  14.101   9.490 -1.7328 -0.3511  0.3465
  157PROXS  H33 9483  11.690  14.165   9.635  0.1313 -0.2524  0.1657
  158PROXR   O1 9484  12.006  14.083   9.579  0.4146  0.0921 -0.7337
  158PROXR   C1 9485  12.129  14.072   9.654 -0.3716  0.6116  0.1652
  158PROXR  H11 9486  12.127  14.155   9.729 -2.4069  0.2035  0.6222
  158PROXR  H13 9487  12.144  13.977   9.710 -0.0771  1.9116  2.4316
  158PROXR   C2 9488  12.255  14.091   9.561  0.6955 -0.3205 -0.1050
  158PROXR  H21 9489  12.231  14.178   9.497 -0.5562 -0.8571 -0.3872
  158PROXR   C3 9490  12.272  13.973   9.469  0.0598 -0.6224 -0.3766
  158PROXR  H31 9491  12.273  13.879   9.528  0.8443  1.1464  2.6868
  158PROXR  H32 9492  12.184  13.976   9.401 -0.3862  1.3188  0.2217
  158PROXR  H33 9493  12.367  13.984   9.414  0.7727  3.5877  1.2762
  159PROXR   O1 9494  12.362  14.117   9.646 -0.8372 -0.4656  0.3084
  159PROXR   C1 9495  12.482  14.164   9.580  0.1405 -0.6835  0.4046
  159PROXR  H11 9496  12.532  14.086   9.520  0.8576 -0.1296  0.2598
  159PROXR  H13 9497  12.448  14.242   9.508 -0.5851 -1.4575 -0.1039
  159PROXR   C2 9498  12.579  14.227   9.688  0.9821  0.0422  0.6308
  159PROXR  H21 9499  12.577  14.152   9.771  1.0235  0.2590  0.8272
  159PROXR   C3 9500  12.524  14.366   9.737 -0.2024  0.3621  0.0184
  159PROXR  H31 9501  12.519  14.436   9.651  1.8467  0.7230  0.1554
  159PROXR  H32 9502  12.429  14.345   9.791  0.4328 -1.6760  0.4569
  159PROXR  H33 9503  12.595  14.402   9.814  1.2575 -1.4405 -0.4041
  160PROXS   O1 9504  12.706  14.239   9.637 -0.3051  0.1052  0.4724
  160PROXS   C1 9505  12.773  14.122   9.627  0.2157  0.2963 -0.3051
  160PROXS  H11 9506  12.780  14.067   9.723  0.7104  0.2016 -0.3914
  160PROXS  H13 9507  12.730  14.044   9.561  1.5450 -1.0976  0.3993
  160PROXS   C2 9508  12.918  14.151   9.570  0.4744  0.3155 -0.2961
  160PROXS  H21 9509  12.959  14.231   9.634 -1.8216  1.2138  0.1467
  160PROXS   C3 9510  12.928  14.189   9.421 -0.5609  0.9572 -0.3667
  160PROXS  H31 9511  12.893  14.289   9.388  2.1226  1.9249 -0.5006
  160PROXS  H32 9512  13.036  14.194   9.396 -0.4075 -1.3248 -0.3464
  160PROXS  H33 9513  12.876  14.113   9.358 -0.8553  1.6760 -1.0085
  161PROXR   O1 9514  12.991  14.026   9.578 -0.5135 -0.0366  0.5495
  161PROXR   C1 9515  13.101  14.040   9.668 -0.0752  0.1778 -0.0011
  161PROXR  H11 9516  13.188  14.074   9.607 -0.0477  2.3621  1.1642
  161PROXR  H13 9517  13.072  14.112   9.748  0.4180 -1.2373  1.5116
  161PROXR   C2 9518  13.131  13.902   9.731  0.3031 -0.2146  0.1199
  161PROXR  H21 9519  13.048  13.883   9.802  1.1793  0.4475  1.3517
  161PROXR   C3 9520  13.264  13.905   9.812 -0.3009  0.1776  0.1889
  161PROXR  H31 9521  13.297  13.804   9.842  0.7340 -0.4943 -2.7901
  161PROXR  H32 9522  13.338  13.951   9.743 -0.9948  0.3063 -0.4797
  161PROXR  H33 9523  13.253  13.969   9.902  0.2366 -0.1890  0.5200
  162PROXR   O1 9524  13.129  13.802   9.630 -0.1503  0.0349 -0.0610
  162PROXR   C1 9525  13.000  13.737   9.628  0.7085 -0.5327 -0.0755
  162PROXR  H11 9526  12.988  13.678   9.722 -1.4073  0.3282  0.2529
  162PROXR  H13 9527  12.919  13.814   9.626  1.8860  0.9239  2.6283
  162PROXR   C2 9528  12.983  13.639   9.512  0.7706 -0.0808  0.3804
  162PROXR  H21 9529  13.068  13.569   9.531  2.6789  1.3158 -2.2627
  162PROXR   C3 9530  13.017  13.695   9.378  0.4688 -0.3633  0.7484
  162PROXR  H31 9531  13.104  13.763   9.393  1.4608 -0.9291 -1.8165
  162PROXR  H32 9532  13.047  13.617   9.304  2.2871 -1.2157  2.2898
  162PROXR  H33 9533  12.933  13.755   9.338  1.7659  0.7490 -0.4230
  163PROXS   O1 9534  12.854  13.576   9.514  0.3816  0.8186  0.2378
  163PROXS   C1 9535  12.851  13.451   9.449  0.7331 -0.1881  0.0248
  163PROXS  H11 9536  12.815  13.478   9.348  0.0725 -0.2220  0.2441
  163PROXS  H13 9537  12.953  13.410   9.437  1.5023  1.3745  1.0074
  163PROXS   C2 9538  12.758  13.359   9.523 -0.4674  0.5928 -0.7036
  163PROXS  H21 9539  12.655  13.401   9.527 -0.6275  0.0872  1.9329
  163PROXS   C3 9540  12.793  13.346   9.666  0.4556  0.8581 -0.4364
  163PROXS  H31 9541  12.724  13.277   9.721  2.0376 -1.8465 -1.6741
  163PROXS  H32 9542  12.894  13.301   9.666 -0.5482 -1.8367  2.4769
  163PROXS  H33 9543  12.801  13.449   9.707  0.8160  0.6315  0.0748
  164PROXR   O1 9544  12.752  13.223   9.469 -0.3040 -0.2544 -0.2831
  164PROXR   C1 9545  12.712  13.227   9.331 -0.0828  0.7399  0.4825
  164PROXR  H11 9546  12.613  13.274   9.310 -0.4965 -1.0798 -2.0747
  164PROXR  H13 9547  12.792  13.265   9.264  0.3084 -1.1549 -0.1784
  164PROXR   C2 9548  12.706  13.079   9.281  0.4974  0.2462  0.0968
  164PROXR  H21 9549  12.616  13.028   9.324 -0.4627 -0.5449 -2.6577
  164PROXR   C3 9550  12.829  13.002   9.319  0.1021 -0.3476  0.3030
  164PROXR  H31 9551  12.855  13.011   9.426  2.3047  0.3993 -0.2385
  164PROXR  H32 9552  12.823  12.894   9.294  1.7212 -0.1808 -1.0129
  164PROXR  H33 9553  12.918  13.045   9.267 -0.8503 -0.2254 -1.2915
  165PROXR   O1 9554  12.664  13.085   9.148  0.1222  0.4339 -0.1559
  165PROXR   C1 9555  12.641  12.950   9.096  0.3564  0.7094 -0.3799
  165PROXR  H11 9556  12.742  12.908   9.077  1.0182  1.0975  2.0025
  165PROXR  H13 9557  12.582  12.885   9.163  0.5965 -0.2269 -1.0520
  165PROXR   C2 9558  12.563  12.947   8.953 -0.3240  0.1659 -0.4425
  165PROXR  H21 9559  12.627  12.996   8.878  1.7504 -1.6497  0.0389
  165PROXR   C3 9560  12.423  13.021   8.957  0.3137 -0.4737 -0.0254
  165PROXR  H31 9561  12.376  13.020   9.058  0.1378  0.7064 -0.0793
  165PROXR  H32 9562  12.446  13.124   8.925  0.9802 -0.4571  0.4813
  165PROXR  H33 9563  12.350  12.980   8.884 -1.9428  0.7012  1.4550
  166ETHOX   O1 9564  12.551  12.805   8.920  0.1883 -0.1113 -0.4994
  166ETHOX   C1 9565  12.574  12.768   8.783  0.6897  0.4869  0.0845
  166ETHOX  H11 9566  12.677  12.798   8.753  0.4247  1.4417  0.1037
  166ETHOX  H13 9567  12.512  12.832   8.716  0.3049 -1.5180 -1.5910
  166ETHOX   C2 9568  12.521  12.627   8.758 -0.3464  0.3036 -0.0950
  166ETHOX  H21 9569  12.430  12.611   8.820  1.0852  0.4686  2.1368
  166ETHOX  H23 9570  12.597  12.557   8.799  0.0302  1.0122  0.4343
  167ETHOX   O1 9571  12.493  12.589   8.623 -0.5411  0.0221  0.3908
  167ETHOX   C1 9572  12.504  12.445   8.608 -0.6166 -0.0358 -0.2764
  167ETHOX  H11 9573  12.613  12.427   8.623 -0.9688 -0.9490  1.4135
  167ETHOX  H13 9574  12.442  12.386   8.678 -0.5324 -0.6934 -0.7376
  167ETHOX   C2 9575  12.461  12.422   8.456 -0.1497  0.5260 -0.2006
  167ETHOX  H21 9576  12.482  12.319   8.422  2.0000  0.7866  0.2210
  167ETHOX  H23 9577  12.536  12.488   8.408  0.2310 -1.8726 -3.1343
  168ETHOX   O1 9578  12.329  12.464   8.439 -0.0294  0.0327  0.2400
  168ETHOX   C1 9579  12.289  12.473   8.299 -0.6847 -0.3297  0.0676
  168ETHOX  H11 9580  12.296  12.374   8.250  1.3883 -0.0210 -0.3235
  168ETHOX  H13 9581  12.351  12.552   8.251  0.6940 -1.3630  0.0933
  168ETHOX   C2 9582  12.138  12.503   8.280  0.2529 -1.7395 -0.2336
  168ETHOX  H21 9583  12.079  12.439   8.349  0.9182 -1.7421  0.3406
  168ETHOX  H23 9584  12.102  12.493   8.175  0.8520 -2.7500 -0.3541
  169ETHOX   O1 9585  12.128  12.650   8.324  0.2396  0.1775  0.1174
  169ETHOX   C1 9586  11.995  12.687   8.336 -0.1779  0.8953 -0.4066
  169ETHOX  H11 9587  11.952  12.668   8.235 -0.8907 -1.4708  0.2674
  169ETHOX  H13 9588  11.946  12.614   8.404 -0.0243  1.4677  0.3218
  169ETHOX   C2 9589  11.967  12.823   8.384 -0.2423  0.2353 -0.7760
  169ETHOX  H21 9590  11.873  12.870   8.348 -0.3198  2.0989  1.5914
  169ETHOX  H23 9591  12.053  12.889   8.358  0.5086 -0.3845  0.0990
  170ETHOX   O1 9592  11.970  12.830   8.534 -0.2250 -0.1260  0.3988
  170ETHOX   C1 9593  11.974  12.965   8.576 -0.7136 -0.0028  0.0898
  170ETHOX  H11 9594  11.958  12.971   8.686 -2.8054 -1.5604 -0.0860
  170ETHOX  H13 9595  11.895  13.023   8.524 -0.0592 -0.2573 -1.2360
  170ETHOX   C2 9596  12.107  13.052   8.575  0.4703 -0.3288 -0.2636
  170ETHOX  H21 9597  12.195  12.994   8.609 -0.7860 -0.9598  2.1453
  170ETHOX  H23 9598  12.092  13.136   8.646 -0.7950 -1.7971  1.2634
  171ETHOX   O1 9599  12.136  13.119   8.449 -0.3647 -0.1040 -0.1478
  171ETHOX   C1 9600  12.260  13.193   8.446  0.6161 -0.3607  0.0219
  171ETHOX  H11 9601  12.341  13.137   8.497 -0.5983 -0.2889  2.1451
  171ETHOX  H13 9602  12.277  13.217   8.339 -1.1425  2.3719  0.2303
  171ETHOX   C2 9603  12.247  13.335   8.495  0.5194 -0.9216 -0.6582
  171ETHOX  H21 9604  12.143  13.371   8.479  1.1450  1.1615 -0.3292
  171ETHOX  H23 9605  12.318  13.403   8.445 -1.2280  0.9035 -0.7539
  172ETHOX   O1 9606  12.261  13.334   8.636  0.1449  0.4725  0.1678
  172ETHOX   C1 9607  12.261  13.462   8.679 -0.1414  0.8402 -0.8925
  172ETHOX  H11 9608  12.161  13.501   8.654 -0.8597 -0.7837 -0.6689
  172ETHOX  H13 9609  12.338  13.522   8.626 -0.7819  0.8612 -1.8160
  172ETHOX   C2 9610  12.276  13.470   8.832  0.8211  0.4017  0.7856
  172ETHOX  H21 9611  12.226  13.382   8.878  0.1885  1.1640  1.5985
  172ETHOX  H23 9612  12.235  13.565   8.874  1.2857  1.3365 -0.7940
  173ETHOX   O1 9613  12.413  13.447   8.856 -0.0054  0.3312 -0.5162
  173ETHOX   C1 9614  12.451  13.480   8.989  0.7667 -0.3214  0.6397
  173ETHOX  H11 9615  12.430  13.587   9.011  0.2609 -0.4583  0.8450
  173ETHOX  H13 9616  12.385  13.430   9.063 -1.9340  0.0588 -1.3479
  173ETHOX   C2 9617  12.594  13.455   9.019 -0.1754  0.0664  0.6326
  173ETHOX  H21 9618  12.610  13.468   9.128 -0.3523  0.8600  0.5674
  173ETHOX  H23 9619  12.618  13.348   9.000  1.5843  0.7213 -1.2420
  174ETHOX   O1 9620  12.682  13.550   8.963 -0.8160 -0.0704  0.1827
  174ETHOX   C1 9621  12.819  13.521   9.000 -0.6550 -0.2535 -0.7556
  174ETHOX  H11 9622  12.826  13.520   9.111 -1.7977 -0.5400 -0.6755
  174ETHOX  H13 9623  12.852  13.426   8.955  0.4303 -0.5816  0.6633
  174ETHOX   C2 9624  12.914  13.637   8.954  0.5748  0.6864 -0.2755
  174ETHOX  H21 9625  12.844  13.723   8.951 -1.2929 -0.6564  1.6927
  174ETHOX  H23 9626  12.941  13.626   8.847  0.6349 -0.4964 -0.1537
  175ETHOX   O1 9627  13.029  13.668   9.042  0.5775 -0.2808 -0.5226
  175ETHOX   C1 9628  13.098  13.782   9.007  0.7394 -0.9500  0.0553
  175ETHOX  H11 9629  13.174  13.803   9.084  1.4561  2.3472 -1.3688
  175ETHOX  H13 9630  13.154  13.768   8.912 -0.1465  1.7704 -0.9733
  175ETHOX   C2 9631  13.003  13.907   9.005  0.3085 -0.1928  0.2889
  175ETHOX  H21 9632  13.069  13.994   9.026  1.5452 -1.3504  1.3626
  175ETHOX  H23 9633  12.928  13.897   9.087 -1.2539  1.0492 -0.9272
  176ETHOX   O1 9634  12.933  13.947   8.888 -0.8465  0.1339 -0.6979
  176ETHOX   C1 9635  12.860  14.066   8.912 -0.6353 -0.3835  0.9762
  176ETHOX  H11 9636  12.795  14.060   9.001 -0.0099 -1.0156  1.4016
  176ETHOX  H13 9637  12.941  14.136   8.939 -1.8663  0.7915  1.7085
  176ETHOX   C2 9638  12.771  14.096   8.788 -0.2442 -0.2676  0.4394
  176ETHOX  H21 9639  12.705  14.183   8.808  0.9684 -0.0088  4.0311
  176ETHOX  H23 9640  12.711  14.006   8.763 -0.9885  0.5534 -0.8637
  177ETHOX   O1 9641  12.848  14.140   8.674 -0.3239  0.3968 -0.2566
  177ETHOX   C1 9642  12.762  14.203   8.573 -0.4549 -0.1578  0.3539
  177ETHOX  H11 9643  12.721  14.299   8.612 -2.8554 -0.8470 -0.2842
  177ETHOX  H13 9644  12.684  14.133   8.537  2.0314 -2.3216 -1.1516
  177ETHOX   C2 9645  12.831  14.231   8.433 -0.0596 -0.4558 -0.5911
  177ETHOX  H21 9646  12.920  14.294   8.451  1.6309 -2.7663 -0.3216
  177ETHOX  H23 9647  12.756  14.294   8.380  0.4094  1.6883  1.1442
  178ETHOX   O1 9648  12.875  14.111   8.368 -0.3397  0.1923 -0.4148
  178ETHOX   C1 9649  12.926  14.141   8.232  0.1820 -0.1573 -0.3232
  178ETHOX  H11 9650  12.890  14.060   8.165  3.5539 -0.0443 -2.4879
  178ETHOX  H13 9651  12.882  14.235   8.193 -2.4500 -1.7323 -1.3875
  178ETHOX   C2 9652  13.079  14.152   8.229 -0.2317  0.1178 -0.5926
  178ETHOX  H21 9653  13.106  14.143   8.121  2.2178  0.0431 -0.0228
  178ETHOX  H23 9654  13.110  14.060   8.283  0.1137  1.0292  0.8100
  179ETHOX   O1 9655  13.146  14.260   8.300  0.0148  0.2487  0.5488
  179ETHOX   C1 9656  13.130  14.386   8.234  0.9193  0.1349  0.0576
  179ETHOX  H11 9657  13.021  14.407   8.221  0.8866 -0.3384 -0.4575
  179ETHOX  H13 9658  13.178  14.396   8.134 -0.6897 -0.5521 -0.8277
  179ETHOX   C2 9659  13.180  14.502   8.318  0.2680  0.6195  0.0586
  179ETHOX  H21 9660  13.219  14.584   8.254 -3.2238  1.9588 -0.5554
  179ETHOX  H23 9661  13.279  14.479   8.363  1.3993  1.4134 -1.9181
  180ETHOX   O1 9662  13.091  14.559   8.418 -0.1824  0.4659  0.3805
  180ETHOX   C1 9663  13.091  14.485   8.541  0.2053 -0.1439 -0.2508
  180ETHOX  H11 9664  13.095  14.377   8.514  2.5892 -0.4144  0.9650
  180ETHOX  H13 9665  13.182  14.482   8.605  1.5358 -4.4757 -1.9791
  180ETHOX   C2 9666  12.965  14.507   8.626 -1.0506  0.2791  0.8865
  180ETHOX  H21 9667  12.963  14.415   8.689 -1.5189  0.9826  1.9232
  180ETHOX  H23 9668  12.875  14.522   8.563 -1.6624  0.1967  1.7192
  181ETHOX   O1 9669  12.980  14.606   8.720  0.5205  0.2785 -0.2196
  181ETHOX   C1 9670  12.864  14.619   8.803 -0.8597 -0.1844 -0.9270
  181ETHOX  H11 9671  12.904  14.606   8.906  2.1689  0.2331 -1.9537
  181ETHOX  H13 9672  12.779  14.548   8.791 -1.7304  0.2707  1.7631
  181ETHOX   C2 9673  12.791  14.756   8.788  0.4402  0.7230 -0.1334
  181ETHOX  H21 9674  12.863  14.841   8.786  0.7215  0.6349  2.6379
  181ETHOX  H23 9675  12.739  14.769   8.885  0.9489  0.0674  0.2378
  182ETHOX   O1 9676  12.705  14.763   8.671 -0.4761 -0.1699 -0.5161
  182ETHOX   C1 9677  12.628  14.884   8.658  0.3487 -0.7467 -0.4884
  182ETHOX  H11 9678  12.620  14.937   8.756  1.5511  2.0389 -1.7911
  182ETHOX  H13 9679  12.682  14.952   8.590 -0.3021 -1.1335 -1.4097
  182ETHOX   C2 9680  12.496  14.872   8.590 -0.5446 -0.0379  0.0135
  182ETHOX  H21 9681  12.445  14.970   8.590  0.2731  0.4202  1.4839
  182ETHOX  H23 9682  12.425  14.803   8.641  1.3324 -2.1608 -0.0815
  183ETHOX   O1 9683  12.504  14.835   8.453 -0.0502  0.3100  0.1203
  183ETHOX   C1 9684  12.502  14.694   8.427 -0.2159 -0.3251  0.7052
  183ETHOX  H11 9685  12.405  14.657   8.466 -1.9629  3.0820 -0.0392
  183ETHOX  H13 9686  12.580  14.640   8.485 -0.3991 -2.3881 -0.8757
  183ETHOX   C2 9687  12.534  14.660   8.281 -0.3356  0.0848 -0.3718
  183ETHOX  H21 9688  12.531  14.549   8.276 -1.6332 -0.0103  1.5527
  183ETHOX  H23 9689  12.637  14.695   8.259  0.5903 -3.3709 -2.1930
  184ETHOX   O1 9690  12.441  14.724   8.193 -0.0723  0.2047  0.3698
  184ETHOX   C1 9691  12.423  14.658   8.067  0.7553  0.2748 -1.1214
  184ETHOX  H11 9692  12.393  14.554   8.091 -0.4760  1.0757  1.0171
  184ETHOX  H13 9693  12.338  14.707   8.015  2.2954  2.8560 -1.3831
  184ETHOX   C2 9694  12.546  14.684   7.978 -0.4019 -0.1976 -0.3759
  184ETHOX  H21 9695  12.526  14.626   7.886 -1.5809 -1.4935  0.6373
  184ETHOX  H23 9696  12.639  14.650   8.029  0.4531  0.2991 -1.5587
  185ETHOX   O1 9697  12.562  14.822   7.956 -0.6467 -0.2082 -0.2428
  185ETHOX   C1 9698  12.701  14.851   7.920 -0.3309  0.3893 -0.0678
  185ETHOX  H11 9699  12.725  14.960   7.921  1.1368  0.0805 -0.3671
  185ETHOX  H13 9700  12.763  14.809   8.001 -0.5003 -0.6593 -0.4737
  185ETHOX   C2 9701  12.754  14.790   7.792  0.7808 -0.0430  0.3678
  185ETHOX  H21 9702  12.731  14.681   7.799  1.9574 -0.5593 -2.3885
  185ETHOX  H23 9703  12.863  14.803   7.780  1.0837 -1.7875  0.8611
  186ETHOX   O1 9704  12.691  14.851   7.676 -0.3558  0.3890 -0.1034
  186ETHOX   C1 9705  12.745  14.784   7.557  0.6931 -0.0975 -1.1103
  186ETHOX  H11 9706  12.856  14.785   7.563  0.6480 -1.4409  1.4146
  186ETHOX  H13 9707  12.722  14.676   7.564 -1.0271  0.3387  1.0742
  186ETHOX   C2 9708  12.686  14.856   7.437  0.9707  0.3939 -0.6188
  186ETHOX  H21 9709  12.737  14.825   7.343  1.5884  2.5347 -1.0601
  186ETHOX  H23 9710  12.699  14.963   7.463  0.4271  0.4258 -0.4630
  187ETHOX   O1 9711  12.547  14.831   7.417 -0.1638  0.0848 -0.7554
  187ETHOX   C1 9712  12.487  14.921   7.322  0.2297 -0.0692  1.1274
  187ETHOX  H11 9713  12.465  15.020   7.366 -0.1750  0.6569 -0.6393
  187ETHOX  H13 9714  12.559  14.939   7.239 -2.2286  0.6481 -0.9908
  187ETHOX   C2 9715  12.354  14.856   7.261 -1.0060  0.1368  0.4071
  187ETHOX  H21 9716  12.300  14.946   7.222  2.6787  2.3509 -0.0912
  187ETHOX  H23 9717  12.303  14.795   7.338  0.4266 -1.2329  0.2972
  188ETHOX   O1 9718  12.380  14.784   7.141  0.1748 -0.2261 -0.0138
  188ETHOX   C1 9719  12.247  14.750   7.082 -0.4881 -0.2290 -0.5457
  188ETHOX  H11 9720  12.212  14.848   7.045  1.9906  0.0824 -2.3327
  188ETHOX  H13 9721  12.181  14.716   7.165  0.8402 -0.7172  0.3492
  188ETHOX   C2 9722  12.240  14.647   6.976 -0.6913  0.1293  0.0448
  188ETHOX  H21 9723  12.134  14.619   6.959  0.1175 -2.2946 -1.4499
  188ETHOX  H23 9724  12.300  14.561   7.012 -0.2773 -1.1155 -3.2556
  189ETHOX   O1 9725  12.293  14.713   6.865 -0.3763  0.0123 -0.2868
  189ETHOX   C1 9726  12.311  14.625   6.759 -0.6972  0.5177 -0.0266
  189ETHOX  H11 9727  12.355  14.530   6.795 -1.5333  0.0777 -0.1436
  189ETHOX  H13 9728  12.217  14.592   6.710 -0.0143 -1.9262  0.1831
  189ETHOX   C2 9729  12.391  14.690   6.646 -0.2252 -0.0376  0.1470
  189ETHOX  H21 9730  12.336  14.773   6.596  0.7187  0.5262  0.0232
  189ETHOX  H23 9731  12.417  14.610   6.574  0.2641 -0.9852  1.3359
  190ETHOX   O1 9732  12.526  14.725   6.688  0.9107  0.3436 -0.4916
  190ETHOX   C1 9733  12.585  14.807   6.587  0.4403 -0.2583 -0.2766
  190ETHOX  H11 9734  12.512  14.890   6.574 -1.4950 -2.1012 -1.9990
  190ETHOX  H13 9735  12.573  14.751   6.492 -2.6381  1.1488 -0.8444
  190ETHOX   C2 9736  12.732  14.839   6.595 -0.1546 -0.1333  0.4021
  190ETHOX  H21 9737  12.759  14.892   6.501  1.0572  0.0838  0.8590
  190ETHOX  H23 9738  12.803  14.755   6.605  1.4260  0.7109 -2.5451
  191ETHOX   O1 9739  12.754  14.941   6.699  0.4003 -0.1507  0.2994
  191ETHOX   C1 9740  12.872  15.015   6.672 -0.5323 -0.6983 -0.1149
  191ETHOX  H11 9741  12.958  14.946   6.664  1.6870  1.9597 -0.9573
  191ETHOX  H13 9742  12.873  15.083   6.584  0.7240  0.3740  0.6840
  191ETHOX   C2 9743  12.885  15.108   6.794  0.5645 -1.1488  0.0852
  191ETHOX  H21 9744  12.988  15.146   6.810  0.2048 -0.6056  1.1764
  191ETHOX  H23 9745  12.870  15.053   6.889 -0.5555  1.6477  1.6480
  192ETHOX   O1 9746  12.805  15.222   6.784 -0.0474  0.0948  0.0791
  192ETHOX   C1 9747  12.837  15.319   6.883 -0.4930 -0.5188 -0.1115
  192ETHOX  H11 9748  12.782  15.413   6.861 -1.0924 -0.8878 -0.2105
  192ETHOX  H13 9749  12.945  15.344   6.877 -0.5744 -0.1090  0.1176
  192ETHOX   C2 9750  12.788  15.285   7.029  0.5981  0.6922 -0.3658
  192ETHOX  H21 9751  12.708  15.208   7.018 -0.7859  2.3010 -2.1125
  192ETHOX  H23 9752  12.750  15.378   7.076  1.8369  0.8778  0.2989
  193ETHOX   O1 9753  12.885  15.226   7.112  0.2474 -0.3502 -0.1401
  193ETHOX   C1 9754  12.845  15.230   7.248  0.1810  0.0872 -0.0375
  193ETHOX  H11 9755  12.826  15.337   7.269  0.5644  0.1912 -0.2192
  193ETHOX  H13 9756  12.746  15.179   7.258 -0.6598  1.7215  0.3444
  193ETHOX   C2 9757  12.930  15.175   7.362  0.4721 -0.7256  0.2589
  193ETHOX  H21 9758  12.878  15.201   7.457 -2.1843  1.8422 -1.7099
  193ETHOX  H23 9759  13.021  15.237   7.347 -1.1635  2.0159  1.0347
  194ETHOX   O1 9760  12.963  15.034   7.367  1.0709  0.1579 -0.1978
  194ETHOX   C1 9761  13.057  14.996   7.268  0.2176 -0.9451  0.0713
  194ETHOX  H11 9762  13.136  15.072   7.246  0.2141 -1.0773 -0.4200
  194ETHOX  H13 9763  12.997  14.988   7.175  0.4173  2.2479 -0.4385
  194ETHOX   C2 9764  13.111  14.854   7.288 -0.3048 -0.8383  0.0063
  194ETHOX  H21 9765  13.174  14.830   7.200  0.7861  2.5440 -0.2790
  194ETHOX  H23 9766  13.019  14.794   7.299 -1.0547  0.4412  1.0178
  195ETHOX   O1 9767  13.190  14.837   7.410 -0.5184  0.5059  0.3177
  195ETHOX   C1 9768  13.215  14.699   7.435  0.2172 -0.1417 -0.3343
  195ETHOX  H11 9769  13.219  14.635   7.344 -2.6859 -0.2448 -0.4668
  195ETHOX  H13 9770  13.318  14.696   7.478  0.1694  2.6597  0.1606
  195ETHOX   C2 9771  13.117  14.647   7.543  0.4181  0.4082 -0.4355
  195ETHOX  H21 9772  13.075  14.550   7.507  0.7705 -0.3027  0.9990
  195ETHOX  H23 9773  13.038  14.722   7.561 -1.9643 -1.8768 -0.7454
  196ETHOX   O1 9774  13.193  14.622   7.662 -0.1248  0.4428 -0.3236
  196ETHOX   C1 9775  13.119  14.590   7.782  0.7732 -0.3139  0.4618
  196ETHOX  H11 9776  13.060  14.678   7.814 -0.1216 -0.4279 -0.8053
  196ETHOX  H13 9777  13.053  14.502   7.766  2.0432 -1.1814 -0.2480
  196ETHOX   C2 9778  13.225  14.566   7.894 -0.2695 -0.1218 -0.9068
  196ETHOX  H21 9779  13.178  14.567   7.994 -0.2741 -2.4737 -0.8318
  196ETHOX  H23 9780  13.291  14.656   7.894 -1.8108  1.0609  0.5769
  197ETHOX   O1 9781  13.284  14.443   7.882 -0.0586  0.0431  0.0114
  197ETHOX   C1 9782  13.395  14.424   7.970  0.2853  0.5212 -0.4267
  197ETHOX  H11 9783  13.464  14.511   7.962  2.1934 -1.0750 -3.0624
  197ETHOX  H13 9784  13.374  14.409   8.078  3.6549  0.6074  0.3587
  197ETHOX   C2 9785  13.467  14.296   7.936  0.2349  0.5220  0.2950
  197ETHOX  H21 9786  13.565  14.304   7.988 -0.2056 -0.3882  1.3065
  197ETHOX  H23 9787  13.486  14.281   7.828 -0.3124  1.6448  0.0257
  198ETHOX   O1 9788  13.405  14.178   7.979  0.1526  0.2293  0.4294
  198ETHOX   C1 9789  13.475  14.060   7.938  0.3801  0.3987  0.4344
  198ETHOX  H11 9790  13.472  14.061   7.827 -1.4363 -0.1137  0.4433
  198ETHOX  H13 9791  13.580  14.070   7.972  1.0394 -1.4821 -0.8670
  198ETHOX   C2 9792  13.414  13.939   8.001 -0.5610  0.1516  0.0256
  198ETHOX  H21 9793  13.404  13.960   8.109 -1.8248  0.5955 -0.1685
  198ETHOX  H23 9794  13.477  13.848   7.988 -1.8304 -0.5419 -1.6256
  199ETHOX   O1 9795  13.293  13.913   7.943 -0.2105 -0.1869  0.2530
  199ETHOX   C1 9796  13.241  13.796   7.990 -0.2615  0.0054 -0.0837
  199ETHOX  H11 9797  13.284  13.771   8.090 -0.4855 -0.6812 -0.1548
  199ETHOX  H13 9798  13.279  13.715   7.926 -1.4818 -1.5558  1.0778
  199ETHOX   C2 9799  13.091  13.807   7.997  0.1392  0.0534 -0.4202
  199ETHOX  H21 9800  13.046  13.897   8.045  1.0596  0.5395 -0.4480
  199ETHOX  H23 9801  13.057  13.712   8.045 -0.8197 -0.8958 -2.8273
  200ETHOX   O1 9802  13.036  13.805   7.869 -0.5192  0.6762 -0.3492
  200ETHOX   C1 9803  12.894  13.863   7.875 -0.3179  0.0579  0.3763
  200ETHOX  H11 9804  12.887  13.972   7.896 -2.6792 -0.0904  0.6542
  200ETHOX  H13 9805  12.849  13.840   7.776 -0.0718 -0.7710  0.4485
  200ETHOX   C2 9806  12.794  13.789   7.968  0.6002  0.0240  0.0784
  200ETHOX  H21 9807  12.794  13.680   7.945 -1.4731  0.0101 -0.0182
  200ETHOX  H23 9808  12.689  13.823   7.955  0.8615  1.3169  1.1890
  201ETHOX   O1 9809  12.829  13.798   8.105 -0.0250  0.2232  0.2673
  201ETHOX   C1 9810  12.765  13.693   8.178  0.6830 -0.8278 -0.1720
  201ETHOX  H11 9811  12.800  13.591   8.154 -1.7858 -2.3726  2.2121
  201ETHOX  H13 9812  12.657  13.698   8.151  0.3259  0.6217  1.3011
  201ETHOX   C2 9813  12.770  13.722   8.330 -0.3802 -0.0289  0.7788
  201ETHOX  H21 9814  12.736  13.827   8.347 -2.0316 -0.3702 -0.1877
  201ETHOX  H23 9815  12.875  13.720   8.366 -0.3246  0.6101  0.6692
  202ETHOX   O1 9816  12.698  13.628   8.405  0.2104 -0.4871 -0.1893
  202ETHOX   C1 9817  12.738  13.622   8.542  0.3765 -0.2959  0.1843
  202ETHOX  H11 9818  12.845  13.590   8.546 -0.0739 -1.7379  1.1830
  202ETHOX  H13 9819  12.731  13.717   8.599  0.2009 -0.6311  0.7281
  202ETHOX   C2 9820  12.651  13.516   8.605  0.3502 -0.0999  0.0060
  202ETHOX  H21 9821  12.543  13.543   8.603  0.9713  2.7714  1.0469
  202ETHOX  H23 9822  12.685  13.528   8.710  0.4160 -0.1339 -0.0114
  203ETHOX   O1 9823  12.671  13.377   8.569  0.2386  0.2503  0.2639
  203ETHOX   C1 9824  12.600  13.284   8.649 -0.7930 -0.2093  0.3788
  203ETHOX  H11 9825  12.493  13.313   8.639 -1.6342 -3.4928 -1.7226
  203ETHOX  H13 9826  12.633  13.291   8.754  2.1652  1.4374 -0.5477
  203ETHOX   C2 9827  12.620  13.136   8.608  0.0932 -0.6493  0.5844
  203ETHOX  H21 9828  12.627  13.125   8.497  1.8263 -2.4069  0.7951
  203ETHOX  H23 9829  12.535  13.070   8.636 -1.2421  0.3656 -0.9127
  204ETHOX   O1 9830  12.746  13.086   8.663  0.4985  0.1109  0.1657
  204ETHOX   C1 9831  12.811  12.999   8.568 -0.1285 -0.1576  0.0548
  204ETHOX  H11 9832  12.739  12.920   8.541 -0.5287 -0.2195  1.2559
  204ETHOX  H13 9833  12.837  13.059   8.477  1.7864 -1.4561 -0.3142
  204ETHOX   C2 9834  12.937  12.932   8.629 -0.1345  0.5394  0.6089
  204ETHOX  H21 9835  12.907  12.859   8.707  1.4685 -0.6571  0.1496
  204ETHOX  H23 9836  13.003  13.005   8.680 -0.8084  1.0615  0.7626
  205ETHOX   O1 9837  13.022  12.865   8.536  0.1944 -0.7159  0.5130
  205ETHOX   C1 9838  13.088  12.968   8.461 -0.2791  0.4271  0.0824
  205ETHOX  H11 9839  13.085  13.068   8.507 -0.6932 -0.1510  1.3546
  205ETHOX  H13 9840  13.040  12.976   8.361 -0.9796 -1.8698  0.1725
  205ETHOX   C2 9841  13.239  12.937   8.421  0.4844 -0.0088 -0.4102
  205ETHOX  H21 9842  13.295  13.018   8.371  1.5784 -1.3724 -1.5040
  205ETHOX  H23 9843  13.253  12.844   8.362  3.8368  0.4160 -0.4461
  206ETHOX   O1 9844  13.313  12.916   8.541 -0.0671 -0.0747 -0.1325
  206ETHOX   C1 9845  13.447  12.897   8.514 -0.1637 -0.2787 -0.5199
  206ETHOX  H11 9846  13.490  12.829   8.591 -1.8227 -0.5558  0.2155
  206ETHOX  H13 9847  13.461  12.837   8.421  1.6149 -2.4416  1.0397
  206ETHOX   C2 9848  13.534  13.022   8.514  0.1476  0.3168  0.1261
  206ETHOX  H21 9849  13.635  12.990   8.480 -0.8258 -2.3179 -0.5514
  206ETHOX  H23 9850  13.503  13.107   8.451 -0.3305  0.7156  0.8811
  207ETHOX   O1 9851  13.550  13.067   8.644 -0.2468  0.4476 -0.1849
  207ETHOX   C1 9852  13.652  13.169   8.653  0.9672  0.3599 -0.0298
  207ETHOX  H11 9853  13.624  13.254   8.588  0.7835  0.2907 -0.0423
  207ETHOX  H13 9854  13.744  13.130   8.604  0.0653 -1.0026 -0.7185
  207ETHOX   C2 9855  13.662  13.192   8.802  0.2747 -0.1176  0.0384
  207ETHOX  H21 9856  13.761  13.238   8.825 -0.0115  1.2296 -1.2819
  207ETHOX  H23 9857  13.668  13.095   8.856  1.1654 -0.8123 -1.2334
  208ETHOX   O1 9858  13.550  13.268   8.851  0.1005  0.3907  0.3551
  208ETHOX   C1 9859  13.561  13.275   8.990  0.0889 -0.7342 -0.5997
  208ETHOX  H11 9860  13.666  13.299   9.019  0.7202 -1.6603 -2.0058
  208ETHOX  H13 9861  13.493  13.357   9.023 -1.1565 -1.9553 -0.0361
  208ETHOX   C2 9862  13.514  13.155   9.070 -0.0589  0.2793 -0.7218
  208ETHOX  H21 9863  13.415  13.112   9.042 -0.2562 -0.7603  1.3865
  208ETHOX  H23 9864  13.500  13.184   9.176 -0.3290  0.0578 -0.6950
  209ETHOX   O1 9865  13.608  13.048   9.062 -0.5723 -0.2228 -0.0797
  209ETHOX   C1 9866  13.560  12.926   9.119 -0.0905 -0.9381 -0.1736
  209ETHOX  H11 9867  13.487  12.946   9.200  0.4565  0.4790  0.0129
  209ETHOX  H13 9868  13.655  12.884   9.160  0.8251  2.2406  1.3575
  209ETHOX   C2 9869  13.512  12.826   9.015 -0.0733  0.4149  0.4141
  209ETHOX  H21 9870  13.543  12.724   9.047  1.5257  0.0450 -2.0468
  209ETHOX  H23 9871  13.558  12.852   8.917 -1.3995 -0.0938 -0.3651
  210ETHOX   O1 9872  13.371  12.826   8.989  0.3941 -0.6296  0.0626
  210ETHOX   C1 9873  13.339  12.742   8.876  0.3142  0.2478 -0.2400
  210ETHOX  H11 9874  13.407  12.749   8.788  1.0150 -0.3023  0.2461
  210ETHOX  H13 9875  13.339  12.639   8.918  0.7196  0.2273 -0.2806
  210ETHOX   C2 9876  13.197  12.772   8.823 -0.5017 -0.2472 -0.4778
  210ETHOX  H21 9877  13.189  12.718   8.726 -0.8516  0.5077 -0.8837
  210ETHOX  H23 9878  13.178  12.880   8.806 -1.1130 -0.1343  0.8219
  211ETHOX   O1 9879  13.095  12.710   8.904 -0.0697 -0.7482  0.3259
  211ETHOX   C1 9880  13.044  12.801   9.001  0.2761 -0.2303 -0.2578
  211ETHOX  H11 9881  13.117  12.884   9.010 -0.6619  0.6458 -0.4951
  211ETHOX  H13 9882  12.947  12.846   8.971  0.6411  3.3967  3.2247
  211ETHOX   C2 9883  13.038  12.721   9.135  1.1334 -0.7602 -0.0774
  211ETHOX  H21 9884  13.050  12.799   9.214  0.0649  0.1858 -0.8122
  211ETHOX  H23 9885  13.110  12.637   9.138 -0.1988 -1.9482 -0.3586
  212ETHOX   O1 9886  12.908  12.662   9.146  0.7599  0.3177 -0.1175
  212ETHOX   C1 9887  12.891  12.551   9.056  0.5307  0.2390 -0.7418
  212ETHOX  H11 9888  12.873  12.587   8.952 -0.2167 -1.2917 -1.1789
  212ETHOX  H13 9889  12.983  12.489   9.049  0.9571  0.9886 -2.5036
  212ETHOX   C2 9890  12.777  12.463   9.095 -0.6760 -0.8350  0.4198
  212ETHOX  H21 9891  12.687  12.527   9.100 -1.3145 -1.6798  0.0719
  212ETHOX  H23 9892  12.786  12.423   9.198 -1.3236  0.7951  1.1375
  213ETHOX   O1 9893  12.748  12.361   9.008  0.8265 -0.0180  0.1237
  213ETHOX   C1 9894  12.643  12.278   9.064 -0.5066  0.2118  0.7458
  213ETHOX  H11 9895  12.656  12.179   9.015  1.6575  0.0645  1.4781
  213ETHOX  H13 9896  12.655  12.268   9.174 -0.5871  0.2486  0.7581
  213ETHOX   C2 9897  12.503  12.326   9.023 -0.2609  0.0439 -0.3088
  213ETHOX  H21 9898  12.449  12.229   9.017  0.5703 -0.3453 -3.9153
  213ETHOX  H23 9899  12.509  12.381   8.927 -1.7905 -0.8096 -0.9244
  214ETHOX   O1 9900  12.450  12.417   9.119 -0.9270  0.1474  0.1852
  214ETHOX   C1 9901  12.316  12.407   9.139  0.3894  0.3531 -0.1916
  214ETHOX  H11 9902  12.294  12.464   9.232 -2.4102  0.7104 -0.9825
  214ETHOX  H13 9903  12.279  12.303   9.150 -1.5365  1.1257  1.0116
  214ETHOX   C2 9904  12.242  12.491   9.038  0.1725  0.1493  0.0221
  214ETHOX  H21 9905  12.290  12.590   9.023  1.2442 -0.2202  0.8682
  214ETHOX  H23 9906  12.149  12.524   9.089 -0.7994  1.1163 -2.2324
  215ETHOX   O1 9907  12.221  12.420   8.919 -0.3640 -0.3170 -0.2918
  215ETHOX   C1 9908  12.150  12.496   8.820 -0.2981  0.5371 -0.0173
  215ETHOX  H11 9909  12.051  12.522   8.862 -1.5123 -2.2499 -0.9199
  215ETHOX  H13 9910  12.211  12.581   8.782 -1.1430  1.0714 -0.1913
  215ETHOX   C2 9911  12.132  12.404   8.688 -0.3206 -0.0809  0.1456
  215ETHOX  H21 9912  12.232  12.375   8.651 -0.1216 -0.6680  1.0892
  215ETHOX  H23 9913  12.084  12.464   8.608 -0.9899 -1.5954 -0.6214
  216ETHOX   O1 9914  12.050  12.293   8.715 -0.0468  0.4100 -0.8803
  216ETHOX   C1 9915  12.033  12.211   8.596  0.1176 -0.1865  0.4450
  216ETHOX  H11 9916  12.131  12.161   8.578 -0.0229 -0.2297 -0.2314
  216ETHOX  H13 9917  12.009  12.279   8.512  0.4707  1.4640  1.6205
  216ETHOX   C2 9918  11.912  12.119   8.608 -0.4941 -0.2259 -0.2743
  216ETHOX  H21 9919  11.878  12.095   8.505 -1.6018  1.8436 -0.4632
  216ETHOX  H23 9920  11.823  12.172   8.649 -0.3655 -0.7908  0.7685
  217ETHOX   O1 9921  11.930  11.997   8.664 -0.4579 -0.1316 -0.6409
  217ETHOX   C1 9922  11.978  11.993   8.799  0.2602 -0.4829  0.2482
  217ETHOX  H11 9923  12.053  12.072   8.818 -0.4023 -0.0735  1.2668
  217ETHOX  H13 9924  11.891  12.014   8.866 -0.9055  0.9081 -1.6115
  217ETHOX   C2 9925  12.038  11.856   8.837 -0.0162  0.1009 -0.4293
  217ETHOX  H21 9926  12.127  11.841   8.772  0.2395  2.1484 -0.6305
  217ETHOX  H23 9927  11.968  11.770   8.833  0.0980 -0.1377  1.5952
  218ETHOX   O1 9928  12.072  11.855   8.976  0.3637  0.0608 -0.0087
  218ETHOX   C1 9929  12.124  11.732   9.018  0.0733 -0.3807  0.3787
  218ETHOX  H11 9930  12.208  11.701   8.951  0.2485 -1.7974  1.2065
  218ETHOX  H13 9931  12.043  11.657   9.001  1.2442 -1.1473 -2.5476
  218ETHOX   C2 9932  12.171  11.725   9.160 -0.7717 -0.0923  0.1420
  218ETHOX  H21 9933  12.186  11.617   9.182 -0.0091 -0.1198 -0.4955
  218ETHOX  H23 9934  12.091  11.762   9.228 -0.7778 -0.2922  0.2442
  219ETHOX   O1 9935  12.289  11.800   9.187  0.2359  0.0994  0.3697
  219ETHOX   C1 9936  12.367  11.749   9.292  0.0405  0.5476 -0.3392
  219ETHOX  H11 9937  12.397  11.643   9.277  1.8016  0.9554  0.0007
  219ETHOX  H13 9938  12.458  11.813   9.288  0.6258 -0.2967 -0.8021
  219ETHOX   C2 9939  12.298  11.758   9.432 -0.2489 -0.0167 -0.4461
  219ETHOX  H21 9940  12.231  11.846   9.432 -0.6283 -0.2828  1.4378
  219ETHOX  H23 9941  12.373  11.755   9.514  1.3265 -1.4642 -1.8437
  220ETHOX   O1 9942  12.212  11.648   9.449  0.3743  0.8889 -0.1227
  220ETHOX   C1 9943  12.136  11.671   9.570  0.6985 -0.5009  0.2241
  220ETHOX  H11 9944  12.053  11.740   9.545  0.0423 -0.4513  2.3658
  220ETHOX  H13 9945  12.205  11.730   9.634  0.6219 -0.5310  0.3342
  220ETHOX   C2 9946  12.081  11.548   9.646  0.4489 -0.6138  0.3494
  220ETHOX  H21 9947  12.156  11.474   9.680  1.9714 -0.1015 -1.7411
  220ETHOX  H23 9948  12.012  11.511   9.567  1.6901  0.6998 -1.4116
  221ETHOX   O1 9949  11.995  11.600   9.749  0.6032 -0.4065 -0.3780
  221ETHOX   C1 9950  12.071  11.644   9.860  0.1038  0.0161 -0.2316
  221ETHOX  H11 9951  12.161  11.579   9.856  1.0647  1.2501  0.5543
  221ETHOX  H13 9952  12.088  11.752   9.839 -1.1384  0.4463  0.7801
  221ETHOX   C2 9953  11.987  11.622   9.986  0.8149  0.3233  0.1421
  221ETHOX  H21 9954  11.970  11.513  10.002 -1.1219  0.5354 -0.2000
  221ETHOX  H23 9955  11.885  11.665   9.988  1.0968  1.0061  0.3378
  222ETHOX   O1 9956  12.051  11.691  10.093 -0.4481 -0.5240  0.6386
  222ETHOX   C1 9957  12.017  11.633  10.222  0.8192 -0.5512 -0.2924
  222ETHOX  H11 9958  11.912  11.650  10.255  0.7335  0.1363 -0.9075
  222ETHOX  H13 9959  12.031  11.523  10.217 -1.4884 -1.0094  1.4283
  222ETHOX   C2 9960  12.106  11.686  10.331  0.1645  0.1330  0.3592
  222ETHOX  H21 9961  12.213  11.676  10.303 -0.6741  0.1639 -3.2901
  222ETHOX  H23 9962  12.098  11.621  10.420  2.2926 -0.8525 -0.1172
  223ETHOX   O1 9963  12.081  11.823  10.367 -0.1720 -0.7698 -0.2717
  223ETHOX   C1 9964  12.172  11.873  10.466 -0.2780 -0.1710 -0.0188
  223ETHOX  H11 9965  12.237  11.788  10.495  1.7753  1.4678  0.3950
  223ETHOX  H13 9966  12.234  11.951  10.415  0.5328 -0.3463  0.6868
  223ETHOX   C2 9967  12.100  11.924  10.595 -0.5299 -0.4235  0.1461
  223ETHOX  H21 9968  12.031  12.007  10.570 -0.2987 -0.7544 -1.8004
  223ETHOX  H23 9969  12.179  11.952  10.668 -0.2637 -1.7294  0.3724
  224ETHOX   O1 9970  12.029  11.822  10.655  0.1364  0.5302 -0.0723
  224ETHOX   C1 9971  11.974  11.859  10.786 -0.2519 -0.6643 -0.2113
  224ETHOX  H11 9972  11.932  11.762  10.819  0.1685 -1.5201 -2.0353
  224ETHOX  H13 9973  12.057  11.900  10.848 -1.4128  0.8879  0.3963
  224ETHOX   C2 9974  11.853  11.960  10.792  0.4078 -1.2029  0.7910
  224ETHOX  H21 9975  11.806  11.960  10.892  0.7816 -2.6197  0.9822
  224ETHOX  H23 9976  11.780  11.937  10.711  0.2055  1.0543  0.2589
  225ETHOX   O1 9977  11.894  12.096  10.767 -0.2143  0.3708  0.0951
  225ETHOX   C1 9978  11.772  12.169  10.743 -0.6842  0.1331 -0.1280
  225ETHOX  H11 9979  11.714  12.181  10.837  0.1739  1.3041  0.2764
  225ETHOX  H13 9980  11.709  12.119  10.666  0.2445 -0.9914 -0.1926
  225ETHOX   C2 9981  11.800  12.313  10.688  0.7322 -0.1976  0.0268
  225ETHOX  H21 9982  11.716  12.352  10.627  1.5227  2.3421  0.4659
  225ETHOX  H23 9983  11.888  12.317  10.619 -0.2162 -2.4844 -1.4502
  226ETHOX   O1 9984  11.809  12.406  10.801  0.4265  0.2658  0.3151
  226ETHOX   C1 9985  11.861  12.527  10.752  0.5858 -0.1445  0.2171
  226ETHOX  H11 9986  11.965  12.521  10.714  0.3406  1.4818 -0.8527
  226ETHOX  H13 9987  11.799  12.557  10.664  0.7114 -1.3895 -0.3196
  226ETHOX   C2 9988  11.864  12.645  10.859  0.7011  0.2140  0.4107
  226ETHOX  H21 9989  11.947  12.705  10.817  0.5075  0.5272  0.4694
  226ETHOX  H23 9990  11.892  12.598  10.956  2.8142  0.5346 -0.0034
  227ETHOX   O1 9991  11.742  12.710  10.854  0.4066  0.3250 -0.3070
  227ETHOX   C1 9992  11.746  12.831  10.934  0.3510  0.5816  0.1010
  227ETHOX  H11 9993  11.837  12.885  10.901  0.2637 -0.2405 -1.6206
  227ETHOX  H13 9994  11.767  12.790  11.035 -1.9677 -1.6911 -0.2125
  227ETHOX   C2 9995  11.624  12.922  10.934  0.5985  0.9980  0.2003
  227ETHOX  H21 9996  11.663  12.996  11.008  0.7579 -0.9045  2.1305
  227ETHOX  H23 9997  11.540  12.863  10.977  1.8487 -0.6635  0.4743
  228ETHOX   O1 9998  11.592  12.984  10.814  0.0094 -0.8192  0.3058
  228ETHOX   C1 9999  11.459  13.041  10.826  0.0197  0.2624 -0.3868
  228ETHOX  H1110000  11.395  12.950  10.832 -1.5528  1.1003 -2.7512
  228ETHOX  H1310001  11.452  13.091  10.925 -1.4523  0.2456 -0.4593
  228ETHOX   C210002  11.426  13.119  10.702 -0.4726  0.4780  0.5905
  228ETHOX  H2110003  11.504  13.198  10.687  1.2197 -1.3053 -0.5574
  228ETHOX  H2310004  11.328  13.170  10.707 -0.6295  0.2411 -0.0129
  229ETHOX   O110005  11.438  13.038  10.587 -0.2117  0.4087  0.3356
  229ETHOX   C110006  11.383  13.098  10.471 -0.2673  0.1421  0.0580
  229ETHOX  H1110007  11.436  13.193  10.447  0.5535 -0.1495  0.6379
  229ETHOX  H1310008  11.278  13.118  10.502 -0.0877  0.1341  0.6935
  229ETHOX   C210009  11.391  13.010  10.351  0.4595 -0.4426  0.0003
  229ETHOX  H2110010  11.343  13.047  10.258 -0.2516  0.0109  0.5392
  229ETHOX  H2310011  11.347  12.913  10.383 -0.0632 -0.6208 -1.1908
  230ETHOX   O110012  11.532  12.992  10.325  0.6357 -0.2941 -0.1579
  230ETHOX   C110013  11.565  12.933  10.200  0.0103  0.2655 -0.8520
  230ETHOX  H1110014  11.497  12.846  10.190  0.9945 -0.4572 -1.4604
  230ETHOX  H1310015  11.546  13.008  10.121 -0.1880  0.5509 -0.5344
  230ETHOX   C210016  11.711  12.883  10.206  0.0114 -0.1109  0.0772
  230ETHOX  H2110017  11.726  12.806  10.126 -0.7194 -0.9175  0.6980
  230ETHOX  H2310018  11.735  12.840  10.306  0.8362 -1.9702 -0.8525
  231ETHOX   O110019  11.805  12.985  10.181  0.3049 -0.1181 -1.0508
  231ETHOX   C110020  11.938  12.932  10.198  0.1662  0.3075  0.1626
  231ETHOX  H1110021  11.948  12.824  10.175  0.0835 -0.2051  2.3130
  231ETHOX  H1310022  11.947  12.919  10.308 -1.3845 -0.0143  0.2798
  231ETHOX   C210023  12.047  13.020  10.149  0.0142 -0.2164  0.5793
  231ETHOX  H2110024  12.138  13.004  10.211  1.3983  0.3165 -1.2371
  231ETHOX  H2310025  12.006  13.123  10.153 -1.3379 -0.7368  0.5823
  232ETHOX   O110026  12.068  12.972  10.017 -0.0436  0.1508 -0.3448
  232ETHOX   C110027  12.001  13.051   9.919  0.3986 -0.0330 -0.3851
  232ETHOX  H1110028  11.892  13.040   9.936  0.1135  0.3554 -1.8916
  232ETHOX  H1310029  12.025  13.159   9.931  1.9409 -0.4839  1.2764
  232ETHOX   C210030  12.027  13.007   9.771 -1.0709  0.3068  0.3492
  232ETHOX  H2110031  11.942  13.037   9.707 -0.2418  0.1139 -0.9013
  232ETHOX  H2310032  12.032  12.897   9.753 -0.4676  0.1632  1.2845
  233ETHOX   O110033  12.138  13.056   9.709 -0.9399 -0.1976 -0.6471
  233ETHOX   C110034  12.151  13.016   9.576  0.1552  0.3416 -0.5591
  233ETHOX  H1110035  12.168  12.907   9.589  1.0413  0.4321 -0.8670
  233ETHOX  H1310036  12.054  13.043   9.529 -0.3156  1.3785  0.9464
  233ETHOX   C210037  12.263  13.081   9.504 -0.5185 -0.3745  0.0994
  233ETHOX  H2110038  12.267  13.027   9.407 -0.2361 -2.7969  1.3978
  233ETHOX  H2310039  12.353  13.066   9.567  0.4978  3.8262 -0.0404
  234ETHOX   O110040  12.248  13.222   9.487 -0.4571  0.0177 -0.0503
  234ETHOX   C110041  12.362  13.276   9.424  0.0349  0.0475  0.3136
  234ETHOX  H1110042  12.456  13.248   9.477 -0.8346 -2.9081  0.4379
  234ETHOX  H1310043  12.366  13.244   9.317 -0.9227 -1.4739  0.7057
  234ETHOX   C210044  12.344  13.427   9.433 -0.5883  0.1889  0.8366
  234ETHOX  H2110045  12.334  13.451   9.541 -4.1989  1.1623  0.4051
  234ETHOX  H2310046  12.252  13.454   9.377 -0.3134 -1.5612 -0.5270
  235ETHOX   O110047  12.454  13.490   9.365 -0.2077  0.0951  0.2801
  235ETHOX   C110048  12.458  13.627   9.393 -0.3420  0.2954 -0.3072
  235ETHOX  H1110049  12.366  13.666   9.346 -0.6868 -2.5349 -2.2220
  235ETHOX  H1310050  12.451  13.644   9.503  0.2797  0.5808 -0.3089
  235ETHOX   C210051  12.580  13.695   9.327  0.2288 -0.5988  0.7489
  235ETHOX  H2110052  12.593  13.661   9.222  0.2283 -1.4412  1.0098
  235ETHOX  H2310053  12.672  13.665   9.382  0.7683 -1.1227 -0.4012
  236ETHOX   O110054  12.570  13.831   9.337  0.1366  0.0913  0.0469
  236ETHOX   C110055  12.668  13.892   9.255 -0.0491 -0.6284 -0.2542
  236ETHOX  H1110056  12.704  13.822   9.176 -2.7865 -2.2249 -0.2029
  236ETHOX  H1310057  12.746  13.919   9.330 -0.7724  2.1227 -0.4000
  236ETHOX   C210058  12.618  14.020   9.194  0.5182 -0.2390  0.1708
  236ETHOX  H2110059  12.708  14.086   9.191  1.7566 -1.8670 -0.3131
  236ETHOX  H2310060  12.530  14.053   9.253  0.6118  0.4925 -0.0912
  237ETHOX   O110061  12.585  13.982   9.065 -0.2024 -0.3439  0.4855
  237ETHOX   C110062  12.448  13.998   9.044  0.7719 -0.2949  0.0775
  237ETHOX  H1110063  12.392  13.965   9.135 -0.1917 -0.1728 -0.4503
  237ETHOX  H1310064  12.416  14.103   9.024  0.7442 -0.5246 -1.1714
  237ETHOX   C210065  12.392  13.908   8.935  0.3735  0.1517 -0.0000
  237ETHOX  H2110066  12.283  13.923   8.942  0.6096  3.2854 -1.2628
  237ETHOX  H2310067  12.404  13.800   8.956  1.0225 -0.0800 -1.3953
  238ETHOX   O110068  12.441  13.923   8.807 -0.4448  0.2139  0.8476
  238ETHOX   C110069  12.410  13.806   8.724  0.4928  0.6520  0.8750
  238ETHOX  H1110070  12.299  13.796   8.720  0.5771  0.0014 -0.9390
  238ETHOX  H1310071  12.455  13.710   8.756 -0.4300  0.6069  2.0938
  238ETHOX   C210072  12.464  13.838   8.581 -1.1207  0.5696 -0.1064
  238ETHOX  H2110073  12.453  13.746   8.520  0.2184  2.1867 -3.0341
  238ETHOX  H2310074  12.571  13.865   8.586 -0.9354 -0.2699  0.8277
  239ETHOX   O110075  12.388  13.945   8.525  0.9575 -0.6261 -0.0878
  239ETHOX   C110076  12.426  13.974   8.390  0.6727  0.1288  0.6879
  239ETHOX  H1110077  12.535  13.955   8.384  0.4195 -1.1664 -0.3711
  239ETHOX  H1310078  12.373  13.903   8.323 -0.3628 -0.8872  2.4952
  239ETHOX   C210079  12.366  14.117   8.350  0.1040 -0.1636 -0.4429
  239ETHOX  H2110080  12.284  14.129   8.424  1.5523 -1.0924  1.4079
  239ETHOX  H2310081  12.448  14.191   8.362 -0.3570  0.0658  1.5449
  240ETHOX   O110082  12.328  14.119   8.212 -0.1390 -0.5575 -0.5244
  240ETHOX   C110083  12.281  14.253   8.178 -0.7032  0.3474 -0.5047
  240ETHOX  H1110084  12.368  14.323   8.170 -1.0926  0.8340 -0.5562
  240ETHOX  H1310085  12.209  14.283   8.257 -0.5371 -0.1652 -0.1526
  240ETHOX   C210086  12.227  14.262   8.040 -0.1997 -0.0254 -0.2020
  240ETHOX  H2110087  12.308  14.233   7.970  0.7834  3.2467 -0.6222
  240ETHOX  H2310088  12.205  14.368   8.016  1.5949  0.4707  0.1425
  241ETHOX   O110089  12.101  14.193   8.018 -0.0818 -0.3120  0.5901
  241ETHOX   C110090  12.113  14.054   8.013 -0.4710  0.3408 -0.1391
  241ETHOX  H1110091  12.212  14.027   7.971 -1.1732 -1.0188 -1.0073
  241ETHOX  H1310092  12.105  14.010   8.115  0.7386  1.7929  0.6131
  241ETHOX   C210093  12.005  13.991   7.934  0.5443  0.7671  0.4970
  241ETHOX  H2110094  12.027  13.883   7.919 -1.1068  0.2711  1.3754
  241ETHOX  H2310095  12.002  14.040   7.834  0.8210 -1.0151 -0.4244
  242ETHOX   O110096  11.868  13.992   7.986 -0.2747  0.0747  0.2178
  242ETHOX   C110097  11.779  13.910   7.916  0.4671 -0.2084  0.0171
  242ETHOX  H1110098  11.802  13.802   7.929 -2.4330 -1.0600 -1.0762
  242ETHOX  H1310099  11.775  13.939   7.809  0.5816  0.5985  0.2250
  242ETHOX   C210100  11.641  13.921   7.984  0.3623 -0.2532  0.2263
  242ETHOX  H2110101  11.642  13.934   8.094 -1.3695 -1.1808  0.3955
  242ETHOX  H2310102  11.578  13.833   7.958 -0.3510  0.5883 -1.0372
  243ETHOX   O110103  11.574  14.036   7.932  0.4950  0.1142 -0.3175
  243ETHOX   C110104  11.440  14.041   7.985  0.5892  0.3467  0.1715
  243ETHOX  H1110105  11.379  13.959   7.940  0.1318  0.7292  0.0907
  243ETHOX  H1310106  11.439  14.023   8.094  1.8615 -0.9224  0.0093
  243ETHOX   C210107  11.368  14.167   7.959 -0.0038  0.0020  0.4928
  243ETHOX  H2110108  11.267  14.154   8.002  0.4563 -0.0153  1.6188
  243ETHOX  H2310109  11.355  14.200   7.854 -1.4087  1.4438  1.0983
  244ETHOX   O110110  11.434  14.275   8.021  0.1494 -0.0190  0.1184
  244ETHOX   C110111  11.372  14.402   7.990 -0.2867 -0.6579  0.6030
  244ETHOX  H1110112  11.262  14.389   7.984 -0.2767 -0.5563  0.0861
  244ETHOX  H1310113  11.404  14.421   7.885  1.2340 -0.6991  1.0287
  244ETHOX   C210114  11.426  14.508   8.084  0.1760  0.2178  0.7940
  244ETHOX  H2110115  11.404  14.475   8.188 -0.1170 -0.8053  0.4215
  244ETHOX  H2310116  11.372  14.600   8.052 -1.3379 -1.3359 -1.4764
  245ETHOX   O110117  11.566  14.538   8.067 -0.5277 -0.6363  0.7489
  245ETHOX   C110118  11.617  14.627   8.166 -0.7147 -0.5861 -0.6726
  245ETHOX  H1110119  11.618  14.733   8.132  1.7686 -0.8328 -1.5889
  245ETHOX  H1310120  11.564  14.621   8.264  2.8783 -2.0960  1.3622
  245ETHOX   C210121  11.764  14.591   8.221 -0.3366 -0.2680  0.3279
  245ETHOX  H2110122  11.777  14.482   8.233  3.4551 -0.1411 -1.1546
  245ETHOX  H2310123  11.771  14.641   8.320  3.7616  0.5259 -0.1731
  246ETHOX   O110124  11.871  14.637   8.135  0.1652 -0.1726 -0.0909
  246ETHOX   C110125  12.002  14.611   8.188 -0.2162 -0.0111  0.3402
  246ETHOX  H1110126  12.071  14.588   8.104 -0.6951 -3.0645  0.6729
  246ETHOX  H1310127  12.011  14.518   8.249  1.9726  1.5819  2.6592
  246ETHOX   C210128  12.066  14.715   8.281  0.4012  0.3185  0.2132
  246ETHOX  H2110129  12.164  14.676   8.316  0.1165  0.2236  0.9479
  246ETHOX  H2310130  12.020  14.710   8.383 -2.5899 -1.5947 -1.0842
  247ETHOX   O110131  12.079  14.844   8.224 -0.5402 -0.8084 -0.1701
  247ETHOX   C110132  12.165  14.920   8.302 -0.2769  0.5719 -0.0857
  247ETHOX  H1110133  12.130  14.897   8.405 -1.2910  0.1838 -0.5035
  247ETHOX  H1310134  12.271  14.891   8.285 -0.3117  0.3977 -0.0126
  247ETHOX   C210135  12.148  15.066   8.260 -0.0583  0.6729 -0.8375
  247ETHOX  H2110136  12.240  15.127   8.270  0.1278  0.2363  0.1897
  247ETHOX  H2310137  12.118  15.056   8.153 -0.4133 -0.8530 -0.6066
  248ETHOX   O110138  12.051  15.129   8.342 -0.1441 -0.0887 -0.2505
  248ETHOX   C110139  11.917  15.112   8.292 -0.4367  0.0361 -0.5520
  248ETHOX  H1110140  11.929  15.141   8.186  0.6283 -0.8987 -0.7015
  248ETHOX  H1310141  11.900  15.004   8.309  0.4140  0.3232  3.0708
  248ETHOX   C210142  11.812  15.199   8.370  0.0470 -0.2126 -0.5803
  248ETHOX  H2110143  11.723  15.199   8.304 -0.7093  0.3799  0.4104
  248ETHOX  H2310144  11.854  15.302   8.376 -0.0283 -0.1496 -1.1096
  249ETHOX   O110145  11.784  15.141   8.497  0.1383 -0.0790  0.9253
  249ETHOX   C110146  11.715  15.241   8.573  0.6346 -0.2170 -0.1454
  249ETHOX  H1110147  11.790  15.284   8.642  1.1169 -3.2374  1.4106
  249ETHOX  H1310148  11.667  15.315   8.505 -1.4566 -1.0176  0.3874
  249ETHOX   C210149  11.606  15.168   8.652  0.7554  0.6585  0.1176
  249ETHOX  H2110150  11.550  15.098   8.587  2.6365  0.7015 -1.6655
  249ETHOX  H2310151  11.535  15.248   8.683  1.3642  1.8315 -1.3876
  250ETHOX   O110152  11.668  15.104   8.767 -0.5026  0.2290 -0.0277
  250ETHOX   C110153  11.575  15.028   8.843 -0.1178 -0.5542 -0.0258
  250ETHOX  H1110154  11.478  15.083   8.841  0.2909  0.3206  1.9008
  250ETHOX  H1310155  11.558  14.928   8.797 -0.8187 -1.6563  2.4688
  250ETHOX   C210156  11.627  15.002   8.986  0.2815  0.4864  0.0505
  250ETHOX  H2110157  11.679  15.084   9.040  1.2100 -0.6065  0.8665
  250ETHOX  H2310158  11.687  14.910   8.972 -0.5314 -0.3192  1.6993
  251ETHOX   O110159  11.523  14.956   9.064  0.0351 -0.1425  0.6201
  251ETHOX   C110160  11.564  14.917   9.194 -0.1789 -0.0358  0.1154
  251ETHOX  H1110161  11.619  15.000   9.241  0.8986  0.4796 -1.9416
  251ETHOX  H1310162  11.633  14.830   9.185 -1.4054 -0.8323 -3.2863
  251ETHOX   C210163  11.448  14.854   9.281 -0.4978 -0.1183 -0.4239
  251ETHOX  H2110164  11.475  14.796   9.372  0.6645 -4.0572 -3.0435
  251ETHOX  H2310165  11.388  14.789   9.215 -0.7210  1.7277 -2.1594
  252ETHOX   O110166  11.362  14.963   9.316  0.1631 -0.1914 -0.3550
  252ETHOX   C110167  11.263  14.932   9.413 -0.0189  0.3692  0.1332
  252ETHOX  H1110168  11.301  14.883   9.504 -0.2624 -0.4688 -0.2103
  252ETHOX  H1310169  11.218  15.030   9.442 -0.3486 -0.3081  1.9914
  252ETHOX   C210170  11.153  14.837   9.358  0.3429 -0.2329  0.3804
  252ETHOX  H2110171  11.119  14.877   9.260  0.3648 -1.0371  0.0357
  252ETHOX  H2310172  11.067  14.852   9.427  2.0107  1.7041  2.1831
  253ETHOX   O110173  11.183  14.694   9.344 -0.1475  0.0824 -0.0094
  253ETHOX   C110174  11.214  14.636   9.476  0.2049  0.1361  0.3862
  253ETHOX  H1110175  11.145  14.682   9.550  1.5711 -1.2840  2.6968
  253ETHOX  H1310176  11.320  14.665   9.496  0.9874 -0.9649 -1.7906
  253ETHOX   C210177  11.203  14.485   9.475  0.0784  0.3995  0.7563
  253ETHOX  H2110178  11.258  14.440   9.560  0.2267  0.7698  0.8599
  253ETHOX  H2310179  11.249  14.454   9.379  2.9539  2.0040  1.4960
  254ETHOX   O110180  11.065  14.436   9.458  0.4317 -0.6070 -0.2488
  254ETHOX   C110181  11.057  14.299   9.470  0.7653  0.8760  0.2028
  254ETHOX  H1110182  11.109  14.251   9.385 -0.5261  0.0518 -0.1465
  254ETHOX  H1310183  11.109  14.257   9.559  1.1794 -2.1054 -1.3350
  254ETHOX   C210184  10.917  14.249   9.454 -0.0756  0.2746  0.6654
  254ETHOX  H2110185  10.918  14.137   9.456  0.5210  0.2343 -0.7894
  254ETHOX  H2310186  10.876  14.269   9.353  1.7086 -0.4053 -0.2336
  255ETHOX   O110187  10.829  14.300   9.553 -0.1551 -0.3467 -0.0191
  255ETHOX   C110188  10.688  14.260   9.546 -0.2522  0.5737  0.7402
  255ETHOX  H1110189  10.679  14.151   9.527 -1.3503  0.3184  2.4850
  255ETHOX  H1310190  10.644  14.312   9.458  1.9179 -0.6362 -1.1428
  255ETHOX   C210191  10.631  14.304   9.680  0.5022  0.2295  0.2468
  255ETHOX  H2110192  10.653  14.412   9.697  0.4832  0.1289  0.9426
  255ETHOX  H2310193  10.677  14.242   9.760  0.9056 -0.6074 -0.6107
  256ETHOX   O110194  10.488  14.297   9.676 -0.4011  0.3650  0.3034
  256ETHOX   C110195  10.426  14.320   9.803 -0.5672 -0.0084  0.4298
  256ETHOX  H1110196  10.473  14.258   9.882 -1.6897  0.1379  1.2464
  256ETHOX  H1310197  10.453  14.425   9.829  0.9587 -0.4301  0.6298
  256ETHOX   C210198  10.278  14.280   9.792 -0.3774  0.2053 -0.1079
  256ETHOX  H2110199  10.237  14.329   9.701  0.3024  2.1149  0.5822
  256ETHOX  H2310200  10.219  14.317   9.879  0.7069  0.4515  0.5374
  257ETHOX   O110201  10.271  14.135   9.777  0.4353  0.4240 -0.4276
  257ETHOX   C110202  10.138  14.094   9.765 -0.3833 -0.4659  0.9603
  257ETHOX  H1110203  10.074  14.184   9.751  0.9422  0.0769 -2.9085
  257ETHOX  H1310204  10.118  14.042   9.861  0.9207 -1.2878  0.8164
  257ETHOX   C210205  10.131  13.995   9.652  0.2793 -0.4495 -0.4293
  257ETHOX  H2110206  10.168  14.037   9.556 -1.8229 -0.1663 -1.1761
  257ETHOX  H2310207  10.026  13.958   9.645 -0.6031  1.5513  1.0831
  258ETHOX   O110208  10.197  13.871   9.671 -0.4010 -0.1895 -0.0116
  258ETHOX   C110209  10.178  13.788   9.558 -0.5225  0.0668  0.0543
  258ETHOX  H1110210  10.074  13.776   9.519 -0.6874  1.2507  0.0892
  258ETHOX  H1310211  10.243  13.822   9.475  0.0330 -1.7015 -0.2709
  258ETHOX   C210212  10.229  13.655   9.599 -0.6580  0.4451  0.6974
  258ETHOX  H2110213  10.153  13.607   9.665  1.5644 -0.3035  2.8817
  258ETHOX  H2310214  10.331  13.662   9.644  0.4313 -0.6958 -1.4328
  259ETHOX   O110215  10.247  13.581   9.480 -0.2119  0.3285  0.2218
  259ETHOX   C110216  10.289  13.445   9.511  0.1202  0.0996 -0.1222
  259ETHOX  H1110217  10.399  13.450   9.527  0.1517 -1.4951  0.3082
  259ETHOX  H1310218  10.251  13.412   9.611 -0.4833 -2.0631 -1.0063
  259ETHOX   C210219  10.242  13.350   9.399 -0.5351 -0.6787 -0.0200
  259ETHOX  H2110220  10.133  13.336   9.413 -0.6682  0.5366  0.2463
  259ETHOX  H2310221  10.270  13.244   9.421 -1.1960 -0.5909  1.3673
  260ETHOX   O110222  10.276  13.401   9.267  0.0688 -0.9339 -0.0327
  260ETHOX   C110223  10.263  13.303   9.164  0.5783  0.0432  0.8328
  260ETHOX  H1110224  10.327  13.218   9.196 -0.9228 -2.0828 -1.4409
  260ETHOX  H1310225  10.156  13.276   9.154  0.1233  2.0413 -0.1054
  260ETHOX   C210226  10.314  13.344   9.023 -1.1217  0.5677 -0.4006
  260ETHOX  H2110227  10.315  13.246   8.970  1.0490  0.3616 -0.0630
  260ETHOX  H2310228  10.412  13.393   9.036 -0.2029 -0.4537 -2.9412
  261ETHOX   O110229  10.223  13.433   8.981 -0.7163  0.2714 -0.3886
  261ETHOX   C110230  10.212  13.457   8.845 -0.2793  0.2342  0.1205
  261ETHOX  H1110231  10.160  13.555   8.837 -2.1830 -0.4556  2.7059
  261ETHOX  H1310232  10.315  13.455   8.804 -0.4403 -0.7863 -0.2590
  261ETHOX   C210233  10.124  13.358   8.766 -0.5076  0.2948  0.1227
  261ETHOX  H2110234  10.153  13.255   8.797  1.4077  0.4795 -0.9125
  261ETHOX  H2310235  10.139  13.366   8.657  2.2760  1.7002  0.4967
  262ETHOX   O110236   9.985  13.381   8.788  0.1051  0.0497 -0.4980
  262ETHOX   C110237   9.940  13.359   8.920  0.2213  0.3821 -0.5999
  262ETHOX  H1110238   9.992  13.431   8.986  0.7758 -1.1580  0.7125
  262ETHOX  H1310239   9.962  13.256   8.956 -1.5258  0.6382  1.3884
  262ETHOX   C210240   9.791  13.386   8.932 -0.0736 -0.9878 -0.0684
  262ETHOX  H2110241   9.754  13.484   8.898 -0.6809 -0.3749  2.1753
  262ETHOX  H2310242   9.777  13.370   9.041  1.9784  0.5961  0.4855
  263ETHOX   O110243   9.726  13.278   8.867  0.4425  0.3697 -0.2377
  263ETHOX   C110244   9.585  13.282   8.897  0.3432  0.1385  0.9348
  263ETHOX  H1110245   9.534  13.374   8.862 -1.5247 -0.6918  1.3230
  263ETHOX  H1310246   9.577  13.255   9.005  1.3016 -1.3520  0.6718
  263ETHOX   C210247   9.514  13.165   8.827 -0.0490 -0.9558 -0.5720
  263ETHOX  H2110248   9.551  13.165   8.722  1.4220 -0.8522 -0.0790
  263ETHOX  H2310249   9.407  13.192   8.818  0.2720  0.1083 -1.3044
  264ETHOX   O110250   9.534  13.040   8.893  0.0479  0.2554  0.0312
  264ETHOX   C110251   9.448  12.944   8.833 -0.8785  0.3648 -0.3632
  264ETHOX  H1110252   9.447  12.947   8.722  1.5315  1.7647 -0.3951
  264ETHOX  H1310253   9.341  12.949   8.865 -0.8062 -2.2831  0.5816
  264ETHOX   C210254   9.472  12.793   8.885 -0.3229  0.4159 -0.0104
  264ETHOX  H2110255   9.449  12.797   8.994 -0.1774  1.4385 -0.0038
  264ETHOX  H2310256   9.576  12.761   8.866 -0.4165  0.4058 -0.5224
  265ETHOX   O110257   9.373  12.710   8.820 -0.1924 -0.2675  0.0384
  265ETHOX   C110258   9.427  12.638   8.712 -0.0138  0.1432  0.9724
  265ETHOX  H1110259   9.488  12.711   8.653  0.5848 -1.8791 -1.0754
  265ETHOX  H1310260   9.497  12.562   8.752 -2.1281 -2.2861  0.3335
  265ETHOX   C210261   9.320  12.562   8.631  0.3047  0.3774  0.2402
  265ETHOX  H2110262   9.264  12.493   8.698  0.3706  0.2005  0.1102
  265ETHOX  H2310263   9.375  12.508   8.551  3.0189 -0.4893  2.5423
  265ETHOX   OZ10264   9.232  12.663   8.573  0.8764 -0.4090 -0.2828
  265ETHOX  HZ110265   9.168  12.618   8.517  1.1031 -1.4707  0.2932
    1ETHOX   O110266  17.344  15.742   9.174  0.0839  0.0219  0.8339
    1ETHOX  HO110267  17.403  15.704   9.109 -1.3311  1.5802 -1.4835
    1ETHOX   C110268  17.431  15.840   9.223  0.0117  0.0980 -0.0462
    1ETHOX  H1110269  17.366  15.899   9.291  0.1701 -0.0058  0.1940
    1ETHOX  H1310270  17.463  15.910   9.142  0.7420 -1.7314 -1.4154
    1ETHOX   C210271  17.538  15.773   9.322 -0.0055 -0.4986 -0.5568
    1ETHOX  H2110272  17.497  15.692   9.386  0.5214  1.2674  2.1411
    1ETHOX  H2310273  17.586  15.845   9.391 -2.5559 -0.2898  1.1392
    2ETHOX   O110274  17.656  15.716   9.257  0.1814 -0.2005  0.0650
    2ETHOX   C110275  17.713  15.822   9.177 -0.0868  1.3691  0.3916
    2ETHOX  H1110276  17.661  15.834   9.080  1.4803  0.9631 -0.5253
    2ETHOX  H1310277  17.705  15.919   9.231  2.5442  1.3752  0.9131
    2ETHOX   C210278  17.859  15.779   9.147 -0.2328 -0.4347 -0.5479
    2ETHOX  H2110279  17.891  15.867   9.087  1.0462 -0.1036  0.5610
    2ETHOX  H2310280  17.874  15.689   9.083  4.1930  0.9532 -1.7994
    3ETHOX   O110281  17.929  15.767   9.269 -0.2550 -0.0847 -0.6817
    3ETHOX   C110282  18.051  15.704   9.259  0.2739 -0.6533 -1.3528
    3ETHOX  H1110283  18.047  15.611   9.198  0.1378 -0.5406 -1.5172
    3ETHOX  H1310284  18.082  15.684   9.363  2.5399 -1.2921 -2.0865
    3ETHOX   C210285  18.164  15.791   9.205 -0.2121 -0.4789  0.1463
    3ETHOX  H2110286  18.261  15.741   9.226  0.3525  0.5184  0.0174
    3ETHOX  H2310287  18.180  15.890   9.254 -0.5241  0.1145 -0.9119
    4ETHOX   O110288  18.164  15.823   9.060 -0.0608 -0.3357  0.1711
    4ETHOX   C110289  18.266  15.917   9.023 -0.1020  0.0563 -0.2802
    4ETHOX  H1110290  18.355  15.910   9.089 -0.7791  1.2707  0.8025
    4ETHOX  H1310291  18.307  15.888   8.924  1.9950  4.1650 -0.8523
    4ETHOX   C210292  18.215  16.059   9.017  0.3970  0.0132 -0.5427
    4ETHOX  H2110293  18.112  16.060   8.974 -0.5753 -0.7963  1.5916
    4ETHOX  H2310294  18.278  16.108   8.940  0.4372  0.4415 -0.2352
    5ETHOX   O110295  18.230  16.131   9.135  0.5011 -0.0669  0.6709
    5ETHOX   C110296  18.230  16.270   9.108 -0.8134  0.1401  0.1800
    5ETHOX  H1110297  18.285  16.290   9.014 -1.2193 -1.0275 -0.3265
    5ETHOX  H1310298  18.130  16.317   9.096 -1.4587 -1.4308 -0.9762
    5ETHOX   C210299  18.313  16.344   9.226  0.6013  0.5972  1.3273
    5ETHOX  H2110300  18.313  16.453   9.203 -2.2486  0.5647  0.7630
    5ETHOX  H2310301  18.419  16.315   9.243  0.7209 -0.4368 -0.9621
    6ETHOX   O110302  18.239  16.331   9.343  0.0986 -0.3210  0.4500
    6ETHOX   C110303  18.308  16.392   9.452 -0.0341  0.1105 -0.3053
    6ETHOX  H1110304  18.352  16.491   9.426 -0.2304  0.0926 -0.7295
    6ETHOX  H1310305  18.232  16.423   9.527  0.3473  0.4239 -0.0480
    6ETHOX   C210306  18.408  16.296   9.526  0.0291 -0.2719 -0.1289
    6ETHOX  H2110307  18.445  16.354   9.613 -0.6144  1.4198 -0.9154
    6ETHOX  H2310308  18.484  16.286   9.445 -0.7877 -0.2683 -0.9127
    7ETHOX   O110309  18.354  16.169   9.548 -0.4233  0.5264 -0.2554
    7ETHOX   C110310  18.433  16.084   9.629 -0.2594 -0.2751 -0.0759
    7ETHOX  H1110311  18.530  16.085   9.573 -1.1061  0.3578 -1.5790
    7ETHOX  H1310312  18.439  16.127   9.731 -0.9276 -2.1010  0.7812
    7ETHOX   C210313  18.390  15.932   9.634 -0.1079 -0.1274  0.0737
    7ETHOX  H2110314  18.449  15.868   9.702 -0.3383  0.8563  1.2396
    7ETHOX  H2310315  18.387  15.905   9.526 -1.1918  0.9312 -0.1900
    8ETHOX   O110316  18.263  15.930   9.686  0.9806 -0.0310 -0.7047
    8ETHOX   C110317  18.188  15.824   9.637  0.2972  0.4321  0.2563
    8ETHOX  H1110318  18.246  15.773   9.557  1.3445 -0.3929  1.5030
    8ETHOX  H1310319  18.094  15.861   9.590  0.8143 -1.0109 -2.0951
    8ETHOX   C210320  18.164  15.711   9.747  0.5174  0.0373  0.5412
    8ETHOX  H2110321  18.230  15.707   9.836 -0.9815 -0.7453  1.6620
    8ETHOX  H2310322  18.187  15.614   9.699 -1.1797  0.1394 -0.5722
    9ETHOX   O110323  18.031  15.706   9.806  0.0360 -0.0357 -0.0647
    9ETHOX   C110324  18.021  15.814   9.900 -0.0958 -0.4535  0.7381
    9ETHOX  H1110325  18.115  15.833   9.957 -0.1032 -0.0979  0.6343
    9ETHOX  H1310326  18.007  15.894   9.825  1.0280 -2.3908 -1.6504
    9ETHOX   C210327  17.901  15.812   9.993 -0.1010 -0.5859  0.4944
    9ETHOX  H2110328  17.814  15.786   9.930 -0.7956  0.2448  1.0866
    9ETHOX  H2310329  17.884  15.914  10.033 -1.7829 -1.8243  3.1530
   10ETHOX   O110330  17.923  15.714  10.093 -0.3944  0.0372  0.1082
   10ETHOX   C110331  17.818  15.723  10.195 -0.1706  0.2443 -0.6624
   10ETHOX  H1110332  17.724  15.700  10.141 -0.4250 -0.2439 -0.0280
   10ETHOX  H1310333  17.812  15.828  10.231  1.1993  0.7098 -1.7113
   10ETHOX   C210334  17.840  15.624  10.306 -0.6873  0.4523  0.0594
   10ETHOX  H2110335  17.871  15.524  10.267 -1.1808  0.1680  0.3975
   10ETHOX  H2310336  17.745  15.620  10.362  0.1079  0.7393  1.4744
   11ETHOX   O110337  17.940  15.688  10.396  0.9613  0.3133 -0.3422
   11ETHOX   C110338  17.975  15.604  10.503 -0.1517 -0.2916  0.0948
   11ETHOX  H1110339  17.891  15.579  10.571 -0.5065 -0.2731 -0.3355
   11ETHOX  H1310340  18.026  15.512  10.466 -0.4864 -0.3857 -0.1344
   11ETHOX   C210341  18.079  15.674  10.587 -0.2854  0.9011  0.0593
   11ETHOX  H2110342  18.141  15.594  10.634 -0.9664 -0.6421 -1.5522
   11ETHOX  H2310343  18.145  15.743  10.531 -2.0287  0.9356 -2.1009
   12ETHOX   O110344  18.014  15.747  10.694  0.6437 -0.1468  0.6275
   12ETHOX   C110345  18.081  15.738  10.820  0.3720 -0.6290  0.6936
   12ETHOX  H1110346  18.181  15.784  10.817 -0.5704  1.5608  1.0265
   12ETHOX  H1310347  18.092  15.637  10.865  1.1056 -0.5671  0.6532
   12ETHOX   C210348  17.995  15.826  10.908  0.2909  0.5106  0.7083
   12ETHOX  H2110349  18.035  15.819  11.011  1.9712 -1.0932 -0.0068
   12ETHOX  H2310350  17.885  15.807  10.903  0.5624 -1.4513  1.5659
   13ETHOX   O110351  18.028  15.959  10.864  0.6050  0.3361  0.1147
   13ETHOX   C110352  17.949  16.048  10.948  0.2665 -0.1230 -0.7813
   13ETHOX  H1110353  17.849  16.008  10.973 -0.0133  1.8851  1.7610
   13ETHOX  H1310354  17.999  16.057  11.047  0.3892  1.1387 -0.9411
   13ETHOX   C210355  17.943  16.191  10.882 -0.3925 -0.2915  0.2773
   13ETHOX  H2110356  18.043  16.230  10.856 -0.3749 -0.7237 -0.3519
   13ETHOX  H2310357  17.905  16.267  10.952  1.4680  0.2118  0.7863
   14ETHOX   O110358  17.857  16.192  10.770  0.0243  0.2068  0.1132
   14ETHOX   C110359  17.862  16.309  10.696  0.5034 -0.1122  0.0078
   14ETHOX  H1110360  17.964  16.320  10.651 -0.1821  0.7893 -1.4176
   14ETHOX  H1310361  17.852  16.395  10.765 -1.5083  1.1041 -1.6568
   14ETHOX   C210362  17.767  16.300  10.582  0.4417  0.1844  0.0886
   14ETHOX  H2110363  17.770  16.200  10.535  0.4850  0.8574 -1.3791
   14ETHOX  H2310364  17.789  16.369  10.497 -1.2488 -1.0880 -1.4434
   15ETHOX   O110365  17.631  16.297  10.624  0.1202 -1.0161  0.2443
   15ETHOX   C110366  17.545  16.319  10.514  0.6557 -0.2956 -0.4028
   15ETHOX  H1110367  17.568  16.421  10.477 -0.8428  0.0013 -0.5864
   15ETHOX  H1310368  17.569  16.243  10.437  0.7088  0.1489 -0.8221
   15ETHOX   C210369  17.400  16.311  10.551 -0.1717  0.2168 -0.1394
   15ETHOX  H2110370  17.383  16.202  10.564  1.9137 -0.4401 -2.2798
   15ETHOX  H2310371  17.374  16.360  10.647 -1.7390 -0.7527 -0.0331
   16ETHOX   O110372  17.317  16.362  10.447 -0.0217  0.0705  0.4872
   16ETHOX   C110373  17.183  16.334  10.478  0.1823  0.4108 -0.3336
   16ETHOX  H1110374  17.161  16.329  10.587 -1.0024 -2.6212 -0.5995
   16ETHOX  H1310375  17.115  16.414  10.439 -2.4738 -1.3609  0.3680
   16ETHOX   C210376  17.117  16.206  10.421 -0.4151 -0.6425  0.6415
   16ETHOX  H2110377  17.158  16.191  10.319 -0.8415  0.3346  0.3145
   16ETHOX  H2310378  17.010  16.224  10.401  0.0568  0.4394 -1.0700
   17ETHOX   O110379  17.139  16.088  10.494 -0.5463 -0.0343 -0.5486
   17ETHOX   C110380  17.194  15.983  10.414  0.2842 -0.8279 -0.2156
   17ETHOX  H1110381  17.121  15.948  10.338  0.3116 -2.7540  0.5913
   17ETHOX  H1310382  17.285  16.022  10.363  0.4347 -2.3670 -1.1830
   17ETHOX   C210383  17.239  15.863  10.493 -0.0943  0.0239 -0.6267
   17ETHOX  H2110384  17.291  15.901  10.583 -0.0600  1.7681 -1.3435
   17ETHOX  H2310385  17.315  15.803  10.439  0.6407 -0.0751  0.4869
   18ETHOX   O110386  17.148  15.757  10.520 -0.2948  0.1072 -0.1922
   18ETHOX   C110387  17.201  15.638  10.591  0.4719 -0.1463  0.4858
   18ETHOX  H1110388  17.299  15.603  10.551 -0.7017 -1.2554 -1.5901
   18ETHOX  H1310389  17.238  15.660  10.694  0.5306 -0.0453  0.4434
   18ETHOX   C210390  17.089  15.527  10.598 -0.2794 -0.7818 -0.6416
   18ETHOX  H2110391  16.988  15.560  10.631 -0.4976  0.0359 -2.0576
   18ETHOX  H2310392  17.126  15.461  10.679 -1.8068 -0.2932  0.5133
   19ETHOX   O110393  17.074  15.461  10.471 -0.2240 -0.1210  0.4269
   19ETHOX   C110394  16.983  15.353  10.466  0.1413  0.0305 -0.0815
   19ETHOX  H1110395  17.008  15.269  10.533 -3.1530 -3.1112 -2.3812
   19ETHOX  H1310396  16.994  15.318  10.361 -2.3680  4.5969 -2.1571
   19ETHOX   C210397  16.838  15.389  10.488  0.2876 -0.2785 -0.9049
   19ETHOX  H2110398  16.783  15.299  10.455  0.1489 -0.3424 -0.5127
   19ETHOX  H2310399  16.807  15.475  10.425  0.7269  2.5892  2.4531
   20ETHOX   O110400  16.797  15.404  10.624 -0.5493  0.3251 -0.0718
   20ETHOX   C110401  16.657  15.426  10.627  1.0721 -0.3128 -0.4879
   20ETHOX  H1110402  16.637  15.515  10.563  2.4355  0.3460 -0.0349
   20ETHOX  H1310403  16.592  15.341  10.597  0.3877 -0.4925  1.3960
   20ETHOX   C210404  16.605  15.460  10.767  0.4725  0.0671 -0.7901
   20ETHOX  H2110405  16.506  15.510  10.770 -0.1318 -1.1194 -0.2419
   20ETHOX  H2310406  16.675  15.524  10.824 -0.9552 -0.5754  1.8242
   21ETHOX   O110407  16.584  15.336  10.835 -0.5300  0.1729 -0.2886
   21ETHOX   C110408  16.542  15.361  10.971  0.0993  0.8273 -0.4232
   21ETHOX  H1110409  16.456  15.431  10.975  0.6977  1.5347  1.6661
   21ETHOX  H1310410  16.620  15.410  11.033  0.7526  2.3394 -2.3307
   21ETHOX   C210411  16.508  15.228  11.038 -0.7149  0.3960  0.2744
   21ETHOX  H2110412  16.521  15.242  11.147  1.4967 -0.1697  0.1288
   21ETHOX  H2310413  16.579  15.148  11.010 -1.4121  0.4709 -1.8904
   22ETHOX   O110414  16.375  15.183  11.002 -0.0835 -0.6271  0.1097
   22ETHOX   C110415  16.319  15.082  11.091  0.2154  0.4235 -0.3196
   22ETHOX  H1110416  16.384  14.994  11.107 -1.7201 -0.6718  2.0958
   22ETHOX  H1310417  16.328  15.124  11.193  0.3641 -0.2647 -0.0450
   22ETHOX   C210418  16.176  15.042  11.066  0.6219  0.2446 -0.3533
   22ETHOX  H2110419  16.104  15.127  11.075 -1.1734 -1.1077 -1.3819
   22ETHOX  H2310420  16.174  15.002  10.962 -0.5611 -0.2581 -0.1546
   23ETHOX   O110421  16.149  14.943  11.161 -0.5942  0.4784 -0.2296
   23ETHOX   C110422  16.022  14.882  11.133 -0.2348 -0.7495  1.0639
   23ETHOX  H1110423  15.936  14.952  11.133 -1.8697 -2.6742  1.0604
   23ETHOX  H1310424  16.010  14.813  11.219  1.4953 -3.2244 -0.5227
   23ETHOX   C210425  16.028  14.778  11.016  0.0378  0.1128  0.0538
   23ETHOX  H2110426  16.051  14.836  10.924  1.6180  0.8942  0.8909
   23ETHOX  H2310427  15.921  14.747  11.015 -0.8783  2.9896 -0.3421
   24ETHOX   O110428  16.130  14.680  11.029 -0.2708 -0.0013 -0.2166
   24ETHOX   C110429  16.152  14.617  10.904 -0.0185  0.3259  0.2814
   24ETHOX  H1110430  16.190  14.694  10.833  1.5596  0.7967  1.5870
   24ETHOX  H1310431  16.240  14.551  10.915  0.3042  1.0320  2.3207
   24ETHOX   C210432  16.038  14.534  10.835  0.3657  0.1426  0.6279
   24ETHOX  H2110433  15.990  14.454  10.894 -1.1398 -0.8614 -1.7949
   24ETHOX  H2310434  16.095  14.490  10.750  0.3239  0.5586  0.3803
   25ETHOX   O110435  15.948  14.627  10.769 -0.2474 -0.2967 -0.0953
   25ETHOX   C110436  15.841  14.566  10.704  0.2327 -0.6774 -0.4280
   25ETHOX  H1110437  15.803  14.499  10.785 -0.9078  0.0330 -0.3546
   25ETHOX  H1310438  15.887  14.521  10.614  0.1529  2.6120 -2.2563
   25ETHOX   C210439  15.725  14.670  10.665  0.0331  0.7151  0.0475
   25ETHOX  H2110440  15.647  14.604  10.622 -0.0147 -0.4777  1.8538
   25ETHOX  H2310441  15.763  14.731  10.580  1.3362 -2.6496 -1.9631
   26ETHOX   O110442  15.674  14.749  10.775 -0.2749 -0.6232  0.2172
   26ETHOX   C110443  15.736  14.879  10.776  0.5531  0.6519 -0.0363
   26ETHOX  H1110444  15.846  14.871  10.762  0.5107 -0.5387  0.2182
   26ETHOX  H1310445  15.695  14.951  10.702  1.3907  2.5187  1.2429
   26ETHOX   C210446  15.714  14.936  10.920 -1.0942 -0.3215  0.5549
   26ETHOX  H2110447  15.759  14.874  11.000  0.8364 -2.6126 -2.1248
   26ETHOX  H2310448  15.603  14.939  10.931 -1.2660 -0.4484 -0.9352
   27ETHOX   O110449  15.766  15.067  10.930 -0.5959  0.0263 -0.7869
   27ETHOX   C110450  15.713  15.130  11.053  0.0246 -0.4379 -0.4056
   27ETHOX  H1110451  15.725  15.061  11.140 -2.2952 -0.1374  0.2116
   27ETHOX  H1310452  15.603  15.131  11.038 -1.0718  2.1402  5.1337
   27ETHOX   C210453  15.772  15.274  11.085 -0.5214  0.2600  0.5349
   27ETHOX  H2110454  15.881  15.268  11.067 -0.7696 -2.7697 -0.7326
   27ETHOX  H2310455  15.759  15.283  11.195  0.0083 -0.1432  0.6324
   28ETHOX   O110456  15.711  15.381  11.012 -0.7735 -0.0631  1.1313
   28ETHOX   C110457  15.754  15.376  10.878  0.0863 -0.1491  0.2401
   28ETHOX  H1110458  15.842  15.307  10.871 -0.0158 -0.2185 -0.4016
   28ETHOX  H1310459  15.663  15.334  10.830  0.3945  0.1390 -0.6146
   28ETHOX   C210460  15.778  15.518  10.823 -0.4689 -0.9145  0.3089
   28ETHOX  H2110461  15.820  15.518  10.721  3.6548  2.2489  1.7193
   28ETHOX  H2310462  15.850  15.572  10.888 -0.9053 -1.4488  1.2577
   29ETHOX   O110463  15.658  15.587  10.812 -0.2256 -0.1434 -0.1094
   29ETHOX   C110464  15.673  15.730  10.778 -0.5914  0.3902  0.5013
   29ETHOX  H1110465  15.758  15.781  10.828  1.0896  1.1529 -2.8802
   29ETHOX  H1310466  15.579  15.781  10.809 -1.8771 -1.3230 -0.4111
   29ETHOX   C210467  15.687  15.762  10.623 -0.2044  0.1246 -1.0176
   29ETHOX  H2110468  15.677  15.872  10.620 -2.3430  0.1498  2.3131
   29ETHOX  H2310469  15.602  15.710  10.573 -0.8279 -0.7236  0.8270
   30ETHOX   O110470  15.805  15.714  10.575  0.0971 -0.2562  0.1805
   30ETHOX   C110471  15.815  15.720  10.434 -0.9099 -0.1417 -0.4853
   30ETHOX  H1110472  15.728  15.668  10.388  0.7769 -2.1597 -1.5437
   30ETHOX  H1310473  15.800  15.829  10.419 -1.2216  0.3100  2.4624
   30ETHOX   C210474  15.948  15.686  10.376  0.3639  0.3198  0.1822
   30ETHOX  H2110475  15.964  15.576  10.380  1.7853  0.5021 -0.0672
   30ETHOX  H2310476  16.033  15.737  10.426  0.1949  0.9555 -0.1845
   31ETHOX   O110477  15.953  15.722  10.232 -0.0906 -0.0638 -0.1843
   31ETHOX   C110478  16.080  15.702  10.177  0.3214 -0.6375  0.7377
   31ETHOX  H1110479  16.148  15.769  10.235  0.4171 -1.0742  1.1305
   31ETHOX  H1310480  16.116  15.598  10.192 -0.0445 -0.9839 -0.6779
   31ETHOX   C210481  16.087  15.738  10.026  0.5694  0.4802 -0.1436
   31ETHOX  H2110482  15.988  15.728   9.976  0.9610  1.4897 -1.1828
   31ETHOX  H2310483  16.152  15.669   9.969  0.8412  0.2650  0.4283
   32ETHOX   O110484  16.129  15.873  10.009  0.1019 -0.4316 -0.4883
   32ETHOX   C110485  16.268  15.875   9.979 -0.0102  0.9380  1.2532
   32ETHOX  H1110486  16.317  15.800  10.044  2.1241  1.2435  0.0958
   32ETHOX  H1310487  16.272  15.842   9.873  0.5361  0.9684  1.2641
   32ETHOX   C210488  16.355  16.007  10.001 -0.3094  0.0611 -0.3090
   32ETHOX  H2110489  16.299  16.091   9.955  1.8669  3.1079  2.1758
   32ETHOX  H2310490  16.457  16.009   9.957 -1.2822  0.2856 -2.7291
   33ETHOX   O110491  16.367  16.024  10.141 -0.8711 -0.4362 -0.9375
   33ETHOX   C110492  16.461  16.134  10.168  0.1245 -0.7009 -0.2564
   33ETHOX  H1110493  16.564  16.098  10.146  0.3012  0.4425 -1.3628
   33ETHOX  H1310494  16.440  16.221  10.103 -2.2228  0.1389  1.4902
   33ETHOX   C210495  16.460  16.175  10.312  0.3165  0.1448  0.1468
   33ETHOX  H2110496  16.530  16.259  10.334 -1.8719  2.6178 -1.6550
   33ETHOX  H2310497  16.494  16.086  10.368 -1.8000  0.1788  1.6044
   34ETHOX   O110498  16.335  16.217  10.364  0.5415 -0.5613 -0.5279
   34ETHOX   C110499  16.287  16.342  10.309 -0.5204  0.6219 -0.7891
   34ETHOX  H1110500  16.220  16.321  10.223 -0.5837 -2.0117 -0.1644
   34ETHOX  H1310501  16.382  16.389  10.275 -0.5989  0.5088 -1.1726
   34ETHOX   C210502  16.214  16.423  10.414 -0.6098 -0.3156 -0.1516
   34ETHOX  H2110503  16.147  16.354  10.469 -0.3996 -1.4834 -1.2879
   34ETHOX  H2310504  16.151  16.499  10.363 -1.8930 -1.5566 -0.4994
   35ETHOX   O110505  16.307  16.500  10.493  0.2323 -0.2378  0.7058
   35ETHOX   C110506  16.395  16.433  10.580  0.1925  0.0433  0.0728
   35ETHOX  H1110507  16.335  16.360  10.638  0.0362 -1.0407 -1.3884
   35ETHOX  H1310508  16.483  16.385  10.531 -0.0435 -0.6766  0.3357
   35ETHOX   C210509  16.438  16.545  10.677 -0.5380 -1.1506 -0.4865
   35ETHOX  H2110510  16.500  16.495  10.755  0.1029  0.5793  0.1625
   35ETHOX  H2310511  16.353  16.582  10.738  1.0901 -0.7171  1.6758
   36ETHOX   O110512  16.504  16.665  10.629  0.2434  0.0572  0.0528
   36ETHOX   C110513  16.523  16.754  10.744 -0.2817 -0.6033 -0.0712
   36ETHOX  H1110514  16.556  16.700  10.835 -0.5469  2.3119  1.8632
   36ETHOX  H1310515  16.425  16.801  10.767 -0.0210 -0.6413  1.1587
   36ETHOX   C210516  16.625  16.869  10.707 -0.3718  0.3052  0.0504
   36ETHOX  H2110517  16.727  16.827  10.704 -0.2726  0.1494  2.9162
   36ETHOX  H2310518  16.625  16.938  10.794  2.5194  0.5687 -0.0709
   37ETHOX   O110519  16.600  16.937  10.581 -0.2629 -0.6691 -0.5470
   37ETHOX   C110520  16.692  16.893  10.483 -0.1979 -0.3494  0.0035
   37ETHOX  H1110521  16.797  16.918  10.512 -0.7805  1.7514  0.5440
   37ETHOX  H1310522  16.685  16.784  10.467  3.0596 -0.2832 -3.1241
   37ETHOX   C210523  16.661  16.959  10.346 -0.3990 -0.4015 -0.6250
   37ETHOX  H2110524  16.555  16.950  10.317 -0.3505  0.4937 -1.1163
   37ETHOX  H2310525  16.732  16.919  10.270  0.0221  0.9415 -0.9673
   38ETHOX   O110526  16.684  17.099  10.338  0.2689 -0.8430  0.4791
   38ETHOX   C110527  16.625  17.149  10.218  0.1639 -0.4768 -0.0185
   38ETHOX  H1110528  16.515  17.150  10.237  0.0904 -0.5254 -0.4460
   38ETHOX  H1310529  16.654  17.084  10.133  0.8819 -2.0467  1.3524
   38ETHOX   C210530  16.663  17.290  10.182  0.3659 -0.2499  0.1633
   38ETHOX  H2110531  16.648  17.344  10.278 -0.9576 -0.0052 -0.1640
   38ETHOX  H2310532  16.588  17.336  10.114  0.7468  1.1449  0.6543
   39ETHOX   O110533  16.794  17.315  10.131  0.0814  0.0378  0.1510
   39ETHOX   C110534  16.897  17.288  10.223 -0.5235 -0.8296 -0.4286
   39ETHOX  H1110535  16.883  17.355  10.310 -2.1199  0.7471 -1.8287
   39ETHOX  H1310536  16.900  17.182  10.256 -0.9963 -0.9380 -0.7254
   39ETHOX   C210537  17.035  17.331  10.171  0.5604  0.1500 -0.4207
   39ETHOX  H2110538  17.099  17.344  10.261 -0.5444  0.1760  0.3736
   39ETHOX  H2310539  17.028  17.435  10.133 -2.1527  0.3800  0.5061
   40ETHOX   O110540  17.090  17.231  10.083 -0.0692 -0.1498 -0.2159
   40ETHOX   C110541  17.227  17.262  10.059  0.3999 -1.3283  1.0387
   40ETHOX  H1110542  17.284  17.243  10.153  1.8873  1.2512  0.7437
   40ETHOX  H1310543  17.235  17.372  10.045  0.0554 -1.3564  0.5905
   40ETHOX   C210544  17.275  17.184   9.934  0.0134 -0.6777  0.0504
   40ETHOX  H2110545  17.384  17.193   9.918  0.0411 -2.8282 -1.4441
   40ETHOX  H2310546  17.225  17.228   9.845 -2.0331  0.8416  1.8186
   41ETHOX   O110547  17.235  17.046   9.925  0.0239 -0.2866 -0.2365
   41ETHOX   C110548  17.319  16.991   9.821  0.4175 -0.2087 -0.5892
   41ETHOX  H1110549  17.291  17.040   9.726 -0.2948  1.1955  0.3059
   41ETHOX  H1310550  17.422  17.015   9.855  0.1862 -0.7363  0.5722
   41ETHOX   C210551  17.312  16.837   9.828  0.6909  0.5306 -0.2267
   41ETHOX  H2110552  17.382  16.796   9.751 -0.2408 -1.6851  0.0216
   41ETHOX  H2310553  17.207  16.804   9.814  0.6666  0.6703 -0.3918
   42ETHOX   O110554  17.354  16.791   9.955 -0.3510 -0.2586 -0.0255
   42ETHOX   C110555  17.315  16.661   9.989 -0.1451 -0.0360 -0.7033
   42ETHOX  H1110556  17.204  16.661   9.994 -0.1060 -0.0629  0.2714
   42ETHOX  H1310557  17.351  16.588   9.913 -2.8056 -2.8900  0.5169
   42ETHOX   C210558  17.361  16.604  10.133 -0.2235 -0.6052  0.3079
   42ETHOX  H2110559  17.314  16.505  10.155 -0.5889 -0.4919  0.0450
   42ETHOX  H2310560  17.322  16.667  10.216  0.0533  1.0999 -0.8252
   43ETHOX   O110561  17.502  16.614  10.135  0.3445  0.2295  0.3986
   43ETHOX   C110562  17.564  16.556  10.247 -0.5494  0.8855  0.4437
   43ETHOX  H1110563  17.558  16.625  10.335  1.2384  0.1723  1.1763
   43ETHOX  H1310564  17.505  16.464  10.267  0.9526 -0.4400 -0.9430
   43ETHOX   C210565  17.713  16.533  10.208  0.3492  0.2627 -0.8508
   43ETHOX  H2110566  17.721  16.448  10.136  3.0189  1.4293 -2.0752
   43ETHOX  H2310567  17.756  16.491  10.302 -0.0558  2.6185  0.4505
   44ETHOX   O110568  17.790  16.640  10.164  0.3177  0.0422 -0.3453
   44ETHOX   C110569  17.804  16.744  10.267  0.1118  1.3406  0.5787
   44ETHOX  H1110570  17.713  16.807  10.276  0.7180  1.9968  2.5265
   44ETHOX  H1310571  17.822  16.690  10.363  1.3985 -0.9664 -0.8706
   44ETHOX   C210572  17.912  16.846  10.230  0.0250 -0.1719  0.3187
   44ETHOX  H2110573  18.006  16.795  10.200  0.5604  1.4524 -0.9357
   44ETHOX  H2310574  17.937  16.903  10.322  1.2621  0.7914 -0.5800
   45ETHOX   O110575  17.876  16.939  10.130 -0.3071  0.1649 -0.1651
   45ETHOX   C110576  17.995  16.980  10.057  0.2764 -0.1560 -0.6488
   45ETHOX  H1110577  17.962  17.036   9.967  0.6611  3.5968  1.3700
   45ETHOX  H1310578  18.058  16.893  10.028 -0.5176 -1.3640  1.0833
   45ETHOX   C210579  18.085  17.080  10.129  0.4487  0.7268  0.7048
   45ETHOX  H2110580  18.175  17.112  10.074 -0.3565  0.4186 -0.8569
   45ETHOX  H2310581  18.120  17.034  10.224 -0.7132 -0.5492  0.5440
   46ETHOX   O110582  18.021  17.195  10.169  0.1114  0.0925  0.0388
   46ETHOX   C110583  18.087  17.275  10.267 -1.0699  0.2987 -0.5605
   46ETHOX  H1110584  18.112  17.221  10.361  0.9248 -0.6805 -1.5903
   46ETHOX  H1310585  18.179  17.306  10.214 -0.4880 -0.8869 -0.2847
   46ETHOX   C210586  18.009  17.399  10.305 -0.8447  0.1430  0.1501
   46ETHOX  H2110587  17.971  17.460  10.221  0.8993  2.0670  0.6617
   46ETHOX  H2310588  18.089  17.463  10.349  1.0980 -0.6898 -1.9873
   47ETHOX   O110589  17.900  17.382  10.393  0.0686 -0.4788 -0.1675
   47ETHOX   C110590  17.839  17.503  10.441 -0.2953  0.2672 -0.2839
   47ETHOX  H1110591  17.784  17.551  10.358 -2.0214 -0.0222  0.6423
   47ETHOX  H1310592  17.915  17.578  10.471  1.4010 -1.6189  0.3463
   47ETHOX   C210593  17.744  17.465  10.556  0.2909  0.5082 -0.1464
   47ETHOX  H2110594  17.686  17.556  10.581 -1.2122 -0.7749  1.2932
   47ETHOX  H2310595  17.799  17.430  10.646  0.9747  1.2704 -0.2562
   48ETHOX   O110596  17.648  17.371  10.514 -0.0752 -0.2218 -0.1953
   48ETHOX   C110597  17.547  17.345  10.609  0.8081 -0.0380 -0.3194
   48ETHOX  H1110598  17.598  17.316  10.704  2.2897  2.4309 -0.2856
   48ETHOX  H1310599  17.486  17.436  10.624 -0.8018 -0.9462 -1.1531
   48ETHOX   C210600  17.463  17.234  10.559 -0.3211  0.3544  0.3351
   48ETHOX  H2110601  17.370  17.213  10.615 -1.5619 -1.3191 -2.1302
   48ETHOX  H2310602  17.431  17.252  10.454  1.6517  3.2869  0.1248
   49ETHOX   O110603  17.541  17.117  10.568 -0.0347 -0.6093  0.1392
   49ETHOX   C110604  17.480  17.011  10.499 -0.4118  0.6611 -0.3288
   49ETHOX  H1110605  17.480  17.044  10.393  1.4872 -0.7547 -0.8384
   49ETHOX  H1310606  17.372  17.006  10.524 -1.0626 -1.9268 -2.9866
   49ETHOX   C210607  17.535  16.867  10.502  0.4725 -0.1872 -0.7735
   49ETHOX  H2110608  17.646  16.868  10.488  0.6876  0.8081  0.7223
   49ETHOX  H2310609  17.481  16.808  10.425  0.1952 -1.9984  0.7458
   50ETHOX   O110610  17.504  16.808  10.626 -0.7336 -0.2854  0.2527
   50ETHOX   C110611  17.529  16.670  10.628 -0.6925 -0.4216 -0.3722
   50ETHOX  H1110612  17.452  16.615  10.570 -0.8900 -1.2786  0.6626
   50ETHOX  H1310613  17.628  16.668  10.578 -0.2764 -0.8034  0.4428
   50ETHOX   C210614  17.532  16.603  10.763  0.3066 -0.5555 -0.0584
   50ETHOX  H2110615  17.593  16.659  10.836  0.0616 -0.9172  0.4286
   50ETHOX  H2310616  17.566  16.497  10.763  0.9547 -0.3704 -1.4001
   51ETHOX   O110617  17.398  16.612  10.811 -0.3987  0.3996 -0.5496
   51ETHOX   C110618  17.380  16.573  10.949  0.0526  0.7980 -0.0319
   51ETHOX  H1110619  17.448  16.631  11.015 -0.8426  1.5840  0.2278
   51ETHOX  H1310620  17.422  16.470  10.950  1.8038  1.4728  1.1853
   51ETHOX   C210621  17.235  16.597  10.991 -0.2094 -0.2115  0.1122
   51ETHOX  H2110622  17.225  16.557  11.094 -1.5012 -0.9737 -0.2850
   51ETHOX  H2310623  17.162  16.545  10.925 -1.3849  1.5674 -0.0626
   52ETHOX   O110624  17.194  16.736  10.986  0.0652 -0.1112  0.5734
   52ETHOX   C110625  17.154  16.791  11.108  0.6805  0.0743  0.0054
   52ETHOX  H1110626  17.109  16.710  11.170  1.5133 -0.4653 -0.0924
   52ETHOX  H1310627  17.244  16.824  11.163  1.9216 -1.7522 -0.8464
   52ETHOX   C210628  17.044  16.900  11.092 -0.1894  0.1312 -0.4182
   52ETHOX  H2110629  17.056  16.958  10.998 -0.3753 -0.8060 -1.0309
   52ETHOX  H2310630  17.041  16.978  11.172 -0.5090  0.0876 -0.3855
   53ETHOX   O110631  16.913  16.848  11.099 -0.0698  0.1207  0.3939
   53ETHOX   C110632  16.812  16.942  11.092  0.2595  0.3557  0.0421
   53ETHOX  H1110633  16.843  17.036  11.141  1.5071  0.3315 -0.6468
   53ETHOX  H1310634  16.800  16.967  10.985  2.0184 -0.0755 -0.2874
   53ETHOX   C210635  16.681  16.891  11.155 -0.0847  0.4870 -0.9832
   53ETHOX  H2110636  16.612  16.978  11.161 -0.8462 -0.1814  0.4611
   53ETHOX  H2310637  16.697  16.853  11.258 -1.2057  4.8035  0.9989
   54ETHOX   O110638  16.623  16.793  11.068  0.0624 -0.3225 -0.6272
   54ETHOX   C110639  16.496  16.746  11.103 -0.0511 -0.3104 -0.3663
   54ETHOX  H1110640  16.419  16.820  11.135  1.1637  0.2930  1.3268
   54ETHOX  H1310641  16.454  16.693  11.015 -0.3158 -0.9849  0.1544
   54ETHOX   C210642  16.496  16.649  11.218 -0.3500  0.5889  0.6221
   54ETHOX  H2110643  16.563  16.568  11.182 -1.8043 -0.1860 -0.4891
   54ETHOX  H2310644  16.394  16.604  11.217  0.9727 -2.6741 -0.1011
   55ETHOX   O110645  16.531  16.700  11.351  0.1690 -0.1827  0.1012
   55ETHOX   C110646  16.563  16.601  11.437 -0.5308  0.3619  0.9497
   55ETHOX  H1110647  16.494  16.514  11.428 -0.1407  0.1563 -0.2915
   55ETHOX  H1310648  16.670  16.579  11.417 -0.5833 -0.7810  1.8277
   55ETHOX   C210649  16.547  16.661  11.581 -0.4128  0.3622 -0.6196
   55ETHOX  H2110650  16.457  16.726  11.584 -0.3387  0.7422 -3.4532
   55ETHOX  H2310651  16.553  16.576  11.652 -0.6286  0.2523 -0.7349
   56ETHOX   O110652  16.650  16.756  11.605 -0.6312  0.2108  0.2964
   56ETHOX   C110653  16.701  16.754  11.740 -0.2707  0.0737 -1.1326
   56ETHOX  H1110654  16.714  16.650  11.776  0.2694  0.4762 -0.1248
   56ETHOX  H1310655  16.618  16.809  11.789 -1.1520  0.9564 -3.4567
   56ETHOX   C210656  16.836  16.829  11.764  0.2510  0.5053  0.1454
   56ETHOX  H2110657  16.868  16.820  11.870 -0.0817 -2.2103  0.0830
   56ETHOX  H2310658  16.825  16.937  11.742  1.4776  0.9253  1.4750
   57ETHOX   O110659  16.941  16.762  11.695 -0.4814  0.0146  0.6240
   57ETHOX   C110660  16.991  16.841  11.588  0.1860  0.8040 -0.4028
   57ETHOX  H1110661  16.903  16.890  11.542 -1.2256 -1.1174  0.1040
   57ETHOX  H1310662  17.052  16.923  11.630  0.2363  0.4224  0.2739
   57ETHOX   C210663  17.074  16.777  11.474  0.0912  0.1304  0.2750
   57ETHOX  H2110664  17.096  16.860  11.404  2.3701  0.0321  0.7887
   57ETHOX  H2310665  17.015  16.694  11.430 -0.7470 -0.4856  2.4167
   58ETHOX   O110666  17.194  16.748  11.536 -0.2030  0.0864 -0.2475
   58ETHOX   C110667  17.297  16.688  11.454 -0.5604  0.3494  0.1083
   58ETHOX  H1110668  17.336  16.763  11.381  1.0257 -2.2742 -1.9380
   58ETHOX  H1310669  17.266  16.590  11.412  1.9289 -1.5448  2.2953
   58ETHOX   C210670  17.413  16.635  11.548 -0.2464  0.4754  0.4752
   58ETHOX  H2110671  17.414  16.704  11.635 -0.6173  0.2263  0.6781
   58ETHOX  H2310672  17.509  16.640  11.493  0.9912  1.1889  2.5838
   59ETHOX   O110673  17.405  16.506  11.609 -0.0523  0.2099 -0.0073
   59ETHOX   C110674  17.520  16.491  11.698  0.4185 -0.3276  0.0196
   59ETHOX  H1110675  17.619  16.508  11.649  0.7036 -1.3963  0.2058
   59ETHOX  H1310676  17.491  16.559  11.781 -0.5691  0.6241 -1.0597
   59ETHOX   C210677  17.501  16.346  11.750  0.8219 -0.7124  0.0053
   59ETHOX  H2110678  17.400  16.336  11.795  1.6281  1.3351  2.4911
   59ETHOX  H2310679  17.576  16.334  11.831 -0.2281  1.6208  1.4322
   60ETHOX   O110680  17.524  16.245  11.657 -0.3837  0.1830  0.0318
   60ETHOX   C110681  17.597  16.131  11.703  0.3976  0.7648  0.5522
   60ETHOX  H1110682  17.554  16.086  11.795 -0.5346 -0.4928 -0.4593
   60ETHOX  H1310683  17.703  16.156  11.723  0.6056 -0.2371  0.7579
   60ETHOX   C210684  17.594  16.025  11.588  0.6810  0.1936 -0.1450
   60ETHOX  H2110685  17.667  15.945  11.613 -0.7900 -0.2977  3.1126
   60ETHOX  H2310686  17.635  16.076  11.498  1.6272  0.5189  0.4477
   61ETHOX   O110687  17.469  15.956  11.577  0.0609  0.1391  0.1090
   61ETHOX   C110688  17.470  15.857  11.477  0.1143 -0.6714 -0.0374
   61ETHOX  H1110689  17.477  15.900  11.375 -0.9849 -1.7708 -0.6092
   61ETHOX  H1310690  17.553  15.784  11.486  1.7640  1.2342  1.0402
   61ETHOX   C210691  17.332  15.789  11.481 -0.2663 -0.6833 -0.1635
   61ETHOX  H2110692  17.321  15.739  11.382  1.5845  1.3408 -1.4807
   61ETHOX  H2310693  17.256  15.869  11.490 -0.2964 -0.6685 -0.5258
   62ETHOX   O110694  17.314  15.688  11.576  0.1833 -0.0695  0.2344
   62ETHOX   C110695  17.195  15.618  11.550 -0.0306  0.5249 -0.3344
   62ETHOX  H1110696  17.195  15.598  11.441  2.6016  0.6222 -0.4253
   62ETHOX  H1310697  17.103  15.672  11.582 -1.2590 -0.9051 -1.3201
   62ETHOX   C210698  17.190  15.485  11.627  0.6104 -0.1577  0.1841
   62ETHOX  H2110699  17.292  15.447  11.602  0.6108  0.3759 -0.6418
   62ETHOX  H2310700  17.104  15.420  11.603  0.6510 -0.8097  1.6990
   63ETHOX   O110701  17.188  15.527  11.764  0.3141 -0.1936  0.1265
   63ETHOX   C110702  17.193  15.406  11.841 -0.0495  0.5915  0.1310
   63ETHOX  H1110703  17.099  15.350  11.825 -0.1678  0.8656 -0.1515
   63ETHOX  H1310704  17.283  15.351  11.804 -1.9055 -2.2731 -0.4411
   63ETHOX   C210705  17.205  15.435  11.993  0.4703  0.2044  0.0825
   63ETHOX  H2110706  17.309  15.474  11.998  1.4118 -2.0024 -1.1725
   63ETHOX  H2310707  17.198  15.337  12.045 -1.5754 -0.1524 -0.7861
   64ETHOX   O110708  17.115  15.533  12.046 -0.6176  0.3443 -0.0793
   64ETHOX   C110709  16.986  15.483  12.038  0.2109 -0.0917  0.5602
   64ETHOX  H1110710  16.991  15.385  12.089  0.5041  0.1769  1.0522
   64ETHOX  H1310711  16.960  15.459  11.932  0.6740 -1.7023  0.7816
   64ETHOX   C210712  16.883  15.572  12.103  0.5372  0.1774 -0.9828
   64ETHOX  H2110713  16.910  15.605  12.205 -2.2611 -0.3931  0.0283
   64ETHOX  H2310714  16.791  15.510  12.117  2.7992 -3.2545  0.0252
   65ETHOX   O110715  16.852  15.675  12.009 -0.8563  0.4048 -0.0666
   65ETHOX   C110716  16.802  15.794  12.062  0.3634  0.4846  0.0136
   65ETHOX  H1110717  16.700  15.780  12.104 -0.1912  0.7950 -1.1890
   65ETHOX  H1310718  16.873  15.822  12.142 -0.0736 -1.8867  1.3270
   65ETHOX   C210719  16.790  15.918  11.969  0.1313  0.1783 -0.2441
   65ETHOX  H2110720  16.889  15.931  11.920 -0.6524 -2.4919 -2.8298
   65ETHOX  H2310721  16.758  16.003  12.033 -0.8877 -1.6754  1.8803
   66ETHOX   O110722  16.690  15.884  11.875  0.2088  0.5965 -0.3248
   66ETHOX   C110723  16.660  15.986  11.784  0.0351  0.1881 -0.3681
   66ETHOX  H1110724  16.647  15.937  11.686 -0.4022 -2.7323  1.0437
   66ETHOX  H1310725  16.754  16.045  11.773 -0.3192  0.9207  0.3909
   66ETHOX   C210726  16.538  16.066  11.818 -0.0904 -0.2027 -0.8751
   66ETHOX  H2110727  16.458  15.998  11.854 -0.3713  0.6981  0.2745
   66ETHOX  H2310728  16.505  16.119  11.726 -1.6723 -2.4921 -1.7164
   67ETHOX   O110729  16.563  16.160  11.927 -0.2163  0.1183  0.2464
   67ETHOX   C110730  16.647  16.264  11.886  0.7924  0.1272 -0.0214
   67ETHOX  H1110731  16.753  16.229  11.882 -0.1022 -3.1975  1.5127
   67ETHOX  H1310732  16.619  16.299  11.785  0.3976 -0.7056 -0.2068
   67ETHOX   C210733  16.638  16.375  11.991  0.0319 -0.2718  1.2961
   67ETHOX  H2110734  16.733  16.431  11.978  0.3790 -1.4950 -2.8992
   67ETHOX  H2310735  16.633  16.320  12.088 -4.9687 -0.4353  1.1983
   68ETHOX   O110736  16.520  16.445  11.978  0.1343  0.0211  0.7919
   68ETHOX   C110737  16.522  16.555  12.061 -0.0928 -0.8426 -0.7110
   68ETHOX  H1110738  16.547  16.523  12.165  1.5824  0.7301 -0.5788
   68ETHOX  H1310739  16.607  16.618  12.028 -2.0689  2.5714  0.1683
   68ETHOX   C210740  16.383  16.636  12.068  0.0309  0.1350 -0.0335
   68ETHOX  H2110741  16.409  16.732  12.117 -2.1610 -0.4608  2.4854
   68ETHOX  H2310742  16.311  16.570  12.121  0.0935  2.3030  3.0031
   69ETHOX   O110743  16.348  16.657  11.931 -0.4492 -0.0266  0.2130
   69ETHOX   C110744  16.222  16.710  11.920 -0.4992  0.2051 -0.1850
   69ETHOX  H1110745  16.154  16.622  11.919 -0.8444  0.4688  0.0335
   69ETHOX  H1310746  16.204  16.774  12.009  1.4841  1.3738 -0.5631
   69ETHOX   C210747  16.208  16.796  11.795  0.1320  0.2498  0.0940
   69ETHOX  H2110748  16.292  16.868  11.782 -1.0125  1.5235 -0.4724
   69ETHOX  H2310749  16.117  16.859  11.796  0.1018  0.2097 -0.0855
   70ETHOX   O110750  16.198  16.701  11.687  0.1521  0.0157  0.2083
   70ETHOX   C110751  16.140  16.744  11.567 -0.6183 -0.9802 -0.4813
   70ETHOX  H1110752  16.037  16.784  11.573 -0.5274 -0.7974 -0.1082
   70ETHOX  H1310753  16.198  16.828  11.522 -1.1652 -0.5018 -0.3032
   70ETHOX   C210754  16.130  16.636  11.461  0.3693 -0.0011 -0.2337
   70ETHOX  H2110755  16.229  16.599  11.425  0.8738  0.2766  0.8083
   70ETHOX  H2310756  16.075  16.682  11.376  1.0348  0.7341 -0.2885
   71ETHOX   O110757  16.060  16.525  11.523 -0.2127 -0.6008 -0.3850
   71ETHOX   C110758  16.028  16.427  11.428 -0.5694  0.2126 -0.3408
   71ETHOX  H1110759  16.123  16.369  11.419  0.1346  1.1274  0.8487
   71ETHOX  H1310760  15.995  16.455  11.326 -0.3372  0.3902 -0.3704
   71ETHOX   C210761  15.918  16.341  11.491 -0.8095  0.6530 -0.5726
   71ETHOX  H2110762  15.955  16.312  11.591  1.2903 -1.8924 -1.9417
   71ETHOX  H2310763  15.906  16.253  11.423  3.9479 -1.4458  0.8991
   72ETHOX   O110764  15.798  16.413  11.501 -0.0532 -0.0158  0.0828
   72ETHOX   C110765  15.687  16.333  11.500  0.3300 -0.4807  0.6542
   72ETHOX  H1110766  15.699  16.277  11.405 -0.0764  0.0355  0.2953
   72ETHOX  H1310767  15.684  16.278  11.597 -4.0839 -2.4539 -0.3895
   72ETHOX   C210768  15.569  16.422  11.505  0.1834  0.0865 -0.0526
   72ETHOX  H2110769  15.569  16.497  11.586 -0.4097  0.6234 -0.5323
   72ETHOX  H2310770  15.470  16.373  11.518 -0.5802  2.0534  2.1601
   73ETHOX   O110771  15.549  16.508  11.396  0.2615  0.6963 -0.0507
   73ETHOX   C110772  15.421  16.564  11.382  0.3709 -0.1666 -0.5845
   73ETHOX  H1110773  15.389  16.629  11.467 -2.2079 -0.6008 -1.1244
   73ETHOX  H1310774  15.338  16.490  11.376 -2.6621  2.8765  0.2509
   73ETHOX   C210775  15.426  16.642  11.256  0.0802 -0.1330  0.0227
   73ETHOX  H2110776  15.321  16.667  11.227 -0.0494  0.6956  1.1553
   73ETHOX  H2310777  15.474  16.577  11.179  0.1823 -0.7584  0.6059
   74ETHOX   O110778  15.497  16.764  11.278  0.4114 -0.2076  0.3001
   74ETHOX   C110779  15.529  16.833  11.157  0.3697  0.0248 -0.4369
   74ETHOX  H1110780  15.632  16.872  11.176  0.7357 -2.2301  3.0511
   74ETHOX  H1310781  15.530  16.763  11.071 -2.2250 -0.3298 -0.2542
   74ETHOX   C210782  15.424  16.941  11.123  0.1818  0.3323 -0.0826
   74ETHOX  H2110783  15.468  17.013  11.051  2.2694  1.5770  2.2936
   74ETHOX  H2310784  15.403  16.991  11.220  1.2354 -2.1931  1.5619
   75ETHOX   O110785  15.309  16.877  11.061  0.6412  0.0027 -0.3320
   75ETHOX   C110786  15.204  16.975  11.063 -0.1433 -0.0394  0.1256
   75ETHOX  H1110787  15.142  16.978  10.971 -0.0487  0.5013  0.0765
   75ETHOX  H1310788  15.250  17.076  11.068 -1.3697  0.5182  0.4078
   75ETHOX   C210789  15.127  16.955  11.199  0.1222 -0.6070  0.4357
   75ETHOX  H2110790  15.087  17.052  11.235  1.0366 -0.8410  2.1758
   75ETHOX  H2310791  15.194  16.921  11.281  1.7743  2.0214  0.3096
   76ETHOX   O110792  15.007  16.878  11.184  0.1081 -0.2272  0.3586
   76ETHOX   C110793  14.914  16.897  11.289 -0.0675 -0.1874  0.4108
   76ETHOX  H1110794  14.968  16.873  11.383  1.6596 -4.5720 -1.4104
   76ETHOX  H1310795  14.878  17.002  11.277  1.6098  0.5771  1.7117
   76ETHOX   C210796  14.798  16.800  11.287  0.6422 -0.3220  0.8647
   76ETHOX  H2110797  14.765  16.819  11.182  0.8827  0.8119  0.9872
   76ETHOX  H2310798  14.724  16.830  11.364 -2.7425 -2.4947 -1.2543
   77ETHOX   O110799  14.827  16.665  11.316  0.4288  0.8367  0.3294
   77ETHOX   C110800  14.721  16.590  11.368  0.7461 -0.2482  0.1888
   77ETHOX  H1110801  14.623  16.611  11.319  0.4807 -0.3175  0.6916
   77ETHOX  H1310802  14.712  16.614  11.476 -0.3435 -0.0068  0.0578
   77ETHOX   C210803  14.752  16.442  11.341 -0.3902 -0.3107 -0.3227
   77ETHOX  H2110804  14.787  16.429  11.237  3.4707 -1.0347  0.9086
   77ETHOX  H2310805  14.655  16.393  11.364 -1.2361  1.2091 -0.5294
   78ETHOX   O110806  14.847  16.400  11.440  0.1551  0.1835  0.4981
   78ETHOX   C110807  14.840  16.255  11.447 -0.1652  0.5069 -0.0609
   78ETHOX  H1110808  14.738  16.213  11.456  1.3561 -4.2079 -1.8628
   78ETHOX  H1310809  14.885  16.213  11.354 -0.2841  0.1881  0.0244
   78ETHOX   C210810  14.922  16.188  11.561  0.2718 -0.4306  0.9923
   78ETHOX  H2110811  14.890  16.083  11.582 -2.8580  0.3453  0.5013
   78ETHOX  H2310812  14.901  16.253  11.649 -2.3675 -2.0409  1.6706
   79ETHOX   O110813  15.061  16.194  11.536  0.2818 -0.4072  0.2020
   79ETHOX   C110814  15.141  16.148  11.640  0.0147 -0.3502 -0.2397
   79ETHOX  H1110815  15.141  16.223  11.722  2.5562 -1.3172  0.7314
   79ETHOX  H1310816  15.108  16.048  11.673  1.6698 -1.3215 -1.3742
   79ETHOX   C210817  15.281  16.121  11.606  0.1978  0.1501  0.1181
   79ETHOX  H2110818  15.332  16.065  11.686  0.7675 -1.1782 -1.1339
   79ETHOX  H2310819  15.329  16.221  11.602  0.8549 -0.0276  2.4943
   80ETHOX   O110820  15.307  16.041  11.492  0.0230  0.6913  0.0008
   80ETHOX   C110821  15.436  15.999  11.481  0.1079 -0.0144  0.4885
   80ETHOX  H1110822  15.506  16.084  11.490 -2.4915  2.1827  1.6776
   80ETHOX  H1310823  15.449  15.929  11.567 -0.3147  0.1683  0.7056
   80ETHOX   C210824  15.450  15.932  11.344 -0.4171 -0.3400  0.1058
   80ETHOX  H2110825  15.458  15.996  11.254  1.6580 -1.7358 -0.7774
   80ETHOX  H2310826  15.357  15.874  11.326  0.5200 -0.9548 -3.6556
   81ETHOX   O110827  15.567  15.864  11.355 -0.6145  0.3716 -0.1277
   81ETHOX   C110828  15.570  15.744  11.272 -0.7986  0.3124 -0.6445
   81ETHOX  H1110829  15.661  15.702  11.320  0.3237  2.0145 -1.1745
   81ETHOX  H1310830  15.483  15.678  11.292  1.1162 -1.5595  2.2067
   81ETHOX   C210831  15.598  15.770  11.122  1.3982  0.0817 -0.3613
   81ETHOX  H2110832  15.565  15.675  11.074  2.0452 -0.6069  0.5151
   81ETHOX  H2310833  15.534  15.853  11.086 -0.6496 -1.3001 -0.1041
   82ETHOX   O110834  15.734  15.791  11.095  0.1211 -0.0128  0.0440
   82ETHOX   C110835  15.770  15.923  11.120  0.5861 -0.4693 -0.0806
   82ETHOX  H1110836  15.752  15.949  11.226 -2.3549 -0.5206 -0.4859
   82ETHOX  H1310837  15.704  15.989  11.060  0.1043 -1.7397 -1.0036
   82ETHOX   C210838  15.918  15.945  11.075 -0.1867  0.2528  0.4973
   82ETHOX  H2110839  15.929  16.045  11.027  0.4094 -0.3641 -0.6842
   82ETHOX  H2310840  15.944  15.879  10.990 -1.4530 -2.4743  2.1228
   83ETHOX   O110841  16.023  15.938  11.172 -0.5960  0.2598 -0.3356
   83ETHOX   C110842  16.150  15.946  11.103  0.3166 -0.3453 -0.4780
   83ETHOX  H1110843  16.178  15.853  11.050 -1.2172 -1.2957  0.2800
   83ETHOX  H1310844  16.157  16.023  11.024  0.2921 -1.6441 -1.7916
   83ETHOX   C210845  16.255  15.986  11.200 -0.2463  0.2980 -0.7946
   83ETHOX  H2110846  16.215  16.078  11.249 -4.0166 -2.1159  1.1319
   83ETHOX  H2310847  16.348  16.011  11.144  2.4977 -0.4284  2.9890
   84ETHOX   O110848  16.282  15.891  11.305 -0.1815  0.1064  0.1968
   84ETHOX   C110849  16.390  15.936  11.380 -0.2753 -0.2233  0.1334
   84ETHOX  H1110850  16.371  16.036  11.424 -0.0095  0.4713 -1.2797
   84ETHOX  H1310851  16.487  15.950  11.327 -1.7076 -0.9770 -2.9153
   84ETHOX   C210852  16.406  15.832  11.490  0.3063  0.2880  0.1707
   84ETHOX  H2110853  16.498  15.863  11.545 -0.0999 -1.0268  1.6747
   84ETHOX  H2310854  16.421  15.730  11.448 -0.2528  0.0400  0.5632
   85ETHOX   O110855  16.307  15.828  11.593 -0.6580  0.1773 -0.2227
   85ETHOX   C110856  16.341  15.733  11.694  0.4462  0.2695 -0.3711
   85ETHOX  H1110857  16.377  15.639  11.647 -3.1088 -2.6679  2.1648
   85ETHOX  H1310858  16.409  15.783  11.766 -1.7355  3.2175 -0.1706
   85ETHOX   C210859  16.205  15.698  11.758 -0.1828  0.1443  0.4225
   85ETHOX  H2110860  16.142  15.790  11.766  0.8188  0.9074 -0.1135
   85ETHOX  H2310861  16.228  15.662  11.860  0.4374 -0.4807  0.0723
   86ETHOX   O110862  16.131  15.609  11.681 -0.0499 -0.2609 -0.0214
   86ETHOX   C110863  15.997  15.611  11.722 -0.0635  0.7545 -0.0073
   86ETHOX  H1110864  15.942  15.570  11.634  0.8824 -1.1620  0.2264
   86ETHOX  H1310865  15.951  15.711  11.716 -1.9046 -0.1112 -1.3367
   86ETHOX   C210866  15.965  15.536  11.843 -0.1470  0.4097  0.0341
   86ETHOX  H2110867  15.878  15.584  11.893  0.8964  2.8570 -0.3723
   86ETHOX  H2310868  16.047  15.547  11.917 -0.6991  0.7808  0.6038
   87ETHOX   O110869  15.938  15.396  11.815  0.0836  0.0014  0.3951
   87ETHOX   C110870  15.803  15.373  11.785  0.1508  0.2056  0.0340
   87ETHOX  H1110871  15.743  15.378  11.878 -1.9781 -2.6739 -1.0104
   87ETHOX  H1310872  15.767  15.457  11.722 -2.1509  0.0301  1.0388
   87ETHOX   C210873  15.784  15.227  11.732  0.0986  0.5620  0.9129
   87ETHOX  H2110874  15.862  15.189  11.662  1.0460  0.1926  2.1175
   87ETHOX  H2310875  15.693  15.225  11.669  2.1446  0.5133 -2.2450
   88ETHOX   O110876  15.785  15.131  11.836  0.0981  0.2635  0.3275
   88ETHOX   C110877  15.655  15.127  11.907 -0.5208  0.3068 -0.5289
   88ETHOX  H1110878  15.576  15.128  11.829 -0.7375  0.6317 -0.3087
   88ETHOX  H1310879  15.650  15.222  11.966 -0.2518  0.2467 -0.4055
   88ETHOX   C210880  15.636  15.003  11.987  0.1785 -0.2616 -0.3684
   88ETHOX  H2110881  15.570  15.017  12.075  2.1172 -2.9378  1.7027
   88ETHOX  H2310882  15.727  14.975  12.046 -0.5022 -0.1756  0.7616
   89ETHOX   O110883  15.584  14.891  11.912 -0.1146 -0.7278 -0.2067
   89ETHOX   C110884  15.621  14.766  11.967  0.1014 -0.0110 -0.3442
   89ETHOX  H1110885  15.730  14.759  11.950 -0.0210 -1.5632 -0.7012
   89ETHOX  H1310886  15.597  14.773  12.076 -1.0126  0.2654 -0.5975
   89ETHOX   C210887  15.540  14.648  11.912  0.3776 -0.5548  0.3472
   89ETHOX  H2110888  15.579  14.548  11.943  0.8718 -1.9726 -4.1223
   89ETHOX  H2310889  15.557  14.643  11.802 -1.9246  0.4624 -0.1174
   90ETHOX   O110890  15.397  14.661  11.919 -0.1515 -0.6499 -0.1537
   90ETHOX   C110891  15.332  14.555  11.840 -0.6320 -0.1562  0.0010
   90ETHOX  H1110892  15.294  14.607  11.750  0.3025 -0.5564 -0.6424
   90ETHOX  H1310893  15.408  14.484  11.803  0.0956  0.0034  1.1112
   90ETHOX   C210894  15.216  14.489  11.909  0.2724  0.8065 -0.3654
   90ETHOX  H2110895  15.165  14.417  11.841 -4.0705  2.5351  0.7399
   90ETHOX  H2310896  15.143  14.556  11.959 -1.3575 -1.4751  0.5122
   91ETHOX   O110897  15.251  14.409  12.024  0.0340  0.1624 -0.8163
   91ETHOX   C110898  15.266  14.486  12.148  0.3809 -0.7793  0.4881
   91ETHOX  H1110899  15.310  14.584  12.120  1.0654 -1.0061  0.7430
   91ETHOX  H1310900  15.159  14.495  12.177  0.2578 -1.9245  0.4503
   91ETHOX   C210901  15.343  14.401  12.257  0.5059  0.7878  0.8065
   91ETHOX  H2110902  15.447  14.378  12.223  0.8877  1.9172  1.1440
   91ETHOX  H2310903  15.290  14.304  12.263 -2.6632  2.2531 -0.9924
   92ETHOX   O110904  15.341  14.470  12.382  0.1030  0.2626  0.1028
   92ETHOX   C110905  15.415  14.413  12.485  0.0915  0.1617  0.2589
   92ETHOX  H1110906  15.368  14.317  12.516  0.6486 -1.5373 -3.5131
   92ETHOX  H1310907  15.519  14.394  12.453  1.0021  0.9383  2.5947
   92ETHOX   C210908  15.409  14.516  12.597 -0.0361  0.3729  0.0962
   92ETHOX  H2110909  15.459  14.607  12.558 -0.3662  0.1188 -0.9630
   92ETHOX  H2310910  15.470  14.477  12.681  0.0614  1.2808  0.4517
   93ETHOX   O110911  15.277  14.549  12.645 -0.1622 -0.1165 -0.6111
   93ETHOX   C110912  15.220  14.666  12.585 -0.6249 -0.0235 -0.6838
   93ETHOX  H1110913  15.187  14.638  12.483 -1.6729 -1.8733  0.1130
   93ETHOX  H1310914  15.300  14.742  12.571 -1.4947  0.8457 -1.0862
   93ETHOX   C210915  15.109  14.730  12.679 -0.1830  0.4078  0.4525
   93ETHOX  H2110916  15.033  14.653  12.705  0.9393 -0.5573  0.9804
   93ETHOX  H2310917  15.064  14.809  12.616  0.5850  1.2722  0.9638
   94ETHOX   O110918  15.160  14.798  12.801 -0.2606  0.6958  0.2725
   94ETHOX   C110919  15.054  14.837  12.889  0.5028  0.2725 -0.0368
   94ETHOX  H1110920  14.970  14.872  12.825  0.3213  0.0007  0.0526
   94ETHOX  H1310921  15.026  14.741  12.937  1.5769 -0.7265 -1.3125
   94ETHOX   C210922  15.102  14.945  12.987  0.3706 -0.1544  0.1848
   94ETHOX  H2110923  15.210  14.926  13.009  0.7170  0.2964 -1.0295
   94ETHOX  H2310924  15.052  14.926  13.084  1.0360 -2.1442  0.1898
   95ETHOX   O110925  15.090  15.087  12.953 -0.0983  0.2403  0.2352
   95ETHOX   C110926  15.189  15.126  12.860  0.2966  0.7315 -0.1130
   95ETHOX  H1110927  15.169  15.071  12.765 -0.2695  0.9373 -0.1155
   95ETHOX  H1310928  15.287  15.094  12.903  0.4085 -0.9643 -1.5221
   95ETHOX   C210929  15.187  15.278  12.851  0.3482  0.2404 -0.1909
   95ETHOX  H2110930  15.082  15.301  12.824  0.5136  1.7960  0.3970
   95ETHOX  H2310931  15.249  15.312  12.765 -1.6194  2.9718 -0.6724
   96ETHOX   O110932  15.209  15.352  12.971  0.0483  0.2174  0.2330
   96ETHOX   C110933  15.171  15.486  12.965  0.0844 -0.1892 -0.1406
   96ETHOX  H1110934  15.065  15.492  12.934 -0.1611  1.8933  0.8969
   96ETHOX  H1310935  15.169  15.521  13.070 -0.9227 -1.8668  0.4402
   96ETHOX   C210936  15.251  15.564  12.863  0.6504 -0.2241 -0.0171
   96ETHOX  H2110937  15.351  15.519  12.844  1.4489  0.8622  1.3867
   96ETHOX  H2310938  15.269  15.662  12.912  1.6075 -0.2575 -0.2719
   97ETHOX   O110939  15.185  15.570  12.737 -0.0408  0.1003  0.7793
   97ETHOX   C110940  15.076  15.668  12.727 -0.2943  0.6123 -0.8647
   97ETHOX  H1110941  15.033  15.698  12.825 -1.4127 -1.3621 -0.6944
   97ETHOX  H1310942  14.996  15.612  12.673 -0.2946  0.2535 -0.4963
   97ETHOX   C210943  15.149  15.786  12.649 -0.1315 -0.3147  0.4303
   97ETHOX  H2110944  15.189  15.755  12.550 -0.4312  2.7026 -0.7351
   97ETHOX  H2310945  15.230  15.812  12.720 -0.6092  2.3434  0.0899
   98ETHOX   O110946  15.060  15.902  12.633  0.5804  0.9053 -0.1168
   98ETHOX   C110947  15.134  16.014  12.590 -0.3932 -0.6738  0.3296
   98ETHOX  H1110948  15.218  16.040  12.659 -1.4269  2.8248  0.4620
   98ETHOX  H1310949  15.173  15.987  12.489  0.0422 -1.3759  0.6740
   98ETHOX   C210950  15.049  16.139  12.572  0.2252  0.2942  0.1686
   98ETHOX  H2110951  15.115  16.228  12.570  1.6117 -0.6730  1.0072
   98ETHOX  H2310952  14.977  16.145  12.656 -0.0025 -1.9751  0.1992
   99ETHOX   O110953  14.971  16.131  12.451 -0.4765  0.7502  0.7525
   99ETHOX   C110954  14.901  16.256  12.429 -0.2837  0.4505  0.6067
   99ETHOX  H1110955  14.961  16.332  12.374 -1.6604 -0.4882 -2.3858
   99ETHOX  H1310956  14.859  16.284  12.528 -0.5739 -3.4396  1.7750
   99ETHOX   C210957  14.796  16.220  12.320 -0.2782  0.2021  0.3422
   99ETHOX  H2110958  14.755  16.320  12.296  1.0338  0.2023 -2.2803
   99ETHOX  H2310959  14.728  16.136  12.348 -2.4324  1.1535 -1.6289
  100ETHOX   O110960  14.860  16.174  12.200  0.1486  0.1604 -0.3598
  100ETHOX   C110961  14.807  16.230  12.083  0.0900 -0.3619 -0.3625
  100ETHOX  H1110962  14.698  16.215  12.069 -0.1945  0.4455  0.8173
  100ETHOX  H1310963  14.826  16.338  12.102  0.1124 -0.4863  0.3810
  100ETHOX   C210964  14.883  16.190  11.955 -0.6264  1.1955 -0.9361
  100ETHOX  H2110965  14.991  16.194  11.979 -0.7905  1.2427 -0.1701
  100ETHOX  H2310966  14.868  16.272  11.881  0.5083  0.8807 -1.5293
  101PROXS   O110967  14.839  16.058  11.907 -0.0145  0.0581  0.2803
  101PROXS   C110968  14.928  15.951  11.937  0.3740  0.2127  0.1147
  101PROXS  H1110969  15.030  15.977  11.902  0.3240 -0.1460 -0.3019
  101PROXS  H1310970  14.911  15.928  12.044 -2.5609 -0.5765 -0.4236
  101PROXS   C210971  14.878  15.812  11.869 -0.4510 -0.3121 -0.5666
  101PROXS  H2110972  14.877  15.834  11.760 -0.1762  2.3856 -0.0892
  101PROXS   C310973  14.740  15.783  11.926  0.0552 -0.1176 -0.1833
  101PROXS  H3110974  14.752  15.764  12.035  1.5388 -0.3776 -0.3713
  101PROXS  H3210975  14.675  15.872  11.918 -1.7255 -1.1823  1.4265
  101PROXS  H3310976  14.693  15.696  11.875 -1.7132  1.7419 -1.9225
  102PROXS   O110977  14.964  15.702  11.906  0.2819  0.6529 -0.2185
  102PROXS   C110978  14.936  15.587  11.823 -0.0595  0.3333 -0.2658
  102PROXS  H1110979  14.885  15.510  11.884  1.2903 -0.1527  0.2984
  102PROXS  H1310980  14.876  15.606  11.732  0.5268 -0.2189 -0.7786
  102PROXS   C210981  15.072  15.530  11.767 -0.0137 -0.6295  0.4260
  102PROXS  H2110982  15.149  15.526  11.847  3.6180  1.7747 -2.6259
  102PROXS   C310983  15.124  15.633  11.667  0.3580 -0.5037  0.2593
  102PROXS  H3110984  15.159  15.727  11.716  0.6446 -0.0181 -0.8506
  102PROXS  H3210985  15.218  15.596  11.621  0.3196  0.2840 -0.4634
  102PROXS  H3310986  15.058  15.654  11.580 -0.5623  1.6560  1.4039
  103PROXR   O110987  15.052  15.400  11.698  0.1594  0.3199  0.4101
  103PROXR   C110988  15.173  15.335  11.673  0.0300 -0.5130  0.2381
  103PROXR  H1110989  15.230  15.400  11.602 -0.8866 -0.6676 -0.6614
  103PROXR  H1310990  15.236  15.337  11.765  0.4112  0.9140 -0.0126
  103PROXR   C210991  15.155  15.204  11.620  0.5236 -0.3222  0.0095
  103PROXR  H2110992  15.095  15.199  11.526  1.5326  1.0851 -0.7306
  103PROXR   C310993  15.085  15.124  11.737 -0.4703  0.2565  0.3343
  103PROXR  H3110994  14.986  15.173  11.750 -0.2790  1.2579 -1.5712
  103PROXR  H3210995  15.075  15.017  11.707  1.6850  0.0238  0.3175
  103PROXR  H3310996  15.147  15.137  11.828  1.3699 -1.3717 -0.6119
  104PROXS   O110997  15.281  15.143  11.602  0.0825  0.1614 -0.0283
  104PROXS   C110998  15.272  15.032  11.511  0.4376  0.0364 -0.6525
  104PROXS  H1110999  15.218  14.947  11.558  1.1605 -0.7437 -1.2235
  104PROXS  H1311000  15.226  15.071  11.418 -2.0371 -0.2682  0.3467
  104PROXS   C211001  15.416  14.982  11.484 -0.3954  0.6229  0.1315
  104PROXS  H2111002  15.473  14.973  11.579 -0.6251 -1.5738  0.1131
  104PROXS   C311003  15.490  15.069  11.384  0.1850 -0.6605  0.5287
  104PROXS  H3111004  15.448  15.049  11.283  1.9383  0.4858 -0.4750
  104PROXS  H3211005  15.476  15.177  11.408  1.9046 -0.8251  2.5523
  104PROXS  H3311006  15.600  15.055  11.389  0.3201 -0.3121 -1.0954
  105PROXS   O111007  15.412  14.854  11.414  0.2253  0.6142  0.4172
  105PROXS   C111008  15.460  14.747  11.491 -0.5437 -0.5230  0.7677
  105PROXS  H1111009  15.566  14.756  11.523  0.6876  0.0413 -2.9584
  105PROXS  H1311010  15.398  14.759  11.583 -1.5213  2.8504 -0.1734
  105PROXS   C211011  15.438  14.608  11.427  0.5079 -0.7349 -0.2979
  105PROXS  H2111012  15.499  14.613  11.334 -2.3195  0.6017 -2.2063
  105PROXS   C311013  15.288  14.578  11.389 -0.0691  0.7195 -0.3619
  105PROXS  H3111014  15.274  14.488  11.325  1.4661 -0.7406  1.2186
  105PROXS  H3211015  15.238  14.555  11.485  1.2398 -2.4512 -0.3112
  105PROXS  H3311016  15.242  14.672  11.353 -2.5869 -0.9641 -1.8846
  106PROXS   O111017  15.491  14.509  11.508  0.1773  0.6101  0.4864
  106PROXS   C111018  15.539  14.394  11.438  0.0557  0.4064  0.5834
  106PROXS  H1111019  15.484  14.369  11.344 -0.6464  1.6527  0.6387
  106PROXS  H1311020  15.637  14.422  11.394 -0.5046 -0.4631 -1.3318
  106PROXS   C211021  15.560  14.264  11.526 -0.2574  0.3769 -0.1773
  106PROXS  H2111022  15.582  14.297  11.630 -1.1908 -2.9682  1.2179
  106PROXS   C311023  15.673  14.168  11.482 -0.2164  0.2571  0.2137
  106PROXS  H3111024  15.687  14.083  11.552 -2.3575  1.0412  1.6771
  106PROXS  H3211025  15.655  14.132  11.378 -1.4970 -0.3292  0.6160
  106PROXS  H3311026  15.770  14.221  11.492  0.0197 -0.1164 -0.0413
  107PROXR   O111027  15.442  14.186  11.520  0.0826 -0.2727 -0.4304
  107PROXR   C111028  15.332  14.219  11.614 -0.6764  0.5941  0.7183
  107PROXR  H1111029  15.355  14.165  11.708 -0.1356 -1.9779 -0.7983
  107PROXR  H1311030  15.328  14.329  11.625  2.3103  0.7428  1.1063
  107PROXR   C211031  15.194  14.176  11.568  0.1966 -0.4696 -0.9513
  107PROXR  H2111032  15.189  14.070  11.536  0.4801 -0.6491 -0.4159
  107PROXR   C311033  15.139  14.259  11.451 -0.0878 -0.2667 -1.0063
  107PROXR  H3111034  15.219  14.282  11.377  2.4600  1.6478  2.1156
  107PROXR  H3211035  15.047  14.215  11.405 -0.9553 -0.3724  0.7623
  107PROXR  H3311036  15.109  14.354  11.500 -2.0936 -0.3323 -1.9725
  108PROXS   O111037  15.094  14.202  11.671 -0.3827  0.1919  0.0810
  108PROXS   C111038  15.106  14.128  11.798  1.0859 -0.2029  1.0654
  108PROXS  H1111039  15.159  14.030  11.789 -0.0844 -0.6871 -1.4380
  108PROXS  H1311040  15.177  14.194  11.852  2.5609  0.6051 -1.6304
  108PROXS   C211041  14.969  14.123  11.864 -0.2500  0.1839 -0.5480
  108PROXS  H2111042  14.882  14.174  11.818 -0.6770  0.6191  0.7189
  108PROXS   C311043  14.972  14.183  12.005  0.0472  0.4813 -0.2374
  108PROXS  H3111044  14.968  14.294  11.996  0.8184  0.6745  1.4204
  108PROXS  H3211045  14.894  14.154  12.079  0.3674 -1.1512 -0.5157
  108PROXS  H3311046  15.070  14.158  12.051 -1.6171 -1.9732  2.3671
  109PROXS   O111047  14.937  13.985  11.890 -0.0142 -0.6426  0.3018
  109PROXS   C111048  14.846  13.946  11.788 -0.5597 -0.1510 -0.2300
  109PROXS  H1111049  14.752  14.005  11.792  0.1629  0.9873  1.1518
  109PROXS  H1311050  14.899  13.958  11.691  2.1327  1.4893  1.2953
  109PROXS   C211051  14.818  13.796  11.818  0.0487 -0.2920  0.2402
  109PROXS  H2111052  14.793  13.791  11.926 -0.3411 -0.6988  0.1330
  109PROXS   C311053  14.940  13.701  11.792 -0.1676  0.1483  0.3411
  109PROXS  H3111054  14.995  13.730  11.699 -0.6349  3.3045  0.9393
  109PROXS  H3211055  15.017  13.724  11.869  0.4436 -0.3230 -0.1176
  109PROXS  H3311056  14.905  13.596  11.787  0.8126 -0.1974  0.5296
  110PROXR   O111057  14.702  13.757  11.740 -0.7222  0.2926  0.1820
  110PROXR   C111058  14.568  13.801  11.783 -0.0885  0.1643 -0.5163
  110PROXR  H1111059  14.550  13.756  11.883 -1.1243  1.1162 -0.2562
  110PROXR  H1311060  14.562  13.911  11.797  0.8576  0.1146  0.3760
  110PROXR   C211061  14.462  13.753  11.686  0.1583  1.6743  0.9750
  110PROXR  H2111062  14.475  13.644  11.676  1.8484  1.9259  0.0834
  110PROXR   C311063  14.461  13.808  11.546 -0.7340 -0.2524  0.1406
  110PROXR  H3111064  14.563  13.788  11.507 -0.4853 -1.1718  1.1726
  110PROXR  H3211065  14.394  13.758  11.473 -0.3350 -2.0141  0.9283
  110PROXR  H3311066  14.434  13.915  11.549 -2.4727 -0.6205 -0.9578
  111PROXS   O111067  14.338  13.785  11.749  0.2126  0.1397  0.5401
  111PROXS   C111068  14.225  13.713  11.696 -0.3859 -0.4094 -0.1086
  111PROXS  H1111069  14.198  13.753  11.596  0.8223 -1.3391 -0.8437
  111PROXS  H1311070  14.257  13.607  11.688 -1.1309 -0.9603  3.0273
  111PROXS   C211071  14.111  13.733  11.790  0.0853  0.3427  0.9797
  111PROXS  H2111072  14.098  13.841  11.811 -1.4255 -0.2248  3.4390
  111PROXS   C311073  14.152  13.675  11.925 -0.2126 -0.2297 -0.0878
  111PROXS  H3111074  14.249  13.722  11.953  0.2110 -0.3920 -1.2245
  111PROXS  H3211075  14.071  13.705  11.995 -1.2056 -0.6536 -1.0174
  111PROXS  H3311076  14.161  13.566  11.909  0.2265 -0.9346  3.9334
  112PROXR   O111077  13.990  13.671  11.736  0.4147  0.2275  0.3689
  112PROXR   C111078  13.874  13.699  11.814  0.2564 -0.9373  0.1295
  112PROXR  H1111079  13.872  13.667  11.920  0.7885 -0.4531  0.2880
  112PROXR  H1311080  13.848  13.807  11.819  1.0243 -0.6341 -1.5454
  112PROXR   C211081  13.746  13.625  11.751 -0.9660 -0.0457  0.2980
  112PROXR  H2111082  13.772  13.519  11.731 -0.1610  0.2450 -0.2214
  112PROXR   C311083  13.717  13.690  11.614  0.4416 -0.8507 -0.2171
  112PROXR  H3111084  13.810  13.691  11.552  1.2016 -2.5997  0.8176
  112PROXR  H3211085  13.626  13.659  11.558  0.3047  0.1769 -0.5867
  112PROXR  H3311086  13.692  13.796  11.635  0.2515 -1.0752  0.7170
  113PROXS   O111087  13.641  13.639  11.842  0.9580 -0.8905  0.6792
  113PROXS   C111088  13.525  13.565  11.797  0.2425 -0.0317  0.0445
  113PROXS  H1111089  13.464  13.625  11.726 -2.0433 -1.0196  1.0490
  113PROXS  H1311090  13.547  13.463  11.758 -1.3119 -0.0361 -0.9067
  113PROXS   C211091  13.442  13.543  11.927  0.1892  0.5041 -0.1124
  113PROXS  H2111092  13.440  13.639  11.985  2.4983 -0.2614  1.3886
  113PROXS   C311093  13.499  13.427  12.007 -0.4684  0.5521  0.2937
  113PROXS  H3111094  13.450  13.424  12.107  0.1905  1.4582  0.6549
  113PROXS  H3211095  13.488  13.331  11.952 -0.7201  0.9632 -0.3956
  113PROXS  H3311096  13.606  13.443  12.032 -0.2276  0.0866 -0.4054
  114PROXR   O111097  13.306  13.508  11.904  0.6493 -0.1666 -0.0544
  114PROXR   C111098  13.224  13.610  11.889 -0.4243 -0.7378 -0.1778
  114PROXR  H1111099  13.207  13.647  11.992 -0.7464  1.3189 -0.9303
  114PROXR  H1311100  13.281  13.690  11.838 -0.5345 -0.2882  0.3961
  114PROXR   C211101  13.095  13.575  11.817  0.3154  0.0618  0.4555
  114PROXR  H2111102  13.115  13.513  11.727 -0.8460  2.8356 -1.8975
  114PROXR   C311103  13.009  13.705  11.772  0.0874  0.7106  0.8079
  114PROXR  H3111104  13.047  13.744  11.675  0.2785 -0.2484  0.4862
  114PROXR  H3211105  12.905  13.670  11.788 -0.4463  0.3614 -2.5884
  114PROXR  H3311106  13.037  13.780  11.849 -1.8084  0.1650  2.0860
  115PROXR   O111107  13.023  13.499  11.910  0.2440  0.2387 -0.3387
  115PROXR   C111108  13.039  13.357  11.912 -0.1415 -0.5780  0.8574
  115PROXR  H1111109  13.005  13.335  11.808 -1.2185  1.1070  0.8084
  115PROXR  H1311110  13.146  13.334  11.930  0.2427 -0.6277 -1.2242
  115PROXR   C211111  12.961  13.288  12.023  0.3909 -0.3241 -0.1753
  115PROXR  H2111112  12.857  13.323  12.002 -0.3277 -1.9975  0.4853
  115PROXR   C311113  13.016  13.328  12.162 -0.3585  0.4427  0.1246
  115PROXR  H3111114  12.966  13.269  12.242  2.3099 -0.3278  1.3388
  115PROXR  H3211115  13.126  13.313  12.167 -0.4478 -0.3851 -0.2113
  115PROXR  H3311116  12.995  13.436  12.175  2.1566  1.3698 -2.4450
  116PROXS   O111117  12.973  13.157  11.995  0.4971 -0.1487 -0.1494
  116PROXS   C111118  12.867  13.073  12.033 -0.4610  0.1671 -0.6491
  116PROXS  H1111119  12.867  13.058  12.143  1.1493  0.4414 -0.5897
  116PROXS  H1311120  12.768  13.106  11.993 -0.2313  0.2468 -1.1671
  116PROXS   C211121  12.877  12.930  11.970  0.1408  0.6017  0.1523
  116PROXS  H2111122  12.981  12.906  12.001  0.8385  2.7524 -0.3167
  116PROXS   C311123  12.865  12.930  11.820 -0.6168  0.0890 -0.4320
  116PROXS  H3111124  12.800  13.013  11.785  2.4161  2.4553 -0.8161
  116PROXS  H3211125  12.968  12.939  11.779  1.2610  2.1125  4.1597
  116PROXS  H3311126  12.819  12.835  11.785  0.5588 -1.7268  2.6131
  117PROXS   O111127  12.775  12.853  12.028  0.2818 -0.1792 -0.4604
  117PROXS   C111128  12.806  12.711  12.048  0.0046  0.1483  0.0829
  117PROXS  H1111129  12.713  12.659  12.082  1.1471 -4.1845 -2.6757
  117PROXS  H1311130  12.818  12.670  11.946 -1.0939  1.2463 -0.5235
  117PROXS   C211131  12.936  12.686  12.140 -0.1792 -0.7546  0.3765
  117PROXS  H2111132  13.029  12.729  12.097  0.3954 -0.8305  1.5082
  117PROXS   C311133  12.952  12.536  12.183  0.2504  0.1578 -0.3196
  117PROXS  H3111134  12.855  12.504  12.226  1.0905  0.4802  1.9352
  117PROXS  H3211135  12.971  12.470  12.097  1.8929 -1.1953  1.0248
  117PROXS  H3311136  13.032  12.526  12.260  2.8840 -0.3039 -2.9362
  118PROXR   O111137  12.912  12.757  12.259  0.2567  0.1310 -0.3019
  118PROXR   C111138  13.036  12.799  12.332 -0.2173  0.3862  0.1997
  118PROXR  H1111139  13.103  12.712  12.352 -0.4476  0.2371  0.3351
  118PROXR  H1311140  13.082  12.869  12.260 -0.9554 -0.0300 -0.6903
  118PROXR   C211141  13.002  12.885  12.460  0.3386  0.5319  0.0670
  118PROXR  H2111142  12.928  12.831  12.524 -0.1054 -0.0459 -0.8986
  118PROXR   C311143  12.925  13.012  12.417 -0.1512 -0.2120 -0.2814
  118PROXR  H3111144  12.836  12.978  12.360  0.1953  0.3490 -1.1791
  118PROXR  H3211145  12.893  13.065  12.510  0.4283  0.9120 -0.7045
  118PROXR  H3311146  12.998  13.071  12.357  0.1816 -0.9567 -0.6146
  119PROXR   O111147  13.119  12.925  12.530  0.3456 -0.1786 -0.5025
  119PROXR   C111148  13.100  12.984  12.659 -0.1027  0.3311 -0.4609
  119PROXR  H1111149  13.051  13.084  12.656  1.8184  1.3623  0.2325
  119PROXR  H1311150  13.043  12.911  12.720  1.2529  1.0600  1.8113
  119PROXR   C211151  13.237  13.005  12.733 -0.6751 -0.0090 -0.5481
  119PROXR  H2111152  13.294  12.909  12.735 -0.3204  0.2050  1.2335
  119PROXR   C311153  13.207  13.025  12.885  0.4500 -0.1307  0.3462
  119PROXR  H3111154  13.170  13.130  12.886  3.2163  0.9577 -0.9980
  119PROXR  H3211155  13.136  12.949  12.923  0.1951  0.3714  0.8950
  119PROXR  H3311156  13.294  13.005  12.951 -0.9052  0.2685  2.3442
  120PROXS   O111157  13.314  13.117  12.674 -0.1246  0.3191  0.3283
  120PROXS   C111158  13.385  13.071  12.561 -0.4916  0.4413 -0.1524
  120PROXS  H1111159  13.441  12.979  12.588 -0.7869 -0.0542 -1.1794
  120PROXS  H1311160  13.325  13.055  12.469 -1.2477 -2.0518  0.6708
  120PROXS   C211161  13.487  13.177  12.521 -0.2261  0.4158 -0.2656
  120PROXS  H2111162  13.534  13.225  12.610 -0.6308  0.1401  0.0976
  120PROXS   C311163  13.428  13.299  12.447 -0.1111  0.0995  0.3108
  120PROXS  H3111164  13.385  13.267  12.350 -0.2013 -0.9780  0.6870
  120PROXS  H3211165  13.356  13.349  12.515  0.3438 -0.4444  1.2141
  120PROXS  H3311166  13.503  13.374  12.416 -1.2914  0.9351 -0.6011
  121PROXS   O111167  13.583  13.116  12.433  0.0377 -0.4758  0.1644
  121PROXS   C111168  13.708  13.177  12.424  0.1516  0.1653 -0.5716
  121PROXS  H1111169  13.699  13.287  12.433  0.2923  0.1339  0.0093
  121PROXS  H1311170  13.770  13.141  12.509 -0.7818 -1.4093 -0.5134
  121PROXS   C211171  13.780  13.130  12.296 -0.0935  0.5921 -0.1691
  121PROXS  H2111172  13.749  13.187  12.206 -0.9684  0.5164  0.0772
  121PROXS   C311173  13.770  12.980  12.272  0.3241  0.7055 -0.4009
  121PROXS  H3111174  13.844  12.959  12.191 -0.3843  3.5689 -1.9326
  121PROXS  H3211175  13.822  12.926  12.353  0.8638  0.3716 -0.9592
  121PROXS  H3311176  13.671  12.947  12.232 -0.0503  0.8150  0.4280
  122PROXS   O111177  13.919  13.168  12.301 -0.0181  0.1948  0.7598
  122PROXS   C111178  13.944  13.306  12.336 -0.3602  0.2399 -0.1124
  122PROXS  H1111179  13.907  13.320  12.439  0.6907 -0.0466  0.3196
  122PROXS  H1311180  14.055  13.309  12.341 -0.3601 -0.8770  0.8768
  122PROXS   C211181  13.882  13.400  12.242 -0.1234 -0.6352  0.5915
  122PROXS  H2111182  13.771  13.398  12.244 -0.2569  1.9360 -0.0879
  122PROXS   C311183  13.935  13.377  12.099  0.3991 -0.7189  0.2076
  122PROXS  H3111184  14.039  13.415  12.088  0.3101 -0.6039 -0.2803
  122PROXS  H3211185  13.939  13.269  12.071 -0.8498 -0.4326 -1.1725
  122PROXS  H3311186  13.876  13.433  12.023 -0.7909  1.0410  2.3243
  123PROXS   O111187  13.919  13.532  12.284  0.6502  0.1996 -0.3929
  123PROXS   C111188  13.828  13.632  12.246  0.7051 -0.2517 -0.6383
  123PROXS  H1111189  13.822  13.641  12.136  0.4122  1.1057 -0.5271
  123PROXS  H1311190  13.729  13.624  12.295  0.5233  3.4512 -0.1127
  123PROXS   C211191  13.891  13.759  12.302 -0.2303 -0.2650 -0.0642
  123PROXS  H2111192  13.998  13.767  12.275 -0.2260 -0.2150 -0.0333
  123PROXS   C311193  13.879  13.785  12.452 -0.3386  0.5167  0.5370
  123PROXS  H3111194  13.927  13.882  12.475 -0.8311  0.8387  0.2158
  123PROXS  H3211195  13.769  13.793  12.471 -0.5915  0.1378 -0.6768
  123PROXS  H3311196  13.924  13.698  12.504  1.7510 -0.6733 -2.9595
  124PROXR   O111197  13.842  13.874  12.241  0.2278 -0.4432  0.2317
  124PROXR   C111198  13.927  13.992  12.238  0.1853  0.3214 -0.0762
  124PROXR  H1111199  13.900  14.043  12.332 -0.5640  0.8302 -0.5659
  124PROXR  H1311200  14.037  13.975  12.246  0.3542 -0.1658 -2.5366
  124PROXR   C211201  13.904  14.086  12.114 -0.0614  0.0858  0.4336
  124PROXR  H2111202  13.794  14.099  12.120 -0.1261 -0.8502  1.7287
  124PROXR   C311203  13.958  14.023  11.984 -0.8717 -0.1688 -0.1349
  124PROXR  H3111204  13.937  14.078  11.890  1.2625  0.2504 -0.4140
  124PROXR  H3211205  14.069  14.015  11.985 -0.7491  0.8560 -1.9469
  124PROXR  H3311206  13.913  13.922  11.968  0.6121 -0.4175 -3.4203
  125PROXS   O111207  13.964  14.217  12.142  0.3951 -0.0948 -0.0914
  125PROXS   C111208  13.923  14.334  12.066 -0.2292  0.2469 -0.3648
  125PROXS  H1111209  13.950  14.316  11.960  0.3156  1.1718 -0.3911
  125PROXS  H1311210  13.812  14.341  12.068 -0.3544 -1.4329  0.2764
  125PROXS   C211211  14.006  14.453  12.112 -0.0280  0.2050  0.2415
  125PROXS  H2111212  14.112  14.419  12.113 -0.3202 -0.7560 -0.2549
  125PROXS   C311213  13.968  14.501  12.258  0.0213 -0.1446  0.0003
  125PROXS  H3111214  14.035  14.581  12.294 -0.0054  0.4866 -1.3081
  125PROXS  H3211215  13.869  14.551  12.249 -0.4683 -1.2097 -0.8800
  125PROXS  H3311216  13.963  14.417  12.330 -0.6336 -0.1163  0.0010
  126PROXS   O111217  14.002  14.552  12.013 -0.0545 -0.1628  0.1178
  126PROXS   C111218  14.108  14.646  12.032 -0.2655  0.1896  0.5938
  126PROXS  H1111219  14.078  14.714  12.115  0.5641 -0.9149  1.8408
  126PROXS  H1311220  14.210  14.603  12.043  0.8513  1.5780 -2.9359
  126PROXS   C211221  14.119  14.731  11.899 -0.1697 -0.6667 -0.1700
  126PROXS  H2111222  14.113  14.672  11.806  0.3963 -1.4886  0.2977
  126PROXS   C311223  14.259  14.790  11.886 -0.6412 -0.1295 -0.3741
  126PROXS  H3111224  14.277  14.872  11.959 -0.5621  0.9327 -1.5546
  126PROXS  H3211225  14.327  14.702  11.891 -2.6198 -1.6376  2.5978
  126PROXS  H3311226  14.269  14.831  11.783 -1.6140 -1.3596 -0.9861
  127PROXR   O111227  14.025  14.843  11.901  0.2951  0.1565 -0.2256
  127PROXR   C111228  13.896  14.807  11.860 -0.1425  0.8166 -0.3459
  127PROXR  H1111229  13.846  14.748  11.940  0.9532  1.6775  1.0088
  127PROXR  H1311230  13.843  14.904  11.853  1.2927  1.5384 -1.9446
  127PROXR   C211231  13.891  14.738  11.719 -0.4176  0.5745  0.0363
  127PROXR  H2111232  13.940  14.639  11.714 -2.0469 -0.2348 -0.4925
  127PROXR   C311233  13.962  14.832  11.621 -0.8088  0.1233 -0.0329
  127PROXR  H3111234  13.928  14.936  11.640  0.5262  0.0577  3.3205
  127PROXR  H3211235  14.072  14.819  11.624 -0.6038  1.4752 -0.8412
  127PROXR  H3311236  13.929  14.809  11.517 -0.3407  1.5208 -0.5065
  128PROXR   O111237  13.756  14.734  11.669 -0.3502 -0.1572  0.1029
  128PROXR   C111238  13.680  14.635  11.747 -0.8984 -0.3076  0.3095
  128PROXR  H1111239  13.747  14.562  11.797  0.8786 -2.1669 -4.2268
  128PROXR  H1311240  13.624  14.683  11.830  0.0331  1.2970  0.0468
  128PROXR   C211241  13.594  14.548  11.658 -0.6734 -0.7935 -0.3681
  128PROXR  H2111242  13.655  14.509  11.573  0.3538 -1.5217  0.6637
  128PROXR   C311243  13.480  14.632  11.602  0.0148 -0.3186  0.1038
  128PROXR  H3111244  13.526  14.696  11.523  1.9109 -3.0523 -1.1732
  128PROXR  H3211245  13.398  14.565  11.568  0.4484 -0.2122 -1.1996
  128PROXR  H3311246  13.430  14.701  11.673  0.4720  0.5603 -0.3936
  129PROXS   O111247  13.535  14.441  11.733 -0.0081 -0.1020 -0.0049
  129PROXS   C111248  13.518  14.321  11.656 -0.1211  0.4941  0.3807
  129PROXS  H1111249  13.425  14.274  11.694 -0.6301 -1.3017 -2.7157
  129PROXS  H1311250  13.494  14.341  11.549  0.2103  1.4044  0.4645
  129PROXS   C211251  13.638  14.222  11.653 -0.1172  0.3127  0.6590
  129PROXS  H2111252  13.609  14.130  11.597 -1.7707 -0.2077  2.2917
  129PROXS   C311253  13.674  14.171  11.792  0.0724 -0.0939 -0.6599
  129PROXS  H3111254  13.595  14.139  11.864 -0.1800  1.3206 -0.2795
  129PROXS  H3211255  13.749  14.089  11.797 -1.3219 -1.4198 -0.7845
  129PROXS  H3311256  13.719  14.258  11.845  2.1271 -1.4451 -0.0472
  130PROXS   O111257  13.753  14.286  11.593 -0.6718 -0.5031  0.0087
  130PROXS   C111258  13.865  14.209  11.580 -0.5384  0.3246  0.0732
  130PROXS  H1111259  13.870  14.118  11.645 -0.5798  0.0669 -0.2824
  130PROXS  H1311260  13.858  14.164  11.479 -1.8514  0.2698  0.1682
  130PROXS   C211261  13.980  14.299  11.613 -0.1828 -0.0631  1.0033
  130PROXS  H2111262  13.970  14.343  11.714  1.7772  0.6646  0.9076
  130PROXS   C311263  13.993  14.404  11.504 -0.7914 -0.1404  0.4613
  130PROXS  H3111264  13.898  14.460  11.489  0.0828  1.0787 -0.7198
  130PROXS  H3211265  14.063  14.485  11.532 -1.5491  0.4232  0.7695
  130PROXS  H3311266  14.013  14.344  11.412  0.6062  0.1180  0.5870
  131PROXS   O111267  14.097  14.218  11.625  0.1597  0.5207 -0.0962
  131PROXS   C111268  14.201  14.287  11.702 -0.2979 -0.1243  0.1670
  131PROXS  H1111269  14.223  14.387  11.660 -2.7171  0.1516 -0.6018
  131PROXS  H1311270  14.175  14.283  11.810 -1.3138 -0.8386 -0.0891
  131PROXS   C211271  14.341  14.223  11.680  0.0494  0.1118  0.2813
  131PROXS  H2111272  14.373  14.210  11.574  1.7817  1.0827  0.6377
  131PROXS   C311273  14.332  14.094  11.754  0.3994  0.2794  0.3944
  131PROXS  H3111274  14.320  14.098  11.864  1.3537 -1.2820  0.5804
  131PROXS  H3211275  14.256  14.033  11.700  0.4478  1.2517 -0.8244
  131PROXS  H3311276  14.423  14.031  11.747  0.4318  0.1349  1.8857
  132PROXS   O111277  14.437  14.298  11.764 -0.0330  0.1400 -0.0370
  132PROXS   C111278  14.488  14.422  11.715  0.4829  0.0565 -0.1128
  132PROXS  H1111279  14.514  14.421  11.607 -0.4098  2.7064 -0.4268
  132PROXS  H1311280  14.414  14.502  11.732  1.5246  0.8087  1.0707
  132PROXS   C211281  14.617  14.454  11.795  0.1867  1.1426  0.2182
  132PROXS  H2111282  14.693  14.375  11.772 -1.0011 -0.5776  1.9183
  132PROXS   C311283  14.573  14.461  11.947 -0.3522 -0.6798  0.6980
  132PROXS  H3111284  14.524  14.371  11.992 -0.0062 -1.3685 -0.2570
  132PROXS  H3211285  14.666  14.477  12.004  0.9567 -2.0604 -0.9345
  132PROXS  H3311286  14.508  14.550  11.959  1.6298  0.9316 -0.0772
  133PROXS   O111287  14.652  14.581  11.745  0.4636 -0.8860 -0.2421
  133PROXS   C111288  14.787  14.620  11.784  0.5481  0.3307  0.1954
  133PROXS  H1111289  14.800  14.628  11.894  1.6004 -1.8119  0.2797
  133PROXS  H1311290  14.853  14.541  11.742  0.2496  1.8466 -3.5204
  133PROXS   C211291  14.815  14.748  11.706 -0.0084 -0.2607  0.0881
  133PROXS  H2111292  14.756  14.756  11.612  0.5063  1.4652 -0.1148
  133PROXS   C311293  14.960  14.763  11.664  0.0247 -0.6022  0.2311
  133PROXS  H3111294  14.994  14.674  11.608 -0.8679 -0.0132 -1.3176
  133PROXS  H3211295  14.973  14.850  11.596  3.2821 -3.1716 -2.7630
  133PROXS  H3311296  15.020  14.786  11.755 -0.6890  1.8809  0.1663
  134PROXS   O111297  14.790  14.867  11.785 -0.4569  0.1480  0.7449
  134PROXS   C111298  14.661  14.891  11.818  0.2986 -0.5461  0.0899
  134PROXS  H1111299  14.604  14.924  11.729 -0.6883  1.7422  1.4653
  134PROXS  H1311300  14.609  14.805  11.864 -0.4110  0.2047  0.7329
  134PROXS   C211301  14.660  15.011  11.910  0.3287 -0.5514 -1.0349
  134PROXS  H2111302  14.706  15.099  11.861  1.6218 -0.9057 -0.4986
  134PROXS   C311303  14.749  14.971  12.032 -0.2091  0.0706 -0.2260
  134PROXS  H3111304  14.855  14.963  12.001 -0.5335  0.4108 -1.4813
  134PROXS  H3211305  14.745  15.044  12.115 -0.0299  0.9694 -0.9886
  134PROXS  H3311306  14.709  14.872  12.061 -0.0925 -0.5422 -2.0457
  135PROXS   O111307  14.525  15.029  11.944  0.7695  0.0829 -0.6526
  135PROXS   C111308  14.492  15.154  12.010 -0.7433  0.0629 -0.1791
  135PROXS  H1111309  14.520  15.143  12.117 -2.8103 -1.2063  0.2927
  135PROXS  H1311310  14.542  15.245  11.970 -0.8160  0.5655  0.8481
  135PROXS   C211311  14.340  15.175  12.007 -0.4823  0.1388 -0.1535
  135PROXS  H2111312  14.302  15.101  12.080  0.4771  0.9748  1.2502
  135PROXS   C311313  14.280  15.163  11.869 -0.4978 -0.4245 -0.1131
  135PROXS  H3111314  14.332  15.086  11.809 -0.1968  2.6064 -4.2209
  135PROXS  H3211315  14.177  15.126  11.890 -0.3759 -1.0823 -0.6487
  135PROXS  H3311316  14.289  15.254  11.805  2.2940 -2.1283 -2.3702
  136PROXS   O111317  14.305  15.302  12.073 -0.0083  0.0996 -0.2816
  136PROXS   C111318  14.172  15.316  12.114  0.0703 -0.1135 -0.2491
  136PROXS  H1111319  14.117  15.303  12.018 -0.1321 -0.0263 -0.1444
  136PROXS  H1311320  14.137  15.237  12.183 -2.8758 -0.4110 -1.9078
  136PROXS   C211321  14.148  15.455  12.174 -0.0400  0.1549 -0.5763
  136PROXS  H2111322  14.178  15.523  12.092  2.0035 -1.0451 -0.8968
  136PROXS   C311323  14.238  15.488  12.288  0.1605 -0.2579  0.1761
  136PROXS  H3111324  14.229  15.414  12.371 -0.5334  1.1069  1.3620
  136PROXS  H3211325  14.345  15.484  12.262  0.3040  0.8413  0.5477
  136PROXS  H3311326  14.217  15.594  12.316  0.4750  0.4478 -2.0327
  137PROXS   O111327  14.015  15.470  12.219 -0.4267 -0.0600 -0.0428
  137PROXS   C111328  13.918  15.444  12.118 -0.2461  0.4198 -0.6608
  137PROXS  H1111329  13.950  15.498  12.026  2.2623 -0.5425 -0.4299
  137PROXS  H1311330  13.911  15.334  12.103  1.4912  0.1672  0.1445
  137PROXS   C211331  13.788  15.495  12.175  0.8361  0.0720 -0.0275
  137PROXS  H2111332  13.807  15.585  12.237  0.5703  0.8369 -1.0160
  137PROXS   C311333  13.717  15.406  12.280 -0.5169  0.4457  0.1684
  137PROXS  H3111334  13.707  15.303  12.240  1.7330  0.5632 -0.8092
  137PROXS  H3211335  13.775  15.388  12.373 -1.9868 -0.5087  0.9366
  137PROXS  H3311336  13.620  15.449  12.313 -1.0329 -0.3241 -0.2985
  138PROXR   O111337  13.697  15.540  12.067  0.1166 -0.2748 -0.3064
  138PROXR   C111338  13.719  15.679  12.031 -0.4186 -0.3949 -0.1242
  138PROXR  H1111339  13.828  15.700  12.024  0.1551 -2.8965  0.2495
  138PROXR  H1311340  13.699  15.692  11.923 -0.6177  0.4751  0.0089
  138PROXR   C211341  13.646  15.782  12.118 -0.1323 -0.0100  0.4796
  138PROXR  H2111342  13.686  15.770  12.221  2.1089  1.2816 -0.1723
  138PROXR   C311343  13.496  15.755  12.121  0.3467 -0.1118  0.3031
  138PROXR  H3111344  13.441  15.761  12.025 -0.4907 -0.1554  0.7709
  138PROXR  H3211345  13.482  15.649  12.151 -1.1425  0.4458  1.6928
  138PROXR  H3311346  13.446  15.821  12.195  0.1584 -0.0059  0.0800
  139PROXS   O111347  13.694  15.912  12.086 -0.0283 -0.1857  0.2889
  139PROXS   C111348  13.672  15.951  11.947 -1.2216  0.2557 -0.9575
  139PROXS  H1111349  13.755  15.932  11.876 -1.0533  0.6665 -0.8765
  139PROXS  H1311350  13.591  15.899  11.891  0.6025 -2.2430 -1.4465
  139PROXS   C211351  13.647  16.098  11.929  0.3676 -0.3985 -0.2164
  139PROXS  H2111352  13.721  16.159  11.986  0.6867  0.6747 -1.7206
  139PROXS   C311353  13.498  16.135  11.981  0.3769 -0.4796  0.9698
  139PROXS  H3111354  13.430  16.068  11.925  4.8051 -3.4235 -1.5397
  139PROXS  H3211355  13.484  16.112  12.089 -0.4107  0.5084  1.0896
  139PROXS  H3311356  13.476  16.243  11.972 -0.8939 -0.9023 -2.2026
  140PROXR   O111357  13.651  16.129  11.785  0.4378 -0.3678  0.4164
  140PROXR   C111358  13.666  16.265  11.760  0.0584  0.1322 -0.0654
  140PROXR  H1111359  13.577  16.316  11.804  0.3682  1.7398 -1.2000
  140PROXR  H1311360  13.758  16.297  11.814  1.0609 -1.9058 -0.4763
  140PROXR   C211361  13.676  16.282  11.604  0.3219  0.9380 -0.9314
  140PROXR  H2111362  13.731  16.199  11.555  1.5821 -0.1965  2.1330
  140PROXR   C311363  13.755  16.411  11.565  0.7778  0.3431  0.6041
  140PROXR  H3111364  13.840  16.432  11.633  2.2867 -0.7504 -0.8517
  140PROXR  H3211365  13.786  16.408  11.458  0.7257  0.2986  0.5909
  140PROXR  H3311366  13.694  16.502  11.578  2.2965  1.6917 -1.0702
  141PROXS   O111367  13.547  16.304  11.554 -0.1283 -0.4619 -0.3669
  141PROXS   C111368  13.475  16.184  11.529 -0.2674  0.1985  0.9119
  141PROXS  H1111369  13.520  16.120  11.449  0.5531  0.0115  1.5195
  141PROXS  H1311370  13.476  16.118  11.618 -2.0777 -1.3885 -0.1390
  141PROXS   C211371  13.331  16.223  11.480  0.5962 -0.3474  0.1743
  141PROXS  H2111372  13.337  16.306  11.407  0.0122  1.0513  1.6354
  141PROXS   C311373  13.239  16.267  11.594 -0.6673  0.1798  0.0590
  141PROXS  H3111374  13.133  16.261  11.561 -0.3079 -0.7018 -0.9889
  141PROXS  H3211375  13.253  16.196  11.679  2.5924  0.1902 -0.3557
  141PROXS  H3311376  13.259  16.371  11.627 -2.6652  0.5695  0.1388
  142PROXS   O111377  13.264  16.118  11.409 -0.1876  0.3287  0.3386
  142PROXS   C111378  13.247  15.993  11.476 -0.2297 -0.3594 -1.0247
  142PROXS  H1111379  13.345  15.945  11.501 -0.8265  0.3839  3.5657
  142PROXS  H1311380  13.204  16.006  11.577 -0.5889 -0.1549 -1.2026
  142PROXS   C211381  13.161  15.896  11.391 -0.4740 -0.8264  0.2431
  142PROXS  H2111382  13.205  15.913  11.291  0.6018 -0.3166  0.7850
  142PROXS   C311383  13.014  15.917  11.393  0.4072  0.2041 -0.6233
  142PROXS  H3111384  12.955  15.851  11.327 -1.1566  2.3308 -1.4772
  142PROXS  H3211385  12.982  15.896  11.497 -1.1205 -0.2715 -1.1725
  142PROXS  H3311386  12.977  16.020  11.375  0.7540  1.0349  2.6734
  143PROXS   O111387  13.192  15.759  11.432 -0.6854  0.3627  0.3250
  143PROXS   C111388  13.318  15.719  11.375 -0.5398 -0.1802  0.0351
  143PROXS  H1111389  13.295  15.658  11.285 -0.9959 -0.8278  0.5756
  143PROXS  H1311390  13.368  15.809  11.334  0.7459  0.1549  2.1641
  143PROXS   C211391  13.385  15.626  11.478  0.0295  0.4226 -0.2454
  143PROXS  H2111392  13.316  15.540  11.490  0.6312 -0.2409 -1.3601
  143PROXS   C311393  13.400  15.704  11.607 -0.5109 -0.0252  0.5987
  143PROXS  H3111394  13.469  15.791  11.604  0.2620 -0.6306  0.1534
  143PROXS  H3211395  13.302  15.745  11.637 -1.3629 -1.5516  0.0023
  143PROXS  H3311396  13.444  15.639  11.686  1.9520  1.5519  0.6246
  144PROXS   O111397  13.513  15.591  11.430  0.4431  0.4180  0.0337
  144PROXS   C111398  13.571  15.482  11.508 -0.1202  0.1963  0.2678
  144PROXS  H1111399  13.601  15.516  11.609 -0.8934  1.4844  0.0740
  144PROXS  H1311400  13.497  15.401  11.524  1.2872 -0.8649  1.7511
  144PROXS   C211401  13.712  15.441  11.447 -0.3609  0.6073  0.2681
  144PROXS  H2111402  13.777  15.531  11.446 -0.7648  0.9063  0.5179
  144PROXS   C311403  13.698  15.373  11.308  0.3688  0.4248 -0.5793
  144PROXS  H3111404  13.599  15.404  11.271  0.1957 -0.3391 -0.7815
  144PROXS  H3211405  13.785  15.398  11.243  1.0298  3.1634  1.2088
  144PROXS  H3311406  13.692  15.262  11.310 -0.5796  0.4202 -2.0239
  145PROXR   O111407  13.783  15.356  11.538  0.2164  0.4265  0.2423
  145PROXR   C111408  13.923  15.371  11.552 -0.4331  0.5287 -0.4182
  145PROXR  H1111409  13.964  15.363  11.450  0.1979  0.1707 -0.1411
  145PROXR  H1311410  13.946  15.476  11.582 -0.4561  0.7444 -1.1301
  145PROXR   C211411  13.983  15.274  11.648 -0.2927  0.4087  0.6803
  145PROXR  H2111412  13.922  15.183  11.630  0.9551 -0.4094  0.3882
  145PROXR   C311413  13.962  15.316  11.791 -0.0442 -0.1725 -0.1481
  145PROXR  H3111414  14.026  15.402  11.818 -1.5223  0.3751  1.8818
  145PROXR  H3211415  13.855  15.340  11.811 -0.1638 -0.0568 -0.8771
  145PROXR  H3311416  13.996  15.236  11.859  0.8765  0.7302  0.4834
  146PROXS   O111417  14.117  15.253  11.616 -0.0545  0.6672 -0.1110
  146PROXS   C111418  14.136  15.138  11.524 -0.2878 -0.3794 -0.2134
  146PROXS  H1111419  14.105  15.043  11.573 -2.0665 -0.1861 -0.8874
  146PROXS  H1311420  14.077  15.153  11.431  1.0193  0.9516 -0.8605
  146PROXS   C211421  14.286  15.127  11.479  0.2105 -0.0550 -0.1981
  146PROXS  H2111422  14.353  15.134  11.567  1.2199  0.2857 -0.9753
  146PROXS   C311423  14.328  15.246  11.396 -0.3514  0.0320  0.2059
  146PROXS  H3111424  14.312  15.339  11.455 -0.7806 -0.7505  1.3492
  146PROXS  H3211425  14.437  15.245  11.372 -0.5740  1.8802 -1.1016
  146PROXS  H3311426  14.274  15.253  11.299  0.7835  0.3826 -0.4321
  147PROXR   O111427  14.303  14.998  11.422 -0.1239  0.0831  0.0223
  147PROXR   C111428  14.444  14.961  11.421 -0.2676  0.1770 -0.2547
  147PROXR  H1111429  14.494  15.001  11.331  4.0081 -2.9018  0.4124
  147PROXR  H1311430  14.495  15.002  11.511  1.3965 -0.1378 -1.0033
  147PROXR   C211431  14.454  14.803  11.422  0.6121 -0.2284 -0.3329
  147PROXR  H2111432  14.402  14.772  11.329  2.1359 -1.5943 -0.7715
  147PROXR   C311433  14.389  14.730  11.541 -0.4866 -0.8050 -0.0958
  147PROXR  H3111434  14.409  14.621  11.535  0.9199 -0.5205 -0.9810
  147PROXR  H3211435  14.434  14.780  11.630  0.2403  1.0135 -1.4030
  147PROXR  H3311436  14.280  14.747  11.554 -0.0730  0.3955  2.5585
  148PROXR   O111437  14.587  14.765  11.404 -0.0864 -0.3741 -0.3103
  148PROXR   C111438  14.602  14.651  11.316  0.3922  0.0705 -0.2746
  148PROXR  H1111439  14.514  14.586  11.334 -0.8305  1.7169 -0.0798
  148PROXR  H1311440  14.604  14.675  11.207  1.4242  0.8309 -0.1048
  148PROXR   C211441  14.735  14.580  11.349  0.7342  0.4347  1.0485
  148PROXR  H2111442  14.716  14.556  11.456  0.7880  0.1011  0.9843
  148PROXR   C311443  14.852  14.675  11.334 -0.2380 -0.2443 -0.5752
  148PROXR  H3111444  14.946  14.616  11.331  0.6877  1.2221 -2.2031
  148PROXR  H3211445  14.846  14.742  11.246 -1.2474  1.8741  1.0099
  148PROXR  H3311446  14.847  14.750  11.417  0.7496  1.2534 -1.8114
  149PROXR   O111447  14.752  14.471  11.272  0.1877  0.4424  0.0165
  149PROXR   C111448  14.801  14.353  11.337  0.4858 -0.4477 -0.9092
  149PROXR  H1111449  14.911  14.342  11.321  0.7034 -0.1674  0.2537
  149PROXR  H1311450  14.787  14.362  11.447 -0.2786  0.4256 -1.0736
  149PROXR   C211451  14.731  14.222  11.290 -0.2203  0.3711  0.1468
  149PROXR  H2111452  14.761  14.205  11.184 -0.2732  0.4543  0.1175
  149PROXR   C311453  14.576  14.240  11.317  0.3827 -0.1556  0.2009
  149PROXR  H3111454  14.563  14.220  11.425 -1.1118  0.5934  0.1909
  149PROXR  H3211455  14.522  14.335  11.298 -0.5158 -1.0555 -2.0964
  149PROXR  H3311456  14.525  14.154  11.269  0.3711 -0.6382  1.0727
  150PROXS   O111457  14.785  14.119  11.367 -0.3781  0.5150  0.4422
  150PROXS   C111458  14.747  13.988  11.324 -0.2213  0.8339 -0.3759
  150PROXS  H1111459  14.644  13.957  11.352 -0.1090 -0.3189 -1.1855
  150PROXS  H1311460  14.743  13.983  11.213 -2.6826  2.6782 -0.4573
  150PROXS   C211461  14.843  13.873  11.368  0.1750  0.2107 -0.2538
  150PROXS  H2111462  14.868  13.891  11.475  1.5967  1.2297 -0.7161
  150PROXS   C311463  14.983  13.880  11.294  0.1889 -0.0826  0.0334
  150PROXS  H3111464  15.030  13.978  11.319 -0.6737  0.8796 -1.8745
  150PROXS  H3211465  15.057  13.798  11.310  0.5230  0.5324  1.8416
  150PROXS  H3311466  14.968  13.894  11.185  0.2077  0.8156  0.1341
  151PROXR   O111467  14.775  13.750  11.348 -0.5775  0.4578 -0.1454
  151PROXR   C111468  14.822  13.648  11.432 -0.5989 -0.7159  0.2833
  151PROXR  H1111469  14.931  13.659  11.449 -0.1062 -0.1430 -2.7231
  151PROXR  H1311470  14.765  13.664  11.526 -2.8565  0.4796 -1.2013
  151PROXR   C211471  14.795  13.509  11.360  0.3389  0.2227 -0.1592
  151PROXR  H2111472  14.694  13.520  11.314 -0.8680  2.6831  2.7353
  151PROXR   C311473  14.773  13.396  11.461  0.3103  0.7545  0.2457
  151PROXR  H3111474  14.867  13.380  11.519  2.0954 -0.2403 -2.7137
  151PROXR  H3211475  14.689  13.413  11.532 -1.0047 -3.6952  0.0683
  151PROXR  H3311476  14.760  13.298  11.411  0.4879  1.4811 -1.2565
  152PROXR   O111477  14.896  13.477  11.272 -0.0600 -0.0050 -0.5977
  152PROXR   C111478  14.876  13.520  11.142  0.2740  0.5309 -0.1803
  152PROXR  H1111479  14.787  13.475  11.093 -0.9823  1.4472  1.1906
  152PROXR  H1311480  14.858  13.629  11.135 -2.2394  0.1043 -1.6221
  152PROXR   C211481  15.006  13.492  11.062  0.2214  0.4247 -0.3998
  152PROXR  H2111482  15.093  13.529  11.120  0.2003 -1.4165  0.8966
  152PROXR   C311483  14.995  13.559  10.924  0.4162  0.3759  0.2269
  152PROXR  H3111484  15.092  13.549  10.870 -0.6905  2.1986 -2.2763
  152PROXR  H3211485  14.920  13.505  10.863 -0.6793 -2.1651  3.4999
  152PROXR  H3311486  14.983  13.669  10.931  3.4763  0.7400  1.3121
  153PROXR   O111487  15.019  13.354  11.036  0.1673 -0.0490  0.0307
  153PROXR   C111488  15.102  13.285  11.130 -0.1953  0.6929  1.0629
  153PROXR  H1111489  15.209  13.316  11.132  0.3906 -1.0183 -0.3750
  153PROXR  H1311490  15.054  13.307  11.227  1.7073  2.2345  1.7290
  153PROXR   C211491  15.095  13.129  11.114  0.1753  0.2574  0.0279
  153PROXR  H2111492  15.133  13.103  11.013  1.9871  2.1887  0.1373
  153PROXR   C311493  14.951  13.085  11.138  0.3639 -0.1191 -0.0955
  153PROXR  H3111494  14.942  12.976  11.156 -3.9103  0.3228  1.9371
  153PROXR  H3211495  14.907  13.134  11.228 -0.8515  0.3191 -0.8891
  153PROXR  H3311496  14.887  13.113  11.052 -1.5068 -1.6956  0.7080
  154PROXS   O111497  15.176  13.071  11.216 -0.1924  0.2962  0.4610
  154PROXS   C111498  15.314  13.070  11.184 -1.0083  0.2658 -0.0748
  154PROXS  H1111499  15.322  13.043  11.077  1.5401  2.4772 -0.5555
  154PROXS  H1311500  15.356  13.171  11.204 -1.1427  0.2172  0.4747
  154PROXS   C211501  15.383  12.966  11.279 -0.2603  0.7017 -0.6851
  154PROXS  H2111502  15.345  12.863  11.267  2.9549 -0.7077  0.1258
  154PROXS   C311503  15.355  13.009  11.423 -0.1557  0.1880  0.0092
  154PROXS  H3111504  15.397  12.934  11.494 -1.1056 -0.3940 -0.0388
  154PROXS  H3211505  15.400  13.107  11.450 -1.0197 -0.1805  3.2680
  154PROXS  H3311506  15.245  13.006  11.431 -0.1068 -1.4925  0.5480
  155PROXR   O111507  15.517  12.960  11.229  0.0756  0.3492 -0.4808
  155PROXR   C111508  15.599  12.862  11.294 -0.5362 -0.3275 -0.3786
  155PROXR  H1111509  15.536  12.777  11.327 -2.2524  0.7760 -0.6374
  155PROXR  H1311510  15.670  12.818  11.221  1.4157 -1.0371  1.8362
  155PROXR   C211511  15.677  12.913  11.414  0.1514  0.1495  0.0554
  155PROXR  H2111512  15.611  12.949  11.496  0.9689  1.8281  0.0112
  155PROXR   C311513  15.770  13.030  11.379 -0.8446 -0.0034 -0.6731
  155PROXR  H3111514  15.837  13.054  11.464 -0.5429  0.1370 -0.9501
  155PROXR  H3211515  15.846  12.985  11.313  0.8568 -1.0352  1.8474
  155PROXR  H3311516  15.708  13.118  11.349 -0.7896  1.4950  3.0187
  156PROXS   O111517  15.766  12.814  11.466 -0.2488 -0.4156  0.0893
  156PROXS   C111518  15.697  12.701  11.522  0.1757 -0.4728  0.2385
  156PROXS  H1111519  15.588  12.717  11.508  0.8765  3.2824 -2.6991
  156PROXS  H1311520  15.727  12.613  11.461  0.6110  0.4267 -0.8830
  156PROXS   C211521  15.744  12.682  11.665 -0.0537  0.1623 -0.3299
  156PROXS  H2111522  15.853  12.703  11.670  0.4522 -1.5681 -2.5956
  156PROXS   C311523  15.717  12.531  11.706  0.0515  0.3750 -0.5413
  156PROXS  H3111524  15.780  12.495  11.790  1.7865  0.9105 -1.5583
  156PROXS  H3211525  15.609  12.515  11.725  0.3778 -2.2223 -0.4990
  156PROXS  H3311526  15.755  12.463  11.627  2.0611  0.1806  0.5304
  157PROXS   O111527  15.672  12.767  11.755 -0.3447 -0.0668 -0.1228
  157PROXS   C111528  15.743  12.782  11.878 -0.0419 -0.1140 -0.6094
  157PROXS  H1111529  15.664  12.805  11.953  1.0122 -1.8426  1.1473
  157PROXS  H1311530  15.778  12.679  11.904 -1.5876 -0.2051  1.3427
  157PROXS   C211531  15.867  12.882  11.890 -0.2291 -0.2722 -0.4195
  157PROXS  H2111532  15.922  12.877  11.794  1.4174  0.4647  0.4488
  157PROXS   C311533  15.968  12.857  12.000  0.8264  0.1418 -0.5634
  157PROXS  H3111534  15.917  12.866  12.098  0.7538  0.3361 -0.6192
  157PROXS  H3211535  16.019  12.758  11.993  3.9367  1.6456 -0.9969
  157PROXS  H3311536  16.046  12.936  12.004  0.7014  0.2282  0.4834
  158PROXR   O111537  15.822  13.015  11.910  0.3409  0.4743 -0.4397
  158PROXR   C111538  15.762  13.068  11.783 -0.1226 -0.3599 -0.3633
  158PROXR  H1111539  15.842  13.083  11.708  0.0909 -0.2691 -0.1179
  158PROXR  H1311540  15.692  12.993  11.739  0.1810 -0.7352 -0.2111
  158PROXR   C211541  15.696  13.205  11.811  0.2640 -0.1640  0.2234
  158PROXR  H2111542  15.775  13.262  11.864  0.9539 -2.9360  2.3300
  158PROXR   C311543  15.577  13.176  11.902 -0.2417 -0.6453 -0.2491
  158PROXR  H3111544  15.592  13.105  11.986  0.5134 -1.8602 -1.3633
  158PROXR  H3211545  15.530  13.275  11.919  1.3556  0.8207 -3.4411
  158PROXR  H3311546  15.495  13.120  11.851 -0.3691  1.1489 -2.1658
  159PROXR   O111547  15.657  13.264  11.686  0.5296  0.5729 -0.0750
  159PROXR   C111548  15.615  13.393  11.695 -0.8417 -0.2114  0.4273
  159PROXR  H1111549  15.519  13.389  11.752 -1.9518 -1.5705 -1.4058
  159PROXR  H1311550  15.689  13.457  11.747 -0.8951  3.0210 -2.9852
  159PROXR   C211551  15.582  13.450  11.558  0.4139  0.3571 -0.0615
  159PROXR  H2111552  15.517  13.376  11.508  0.4257 -0.3382  0.9374
  159PROXR   C311553  15.704  13.465  11.465 -0.4077  0.5389  0.0764
  159PROXR  H3111554  15.764  13.371  11.465 -1.6887 -0.3535 -1.9324
  159PROXR  H3211555  15.671  13.476  11.360  1.6230 -3.0358 -1.1396
  159PROXR  H3311556  15.765  13.544  11.514  0.9275 -0.6612  0.4312
  160PROXS   O111557  15.520  13.575  11.573 -0.6344 -0.2560  0.4404
  160PROXS   C111558  15.441  13.614  11.460  0.1082  0.2795 -0.5942
  160PROXS  H1111559  15.499  13.629  11.367 -0.7335 -0.0117 -1.1687
  160PROXS  H1311560  15.358  13.542  11.441 -0.1102  0.4105 -0.1529
  160PROXS   C211561  15.378  13.754  11.491  0.6582 -0.0302  0.4145
  160PROXS  H2111562  15.456  13.829  11.514  0.6404  0.0497  0.2217
  160PROXS   C311563  15.273  13.746  11.596 -0.4093  0.2639  0.0251
  160PROXS  H3111564  15.236  13.849  11.615 -0.4553  0.1094  0.8375
  160PROXS  H3211565  15.190  13.681  11.562 -1.2592  0.1457  2.1438
  160PROXS  H3311566  15.317  13.701  11.688  0.4928 -3.3406 -1.9556
  161PROXR   O111567  15.309  13.804  11.369 -0.2556 -0.3821 -0.0480
  161PROXR   C111568  15.392  13.872  11.276 -0.8729 -0.2790 -0.1990
  161PROXR  H1111569  15.419  13.966  11.329  0.4227 -0.6965 -0.0831
  161PROXR  H1311570  15.489  13.819  11.270  0.2936  1.5752  0.9105
  161PROXR   C211571  15.312  13.884  11.151  1.2588  0.6118 -0.1949
  161PROXR  H2111572  15.220  13.939  11.181  1.1640  0.5649 -0.3971
  161PROXR   C311573  15.259  13.757  11.088  0.2631  0.1534 -0.3987
  161PROXR  H3111574  15.335  13.702  11.027 -0.1559 -0.5088 -0.3283
  161PROXR  H3211575  15.227  13.681  11.161  1.3465 -0.3783 -0.4522
  161PROXR  H3311576  15.172  13.788  11.026  0.3994 -0.0258 -0.6781
  162PROXR   O111577  15.381  13.950  11.048  0.6061 -0.2257  0.1694
  162PROXR   C111578  15.429  14.080  11.081 -0.5405 -0.0439 -0.2987
  162PROXR  H1111579  15.336  14.132  11.114 -1.7737 -1.4630 -1.3638
  162PROXR  H1311580  15.510  14.080  11.157  0.8857 -2.0208 -1.7149
  162PROXR   C211581  15.486  14.145  10.952 -0.3048  0.2252  1.2250
  162PROXR  H2111582  15.397  14.165  10.889 -0.0587 -0.7080  0.5600
  162PROXR   C311583  15.574  14.054  10.868  0.2790  0.2626 -0.3549
  162PROXR  H3111584  15.523  13.955  10.869  0.2032  0.2978  0.8992
  162PROXR  H3211585  15.591  14.083  10.762 -0.7391 -0.1188 -0.6305
  162PROXR  H3311586  15.673  14.035  10.916 -0.6407  2.2455  2.6288
  163PROXS   O111587  15.552  14.269  10.971  0.2480 -0.0929 -0.0565
  163PROXS   C111588  15.459  14.368  11.018  0.9830 -0.1807 -0.3305
  163PROXS  H1111589  15.354  14.344  10.991 -0.4950  2.8025  2.1874
  163PROXS  H1311590  15.460  14.369  11.129  2.0910  1.8081 -0.3195
  163PROXS   C211591  15.489  14.511  10.976 -0.5654 -0.3509 -0.1630
  163PROXS  H2111592  15.501  14.506  10.865  2.5462  0.5277  0.0345
  163PROXS   C311593  15.618  14.559  11.049 -0.3054 -0.2235 -0.2395
  163PROXS  H3111594  15.604  14.553  11.159  0.8695 -2.7575 -0.1767
  163PROXS  H3211595  15.698  14.490  11.016 -0.2531  0.0031 -0.5818
  163PROXS  H3311596  15.645  14.664  11.024  2.9003 -0.5587  1.2369
  164PROXR   O111597  15.380  14.590  11.018 -0.0289  0.4941  0.2623
  164PROXR   C111598  15.371  14.725  10.973 -0.3369 -0.0889  0.1827
  164PROXR  H1111599  15.452  14.785  11.019  0.0545 -0.6633  0.2552
  164PROXR  H1311600  15.389  14.743  10.865 -1.9171  1.9944  0.1968
  164PROXR   C211601  15.226  14.777  11.003 -0.4346  0.5344  0.4279
  164PROXR  H2111602  15.208  14.784  11.112  0.9738 -2.2835  0.9168
  164PROXR   C311603  15.129  14.679  10.945 -0.5286 -0.0118  0.4997
  164PROXR  H3111604  15.028  14.724  10.933 -0.2399 -0.0904 -4.6931
  164PROXR  H3211605  15.160  14.643  10.844  1.0745  0.4823  0.7866
  164PROXR  H3311606  15.126  14.586  11.005  0.3424 -1.6614 -1.8921
  165PROXR   O111607  15.218  14.903  10.944 -0.2724 -0.3183  1.2937
  165PROXR   C111608  15.114  14.987  10.992 -0.5179  0.4376  0.8471
  165PROXR  H1111609  15.018  14.971  10.938 -1.3325 -0.1201  2.3913
  165PROXR  H1311610  15.104  14.990  11.102  0.9522 -1.2658  1.0647
  165PROXR   C211611  15.159  15.132  10.962  0.4011 -0.6540  0.0806
  165PROXR  H2111612  15.187  15.133  10.854  1.3657 -0.3235  0.3298
  165PROXR   C311613  15.278  15.182  11.048 -0.0280  0.4071  0.4418
  165PROXR  H3111614  15.363  15.111  11.043 -0.5804 -0.1971 -1.7724
  165PROXR  H3211615  15.327  15.272  11.006  2.1911 -0.2980  1.3699
  165PROXR  H3311616  15.235  15.197  11.149 -1.2370  0.5934 -0.0760
  166ETHOX   O111617  15.041  15.217  10.966  0.4448 -0.4491 -0.0486
  166ETHOX   C111618  15.058  15.341  10.900 -0.5308 -0.6058  0.1391
  166ETHOX  H1111619  15.044  15.319  10.792  0.0227 -0.4649  0.0375
  166ETHOX  H1311620  15.150  15.395  10.931 -0.6575 -0.4224  0.1956
  166ETHOX   C211621  14.946  15.425  10.957  0.6813 -0.0019 -0.1025
  166ETHOX  H2111622  14.960  15.415  11.067  0.4235 -1.0456 -0.1616
  166ETHOX  H2311623  14.854  15.371  10.926  1.9397 -2.1808 -0.2273
  167ETHOX   O111624  14.928  15.561  10.916 -0.1577 -0.5787 -0.1996
  167ETHOX   C111625  14.816  15.625  10.970  0.0735  0.2200  0.2710
  167ETHOX  H1111626  14.727  15.559  10.973  0.7348 -0.6655  1.6755
  167ETHOX  H1311627  14.839  15.667  11.071  0.0677  1.7356 -0.3378
  167ETHOX   C211628  14.774  15.740  10.877  0.3721 -0.8306 -0.0013
  167ETHOX  H2111629  14.859  15.807  10.850  1.0552 -0.4304  2.8020
  167ETHOX  H2311630  14.695  15.791  10.936 -0.6362  1.6686 -3.2360
  168ETHOX   O111631  14.699  15.700  10.763 -0.1481  0.2141 -0.1731
  168ETHOX   C111632  14.775  15.650  10.655 -0.6928 -0.1762  0.2007
  168ETHOX  H1111633  14.850  15.576  10.690  1.9139  1.6633 -1.1893
  168ETHOX  H1311634  14.844  15.734  10.635  1.5901 -1.3492  2.6633
  168ETHOX   C211635  14.689  15.606  10.534 -0.5980 -0.3191 -0.4282
  168ETHOX  H2111636  14.760  15.595  10.449  0.2030  3.6829 -0.4654
  168ETHOX  H2311637  14.608  15.676  10.507 -0.1830  0.1200 -0.5529
  169ETHOX   O111638  14.619  15.485  10.559 -0.1559 -1.1043  0.1055
  169ETHOX   C111639  14.547  15.438  10.446 -0.0994  0.5672 -0.3334
  169ETHOX  H1111640  14.461  15.509  10.442  1.1528  2.3571  1.8566
  169ETHOX  H1311641  14.615  15.447  10.358 -0.7563 -1.2304 -1.0747
  169ETHOX   C211642  14.520  15.293  10.479 -0.4606 -0.1586  0.0511
  169ETHOX  H2111643  14.426  15.267  10.425 -1.0124  1.7164  0.0654
  169ETHOX  H2311644  14.493  15.284  10.586  0.2622 -1.7491  0.1312
  170ETHOX   O111645  14.608  15.205  10.413 -0.7612 -0.4370 -0.4490
  170ETHOX   C111646  14.714  15.176  10.502 -0.0409  0.3986 -0.1380
  170ETHOX  H1111647  14.664  15.136  10.592 -0.2675  1.7870  0.3772
  170ETHOX  H1311648  14.773  15.268  10.524 -1.8422  2.0968 -1.9349
  170ETHOX   C211649  14.811  15.073  10.442  0.6862  0.8396  0.1155
  170ETHOX  H2111650  14.756  14.982  10.409  2.5117 -0.5626  0.8007
  170ETHOX  H2311651  14.871  15.036  10.528  2.8045 -0.8520 -1.9554
  171ETHOX   O111652  14.891  15.135  10.339 -0.5450  0.4145 -0.2171
  171ETHOX   C111653  15.022  15.079  10.340 -0.2889  0.7773 -0.3163
  171ETHOX  H1111654  15.065  15.081  10.442  1.1353  1.6892 -0.9004
  171ETHOX  H1311655  15.009  14.971  10.318 -1.5714  0.0909  3.2048
  171ETHOX   C211656  15.119  15.149  10.247  0.3631 -0.0749 -0.1036
  171ETHOX  H2111657  15.221  15.118  10.279  0.5457  0.3190 -0.3012
  171ETHOX  H2311658  15.117  15.257  10.274  0.0621 -0.1474  0.1701
  172ETHOX   O111659  15.098  15.109  10.110  0.2209 -0.2632  0.3249
  172ETHOX   C111660  15.112  15.213  10.021  0.3994  0.4815 -0.3122
  172ETHOX  H1111661  15.199  15.275  10.052  0.6583 -1.3450  2.9995
  172ETHOX  H1311662  15.024  15.281  10.029 -0.7011 -0.9212 -0.1669
  172ETHOX   C211663  15.144  15.179   9.874 -0.9859  0.1125  0.2307
  172ETHOX  H2111664  15.129  15.266   9.806 -0.9266 -0.0729 -0.0213
  172ETHOX  H2311665  15.071  15.102   9.841  0.5022 -1.3790  0.2849
  173ETHOX   O111666  15.279  15.119   9.858  0.5882  0.5227  0.2199
  173ETHOX   C111667  15.285  15.067   9.728  0.0800 -0.0039  0.0372
  173ETHOX  H1111668  15.215  14.981   9.728 -2.7930  2.1823 -0.4014
  173ETHOX  H1311669  15.234  15.127   9.650  1.2203  0.9090 -0.0355
  173ETHOX   C211670  15.420  15.028   9.684  0.8104 -0.3160 -0.6514
  173ETHOX  H2111671  15.474  14.968   9.760 -0.3851 -0.1418  0.3720
  173ETHOX  H2311672  15.405  14.966   9.594 -0.3600  0.5725 -1.1013
  174ETHOX   O111673  15.499  15.134   9.654  0.4543 -0.1603 -0.0234
  174ETHOX   C111674  15.640  15.115   9.665  0.5023  0.1236  0.4733
  174ETHOX  H1111675  15.669  15.080   9.766  0.7869 -1.2091 -0.0532
  174ETHOX  H1311676  15.659  15.026   9.603 -0.7230 -0.1633  0.4804
  174ETHOX   C211677  15.724  15.239   9.641 -0.1521  0.2143  0.4482
  174ETHOX  H2111678  15.715  15.260   9.532  2.2594 -1.2694 -0.0990
  174ETHOX  H2311679  15.826  15.212   9.674 -0.9464 -1.0992  1.9447
  175ETHOX   O111680  15.682  15.357   9.707 -0.1998 -0.5398 -0.1331
  175ETHOX   C111681  15.780  15.461   9.680 -0.1386 -0.2383  0.1167
  175ETHOX  H1111682  15.868  15.447   9.745  0.5964 -1.3381 -1.0724
  175ETHOX  H1311683  15.805  15.461   9.572  1.0598  2.1639  0.3505
  175ETHOX   C211684  15.728  15.599   9.720  0.1767  0.3298  0.7567
  175ETHOX  H2111685  15.644  15.623   9.651  0.7270 -1.6357 -0.6759
  175ETHOX  H2311686  15.815  15.668   9.715  1.9556 -1.6063  2.9664
  176ETHOX   O111687  15.697  15.595   9.859  0.1507  0.0657 -0.0967
  176ETHOX   C111688  15.638  15.715   9.911 -0.3288 -0.2879  0.5676
  176ETHOX  H1111689  15.714  15.794   9.893  1.1191 -2.0592 -1.7986
  176ETHOX  H1311690  15.550  15.755   9.856  0.0601  0.1383  0.2381
  176ETHOX   C211691  15.606  15.717  10.062 -0.1657 -0.9364 -0.7768
  176ETHOX  H2111692  15.601  15.820  10.102 -0.1884 -1.3934  0.4372
  176ETHOX  H2311693  15.690  15.660  10.107  0.4727 -0.0596 -0.8481
  177ETHOX   O111694  15.478  15.654  10.100  0.4297  0.0306  0.9578
  177ETHOX   C111695  15.467  15.614  10.237 -0.4467 -0.2230  0.1383
  177ETHOX  H1111696  15.561  15.575  10.282 -0.3969  0.0284  0.2542
  177ETHOX  H1311697  15.393  15.532  10.249 -1.0975  0.2120 -0.8399
  177ETHOX   C211698  15.403  15.729  10.313  0.5035 -0.1936  0.0877
  177ETHOX  H2111699  15.373  15.700  10.416 -0.5202  1.1891  0.2065
  177ETHOX  H2311700  15.306  15.758  10.267 -0.9670 -0.4367  2.8069
  178ETHOX   O111701  15.500  15.828  10.313  0.2704  0.0714 -0.3802
  178ETHOX   C111702  15.455  15.950  10.362  0.1949 -0.8549  0.3085
  178ETHOX  H1111703  15.350  15.965  10.329  0.3877 -0.5856 -0.1775
  178ETHOX  H1311704  15.467  15.961  10.472  1.6430 -0.6274  0.1454
  178ETHOX   C211705  15.544  16.061  10.306 -0.3304 -0.2329 -0.3244
  178ETHOX  H2111706  15.646  16.017  10.301  0.0466  0.0974  2.7749
  178ETHOX  H2311707  15.554  16.150  10.372  0.4362 -1.7992  1.7631
  179ETHOX   O111708  15.498  16.097  10.182 -0.1687 -0.0681 -0.2760
  179ETHOX   C111709  15.595  16.174  10.113  0.4680  0.3373 -0.0982
  179ETHOX  H1111710  15.698  16.140  10.137 -0.1375 -2.6455 -1.1947
  179ETHOX  H1311711  15.582  16.282  10.134 -0.5635 -0.0388  1.4519
  179ETHOX   C211712  15.565  16.142   9.968 -0.2268  0.1715 -0.1137
  179ETHOX  H2111713  15.554  16.032   9.958 -0.5483  0.0252  1.5836
  179ETHOX  H2311714  15.647  16.173   9.900 -0.6300 -0.4525 -0.8980
  180ETHOX   O111715  15.443  16.212   9.934  0.3184 -0.0848  0.6704
  180ETHOX   C111716  15.417  16.211   9.796  0.5582  0.6653 -0.7674
  180ETHOX  H1111717  15.510  16.251   9.752  2.1815 -1.2502  0.7254
  180ETHOX  H1311718  15.386  16.110   9.761 -2.4454  0.0733  2.9607
  180ETHOX   C211719  15.294  16.296   9.758  0.3403  0.7686  0.0693
  180ETHOX  H2111720  15.290  16.310   9.648 -0.8328 -1.8207 -0.2819
  180ETHOX  H2311721  15.298  16.396   9.807 -0.6628  0.7723  0.1664
  181ETHOX   O111722  15.162  16.250   9.793  0.0076 -0.4475  0.2901
  181ETHOX   C111723  15.063  16.345   9.753 -0.1235  0.3889  0.4019
  181ETHOX  H1111724  15.087  16.379   9.651  1.2506  0.5798  0.7706
  181ETHOX  H1311725  15.075  16.438   9.813 -3.2735 -0.6435  2.9660
  181ETHOX   C211726  14.918  16.290   9.763  0.3445  0.6883 -0.3787
  181ETHOX  H2111727  14.905  16.204   9.694 -1.9695 -0.3925  1.2619
  181ETHOX  H2311728  14.859  16.378   9.728 -0.5445  0.9050  1.5238
  182ETHOX   O111729  14.870  16.257   9.897 -0.1248 -0.8497 -0.4523
  182ETHOX   C111730  14.731  16.242   9.909  0.1900 -0.0465  0.3910
  182ETHOX  H1111731  14.719  16.234  10.019  0.0828  0.4905  0.4242
  182ETHOX  H1311732  14.684  16.336   9.872  2.4708  0.7895 -0.6092
  182ETHOX   C211733  14.671  16.125   9.833 -0.0306 -0.2654 -0.3051
  182ETHOX  H2111734  14.709  16.130   9.729  0.6818  0.1349 -0.0342
  182ETHOX  H2311735  14.565  16.154   9.820  0.0007 -0.1113 -0.2155
  183ETHOX   O111736  14.687  15.999   9.891 -0.0938  0.1201  0.6375
  183ETHOX   C111737  14.565  15.929   9.905 -0.4997 -0.1112  0.4201
  183ETHOX  H1111738  14.522  15.939   9.803  1.0562  0.7633 -0.1905
  183ETHOX  H1311739  14.499  15.993   9.967  0.6545  1.1984  0.3532
  183ETHOX   C211740  14.568  15.788   9.971  0.2448  0.9527  0.2541
  183ETHOX  H2111741  14.471  15.755  10.013  2.8567 -0.7358  5.8479
  183ETHOX  H2311742  14.631  15.793  10.062 -0.0406  1.5415  0.4197
  184ETHOX   O111743  14.627  15.684   9.885 -0.3793  0.9498  0.4879
  184ETHOX   C111744  14.557  15.658   9.764  0.6038 -0.2937  0.0107
  184ETHOX  H1111745  14.448  15.654   9.787  0.0184  0.1332 -2.3996
  184ETHOX  H1311746  14.562  15.741   9.690 -1.9016  0.6357  0.7594
  184ETHOX   C211747  14.596  15.520   9.699 -0.0072 -0.3576 -0.4721
  184ETHOX  H2111748  14.706  15.513   9.683  0.3439  1.1332  0.9936
  184ETHOX  H2311749  14.553  15.519   9.597 -0.7521  1.0631 -0.1917
  185ETHOX   O111750  14.569  15.406   9.779  0.2787  0.0637  0.2743
  185ETHOX   C111751  14.541  15.292   9.709  0.0549 -0.0891 -0.2857
  185ETHOX  H1111752  14.448  15.302   9.648  0.1006 -0.4696 -0.4223
  185ETHOX  H1311753  14.619  15.271   9.633 -1.6083  0.0126 -2.0984
  185ETHOX   C211754  14.527  15.171   9.804 -0.5266  0.6643  0.2340
  185ETHOX  H2111755  14.520  15.083   9.737  0.6721 -0.8788  2.0394
  185ETHOX  H2311756  14.432  15.183   9.859 -0.5127  2.3699 -0.0581
  186ETHOX   O111757  14.647  15.159   9.873  0.4632  0.0764 -0.0492
  186ETHOX   C111758  14.624  15.089   9.996  0.2463 -0.3617  0.1673
  186ETHOX  H1111759  14.585  15.163  10.068 -2.3181 -0.4277 -1.0365
  186ETHOX  H1311760  14.551  15.005   9.992  1.3831 -1.4023  0.5279
  186ETHOX   C211761  14.758  15.027  10.044  0.5665 -0.2147 -0.2507
  186ETHOX  H2111762  14.771  15.010  10.153 -0.7840  1.6211  0.2612
  186ETHOX  H2311763  14.840  15.102  10.034  0.1441  0.8861  3.1164
  187ETHOX   O111764  14.781  14.919   9.965 -0.3886  0.6997  0.3828
  187ETHOX   C111765  14.906  14.862   9.998 -0.2623 -0.3439 -0.4612
  187ETHOX  H1111766  14.988  14.912   9.942 -0.8550 -2.0651 -3.0377
  187ETHOX  H1311767  14.932  14.880  10.105 -0.5685  1.9353 -0.7170
  187ETHOX   C211768  14.923  14.725   9.941  0.4334  0.6593  0.6144
  187ETHOX  H2111769  14.931  14.726   9.830  0.2317 -1.5156  0.5426
  187ETHOX  H2311770  14.842  14.657   9.976  0.9827 -1.3798 -1.7943
  188ETHOX   O111771  15.039  14.680   9.999  0.3888  0.1989 -0.0966
  188ETHOX   C111772  15.071  14.544   9.969 -0.0193  0.0157  0.4221
  188ETHOX  H1111773  15.145  14.551   9.886  0.1128  2.5163  0.6749
  188ETHOX  H1311774  14.981  14.491   9.931 -0.4756  2.5007 -2.3159
  188ETHOX   C211775  15.127  14.468  10.089  0.2962  0.0443 -0.5827
  188ETHOX  H2111776  15.096  14.362  10.089 -0.2534  0.1876  1.1147
  188ETHOX  H2311777  15.080  14.515  10.178  0.4040 -2.1786  0.7162
  189ETHOX   O111778  15.268  14.478  10.109 -0.1284  0.5985  0.2312
  189ETHOX   C111779  15.314  14.374  10.198 -0.0609  0.5982 -0.1576
  189ETHOX  H1111780  15.243  14.367  10.283 -0.5713  3.7826 -0.1684
  189ETHOX  H1311781  15.315  14.280  10.139 -2.7252  1.3724 -1.6092
  189ETHOX   C211782  15.446  14.414  10.248 -0.8302  0.3444  0.1672
  189ETHOX  H2111783  15.429  14.508  10.304  0.7343 -0.4281  2.0514
  189ETHOX  H2311784  15.516  14.435  10.164 -1.9643  2.8406 -0.2548
  190ETHOX   O111785  15.486  14.309  10.330 -0.3795 -0.1676 -0.4309
  190ETHOX   C111786  15.599  14.347  10.406  0.2104 -0.1414  0.1281
  190ETHOX  H1111787  15.592  14.447  10.453 -0.6258  0.6461 -1.5906
  190ETHOX  H1311788  15.685  14.350  10.335  0.5123  3.2838  0.4702
  190ETHOX   C211789  15.633  14.259  10.532 -0.0095  0.1366 -0.4330
  190ETHOX  H2111790  15.549  14.254  10.604  1.3946  0.6955  1.3059
  190ETHOX  H2311791  15.707  14.316  10.592  0.0020 -0.6029  0.2612
  191ETHOX   O111792  15.678  14.126  10.503  0.1693 -0.1555 -0.1975
  191ETHOX   C111793  15.570  14.032  10.486 -0.4554  0.1603  0.0607
  191ETHOX  H1111794  15.497  14.046  10.569  1.7980 -0.4172  2.2741
  191ETHOX  H1311795  15.516  14.054  10.392  0.5874 -0.1862 -0.6340
  191ETHOX   C211796  15.608  13.884  10.497  0.0559  0.3584 -0.9888
  191ETHOX  H2111797  15.693  13.867  10.427  0.7538 -1.0148  0.1194
  191ETHOX  H2311798  15.523  13.818  10.472  1.1911 -0.7660 -2.0563
  192ETHOX   O111799  15.640  13.867  10.641  0.6853  0.2084  0.1360
  192ETHOX   C111800  15.689  13.738  10.670  0.1511  0.3071  0.5798
  192ETHOX  H1111801  15.765  13.717  10.592 -0.2920 -0.1959  0.2741
  192ETHOX  H1311802  15.609  13.662  10.661  1.3082 -0.6962 -2.1134
  192ETHOX   C211803  15.743  13.723  10.812  0.5085 -0.3128  0.1251
  192ETHOX  H2111804  15.804  13.810  10.847  0.7618 -0.5770  0.3485
  192ETHOX  H2311805  15.823  13.647  10.809 -0.3249 -1.2016 -3.6665
  193ETHOX   O111806  15.642  13.691  10.903 -0.2099  0.1700  0.0664
  193ETHOX   C111807  15.688  13.661  11.031 -0.9534 -0.0207  0.4938
  193ETHOX  H1111808  15.596  13.616  11.074  0.1535 -5.0290 -1.6233
  193ETHOX  H1311809  15.765  13.581  11.041  1.4382  2.2165  0.9864
  193ETHOX   C211810  15.723  13.788  11.109 -0.3538  0.0931 -0.1426
  193ETHOX  H2111811  15.633  13.849  11.132 -1.5664 -1.4345 -0.6480
  193ETHOX  H2311812  15.803  13.843  11.056 -1.6970  0.9397 -1.3453
  194ETHOX   O111813  15.770  13.750  11.236  0.3303 -0.6314  0.5211
  194ETHOX   C111814  15.778  13.860  11.322 -1.0591  0.2969 -0.6296
  194ETHOX  H1111815  15.803  13.828  11.426 -1.7982  2.9502  0.4582
  194ETHOX  H1311816  15.680  13.913  11.326 -0.4400  1.4911  3.7003
  194ETHOX   C211817  15.893  13.958  11.277  0.7302  0.2698 -0.2303
  194ETHOX  H2111818  15.976  13.893  11.243  0.9123 -0.0432  0.7977
  194ETHOX  H2311819  15.917  14.030  11.358 -2.4585  1.4083 -0.1751
  195ETHOX   O111820  15.846  14.038  11.169  0.4622 -0.8155 -0.2983
  195ETHOX   C111821  15.948  14.120  11.113  0.9988 -0.2956 -0.0665
  195ETHOX  H1111822  15.903  14.205  11.058 -0.8529 -0.0251  1.7454
  195ETHOX  H1311823  16.011  14.171  11.188  3.2496 -1.8252 -0.8055
  195ETHOX   C211824  16.041  14.036  11.024  0.6149 -0.5174  0.0600
  195ETHOX  H2111825  16.073  13.949  11.085  0.4114  0.1296  1.1170
  195ETHOX  H2311826  16.130  14.100  11.006  0.1472  0.0732 -0.1662
  196ETHOX   O111827  15.995  13.994  10.894 -0.2362  0.5855 -0.2322
  196ETHOX   C111828  15.938  14.097  10.814 -0.3098 -0.2878  0.1530
  196ETHOX  H1111829  15.841  14.138  10.849  0.7021  2.8874 -0.3935
  196ETHOX  H1311830  16.000  14.190  10.815  0.4399 -0.7483 -1.0802
  196ETHOX   C211831  15.924  14.050  10.675 -0.0653  0.7262  0.3233
  196ETHOX  H2111832  15.866  14.125  10.618 -1.9234 -1.2237 -0.4816
  196ETHOX  H2311833  15.860  13.959  10.673 -0.0720  0.6863  1.6668
  197ETHOX   O111834  16.054  14.015  10.626  0.1476  0.0478 -0.5648
  197ETHOX   C111835  16.047  13.974  10.487  0.3416  0.0707 -0.7232
  197ETHOX  H1111836  15.945  13.978  10.444 -0.1562 -1.7486  0.1812
  197ETHOX  H1311837  16.108  14.052  10.436 -1.9476  1.5753 -1.3094
  197ETHOX   C211838  16.112  13.844  10.452 -0.0467 -0.2531 -0.0505
  197ETHOX  H2111839  16.216  13.851  10.489  0.2205  0.2698 -0.8655
  197ETHOX  H2311840  16.126  13.831  10.343  1.5274 -1.8167  0.2994
  198ETHOX   O111841  16.054  13.719  10.500 -1.0957 -0.0385  0.4740
  198ETHOX   C111842  16.144  13.609  10.461 -0.5887 -0.6699 -0.5083
  198ETHOX  H1111843  16.165  13.616  10.352 -1.3743 -3.8170 -0.9596
  198ETHOX  H1311844  16.243  13.611  10.511 -1.2455 -0.8304  0.8206
  198ETHOX   C211845  16.077  13.476  10.480  0.1600  0.8509  0.4464
  198ETHOX  H2111846  15.975  13.475  10.437  0.1244 -1.5127  0.4539
  198ETHOX  H2311847  16.070  13.465  10.590 -2.7109  2.0783  0.4694
  199ETHOX   O111848  16.146  13.367  10.421  0.1028  0.7077 -0.3055
  199ETHOX   C111849  16.109  13.245  10.481 -0.7554  0.5362 -1.0905
  199ETHOX  H1111850  16.018  13.266  10.541  0.2164  0.1374  0.5881
  199ETHOX  H1311851  16.187  13.216  10.554 -1.1790  0.1691 -0.7700
  199ETHOX   C211852  16.096  13.133  10.375 -0.5780 -0.3856 -0.2498
  199ETHOX  H2111853  16.097  13.034  10.424 -2.1510  0.5581  1.8568
  199ETHOX  H2311854  16.182  13.138  10.305 -0.1537 -1.4307  0.1760
  200ETHOX   O111855  15.984  13.147  10.287 -0.7200 -0.1796  0.2202
  200ETHOX   C111856  16.004  13.058  10.179  0.5869 -0.0522  0.0896
  200ETHOX  H1111857  16.084  13.107  10.119 -1.5947  1.4051 -1.7649
  200ETHOX  H1311858  16.029  12.956  10.215 -0.7838 -0.3232  0.3270
  200ETHOX   C211859  15.879  13.059  10.084  0.3407  1.0200 -0.2384
  200ETHOX  H2111860  15.786  13.030  10.136  0.8631 -0.9272 -0.3151
  200ETHOX  H2311861  15.894  13.001   9.991 -1.2152 -0.5592  0.4366
  201ETHOX   O111862  15.866  13.187  10.032  0.6217 -0.0990 -0.2229
  201ETHOX   C111863  15.760  13.198   9.939  0.5285 -0.1708 -0.8512
  201ETHOX  H1111864  15.679  13.259   9.984  0.8659  0.9905 -1.7785
  201ETHOX  H1311865  15.714  13.100   9.913  0.0307  0.2205 -1.4711
  201ETHOX   C211866  15.802  13.270   9.806 -0.0906  0.2989  0.0867
  201ETHOX  H2111867  15.712  13.286   9.742 -1.5241 -0.0313  1.9142
  201ETHOX  H2311868  15.871  13.201   9.754 -0.4594 -1.9762  2.3643
  202ETHOX   O111869  15.874  13.398   9.819  0.3305 -0.1385 -0.2725
  202ETHOX   C111870  15.781  13.503   9.865  0.6894  0.2388  1.0797
  202ETHOX  H1111871  15.690  13.498   9.802  0.3217 -0.1011  1.6341
  202ETHOX  H1311872  15.760  13.486   9.972 -2.1012 -1.3993  0.3762
  202ETHOX   C211873  15.843  13.642   9.843  1.0418  0.3193  0.6255
  202ETHOX  H2111874  15.953  13.635   9.863  0.8874 -1.1373  1.0936
  202ETHOX  H2311875  15.792  13.717   9.907  0.0336  1.7139 -1.6980
  203ETHOX   O111876  15.838  13.684   9.709 -0.0732  0.0052 -0.0194
  203ETHOX   C111877  15.869  13.821   9.699 -0.0693  0.6257  0.2017
  203ETHOX  H1111878  15.975  13.845   9.723  0.0081  1.1165 -0.5883
  203ETHOX  H1311879  15.803  13.872   9.773 -0.7353 -0.2949  0.2566
  203ETHOX   C211880  15.831  13.888   9.558 -0.4086 -0.0311  0.1059
  203ETHOX  H2111881  15.861  13.823   9.473  1.5810  0.4254  0.4007
  203ETHOX  H2311882  15.882  13.987   9.547 -0.3138 -0.2158 -1.3577
  204ETHOX   O111883  15.694  13.901   9.544  0.1521  0.1574  0.7417
  204ETHOX   C111884  15.650  14.033   9.492 -0.0094 -0.1269  0.3240
  204ETHOX  H1111885  15.651  14.103   9.578 -0.9997  1.6363 -1.0282
  204ETHOX  H1311886  15.725  14.075   9.422 -0.2506  0.0104  0.1445
  204ETHOX   C211887  15.520  14.049   9.415 -0.2400  0.3372 -0.0581
  204ETHOX  H2111888  15.493  13.957   9.359 -1.1432  0.3220  0.3742
  204ETHOX  H2311889  15.519  14.144   9.357  0.8844  0.5467  0.2436
  205ETHOX   O111890  15.419  14.061   9.514  0.3726  0.1199  0.4154
  205ETHOX   C111891  15.378  13.940   9.571  0.2995 -0.2923  0.3971
  205ETHOX  H1111892  15.442  13.914   9.658  1.1488 -0.0159 -0.1326
  205ETHOX  H1311893  15.386  13.857   9.497 -0.6611 -2.3125  2.4380
  205ETHOX   C211894  15.232  13.947   9.629 -0.3305 -1.1937 -0.5024
  205ETHOX  H2111895  15.159  13.975   9.550  0.0646 -1.2401 -0.8893
  205ETHOX  H2311896  15.249  14.012   9.717  0.4287 -2.9104  0.6583
  206ETHOX   O111897  15.198  13.829   9.688 -0.2026 -0.2526 -0.0621
  206ETHOX   C111898  15.065  13.813   9.736  0.1497  0.5395  0.1087
  206ETHOX  H1111899  15.038  13.914   9.775 -0.4658  0.2309  0.4888
  206ETHOX  H1311900  14.996  13.795   9.651 -2.7449  3.4611  1.6027
  206ETHOX   C211901  15.048  13.711   9.844  0.0862 -0.1721 -0.3969
  206ETHOX  H2111902  14.941  13.697   9.866  0.6328  0.1917  2.9317
  206ETHOX  H2311903  15.080  13.611   9.806  0.7994 -0.5567  1.1332
  207ETHOX   O111904  15.121  13.743   9.962  0.3350 -0.8669  0.7680
  207ETHOX   C111905  15.102  13.648  10.067 -0.2108 -0.3608 -0.8764
  207ETHOX  H1111906  15.095  13.549  10.016 -1.3919 -1.3211  1.0285
  207ETHOX  H1311907  15.000  13.660  10.110 -0.7512 -1.1262 -1.8835
  207ETHOX   C211908  15.211  13.652  10.177  0.3355  0.0337  0.1414
  207ETHOX  H2111909  15.198  13.576  10.257  1.5561  1.0939  1.3918
  207ETHOX  H2311910  15.200  13.752  10.224 -0.4351  0.4132 -0.8209
  208ETHOX   O111911  15.345  13.635  10.137 -0.2620  0.5954  0.1467
  208ETHOX   C111912  15.435  13.678  10.240 -0.3012  0.4197  0.4098
  208ETHOX  H1111913  15.396  13.772  10.283 -0.3472  0.6465 -0.1214
  208ETHOX  H1311914  15.443  13.599  10.318  0.2525  0.1390  0.0740
  208ETHOX   C211915  15.580  13.695  10.181  0.5297 -0.2548 -0.2318
  208ETHOX  H2111916  15.641  13.762  10.246 -0.1252 -0.2681  0.4176
  208ETHOX  H2311917  15.572  13.735  10.078 -1.0925 -0.8055 -0.3483
  209ETHOX   O111918  15.636  13.564  10.176 -0.8340  0.1190  0.1017
  209ETHOX   C111919  15.707  13.536  10.300  0.1270 -0.8315 -0.4538
  209ETHOX  H1111920  15.657  13.585  10.386  2.9295  2.0422 -0.2761
  209ETHOX  H1311921  15.809  13.579  10.288 -0.0810 -0.7928 -2.6178
  209ETHOX   C211922  15.710  13.382  10.331 -0.6783  0.6028 -0.6927
  209ETHOX  H2111923  15.803  13.343  10.285 -0.7681  2.3556 -2.5013
  209ETHOX  H2311924  15.617  13.333  10.295 -1.5000  0.9149  0.9101
  210ETHOX   O111925  15.693  13.367  10.474 -0.7289 -0.0715  0.0808
  210ETHOX   C111926  15.687  13.232  10.525 -0.2020  0.4129  0.1437
  210ETHOX  H1111927  15.592  13.185  10.490 -0.4039  0.3893  0.7212
  210ETHOX  H1311928  15.764  13.171  10.474  0.6392  1.7391 -0.2223
  210ETHOX   C211929  15.701  13.226  10.674 -0.3447 -0.2950 -0.6953
  210ETHOX  H2111930  15.782  13.293  10.710  1.0877 -2.5823  0.5485
  210ETHOX  H2311931  15.730  13.125  10.709 -1.3031  0.4271  2.4862
  211ETHOX   O111932  15.581  13.258  10.747 -0.1936  0.0750  0.3620
  211ETHOX   C111933  15.600  13.328  10.871 -0.2628  0.7631 -0.1403
  211ETHOX  H1111934  15.677  13.405  10.852 -0.5012  1.1950  0.6142
  211ETHOX  H1311935  15.505  13.371  10.909  0.7680  0.3875  3.1774
  211ETHOX   C211936  15.657  13.235  10.979 -0.8220  0.7437 -0.0653
  211ETHOX  H2111937  15.598  13.142  10.993  0.5788 -0.0136  1.0687
  211ETHOX  H2311938  15.655  13.295  11.072  0.2288 -0.9947  1.1453
  212ETHOX   O111939  15.787  13.189  10.945 -0.0901 -0.0700 -0.2551
  212ETHOX   C111940  15.861  13.149  11.059 -0.1950  0.1182  0.1394
  212ETHOX  H1111941  15.882  13.228  11.135 -1.0264  0.2417  0.2455
  212ETHOX  H1311942  15.795  13.071  11.103  0.2838  0.8405  2.2681
  212ETHOX   C211943  15.989  13.073  11.015  0.4548 -0.5009  0.3707
  212ETHOX  H2111944  15.961  13.014  10.925 -0.9260  0.7329 -0.0417
  212ETHOX  H2311945  16.019  12.998  11.091 -1.3160 -1.0623  0.5453
  213ETHOX   O111946  16.108  13.147  10.982 -0.2507  0.3500 -0.2162
  213ETHOX   C111947  16.087  13.242  10.889 -0.6949  0.3129  0.0098
  213ETHOX  H1111948  16.069  13.197  10.789  0.6619 -1.0951  0.3643
  213ETHOX  H1311949  16.002  13.310  10.913 -0.0699  0.5941  1.5235
  213ETHOX   C211950  16.220  13.322  10.877 -0.4736 -0.5630 -0.2589
  213ETHOX  H2111951  16.246  13.362  10.978 -0.9411  0.1073 -0.3983
  213ETHOX  H2311952  16.209  13.420  10.826 -0.0186  0.1088  0.8702
  214ETHOX   O111953  16.323  13.234  10.825 -0.0849  0.3895 -0.0435
  214ETHOX   C111954  16.447  13.310  10.806  0.2844  0.1809  0.2161
  214ETHOX  H1111955  16.467  13.380  10.890 -0.7126  0.9490 -0.1705
  214ETHOX  H1311956  16.436  13.372  10.715  1.7269 -2.0850 -1.6017
  214ETHOX   C211957  16.566  13.216  10.785  0.8640  0.3813  0.4675
  214ETHOX  H2111958  16.651  13.274  10.743  2.3412  0.2436  3.0279
  214ETHOX  H2311959  16.539  13.146  10.704 -0.2720  0.8760  0.4069
  215ETHOX   O111960  16.611  13.160  10.912  0.3951  0.0118  0.3635
  215ETHOX   C111961  16.698  13.049  10.880  0.1694  0.1831 -0.2755
  215ETHOX  H1111962  16.636  12.973  10.827 -0.5967 -0.0306  0.8896
  215ETHOX  H1311963  16.770  13.088  10.805 -1.6649  1.9277 -1.2216
  215ETHOX   C211964  16.763  13.002  11.014  0.8813 -0.3636  0.1118
  215ETHOX  H2111965  16.781  13.092  11.077 -0.7933 -1.4000  2.2265
  215ETHOX  H2311966  16.856  12.946  10.991  1.2933  0.0203  0.7987
  216ETHOX   O111967  16.674  12.921  11.087 -0.3395  0.5220  0.5839
  216ETHOX   C111968  16.715  12.907  11.222  0.3305  0.5185 -0.4428
  216ETHOX  H1111969  16.626  12.896  11.287  0.5476 -0.0312 -0.2370
  216ETHOX  H1311970  16.770  12.994  11.265 -0.3510  0.4390  0.6314
  216ETHOX   C211971  16.822  12.799  11.236  0.2681  0.3328 -0.0887
  216ETHOX  H2111972  16.795  12.705  11.182  1.2137  0.9049 -1.6015
  216ETHOX  H2311973  16.829  12.765  11.342 -0.3051  0.2792 -0.0640
  217ETHOX   O111974  16.950  12.832  11.176 -0.0385 -0.2693  0.5333
  217ETHOX   C111975  17.048  12.729  11.166  0.1534  0.3208  0.1913
  217ETHOX  H1111976  17.040  12.656  11.249  0.0288  1.3807  1.1388
  217ETHOX  H1311977  17.019  12.673  11.075 -1.2914  2.8280 -1.0093
  217ETHOX   C211978  17.192  12.784  11.153  0.7043  0.5188 -0.3037
  217ETHOX  H2111979  17.196  12.852  11.065 -0.7377 -1.7012 -2.2105
  217ETHOX  H2311980  17.269  12.707  11.129 -0.7775 -1.2296  0.2809
  218ETHOX   O111981  17.219  12.845  11.278  0.2093  0.1466 -0.5191
  218ETHOX   C111982  17.354  12.876  11.305 -0.1711  0.1231 -0.2482
  218ETHOX  H1111983  17.399  12.951  11.236  1.7913 -0.1782  0.6547
  218ETHOX  H1311984  17.411  12.782  11.291 -1.0692 -0.5316  0.3186
  218ETHOX   C211985  17.367  12.921  11.451 -0.3195  0.3265 -0.2148
  218ETHOX  H2111986  17.470  12.913  11.494  0.4688  2.0649 -1.6492
  218ETHOX  H2311987  17.306  12.850  11.510  0.6441  0.5054  1.0609
  219ETHOX   O111988  17.316  13.052  11.465  0.2841  0.0327  0.5111
  219ETHOX   C111989  17.327  13.114  11.594  0.1653 -0.0589 -0.7886
  219ETHOX  H1111990  17.437  13.118  11.610  0.2140 -1.6190 -0.5258
  219ETHOX  H1311991  17.292  13.219  11.588  0.1811 -0.1579 -3.3301
  219ETHOX   C211992  17.275  13.037  11.720 -0.1964 -0.4323  0.4129
  219ETHOX  H2111993  17.319  13.089  11.808 -2.0651 -0.5130  1.4453
  219ETHOX  H2311994  17.310  12.932  11.725 -0.7822 -0.5555  2.8699
  220ETHOX   O111995  17.128  13.045  11.717  0.1040 -0.3635  0.0831
  220ETHOX   C111996  17.074  13.169  11.765 -0.0746 -0.5811  0.0864
  220ETHOX  H1111997  17.129  13.255  11.719  0.3615 -0.4989  0.7437
  220ETHOX  H1311998  17.088  13.170  11.876  0.3891 -1.9421  0.0553
  220ETHOX   C211999  16.927  13.205  11.711 -0.3219  0.6972  0.0185
  220ETHOX  H2112000  16.887  13.273  11.789 -0.1012  0.7292  0.1041
  220ETHOX  H2312001  16.855  13.120  11.720 -1.7444  1.9703  1.2729
  221ETHOX   O112002  16.917  13.262  11.583 -0.1557  1.0513  0.5070
  221ETHOX   C112003  16.951  13.398  11.574 -0.1836 -0.6267 -0.1814
  221ETHOX  H1112004  16.885  13.454  11.644 -1.2488  0.6384 -2.1255
  221ETHOX  H1312005  17.050  13.409  11.623 -1.3535 -3.0789  3.0818
  221ETHOX   C212006  16.966  13.444  11.430 -0.3048  0.2376  0.3818
  221ETHOX  H2112007  16.984  13.355  11.365  0.0240  1.0944 -0.7306
  221ETHOX  H2312008  17.063  13.498  11.423 -0.2697 -0.0703 -2.6327
  222ETHOX   O112009  16.850  13.522  11.386  0.2874  0.0816  0.1834
  222ETHOX   C112010  16.783  13.448  11.282 -0.2461  0.3282  0.2877
  222ETHOX  H1112011  16.843  13.448  11.189  0.5426 -2.5705  0.6803
  222ETHOX  H1312012  16.776  13.341  11.312  1.9943 -0.3572 -1.3996
  222ETHOX   C212013  16.644  13.501  11.251 -0.4570 -0.2811  0.4062
  222ETHOX  H2112014  16.607  13.437  11.167  0.3615  0.1394 -0.2938
  222ETHOX  H2312015  16.654  13.610  11.233  0.2951 -0.4068  0.0153
  223ETHOX   O112016  16.556  13.490  11.360  0.6568  0.0444  0.0593
  223ETHOX   C112017  16.423  13.541  11.330 -0.1364 -1.0412  0.4123
  223ETHOX  H1112018  16.429  13.632  11.267 -2.8265 -0.5370  0.7572
  223ETHOX  H1312019  16.361  13.458  11.290 -2.7826  0.4685  1.1644
  223ETHOX   C212020  16.360  13.609  11.459 -0.0566  0.3550 -0.2716
  223ETHOX  H2112021  16.345  13.540  11.544 -0.1968  1.7978  0.9198
  223ETHOX  H2312022  16.257  13.637  11.428 -0.1767  0.8925  0.5744
  224ETHOX   O112023  16.434  13.711  11.516 -0.6372  0.4571  0.1194
  224ETHOX   C112024  16.377  13.767  11.634  0.0007 -0.4124 -0.3518
  224ETHOX  H1112025  16.268  13.787  11.625 -0.7445 -3.0217  1.6137
  224ETHOX  H1312026  16.386  13.696  11.718 -0.6667  0.8122  0.8009
  224ETHOX   C212027  16.452  13.892  11.692  0.5668  0.3536  0.2608
  224ETHOX  H2112028  16.561  13.889  11.669  0.3230  2.8719 -1.7089
  224ETHOX  H2312029  16.425  13.895  11.799 -0.6663  2.0009 -0.0633
  225ETHOX   O112030  16.401  14.014  11.628  0.2723  0.8168 -0.3589
  225ETHOX   C112031  16.440  14.132  11.695  0.4986 -0.3133  0.1750
  225ETHOX  H1112032  16.543  14.151  11.657 -0.4538 -0.9660 -3.0151
  225ETHOX  H1312033  16.456  14.107  11.802 -0.9574  0.6839  0.6583
  225ETHOX   C212034  16.351  14.256  11.682  0.2829  0.2926  0.2392
  225ETHOX  H2112035  16.241  14.237  11.685  0.5901 -2.0773 -1.2268
  225ETHOX  H2312036  16.373  14.300  11.582  0.2982 -0.1618  0.0400
  226ETHOX   O112037  16.372  14.346  11.787  0.1304  0.0630 -0.3574
  226ETHOX   C112038  16.332  14.476  11.759 -0.4711 -0.4894  0.1566
  226ETHOX  H1112039  16.234  14.466  11.707  0.4595 -1.0120 -1.5564
  226ETHOX  H1312040  16.297  14.530  11.850 -1.3152 -0.0491 -0.4192
  226ETHOX   C212041  16.424  14.552  11.666 -0.1102 -0.4746 -0.0546
  226ETHOX  H2112042  16.483  14.489  11.597 -0.8250  0.3256 -1.4473
  226ETHOX  H2312043  16.499  14.613  11.722 -1.9877  1.0963  0.8960
  227ETHOX   O112044  16.355  14.643  11.579  0.1656  0.0290  0.4495
  227ETHOX   C112045  16.441  14.721  11.499  0.1063 -0.7006  0.0984
  227ETHOX  H1112046  16.489  14.661  11.419  1.6358 -1.1487  1.3003
  227ETHOX  H1312047  16.533  14.746  11.556  0.3247 -1.0370 -0.1040
  227ETHOX   C212048  16.367  14.834  11.428 -0.3175 -0.0524 -0.2612
  227ETHOX  H2112049  16.268  14.810  11.385 -1.4129  2.1815  0.8670
  227ETHOX  H2312050  16.436  14.871  11.349  1.3150 -0.6103  0.8314
  228ETHOX   O112051  16.360  14.932  11.533  0.2306  0.2368 -0.3227
  228ETHOX   C112052  16.324  15.058  11.486  0.0857 -0.4249  0.1494
  228ETHOX  H1112053  16.392  15.081  11.401 -1.0204  0.5630 -0.5028
  228ETHOX  H1312054  16.228  15.044  11.431 -0.0824 -2.1465  0.8262
  228ETHOX   C212055  16.318  15.163  11.586  0.3916  0.3067  0.0750
  228ETHOX  H2112056  16.254  15.137  11.672 -0.0077  1.8084  0.2655
  228ETHOX  H2312057  16.270  15.246  11.529 -0.6785  1.8441  2.9988
  229ETHOX   O112058  16.436  15.232  11.623 -0.5308 -0.1193  1.0033
  229ETHOX   C112059  16.399  15.331  11.714  0.1981  0.4611 -0.0423
  229ETHOX  H1112060  16.344  15.283  11.797  1.0219  1.4384  1.1111
  229ETHOX  H1312061  16.327  15.401  11.668 -1.9254 -1.4716  0.2013
  229ETHOX   C212062  16.526  15.397  11.772 -0.4014  0.1303 -0.3396
  229ETHOX  H2112063  16.610  15.324  11.765 -1.9458 -1.5628 -2.2953
  229ETHOX  H2312064  16.507  15.421  11.879  0.1796 -2.2156  0.3487
  230ETHOX   O112065  16.564  15.510  11.699  1.0842 -0.2519  0.4215
  230ETHOX   C112066  16.666  15.577  11.760 -0.4660 -0.6346 -0.1031
  230ETHOX  H1112067  16.634  15.632  11.852 -0.4620 -1.8784  0.6678
  230ETHOX  H1312068  16.741  15.506  11.802 -1.5566 -0.9150  1.4904
  230ETHOX   C212069  16.720  15.678  11.657 -0.1952  0.3081 -0.4079
  230ETHOX  H2112070  16.790  15.752  11.701 -1.3641  1.9326 -1.1515
  230ETHOX  H2312071  16.625  15.726  11.621 -0.2429 -1.0726 -2.2854
  231ETHOX   O112072  16.773  15.604  11.541 -0.2183  0.2092 -0.2995
  231ETHOX   C112073  16.812  15.699  11.448 -0.0448 -0.1909  1.1377
  231ETHOX  H1112074  16.893  15.771  11.473  1.3412 -1.0857 -0.6072
  231ETHOX  H1312075  16.721  15.749  11.409  1.7793  0.6810 -2.3173
  231ETHOX   C212076  16.860  15.624  11.317 -0.2539  0.4363 -0.0876
  231ETHOX  H2112077  16.795  15.534  11.313  1.2979 -0.7926  1.0545
  231ETHOX  H2312078  16.960  15.582  11.343 -0.4635 -0.1245 -0.1784
  232ETHOX   O112079  16.867  15.695  11.195 -0.4727  0.4291 -0.4039
  232ETHOX   C112080  16.904  15.606  11.090 -0.0024  0.6809 -0.3081
  232ETHOX  H1112081  17.000  15.551  11.103  0.1691  0.5998 -1.7053
  232ETHOX  H1312082  16.834  15.520  11.079 -0.0809  0.6039  0.7164
  232ETHOX   C212083  16.893  15.684  10.960  0.8913 -0.0747  0.3129
  232ETHOX  H2112084  16.803  15.748  10.957  0.8897 -0.0416  0.8969
  232ETHOX  H2312085  16.867  15.626  10.868 -0.1410  1.4768 -0.4182
  233ETHOX   O112086  17.006  15.771  10.936 -0.4134 -0.1058 -0.1757
  233ETHOX   C112087  16.981  15.859  10.824 -0.1717  0.5090 -0.5094
  233ETHOX  H1112088  16.971  15.797  10.733  2.1564 -1.5489  0.5159
  233ETHOX  H1312089  16.890  15.917  10.851  0.9673  2.7525 -1.2219
  233ETHOX   C212090  17.110  15.949  10.820  0.6320 -0.0227  0.7431
  233ETHOX  H2112091  17.099  16.011  10.729  0.4908  2.4141  2.3268
  233ETHOX  H2312092  17.189  15.871  10.829  2.7406  2.0467  1.3387
  234ETHOX   O112093  17.116  16.042  10.932  0.3206 -0.4162  0.3830
  234ETHOX   C112094  17.234  16.125  10.931 -0.4453 -0.2119  0.7496
  234ETHOX  H1112095  17.322  16.059  10.940 -0.2218  0.0502  0.4989
  234ETHOX  H1312096  17.238  16.169  10.829  0.1384  0.4856  1.0649
  234ETHOX   C212097  17.248  16.233  11.035  0.4236 -0.3778 -0.2534
  234ETHOX  H2112098  17.156  16.295  11.034 -0.4424 -1.6129 -0.0922
  234ETHOX  H2312099  17.344  16.278  11.002  0.4199 -1.5342 -1.9246
  235ETHOX   O112100  17.273  16.182  11.167  0.3869 -0.5466  0.4368
  235ETHOX   C112101  17.277  16.280  11.266 -0.1725  0.6216 -0.2974
  235ETHOX  H1112102  17.335  16.246  11.355 -1.2814 -1.4647 -0.3155
  235ETHOX  H1312103  17.339  16.362  11.223  0.0785 -0.7832 -2.7901
  235ETHOX   C212104  17.136  16.324  11.313 -0.0685 -0.0629 -0.6185
  235ETHOX  H2112105  17.153  16.391  11.399 -0.9442 -2.0507  1.2057
  235ETHOX  H2312106  17.089  16.233  11.356  1.5154  0.0715  1.5632
  236ETHOX   O112107  17.061  16.392  11.223 -0.4108 -0.1914 -0.0061
  236ETHOX   C112108  16.930  16.433  11.272 -0.5454  0.5242 -0.6972
  236ETHOX  H1112109  16.932  16.506  11.356  0.5055  0.1787 -0.4096
  236ETHOX  H1312110  16.872  16.343  11.301 -1.2720  1.6957  1.8597
  236ETHOX   C212111  16.852  16.499  11.160  0.1477  0.3380  0.7412
  236ETHOX  H2112112  16.915  16.571  11.104 -0.8142 -0.4252 -1.4421
  236ETHOX  H2312113  16.773  16.559  11.210  0.1814  2.4362 -1.5291
  237ETHOX   O112114  16.791  16.412  11.065 -0.2847  0.3524  0.1061
  237ETHOX   C112115  16.890  16.351  10.972 -0.1969  0.1377  0.9936
  237ETHOX  H1112116  16.982  16.413  10.966 -0.3515  0.4325  1.6214
  237ETHOX  H1312117  16.930  16.257  11.016  0.6978 -0.1688 -0.4004
  237ETHOX   C212118  16.831  16.320  10.825 -0.6572  0.3657 -0.0440
  237ETHOX  H2112119  16.909  16.315  10.746 -0.9537  1.4138 -0.4242
  237ETHOX  H2312120  16.760  16.403  10.802 -0.0060  1.6575  2.2318
  238ETHOX   O112121  16.753  16.197  10.821  0.1981 -0.4485  0.4535
  238ETHOX   C112122  16.666  16.196  10.702  0.5215 -0.5252 -0.6475
  238ETHOX  H1112123  16.637  16.300  10.675  2.5968  0.2163 -0.2478
  238ETHOX  H1312124  16.582  16.127  10.724  0.0130 -0.1331 -1.3291
  238ETHOX   C212125  16.741  16.151  10.574  0.1607 -1.2194 -0.7299
  238ETHOX  H2112126  16.838  16.206  10.567 -0.5373 -0.1059 -2.1517
  238ETHOX  H2312127  16.673  16.184  10.493 -2.0509 -1.6322  0.8857
  239ETHOX   O112128  16.757  16.011  10.555  0.4181 -0.2362 -0.2551
  239ETHOX   C112129  16.819  15.978  10.433 -0.4105  0.5675  0.2458
  239ETHOX  H1112130  16.780  16.047  10.355 -2.0164 -0.5048  0.0730
  239ETHOX  H1312131  16.927  15.999  10.449 -0.7008  2.9512 -0.4752
  239ETHOX   C212132  16.783  15.843  10.385  0.5663  0.4085  0.2078
  239ETHOX  H2112133  16.837  15.809  10.295 -0.6435 -1.2425  0.0706
  239ETHOX  H2312134  16.811  15.780  10.472 -0.5293  1.1170  1.1073
  240ETHOX   O112135  16.637  15.830  10.374  0.5394  0.1642 -0.2456
  240ETHOX   C112136  16.604  15.725  10.282  0.2526  0.5113 -0.1469
  240ETHOX  H1112137  16.667  15.641  10.318 -1.3077  0.1873  2.0292
  240ETHOX  H1312138  16.621  15.749  10.175  2.4839  0.4605  0.1521
  240ETHOX   C212139  16.454  15.703  10.306 -0.9037  0.9124 -0.5865
  240ETHOX  H2112140  16.419  15.646  10.217 -0.4777  1.9195 -1.4360
  240ETHOX  H2312141  16.406  15.803  10.302 -0.8228  0.9550 -0.4973
  241ETHOX   O112142  16.431  15.640  10.434  0.0896 -0.3050 -0.4037
  241ETHOX   C112143  16.294  15.620  10.470 -0.2872 -0.2158  0.0086
  241ETHOX  H1112144  16.255  15.721  10.493 -0.1149 -0.1054 -0.1742
  241ETHOX  H1312145  16.243  15.574  10.383  2.0838 -2.7709 -0.1800
  241ETHOX   C212146  16.272  15.540  10.603 -0.0191 -0.1201 -0.2889
  241ETHOX  H2112147  16.170  15.555  10.644 -0.3330 -0.8682 -0.7830
  241ETHOX  H2312148  16.350  15.574  10.675  0.2523 -0.0135 -0.6333
  242ETHOX   O112149  16.293  15.410  10.558  0.0051  0.1359  0.0107
  242ETHOX   C112150  16.289  15.318  10.667 -0.2644 -0.2229  0.4055
  242ETHOX  H1112151  16.332  15.362  10.759 -0.2443  1.2481 -0.2821
  242ETHOX  H1312152  16.357  15.237  10.633  0.0220  0.3028 -0.2825
  242ETHOX   C212153  16.154  15.264  10.698 -0.2756  0.1973 -0.8075
  242ETHOX  H2112154  16.101  15.350  10.744 -0.4367  1.6692 -3.5113
  242ETHOX  H2312155  16.181  15.182  10.767  2.5908  1.3566 -0.4101
  243ETHOX   O112156  16.084  15.202  10.589  0.2434  0.4448 -0.0492
  243ETHOX   C112157  15.952  15.154  10.621 -0.7193  0.1344 -0.4957
  243ETHOX  H1112158  15.966  15.084  10.706  2.1348  1.0609 -0.0996
  243ETHOX  H1312159  15.900  15.244  10.660 -0.0646  0.4525 -0.3520
  243ETHOX   C212160  15.881  15.111  10.494 -0.2828  0.4116  0.2414
  243ETHOX  H2112161  15.899  15.175  10.405 -2.1818  1.7679  0.7654
  243ETHOX  H2312162  15.774  15.133  10.511 -0.0832  0.8390  1.0231
  244ETHOX   O112163  15.891  14.971  10.462 -0.1004 -0.0890 -0.2745
  244ETHOX   C112164  15.840  14.941  10.332  0.1425 -0.5160 -0.6128
  244ETHOX  H1112165  15.870  15.020  10.260  1.6731  0.8221  1.3828
  244ETHOX  H1312166  15.731  14.922  10.325  0.3487 -1.2503 -3.0397
  244ETHOX   C212167  15.900  14.809  10.288 -0.4316  0.9608 -0.2807
  244ETHOX  H2112168  16.009  14.805  10.309 -1.1055 -0.7906  3.7347
  244ETHOX  H2312169  15.891  14.802  10.177 -0.0525 -0.0143 -0.2650
  245ETHOX   O112170  15.853  14.686  10.353 -0.0141 -0.0384  0.2556
  245ETHOX   C112171  15.931  14.572  10.312 -0.3676 -0.3107  0.3479
  245ETHOX  H1112172  16.038  14.598  10.324 -0.7186  3.0981 -2.4191
  245ETHOX  H1312173  15.897  14.487  10.376  0.6796 -0.8077  0.2578
  245ETHOX   C212174  15.917  14.535  10.164  0.0343 -0.4573 -1.1645
  245ETHOX  H2112175  15.824  14.584  10.129  0.6955 -0.6811 -3.3844
  245ETHOX  H2312176  15.907  14.424  10.159  0.0989 -0.4073 -3.1109
  246ETHOX   O112177  16.025  14.577  10.087 -0.0801 -0.4270 -0.5557
  246ETHOX   C112178  16.008  14.530   9.953 -0.4246 -0.3529  1.0909
  246ETHOX  H1112179  15.924  14.577   9.897  2.0007  1.0831 -1.6262
  246ETHOX  H1312180  16.002  14.420   9.937 -2.8874  0.0851 -2.2134
  246ETHOX   C212181  16.129  14.581   9.869  0.3827 -0.0794 -0.1804
  246ETHOX  H2112182  16.219  14.548   9.925 -0.2693  0.2775  1.1327
  246ETHOX  H2312183  16.122  14.691   9.854 -0.7438  0.1048  1.3772
  247ETHOX   O112184  16.124  14.515   9.740  0.0959  0.0135  0.3310
  247ETHOX   C112185  16.229  14.566   9.650 -0.7026 -0.4783  0.2788
  247ETHOX  H1112186  16.307  14.591   9.725 -2.8975 -1.0609  2.9167
  247ETHOX  H1312187  16.269  14.493   9.577  0.3141  0.0729  0.2743
  247ETHOX   C212188  16.189  14.698   9.581  0.3870  0.2477  0.0351
  247ETHOX  H2112189  16.258  14.732   9.501 -0.3265  2.7272  0.3622
  247ETHOX  H2312190  16.090  14.681   9.533  0.0295  3.2062 -0.4618
  248ETHOX   O112191  16.181  14.817   9.666 -0.2915 -0.6377 -0.1084
  248ETHOX   C112192  16.133  14.936   9.604 -0.1142 -0.1243  0.3053
  248ETHOX  H1112193  16.186  15.018   9.658  1.5304 -2.3927  2.3718
  248ETHOX  H1312194  16.158  14.931   9.496 -0.2806  0.5435  0.2319
  248ETHOX   C212195  15.979  14.952   9.591  0.1928  0.1393  0.2513
  248ETHOX  H2112196  15.929  14.872   9.533  1.3524  1.3889 -2.6617
  248ETHOX  H2312197  15.947  15.037   9.528 -2.2688  0.0232  1.2084
  249ETHOX   O112198  15.919  14.967   9.719  0.3234 -0.2193 -0.3469
  249ETHOX   C112199  15.845  14.844   9.745  0.4133 -0.1830  0.0546
  249ETHOX  H1112200  15.762  14.833   9.672 -0.6573  1.9089  0.8841
  249ETHOX  H1312201  15.905  14.751   9.733 -0.7705 -0.9178 -0.3818
  249ETHOX   C212202  15.779  14.857   9.890 -0.3235 -0.3306 -0.0906
  249ETHOX  H2112203  15.802  14.959   9.927 -0.6316 -0.2770 -0.0446
  249ETHOX  H2312204  15.839  14.788   9.953  2.4034  2.0042  0.0600
  250ETHOX   O112205  15.639  14.846   9.905 -0.3684 -0.1186 -0.1484
  250ETHOX   C112206  15.608  14.861  10.038 -0.1195 -0.7127 -0.8221
  250ETHOX  H1112207  15.653  14.778  10.096  1.5199  0.4682 -0.3217
  250ETHOX  H1312208  15.658  14.952  10.079 -2.1177 -0.1635  0.5494
  250ETHOX   C212209  15.459  14.863  10.056 -0.0477 -0.0911 -0.3310
  250ETHOX  H2112210  15.416  14.789   9.984  0.2991  0.2321 -0.8820
  250ETHOX  H2312211  15.423  14.967  10.041 -0.3542 -0.1142  0.2386
  251ETHOX   O112212  15.435  14.831  10.193 -0.0502 -0.3221 -0.5060
  251ETHOX   C112213  15.301  14.803  10.220  0.2524  0.1616 -0.1551
  251ETHOX  H1112214  15.253  14.734  10.147 -1.0517 -0.3644  1.1363
  251ETHOX  H1312215  15.243  14.897  10.212 -0.0661 -0.1163 -1.2433
  251ETHOX   C212216  15.272  14.743  10.363 -0.1207 -0.6764  0.2733
  251ETHOX  H2112217  15.337  14.660  10.398  0.5316 -0.1855  0.2392
  251ETHOX  H2312218  15.168  14.705  10.358 -0.3430  0.0112 -0.6868
  252ETHOX   O112219  15.280  14.853  10.453 -0.9658 -0.6576  0.4821
  252ETHOX   C112220  15.390  14.848  10.545  0.0418 -0.6929 -0.1193
  252ETHOX  H1112221  15.368  14.761  10.611 -0.6421 -1.8249 -1.7689
  252ETHOX  H1312222  15.486  14.821  10.495 -0.5450 -0.9386 -1.1500
  252ETHOX   C212223  15.401  14.988  10.617 -0.5055  0.2540  0.0425
  252ETHOX  H2112224  15.462  14.978  10.709  2.0091 -0.4605 -1.6073
  252ETHOX  H2312225  15.296  15.017  10.640 -0.3847 -0.7638  2.1011
  253ETHOX   O112226  15.472  15.062  10.521 -0.3564  0.2417 -0.2477
  253ETHOX   C112227  15.446  15.197  10.553  0.3753  0.0484  0.0586
  253ETHOX  H1112228  15.501  15.218  10.647 -0.6331 -0.5105  0.7846
  253ETHOX  H1312229  15.338  15.220  10.558  0.3288  0.5525 -2.2780
  253ETHOX   C212230  15.518  15.281  10.445  0.2897 -0.0922  0.6734
  253ETHOX  H2112231  15.619  15.243  10.419  0.1808  0.2087 -0.2440
  253ETHOX  H2312232  15.522  15.386  10.483 -0.5999  0.4932 -0.7545
  254ETHOX   O112233  15.448  15.295  10.318  0.0155  0.7486  0.2149
  254ETHOX   C112234  15.486  15.195  10.226  0.3552 -0.0736 -0.0535
  254ETHOX  H1112235  15.518  15.104  10.281  0.0805  1.1312  2.2110
  254ETHOX  H1312236  15.394  15.173  10.167  0.0585  0.6815  0.1165
  254ETHOX   C212237  15.594  15.247  10.126  0.0271  0.2331  0.1024
  254ETHOX  H2112238  15.546  15.332  10.073 -0.8376 -1.6593 -2.3769
  254ETHOX  H2312239  15.609  15.174  10.043  3.0447  1.5641 -0.6438
  255ETHOX   O112240  15.712  15.280  10.189  0.0911 -0.3803  0.3279
  255ETHOX   C112241  15.785  15.362  10.097  0.4694  0.6038 -0.6758
  255ETHOX  H1112242  15.728  15.457  10.087  0.2891  0.4166 -1.6039
  255ETHOX  H1312243  15.794  15.327   9.991  1.6564  0.7814 -0.6526
  255ETHOX   C212244  15.929  15.373  10.148  0.0626  0.1077  0.1286
  255ETHOX  H2112245  15.928  15.391  10.257  0.6064  1.4075 -0.0528
  255ETHOX  H2312246  15.963  15.460  10.087 -1.1136  1.9310  1.9644
  256ETHOX   O112247  16.006  15.253  10.101 -0.0626  0.2563 -0.0554
  256ETHOX   C112248  16.132  15.232  10.169  0.1005  0.3263  0.2740
  256ETHOX  H1112249  16.207  15.300  10.123  0.4758  2.6578  3.9391
  256ETHOX  H1312250  16.119  15.254  10.277  3.0884 -2.4028  1.3325
  256ETHOX   C212251  16.176  15.089  10.140 -0.4208  0.4584  0.7849
  256ETHOX  H2112252  16.092  15.019  10.158 -2.2866  2.1391 -0.9246
  256ETHOX  H2312253  16.260  15.049  10.202 -0.3103 -0.6722 -0.0814
  257ETHOX   O112254  16.218  15.067  10.010 -0.9060  0.3605  0.0424
  257ETHOX   C112255  16.273  14.941   9.986  0.1494  0.2183 -0.0725
  257ETHOX  H1112256  16.294  14.930   9.877  1.5933 -0.2121  0.2193
  257ETHOX  H1312257  16.193  14.868  10.011  0.1266 -0.1467 -1.1509
  257ETHOX   C212258  16.415  14.912  10.031 -0.3135  0.2514 -0.2866
  257ETHOX  H2112259  16.425  14.804  10.011  0.0612  0.2709 -0.2025
  257ETHOX  H2312260  16.426  14.934  10.140  0.8660  0.5371 -0.4556
  258ETHOX   O112261  16.503  14.991   9.962 -0.3176  0.4057  0.6504
  258ETHOX   C112262  16.636  14.965  10.006 -0.7010  0.6825 -0.4970
  258ETHOX  H1112263  16.627  14.983  10.115 -1.5479 -0.9002 -0.2745
  258ETHOX  H1312264  16.674  14.862   9.988 -0.6272  0.4340  0.9861
  258ETHOX   C212265  16.739  15.061   9.941  0.3794 -0.6134  0.2976
  258ETHOX  H2112266  16.710  15.074   9.835  0.0179  0.9859  0.5735
  258ETHOX  H2312267  16.838  15.010   9.942  0.3044 -0.7593  0.3414
  259ETHOX   O112268  16.724  15.191  10.000  0.0429  0.0658 -0.3332
  259ETHOX   C112269  16.775  15.289   9.908 -0.0140  0.1221 -0.3041
  259ETHOX  H1112270  16.875  15.258   9.871  0.7001 -0.4622  1.9559
  259ETHOX  H1312271  16.698  15.274   9.829 -0.2670 -0.7186  0.0925
  259ETHOX   C212272  16.774  15.431   9.969  0.2921 -0.0966  0.8968
  259ETHOX  H2112273  16.688  15.445  10.038 -0.5714 -1.4390  0.1403
  259ETHOX  H2312274  16.750  15.506   9.890 -1.0404 -0.1144  1.2524
  260ETHOX   O112275  16.898  15.450  10.029 -0.4924 -0.0919 -0.5091
  260ETHOX   C112276  16.901  15.557  10.123  0.5515 -0.8992 -0.7025
  260ETHOX  H1112277  16.877  15.656  10.078 -0.5080 -0.9414 -0.2528
  260ETHOX  H1312278  16.830  15.542  10.207  1.3591 -0.7924  0.0093
  260ETHOX   C212279  17.044  15.566  10.182  0.6836  0.3991 -0.9104
  260ETHOX  H2112280  17.067  15.461  10.214 -2.5616 -0.4583 -1.0843
  260ETHOX  H2312281  17.027  15.625  10.275 -0.2679  0.3095 -1.0228
  261ETHOX   O112282  17.161  15.614  10.111  0.4627 -0.0589 -0.1984
  261ETHOX   C112283  17.148  15.755  10.083  0.7246  0.0554  0.0218
  261ETHOX  H1112284  17.073  15.773  10.003 -0.9545  0.9831  1.7445
  261ETHOX  H1312285  17.122  15.810  10.175  2.4775  1.3447 -0.1859
  261ETHOX   C212286  17.281  15.811  10.044 -0.8546  0.1342 -0.3281
  261ETHOX  H2112287  17.279  15.898   9.975  4.5008 -0.6062 -1.8850
  261ETHOX  H2312288  17.338  15.731   9.992 -0.4413 -0.0523  0.3904
  262ETHOX   O112289  17.356  15.855  10.158  0.8438  0.2205 -0.0066
  262ETHOX   C112290  17.479  15.922  10.125 -0.1880 -0.0337  0.2703
  262ETHOX  H1112291  17.465  16.003  10.050 -0.8204 -0.5021 -0.1313
  262ETHOX  H1312292  17.548  15.848  10.078  0.0853  1.3143 -1.5779
  262ETHOX   C212293  17.547  15.980  10.251 -0.4740 -0.2107  0.3233
  262ETHOX  H2112294  17.507  16.080  10.279 -0.3625  0.6680 -2.3898
  262ETHOX  H2312295  17.651  15.997  10.215  0.0950 -1.0476  1.4858
  263ETHOX   O112296  17.557  15.885  10.356 -0.1941  0.3248 -0.0936
  263ETHOX   C112297  17.610  15.940  10.476 -0.0498  0.0534  0.7021
  263ETHOX  H1112298  17.525  15.986  10.531 -0.2830 -1.5912  1.7905
  263ETHOX  H1312299  17.684  16.017  10.447 -0.2134 -0.3559 -0.9122
  263ETHOX   C212300  17.664  15.832  10.577  0.0300 -0.6602  1.4335
  263ETHOX  H2112301  17.710  15.888  10.661 -0.7644  2.6177 -0.1760
  263ETHOX  H2312302  17.745  15.782  10.520  0.3119  2.7982 -1.5520
  264ETHOX   O112303  17.571  15.744  10.633 -0.3450 -0.4987  0.3802
  264ETHOX   C112304  17.626  15.642  10.711 -0.1478  0.1940 -0.0632
  264ETHOX  H1112305  17.720  15.677  10.758 -0.3104 -0.5940  0.8741
  264ETHOX  H1312306  17.663  15.565  10.640 -0.9663 -1.0766  0.8582
  264ETHOX   C212307  17.531  15.570  10.800 -0.0067  0.1666 -0.2367
  264ETHOX  H2112308  17.591  15.493  10.854  0.8703 -0.2121 -1.6985
  264ETHOX  H2312309  17.444  15.519  10.755 -0.2243 -1.8993  2.2876
  265ETHOX   O112310  17.467  15.659  10.891 -0.2468  0.5773 -0.2792
  265ETHOX   C112311  17.419  15.602  11.010 -0.9719 -0.0639 -0.3771
  265ETHOX  H1112312  17.368  15.504  10.998  0.1144 -1.4064  4.1399
  265ETHOX  H1312313  17.502  15.593  11.083 -1.9861 -0.8822  0.7081
  265ETHOX   C212314  17.312  15.696  11.073 -0.3265  0.0667  0.6735
  265ETHOX  H2112315  17.263  15.637  11.154 -0.2143 -1.2219 -0.1753
  265ETHOX  H2312316  17.242  15.716  10.989 -0.5548  0.7076  1.0062
  265ETHOX   OZ12317  17.368  15.819  11.125  0.0813 -0.2282  0.1390
  265ETHOX  HZ112318  17.297  15.870  11.164 -0.2123 -1.2537  0.9879
    1ETHOX   O112319  13.344  16.195   9.485 -0.5754 -0.0320  0.2863
    1ETHOX  HO112320  13.372  16.192   9.394 -0.8981 -2.0901  0.2061
    1ETHOX   C112321  13.455  16.170   9.566 -0.6864  0.0752 -0.1664
    1ETHOX  H1112322  13.544  16.232   9.541 -0.5003  0.0128  0.3216
    1ETHOX  H1312323  13.483  16.062   9.570 -0.3037  0.2098  1.2423
    1ETHOX   C212324  13.408  16.212   9.712 -0.6185  0.4223  0.4672
    1ETHOX  H2112325  13.488  16.193   9.786  0.2908 -1.5785 -0.9240
    1ETHOX  H2312326  13.326  16.143   9.742 -0.2359 -2.7186 -4.5423
    2ETHOX   O112327  13.366  16.343   9.729  0.0175 -0.0901  0.2467
    2ETHOX   C112328  13.317  16.365   9.861  0.5023 -0.6811  0.2920
    2ETHOX  H1112329  13.229  16.300   9.880  1.5552 -2.0930  0.5312
    2ETHOX  H1312330  13.392  16.335   9.938 -0.5970 -0.4145  1.4879
    2ETHOX   C212331  13.271  16.511   9.876 -0.2765 -0.4714  0.5484
    2ETHOX  H2112332  13.362  16.567   9.846 -0.1609  0.2205  2.1201
    2ETHOX  H2312333  13.248  16.542   9.980  1.1104  0.8720  0.4865
    3ETHOX   O112334  13.167  16.530   9.777  0.3021  0.8310  0.1333
    3ETHOX   C112335  13.145  16.668   9.761  0.0777 -0.3753  0.6490
    3ETHOX  H1112336  13.225  16.720   9.705 -0.5907  0.0947  0.1197
    3ETHOX  H1312337  13.135  16.720   9.859  0.1999  0.3194  0.2957
    3ETHOX   C212338  13.008  16.692   9.682 -0.2224  0.5575  0.3668
    3ETHOX  H2112339  13.016  16.629   9.591 -0.5875  2.3986 -1.0221
    3ETHOX  H2312340  12.997  16.797   9.645  0.2604  0.6255  0.4132
    4ETHOX   O112341  12.886  16.651   9.753  0.3021  0.4730  0.1708
    4ETHOX   C112342  12.801  16.561   9.672  0.1868 -0.5463  0.4890
    4ETHOX  H1112343  12.794  16.601   9.569  2.0443 -2.1394 -0.3242
    4ETHOX  H1312344  12.865  16.474   9.647  2.4623  1.5458 -1.6004
    4ETHOX   C212345  12.670  16.516   9.742 -0.5221 -0.4727 -0.3071
    4ETHOX  H2112346  12.683  16.508   9.852 -1.5104  1.7795  0.0295
    4ETHOX  H2312347  12.637  16.417   9.704  0.5292 -0.3524 -1.5908
    5ETHOX   O112348  12.575  16.611   9.714  0.3892 -0.0565  0.2124
    5ETHOX   C112349  12.501  16.585   9.593  0.3266  0.0028  0.5087
    5ETHOX  H1112350  12.569  16.540   9.517 -0.5041 -1.9340  0.8546
    5ETHOX  H1312351  12.416  16.516   9.611  0.0074  0.0883 -0.5801
    5ETHOX   C212352  12.444  16.713   9.538  0.1687 -0.5293  0.0830
    5ETHOX  H2112353  12.394  16.769   9.620  1.4816 -2.4962  2.3545
    5ETHOX  H2312354  12.366  16.677   9.467 -1.8656 -1.9471  2.8270
    6ETHOX   O112355  12.538  16.788   9.464  0.6478  0.1085  0.7009
    6ETHOX   C112356  12.475  16.911   9.427 -0.5503  0.2831 -0.0796
    6ETHOX  H1112357  12.367  16.893   9.407 -0.4830  0.1280 -0.2996
    6ETHOX  H1312358  12.473  16.975   9.518 -2.6606 -1.5692  1.2862
    6ETHOX   C212359  12.556  16.981   9.318  0.2212 -0.4275  0.2509
    6ETHOX  H2112360  12.662  16.975   9.349  0.0285  0.6244  1.1665
    6ETHOX  H2312361  12.527  17.088   9.314 -0.7108 -0.7006 -0.7026
    7ETHOX   O112362  12.549  16.918   9.191 -0.5338 -0.2579  0.9561
    7ETHOX   C112363  12.579  17.011   9.088  0.2523 -0.0165 -0.0350
    7ETHOX  H1112364  12.524  17.107   9.091 -1.1108 -0.7348 -1.0343
    7ETHOX  H1312365  12.689  17.029   9.090  0.5439 -1.7060  0.8390
    7ETHOX   C212366  12.541  16.956   8.946  0.2299  0.0312  0.3985
    7ETHOX  H2112367  12.561  16.848   8.928  3.7228  0.1867  2.4135
    7ETHOX  H2312368  12.598  17.012   8.869 -1.1351  0.1470 -0.5613
    8ETHOX   O112369  12.409  16.998   8.926 -0.5509 -0.5733  0.5843
    8ETHOX   C112370  12.318  16.919   9.003 -0.0417 -0.8853  0.2864
    8ETHOX  H1112371  12.330  16.941   9.112  1.4317  2.9038 -0.5026
    8ETHOX  H1312372  12.349  16.813   8.990  3.4689 -0.0602  0.7722
    8ETHOX   C212373  12.174  16.928   8.943 -0.0004  0.1364 -0.1919
    8ETHOX  H2112374  12.149  17.033   8.914 -2.0487 -0.5764 -1.1996
    8ETHOX  H2312375  12.104  16.905   9.026  0.1255  0.7392  0.0895
    9ETHOX   O112376  12.149  16.846   8.833  0.7413  0.4493  0.3404
    9ETHOX   C112377  12.193  16.893   8.710 -0.4947 -0.1227  0.1967
    9ETHOX  H1112378  12.149  16.992   8.690 -0.6607 -0.7278 -2.9940
    9ETHOX  H1312379  12.304  16.897   8.708 -0.5162  0.6883 -2.1741
    9ETHOX   C212380  12.154  16.790   8.603 -0.7172 -0.2331 -0.3285
    9ETHOX  H2112381  12.154  16.838   8.503 -1.1293  0.1187 -0.1614
    9ETHOX  H2312382  12.051  16.753   8.624 -0.5460 -1.2515 -1.1785
   10ETHOX   O112383  12.232  16.670   8.598  0.4780  0.1914  0.2841
   10ETHOX   C112384  12.182  16.591   8.496 -1.0550 -1.0305 -0.3027
   10ETHOX  H1112385  12.172  16.657   8.407  2.6280  1.3412  0.8024
   10ETHOX  H1312386  12.089  16.548   8.540 -0.7491 -0.6897  0.7002
   10ETHOX   C212387  12.275  16.470   8.472  0.8120  0.1602  0.7466
   10ETHOX  H2112388  12.373  16.516   8.451  0.4672  0.6883  0.2641
   10ETHOX  H2312389  12.242  16.419   8.379 -1.4180 -0.8215  1.9839
   11ETHOX   O112390  12.279  16.389   8.593 -0.1654  0.5241  0.5780
   11ETHOX   C112391  12.400  16.310   8.594  0.4873  0.5731 -0.0951
   11ETHOX  H1112392  12.488  16.374   8.572 -1.1481  2.2880 -2.0731
   11ETHOX  H1312393  12.420  16.271   8.696  1.6279  0.4794 -0.3352
   11ETHOX   C212394  12.393  16.188   8.490 -0.5334 -0.6097 -0.0019
   11ETHOX  H2112395  12.365  16.237   8.394  0.5617  0.1927  0.0733
   11ETHOX  H2312396  12.490  16.137   8.471 -0.3133 -0.3383  0.3795
   12ETHOX   O112397  12.306  16.092   8.536  0.7403 -0.1170 -0.0004
   12ETHOX   C112398  12.287  15.991   8.439 -0.0368  0.2540 -0.3167
   12ETHOX  H1112399  12.380  15.933   8.422 -0.7531 -1.3082  0.8029
   12ETHOX  H1312400  12.254  16.036   8.343  1.6911  1.4572 -0.3852
   12ETHOX   C212401  12.181  15.887   8.467  0.5961  0.3506  0.2019
   12ETHOX  H2112402  12.203  15.826   8.558  1.8468 -0.2328 -0.4660
   12ETHOX  H2312403  12.150  15.825   8.380  0.9392 -1.4549  1.3209
   13ETHOX   O112404  12.064  15.959   8.494 -0.0730 -0.0061  0.1731
   13ETHOX   C112405  11.943  15.887   8.532 -1.1347  0.1067 -0.2751
   13ETHOX  H1112406  11.919  15.820   8.446  0.0513 -1.0543  0.2732
   13ETHOX  H1312407  11.959  15.828   8.625 -0.1193 -1.0820 -1.1732
   13ETHOX   C212408  11.822  15.977   8.557  1.0552 -0.5836  0.1581
   13ETHOX  H2112409  11.846  16.048   8.638 -2.7233  0.4100  0.5964
   13ETHOX  H2312410  11.737  15.911   8.585 -0.1567  0.8890  0.0983
   14ETHOX   O112411  11.769  16.055   8.444  0.1640  0.4098  0.3988
   14ETHOX   C112412  11.694  16.169   8.485  0.4627 -0.4304  0.1920
   14ETHOX  H1112413  11.747  16.259   8.523 -0.9860  1.2529 -1.5757
   14ETHOX  H1312414  11.627  16.141   8.569 -0.1560  1.6782  0.4795
   14ETHOX   C212415  11.601  16.224   8.382  0.5399  0.2302  0.8061
   14ETHOX  H2112416  11.530  16.292   8.435  0.6904  0.4262  0.7534
   14ETHOX  H2312417  11.538  16.148   8.330  2.0250 -0.4756 -0.0188
   15ETHOX   O112418  11.665  16.315   8.287  0.6530  0.7007  0.1855
   15ETHOX   C112419  11.572  16.376   8.194 -0.5401 -0.3655 -0.0496
   15ETHOX  H1112420  11.493  16.423   8.256  0.3717  1.4007 -0.1603
   15ETHOX  H1312421  11.615  16.473   8.160 -3.6841  0.6190 -1.5476
   15ETHOX   C212422  11.529  16.292   8.075  0.4622  0.0859  0.0990
   15ETHOX  H2112423  11.498  16.354   7.988 -1.5797 -0.6959  0.2154
   15ETHOX  H2312424  11.613  16.223   8.049  0.0718 -1.2046  2.0113
   16ETHOX   O112425  11.415  16.213   8.101  0.2720 -0.0005 -0.4891
   16ETHOX   C112426  11.433  16.079   8.065 -0.7818  0.0732 -0.1545
   16ETHOX  H1112427  11.434  16.066   7.955  2.1049 -0.1355 -0.1747
   16ETHOX  H1312428  11.528  16.033   8.098  0.5556  1.3862 -2.0149
   16ETHOX   C212429  11.327  15.991   8.138  0.4681 -0.0058 -0.2473
   16ETHOX  H2112430  11.328  15.890   8.093 -0.3525 -0.0928 -0.0905
   16ETHOX  H2312431  11.221  16.022   8.121  1.1971  1.9506 -1.6069
   17ETHOX   O112432  11.359  15.988   8.275 -0.6745  1.5650  0.1815
   17ETHOX   C112433  11.331  15.876   8.344 -0.2882 -0.6281 -0.0040
   17ETHOX  H1112434  11.225  15.848   8.325 -0.3997 -0.0671 -0.2360
   17ETHOX  H1312435  11.399  15.794   8.313 -0.9028 -1.5865  1.0919
   17ETHOX   C212436  11.363  15.908   8.498  0.2651  0.1054 -0.3021
   17ETHOX  H2112437  11.460  15.961   8.504  1.7312 -2.3296 -1.0851
   17ETHOX  H2312438  11.376  15.808   8.546  2.2334 -0.3286 -1.6177
   18ETHOX   O112439  11.252  15.974   8.565 -0.1998 -0.5608 -0.3159
   18ETHOX   C112440  11.284  16.046   8.677 -0.6098 -0.1251  0.0880
   18ETHOX  H1112441  11.364  15.998   8.737  0.8537  0.6340 -1.2062
   18ETHOX  H1312442  11.327  16.143   8.646  0.5089 -0.7002 -0.2186
   18ETHOX   C212443  11.163  16.068   8.762  0.0816 -0.2153 -0.0457
   18ETHOX  H2112444  11.081  16.090   8.691 -1.5363  0.0851  1.8153
   18ETHOX  H2312445  11.184  16.152   8.832 -1.3535 -1.0543  1.4487
   19ETHOX   O112446  11.116  15.950   8.827  0.5385  0.4868  0.6015
   19ETHOX   C112447  10.995  15.963   8.902  0.0207 -0.9042  0.6175
   19ETHOX  H1112448  10.912  15.995   8.835  0.6278 -1.4360 -0.4226
   19ETHOX  H1312449  11.017  16.042   8.977  1.2717  0.8037 -1.4004
   19ETHOX   C212450  10.953  15.838   8.970 -0.0034 -0.0796  0.6525
   19ETHOX  H2112451  10.956  15.770   8.882 -0.8757  1.3379 -0.5399
   19ETHOX  H2312452  10.851  15.865   9.005 -0.3888  0.9390 -1.0806
   20ETHOX   O112453  11.039  15.807   9.074  0.5623  0.4750  0.5395
   20ETHOX   C112454  11.044  15.672   9.095  0.0194  0.6691 -0.1733
   20ETHOX  H1112455  10.947  15.632   9.130 -0.0175  1.7210  0.9940
   20ETHOX  H1312456  11.064  15.621   8.998  2.4980  3.3595 -1.2162
   20ETHOX   C212457  11.149  15.642   9.203 -0.3655  0.4104  0.1259
   20ETHOX  H2112458  11.143  15.535   9.232 -3.3458  0.7279  0.9603
   20ETHOX  H2312459  11.141  15.709   9.291  1.1093  1.3311 -0.3882
   21ETHOX   O112460  11.276  15.661   9.132  0.0629 -0.3108  0.0407
   21ETHOX   C112461  11.381  15.688   9.223 -0.4604 -0.3451 -0.1021
   21ETHOX  H1112462  11.398  15.615   9.305 -2.5906  1.2891  1.9604
   21ETHOX  H1312463  11.350  15.782   9.275 -1.0090 -0.2925 -0.5077
   21ETHOX   C212464  11.515  15.710   9.158 -0.7755 -0.2626  0.2595
   21ETHOX  H2112465  11.585  15.766   9.224 -0.2445  0.7296 -1.0994
   21ETHOX  H2312466  11.508  15.776   9.069  1.0326 -1.7222 -1.0509
   22ETHOX   O112467  11.566  15.588   9.110  0.4146 -0.5892 -0.2098
   22ETHOX   C112468  11.707  15.601   9.090 -0.0165 -0.0790 -0.4469
   22ETHOX  H1112469  11.713  15.658   8.995  0.5634  0.8393  0.1231
   22ETHOX  H1312470  11.759  15.658   9.170 -0.1996  1.2724 -1.2610
   22ETHOX   C212471  11.765  15.455   9.077  0.3574 -0.0796 -0.2461
   22ETHOX  H2112472  11.710  15.386   9.010 -2.0627  0.7317  0.7743
   22ETHOX  H2312473  11.866  15.463   9.031 -0.4569 -0.0832 -2.1123
   23ETHOX   O112474  11.796  15.403   9.204  0.0133 -0.5109  0.0765
   23ETHOX   C112475  11.912  15.327   9.212  0.7981 -0.0520  0.3269
   23ETHOX  H1112476  11.994  15.387   9.167  0.0105 -1.0478 -2.6677
   23ETHOX  H1312477  11.900  15.234   9.152 -0.1261 -1.7656  3.0135
   23ETHOX   C212478  11.946  15.289   9.359  0.0678  1.0745  0.9291
   23ETHOX  H2112479  11.916  15.360   9.439  1.5906  2.1854  0.5462
   23ETHOX  H2312480  12.055  15.272   9.371 -0.2598 -1.4098  0.9062
   24ETHOX   O112481  11.882  15.160   9.374  0.3746  0.0548  0.5471
   24ETHOX   C112482  11.924  15.092   9.491  0.1826  0.1683  0.3484
   24ETHOX  H1112483  12.019  15.035   9.479 -0.6568 -1.4356  0.9814
   24ETHOX  H1312484  11.949  15.166   9.570 -0.3255 -0.0548  0.7213
   24ETHOX   C212485  11.802  15.004   9.533 -0.3319  0.2740  0.1610
   24ETHOX  H2112486  11.823  14.921   9.604 -0.9991  0.4694  0.5904
   24ETHOX  H2312487  11.758  14.957   9.442 -0.1224  0.2787  0.0558
   25ETHOX   O112488  11.714  15.097   9.611  0.4875  0.1722  0.6201
   25ETHOX   C112489  11.608  15.017   9.664  0.1237 -0.3032  0.3097
   25ETHOX  H1112490  11.655  14.929   9.713  2.9680 -0.2695 -2.0581
   25ETHOX  H1312491  11.548  14.979   9.578 -0.4155  1.8958 -0.3592
   25ETHOX   C212492  11.510  15.090   9.760 -0.4128 -0.2753  0.0062
   25ETHOX  H2112493  11.411  15.040   9.761 -0.6975  0.1828 -1.8094
   25ETHOX  H2312494  11.497  15.188   9.710 -0.3972 -0.2002  0.1483
   26ETHOX   O112495  11.561  15.110   9.894  0.2116  0.2581  0.6378
   26ETHOX   C112496  11.467  15.200   9.963  0.0440  0.3557  0.0405
   26ETHOX  H1112497  11.535  15.241  10.041  0.3148 -0.6346  0.3469
   26ETHOX  H1312498  11.424  15.279   9.899  0.6273 -0.0989 -0.9447
   26ETHOX   C212499  11.355  15.121  10.029 -0.6426  0.1809  0.7797
   26ETHOX  H2112500  11.320  15.188  10.110  1.0499 -0.0766  1.7724
   26ETHOX  H2312501  11.385  15.027  10.079 -1.7402 -1.0511 -0.7563
   27ETHOX   O112502  11.244  15.107   9.941  0.2327 -0.2030 -0.1478
   27ETHOX   C112503  11.133  15.051  10.009 -0.2551  0.7937 -0.4052
   27ETHOX  H1112504  11.099  15.120  10.089  3.7246  1.4112  0.9981
   27ETHOX  H1312505  11.157  14.959  10.066 -1.9071 -0.1919 -1.2278
   27ETHOX   C212506  11.017  15.036   9.923  1.0230 -0.4004  0.3704
   27ETHOX  H2112507  10.928  15.001   9.980  0.5885 -1.0280 -0.6647
   27ETHOX  H2312508  11.030  14.967   9.837 -2.9103  0.1401 -0.9033
   28ETHOX   O112509  10.984  15.168   9.875  0.1313 -0.0460 -0.2418
   28ETHOX   C112510  10.884  15.166   9.778  0.2956 -0.4849  0.3685
   28ETHOX  H1112511  10.904  15.092   9.697  0.2708  0.5162 -0.5817
   28ETHOX  H1312512  10.789  15.135   9.828  0.2632  0.9291  1.2378
   28ETHOX   C212513  10.852  15.312   9.730  0.0574 -0.7202  0.6931
   28ETHOX  H2112514  10.794  15.360   9.813 -1.6359  1.1329 -1.4153
   28ETHOX  H2312515  10.788  15.319   9.639 -0.6928  3.9979  1.2840
   29ETHOX   O112516  10.968  15.394   9.708 -0.2567  0.0760 -0.5126
   29ETHOX   C112517  10.924  15.516   9.665  0.2787  0.1388 -0.4465
   29ETHOX  H1112518  10.837  15.549   9.725 -0.4541 -0.4914 -1.1345
   29ETHOX  H1312519  10.881  15.512   9.562  1.3537  0.4303 -0.9243
   29ETHOX   C212520  11.031  15.626   9.671  0.3864 -0.4483 -0.3025
   29ETHOX  H2112521  11.077  15.623   9.772  0.1518  2.5782 -0.0060
   29ETHOX  H2312522  10.997  15.731   9.655 -1.5733 -1.0070  0.0242
   30ETHOX   O112523  11.141  15.609   9.580  0.1090  0.0206  0.1869
   30ETHOX   C112524  11.236  15.720   9.584  0.4057 -0.1746 -0.0574
   30ETHOX  H1112525  11.316  15.718   9.506  0.0172 -0.2417 -0.4584
   30ETHOX  H1312526  11.180  15.816   9.577 -0.4650 -0.6461  0.2524
   30ETHOX   C212527  11.320  15.712   9.716  0.0374 -0.3770 -0.6444
   30ETHOX  H2112528  11.410  15.777   9.708  1.5208 -2.2724 -0.2975
   30ETHOX  H2312529  11.355  15.607   9.729 -1.1964 -0.8845 -1.2391
   31ETHOX   O112530  11.257  15.743   9.837  0.3260 -0.3001  0.2785
   31ETHOX   C112531  11.337  15.705   9.954  0.1323 -0.4073 -0.1451
   31ETHOX  H1112532  11.440  15.674   9.927  0.2437 -1.7753  1.6878
   31ETHOX  H1312533  11.344  15.800  10.012  3.4381  1.4321 -3.1330
   31ETHOX   C212534  11.277  15.581  10.029  0.4771 -0.0014 -0.5798
   31ETHOX  H2112535  11.336  15.560  10.121 -1.3848 -2.4800  0.1388
   31ETHOX  H2312536  11.290  15.493   9.962 -2.2702 -0.6775 -0.3227
   32ETHOX   O112537  11.142  15.615  10.075  0.9838  0.2614 -0.3072
   32ETHOX   C112538  11.061  15.497  10.076 -0.6654  0.1127  0.4106
   32ETHOX  H1112539  11.053  15.445   9.979  0.4797  2.3486 -0.9756
   32ETHOX  H1312540  11.117  15.428  10.142  3.3630  0.9597 -1.8023
   32ETHOX   C212541  10.914  15.531  10.131 -0.6224  0.3063 -0.1649
   32ETHOX  H2112542  10.922  15.618  10.200  3.1476  0.6863 -0.8659
   32ETHOX  H2312543  10.882  15.435  10.175  0.8302 -0.8873 -1.6028
   33ETHOX   O112544  10.803  15.563  10.042 -0.0248  0.2953 -0.4491
   33ETHOX   C112545  10.827  15.694   9.990 -0.8064 -0.4719 -0.1120
   33ETHOX  H1112546  10.837  15.758  10.080 -0.2367 -0.2670 -0.3187
   33ETHOX  H1312547  10.912  15.696   9.919 -0.6970 -2.6470 -0.1133
   33ETHOX   C212548  10.693  15.740   9.920 -0.2398 -0.0574  0.0503
   33ETHOX  H2112549  10.676  15.680   9.829 -2.3129 -2.0194  1.6139
   33ETHOX  H2312550  10.683  15.849   9.899 -2.0413 -0.4267 -1.2863
   34ETHOX   O112551  10.594  15.723  10.013  0.2837  0.3920  0.1219
   34ETHOX   C112552  10.473  15.698   9.943 -0.7095 -0.0758 -0.0224
   34ETHOX  H1112553  10.464  15.592   9.913 -1.7774  0.3241 -1.2434
   34ETHOX  H1312554  10.468  15.761   9.851 -0.3018 -1.6843 -1.1852
   34ETHOX   C212555  10.358  15.729  10.043  0.4443 -0.8425  0.7842
   34ETHOX  H2112556  10.365  15.658  10.128  1.0671  2.0092  3.2823
   34ETHOX  H2312557  10.263  15.707   9.991  0.2621  1.3467  0.0748
   35ETHOX   O112558  10.346  15.862  10.084  0.2751 -0.1828  0.2183
   35ETHOX   C112559  10.210  15.895  10.121 -0.3859 -0.3940  0.5291
   35ETHOX  H1112560  10.142  15.868  10.037 -0.5750  0.9318  0.2356
   35ETHOX  H1312561  10.177  15.827  10.203 -2.8144 -1.2859 -1.0791
   35ETHOX   C212562  10.180  16.043  10.150 -0.0752 -0.4712 -0.4853
   35ETHOX  H2112563  10.249  16.081  10.228 -1.0053 -0.1033  0.1762
   35ETHOX  H2312564  10.076  16.042  10.191  0.6393 -0.4520  1.4169
   36ETHOX   O112565  10.198  16.128  10.038  0.1352 -0.1693 -0.6447
   36ETHOX   C112566  10.190  16.264  10.074  0.7968 -0.3026  0.0080
   36ETHOX  H1112567  10.271  16.288  10.147  0.0265  1.0016  0.4698
   36ETHOX  H1312568  10.094  16.273  10.130 -0.4209 -2.7177 -1.5537
   36ETHOX   C212569  10.207  16.356   9.958  0.6691 -0.2707 -0.4411
   36ETHOX  H2112570  10.312  16.343   9.924  1.2299 -2.8941  1.9118
   36ETHOX  H2312571  10.186  16.461   9.987 -0.3175 -0.6250  0.1641
   37ETHOX   O112572  10.118  16.337   9.850 -0.2024 -0.1721 -0.1912
   37ETHOX   C112573  10.144  16.428   9.741  0.1354 -0.3634  0.3225
   37ETHOX  H1112574  10.243  16.478   9.754  1.7528 -2.4926 -2.5917
   37ETHOX  H1312575  10.151  16.369   9.648 -0.9539 -0.2960  0.1904
   37ETHOX   C212576  10.025  16.526   9.711  0.0218  0.3692  0.1523
   37ETHOX  H2112577  10.062  16.581   9.622  0.9332 -1.4180 -0.6416
   37ETHOX  H2312578  10.008  16.587   9.802 -2.5432  1.3844 -0.9122
   38ETHOX   O112579   9.906  16.462   9.668  0.5359  0.1280  0.5720
   38ETHOX   C112580   9.808  16.562   9.634 -0.1578  0.3153 -0.3910
   38ETHOX  H1112581   9.846  16.631   9.555  0.5667 -1.8349 -1.9993
   38ETHOX  H1312582   9.784  16.612   9.731  3.3688 -0.9695  1.3146
   38ETHOX   C212583   9.674  16.510   9.581  0.2415  0.0993 -0.7263
   38ETHOX  H2112584   9.702  16.464   9.484  2.8134  0.2323 -0.1021
   38ETHOX  H2312585   9.607  16.597   9.563  0.7679  1.2146  2.2492
   39ETHOX   O112586   9.631  16.406   9.671  0.1996  0.0655  0.1151
   39ETHOX   C112587   9.495  16.367   9.642  0.2660 -0.2986 -0.3052
   39ETHOX  H1112588   9.442  16.465   9.637  0.7072 -0.0463 -0.0592
   39ETHOX  H1312589   9.476  16.320   9.543 -0.7756  1.5672 -1.0385
   39ETHOX   C212590   9.457  16.283   9.764  0.2829  0.0525  0.5195
   39ETHOX  H2112591   9.349  16.291   9.788  0.0375 -0.0925 -0.4820
   39ETHOX  H2312592   9.509  16.335   9.848  1.2198  1.5178 -0.9066
   40ETHOX   O112593   9.491  16.140   9.759  0.1064 -0.6690 -0.3425
   40ETHOX   C112594   9.508  16.090   9.890 -0.0425  0.4221  0.0561
   40ETHOX  H1112595   9.424  16.119   9.957 -0.5606  1.6970 -1.0929
   40ETHOX  H1312596   9.602  16.139   9.925  0.5120  0.0880 -0.9310
   40ETHOX   C212597   9.538  15.929   9.886  0.0650 -0.4842  0.0649
   40ETHOX  H2112598   9.585  15.912   9.985  1.6491  2.6084 -0.0031
   40ETHOX  H2312599   9.624  15.916   9.816  1.1424  2.2013  0.7548
   41ETHOX   O112600   9.431  15.837   9.862  0.0648 -0.6232  0.3046
   41ETHOX   C112601   9.446  15.753   9.748  0.4974  0.1741 -0.5856
   41ETHOX  H1112602   9.463  15.810   9.654  2.0175 -0.9563 -1.0546
   41ETHOX  H1312603   9.539  15.692   9.755  0.5712  0.3975  0.5749
   41ETHOX   C212604   9.332  15.657   9.735 -0.4949 -0.0361  0.1053
   41ETHOX  H2112605   9.241  15.719   9.750  0.4844  1.1110  1.5021
   41ETHOX  H2312606   9.330  15.590   9.824  0.8279  0.6065  0.6555
   42ETHOX   O112607   9.338  15.581   9.613 -0.1665 -0.3764  0.4227
   42ETHOX   C112608   9.214  15.522   9.571 -0.1853 -0.5820 -0.1957
   42ETHOX  H1112609   9.171  15.452   9.645  0.8333 -0.6676  0.3273
   42ETHOX  H1312610   9.131  15.596   9.567 -0.7674 -1.0004  2.3892
   42ETHOX   C212611   9.222  15.442   9.437 -0.2431 -0.1467 -0.0847
   42ETHOX  H2112612   9.115  15.425   9.415 -0.7253 -0.0551  1.9624
   42ETHOX  H2312613   9.267  15.343   9.464 -2.9621 -0.6154  3.5516
   43ETHOX   O112614   9.283  15.512   9.328  0.0164 -0.1284  0.1686
   43ETHOX   C112615   9.299  15.434   9.208  0.1618 -0.0976 -0.2386
   43ETHOX  H1112616   9.369  15.353   9.236  1.2001  1.0920  0.7635
   43ETHOX  H1312617   9.198  15.395   9.185 -0.4693  0.7464  0.9717
   43ETHOX   C212618   9.357  15.521   9.100 -0.2485 -0.1796 -0.3746
   43ETHOX  H2112619   9.300  15.614   9.082 -0.2011 -0.4563 -2.1701
   43ETHOX  H2312620   9.375  15.462   9.007  2.0028 -1.7337  0.9476
   44ETHOX   O112621   9.482  15.568   9.150 -0.2031  0.0644 -0.0382
   44ETHOX   C112622   9.549  15.624   9.036 -0.7263  0.2759  0.1050
   44ETHOX  H1112623   9.555  15.535   8.970  0.0053  0.3911  0.0023
   44ETHOX  H1312624   9.483  15.707   9.002  0.3132  1.7581  1.5130
   44ETHOX   C212625   9.686  15.683   9.072  0.3592 -0.4575 -0.1474
   44ETHOX  H2112626   9.739  15.719   8.982  0.5676 -1.1713 -0.3192
   44ETHOX  H2312627   9.753  15.606   9.115  0.8995  0.6768  1.1146
   45ETHOX   O112628   9.681  15.786   9.170  0.3716 -0.3289  0.2653
   45ETHOX   C112629   9.812  15.822   9.205 -0.1016  0.6855  0.3262
   45ETHOX  H1112630   9.869  15.863   9.119  0.0581  1.3843  0.7535
   45ETHOX  H1312631   9.862  15.732   9.247 -0.3005  0.7230  0.6478
   45ETHOX   C212632   9.812  15.937   9.310  0.2363 -0.1232  0.2415
   45ETHOX  H2112633   9.763  16.024   9.261  3.9932  2.6381  0.9332
   45ETHOX  H2312634   9.917  15.968   9.326 -0.6602  2.0639  2.6421
   46ETHOX   O112635   9.735  15.910   9.427 -0.1527  0.4123  0.2252
   46ETHOX   C112636   9.693  16.016   9.503 -0.4702 -1.3637  0.1243
   46ETHOX  H1112637   9.622  16.090   9.458  0.1569 -1.2529 -0.7012
   46ETHOX  H1312638   9.655  15.983   9.602  0.6401 -1.6635  0.4644
   46ETHOX   C212639   9.812  16.121   9.530  0.8771 -0.5263 -0.2279
   46ETHOX  H2112640   9.899  16.072   9.578  1.4318  0.5081 -0.1483
   46ETHOX  H2312641   9.790  16.206   9.599  1.7449 -1.6044  1.4399
   47ETHOX   O112642   9.863  16.196   9.415  0.0460  0.1796  0.1745
   47ETHOX   C112643   9.991  16.252   9.445  0.4439 -0.6533  0.6099
   47ETHOX  H1112644   9.984  16.281   9.552 -1.2684 -0.3793  0.4499
   47ETHOX  H1312645  10.016  16.336   9.376  3.3629  1.4040  3.7975
   47ETHOX   C212646  10.108  16.157   9.407  0.1794 -0.0310  0.0290
   47ETHOX  H2112647  10.091  16.058   9.455  0.4871 -1.2033 -2.1315
   47ETHOX  H2312648  10.209  16.192   9.438  0.5713 -1.4980  0.5152
   48ETHOX   O112649  10.117  16.133   9.264 -0.0205  0.6821  0.1880
   48ETHOX   C112650  10.204  16.023   9.242 -0.7249  0.0544  0.3968
   48ETHOX  H1112651  10.301  16.043   9.292 -0.5462 -2.5573  1.2336
   48ETHOX  H1312652  10.163  15.930   9.286  0.4742  0.0671  1.6002
   48ETHOX   C212653  10.225  15.998   9.094  0.0688 -0.3018  0.5245
   48ETHOX  H2112654  10.309  15.926   9.088 -0.5962 -1.3324  2.5074
   48ETHOX  H2312655  10.136  15.958   9.041 -0.2475  1.2000 -0.1424
   49ETHOX   O112656  10.272  16.122   9.033 -0.1700  0.0676 -0.5083
   49ETHOX   C112657  10.276  16.110   8.888 -0.4151 -0.2543  0.2114
   49ETHOX  H1112658  10.179  16.073   8.849 -1.1041  0.3611  1.3022
   49ETHOX  H1312659  10.347  16.030   8.856 -0.8334 -1.1575  1.4721
   49ETHOX   C212660  10.303  16.239   8.813  0.2192 -0.0172 -0.8625
   49ETHOX  H2112661  10.334  16.243   8.706  0.1040 -0.5509 -0.9192
   49ETHOX  H2312662  10.381  16.292   8.871 -1.1914  0.6545  0.4781
   50ETHOX   O112663  10.177  16.305   8.827 -0.1011  0.4298 -0.0806
   50ETHOX   C112664  10.170  16.411   8.741  0.5856 -0.7432  0.5619
   50ETHOX  H1112665  10.267  16.464   8.748 -0.5888  1.3272  4.5918
   50ETHOX  H1312666  10.169  16.368   8.639 -1.2248  2.3273 -0.8576
   50ETHOX   C212667  10.067  16.519   8.765 -0.0681  0.1214  0.1813
   50ETHOX  H2112668  10.080  16.619   8.718  0.0732  0.6347  1.2895
   50ETHOX  H2312669  10.072  16.528   8.875  0.4132  1.6072  0.0550
   51ETHOX   O112670   9.944  16.468   8.728  0.0680  0.2318  0.5270
   51ETHOX   C112671   9.842  16.568   8.728 -0.0179 -0.6519 -0.1690
   51ETHOX  H1112672   9.851  16.625   8.633 -0.2174  0.3466  0.3890
   51ETHOX  H1312673   9.863  16.626   8.821  0.9273 -4.1547  1.9917
   51ETHOX   C212674   9.696  16.510   8.736 -0.2641 -0.2710 -0.7711
   51ETHOX  H2112675   9.660  16.459   8.643 -0.5913 -0.0302 -0.7781
   51ETHOX  H2312676   9.633  16.601   8.745 -1.2904 -1.1764  2.0478
   52ETHOX   O112677   9.681  16.431   8.856  0.0067  0.5383  0.4718
   52ETHOX   C112678   9.561  16.355   8.850  0.7366 -0.3262 -0.1501
   52ETHOX  H1112679   9.553  16.306   8.750  1.1969 -0.2338 -0.2299
   52ETHOX  H1312680   9.557  16.272   8.924 -0.8142 -1.8743 -1.8389
   52ETHOX   C212681   9.441  16.457   8.866  0.0647  0.8545 -0.3947
   52ETHOX  H2112682   9.477  16.519   8.951  1.9045 -2.2591  1.2762
   52ETHOX  H2312683   9.360  16.387   8.893  0.3938  0.5948 -0.0603
   53ETHOX   O112684   9.410  16.542   8.757  0.4459  0.3761 -0.1209
   53ETHOX   C112685   9.319  16.640   8.796  0.5078 -0.7074  0.5251
   53ETHOX  H1112686   9.225  16.586   8.820 -0.2070 -0.0925 -0.7518
   53ETHOX  H1312687   9.366  16.700   8.876 -0.6683  3.2295 -1.4665
   53ETHOX   C212688   9.296  16.735   8.684  0.3349 -0.3855 -0.4846
   53ETHOX  H2112689   9.264  16.678   8.594 -1.5798 -0.2382  0.0642
   53ETHOX  H2312690   9.397  16.771   8.652  0.1477 -1.2310 -2.1845
   54ETHOX   O112691   9.212  16.856   8.705  0.5940  0.4538  0.8973
   54ETHOX   C112692   9.202  16.925   8.581 -0.2201 -0.3829  0.0254
   54ETHOX  H1112693   9.207  17.034   8.605 -1.6779 -0.4920  0.9179
   54ETHOX  H1312694   9.287  16.895   8.516  1.1178 -0.9553  1.9545
   54ETHOX   C212695   9.069  16.898   8.516 -0.2266 -0.3613  0.6011
   54ETHOX  H2112696   9.066  16.787   8.513 -2.0595 -0.3508  0.7490
   54ETHOX  H2312697   9.051  16.936   8.413  1.9787  1.8895  0.9491
   55ETHOX   O112698   8.961  16.933   8.602  0.5602 -0.1861 -0.5423
   55ETHOX   C112699   8.838  16.861   8.584 -0.1829 -0.1273 -0.0366
   55ETHOX  H1112700   8.787  16.904   8.495  0.8369 -0.1457 -0.6581
   55ETHOX  H1312701   8.862  16.757   8.552  0.4540 -0.1078  0.3633
   55ETHOX   C212702   8.755  16.862   8.712 -0.6001 -0.0041 -0.4310
   55ETHOX  H2112703   8.661  16.810   8.686  0.4877 -0.7449 -3.1955
   55ETHOX  H2312704   8.825  16.814   8.784  1.5253  0.5573 -2.0368
   56ETHOX   O112705   8.716  16.993   8.745 -0.4281 -0.0425  0.0483
   56ETHOX   C112706   8.641  16.995   8.865 -0.2364  0.4400  0.1864
   56ETHOX  H1112707   8.701  16.966   8.954  0.9784 -2.2033 -1.3744
   56ETHOX  H1312708   8.552  16.928   8.866 -0.3284  0.4727 -1.8252
   56ETHOX   C212709   8.584  17.138   8.881 -0.5284 -0.7793 -0.5476
   56ETHOX  H2112710   8.503  17.129   8.956 -1.2950  3.1048 -0.7010
   56ETHOX  H2312711   8.548  17.176   8.783 -0.4215 -2.1833 -1.1583
   57ETHOX   O112712   8.681  17.234   8.936 -0.8390  0.0484 -0.2602
   57ETHOX   C112713   8.614  17.355   8.950  0.2700 -0.1961 -0.9452
   57ETHOX  H1112714   8.586  17.396   8.851 -0.7513  2.5972  0.3831
   57ETHOX  H1312715   8.523  17.341   9.012  0.5712  2.6438  0.2804
   57ETHOX   C212716   8.704  17.451   9.023 -0.2689 -0.7850 -0.8779
   57ETHOX  H2112717   8.794  17.480   8.966  0.2640 -1.2190 -0.2703
   57ETHOX  H2312718   8.750  17.400   9.111 -0.1941  1.1569  0.2516
   58ETHOX   O112719   8.638  17.564   9.081  0.5608 -0.2653  0.1549
   58ETHOX   C112720   8.610  17.664   8.985 -0.0058  0.8188 -0.9293
   58ETHOX  H1112721   8.513  17.640   8.936 -0.3941  1.3517 -0.4397
   58ETHOX  H1312722   8.685  17.654   8.904 -0.1389 -1.8878 -0.8150
   58ETHOX   C212723   8.614  17.813   9.036  0.2345  0.2893  0.0796
   58ETHOX  H2112724   8.603  17.881   8.948 -0.1642  1.1864  0.7968
   58ETHOX  H2312725   8.705  17.827   9.098  0.9009 -0.4983 -0.7080
   59ETHOX   O112726   8.497  17.825   9.111 -0.0333 -0.0774 -0.2198
   59ETHOX   C112727   8.483  17.964   9.149 -0.2062  0.4068 -0.0585
   59ETHOX  H1112728   8.534  17.986   9.245 -1.7101  2.4861  0.3311
   59ETHOX  H1312729   8.536  18.026   9.074  1.8529  0.1050  1.0875
   59ETHOX   C212730   8.334  18.004   9.132 -0.4712 -0.1077  0.1936
   59ETHOX  H2112731   8.300  17.947   9.043  0.5085  0.4414 -0.5441
   59ETHOX  H2312732   8.329  18.113   9.114  1.9603 -0.1226 -0.8729
   60ETHOX   O112733   8.264  17.988   9.256 -0.1260  1.2486  0.3349
   60ETHOX   C112734   8.137  18.043   9.246 -0.4931  0.4402  0.5912
   60ETHOX  H1112735   8.074  18.002   9.164 -0.8020 -2.2398  2.0605
   60ETHOX  H1312736   8.150  18.153   9.243 -1.5921  0.5586 -1.2872
   60ETHOX   C212737   8.047  18.000   9.363 -0.0746 -0.3713 -0.6340
   60ETHOX  H2112738   8.054  17.891   9.385 -0.9050 -1.2965 -4.3499
   60ETHOX  H2312739   7.938  18.008   9.339 -1.3300  0.1998  4.1519
   61ETHOX   O112740   8.076  18.081   9.475 -0.2448 -0.0866 -0.3397
   61ETHOX   C112741   7.996  18.036   9.581 -0.2702  1.1888  0.1482
   61ETHOX  H1112742   7.889  18.037   9.551  0.5210 -1.4825 -3.4383
   61ETHOX  H1312743   8.030  17.932   9.599  0.7312  1.5460  0.3761
   61ETHOX   C212744   8.014  18.116   9.706 -0.2310  0.1539  0.0744
   61ETHOX  H2112745   7.930  18.093   9.776 -1.4645 -0.2678 -1.4963
   61ETHOX  H2312746   8.022  18.226   9.695  0.5045 -0.1087 -2.7580
   62ETHOX   O112747   8.132  18.076   9.772 -0.5039 -1.1088  0.3159
   62ETHOX   C112748   8.132  18.106   9.911 -0.1312  0.4153  0.4667
   62ETHOX  H1112749   8.054  18.043   9.958 -0.6127  0.5749 -0.1024
   62ETHOX  H1312750   8.121  18.217   9.920 -0.1650  0.3618  1.1392
   62ETHOX   C212751   8.275  18.073   9.959  0.1313  0.3997  0.1200
   62ETHOX  H2112752   8.295  17.973   9.915 -1.0117 -0.6704  1.9217
   62ETHOX  H2312753   8.270  18.063  10.070  1.2971 -1.5147  0.0330
   63ETHOX   O112754   8.383  18.164   9.916 -0.8628 -0.1298 -0.2322
   63ETHOX   C112755   8.512  18.103   9.938  0.7184  0.3837 -0.1642
   63ETHOX  H1112756   8.515  18.079  10.046  1.0702 -1.1480 -0.5003
   63ETHOX  H1312757   8.526  18.004   9.890 -0.8226 -0.6367  1.3689
   63ETHOX   C212758   8.625  18.186   9.878 -0.5510  0.3668  0.2637
   63ETHOX  H2112759   8.617  18.212   9.770  1.0198 -0.3776 -0.0715
   63ETHOX  H2312760   8.718  18.125   9.880  0.1370  1.3647 -0.4534
   64ETHOX   O112761   8.650  18.304   9.950 -0.0950  0.0961 -0.0630
   64ETHOX   C112762   8.754  18.376   9.887 -0.0811 -0.1791 -0.7653
   64ETHOX  H1112763   8.716  18.412   9.789  0.7555  0.7681 -0.7579
   64ETHOX  H1312764   8.839  18.306   9.874  0.4703 -0.4107  2.9614
   64ETHOX   C212765   8.770  18.508   9.960 -0.3927 -0.0967 -0.3695
   64ETHOX  H2112766   8.774  18.473  10.066  0.2913  0.3869 -0.2327
   64ETHOX  H2312767   8.683  18.576   9.951  0.5972  1.4188  0.9690
   65ETHOX   O112768   8.890  18.567   9.914 -0.1992 -0.4798  0.0657
   65ETHOX   C112769   8.862  18.630   9.794 -0.6129 -0.0168  1.5387
   65ETHOX  H1112770   8.847  18.560   9.709 -1.0472 -1.2021  2.5733
   65ETHOX  H1312771   8.774  18.697   9.804  1.4166  2.9052  1.1238
   65ETHOX   C212772   8.988  18.726   9.763 -0.6655 -0.1524 -0.5459
   65ETHOX  H2112773   8.995  18.793   9.852  0.5391 -0.1257 -0.6498
   65ETHOX  H2312774   8.956  18.793   9.680  0.5438  3.0625  1.3732
   66ETHOX   O112775   9.114  18.660   9.744  0.6619 -0.0432  0.3443
   66ETHOX   C112776   9.224  18.748   9.733  0.5400 -0.3542  0.7088
   66ETHOX  H1112777   9.188  18.847   9.697 -2.3524 -1.5269  0.1340
   66ETHOX  H1312778   9.291  18.719   9.649 -1.8298 -0.7682 -1.1725
   66ETHOX   C212779   9.307  18.752   9.865 -0.3558 -0.0241  0.5893
   66ETHOX  H2112780   9.251  18.791   9.953 -2.0642  1.9740 -1.2457
   66ETHOX  H2312781   9.389  18.825   9.846 -0.4003  0.8334  3.2942
   67ETHOX   O112782   9.368  18.622   9.887  0.0091 -0.6487 -0.2719
   67ETHOX   C112783   9.440  18.628  10.003  0.4998 -0.9069  0.0420
   67ETHOX  H1112784   9.515  18.711   9.999 -0.4147 -0.0990 -2.9541
   67ETHOX  H1312785   9.374  18.663  10.085  1.9528  3.8898 -0.4777
   67ETHOX   C212786   9.491  18.488  10.034 -0.3302  0.1815  0.3560
   67ETHOX  H2112787   9.579  18.513  10.096  1.1435 -0.9230 -1.2135
   67ETHOX  H2312788   9.516  18.443   9.936 -3.3610 -0.3361 -0.3042
   68ETHOX   O112789   9.408  18.406  10.104  0.2020 -0.3027  0.1403
   68ETHOX   C112790   9.474  18.279  10.119  0.8134 -0.2159 -0.1167
   68ETHOX  H1112791   9.427  18.222  10.036  2.7145  0.5901 -1.8269
   68ETHOX  H1312792   9.579  18.272  10.085  0.1341 -1.6225 -2.0623
   68ETHOX   C212793   9.455  18.205  10.245 -0.3997  0.0313 -0.3823
   68ETHOX  H2112794   9.473  18.096  10.228 -2.3496 -0.7631  2.0895
   68ETHOX  H2312795   9.348  18.222  10.270  0.1585  1.8933  0.9127
   69ETHOX   O112796   9.526  18.264  10.349  0.1048 -0.4144  0.0491
   69ETHOX   C112797   9.479  18.229  10.474 -0.4232 -0.6008  0.3329
   69ETHOX  H1112798   9.379  18.276  10.480 -1.0343 -1.5201 -1.7619
   69ETHOX  H1312799   9.480  18.118  10.477  2.9902 -0.6784  0.3821
   69ETHOX   C212800   9.558  18.279  10.596 -0.2598  0.2401  0.4105
   69ETHOX  H2112801   9.488  18.303  10.679 -0.9232 -1.5279  0.3916
   69ETHOX  H2312802   9.597  18.381  10.574 -1.5406  0.5759 -0.4456
   70ETHOX   O112803   9.670  18.198  10.641 -0.4697  0.1828  1.0257
   70ETHOX   C112804   9.726  18.237  10.762  0.9630  0.4872  0.0205
   70ETHOX  H1112805   9.803  18.317  10.754  1.6273  0.0342  1.4954
   70ETHOX  H1312806   9.643  18.268  10.830 -1.4432  1.0777 -2.9718
   70ETHOX   C212807   9.799  18.116  10.820 -0.2674 -0.7093  0.5161
   70ETHOX  H2112808   9.858  18.126  10.913  1.0127 -2.9807  0.0291
   70ETHOX  H2312809   9.878  18.084  10.748  0.1024 -1.8542  1.3928
   71ETHOX   O112810   9.711  18.007  10.853 -0.3834 -0.5000  0.0491
   71ETHOX   C112811   9.773  17.901  10.930  0.9449  0.4994  0.2422
   71ETHOX  H1112812   9.689  17.833  10.957  0.7770  1.1294  1.3685
   71ETHOX  H1312813   9.828  17.937  11.020  2.5192  0.6643 -0.7589
   71ETHOX   C212814   9.875  17.816  10.857  0.0462 -0.2297  0.1702
   71ETHOX  H2112815   9.915  17.738  10.926  0.9353 -0.2388 -0.3434
   71ETHOX  H2312816   9.962  17.879  10.829  0.5438 -1.8936 -2.3243
   72ETHOX   O112817   9.825  17.746  10.741  0.2427  0.1242  0.0801
   72ETHOX   C112818   9.797  17.613  10.774 -0.3552 -0.2553  0.1477
   72ETHOX  H1112819   9.891  17.558  10.795  0.8099  1.6036 -0.0267
   72ETHOX  H1312820   9.722  17.615  10.856 -1.1454  0.7770 -0.5760
   72ETHOX   C212821   9.719  17.546  10.658  0.0931 -0.3862  0.2106
   72ETHOX  H2112822   9.647  17.623  10.620 -1.0605 -1.8226 -0.6232
   72ETHOX  H2312823   9.659  17.460  10.694 -1.2593 -0.3988 -1.8891
   73ETHOX   O112824   9.810  17.508  10.552  0.0715  0.2859 -0.2044
   73ETHOX   C112825   9.758  17.409  10.467  0.1598  0.6641 -0.1376
   73ETHOX  H1112826   9.720  17.320  10.521 -1.0560  0.4049 -1.3595
   73ETHOX  H1312827   9.835  17.359  10.404 -0.0265  0.0315  0.1268
   73ETHOX   C212828   9.637  17.460  10.384 -0.2351  0.2496  0.1747
   73ETHOX  H2112829   9.677  17.541  10.319 -1.0045  1.4698  1.1818
   73ETHOX  H2312830   9.555  17.495  10.450  0.1010  0.7572  0.3275
   74ETHOX   O112831   9.593  17.357  10.294  0.4964 -0.4231 -0.2353
   74ETHOX   C112832   9.499  17.405  10.196 -0.5083  0.1005 -0.4244
   74ETHOX  H1112833   9.439  17.313  10.178 -1.7337  0.7659  0.1545
   74ETHOX  H1312834   9.431  17.483  10.235 -2.2558 -1.1835 -0.8110
   74ETHOX   C212835   9.569  17.451  10.067 -0.0596  0.1070  0.6753
   74ETHOX  H2112836   9.652  17.524  10.076 -0.4593  0.8935 -1.4398
   74ETHOX  H2312837   9.480  17.489  10.012  2.3011 -1.3023 -4.7484
   75ETHOX   O112838   9.605  17.338   9.999 -0.4725  0.4000 -0.1791
   75ETHOX   C112839   9.654  17.357   9.865 -0.2516  0.7483 -0.0692
   75ETHOX  H1112840   9.737  17.430   9.876  1.0814 -0.6287 -0.6626
   75ETHOX  H1312841   9.578  17.414   9.806 -0.8744  0.9265  0.8732
   75ETHOX   C212842   9.714  17.243   9.784  0.0338  0.1941  0.2156
   75ETHOX  H2112843   9.785  17.180   9.842  1.1846  1.4536  0.2205
   75ETHOX  H2312844   9.770  17.282   9.696 -3.4757  0.5168 -2.0817
   76ETHOX   O112845   9.607  17.158   9.729  0.0656 -0.3609 -0.0900
   76ETHOX   C112846   9.656  17.064   9.630  0.2261  0.4829 -0.3748
   76ETHOX  H1112847   9.571  17.031   9.567 -0.6816  1.8483  0.0879
   76ETHOX  H1312848   9.727  17.115   9.561  0.5821  1.1351  0.4564
   76ETHOX   C212849   9.730  16.940   9.690 -0.7560  0.0953 -0.4145
   76ETHOX  H2112850   9.739  16.858   9.616 -1.5786 -0.5115  0.1406
   76ETHOX  H2312851   9.673  16.905   9.779 -0.1385  2.5829  1.0833
   77ETHOX   O112852   9.862  16.981   9.733 -0.1978  0.0540 -0.2501
   77ETHOX   C112853   9.933  16.885   9.802  0.1166  0.0761  0.1501
   77ETHOX  H1112854   9.940  16.795   9.737  2.0946 -0.6746  1.3062
   77ETHOX  H1312855   9.888  16.857   9.900  0.5781  1.2732  0.7201
   77ETHOX   C212856  10.072  16.930   9.824 -0.3561 -0.7460 -0.4649
   77ETHOX  H2112857  10.126  16.846   9.874  0.4895  0.2853  0.4089
   77ETHOX  H2312858  10.089  17.015   9.894  0.5548 -1.6888  0.5135
   78ETHOX   O112859  10.143  16.966   9.700 -0.2381  0.9479 -0.2134
   78ETHOX   C112860  10.282  16.992   9.730  0.0540  0.2417 -0.6421
   78ETHOX  H1112861  10.322  17.038   9.637 -2.2072 -0.7671 -2.2176
   78ETHOX  H1312862  10.305  17.069   9.807  1.4911  0.2385 -1.0317
   78ETHOX   C212863  10.371  16.868   9.735 -0.3452 -0.7026 -0.1894
   78ETHOX  H2112864  10.477  16.887   9.707 -0.0317 -0.9462  0.7752
   78ETHOX  H2312865  10.341  16.807   9.648  2.6658 -1.8530 -0.5208
   79ETHOX   O112866  10.349  16.785   9.854 -0.1482  0.1452  0.5622
   79ETHOX   C112867  10.459  16.777   9.940  0.4852 -0.1136 -0.6992
   79ETHOX  H1112868  10.519  16.871   9.937  1.5415 -0.7652 -0.4497
   79ETHOX  H1312869  10.433  16.760  10.047 -0.3376 -1.1156 -1.0492
   79ETHOX   C212870  10.546  16.648   9.914 -0.2021  0.1776  0.2451
   79ETHOX  H2112871  10.487  16.554   9.924  1.4962 -1.1489 -1.3624
   79ETHOX  H2312872  10.622  16.644   9.995  2.2207  3.4621 -1.6140
   80ETHOX   O112873  10.629  16.657   9.797 -0.8565 -0.5395 -0.3358
   80ETHOX   C112874  10.706  16.534   9.776  0.3734 -1.1727  0.3311
   80ETHOX  H1112875  10.788  16.540   9.850 -2.0190 -1.7270  3.2482
   80ETHOX  H1312876  10.643  16.447   9.806  0.0625 -0.6015  1.4157
   80ETHOX   C212877  10.752  16.523   9.628  0.5056 -0.2075  0.9308
   80ETHOX  H2112878  10.662  16.532   9.565  0.3399 -0.4971  1.1206
   80ETHOX  H2312879  10.798  16.422   9.620  0.8890  0.0282  0.1100
   81ETHOX   O112880  10.843  16.624   9.594  0.4968  0.5476 -0.5349
   81ETHOX   C112881  10.908  16.590   9.472  0.1863  0.6597  0.1222
   81ETHOX  H1112882  10.976  16.502   9.473 -1.6506 -0.9041 -2.2008
   81ETHOX  H1312883  10.827  16.574   9.398  0.7318  3.1236 -1.1081
   81ETHOX   C212884  10.985  16.714   9.412  0.6079  0.0951  0.1557
   81ETHOX  H2112885  11.002  16.687   9.306  0.5932 -1.3891  0.5118
   81ETHOX  H2312886  10.915  16.801   9.407 -1.7459 -1.7038  0.1697
   82ETHOX   O112887  11.110  16.752   9.467  0.0208 -0.2889 -0.2391
   82ETHOX   C112888  11.097  16.838   9.581 -0.6136  0.1870 -0.2326
   82ETHOX  H1112889  11.016  16.806   9.650 -0.2748 -0.4343 -0.1197
   82ETHOX  H1312890  11.062  16.940   9.554  0.5094  1.1976  1.8971
   82ETHOX   C212891  11.219  16.870   9.665  0.1983 -0.1031  0.7269
   82ETHOX  H2112892  11.215  16.961   9.728 -0.4694  2.1513 -2.3628
   82ETHOX  H2312893  11.303  16.902   9.600 -0.2388 -0.9759 -0.2987
   83ETHOX   O112894  11.260  16.749   9.726  0.5320 -0.3598  0.1993
   83ETHOX   C112895  11.360  16.770   9.822  0.5564 -0.3032 -0.3715
   83ETHOX  H1112896  11.441  16.696   9.804  1.1936  0.1166  0.6725
   83ETHOX  H1312897  11.402  16.873   9.820 -1.4473  0.5415 -0.8885
   83ETHOX   C212898  11.302  16.732   9.962  0.3628 -0.0546  0.4811
   83ETHOX  H2112899  11.243  16.639   9.950 -0.5248  0.7634 -2.2689
   83ETHOX  H2312900  11.231  16.815   9.983 -0.3527  0.2239 -2.5875
   84ETHOX   O112901  11.397  16.707  10.060  0.3484 -0.2059 -0.2262
   84ETHOX   C112902  11.336  16.693  10.184  0.4057 -0.0887 -0.3091
   84ETHOX  H1112903  11.265  16.607  10.181 -0.0896  0.3288 -0.8319
   84ETHOX  H1312904  11.270  16.778  10.211 -1.6814 -1.5578 -0.5143
   84ETHOX   C212905  11.442  16.665  10.295 -0.2885  1.4235  0.0173
   84ETHOX  H2112906  11.516  16.588  10.263 -0.8931 -0.4330  2.7707
   84ETHOX  H2312907  11.392  16.620  10.383 -0.7109 -0.3434 -1.0775
   85ETHOX   O112908  11.499  16.789  10.352 -0.2040  0.2207  0.0064
   85ETHOX   C112909  11.587  16.768  10.461  0.3400  0.0651  0.0740
   85ETHOX  H1112910  11.563  16.675  10.516 -1.3778  0.8280  0.6840
   85ETHOX  H1312911  11.690  16.756  10.422  0.7211  2.2013  0.2669
   85ETHOX   C212912  11.567  16.881  10.558  0.5206  0.3548 -0.7280
   85ETHOX  H2112913  11.535  16.973  10.504 -1.5507 -0.4675 -1.0032
   85ETHOX  H2312914  11.653  16.885  10.628 -0.2167 -3.1364  0.5839
   86ETHOX   O112915  11.456  16.842  10.643 -0.1285 -0.0680 -0.0327
   86ETHOX   C112916  11.407  16.944  10.727  0.1234 -0.2659 -0.2726
   86ETHOX  H1112917  11.396  17.045  10.682  2.0503  0.1840  0.1981
   86ETHOX  H1312918  11.481  16.961  10.808 -0.2183 -0.1659  0.0177
   86ETHOX   C212919  11.284  16.906  10.793  0.7056 -0.8279 -0.3113
   86ETHOX  H2112920  11.241  16.971  10.872 -1.1583 -1.0208 -1.1152
   86ETHOX  H2312921  11.284  16.803  10.833  0.9354 -0.0611  1.8208
   87ETHOX   O112922  11.178  16.920  10.694 -0.5377 -0.0917  0.3626
   87ETHOX   C112923  11.053  16.870  10.731 -0.6151  0.0097 -0.4288
   87ETHOX  H1112924  11.023  16.896  10.835  0.3297 -1.4533  0.2496
   87ETHOX  H1312925  10.980  16.932  10.674 -1.3164  1.0084  1.4780
   87ETHOX   C212926  11.025  16.718  10.708  0.1675 -0.5728 -0.3378
   87ETHOX  H2112927  11.059  16.662  10.797  0.8224 -0.5257 -0.5514
   87ETHOX  H2312928  11.051  16.673  10.610 -2.6283 -1.7680 -0.6203
   88ETHOX   O112929  10.885  16.700  10.707 -0.0517 -0.1298 -0.4244
   88ETHOX   C112930  10.846  16.566  10.698 -0.0636 -0.6761  0.1674
   88ETHOX  H1112931  10.900  16.520  10.612 -1.0227 -1.7427  0.1189
   88ETHOX  H1312932  10.737  16.562  10.680  0.0347 -1.7627 -0.2709
   88ETHOX   C212933  10.874  16.492  10.823  0.1962 -0.7749 -0.6523
   88ETHOX  H2112934  10.786  16.430  10.849 -0.1950  0.0965  0.1322
   88ETHOX  H2312935  10.900  16.563  10.904 -0.5404 -1.0673 -0.1502
   89ETHOX   O112936  10.987  16.414  10.816  0.3393  0.0117  0.4212
   89ETHOX   C112937  10.986  16.310  10.919 -0.0323 -0.2425 -0.5915
   89ETHOX  H1112938  10.989  16.361  11.017  1.5555  2.5179 -1.9479
   89ETHOX  H1312939  10.909  16.230  10.907  0.4580 -1.2005  1.9966
   89ETHOX   C212940  11.119  16.234  10.887 -0.0392 -0.1927 -0.5214
   89ETHOX  H2112941  11.134  16.149  10.957 -1.3510  1.7629  2.3252
   89ETHOX  H2312942  11.205  16.299  10.914 -0.1626 -0.1986 -0.1182
   90ETHOX   O112943  11.128  16.190  10.758  0.2788 -0.6344 -0.3520
   90ETHOX   C112944  11.259  16.136  10.733 -0.0281 -0.1024  0.5537
   90ETHOX  H1112945  11.339  16.202  10.775 -0.2408 -1.1096  2.6782
   90ETHOX  H1312946  11.275  16.043  10.791 -1.1330 -1.4808 -1.2676
   90ETHOX   C212947  11.290  16.089  10.593 -0.1966 -0.3906  0.0397
   90ETHOX  H2112948  11.204  16.025  10.563 -1.3447  1.3894 -0.6353
   90ETHOX  H2312949  11.386  16.033  10.585 -0.1012 -0.1629 -0.4833
   91ETHOX   O112950  11.309  16.204  10.510 -0.0175  0.7580  0.3218
   91ETHOX   C112951  11.251  16.174  10.382  0.5179  0.4841 -0.6010
   91ETHOX  H1112952  11.291  16.076  10.347 -1.1160 -1.1676  1.8783
   91ETHOX  H1312953  11.140  16.167  10.383  0.4752  1.1611  0.3497
   91ETHOX   C212954  11.271  16.291  10.290  0.7296  0.0401 -0.1548
   91ETHOX  H2112955  11.244  16.386  10.341  2.1912  0.4832 -0.1574
   91ETHOX  H2312956  11.208  16.278  10.199  1.3297 -1.5583 -0.3776
   92ETHOX   O112957  11.406  16.314  10.249 -0.1273 -0.1999  0.3477
   92ETHOX   C112958  11.408  16.348  10.116  0.6596  0.3165 -0.4434
   92ETHOX  H1112959  11.361  16.262  10.063  0.9815 -0.0521 -0.1342
   92ETHOX  H1312960  11.353  16.441  10.094  1.2939  0.9625  0.6069
   92ETHOX   C212961  11.547  16.361  10.058 -0.4261 -0.3312  0.2321
   92ETHOX  H2112962  11.605  16.268  10.075  1.0631  0.7555  1.3150
   92ETHOX  H2312963  11.591  16.445  10.116 -1.7360  1.5423 -1.3357
   93ETHOX   O112964  11.557  16.387   9.914  0.3409  0.2621  0.1326
   93ETHOX   C112965  11.700  16.394   9.873  0.0857  0.0577  0.2152
   93ETHOX  H1112966  11.754  16.299   9.892 -1.9336 -0.8030  2.1842
   93ETHOX  H1312967  11.751  16.475   9.929  0.6453 -0.4075  0.3897
   93ETHOX   C212968  11.720  16.422   9.726 -0.8873  0.2045 -0.2403
   93ETHOX  H2112969  11.681  16.344   9.659  0.1036  1.6877 -2.6765
   93ETHOX  H2312970  11.830  16.412   9.712 -0.4416 -0.5131  2.9503
   94ETHOX   O112971  11.671  16.553   9.685 -0.1628 -0.4923  0.3177
   94ETHOX   C112972  11.728  16.586   9.561  0.7737 -0.5646  1.2774
   94ETHOX  H1112973  11.839  16.599   9.564  1.0272 -1.1465 -1.8752
   94ETHOX  H1312974  11.708  16.510   9.482  2.7234  1.2934 -1.1905
   94ETHOX   C212975  11.692  16.728   9.502 -0.1648  0.5036 -0.3414
   94ETHOX  H2112976  11.589  16.714   9.461 -0.2481 -2.3897  0.5681
   94ETHOX  H2312977  11.754  16.767   9.420  0.7888  0.3802  0.3111
   95ETHOX   O112978  11.700  16.829   9.598 -0.3173 -0.0109  0.4517
   95ETHOX   C112979  11.673  16.953   9.541 -0.9431  0.2593  0.3519
   95ETHOX  H1112980  11.566  16.959   9.512 -1.1345  1.1457  1.1791
   95ETHOX  H1312981  11.738  16.967   9.452 -1.2528  0.0590  0.0929
   95ETHOX   C212982  11.693  17.067   9.645  0.6736  0.1458 -0.5044
   95ETHOX  H2112983  11.731  17.157   9.592  1.8813  1.3242  2.1776
   95ETHOX  H2312984  11.772  17.024   9.709  0.3277 -1.5952 -1.2018
   96ETHOX   O112985  11.572  17.097   9.721 -0.3588  0.3543  0.0255
   96ETHOX   C112986  11.578  17.218   9.795  0.4115 -0.5018  0.2121
   96ETHOX  H1112987  11.614  17.306   9.738  2.5387 -1.0488  0.6086
   96ETHOX  H1312988  11.478  17.246   9.833  0.3665  0.1196 -0.3423
   96ETHOX   C212989  11.658  17.194   9.922 -0.1658 -0.2588  0.1006
   96ETHOX  H2112990  11.636  17.094   9.967  0.9503 -0.2724  0.6695
   96ETHOX  H2312991  11.640  17.268  10.003  2.5311 -0.6144  1.1506
   97ETHOX   O112992  11.798  17.187   9.884  0.5195 -0.0930  0.6059
   97ETHOX   C112993  11.885  17.175   9.999 -0.6671  0.1848  0.6461
   97ETHOX  H1112994  11.869  17.072  10.037 -0.7549 -1.0228 -2.3136
   97ETHOX  H1312995  11.850  17.252  10.071 -3.7132 -0.3321 -0.1295
   97ETHOX   C212996  12.028  17.224   9.970 -0.0607 -0.0660 -0.2666
   97ETHOX  H2112997  12.056  17.256  10.073  1.3485  0.0345 -0.6687
   97ETHOX  H2312998  12.033  17.316   9.908 -0.2361  2.0747  2.6705
   98ETHOX   O112999  12.107  17.123   9.915 -0.0547 -0.3972 -0.1051
   98ETHOX   C113000  12.239  17.175   9.904  0.0805 -0.3505 -0.3614
   98ETHOX  H1113001  12.237  17.244   9.817 -2.1310 -1.9672 -1.6856
   98ETHOX  H1313002  12.261  17.218  10.005 -2.7981 -0.6608  0.4983
   98ETHOX   C213003  12.339  17.067   9.873 -0.2359  0.2780 -0.5793
   98ETHOX  H2113004  12.434  17.117   9.844 -0.5816  0.1278 -2.0774
   98ETHOX  H2313005  12.300  17.028   9.776  0.1258  0.1442 -0.6774
   99ETHOX   O113006  12.356  16.967   9.971  0.6201 -0.6760  0.1774
   99ETHOX   C113007  12.451  16.873   9.928  0.1135  0.1076 -0.1656
   99ETHOX  H1113008  12.548  16.924   9.906 -0.2317  1.4912  1.3066
   99ETHOX  H1313009  12.413  16.821   9.838 -2.1625  0.8218  0.3202
   99ETHOX   C213010  12.496  16.766  10.029  0.4216 -0.0450 -0.0142
   99ETHOX  H2113011  12.488  16.808  10.132  0.0889  1.2653 -0.5457
   99ETHOX  H2313012  12.601  16.734  10.015  1.1483 -0.1399  4.3911
  100ETHOX   O113013  12.407  16.661  10.020  0.0509  0.3102  0.0690
  100ETHOX   C113014  12.460  16.550  10.092  0.5794  0.2616 -0.4147
  100ETHOX  H1113015  12.384  16.472  10.072 -1.1389  1.5156  0.8491
  100ETHOX  H1313016  12.561  16.519  10.058  0.7050 -0.1520  0.3109
  100ETHOX   C213017  12.460  16.560  10.248  0.2373 -0.1631  0.0012
  100ETHOX  H2113018  12.518  16.650  10.278  1.1585 -0.5415 -0.6099
  100ETHOX  H2313019  12.511  16.469  10.286  0.9197  0.8729  1.6597
  101PROXS   O113020  12.336  16.567  10.310  0.5809 -0.1017 -0.3885
  101PROXS   C113021  12.282  16.702  10.289 -0.4952  0.1191 -0.1903
  101PROXS  H1113022  12.345  16.789  10.316  1.0891  0.1228 -3.4624
  101PROXS  H1313023  12.257  16.717  10.182 -0.5797  1.2391 -0.0227
  101PROXS   C213024  12.151  16.720  10.354 -0.0888  0.2391 -0.2857
  101PROXS  H2113025  12.104  16.620  10.361  0.3631 -0.0283 -0.8811
  101PROXS   C313026  12.051  16.819  10.282 -0.7432 -0.2304 -0.4066
  101PROXS  H3113027  12.096  16.920  10.295 -0.4198 -0.4384  0.0996
  101PROXS  H3213028  12.039  16.787  10.176 -2.4498  1.6302 -0.8403
  101PROXS  H3313029  11.947  16.824  10.321 -0.6056  0.5556 -0.1286
  102PROXS   O113030  12.182  16.770  10.481 -0.0976  0.2502  0.1121
  102PROXS   C113031  12.172  16.663  10.579  0.0091  0.5082  0.0661
  102PROXS  H1113032  12.238  16.577  10.554  1.5338  0.5325  3.4873
  102PROXS  H1313033  12.215  16.707  10.671 -0.6331 -1.8315  1.5851
  102PROXS   C213034  12.031  16.606  10.605  0.3419  0.0675  0.3107
  102PROXS  H2113035  11.985  16.586  10.506  3.1772  3.7260 -1.9954
  102PROXS   C313036  11.938  16.710  10.672 -0.0657 -0.6206 -0.1158
  102PROXS  H3113037  11.958  16.725  10.780 -2.4428 -1.9028  0.5601
  102PROXS  H3213038  11.926  16.810  10.624 -0.0973 -1.5415 -2.1492
  102PROXS  H3313039  11.833  16.674  10.670 -1.2093  2.4268  0.1298
  103PROXR   O113040  12.041  16.484  10.673  0.0737 -0.1767  0.3450
  103PROXR   C113041  11.919  16.408  10.673  0.0925 -0.1365 -0.7915
  103PROXR  H1113042  11.834  16.462  10.719  0.7112 -0.4896  0.8355
  103PROXR  H1313043  11.891  16.386  10.568 -2.3217 -0.5639 -0.1229
  103PROXR   C213044  11.953  16.273  10.744  0.5889 -0.2022  0.2299
  103PROXR  H2113045  12.017  16.281  10.835 -0.0977  0.9981  0.6353
  103PROXR   C313046  12.030  16.180  10.648 -0.5893  0.0946 -0.3181
  103PROXR  H3113047  11.977  16.179  10.550  1.4224 -0.1798 -1.4430
  103PROXR  H3213048  12.134  16.212  10.629 -0.8573  1.0246 -0.2571
  103PROXR  H3313049  12.033  16.071  10.673 -2.0939  0.1686  0.3102
  104PROXS   O113050  11.830  16.210  10.785 -0.4489  0.3005 -0.3452
  104PROXS   C113051  11.771  16.264  10.905  0.1638  0.3375 -0.5411
  104PROXS  H1113052  11.832  16.252  10.997  1.5677  2.2301 -1.1815
  104PROXS  H1313053  11.758  16.374  10.897  1.0355  0.3248 -2.9804
  104PROXS   C213054  11.636  16.198  10.919  0.7814  0.0867 -0.1397
  104PROXS  H2113055  11.576  16.202  10.825  0.6598  0.9699 -0.0314
  104PROXS   C313056  11.554  16.256  11.035 -0.0491 -0.3421 -0.6577
  104PROXS  H3113057  11.448  16.223  11.029 -0.4811 -0.0487  2.9622
  104PROXS  H3213058  11.591  16.226  11.135 -1.2220 -0.0751 -0.1290
  104PROXS  H3313059  11.561  16.367  11.028  0.8879 -0.4171 -1.1910
  105PROXS   O113060  11.648  16.060  10.945 -0.0705  0.1221  0.1565
  105PROXS   C113061  11.614  15.982  10.831 -0.2976  0.4556 -0.4953
  105PROXS  H1113062  11.504  15.970  10.833 -0.3830  0.1355 -3.0728
  105PROXS  H1313063  11.634  16.036  10.736 -0.9564 -0.5969 -1.2622
  105PROXS   C213064  11.696  15.848  10.828  0.5752 -0.6396  0.2859
  105PROXS  H2113065  11.679  15.790  10.921  0.7033 -0.8115  0.2030
  105PROXS   C313066  11.843  15.892  10.805 -0.3249  0.9264  0.3859
  105PROXS  H3113067  11.859  15.934  10.703  2.6839 -1.2984 -0.2085
  105PROXS  H3213068  11.868  15.972  10.878 -2.6506  0.5126  1.7357
  105PROXS  H3313069  11.911  15.806  10.821  0.2649  1.1159 -0.9519
  106PROXS   O113070  11.652  15.772  10.717 -0.2103  0.0727  0.3854
  106PROXS   C113071  11.707  15.644  10.723 -0.1944  0.2208 -0.5006
  106PROXS  H1113072  11.815  15.642  10.697 -0.2295  0.1807 -0.6465
  106PROXS  H1313073  11.701  15.604  10.826  2.7372  0.6443 -0.0911
  106PROXS   C213074  11.628  15.557  10.615  0.1037 -0.5281  0.2004
  106PROXS  H2113075  11.638  15.603  10.514 -0.4769  0.3089  0.5149
  106PROXS   C313076  11.471  15.559  10.638  0.0928  0.4675  0.0854
  106PROXS  H3113077  11.420  15.487  10.571 -0.9656  1.8980 -0.7043
  106PROXS  H3213078  11.465  15.512  10.738 -1.5855  2.1375  0.8301
  106PROXS  H3313079  11.421  15.659  10.638  0.6249  0.7707 -1.4669
  107PROXR   O113080  11.677  15.419  10.625  0.3584  0.1301 -0.0009
  107PROXR   C113081  11.652  15.347  10.511  0.9602  0.1733  0.6553
  107PROXR  H1113082  11.613  15.253  10.555 -2.4332  1.0512 -0.2461
  107PROXR  H1313083  11.585  15.395  10.437 -2.3825 -1.3865  2.4648
  107PROXR   C213084  11.783  15.306  10.429 -0.7068 -0.8569 -0.3125
  107PROXR  H2113085  11.843  15.227  10.478  0.0857 -0.3296 -0.4115
  107PROXR   C313086  11.872  15.427  10.399  0.3133 -0.2446  0.1281
  107PROXR  H3113087  11.957  15.396  10.334  1.4995 -1.6684  2.2326
  107PROXR  H3213088  11.817  15.505  10.342 -1.1191 -1.1474  0.2185
  107PROXR  H3313089  11.910  15.468  10.495 -1.4679 -0.5068  0.9823
  108PROXS   O113090  11.751  15.237  10.307 -0.1143 -0.9770  0.5808
  108PROXS   C113091  11.688  15.114  10.313 -0.4982  0.2182 -0.5158
  108PROXS  H1113092  11.631  15.099  10.407  0.7978 -3.7230 -0.1605
  108PROXS  H1313093  11.616  15.113  10.227  0.3340  0.0814 -1.2265
  108PROXS   C213094  11.791  14.993  10.305  0.0768 -0.6116 -0.1146
  108PROXS  H2113095  11.872  15.029  10.237  0.2689 -1.5677 -0.3983
  108PROXS   C313096  11.734  14.862  10.259 -0.0049  0.4335  0.1382
  108PROXS  H3113097  11.816  14.787  10.264 -0.4860 -0.0805  0.4233
  108PROXS  H3213098  11.656  14.821  10.327  0.4472 -0.0325  0.3773
  108PROXS  H3313099  11.700  14.870  10.153 -3.8269 -1.2236  1.0476
  109PROXS   O113100  11.854  14.985  10.434 -0.7736  0.0084  0.1558
  109PROXS   C113101  11.981  14.909  10.434  0.7784  0.1449  0.3930
  109PROXS  H1113102  11.954  14.807  10.398 -2.1640  0.6934  0.7452
  109PROXS  H1313103  12.044  14.972  10.368  0.4053  1.3374  1.1505
  109PROXS   C213104  12.039  14.890  10.568 -0.0013 -0.2897 -0.5306
  109PROXS  H2113105  11.968  14.823  10.620  0.7917 -1.5614 -1.0323
  109PROXS   C313106  12.041  15.024  10.646 -0.4111 -0.0357 -0.4300
  109PROXS  H3113107  12.101  15.104  10.597 -0.9915  1.0516  0.5985
  109PROXS  H3213108  11.936  15.061  10.638 -0.3922 -0.2458 -1.9817
  109PROXS  H3313109  12.077  15.003  10.748 -0.4948 -0.5625 -0.5059
  110PROXR   O113110  12.164  14.825  10.546 -0.2903 -0.2703 -0.5771
  110PROXR   C113111  12.179  14.708  10.624 -0.4213  0.0191  1.1210
  110PROXR  H1113112  12.177  14.729  10.733  2.5016  1.2890  1.0163
  110PROXR  H1313113  12.093  14.644  10.596  0.8373 -0.8323 -1.0812
  110PROXR   C213114  12.311  14.638  10.590  0.6697 -0.1613 -0.3925
  110PROXR  H2113115  12.404  14.698  10.596  0.6131 -0.1483  0.6754
  110PROXR   C313116  12.299  14.597  10.445 -0.0108  0.2933 -0.5161
  110PROXR  H3113117  12.396  14.555  10.409 -0.7420 -0.4052 -1.7730
  110PROXR  H3213118  12.213  14.530  10.421 -0.3282 -0.3140  2.0308
  110PROXR  H3313119  12.276  14.689  10.387  2.8086  1.4620  0.0549
  111PROXS   O113120  12.329  14.523  10.678 -0.1606 -0.5003 -0.4016
  111PROXS   C113121  12.415  14.552  10.791 -0.2258 -0.1940 -0.1169
  111PROXS  H1113122  12.518  14.542  10.750 -0.2112  1.1722 -0.4650
  111PROXS  H1313123  12.391  14.653  10.829 -0.1058  0.9164 -2.7445
  111PROXS   C213124  12.392  14.447  10.912 -0.1939 -0.2839 -0.5317
  111PROXS  H2113125  12.281  14.448  10.917 -0.1590  0.4436  0.5961
  111PROXS   C313126  12.456  14.504  11.041 -0.3135 -0.2279  0.8896
  111PROXS  H3113127  12.556  14.539  11.006  0.1910 -1.5443  0.9522
  111PROXS  H3213128  12.395  14.589  11.079 -0.2728 -0.7537  2.1719
  111PROXS  H3313129  12.473  14.432  11.123  0.3026 -0.7591  0.2995
  112PROXR   O113130  12.451  14.320  10.884  0.2923 -0.6263 -0.0962
  112PROXR   C113131  12.404  14.216  10.966  0.1233  0.5187  0.4674
  112PROXR  H1113132  12.476  14.210  11.051 -1.0277 -2.8632  1.3613
  112PROXR  H1313133  12.304  14.246  11.006 -1.7503 -1.0610 -2.6594
  112PROXR   C213134  12.384  14.082  10.892  0.3686  0.1577 -0.4014
  112PROXR  H2113135  12.479  14.051  10.844 -0.8603 -4.2370 -0.4351
  112PROXR   C313136  12.266  14.088  10.797 -0.1878  0.3786 -0.9155
  112PROXR  H3113137  12.239  13.986  10.764  1.0903 -0.5167  0.6691
  112PROXR  H3213138  12.180  14.136  10.848  1.9302  2.1857  1.2212
  112PROXR  H3313139  12.294  14.157  10.714 -0.5094  1.7112  0.0618
  113PROXS   O113140  12.349  13.985  10.989 -0.4024  0.1979 -0.0371
  113PROXS   C113141  12.395  13.849  10.956 -0.1085 -0.5939  0.8587
  113PROXS  H1113142  12.350  13.807  10.864  0.5129 -3.1981  1.6717
  113PROXS  H1313143  12.504  13.853  10.935 -0.2624  0.3634  0.1643
  113PROXS   C213144  12.367  13.745  11.064 -0.2106  0.4408 -0.0790
  113PROXS  H2113145  12.260  13.756  11.089 -1.2055  0.6979 -3.8598
  113PROXS   C313146  12.443  13.765  11.196  0.2749 -0.1247 -0.1723
  113PROXS  H3113147  12.463  13.871  11.224  0.4242  0.0429 -0.9005
  113PROXS  H3213148  12.402  13.711  11.284  0.5584  1.1353  0.7791
  113PROXS  H3313149  12.549  13.734  11.181  0.0231 -1.5165  0.7204
  114PROXR   O113150  12.390  13.616  11.015 -0.0037  0.1425 -0.0550
  114PROXR   C113151  12.276  13.536  10.982  0.0006  0.5789 -0.4366
  114PROXR  H1113152  12.244  13.506  11.085  0.6369 -1.6696 -0.8337
  114PROXR  H1313153  12.193  13.580  10.923  0.5793 -0.2369 -1.9218
  114PROXR   C213154  12.333  13.402  10.915 -0.1928  0.9646 -0.1283
  114PROXR  H2113155  12.428  13.373  10.964 -0.8732 -2.1059 -0.4096
  114PROXR   C313156  12.359  13.429  10.769 -0.0270  0.0898  0.0267
  114PROXR  H3113157  12.275  13.475  10.713  0.5157  0.3354 -0.5996
  114PROXR  H3213158  12.439  13.506  10.761 -1.5585  1.7291 -0.1702
  114PROXR  H3313159  12.392  13.336  10.718  1.4032 -0.4702  1.8602
  115PROXR   O113160  12.240  13.288  10.930 -0.7435 -0.3899 -0.9776
  115PROXR   C113161  12.207  13.257  11.066  0.2019 -0.1497 -0.8919
  115PROXR  H1113162  12.298  13.286  11.121  0.7621  1.9457 -2.7499
  115PROXR  H1313163  12.126  13.323  11.104 -0.7466 -1.9530  0.3662
  115PROXR   C213164  12.175  13.106  11.079  0.0317 -0.3300  0.0361
  115PROXR  H2113165  12.263  13.045  11.049  0.6683 -0.3502  1.8690
  115PROXR   C313166  12.060  13.066  10.984  0.6869 -0.3296  0.1290
  115PROXR  H3113167  12.090  13.084  10.878  0.0961 -2.4074 -0.4367
  115PROXR  H3213168  12.039  12.957  10.986 -1.4204  0.0472  0.7606
  115PROXR  H3313169  11.974  13.131  11.012  3.6710  3.7000  0.7847
  116PROXS   O113170  12.146  13.090  11.212  0.0107 -0.1158 -0.8025
  116PROXS   C113171  12.155  12.953  11.255 -0.0051 -0.5685  0.1384
  116PROXS  H1113172  12.052  12.916  11.268  0.0392  0.1393  3.0277
  116PROXS  H1313173  12.203  12.888  11.178  3.3607  1.1301  0.5903
  116PROXS   C213174  12.220  12.937  11.393 -0.5750 -0.4213  0.5123
  116PROXS  H2113175  12.314  12.995  11.384 -0.3643 -0.9674 -1.0651
  116PROXS   C313176  12.257  12.786  11.415 -0.3146  0.7240  0.5377
  116PROXS  H3113177  12.323  12.756  11.331  0.3232  0.3210  1.1738
  116PROXS  H3213178  12.312  12.778  11.511  0.9981 -0.6533 -0.2984
  116PROXS  H3313179  12.165  12.724  11.421 -0.3316  0.7182  0.2461
  117PROXS   O113180  12.137  12.989  11.497 -0.1338 -1.0465 -0.4720
  117PROXS   C113181  12.131  13.137  11.494 -0.0920 -0.3281 -0.0788
  117PROXS  H1113182  12.229  13.178  11.460 -0.4091 -0.6229 -1.4227
  117PROXS  H1313183  12.056  13.165  11.416 -0.1444  2.4721  0.8470
  117PROXS   C213184  12.092  13.188  11.637  0.3677  0.0931  0.2890
  117PROXS  H2113185  12.175  13.170  11.708  0.4943  0.8877  0.3535
  117PROXS   C313186  11.967  13.124  11.687 -0.3056 -0.2598  0.1790
  117PROXS  H3113187  11.934  13.183  11.776 -0.2203 -0.1061  0.1090
  117PROXS  H3213188  11.895  13.134  11.603  0.0617 -0.1840 -0.1295
  117PROXS  H3313189  11.979  13.016  11.711  0.0981 -0.2398  0.0620
  118PROXR   O113190  12.079  13.331  11.631  0.3241  0.6816 -0.5626
  118PROXR   C113191  12.203  13.408  11.613 -0.4250  0.3096 -0.5904
  118PROXR  H1113192  12.234  13.435  11.716  0.6274 -2.0432 -0.2282
  118PROXR  H1313193  12.282  13.343  11.571 -2.0370 -0.6967 -2.2306
  118PROXR   C213194  12.179  13.531  11.525  0.4044 -0.3609  1.0924
  118PROXR  H2113195  12.077  13.571  11.542  0.1935  1.2223 -2.8828
  118PROXR   C313196  12.191  13.488  11.370 -0.0728  0.3676 -0.2208
  118PROXR  H3113197  12.125  13.400  11.351 -1.4070  0.4851  3.0993
  118PROXR  H3213198  12.160  13.571  11.303  0.7038  0.3602 -0.5966
  118PROXR  H3313199  12.295  13.459  11.346  0.2098 -0.7265  2.0612
  119PROXR   O113200  12.272  13.640  11.553  1.1718  0.2339 -0.0833
  119PROXR   C113201  12.226  13.776  11.529 -0.0573  0.1471 -0.7890
  119PROXR  H1113202  12.212  13.788  11.419  2.5839  3.3796 -0.9158
  119PROXR  H1313203  12.130  13.793  11.584  0.5892 -1.3583  0.8832
  119PROXR   C213204  12.329  13.884  11.557 -0.1720  0.9227 -0.6854
  119PROXR  H2113205  12.411  13.893  11.482  0.0992  0.5580 -0.4401
  119PROXR   C313206  12.395  13.858  11.689 -0.0250 -0.1713 -0.1382
  119PROXR  H3113207  12.323  13.854  11.774  0.3098 -2.3123  0.1036
  119PROXR  H3213208  12.448  13.760  11.691 -1.2279 -0.8809 -1.6195
  119PROXR  H3313209  12.473  13.933  11.715 -0.3673  1.2431 -2.8383
  120PROXS   O113210  12.252  14.005  11.563 -0.9049  0.7716 -0.0960
  120PROXS   C113211  12.325  14.119  11.542 -0.3548  0.3128  0.0666
  120PROXS  H1113212  12.331  14.163  11.643  1.9702  0.0177  0.1206
  120PROXS  H1313213  12.430  14.096  11.512 -0.8088 -2.0853  0.1945
  120PROXS   C213214  12.249  14.204  11.438  0.5885 -0.3978  0.0160
  120PROXS  H2113215  12.141  14.204  11.467  0.8580 -0.0712  1.0719
  120PROXS   C313216  12.281  14.131  11.305  0.0792 -0.2647 -0.5594
  120PROXS  H3113217  12.214  14.173  11.227  0.5493 -0.6765 -1.1864
  120PROXS  H3213218  12.388  14.154  11.285  0.3775 -2.2075 -1.4141
  120PROXS  H3313219  12.273  14.021  11.311  3.2508 -0.5682  0.0230
  121PROXS   O113220  12.308  14.335  11.442  0.2020 -0.3287 -1.0254
  121PROXS   C113221  12.226  14.441  11.408  0.1315 -0.2889 -0.0298
  121PROXS  H1113222  12.183  14.416  11.309  2.1613  0.1472 -1.0624
  121PROXS  H1313223  12.155  14.451  11.493  0.1436  0.0798 -0.0611
  121PROXS   C213224  12.311  14.567  11.398  0.5264  0.6341 -0.6531
  121PROXS  H2113225  12.370  14.548  11.305 -1.6347 -0.6496 -1.8677
  121PROXS   C313226  12.395  14.581  11.532  0.2128 -0.3011  0.6856
  121PROXS  H3113227  12.441  14.682  11.532 -1.2480  0.4235 -0.7651
  121PROXS  H3213228  12.327  14.562  11.618 -0.5562 -1.0271 -0.0495
  121PROXS  H3313229  12.479  14.508  11.533  0.7436  0.2735 -0.3988
  122PROXS   O113230  12.229  14.682  11.378 -0.0139 -0.2647  0.3010
  122PROXS   C113231  12.298  14.799  11.332  0.5815 -0.2245  0.4580
  122PROXS  H1113232  12.320  14.850  11.429 -0.8790  1.1218  0.1190
  122PROXS  H1313233  12.384  14.772  11.268 -0.1160 -1.7661  0.1192
  122PROXS   C213234  12.191  14.889  11.245 -0.5136  0.2065  0.3101
  122PROXS  H2113235  12.102  14.900  11.310 -0.5236 -0.5019  0.4217
  122PROXS   C313236  12.159  14.805  11.116  0.8023 -0.0953  0.3523
  122PROXS  H3113237  12.066  14.839  11.064  0.3080 -0.3027  1.0812
  122PROXS  H3213238  12.235  14.819  11.037 -0.8758  0.3208 -1.2536
  122PROXS  H3313239  12.142  14.698  11.139 -1.4058  0.1157 -0.0162
  123PROXS   O113240  12.245  15.020  11.222 -0.0737  0.3524 -0.3748
  123PROXS   C113241  12.157  15.111  11.162 -0.4705  0.2979  0.5548
  123PROXS  H1113242  12.133  15.070  11.061  0.5685  0.2801  0.3123
  123PROXS  H1313243  12.062  15.117  11.219 -1.0111  0.9238 -0.3825
  123PROXS   C213244  12.210  15.253  11.154  0.4995 -0.4723 -0.3045
  123PROXS  H2113245  12.308  15.254  11.102 -0.1467  1.4230 -1.6231
  123PROXS   C313246  12.225  15.306  11.298  0.2924 -0.0553 -0.0318
  123PROXS  H3113247  12.250  15.414  11.298  0.4619 -0.0889 -0.6338
  123PROXS  H3213248  12.140  15.282  11.366  0.3290  0.8336  0.3461
  123PROXS  H3313249  12.305  15.254  11.355 -1.1220 -1.6116  0.6113
  124PROXR   O113250  12.114  15.332  11.084  0.5681  0.9638  0.3209
  124PROXR   C113251  12.161  15.335  10.948 -0.0521 -0.2585  0.3379
  124PROXR  H1113252  12.264  15.375  10.947  0.1983 -0.9047  0.3136
  124PROXR  H1313253  12.151  15.236  10.900  0.5913 -0.9121  1.5119
  124PROXR   C213254  12.086  15.437  10.852  0.2056  0.2780  0.7337
  124PROXR  H2113255  12.055  15.532  10.900 -1.1201 -0.5435  1.5863
  124PROXR   C313256  11.961  15.368  10.796  0.0448 -0.0353  0.0098
  124PROXR  H3113257  11.999  15.277  10.743 -0.6092 -2.0275  2.7268
  124PROXR  H3213258  11.894  15.338  10.879  0.5426  1.0986  0.8484
  124PROXR  H3313259  11.905  15.431  10.724 -0.4973  0.2436  0.6711
  125PROXS   O113260  12.167  15.458  10.736  0.7953 -0.4447 -0.3384
  125PROXS   C113261  12.267  15.560  10.748  0.2914  0.1963 -0.8985
  125PROXS  H1113262  12.305  15.561  10.852 -0.3103  1.8040 -0.6700
  125PROXS  H1313263  12.351  15.542  10.679  0.1249  1.4287 -1.4395
  125PROXS   C213264  12.212  15.699  10.723 -0.5751 -0.5914  0.0792
  125PROXS  H2113265  12.130  15.718  10.796 -0.2067 -0.6221  0.5041
  125PROXS   C313266  12.159  15.708  10.579  0.1224  0.1689  0.1859
  125PROXS  H3113267  12.107  15.803  10.554  0.3548 -0.0927 -1.3923
  125PROXS  H3213268  12.236  15.695  10.499  1.9619  2.0847  1.5128
  125PROXS  H3313269  12.078  15.634  10.566 -1.0345  1.5628 -0.8630
  126PROXS   O113270  12.315  15.795  10.733 -0.7662  0.3156  0.1475
  126PROXS   C113271  12.275  15.930  10.725 -0.0580  0.0413 -0.3620
  126PROXS  H1113272  12.280  15.953  10.617 -3.2196 -2.3227 -1.1662
  126PROXS  H1313273  12.172  15.952  10.758 -0.1981 -0.0842 -0.7152
  126PROXS   C213274  12.386  16.009  10.801  1.0226  0.1412  0.4445
  126PROXS  H2113275  12.486  15.978  10.763  1.1105  1.4239 -0.4675
  126PROXS   C313276  12.380  15.994  10.957  0.3705 -0.8717  0.2657
  126PROXS  H3113277  12.277  16.001  11.000 -1.3359 -3.2494 -2.9782
  126PROXS  H3213278  12.426  15.896  10.982  1.8296  0.0783  1.5251
  126PROXS  H3313279  12.451  16.069  10.998  1.1935 -1.5151  0.0385
  127PROXR   O113280  12.359  16.138  10.770  0.5248 -0.3565  0.7731
  127PROXR   C113281  12.458  16.198  10.694  0.0797 -0.4552 -0.5730
  127PROXR  H1113282  12.556  16.185  10.744 -1.2046 -0.9406  1.9637
  127PROXR  H1313283  12.464  16.145  10.596  1.6090 -2.0673  0.3155
  127PROXR   C213284  12.427  16.351  10.662  0.4374 -0.1638 -0.4456
  127PROXR  H2113285  12.322  16.371  10.628  0.5239  2.8433  0.7089
  127PROXR   C313286  12.525  16.385  10.547 -0.2673 -0.5946  0.4757
  127PROXR  H3113287  12.497  16.333  10.453  0.4840  1.2599 -0.8411
  127PROXR  H3213288  12.521  16.492  10.518 -0.5886 -1.0970 -1.4876
  127PROXR  H3313289  12.623  16.341  10.575  0.4357  2.5145  3.4882
  128PROXR   O113290  12.457  16.437  10.773  0.4218  0.7643 -0.6340
  128PROXR   C113291  12.368  16.420  10.881 -0.1312  0.1339  0.7911
  128PROXR  H1113292  12.265  16.398  10.847 -0.1775 -0.1146  1.0913
  128PROXR  H1313293  12.394  16.326  10.934 -1.0825 -1.1806 -0.9580
  128PROXR   C213294  12.371  16.546  10.970  0.6243  0.7937  0.4329
  128PROXR  H2113295  12.367  16.633  10.900 -0.3695  1.1971  0.9642
  128PROXR   C313296  12.505  16.561  11.044  1.0419  0.7045 -0.2163
  128PROXR  H3113297  12.516  16.477  11.116  0.4270  0.2986 -0.5908
  128PROXR  H3213298  12.592  16.569  10.976 -1.4989  0.3387 -3.7787
  128PROXR  H3313299  12.503  16.651  11.109 -1.8135  1.5160 -1.2972
  129PROXS   O113300  12.270  16.529  11.071  0.5848  0.3322  0.2037
  129PROXS   C113301  12.144  16.571  11.025 -0.0558  0.8958 -0.0105
  129PROXS  H1113302  12.147  16.679  10.999  1.0222  0.8479 -0.1388
  129PROXS  H1313303  12.139  16.505  10.935  1.2227  1.0264 -0.2029
  129PROXS   C213304  12.033  16.545  11.128  0.0661 -0.3880 -0.0087
  129PROXS  H2113305  12.052  16.614  11.213 -0.9090 -1.3724  1.0434
  129PROXS   C313306  12.042  16.402  11.181  0.7841  0.4436  0.4691
  129PROXS  H3113307  12.144  16.374  11.215 -0.1036 -2.2166  1.1260
  129PROXS  H3213308  11.970  16.378  11.262  1.1910  0.3235  0.8004
  129PROXS  H3313309  12.020  16.323  11.107  1.9922 -0.7139  1.3048
  130PROXS   O113310  11.907  16.570  11.063 -0.5266 -0.6488 -0.1742
  130PROXS   C113311  11.810  16.603  11.164 -0.0765  0.5756  0.2296
  130PROXS  H1113312  11.790  16.508  11.218  1.4531 -0.2445 -0.5696
  130PROXS  H1313313  11.854  16.683  11.227 -0.6753  0.6705  0.5322
  130PROXS   C213314  11.684  16.669  11.101 -0.1808 -0.4360  0.8791
  130PROXS  H2113315  11.639  16.585  11.043  0.4659  1.9914 -3.5455
  130PROXS   C313316  11.728  16.777  10.997  0.1326  0.1079 -0.0117
  130PROXS  H3113317  11.812  16.746  10.931 -0.4360 -0.2859 -0.5681
  130PROXS  H3213318  11.642  16.818  10.940 -2.2291  1.8428  4.2860
  130PROXS  H3313319  11.764  16.864  11.056 -0.2281  0.6565 -0.5992
  131PROXS   O113320  11.598  16.721  11.202  0.3055  0.8509 -0.0426
  131PROXS   C113321  11.571  16.635  11.310 -0.4255 -0.4955 -0.2291
  131PROXS  H1113322  11.564  16.528  11.279 -1.8896 -1.2393  2.3254
  131PROXS  H1313323  11.660  16.647  11.376 -1.5647  0.3317  1.2159
  131PROXS   C213324  11.444  16.685  11.380 -0.5204  0.6939  0.0116
  131PROXS  H2113325  11.367  16.689  11.300  1.3574  0.4051 -1.9052
  131PROXS   C313326  11.452  16.834  11.413  0.1493 -0.8407  0.3292
  131PROXS  H3113327  11.456  16.901  11.325  0.0720 -0.7779  0.3729
  131PROXS  H3213328  11.358  16.870  11.461 -0.9539 -0.4166 -2.0099
  131PROXS  H3313329  11.542  16.859  11.473  0.5081 -2.0037  0.3013
  132PROXS   O113330  11.411  16.597  11.488  0.7642 -0.0275  0.3302
  132PROXS   C113331  11.352  16.473  11.454 -0.1267  0.0355 -0.7183
  132PROXS  H1113332  11.274  16.493  11.378 -2.4731  0.6260  1.6706
  132PROXS  H1313333  11.429  16.401  11.418 -0.8024 -0.4147 -1.2801
  132PROXS   C213334  11.277  16.411  11.580  0.1103  0.0416  0.4553
  132PROXS  H2113335  11.179  16.462  11.594 -0.2642 -0.1167 -1.3318
  132PROXS   C313336  11.362  16.408  11.707  0.5091 -0.9088  0.1432
  132PROXS  H3113337  11.453  16.347  11.687  0.2468 -0.4389 -3.1195
  132PROXS  H3213338  11.388  16.512  11.735 -1.3672 -0.5898  0.8879
  132PROXS  H3313339  11.300  16.361  11.787 -0.4751 -4.2926 -2.3361
  133PROXS   O113340  11.257  16.274  11.554  0.1985  0.3143  0.0497
  133PROXS   C113341  11.138  16.249  11.486  0.4614  0.1715 -0.8107
  133PROXS  H1113342  11.048  16.296  11.531  1.7079  3.5064 -1.4470
  133PROXS  H1313343  11.150  16.285  11.381  4.1184 -3.7131 -1.9952
  133PROXS   C213344  11.133  16.097  11.474  0.6590 -0.1726 -0.8022
  133PROXS  H2113345  11.145  16.057  11.577 -1.4759  2.0870  0.4253
  133PROXS   C313346  11.256  16.058  11.387 -0.1203 -0.8401 -0.5673
  133PROXS  H3113347  11.344  16.096  11.443 -0.3995  1.0404 -1.3343
  133PROXS  H3213348  11.258  15.947  11.384 -0.0482 -1.0414  2.8403
  133PROXS  H3313349  11.258  16.114  11.291  1.6983 -0.3981 -0.2906
  134PROXS   O113350  11.009  16.055  11.420  0.3217  0.1843  0.0728
  134PROXS   C113351  10.986  15.912  11.427 -0.2387  0.1079  0.1651
  134PROXS  H1113352  11.037  15.858  11.511  0.7459  1.5041  0.4936
  134PROXS  H1313353  10.879  15.895  11.448  0.1732 -0.4093  2.0493
  134PROXS   C213354  11.016  15.846  11.288 -0.5567 -0.3811  0.4871
  134PROXS  H2113355  11.124  15.823  11.275 -0.3583  0.4534  0.5583
  134PROXS   C313356  10.964  15.940  11.180  0.0304 -0.0397  0.4798
  134PROXS  H3113357  10.860  15.976  11.193 -0.4583 -1.7378  1.5106
  134PROXS  H3213358  11.033  16.028  11.186  0.8760 -0.6722  0.2399
  134PROXS  H3313359  10.981  15.896  11.079 -0.2454  3.1774 -1.1092
  135PROXS   O113360  10.940  15.729  11.273  0.0667 -0.4120  0.3141
  135PROXS   C113361  11.003  15.621  11.335 -1.0907 -0.3880 -0.0939
  135PROXS  H1113362  11.112  15.636  11.354 -1.0904  1.6628 -1.4177
  135PROXS  H1313363  10.948  15.599  11.429 -1.5175  2.8038  0.5130
  135PROXS   C213364  10.987  15.495  11.249 -0.0260  0.0468 -0.0979
  135PROXS  H2113365  11.027  15.511  11.147 -0.7231  1.8626 -0.1228
  135PROXS   C313366  10.834  15.448  11.228  0.6012  0.1847 -0.2725
  135PROXS  H3113367  10.789  15.426  11.328  1.3240 -0.1171 -0.0076
  135PROXS  H3213368  10.775  15.531  11.184 -0.9708 -1.9147 -2.3614
  135PROXS  H3313369  10.830  15.359  11.162  2.6554  0.4127 -0.7819
  136PROXS   O113370  11.047  15.389  11.319 -0.4083 -0.5604 -0.5136
  136PROXS   C113371  11.114  15.296  11.225 -0.3741  0.0188 -0.2444
  136PROXS  H1113372  11.041  15.266  11.147 -0.5230 -1.5903  0.4701
  136PROXS  H1313373  11.203  15.348  11.184  0.2253  0.1272  1.1414
  136PROXS   C213374  11.156  15.177  11.308 -0.0149 -0.3054  0.0813
  136PROXS  H2113375  11.182  15.210  11.411 -0.0106 -0.4912  0.1414
  136PROXS   C313376  11.271  15.082  11.264 -0.2808 -0.4567  0.5301
  136PROXS  H3113377  11.253  15.040  11.162 -0.3021 -0.9477  0.7308
  136PROXS  H3213378  11.364  15.140  11.246 -1.1034  0.0674 -2.6532
  136PROXS  H3313379  11.271  14.996  11.335 -0.8671 -1.1784 -0.3138
  137PROXS   O113380  11.040  15.094  11.319  0.3616  0.2673 -0.9841
  137PROXS   C113381  10.967  15.103  11.441  0.4067 -0.1292 -0.3802
  137PROXS  H1113382  10.985  15.195  11.501  2.0448  0.0478 -1.0840
  137PROXS  H1313383  10.862  15.121  11.410 -0.1172 -0.5675  1.0745
  137PROXS   C213384  10.993  14.980  11.528  1.2196  0.1830  0.2034
  137PROXS  H2113385  11.097  14.944  11.510  0.2332 -2.1980 -1.2291
  137PROXS   C313386  10.881  14.877  11.492 -0.6388  0.0960 -0.6344
  137PROXS  H3113387  10.897  14.780  11.544 -0.5916 -0.3885 -1.5229
  137PROXS  H3213388  10.777  14.915  11.494 -1.4191 -1.9156  1.5925
  137PROXS  H3313389  10.905  14.863  11.384 -2.4630  1.6469 -1.2940
  138PROXR   O113390  10.978  15.017  11.666  0.7733  0.0308  0.1102
  138PROXR   C113391  11.014  14.913  11.756  0.2164 -0.8231 -0.2849
  138PROXR  H1113392  11.004  14.814  11.707  1.9937 -2.1636  1.8717
  138PROXR  H1313393  11.124  14.919  11.771  0.0753 -1.5410  1.1712
  138PROXR   C213394  10.949  14.922  11.899 -0.4283 -0.3706 -0.1150
  138PROXR  H2113395  10.971  15.022  11.941  1.7453 -0.2741 -1.3239
  138PROXR   C313396  11.016  14.827  11.997  0.3144 -0.2998  0.3653
  138PROXR  H3113397  11.124  14.851  11.999  0.9221 -2.4494 -1.7843
  138PROXR  H3213398  10.978  14.846  12.100  0.7823 -0.4183  0.5598
  138PROXR  H3313399  10.989  14.722  11.971 -2.4310  0.2927  0.4532
  139PROXS   O113400  10.814  14.891  11.895  0.4307  0.7937  0.4152
  139PROXS   C113401  10.730  15.004  11.856  0.0879  0.9372  0.4914
  139PROXS  H1113402  10.737  15.073  11.943  0.6384 -1.1796  2.2317
  139PROXS  H1313403  10.767  15.042  11.758 -0.3854  0.6465  0.1951
  139PROXS   C213404  10.584  14.955  11.838 -0.4088 -0.2212  0.0741
  139PROXS  H2113405  10.547  14.910  11.932 -1.8463  0.6396 -0.0406
  139PROXS   C313406  10.563  14.861  11.722 -0.4281 -0.1136 -0.0405
  139PROXS  H3113407  10.452  14.861  11.708 -0.3701  1.1545 -0.5974
  139PROXS  H3213408  10.622  14.888  11.632  1.1404  0.8659  1.2470
  139PROXS  H3313409  10.589  14.759  11.759 -1.4788  0.2210  1.7272
  140PROXR   O113410  10.510  15.073  11.828 -0.5419 -0.8335  0.1617
  140PROXR   C113411  10.370  15.070  11.857 -0.3486  0.4322  0.4144
  140PROXR  H1113412  10.312  15.028  11.772 -1.0739  2.2213  0.0038
  140PROXR  H1313413  10.363  14.998  11.942  1.1501 -1.3476 -0.8768
  140PROXR   C213414  10.318  15.209  11.900  0.6239 -0.8863 -0.5908
  140PROXR  H2113415  10.313  15.274  11.810 -0.3135 -2.1969 -1.5271
  140PROXR   C313416  10.398  15.281  12.016  0.2255 -0.8131  0.0637
  140PROXR  H3113417  10.500  15.306  11.982 -0.1612  1.2403  0.3351
  140PROXR  H3213418  10.342  15.375  12.032  1.8132 -0.0908  1.6485
  140PROXR  H3313419  10.412  15.218  12.106 -0.2563  0.0806  0.7709
  141PROXS   O113420  10.190  15.197  11.953 -0.6117  0.3513 -0.2012
  141PROXS   C113421  10.089  15.177  11.857 -0.0411  0.1301 -1.2439
  141PROXS  H1113422  10.101  15.252  11.776  0.1749  1.2700 -0.1842
  141PROXS  H1313423  10.101  15.074  11.817  0.3593 -0.5761  0.5727
  141PROXS   C213424   9.950  15.183  11.921 -0.2949  0.7692 -0.1275
  141PROXS  H2113425   9.947  15.165  12.031  0.2999 -1.3209 -0.4085
  141PROXS   C313426   9.846  15.075  11.869 -0.2944 -0.5592  0.1832
  141PROXS  H3113427   9.839  15.078  11.758  0.9764 -0.1127  0.1056
  141PROXS  H3213428   9.863  14.968  11.895 -0.9680 -0.7727 -0.2107
  141PROXS  H3313429   9.748  15.096  11.917 -0.4045  1.6021 -0.8846
  142PROXS   O113430   9.899  15.312  11.893 -0.0178  0.9005  0.1938
  142PROXS   C113431   9.965  15.414  11.969 -1.3611  0.9351 -0.7380
  142PROXS  H1113432   9.998  15.376  12.067  0.1354  0.8162 -1.2642
  142PROXS  H1313433  10.057  15.446  11.916 -1.7846  2.6955 -0.4772
  142PROXS   C213434   9.875  15.532  12.001  0.3198  0.3943 -0.2612
  142PROXS  H2113435   9.773  15.493  12.020  0.4121  1.0693  1.8290
  142PROXS   C313436   9.875  15.622  11.879  1.0454  0.0458 -0.3121
  142PROXS  H3113437   9.831  15.565  11.794  0.4025  2.7753 -1.9298
  142PROXS  H3213438   9.803  15.707  11.888  1.3319  0.1807  0.7286
  142PROXS  H3313439   9.972  15.666  11.847  1.1370 -1.5135 -2.4312
  143PROXS   O113440   9.932  15.603  12.112 -0.4115  0.0275 -0.1494
  143PROXS   C113441   9.847  15.706  12.164 -0.7234  0.8960 -0.8705
  143PROXS  H1113442   9.857  15.791  12.093 -0.3476  1.6876  0.1051
  143PROXS  H1313443   9.748  15.656  12.170  0.3753 -1.3559 -0.6228
  143PROXS   C213444   9.907  15.741  12.306 -0.0157 -0.2853  0.6269
  143PROXS  H2113445   9.931  15.647  12.360  0.1096  0.7793  2.5262
  143PROXS   C313446   9.804  15.815  12.391  0.0869  0.4064  0.2336
  143PROXS  H3113447   9.778  15.915  12.351  2.0784  1.2749  0.9903
  143PROXS  H3213448   9.715  15.750  12.402  0.1727  0.1248 -0.6632
  143PROXS  H3313449   9.842  15.833  12.494  0.6609 -1.4905  0.3927
  144PROXS   O113450  10.024  15.828  12.296  0.3157  0.3201 -0.2554
  144PROXS   C113451  10.142  15.777  12.232 -0.1786  0.4268 -0.4965
  144PROXS  H1113452  10.137  15.666  12.224 -2.5313  0.6187 -3.1696
  144PROXS  H1313453  10.136  15.799  12.124  0.8707  0.5714 -0.5384
  144PROXS   C213454  10.280  15.819  12.291  0.5498  0.8569  0.3819
  144PROXS  H2113455  10.290  15.765  12.387 -0.8135  1.1873  0.7287
  144PROXS   C313456  10.299  15.970  12.330  0.0903  0.3589 -0.1242
  144PROXS  H3113457  10.240  15.981  12.424 -2.1945  1.0865 -1.5585
  144PROXS  H3213458  10.408  15.985  12.343  0.6620 -1.9471 -1.7448
  144PROXS  H3313459  10.258  16.034  12.249 -1.2146  0.1684  0.3573
  145PROXR   O113460  10.381  15.787  12.198  0.2089  0.2689  0.1619
  145PROXR   C113461  10.428  15.654  12.202 -0.3255 -0.4893  0.1326
  145PROXR  H1113462  10.461  15.623  12.303 -2.0851  0.3882  1.0161
  145PROXR  H1313463  10.344  15.590  12.167 -0.8250  0.8775 -1.2871
  145PROXR   C213464  10.554  15.644  12.107  0.2059  0.1465 -0.0693
  145PROXR  H2113465  10.629  15.717  12.144 -1.3129  0.9602  1.5254
  145PROXR   C313466  10.522  15.662  11.952 -0.8275  0.1704 -0.3773
  145PROXR  H3113467  10.438  15.594  11.926 -3.2658  2.5200  0.8864
  145PROXR  H3213468  10.493  15.766  11.926 -2.4341 -0.6308 -1.9609
  145PROXR  H3313469  10.619  15.632  11.906 -0.3934  1.8433 -0.6324
  146PROXS   O113470  10.619  15.516  12.126  0.3913  0.7158 -0.5021
  146PROXS   C113471  10.761  15.517  12.122  0.0704 -1.1718  0.1441
  146PROXS  H1113472  10.801  15.559  12.027  1.6540 -1.1967  0.7686
  146PROXS  H1313473  10.809  15.571  12.206  1.4833 -0.2594 -1.1759
  146PROXS   C213474  10.811  15.365  12.129  0.7545  0.9970 -0.9735
  146PROXS  H2113475  10.791  15.313  12.033 -2.0497  0.3542 -0.1304
  146PROXS   C313476  10.733  15.290  12.246 -0.6737  0.1738 -0.5945
  146PROXS  H3113477  10.638  15.249  12.204 -1.2969  1.3290 -0.3485
  146PROXS  H3213478  10.793  15.205  12.284  0.3099  1.1367  0.0747
  146PROXS  H3313479  10.707  15.364  12.324  2.5035  0.6517  0.1563
  147PROXR   O113480  10.942  15.359  12.175  0.8815 -0.0633 -0.0993
  147PROXR   C113481  11.039  15.375  12.072 -0.1776 -0.0156  0.0327
  147PROXR  H1113482  11.008  15.326  11.978  0.8663  3.5013 -2.3204
  147PROXR  H1313483  11.035  15.482  12.043 -3.2485 -0.5882 -2.1043
  147PROXR   C213484  11.173  15.328  12.121 -0.4105  0.1226  0.2368
  147PROXR  H2113485  11.164  15.227  12.167 -0.6880 -1.2778 -2.6436
  147PROXR   C313486  11.227  15.416  12.237  0.2123 -0.6703  0.4166
  147PROXR  H3113487  11.321  15.374  12.279  0.1859 -1.4205 -0.2466
  147PROXR  H3213488  11.249  15.515  12.190  0.2570 -1.0988 -0.4944
  147PROXR  H3313489  11.152  15.460  12.305 -1.1097 -0.0107 -1.3776
  148PROXR   O113490  11.260  15.325  12.011 -0.2197  0.4604  0.3812
  148PROXR   C113491  11.252  15.192  11.949 -0.2461  0.0550  0.1069
  148PROXR  H1113492  11.297  15.119  12.019  0.4871 -0.6430 -1.0547
  148PROXR  H1313493  11.147  15.167  11.922  0.2173 -1.6463 -0.2106
  148PROXR   C213494  11.339  15.191  11.823 -0.0016 -0.1644  0.0097
  148PROXR  H2113495  11.436  15.240  11.846  0.6977 -2.0200  1.2388
  148PROXR   C313496  11.273  15.275  11.706 -0.1126 -0.2925 -0.2793
  148PROXR  H3113497  11.169  15.245  11.683  0.1199 -1.8867  0.5831
  148PROXR  H3213498  11.284  15.385  11.712 -1.3238 -0.2422  2.9531
  148PROXR  H3313499  11.335  15.256  11.616  0.1005  0.8881 -0.3973
  149PROXR   O113500  11.367  15.061  11.783  0.6097 -0.1841  0.4352
  149PROXR   C113501  11.491  15.052  11.722  0.1712 -0.0180  0.0504
  149PROXR  H1113502  11.498  15.121  11.635 -0.3402 -0.6080 -0.4741
  149PROXR  H1313503  11.575  15.068  11.793 -1.0882  1.2061  1.3282
  149PROXR   C213504  11.500  14.913  11.655  0.9165  0.0822 -0.0022
  149PROXR  H2113505  11.405  14.899  11.600  1.7628 -1.5616 -1.1267
  149PROXR   C313506  11.506  14.810  11.770  0.6983  0.0156  0.3288
  149PROXR  H3113507  11.606  14.828  11.816  0.0857  0.1701  1.6652
  149PROXR  H3213508  11.430  14.829  11.849  0.4672  2.4991 -0.3880
  149PROXR  H3313509  11.493  14.704  11.743 -0.2328 -0.0944  1.1269
  150PROXS   O113510  11.608  14.904  11.563 -0.1897 -0.0915  0.0442
  150PROXS   C113511  11.585  14.795  11.474 -0.5233 -0.0051 -0.1668
  150PROXS  H1113512  11.551  14.702  11.525  1.4226 -0.3691  0.5364
  150PROXS  H1313513  11.509  14.825  11.398  0.3168  0.9504 -0.6519
  150PROXS   C213514  11.723  14.778  11.402  0.0458  0.2510  0.3358
  150PROXS  H2113515  11.803  14.779  11.480  0.0379 -2.5340  0.4667
  150PROXS   C313516  11.745  14.904  11.308  0.1488  0.0477 -0.4257
  150PROXS  H3113517  11.725  14.998  11.364  1.1211  0.6577 -1.0827
  150PROXS  H3213518  11.851  14.905  11.275  0.1690  0.3464 -0.3577
  150PROXS  H3313519  11.673  14.888  11.225  0.6081 -3.5296 -0.2738
  151PROXR   O113520  11.720  14.663  11.319  0.7231 -0.1111  0.6834
  151PROXR   C113521  11.844  14.626  11.260  0.0962 -0.2126 -0.0919
  151PROXR  H1113522  11.867  14.692  11.173 -1.3289 -0.2535 -0.5184
  151PROXR  H1313523  11.923  14.636  11.337 -0.0466 -0.4040  0.0793
  151PROXR   C213524  11.847  14.479  11.213 -0.3765 -0.2246 -0.4711
  151PROXR  H2113525  11.760  14.448  11.150  0.2472 -0.5410 -1.1901
  151PROXR   C313526  11.844  14.392  11.333  0.2785  0.0298  0.5260
  151PROXR  H3113527  11.905  14.418  11.422  2.4734 -2.6927 -0.0340
  151PROXR  H3213528  11.735  14.383  11.356 -0.3335  1.1834 -1.6843
  151PROXR  H3313529  11.881  14.292  11.303  0.9490  0.4926 -0.2048
  152PROXR   O113530  11.970  14.450  11.144  0.2779 -0.3819 -0.2096
  152PROXR   C113531  11.975  14.498  11.015 -0.5470  0.6209  0.2585
  152PROXR  H1113532  11.971  14.609  11.014 -2.0267  0.5926 -0.2859
  152PROXR  H1313533  12.075  14.465  10.978  0.4918  1.4726  2.1659
  152PROXR   C213534  11.858  14.430  10.929  0.2488  0.7958  0.1004
  152PROXR  H2113535  11.759  14.445  10.976  0.6571  0.3539  1.1364
  152PROXR   C313536  11.876  14.280  10.920  0.4186  0.4417 -0.0251
  152PROXR  H3113537  11.882  14.214  11.009 -0.6222 -1.0140 -0.9881
  152PROXR  H3213538  11.789  14.237  10.866 -0.2210  0.0545  1.2850
  152PROXR  H3313539  11.972  14.254  10.871  0.1661 -2.7944  1.0084
  153PROXR   O113540  11.853  14.480  10.796 -0.3008 -0.3014 -0.0103
  153PROXR   C113541  11.729  14.466  10.739 -0.3871 -0.3891  0.2159
  153PROXR  H1113542  11.711  14.365  10.698  0.8771 -1.0674  1.2734
  153PROXR  H1313543  11.650  14.486  10.815  0.3734 -0.5040  1.0392
  153PROXR   C213544  11.717  14.566  10.620  0.7132 -0.7947 -0.3683
  153PROXR  H2113545  11.608  14.569  10.600  0.7523 -1.4894 -0.7235
  153PROXR   C313546  11.790  14.533  10.497 -0.8813  0.3175  0.5811
  153PROXR  H3113547  11.900  14.542  10.506 -0.7398  2.3053 -1.9141
  153PROXR  H3213548  11.766  14.435  10.451 -1.8186 -0.3819  2.4547
  153PROXR  H3313549  11.763  14.609  10.420  3.0237 -0.1156 -1.4475
  154PROXS   O113550  11.765  14.693  10.664  0.0759 -0.0483  0.1627
  154PROXS   C113551  11.669  14.781  10.721 -0.0057 -0.3772 -0.0528
  154PROXS  H1113552  11.609  14.844  10.651 -1.7647  1.4847  2.8953
  154PROXS  H1313553  11.601  14.722  10.786  0.0142 -0.4668 -0.1140
  154PROXS   C213554  11.737  14.877  10.818 -0.2343  0.0244  0.7271
  154PROXS  H2113555  11.811  14.935  10.759  0.2085  0.7832  1.9759
  154PROXS   C313556  11.808  14.804  10.923 -0.6024  1.2315  0.0886
  154PROXS  H3113557  11.756  14.718  10.971  1.6864 -0.0644  0.3925
  154PROXS  H3213558  11.901  14.759  10.880  0.3411  1.1181  2.1362
  154PROXS  H3313559  11.850  14.864  11.006 -0.0332  0.4538  0.3777
  155PROXR   O113560  11.645  14.966  10.880  0.2319 -0.1693 -0.2896
  155PROXR   C113561  11.645  15.091  10.812  0.3314 -0.5821  0.0905
  155PROXR  H1113562  11.742  15.143  10.826 -0.2576 -0.1082  2.9879
  155PROXR  H1313563  11.635  15.058  10.706  1.7043 -0.9165  0.0464
  155PROXR   C213564  11.529  15.174  10.864  0.3230  0.1615  0.1493
  155PROXR  H2113565  11.553  15.277  10.830 -1.5611  0.4898 -0.3324
  155PROXR   C313566  11.525  15.177  11.021 -0.1441 -0.9139  0.2485
  155PROXR  H3113567  11.536  15.072  11.058  2.1299 -1.9380 -2.9332
  155PROXR  H3213568  11.613  15.237  11.051 -0.0838  0.0174 -1.6609
  155PROXR  H3313569  11.436  15.231  11.060  1.8568  2.1532  0.9054
  156PROXS   O113570  11.400  15.140  10.815  0.0830 -0.8390 -0.1861
  156PROXS   C113571  11.313  15.257  10.824  0.1973 -0.2658  0.2410
  156PROXS  H1113572  11.300  15.299  10.926 -1.3504 -0.5022  0.1673
  156PROXS  H1313573  11.355  15.331  10.752  1.3998 -2.0930 -1.0317
  156PROXS   C213574  11.173  15.208  10.780 -0.1676 -0.1158 -0.4017
  156PROXS  H2113575  11.170  15.158  10.681  1.0742  1.9765 -1.5671
  156PROXS   C313576  11.071  15.326  10.758  0.2463 -0.0418  0.2389
  156PROXS  H3113577  11.024  15.359  10.853 -1.3498 -2.5866  0.4367
  156PROXS  H3213578  11.126  15.408  10.707 -0.7093 -0.5168 -1.6176
  156PROXS  H3313579  10.987  15.288  10.696  0.2925  0.1169  0.0804
  157PROXS   O113580  11.136  15.116  10.883 -0.0857 -0.1238 -0.9435
  157PROXS   C113581  11.002  15.060  10.875  0.3765 -0.3704 -0.3814
  157PROXS  H1113582  10.921  15.136  10.886  1.7845  1.2126 -0.5432
  157PROXS  H1313583  10.993  15.009  10.777  1.7442  2.1699 -1.9458
  157PROXS   C213584  10.988  14.966  10.996 -0.4615  0.0031 -0.0929
  157PROXS  H2113585  11.014  15.018  11.091 -3.1090  0.9827  0.1857
  157PROXS   C313586  11.083  14.854  10.956  0.4255  0.2950 -0.7416
  157PROXS  H3113587  11.041  14.813  10.862 -1.0106 -0.6348  0.2572
  157PROXS  H3213588  11.184  14.899  10.945  0.6471  0.2023  0.6834
  157PROXS  H3313589  11.082  14.773  11.032 -0.5531  2.7498  2.1183
  158PROXR   O113590  10.860  14.898  11.003 -0.3412  0.1733 -0.0487
  158PROXR   C113591  10.755  14.981  11.066 -0.9115  0.5524  0.0269
  158PROXR  H1113592  10.805  15.040  11.146  2.1561 -0.5941 -0.9110
  158PROXR  H1313593  10.708  15.051  10.993 -1.4478  0.6158  0.4285
  158PROXR   C213594  10.646  14.889  11.135 -0.0345  0.3130 -0.4403
  158PROXR  H2113595  10.693  14.836  11.221 -1.9617  1.8687  1.7126
  158PROXR   C313596  10.586  14.780  11.047  0.2338  0.4141 -0.2290
  158PROXR  H3113597  10.671  14.726  11.002 -0.8110  0.6012 -2.5940
  158PROXR  H3213598  10.504  14.722  11.093  1.4005 -1.9507 -1.0108
  158PROXR  H3313599  10.541  14.830  10.958 -1.7773 -1.6579 -0.4733
  159PROXR   O113600  10.539  14.970  11.184  0.5449 -0.1718 -0.4084
  159PROXR   C113601  10.463  14.906  11.290 -0.1040  0.2241 -0.0176
  159PROXR  H1113602  10.398  14.833  11.238  0.5421  0.6591 -1.4618
  159PROXR  H1313603  10.526  14.856  11.367  0.8042 -1.8599 -2.0031
  159PROXR   C213604  10.371  15.014  11.353  0.0664  0.4003 -0.4114
  159PROXR  H2113605  10.323  15.072  11.272 -0.4765  2.1962  1.1184
  159PROXR   C313606  10.434  15.130  11.431 -0.2699 -0.0676 -0.4977
  159PROXR  H3113607  10.457  15.099  11.536  0.5625 -2.5424 -1.3292
  159PROXR  H3213608  10.512  15.175  11.367 -0.2233  2.0269  0.9222
  159PROXR  H3313609  10.344  15.194  11.445 -1.6391 -1.5503 -2.1052
  160PROXS   O113610  10.276  14.956  11.438  0.1913  0.3030  0.0259
  160PROXS   C113611  10.177  14.885  11.371 -0.4184 -0.5719 -0.1316
  160PROXS  H1113612  10.132  14.950  11.293 -1.9449 -1.0688  0.3003
  160PROXS  H1313613  10.208  14.785  11.333  1.3249 -0.3642  0.6359
  160PROXS   C213614  10.058  14.862  11.471 -0.2838  0.9817  0.4246
  160PROXS  H2113615  10.001  14.958  11.469 -0.5627  0.8326 -1.6598
  160PROXS   C313616  10.102  14.835  11.613  0.2456  0.0356  0.5922
  160PROXS  H3113617  10.116  14.726  11.633  2.3934  0.6396  2.8606
  160PROXS  H3213618  10.198  14.884  11.641  0.7890 -1.6318  1.8388
  160PROXS  H3313619  10.021  14.875  11.678  0.3231 -0.2198  0.8480
  161PROXR   O113620   9.979  14.757  11.414  0.6253  0.0803 -0.5161
  161PROXR   C113621   9.855  14.741  11.484  0.0883  0.4115  0.2742
  161PROXR  H1113622   9.844  14.639  11.527 -0.5814 -0.9164 -2.7329
  161PROXR  H1313623   9.845  14.811  11.569  0.6886  0.8625 -0.0208
  161PROXR   C213624   9.733  14.775  11.392  0.5472 -0.0954 -0.0664
  161PROXR  H2113625   9.727  14.711  11.301 -1.7074  0.7511 -0.5923
  161PROXR   C313626   9.738  14.924  11.353 -0.3266  0.5260 -0.2595
  161PROXR  H3113627   9.800  14.955  11.266 -2.3571  2.8257 -1.0030
  161PROXR  H3213628   9.633  14.956  11.336 -1.3577 -1.7973  1.1752
  161PROXR  H3313629   9.773  14.979  11.442  1.6087 -0.9066 -0.0597
  162PROXR   O113630   9.614  14.757  11.468  0.0104 -0.1333 -0.1213
  162PROXR   C113631   9.506  14.762  11.384  0.1713  0.1738 -0.8607
  162PROXR  H1113632   9.465  14.865  11.396 -0.2398 -0.2197  1.8686
  162PROXR  H1313633   9.533  14.740  11.278  0.3013 -1.3710 -0.5259
  162PROXR   C213634   9.406  14.653  11.431 -0.1126  0.4713  0.5539
  162PROXR  H2113635   9.317  14.664  11.366 -0.1130 -0.1168  0.4501
  162PROXR   C313636   9.343  14.675  11.571  0.5646  0.5082 -0.6848
  162PROXR  H3113637   9.319  14.783  11.582 -2.1536 -0.2277  1.8056
  162PROXR  H3213638   9.251  14.613  11.583  1.3342 -0.7641 -1.1109
  162PROXR  H3313639   9.414  14.644  11.652 -2.5122 -0.9531  1.6927
  163PROXS   O113640   9.457  14.530  11.409  0.0409  0.0302 -0.0796
  163PROXS   C113641   9.364  14.430  11.353  0.2093 -0.1645 -0.9498
  163PROXS  H1113642   9.262  14.462  11.385  0.2480 -0.7348 -0.2507
  163PROXS  H1313643   9.364  14.426  11.242  1.1361 -0.1050 -0.9562
  163PROXS   C213644   9.395  14.292  11.409  0.7153  0.8968  0.3686
  163PROXS  H2113645   9.492  14.298  11.463  0.9339  0.3285  0.0504
  163PROXS   C313646   9.417  14.178  11.305  0.1349  0.1795 -0.0150
  163PROXS  H3113647   9.519  14.174  11.261  0.9373 -1.7365  1.8260
  163PROXS  H3213648   9.394  14.077  11.345 -2.4937 -0.2065 -2.2555
  163PROXS  H3313649   9.344  14.197  11.224  1.0060  0.5012 -0.7356
  164PROXR   O113650   9.298  14.241  11.499  0.1941  0.5308 -0.0618
  164PROXR   C113651   9.311  14.295  11.629  0.2589  0.1073 -1.0930
  164PROXR  H1113652   9.397  14.249  11.682 -0.5253  1.4426  1.4962
  164PROXR  H1313653   9.335  14.403  11.619 -2.1991  0.9928  1.4976
  164PROXR   C213654   9.181  14.268  11.716  0.0066 -0.3043  0.2162
  164PROXR  H2113655   9.161  14.158  11.713 -0.3375 -0.2222 -1.3857
  164PROXR   C313656   9.065  14.336  11.645  0.5721  0.6763 -0.2592
  164PROXR  H3113657   8.965  14.321  11.690  0.7662 -0.3151 -0.1554
  164PROXR  H3213658   9.088  14.445  11.643  2.5164  0.4982  3.4192
  164PROXR  H3313659   9.052  14.294  11.543 -0.0038 -2.1291  0.8972
  165PROXR   O113660   9.203  14.310  11.846  0.3863 -0.4165  0.2794
  165PROXR   C113661   9.098  14.298  11.947  0.7506 -0.4624  0.0307
  165PROXR  H1113662   9.010  14.347  11.901  1.3866 -0.5159 -1.2859
  165PROXR  H1313663   9.077  14.189  11.958  2.8360 -1.4687 -3.9149
  165PROXR   C213664   9.140  14.364  12.082  0.1777 -0.2767 -0.8363
  165PROXR  H2113665   9.183  14.460  12.049  0.4229 -0.0210  0.1962
  165PROXR   C313666   9.248  14.297  12.173 -0.5553 -0.1003 -0.3086
  165PROXR  H3113667   9.203  14.209  12.225  2.3482 -1.7023 -0.3004
  165PROXR  H3213668   9.338  14.269  12.115 -0.4267 -0.1911 -0.0702
  165PROXR  H3313669   9.294  14.357  12.255  2.4486 -1.4629 -0.8613
  166ETHOX   O113670   9.030  14.389  12.160  0.3150  0.0300  0.1889
  166ETHOX   C113671   9.041  14.483  12.268 -0.0234 -0.1864  0.3350
  166ETHOX  H1113672   9.120  14.553  12.236 -0.5984  0.7799  0.9823
  166ETHOX  H1313673   9.068  14.439  12.367  2.5742 -2.3492 -1.1671
  166ETHOX   C213674   8.917  14.571  12.276 -0.4417 -0.1292 -0.6426
  166ETHOX  H2113675   8.889  14.593  12.171 -2.1506  0.6392 -0.0510
  166ETHOX  H2313676   8.959  14.658  12.330  1.9961 -1.7157  0.2239
  167ETHOX   O113677   8.810  14.513  12.344 -0.1766  0.5052 -0.8437
  167ETHOX   C113678   8.683  14.577  12.325 -0.4909  0.4488  0.1672
  167ETHOX  H1113679   8.696  14.675  12.374 -1.7613  0.2214  0.9709
  167ETHOX  H1313680   8.663  14.598  12.217  0.2620  0.9781  0.1192
  167ETHOX   C213681   8.576  14.492  12.384 -0.6470  0.2632 -0.3036
  167ETHOX  H2113682   8.600  14.447  12.482  1.8371  1.1315 -0.4415
  167ETHOX  H2313683   8.540  14.413  12.315 -0.6396 -1.3461  1.4448
  168ETHOX   O113684   8.471  14.577  12.417 -0.0238 -0.0551  0.4345
  168ETHOX   C113685   8.363  14.508  12.482  0.2965  0.3413 -0.1009
  168ETHOX  H1113686   8.319  14.583  12.552 -0.1731  0.6445 -0.7177
  168ETHOX  H1313687   8.402  14.420  12.537 -0.9861 -0.5005 -0.5151
  168ETHOX   C213688   8.253  14.468  12.386 -0.6022  0.6674 -0.6769
  168ETHOX  H2113689   8.225  14.558  12.327 -0.3742  0.9790 -0.3168
  168ETHOX  H2313690   8.161  14.436  12.439  1.2148 -1.6085  1.3555
  169ETHOX   O113691   8.295  14.362  12.308 -0.4433  0.0969  0.0366
  169ETHOX   C113692   8.207  14.338  12.199  0.0899 -0.0309  0.3584
  169ETHOX  H1113693   8.106  14.320  12.241  0.2718  0.4003  0.9979
  169ETHOX  H1313694   8.193  14.433  12.143  0.4169  1.0759  2.0774
  169ETHOX   C213695   8.263  14.224  12.114 -0.0292 -0.2943 -0.0814
  169ETHOX  H2113696   8.190  14.182  12.042 -0.4786 -0.3921  0.4297
  169ETHOX  H2313697   8.283  14.138  12.182  0.7719  1.0948  1.5255
  170ETHOX   O113698   8.376  14.267  12.043 -0.4426  0.0695  0.7118
  170ETHOX   C113699   8.442  14.162  11.972 -0.6063  0.3969  1.0363
  170ETHOX  H1113700   8.492  14.089  12.039 -1.4133 -0.3963  0.8036
  170ETHOX  H1313701   8.519  14.204  11.904 -1.4407 -1.2496 -1.0373
  170ETHOX   C213702   8.348  14.077  11.875  0.4142 -0.4055  0.1936
  170ETHOX  H2113703   8.262  14.033  11.930 -1.2313  2.5338  0.1950
  170ETHOX  H2313704   8.404  13.990  11.835 -0.3991 -0.1071 -1.6924
  171ETHOX   O113705   8.315  14.152  11.760  0.7291  0.2508 -0.0451
  171ETHOX   C113706   8.213  14.079  11.691  0.1142  0.2854  0.2941
  171ETHOX  H1113707   8.260  13.982  11.662  0.0701  0.2320  0.4015
  171ETHOX  H1313708   8.134  14.054  11.765 -1.3590 -1.7334 -1.7886
  171ETHOX   C213709   8.171  14.155  11.568 -0.9153  0.6549  0.2266
  171ETHOX  H2113710   8.100  14.093  11.509  1.0869 -1.1649 -0.4006
  171ETHOX  H2313711   8.261  14.165  11.502 -0.2849 -0.0186  0.9659
  172ETHOX   O113712   8.125  14.283  11.603  0.2125 -0.0919  0.7338
  172ETHOX   C113713   8.151  14.384  11.495 -0.1071 -0.1631  0.0539
  172ETHOX  H1113714   8.090  14.350  11.409 -0.7588  0.2488  0.3358
  172ETHOX  H1313715   8.261  14.379  11.484  0.1721 -1.9574  2.5932
  172ETHOX   C213716   8.111  14.523  11.535  0.4726 -0.1487 -0.6727
  172ETHOX  H2113717   8.006  14.540  11.568  0.7783  0.7443 -0.1015
  172ETHOX  H2313718   8.111  14.606  11.461 -0.9091 -0.4756 -1.0590
  173ETHOX   O113719   8.192  14.563  11.640 -0.4226  0.4810 -0.0733
  173ETHOX   C113720   8.136  14.683  11.708 -0.0592 -0.2206  0.8638
  173ETHOX  H1113721   8.110  14.762  11.634  1.7003 -0.0189  0.4213
  173ETHOX  H1313722   8.043  14.653  11.760 -0.1554  0.6707  1.2157
  173ETHOX   C213723   8.232  14.750  11.805 -0.2286 -0.2670  0.1627
  173ETHOX  H2113724   8.174  14.837  11.844 -1.3842  0.1147 -2.2463
  173ETHOX  H2313725   8.244  14.678  11.889 -0.3058 -2.0748 -1.3070
  174ETHOX   O113726   8.358  14.793  11.750 -0.1888 -1.0851 -0.2295
  174ETHOX   C113727   8.439  14.869  11.839 -0.0644 -0.5197 -0.1992
  174ETHOX  H1113728   8.409  14.975  11.832 -0.0982 -0.5142  0.0181
  174ETHOX  H1313729   8.410  14.831  11.940 -0.7228  1.5894  0.4426
  174ETHOX   C213730   8.590  14.860  11.824 -0.7725  0.5544 -0.2923
  174ETHOX  H2113731   8.616  14.754  11.806 -0.9707 -0.0190  2.3731
  174ETHOX  H2313732   8.635  14.898  11.919 -1.9574 -0.2166  0.6047
  175ETHOX   O113733   8.638  14.947  11.719 -0.1108  0.0222  0.1110
  175ETHOX   C113734   8.781  14.945  11.719  0.2150  0.4820  0.1087
  175ETHOX  H1113735   8.819  14.971  11.821  0.6823  0.4262 -0.0485
  175ETHOX  H1313736   8.808  14.840  11.698  1.8582  0.6707  1.0987
  175ETHOX   C213737   8.840  15.032  11.613 -0.3046  0.1325 -0.8065
  175ETHOX  H2113738   8.822  14.980  11.517 -0.6509  0.1698 -0.7653
  175ETHOX  H2313739   8.951  15.033  11.616 -0.3023  1.6442 -0.5788
  176ETHOX   O113740   8.800  15.168  11.614 -0.5139  0.4589 -0.0493
  176ETHOX   C113741   8.849  15.244  11.501 -0.1176 -0.1411 -0.1446
  176ETHOX  H1113742   8.959  15.231  11.493 -0.2257 -1.0121 -0.3267
  176ETHOX  H1313743   8.807  15.197  11.410  1.4988 -0.9076 -0.5324
  176ETHOX   C213744   8.806  15.385  11.514  0.5083  0.4780  0.7817
  176ETHOX  H2113745   8.884  15.438  11.572 -3.2375  2.0007  5.0810
  176ETHOX  H2313746   8.715  15.388  11.579  0.4800  0.2724  0.7501
  177ETHOX   O113747   8.784  15.444  11.386 -0.0046 -0.4866 -0.3918
  177ETHOX   C113748   8.744  15.583  11.389 -0.1674  0.1543  0.3597
  177ETHOX  H1113749   8.676  15.594  11.476 -1.8743  0.4821 -0.9483
  177ETHOX  H1313750   8.680  15.599  11.299 -0.9656  0.2914  0.9355
  177ETHOX   C213751   8.857  15.692  11.395 -0.2921 -0.2657  0.3939
  177ETHOX  H2113752   8.825  15.796  11.378  0.0264 -0.0267  1.1941
  177ETHOX  H2313753   8.924  15.668  11.310 -2.1345  3.8828 -2.5649
  178ETHOX   O113754   8.925  15.684  11.518  0.8353 -0.7280  0.2702
  178ETHOX   C113755   9.040  15.758  11.528  0.0840 -0.1767 -0.0143
  178ETHOX  H1113756   9.028  15.865  11.500 -0.9597 -0.8015 -2.1519
  178ETHOX  H1313757   9.055  15.750  11.638 -0.4580 -1.3711 -0.0125
  178ETHOX   C213758   9.152  15.690  11.448  0.7910 -0.1618  0.4398
  178ETHOX  H2113759   9.140  15.579  11.448  0.3358 -0.1514  2.5094
  178ETHOX  H2313760   9.247  15.711  11.501  1.4972 -0.8523 -0.5017
  179ETHOX   O113761   9.174  15.751  11.317  0.0411 -0.0221 -0.3299
  179ETHOX   C113762   9.238  15.658  11.229 -0.3863  0.1125 -0.2790
  179ETHOX  H1113763   9.221  15.679  11.122  0.6494 -1.2651 -0.7467
  179ETHOX  H1313764   9.192  15.559  11.251  0.1099 -0.0462  0.0762
  179ETHOX   C213765   9.393  15.657  11.261  1.0961  0.6912  0.3047
  179ETHOX  H2113766   9.434  15.555  11.243 -0.7255 -0.3876  1.9470
  179ETHOX  H2313767   9.398  15.689  11.367  0.1602 -0.2609  0.6599
  180ETHOX   O113768   9.462  15.755  11.183  0.5312 -0.0881 -0.1255
  180ETHOX   C113769   9.594  15.756  11.241 -0.7035 -0.5301  0.1064
  180ETHOX  H1113770   9.596  15.798  11.344 -1.8710  0.8357 -0.3984
  180ETHOX  H1313771   9.645  15.657  11.250  0.6836  0.2849  2.0820
  180ETHOX   C213772   9.697  15.859  11.170 -0.5371  0.2545 -0.2765
  180ETHOX  H2113773   9.647  15.909  11.084 -0.0721  0.5135 -0.4025
  180ETHOX  H2313774   9.781  15.810  11.116  2.3807  1.1249  3.0860
  181ETHOX   O113775   9.752  15.956  11.258  0.3268 -0.5692  0.3819
  181ETHOX   C113776   9.798  16.083  11.203  0.5447 -0.7440  0.0128
  181ETHOX  H1113777   9.722  16.130  11.137  0.1013 -0.6866  0.5552
  181ETHOX  H1313778   9.890  16.064  11.144  1.8084 -0.6285  1.8559
  181ETHOX   C213779   9.851  16.177  11.299  0.1252 -0.6284  1.0173
  181ETHOX  H2113780   9.931  16.243  11.259 -1.0710  1.8822  2.4888
  181ETHOX  H2313781   9.906  16.120  11.377  3.8575 -1.0188 -1.5931
  182ETHOX   O113782   9.757  16.266  11.355  0.2443 -0.5900  0.3584
  182ETHOX   C113783   9.785  16.407  11.342 -0.4993  0.2752 -0.6102
  182ETHOX  H1113784   9.878  16.429  11.399 -1.3338  0.2192  0.8387
  182ETHOX  H1313785   9.786  16.440  11.236 -0.0503  1.6190 -0.2147
  182ETHOX   C213786   9.677  16.488  11.418  0.8594  0.1647 -0.4382
  182ETHOX  H2113787   9.682  16.454  11.523 -0.2755  0.8463 -0.1538
  182ETHOX  H2313788   9.576  16.465  11.379  0.5482 -0.2228  0.5736
  183ETHOX   O113789   9.721  16.624  11.406 -0.1703  0.4167 -0.0925
  183ETHOX   C113790   9.626  16.705  11.473 -0.0029  0.4677  0.8111
  183ETHOX  H1113791   9.643  16.693  11.583  2.1281 -0.6591  0.4295
  183ETHOX  H1313792   9.520  16.676  11.459 -0.1735  0.7098  1.5454
  183ETHOX   C213793   9.625  16.858  11.437  0.0150  0.2758 -0.2890
  183ETHOX  H2113794   9.721  16.891  11.482 -0.2476 -0.5099  0.8772
  183ETHOX  H2313795   9.540  16.899  11.495  0.0687 -0.5436  0.3836
  184ETHOX   O113796   9.602  16.888  11.295  0.2505 -0.4136  0.1315
  184ETHOX   C113797   9.591  17.035  11.284  0.4040  0.2597  0.4713
  184ETHOX  H1113798   9.514  17.071  11.356 -0.7445  0.0519 -0.6224
  184ETHOX  H1313799   9.692  17.079  11.288  0.6793 -0.3414  0.3357
  184ETHOX   C213800   9.542  17.074  11.144 -0.2331 -0.3878 -0.0220
  184ETHOX  H2113801   9.609  17.031  11.067  2.0072 -0.0789  1.6641
  184ETHOX  H2313802   9.556  17.184  11.141 -0.3387 -0.3796 -2.3335
  185ETHOX   O113803   9.404  17.036  11.135  0.4297 -0.4342 -0.0041
  185ETHOX   C113804   9.347  17.064  11.002  0.5206  0.6650 -0.6252
  185ETHOX  H1113805   9.343  17.171  10.972  0.9380  1.0311  0.5538
  185ETHOX  H1313806   9.413  17.011  10.930 -2.4731 -0.2136 -2.9086
  185ETHOX   C213807   9.209  17.001  10.992  0.6177  0.7194 -0.1133
  185ETHOX  H2113808   9.212  16.897  11.029 -1.6026  0.1560 -1.2936
  185ETHOX  H2313809   9.171  16.990  10.888 -0.9965 -0.5384  0.5699
  186ETHOX   O113810   9.112  17.064  11.072 -0.7752 -0.3097  0.0196
  186ETHOX   C113811   8.995  16.982  11.074 -0.7238 -0.0480 -0.1526
  186ETHOX  H1113812   8.975  16.954  10.969 -2.5471 -2.5802  0.7652
  186ETHOX  H1313813   9.007  16.890  11.135 -1.7657  1.0248  1.7970
  186ETHOX   C213814   8.878  17.061  11.135  0.1908  0.3524  0.5079
  186ETHOX  H2113815   8.788  16.997  11.130 -0.3232  0.9938  1.3969
  186ETHOX  H2313816   8.857  17.152  11.076 -1.8889  0.5620  1.4957
  187ETHOX   O113817   8.904  17.104  11.264 -0.0489  0.0742 -0.1676
  187ETHOX   C113818   8.792  17.169  11.319  0.1629 -0.4745 -0.2272
  187ETHOX  H1113819   8.761  17.241  11.240 -1.1337 -0.8983 -0.1397
  187ETHOX  H1313820   8.718  17.090  11.346  0.8202 -0.8494  0.4942
  187ETHOX   C213821   8.836  17.238  11.449 -0.3122  0.0878 -0.3675
  187ETHOX  H2113822   8.759  17.311  11.484 -2.9679 -1.5528 -2.3670
  187ETHOX  H2313823   8.928  17.294  11.421 -0.0999 -0.5744 -1.0372
  188ETHOX   O113824   8.872  17.140  11.540 -0.0224 -0.3762  0.0819
  188ETHOX   C113825   8.902  17.185  11.671  0.4519  0.0865  0.1998
  188ETHOX  H1113826   8.811  17.230  11.715  0.0222 -0.9829  0.4524
  188ETHOX  H1313827   8.960  17.279  11.672 -2.0580  1.7607  2.7780
  188ETHOX   C213828   8.953  17.084  11.766  0.4553 -0.2621 -0.1550
  188ETHOX  H2113829   9.043  17.038  11.720  0.8234  0.9019 -0.6385
  188ETHOX  H2313830   8.868  17.014  11.781 -0.0559  0.3061 -0.3743
  189ETHOX   O113831   8.986  17.160  11.883 -0.4094 -0.1546 -0.0505
  189ETHOX   C113832   8.977  17.083  12.002 -0.2723  0.2367 -0.1729
  189ETHOX  H1113833   8.869  17.062  12.020 -0.5954  1.4382 -0.6179
  189ETHOX  H1313834   9.033  16.989  11.982  0.6175  1.1123 -2.0020
  189ETHOX   C213835   9.045  17.156  12.115 -0.0365 -0.4703 -0.0532
  189ETHOX  H2113836   9.031  17.107  12.214  0.1234 -1.4074 -0.4780
  189ETHOX  H2313837   8.996  17.255  12.127  1.4849  0.1918  0.9809
  190ETHOX   O113838   9.186  17.166  12.081 -0.2329  0.0788 -0.4351
  190ETHOX   C113839   9.254  17.235  12.180  0.3308  0.3514  0.6553
  190ETHOX  H1113840   9.255  17.176  12.273  1.8265  1.1770  1.1916
  190ETHOX  H1313841   9.185  17.318  12.208 -1.5262 -0.2873 -1.7015
  190ETHOX   C213842   9.387  17.296  12.141 -0.5233  0.0245  0.9871
  190ETHOX  H2113843   9.414  17.378  12.210 -2.1348  2.4819 -1.1002
  190ETHOX  H2313844   9.385  17.338  12.038  3.5377  0.5148  0.9447
  191ETHOX   O113845   9.498  17.209  12.137 -0.2154  0.0455 -0.9884
  191ETHOX   C113846   9.620  17.284  12.133  0.1801  0.0058 -0.2707
  191ETHOX  H1113847   9.632  17.352  12.045  1.4380 -0.2024 -0.2676
  191ETHOX  H1313848   9.636  17.333  12.231 -0.9447 -0.9160  0.4021
  191ETHOX   C213849   9.747  17.186  12.112 -0.3717 -0.1632 -0.4399
  191ETHOX  H2113850   9.834  17.253  12.098 -1.9295  1.9112 -0.6122
  191ETHOX  H2313851   9.729  17.132  12.017 -1.1585  0.3131 -0.5704
  192ETHOX   O113852   9.756  17.078  12.208 -0.1165 -0.4983  0.0443
  192ETHOX   C113853   9.887  17.022  12.203 -0.3369  0.0815 -0.4341
  192ETHOX  H1113854   9.960  17.088  12.253  0.3021 -1.2217  0.4290
  192ETHOX  H1313855   9.914  16.999  12.098  0.6382 -0.6157 -0.0500
  192ETHOX   C213856   9.879  16.899  12.299  0.3107 -0.6849  0.4653
  192ETHOX  H2113857   9.981  16.855  12.297  1.6843  2.2534  0.0708
  192ETHOX  H2313858   9.799  16.834  12.257  0.6845 -1.3039  0.7073
  193ETHOX   O113859   9.841  16.937  12.435 -0.6457 -0.0214  0.0413
  193ETHOX   C113860   9.848  16.827  12.529 -0.0321 -0.0254 -0.2981
  193ETHOX  H1113861   9.792  16.861  12.619 -0.9720 -1.2845 -0.3822
  193ETHOX  H1313862   9.791  16.741  12.489  0.8253 -0.8685  0.2456
  193ETHOX   C213863   9.987  16.792  12.583 -0.0400 -1.1523  0.8363
  193ETHOX  H2113864   9.975  16.749  12.685 -0.3892  1.7254  2.1086
  193ETHOX  H2313865  10.030  16.895  12.590 -0.8536 -0.7012 -0.3598
  194ETHOX   O113866  10.052  16.714  12.490 -0.6400  0.3657  0.3390
  194ETHOX   C113867  10.197  16.702  12.508  0.3518 -0.2948 -0.4732
  194ETHOX  H1113868  10.236  16.799  12.545  0.4962  0.0715 -1.5742
  194ETHOX  H1313869  10.234  16.687  12.405 -1.5586  0.9229 -1.3864
  194ETHOX   C213870  10.249  16.589  12.597 -0.1811 -0.1208 -0.0477
  194ETHOX  H2113871  10.359  16.582  12.587 -0.2170  0.8320 -1.5984
  194ETHOX  H2313872  10.206  16.489  12.574 -2.2121 -0.4341  4.1960
  195ETHOX   O113873  10.223  16.607  12.739  0.3256 -0.4139 -0.0085
  195ETHOX   C113874  10.290  16.507  12.809  0.8420 -0.3452  0.2747
  195ETHOX  H1113875  10.213  16.449  12.865  0.8404 -0.4049  0.2101
  195ETHOX  H1313876  10.338  16.431  12.743  3.0101 -1.0067  2.4325
  195ETHOX   C213877  10.392  16.565  12.907  0.1246 -0.2101 -0.0055
  195ETHOX  H2113878  10.417  16.475  12.968  2.5109  0.1695 -0.3307
  195ETHOX  H2313879  10.346  16.649  12.964 -2.0428 -0.3679 -1.4282
  196ETHOX   O113880  10.509  16.605  12.845  0.0617 -0.2596 -0.1774
  196ETHOX   C113881  10.613  16.619  12.942  0.0894 -0.6080 -0.0661
  196ETHOX  H1113882  10.590  16.697  13.018 -0.9136  0.7769 -1.7294
  196ETHOX  H1313883  10.612  16.522  12.996 -0.7284 -1.2100 -1.1370
  196ETHOX   C213884  10.747  16.644  12.881 -0.3662  0.4445  0.0118
  196ETHOX  H2113885  10.791  16.559  12.823 -1.1423  0.7584 -1.0636
  196ETHOX  H2313886  10.809  16.663  12.971  1.3884 -2.2083 -0.5178
  197ETHOX   O113887  10.752  16.770  12.813 -0.1286  0.4151  0.0171
  197ETHOX   C113888  10.704  16.763  12.677 -0.5354  0.5717 -0.0273
  197ETHOX  H1113889  10.770  16.698  12.615  0.6789  2.1315 -0.4486
  197ETHOX  H1313890  10.599  16.727  12.678 -0.6244  0.8364  0.6383
  197ETHOX   C213891  10.698  16.898  12.609  0.3745 -0.6731  0.2061
  197ETHOX  H2113892  10.798  16.946  12.605  0.0253  0.0604  0.1510
  197ETHOX  H2313893  10.647  16.959  12.687 -0.2895 -0.9073 -0.0415
  198ETHOX   O113894  10.635  16.899  12.482  0.0623 -0.2416 -0.2430
  198ETHOX   C113895  10.626  17.034  12.434  0.0851  0.2918  0.6272
  198ETHOX  H1113896  10.600  17.106  12.515 -1.4181  1.7370 -1.0301
  198ETHOX  H1313897  10.730  17.065  12.412 -0.0315  0.6670  0.5938
  198ETHOX   C213898  10.541  17.047  12.305 -1.0134  0.5346 -0.3792
  198ETHOX  H2113899  10.561  16.945  12.266 -0.7323  0.2140  0.5682
  198ETHOX  H2313900  10.584  17.112  12.225  0.8444  0.4215  0.4753
  199ETHOX   O113901  10.398  17.060  12.320 -0.3608 -0.3640 -0.0953
  199ETHOX   C113902  10.365  17.198  12.326 -0.7772  0.2108 -0.6855
  199ETHOX  H1113903  10.405  17.246  12.234  0.7558 -0.3028 -0.3184
  199ETHOX  H1313904  10.410  17.242  12.418  0.5081  0.3382 -1.3450
  199ETHOX   C213905  10.211  17.230  12.337 -0.0161 -0.3870  0.6325
  199ETHOX  H2113906  10.165  17.167  12.257  4.0360 -0.2443 -2.1226
  199ETHOX  H2313907  10.189  17.336  12.312  0.4941 -0.5890 -0.8039
  200ETHOX   O113908  10.161  17.192  12.463 -0.5974  0.6879 -0.6827
  200ETHOX   C113909  10.037  17.251  12.486 -0.7101  0.1153 -0.5024
  200ETHOX  H1113910  10.067  17.356  12.504 -0.9203 -0.3254  3.0055
  200ETHOX  H1313911   9.972  17.234  12.397 -0.5607  0.8249 -0.7526
  200ETHOX   C213912   9.958  17.211  12.610 -0.2194  0.0198 -0.4020
  200ETHOX  H2113913   9.969  17.101  12.618  3.2747  0.3946  3.1361
  200ETHOX  H2313914   9.851  17.233  12.589 -0.4203  0.0882  0.6288
  201ETHOX   O113915  10.006  17.272  12.729  0.6867 -0.2290 -0.3025
  201ETHOX   C113916  10.033  17.180  12.836  0.2449 -0.0156  0.6541
  201ETHOX  H1113917  10.109  17.106  12.803  0.1549 -0.1842  0.8222
  201ETHOX  H1313918   9.947  17.110  12.840  0.5966 -0.4249  1.1284
  201ETHOX   C213919  10.068  17.250  12.964 -0.3147  0.4651  0.6103
  201ETHOX  H2113920  10.074  17.173  13.044 -0.4913 -0.9246 -0.6634
  201ETHOX  H2313921   9.997  17.333  12.983  0.6543  1.1104  1.4737
  202ETHOX   O113922  10.200  17.306  12.963  0.2226 -0.1827  0.3753
  202ETHOX   C113923  10.230  17.364  13.086  0.1903  0.2116 -0.5344
  202ETHOX  H1113924  10.135  17.373  13.143 -0.2692  1.6196 -1.4817
  202ETHOX  H1313925  10.299  17.291  13.132  1.0241  0.8798 -0.7145
  202ETHOX   C213926  10.279  17.505  13.058  0.4008  0.2986 -0.5788
  202ETHOX  H2113927  10.356  17.506  12.978  0.4184  0.7911 -0.5560
  202ETHOX  H2313928  10.319  17.545  13.153 -2.5686 -0.8487  1.2880
  203ETHOX   O113929  10.172  17.579  13.000  0.3438  0.1078  0.3113
  203ETHOX   C113930  10.087  17.642  13.099 -0.5028 -0.0950 -0.0688
  203ETHOX  H1113931  10.142  17.708  13.170 -0.2720 -0.9095  0.5165
  203ETHOX  H1313932  10.028  17.566  13.154 -0.2364 -0.3894 -0.1874
  203ETHOX   C213933   9.988  17.734  13.045 -0.0255  0.0162  0.3683
  203ETHOX  H2113934   9.914  17.689  12.975  1.0375  1.7947 -2.0269
  203ETHOX  H2313935  10.043  17.813  12.990 -0.9581  0.4088 -0.0289
  204ETHOX   O113936   9.919  17.799  13.155 -0.3958  0.0675 -0.2958
  204ETHOX   C113937   9.791  17.857  13.118 -0.4155 -0.3671  0.4536
  204ETHOX  H1113938   9.818  17.946  13.058 -0.6054  0.5703  1.7260
  204ETHOX  H1313939   9.737  17.786  13.051 -0.6961 -0.8433  1.1697
  204ETHOX   C213940   9.697  17.874  13.236 -0.6360  0.3018  0.8355
  204ETHOX  H2113941   9.631  17.961  13.220 -1.8063 -0.3643  1.8872
  204ETHOX  H2313942   9.761  17.902  13.322  0.7998  2.3564 -0.7957
  205ETHOX   O113943   9.623  17.759  13.269  0.1966  0.7698  0.2856
  205ETHOX   C113944   9.539  17.787  13.378 -0.0425 -0.1008 -0.1358
  205ETHOX  H1113945   9.451  17.720  13.374 -1.5242  1.3877  3.2681
  205ETHOX  H1313946   9.514  17.895  13.376  0.6505  0.1473  1.7539
  205ETHOX   C213947   9.613  17.770  13.514 -0.2984 -1.1502  0.5843
  205ETHOX  H2113948   9.534  17.775  13.591  0.3398 -0.2550  1.2051
  205ETHOX  H2313949   9.682  17.855  13.536  0.4775 -1.3113 -1.0691
  206ETHOX   O113950   9.682  17.642  13.536 -0.2598 -0.3487  0.9605
  206ETHOX   C113951   9.741  17.641  13.664 -0.0848 -0.2226  0.4844
  206ETHOX  H1113952   9.825  17.715  13.657 -2.3751  2.4679 -0.4586
  206ETHOX  H1313953   9.666  17.679  13.736  0.9455  1.3214  0.7981
  206ETHOX   C213954   9.794  17.503  13.705 -0.5111 -0.3761  0.0151
  206ETHOX  H2113955   9.857  17.510  13.797 -0.6088 -0.8103  0.1166
  206ETHOX  H2313956   9.708  17.435  13.720 -2.3538  2.1019  1.3509
  207ETHOX   O113957   9.878  17.461  13.595 -0.3799 -0.0527  0.1914
  207ETHOX   C113958   9.921  17.328  13.602 -0.2334 -0.2004 -0.0695
  207ETHOX  H1113959   9.851  17.253  13.559  1.1410 -0.2413 -2.4063
  207ETHOX  H1313960   9.959  17.302  13.703  1.1427 -0.1065 -0.5377
  207ETHOX   C213961  10.036  17.322  13.497  0.0210 -0.2802 -0.2991
  207ETHOX  H2113962  10.001  17.349  13.396  0.2869  0.0658 -0.2987
  207ETHOX  H2313963  10.073  17.217  13.498 -1.0703 -0.6965  1.1913
  208ETHOX   O113964  10.135  17.418  13.533  0.1032  0.2049  0.3718
  208ETHOX   C113965  10.229  17.423  13.428 -0.5698 -0.0613 -0.0870
  208ETHOX  H1113966  10.279  17.325  13.413 -1.4038 -0.6201  0.7119
  208ETHOX  H1313967  10.179  17.438  13.330 -0.4903  1.9275  0.1270
  208ETHOX   C213968  10.328  17.534  13.453 -0.5794 -1.1706  0.3628
  208ETHOX  H2113969  10.401  17.521  13.371 -1.7159  3.6610 -1.7778
  208ETHOX  H2313970  10.378  17.524  13.552  0.2630  1.0369  0.2038
  209ETHOX   O113971  10.274  17.662  13.433 -0.6414  0.5924 -0.0388
  209ETHOX   C113972  10.367  17.767  13.451  0.5605  0.0682  0.0578
  209ETHOX  H1113973  10.445  17.765  13.372 -1.1747  0.3537 -1.7351
  209ETHOX  H1313974  10.415  17.763  13.551  0.2204  0.1572  0.2284
  209ETHOX   C213975  10.293  17.900  13.438 -0.2787 -0.7516 -0.1619
  209ETHOX  H2113976  10.351  17.992  13.460 -1.8844  0.4338 -0.7404
  209ETHOX  H2313977  10.212  17.898  13.514 -0.1773 -0.9499 -0.0555
  210ETHOX   O113978  10.243  17.923  13.299 -0.5250 -0.2439 -0.0316
  210ETHOX   C113979  10.196  18.053  13.284  0.3749 -0.1203  0.5205
  210ETHOX  H1113980  10.110  18.071  13.352 -0.5169 -0.8544 -0.3701
  210ETHOX  H1313981  10.282  18.121  13.300  0.0591  0.5329 -0.4544
  210ETHOX   C213982  10.162  18.073  13.133 -0.0576  0.7581 -0.1070
  210ETHOX  H2113983  10.123  18.175  13.117 -0.2919  0.7342  0.3120
  210ETHOX  H2313984  10.085  17.993  13.122 -0.0554  0.3140  2.3824
  211ETHOX   O113985  10.282  18.063  13.058  0.0191 -0.5425  0.0213
  211ETHOX   C113986  10.265  18.049  12.920 -0.3924 -0.1403 -1.1841
  211ETHOX  H1113987  10.231  17.948  12.888 -2.6249  0.2210 -0.1596
  211ETHOX  H1313988  10.189  18.121  12.882  0.1113  1.0392 -0.0368
  211ETHOX   C213989  10.394  18.073  12.854  0.6874 -0.0136  0.4732
  211ETHOX  H2113990  10.442  18.169  12.884  1.0550  1.3468 -3.7964
  211ETHOX  H2313991  10.382  18.088  12.745 -0.0006  2.0162  0.7790
  212ETHOX   O113992  10.491  17.969  12.880  0.2450 -0.0210 -0.5360
  212ETHOX   C113993  10.609  18.002  12.813 -0.3263 -0.3472  0.0454
  212ETHOX  H1113994  10.583  18.026  12.708 -1.4875  0.7906  0.5678
  212ETHOX  H1313995  10.671  18.081  12.862 -0.1178  0.0670 -0.8608
  212ETHOX   C213996  10.702  17.883  12.797  0.4422 -0.5446 -0.9157
  212ETHOX  H2113997  10.722  17.839  12.897  1.7936  0.0657 -0.9033
  212ETHOX  H2313998  10.797  17.914  12.749  0.7693  0.0943  0.1069
  213ETHOX   O113999  10.652  17.778  12.713  0.4790  0.0205 -0.1473
  213ETHOX   C114000  10.746  17.673  12.689  0.7107  0.9881 -0.6648
  213ETHOX  H1114001  10.831  17.722  12.637 -0.2067 -0.4610 -3.7634
  213ETHOX  H1314002  10.783  17.648  12.791 -0.0133  1.3181 -0.3162
  213ETHOX   C214003  10.712  17.539  12.624  0.2770 -0.1482  0.0656
  213ETHOX  H2114004  10.601  17.537  12.626  0.2452  0.0874 -0.9570
  213ETHOX  H2314005  10.761  17.454  12.677 -0.0067 -0.5805 -0.3619
  214ETHOX   O114006  10.758  17.525  12.486 -0.1618  0.1817  0.1894
  214ETHOX   C114007  10.668  17.445  12.409  0.2220 -0.0920  0.1622
  214ETHOX  H1114008  10.588  17.517  12.382  0.2537 -0.7580 -1.8854
  214ETHOX  H1314009  10.628  17.369  12.479  1.3294  0.0271  0.9482
  214ETHOX   C214010  10.733  17.381  12.285  0.4534  0.1303  0.2911
  214ETHOX  H2114011  10.762  17.461  12.213  1.4725 -1.6511 -1.4086
  214ETHOX  H2314012  10.655  17.324  12.230  1.3993  0.3790 -1.3849
  215ETHOX   O114013  10.844  17.298  12.314  0.4504  0.7946 -0.0987
  215ETHOX   C114014  10.908  17.238  12.201 -0.3042 -0.8237 -0.4618
  215ETHOX  H1114015  10.967  17.150  12.235  0.9706 -0.4606 -1.6124
  215ETHOX  H1314016  10.831  17.216  12.124  0.1719  0.3812 -1.3245
  215ETHOX   C214017  11.022  17.330  12.145 -0.3409  0.0187  0.1632
  215ETHOX  H2114018  11.100  17.261  12.107  1.2739  1.5327  0.5726
  215ETHOX  H2314019  11.057  17.378  12.239  2.1245  0.6565 -0.9938
  216ETHOX   O114020  10.975  17.438  12.060 -0.2587  0.3609  0.0540
  216ETHOX   C114021  11.076  17.495  11.982 -0.4002  0.2429  0.4769
  216ETHOX  H1114022  11.148  17.531  12.059 -0.8494  0.8864  0.6043
  216ETHOX  H1314023  11.032  17.580  11.926  1.1964  0.9149  0.1881
  216ETHOX   C214024  11.163  17.405  11.891  0.1517 -0.1135 -0.0341
  216ETHOX  H2114025  11.193  17.310  11.941 -0.8997 -0.3983  0.0757
  216ETHOX  H2314026  11.253  17.457  11.851 -0.3328  0.1640 -0.7833
  217ETHOX   O114027  11.091  17.381  11.768  0.3709 -0.2553  0.3417
  217ETHOX   C114028  11.169  17.294  11.680  0.9802  0.3188  0.0081
  217ETHOX  H1114029  11.237  17.357  11.618 -0.3394  1.1494 -0.6275
  217ETHOX  H1314030  11.217  17.214  11.741 -1.0010 -1.6432 -0.9142
  217ETHOX   C214031  11.070  17.215  11.592  0.1188 -0.0529 -0.7412
  217ETHOX  H2114032  11.010  17.295  11.544 -0.6963  0.9602  1.7714
  217ETHOX  H2314033  11.002  17.160  11.660 -1.1190  1.0318 -1.0650
  218ETHOX   O114034  11.131  17.125  11.498  0.1073  0.5911 -0.3977
  218ETHOX   C114035  11.026  17.062  11.429 -0.6093  0.5150  0.1611
  218ETHOX  H1114036  10.963  17.139  11.379 -1.5251  0.2603  0.8930
  218ETHOX  H1314037  10.959  17.003  11.496 -1.0498  0.4439 -0.3284
  218ETHOX   C214038  11.089  16.979  11.324  0.5854  0.2145  0.4428
  218ETHOX  H2114039  11.150  16.897  11.366 -0.9639 -1.0761  0.2632
  218ETHOX  H2314040  11.149  17.045  11.257 -0.0183  1.5326  1.1573
  219ETHOX   O114041  10.988  16.919  11.241 -0.4590 -0.1780  0.0802
  219ETHOX   C114042  11.042  16.818  11.161  0.2074 -0.2300  0.4577
  219ETHOX  H1114043  10.996  16.811  11.060  1.3553 -0.1622 -0.0870
  219ETHOX  H1314044  11.149  16.834  11.136 -0.3252  1.2769 -1.0708
  219ETHOX   C214045  11.035  16.680  11.223  0.4957  0.4470  0.1875
  219ETHOX  H2114046  11.092  16.668  11.318  0.7524  0.6199  0.0563
  219ETHOX  H2314047  11.061  16.602  11.148 -0.4694 -0.7891  1.1057
  220ETHOX   O114048  10.893  16.657  11.256  0.1195 -0.5800  0.3979
  220ETHOX   C114049  10.871  16.559  11.363  0.7396 -0.3741  1.2878
  220ETHOX  H1114050  10.890  16.617  11.455  0.5102  2.9478 -0.5695
  220ETHOX  H1314051  10.933  16.468  11.349 -1.4139 -1.7571  0.1163
  220ETHOX   C214052  10.717  16.507  11.363  0.4410 -0.3949  0.2129
  220ETHOX  H2114053  10.655  16.597  11.383 -0.3358 -0.9588  0.3535
  220ETHOX  H2314054  10.695  16.444  11.451  3.3723 -0.5085  0.9728
  221ETHOX   O114055  10.674  16.440  11.243  0.8785  0.4500  0.9314
  221ETHOX   C114056  10.722  16.308  11.228 -0.6998 -0.3245 -0.2215
  221ETHOX  H1114057  10.823  16.312  11.182 -1.1071 -1.1855 -1.2186
  221ETHOX  H1314058  10.699  16.256  11.324 -1.6557 -2.7674 -1.6733
  221ETHOX   C214059  10.639  16.227  11.125  0.3125  0.4217  0.1091
  221ETHOX  H2114060  10.531  16.238  11.150  0.6876  3.0411  0.8378
  221ETHOX  H2314061  10.675  16.122  11.128 -3.1212 -0.9650 -1.5748
  222ETHOX   O114062  10.661  16.256  10.989  0.2809  0.4775 -0.3945
  222ETHOX   C114063  10.619  16.150  10.903 -0.1012  0.4817 -0.6816
  222ETHOX  H1114064  10.680  16.058  10.915 -0.8822  0.0391  0.0683
  222ETHOX  H1314065  10.511  16.131  10.925 -0.5564  2.0459 -1.3608
  222ETHOX   C214066  10.645  16.194  10.760  0.3890  0.1443 -0.9382
  222ETHOX  H2114067  10.749  16.225  10.736  0.5217  0.5878  0.1362
  222ETHOX  H2314068  10.588  16.288  10.750  0.6395  0.1629 -2.4208
  223ETHOX   O114069  10.601  16.094  10.674 -0.4632  0.1739  0.2879
  223ETHOX   C114070  10.638  16.127  10.538 -0.4778 -0.2580  0.6678
  223ETHOX  H1114071  10.601  16.231  10.521  0.1852  0.2579  2.1481
  223ETHOX  H1314072  10.749  16.137  10.534 -0.4924  0.2729  1.2897
  223ETHOX   C214073  10.587  16.034  10.427 -0.0581  0.1401 -0.1040
  223ETHOX  H2114074  10.637  16.073  10.336  2.1510  0.7094  1.2971
  223ETHOX  H2314075  10.476  16.040  10.418 -0.0557 -1.4948 -1.8536
  224ETHOX   O114076  10.626  15.903  10.453  0.0151  0.0536  0.3046
  224ETHOX   C114077  10.586  15.818  10.348  0.2651  0.1177 -0.0415
  224ETHOX  H1114078  10.476  15.811  10.335  0.5189  0.6277 -3.3803
  224ETHOX  H1314079  10.616  15.864  10.251  1.6371  0.9604  0.7537
  224ETHOX   C214080  10.648  15.679  10.368 -0.4762 -0.9757 -0.4146
  224ETHOX  H2114081  10.757  15.695  10.361 -0.2042 -3.1849 -2.7157
  224ETHOX  H2314082  10.624  15.597  10.296  1.2553 -1.2503 -0.7283
  225ETHOX   O114083  10.609  15.630  10.493 -0.4512 -0.0728 -0.1798
  225ETHOX   C114084  10.707  15.541  10.547 -0.2387 -0.8526 -0.0929
  225ETHOX  H1114085  10.806  15.592  10.557 -1.0374  0.6892  0.1701
  225ETHOX  H1314086  10.715  15.459  10.472 -1.8684  0.6610 -2.0431
  225ETHOX   C214087  10.666  15.486  10.685  0.2882  0.2780  0.1150
  225ETHOX  H2114088  10.738  15.404  10.708 -0.4682 -0.3139  0.4260
  225ETHOX  H2314089  10.568  15.435  10.683  0.5294 -0.2550  1.1689
  226ETHOX   O114090  10.673  15.588  10.784 -0.3445  0.4023 -0.2076
  226ETHOX   C114091  10.605  15.568  10.906 -0.3923  0.1380  0.0941
  226ETHOX  H1114092  10.496  15.560  10.884 -0.0146 -1.2873 -1.4307
  226ETHOX  H1314093  10.642  15.478  10.959  0.3466  0.1010 -0.4788
  226ETHOX   C214094  10.634  15.683  10.997  0.1501  0.2866 -0.7406
  226ETHOX  H2114095  10.618  15.781  10.947 -0.4979  0.3897 -0.3438
  226ETHOX  H2314096  10.745  15.687  11.005  0.1790 -1.4719  0.5201
  227ETHOX   O114097  10.579  15.662  11.126  0.0607  0.1201 -0.1331
  227ETHOX   C114098  10.576  15.771  11.212 -0.2915  0.3152 -0.3061
  227ETHOX  H1114099  10.484  15.831  11.190 -1.1013 -0.1084  1.7100
  227ETHOX  H1314100  10.665  15.836  11.197  0.7881 -0.8956  0.6972
  227ETHOX   C214101  10.584  15.727  11.361 -0.5581 -0.6116  0.2757
  227ETHOX  H2114102  10.591  15.821  11.420 -0.5427 -0.6568  0.3441
  227ETHOX  H2314103  10.675  15.668  11.385 -0.6225 -0.4974  0.8057
  228ETHOX   O114104  10.466  15.664  11.400  0.3344  0.9148 -0.4840
  228ETHOX   C114105  10.453  15.626  11.534 -0.3761 -0.7563  0.3912
  228ETHOX  H1114106  10.487  15.711  11.598  0.0831  1.0298 -2.0946
  228ETHOX  H1314107  10.344  15.615  11.546 -0.9213  2.3535 -0.6372
  228ETHOX   C214108  10.521  15.499  11.579 -0.2597 -0.2158 -0.3103
  228ETHOX  H2114109  10.499  15.420  11.505 -0.0384  2.2616 -3.2313
  228ETHOX  H2314110  10.484  15.474  11.681 -0.4378 -0.6362 -0.4777
  229ETHOX   O114111  10.662  15.530  11.606  0.4500  0.6658  0.2620
  229ETHOX   C114112  10.726  15.403  11.635 -0.8273 -0.3767  0.1178
  229ETHOX  H1114113  10.715  15.335  11.548 -1.5328 -0.6160  0.3801
  229ETHOX  H1314114  10.670  15.355  11.718 -2.3908  0.5801 -0.3291
  229ETHOX   C214115  10.878  15.418  11.672 -0.5057  0.8232 -0.0675
  229ETHOX  H2114116  10.930  15.443  11.577 -1.3879  0.2042 -0.7269
  229ETHOX  H2314117  10.901  15.316  11.710 -3.7331  0.0382  0.0590
  230ETHOX   O114118  10.913  15.499  11.784 -0.6899 -0.8853  0.1837
  230ETHOX   C114119  10.911  15.636  11.747 -0.3797 -0.2116 -0.5991
  230ETHOX  H1114120  10.847  15.666  11.661  0.7939 -0.0483 -1.4417
  230ETHOX  H1314121  10.862  15.686  11.834 -0.6179 -2.0163  0.3476
  230ETHOX   C214122  11.055  15.692  11.736  0.1360 -0.0809  0.5111
  230ETHOX  H2114123  11.110  15.670  11.831  1.6914 -1.9387 -0.7270
  230ETHOX  H2314124  11.037  15.801  11.742 -0.8962 -0.2910  1.4726
  231ETHOX   O114125  11.132  15.648  11.630 -0.0919  0.2737 -0.1259
  231ETHOX   C114126  11.269  15.688  11.634  0.0638  0.0336  0.0009
  231ETHOX  H1114127  11.316  15.661  11.731 -2.1637 -0.8855  0.8909
  231ETHOX  H1314128  11.279  15.796  11.611 -0.6868  1.0085  3.6121
  231ETHOX   C214129  11.339  15.622  11.509 -0.9352 -0.9756  0.1753
  231ETHOX  H2114130  11.291  15.523  11.491 -0.8959 -0.6905 -1.7749
  231ETHOX  H2314131  11.445  15.618  11.542 -0.6293 -0.8367 -0.7357
  232ETHOX   O114132  11.333  15.713  11.395  0.5331 -0.0678 -0.0581
  232ETHOX   C114133  11.409  15.661  11.293  0.4240  0.5412  0.1079
  232ETHOX  H1114134  11.513  15.664  11.331  1.0644  1.5535 -1.6319
  232ETHOX  H1314135  11.382  15.555  11.273  1.3537  0.4680 -0.8506
  232ETHOX   C214136  11.403  15.743  11.172 -0.2112  0.0590  0.5392
  232ETHOX  H2114137  11.503  15.754  11.124 -1.9333  1.4354 -3.0672
  232ETHOX  H2314138  11.370  15.847  11.194 -0.3210  0.2306 -0.4182
  233ETHOX   O114139  11.314  15.689  11.079 -0.4000 -0.2467  0.6189
  233ETHOX   C114140  11.299  15.775  10.959 -0.4627  0.6725 -1.0149
  233ETHOX  H1114141  11.277  15.878  10.995  0.2906 -0.1902  2.2472
  233ETHOX  H1314142  11.393  15.775  10.901 -0.0268  2.3207 -0.3784
  233ETHOX   C214143  11.180  15.720  10.872  0.4145  0.1476 -0.2438
  233ETHOX  H2114144  11.112  15.673  10.948  0.0736  0.6997 -0.1991
  233ETHOX  H2314145  11.223  15.637  10.812  1.8478  0.2149  0.6448
  234ETHOX   O114146  11.127  15.822  10.795 -0.2395  0.3666  0.0148
  234ETHOX   C114147  10.990  15.787  10.760  0.4808 -1.3001  0.5513
  234ETHOX  H1114148  10.980  15.682  10.724 -0.1136 -0.2820 -2.4817
  234ETHOX  H1314149  10.923  15.784  10.849 -0.0601 -0.7786  0.1715
  234ETHOX   C214150  10.950  15.884  10.647 -0.2613 -0.2125 -0.1082
  234ETHOX  H2114151  10.989  15.986  10.670  1.6383 -1.0330  0.5595
  234ETHOX  H2314152  10.843  15.909  10.636  0.0104  0.7239 -0.8139
  235ETHOX   O114153  11.013  15.846  10.527  0.1557  0.1987 -0.1555
  235ETHOX   C114154  10.976  15.930  10.421  0.7220  0.0045 -1.0329
  235ETHOX  H1114155  10.865  15.930  10.409  0.1867 -1.9276  2.6629
  235ETHOX  H1314156  11.003  16.031  10.459 -0.9920  0.0145  0.2730
  235ETHOX   C214157  11.045  15.901  10.291 -0.8040 -0.3161 -0.1655
  235ETHOX  H2114158  11.028  15.796  10.260 -0.5572 -0.8272  1.3183
  235ETHOX  H2314159  11.153  15.914  10.312 -0.5423  1.6259 -2.3067
  236ETHOX   O114160  11.016  15.989  10.184 -0.0925 -0.3629 -0.3063
  236ETHOX   C114161  11.111  15.959  10.082  1.1853  0.5901  0.5201
  236ETHOX  H1114162  11.124  15.849  10.076 -0.4318  0.4484 -2.0645
  236ETHOX  H1314163  11.209  16.009  10.097  0.2846  2.4043  0.6090
  236ETHOX   C214164  11.059  15.992   9.936 -0.2269  0.6397 -0.2845
  236ETHOX  H2114165  10.955  15.954   9.928  0.5189 -1.4397 -0.9457
  236ETHOX  H2314166  11.118  15.936   9.861 -1.6681 -0.6270 -0.5256
  237ETHOX   O114167  11.051  16.126   9.907 -0.2770  0.2696  0.0236
  237ETHOX   C114168  11.001  16.146   9.776 -0.5100 -0.0685  0.0363
  237ETHOX  H1114169  10.960  16.053   9.732  0.5552 -0.2500 -0.6147
  237ETHOX  H1314170  10.928  16.229   9.779 -0.7541 -0.2778 -0.1081
  237ETHOX   C214171  11.119  16.196   9.683  0.0950 -0.1722 -0.0676
  237ETHOX  H2114172  11.167  16.294   9.706  0.4739 -0.4581  0.3847
  237ETHOX  H2314173  11.062  16.205   9.588 -0.9187  1.9421  0.6628
  238ETHOX   O114174  11.215  16.089   9.668 -0.1516 -0.3796 -0.7974
  238ETHOX   C114175  11.325  16.101   9.766  0.9050 -0.3219  0.0889
  238ETHOX  H1114176  11.334  16.021   9.844  3.6143 -0.0861  0.1032
  238ETHOX  H1314177  11.322  16.201   9.815 -0.7781  0.5958 -1.7866
  238ETHOX   C214178  11.463  16.107   9.696  0.1840 -0.8218  0.2927
  238ETHOX  H2114179  11.537  16.134   9.774 -0.7664 -0.0973  0.9659
  238ETHOX  H2314180  11.468  16.187   9.620 -1.0650  0.5845  1.6419
  239ETHOX   O114181  11.491  15.977   9.643 -0.0486 -0.0766 -0.0345
  239ETHOX   C114182  11.613  15.982   9.570 -0.0899  0.0345 -0.8569
  239ETHOX  H1114183  11.606  16.055   9.487  0.7171  0.6490 -0.3958
  239ETHOX  H1314184  11.695  16.011   9.638 -0.9844 -0.7246  0.6140
  239ETHOX   C214185  11.627  15.843   9.503 -0.3414  0.0963  0.1582
  239ETHOX  H2114186  11.536  15.813   9.448  1.1107 -2.2444 -1.1304
  239ETHOX  H2314187  11.720  15.861   9.445 -0.0026  2.2546  1.2354
  240ETHOX   O114188  11.651  15.751   9.602 -0.7233  0.2917 -0.4394
  240ETHOX   C114189  11.634  15.622   9.550 -0.3904  1.1754  0.7333
  240ETHOX  H1114190  11.692  15.613   9.455  0.2246  2.7553  0.9374
  240ETHOX  H1314191  11.526  15.617   9.524 -0.5179 -1.6331  1.4494
  240ETHOX   C214192  11.657  15.507   9.647  0.1270 -0.3133  0.0698
  240ETHOX  H2114193  11.621  15.421   9.587 -0.4720  0.0454 -0.0879
  240ETHOX  H2314194  11.600  15.524   9.741 -1.4590  0.5243 -1.0015
  241ETHOX   O114195  11.792  15.474   9.686 -0.0322  0.4324 -0.7518
  241ETHOX   C114196  11.782  15.392   9.803  0.6079 -0.6397  0.4213
  241ETHOX  H1114197  11.685  15.339   9.807  0.2838 -0.1050 -0.1832
  241ETHOX  H1314198  11.855  15.309   9.792  0.2810 -0.9565  0.6203
  241ETHOX   C214199  11.801  15.472   9.928 -0.6856 -0.6914 -0.1763
  241ETHOX  H2114200  11.892  15.535   9.914 -1.6958  0.6153 -1.1097
  241ETHOX  H2314201  11.816  15.397  10.009 -0.1362  1.0906  1.4815
  242ETHOX   O114202  11.691  15.550   9.960  0.5670  0.0418  0.1103
  242ETHOX   C114203  11.688  15.603  10.094 -0.3310 -0.0854  0.3037
  242ETHOX  H1114204  11.703  15.517  10.163  2.4021  0.3891  0.4047
  242ETHOX  H1314205  11.588  15.643  10.122 -0.1448  0.8683 -0.3724
  242ETHOX   C214206  11.801  15.700  10.120 -0.8430 -0.0164  0.5764
  242ETHOX  H2114207  11.825  15.771  10.038  2.1080  0.0613  1.3965
  242ETHOX  H2314208  11.891  15.635  10.123 -0.8548 -0.0368  0.5002
  243ETHOX   O114209  11.768  15.766  10.241  0.3506 -0.0713 -0.5243
  243ETHOX   C114210  11.886  15.835  10.294  0.3576 -0.8149 -0.3535
  243ETHOX  H1114211  11.883  15.848  10.404 -0.6948  0.0161 -0.4627
  243ETHOX  H1314212  11.978  15.776  10.272 -0.5969 -1.8446 -1.8004
  243ETHOX   C214213  11.905  15.980  10.240  0.1094  0.5960 -0.2314
  243ETHOX  H2114214  11.812  16.040  10.248  0.0164  0.3925  0.2373
  243ETHOX  H2314215  11.918  15.964  10.131 -1.2961 -2.4240 -0.0799
  244ETHOX   O114216  12.008  16.061  10.289  0.0009  0.1116 -0.1201
  244ETHOX   C114217  12.023  16.183  10.216  0.2919 -0.5211  0.0255
  244ETHOX  H1114218  11.931  16.245  10.222  1.7509  1.6686  1.2059
  244ETHOX  H1314219  12.055  16.162  10.112  0.5331  2.8388 -0.7072
  244ETHOX   C214220  12.136  16.269  10.272 -0.2255  0.5039 -0.2381
  244ETHOX  H2114221  12.133  16.272  10.383 -0.0017 -0.9827 -0.1773
  244ETHOX  H2314222  12.117  16.375  10.243 -2.3472  0.3789  0.5498
  245ETHOX   O114223  12.269  16.248  10.230 -0.0930  0.4217 -0.3382
  245ETHOX   C114224  12.336  16.150  10.309 -0.5760  0.2964  0.0461
  245ETHOX  H1114225  12.331  16.178  10.416 -0.6991  3.6025 -0.7132
  245ETHOX  H1314226  12.285  16.054  10.287  2.1487 -1.1836 -0.2242
  245ETHOX   C214227  12.481  16.140  10.257  0.1481 -0.1463 -0.4362
  245ETHOX  H2114228  12.512  16.244  10.236  0.9732 -0.6067 -1.6370
  245ETHOX  H2314229  12.487  16.082  10.162  2.1829  2.8915 -2.3611
  246ETHOX   O114230  12.568  16.088  10.358 -0.0492  0.4846 -0.1409
  246ETHOX   C114231  12.702  16.130  10.337 -0.3261  0.7644 -0.2917
  246ETHOX  H1114232  12.709  16.241  10.349  0.5572  0.7237 -0.3757
  246ETHOX  H1314233  12.740  16.105  10.236  1.0450  0.8326  0.1857
  246ETHOX   C214234  12.796  16.067  10.441  0.3357  0.4052 -1.3895
  246ETHOX  H2114235  12.904  16.070  10.415  0.9369 -0.5771  0.7211
  246ETHOX  H2314236  12.770  15.959  10.449  0.0781  0.5797  1.0361
  247ETHOX   O114237  12.780  16.130  10.570 -0.3185 -0.0318 -0.1631
  247ETHOX   C114238  12.867  16.078  10.669  0.2246 -0.0284  0.0863
  247ETHOX  H1114239  12.814  16.024  10.750  0.2284  0.2002  0.2413
  247ETHOX  H1314240  12.927  15.999  10.618 -0.8024 -0.0212 -1.1688
  247ETHOX   C214241  12.945  16.195  10.732 -0.2986  0.0380 -0.1760
  247ETHOX  H2114242  12.874  16.259  10.790  0.3444 -0.7965  1.5784
  247ETHOX  H2314243  13.015  16.153  10.806  0.6952  1.8448 -0.0225
  248ETHOX   O114244  13.024  16.261  10.634  0.3670 -0.1390  0.0249
  248ETHOX   C114245  13.149  16.296  10.688 -0.5920 -0.1789  1.0312
  248ETHOX  H1114246  13.143  16.347  10.787  0.9269  0.7971  0.6633
  248ETHOX  H1314247  13.203  16.200  10.701 -0.3769 -0.3717 -1.0245
  248ETHOX   C214248  13.244  16.369  10.584 -0.2636 -0.0991 -0.1788
  248ETHOX  H2114249  13.205  16.473  10.581  0.3141  0.1340  0.1303
  248ETHOX  H2314250  13.247  16.315  10.487 -2.2860 -0.5726 -0.0191
  249ETHOX   O114251  13.378  16.387  10.636  0.8315  0.0011 -0.8535
  249ETHOX   C114252  13.461  16.459  10.545 -0.2731 -0.0866 -0.9846
  249ETHOX  H1114253  13.468  16.386  10.462  0.2211 -3.2000  1.5879
  249ETHOX  H1314254  13.407  16.543  10.496 -1.5893 -1.0145 -1.1661
  249ETHOX   C214255  13.592  16.504  10.597 -0.7717 -0.2027 -0.1983
  249ETHOX  H2114256  13.667  16.491  10.517 -0.0668 -0.8388  0.5496
  249ETHOX  H2314257  13.632  16.440  10.678 -0.7545  1.0360  0.8198
  250ETHOX   O114258  13.602  16.642  10.629 -0.5415  0.3023 -0.3067
  250ETHOX   C114259  13.575  16.670  10.770  0.2230  1.0604 -0.5065
  250ETHOX  H1114260  13.468  16.667  10.801  0.4239  1.7285  0.2752
  250ETHOX  H1314261  13.633  16.609  10.842 -0.2409  1.2887  0.0616
  250ETHOX   C214262  13.614  16.807  10.804 -0.4895 -0.4130 -0.0156
  250ETHOX  H2114263  13.713  16.823  10.756 -1.3124 -1.4729 -2.2284
  250ETHOX  H2314264  13.632  16.824  10.912 -0.4381 -1.2006  0.1106
  251ETHOX   O114265  13.506  16.899  10.775  0.0658  0.5987 -0.1481
  251ETHOX   C114266  13.556  17.008  10.709 -0.7839  0.1955  0.4063
  251ETHOX  H1114267  13.613  16.975  10.619 -1.1310  0.7512 -0.0260
  251ETHOX  H1314268  13.634  17.057  10.771 -1.5432  2.8333 -0.5865
  251ETHOX   C214269  13.445  17.104  10.673 -0.3084  0.4830 -0.5198
  251ETHOX  H2114270  13.494  17.204  10.671  3.1026 -0.9704  1.5526
  251ETHOX  H2314271  13.373  17.110  10.757  2.5347  2.9649  1.9805
  252ETHOX   O114272  13.376  17.073  10.553 -0.1523  0.0758  0.1431
  252ETHOX   C114273  13.258  17.154  10.541 -0.0663  0.6007 -0.2700
  252ETHOX  H1114274  13.195  17.137  10.631  0.8918  1.5866  0.5978
  252ETHOX  H1314275  13.288  17.260  10.533 -1.3701  0.9515 -0.9722
  252ETHOX   C214276  13.184  17.094  10.417 -0.1064 -0.5907  0.1541
  252ETHOX  H2114277  13.088  17.145  10.397  0.2062 -0.4400 -1.0890
  252ETHOX  H2314278  13.175  16.984  10.428 -3.1037 -0.5324 -0.8721
  253ETHOX   O114279  13.268  17.114  10.303  0.0705 -0.0691  0.3571
  253ETHOX   C114280  13.198  17.083  10.180  0.1841  0.3790  0.5943
  253ETHOX  H1114281  13.098  17.131  10.173 -0.4088 -0.7990  0.7503
  253ETHOX  H1314282  13.173  16.975  10.179  0.3286  0.3442  0.6646
  253ETHOX   C214283  13.288  17.106  10.057  0.0868 -0.2345  0.0403
  253ETHOX  H2114284  13.320  17.212  10.049  0.5699 -0.5494 -3.8749
  253ETHOX  H2314285  13.242  17.078   9.960  2.2720  0.5318 -1.2907
  254ETHOX   O114286  13.399  17.018  10.084 -0.3023  0.7604  0.3609
  254ETHOX   C114287  13.507  17.034   9.991  0.1729  0.1464 -0.1922
  254ETHOX  H1114288  13.481  16.987   9.893 -0.2575  0.0627 -0.0369
  254ETHOX  H1314289  13.524  17.142   9.972 -1.4339  0.2241 -1.3691
  254ETHOX   C214290  13.636  16.981  10.045  0.3135  0.2382  0.0553
  254ETHOX  H2114291  13.702  16.967   9.957 -0.5808 -0.9169 -0.4558
  254ETHOX  H2314292  13.613  16.881  10.086 -0.3424 -0.1461 -1.2328
  255ETHOX   O114293  13.703  17.062  10.143 -0.2255 -0.1121  0.2297
  255ETHOX   C114294  13.636  17.065  10.273  0.1945 -0.0523  0.8596
  255ETHOX  H1114295  13.623  16.959  10.301  1.5892 -0.2628  0.8135
  255ETHOX  H1314296  13.538  17.115  10.260 -1.2908 -2.4914  2.1031
  255ETHOX   C214297  13.700  17.155  10.380 -0.6503  0.2929 -0.0503
  255ETHOX  H2114298  13.619  17.160  10.457 -2.0069 -2.0276 -1.2074
  255ETHOX  H2314299  13.732  17.256  10.346  2.5026 -1.0857 -1.5909
  256ETHOX   O114300  13.824  17.099  10.428 -0.8118  0.2458 -0.2038
  256ETHOX   C114301  13.874  17.188  10.529  0.2310  0.7731  0.6498
  256ETHOX  H1114302  13.900  17.289  10.489  1.4111  0.1798 -0.1707
  256ETHOX  H1314303  13.799  17.212  10.607 -2.5912  2.4237 -2.3262
  256ETHOX   C214304  14.004  17.131  10.594 -0.1342  0.0004  0.7732
  256ETHOX  H2114305  14.061  17.207  10.652 -0.7580  0.9711  0.1538
  256ETHOX  H2314306  14.063  17.073  10.520  0.6557  2.0084 -0.2730
  257ETHOX   O114307  13.972  17.040  10.700 -0.1548  0.4674 -0.2642
  257ETHOX   C114308  14.094  16.991  10.756 -0.5620 -0.5341 -0.3502
  257ETHOX  H1114309  14.152  17.076  10.797  0.2681 -1.3986  0.3110
  257ETHOX  H1314310  14.157  16.944  10.677  1.2793  1.9374 -0.4691
  257ETHOX   C214311  14.057  16.889  10.864  0.7014  0.1711 -0.1041
  257ETHOX  H2114312  13.966  16.914  10.923 -0.2135  1.6010 -1.9999
  257ETHOX  H2314313  14.138  16.871  10.938  2.6988 -0.0932 -2.2479
  258ETHOX   O114314  14.025  16.767  10.805 -0.7007  0.3642 -1.2802
  258ETHOX   C114315  14.049  16.660  10.898 -0.1968 -0.1721  0.1645
  258ETHOX  H1114316  14.057  16.573  10.829  2.5625  1.7858 -2.2691
  258ETHOX  H1314317  14.152  16.670  10.938 -0.4795  1.9621  0.4939
  258ETHOX   C214318  13.957  16.636  11.019 -0.2955  0.0021  0.0894
  258ETHOX  H2114319  13.968  16.527  11.036  1.1253  0.1860  0.5569
  258ETHOX  H2314320  13.858  16.664  10.978 -0.2268 -1.4605 -1.1557
  259ETHOX   O114321  14.000  16.716  11.126 -0.1134  0.3181 -0.6108
  259ETHOX   C114322  13.897  16.709  11.222  0.2999 -0.2335  0.0298
  259ETHOX  H1114323  13.806  16.752  11.176  0.0430  0.1275  0.8716
  259ETHOX  H1314324  13.884  16.602  11.248  2.5529 -0.0196  2.4538
  259ETHOX   C214325  13.915  16.778  11.354 -0.2893 -0.3250  0.1427
  259ETHOX  H2114326  13.816  16.813  11.391 -1.0381 -0.3477 -1.7416
  259ETHOX  H2314327  13.972  16.873  11.341 -0.1640 -0.4067  0.1079
  260ETHOX   O114328  13.983  16.687  11.439  0.5010  0.3194 -0.0110
  260ETHOX   C114329  14.017  16.755  11.564  0.1854  0.4601 -0.1354
  260ETHOX  H1114330  14.078  16.840  11.527 -0.6931  0.5055 -1.5452
  260ETHOX  H1314331  13.928  16.787  11.623 -1.1306 -3.3635  0.1890
  260ETHOX   C214332  14.101  16.673  11.660  0.4478  0.1062 -0.2639
  260ETHOX  H2114333  14.151  16.736  11.736 -0.0048 -1.9644  1.8683
  260ETHOX  H2314334  14.172  16.627  11.588 -2.1859 -1.6691 -1.8921
  261ETHOX   O114335  14.031  16.567  11.737  0.0201 -0.2858  0.4958
  261ETHOX   C114336  14.130  16.499  11.818  0.2643 -0.2994 -0.4225
  261ETHOX  H1114337  14.220  16.479  11.757  0.1794 -0.7475 -0.4021
  261ETHOX  H1314338  14.178  16.573  11.887  0.6390 -0.7708 -0.1701
  261ETHOX   C214339  14.082  16.383  11.899  0.6667  0.2344 -0.7219
  261ETHOX  H2114340  14.171  16.324  11.931  1.0853  1.1768 -0.0949
  261ETHOX  H2314341  14.022  16.313  11.838 -0.6935  0.1862  0.6113
  262ETHOX   O114342  14.007  16.422  12.017  0.2755  0.4480 -0.8319
  262ETHOX   C114343  14.003  16.319  12.111  0.1775  0.6510 -0.7038
  262ETHOX  H1114344  14.075  16.236  12.092 -2.3510 -2.5189  2.1399
  262ETHOX  H1314345  13.898  16.284  12.102  0.3615  0.2898 -1.4534
  262ETHOX   C214346  14.021  16.366  12.255  0.0221 -0.3133  0.0825
  262ETHOX  H2114347  14.024  16.276  12.320 -1.0531  0.6901  1.5803
  262ETHOX  H2314348  13.931  16.427  12.280 -1.1999 -1.9491 -0.1699
  263ETHOX   O114349  14.135  16.450  12.279  0.1480 -0.2439 -0.1542
  263ETHOX   C114350  14.130  16.503  12.413 -0.6337 -0.0128  0.0712
  263ETHOX  H1114351  14.116  16.422  12.488 -0.8603 -0.0565 -0.0160
  263ETHOX  H1314352  14.049  16.578  12.422  0.1715  0.8468  0.3111
  263ETHOX   C214353  14.268  16.573  12.447 -0.3214  0.2310 -0.4523
  263ETHOX  H2114354  14.360  16.516  12.424  0.5896  0.4573  2.2856
  263ETHOX  H2314355  14.264  16.594  12.556  0.5147 -0.5040 -0.2636
  264ETHOX   O114356  14.285  16.706  12.387  0.2285  0.6592  0.0483
  264ETHOX   C114357  14.399  16.768  12.434  0.0440  0.1695  0.0277
  264ETHOX  H1114358  14.483  16.695  12.426 -1.2439 -1.6272  1.6255
  264ETHOX  H1314359  14.387  16.798  12.541  0.3621  0.9972 -0.1651
  264ETHOX   C214360  14.439  16.871  12.334 -0.8336  0.6301  0.5002
  264ETHOX  H2114361  14.536  16.913  12.370  1.3800 -3.5567 -0.0260
  264ETHOX  H2314362  14.365  16.954  12.325 -1.2624  0.2087  0.0826
  265ETHOX   O114363  14.456  16.805  12.209 -0.5108 -0.0861  0.1205
  265ETHOX   C114364  14.468  16.900  12.105 -0.9923  0.2318  0.4092
  265ETHOX  H1114365  14.521  16.985  12.153 -1.8034  2.2737 -2.1251
  265ETHOX  H1314366  14.532  16.867  12.020  1.8360 -1.0898  2.8559
  265ETHOX   C214367  14.331  16.953  12.056  0.1060 -0.3901 -0.8424
  265ETHOX  H2114368  14.357  17.040  11.993  2.3068  1.2952  2.1208
  265ETHOX  H2314369  14.267  16.984  12.141  1.6921  0.5096  0.0761
  265ETHOX   OZ14370  14.271  16.850  11.977  0.1525  0.2702 -0.1803
  265ETHOX  HZ114371  14.307  16.764  11.997  0.2765  0.1940 -0.7030
    1ETHOX   O114372  13.051   8.873   7.148  0.2708 -0.2225  0.0204
    1ETHOX  HO114373  13.086   8.946   7.097 -0.2177 -0.4533 -0.6572
    1ETHOX   C114374  13.140   8.869   7.262  0.1875 -0.1882  0.1137
    1ETHOX  H1114375  13.078   8.925   7.335  1.4666  1.4942 -0.0392
    1ETHOX  H1314376  13.239   8.915   7.242  1.4423 -2.1456  1.4754
    1ETHOX   C214377  13.166   8.721   7.316  0.2113  0.3655  0.5804
    1ETHOX  H2114378  13.067   8.673   7.297 -0.3648  0.4164  3.1174
    1ETHOX  H2314379  13.199   8.722   7.422  0.9259 -2.9085  0.4970
    2ETHOX   O114380  13.258   8.635   7.253 -0.6607  0.0854  0.1554
    2ETHOX   C114381  13.394   8.686   7.247  0.6052  0.0805 -0.7799
    2ETHOX  H1114382  13.395   8.794   7.220 -0.7556 -0.5070 -3.5110
    2ETHOX  H1314383  13.442   8.670   7.346  0.0952 -1.6940 -0.7976
    2ETHOX   C214384  13.476   8.609   7.135  0.5554 -0.6271  0.0697
    2ETHOX  H2114385  13.400   8.578   7.060 -1.2405 -0.7498  1.8526
    2ETHOX  H2314386  13.530   8.519   7.171 -0.5960 -1.7228 -0.8330
    3ETHOX   O114387  13.563   8.705   7.084 -0.1939  0.0875  0.4059
    3ETHOX   C114388  13.678   8.728   7.166  0.1846 -0.2242 -0.2228
    3ETHOX  H1114389  13.743   8.638   7.172 -0.8036 -0.9834 -0.6641
    3ETHOX  H1314390  13.641   8.759   7.266  0.2158 -0.9429  0.0230
    3ETHOX   C214391  13.765   8.836   7.095  1.0895 -0.1054 -0.1909
    3ETHOX  H2114392  13.712   8.932   7.077  0.2909 -1.2262 -5.8049
    3ETHOX  H2314393  13.774   8.801   6.990 -0.1377 -0.0323 -0.3347
    4ETHOX   O114394  13.896   8.855   7.152 -0.3796  0.0737 -0.1402
    4ETHOX   C114395  13.970   8.943   7.058  0.9564  0.2314 -0.0423
    4ETHOX  H1114396  13.962   8.909   6.953  1.6383 -0.3391  0.0809
    4ETHOX  H1314397  13.931   9.047   7.054  0.9527  0.1821 -2.3603
    4ETHOX   C214398  14.123   8.948   7.083 -0.1285 -0.0143  0.0450
    4ETHOX  H2114399  14.137   8.974   7.190  3.1947  0.8503 -0.4825
    4ETHOX  H2314400  14.181   9.012   7.014 -1.2846  1.3125  0.2712
    5ETHOX   O114401  14.188   8.820   7.071  0.6998 -0.1597 -0.0442
    5ETHOX   C114402  14.220   8.785   6.944  0.9785  0.2756  0.8403
    5ETHOX  H1114403  14.136   8.790   6.871  1.8117  1.3350 -0.0854
    5ETHOX  H1314404  14.300   8.850   6.902  1.0157 -1.6386 -2.4051
    5ETHOX   C214405  14.272   8.645   6.945  0.3021 -0.1595  0.5799
    5ETHOX  H2114406  14.286   8.624   6.836  2.8437  1.7307  0.4501
    5ETHOX  H2314407  14.202   8.565   6.980  1.1536 -0.7850  0.8751
    6ETHOX   O114408  14.399   8.620   7.014 -0.3861 -0.1250 -0.6686
    6ETHOX   C114409  14.412   8.480   7.043  0.0479 -0.9519 -0.2873
    6ETHOX  H1114410  14.353   8.451   7.132 -0.3922  1.1266  0.1707
    6ETHOX  H1314411  14.366   8.425   6.959  0.1800  0.3655 -1.2637
    6ETHOX   C214412  14.559   8.454   7.050  0.1278  0.1767  0.5864
    6ETHOX  H2114413  14.601   8.492   6.954 -0.5801  3.5077  1.4670
    6ETHOX  H2314414  14.583   8.346   7.058  0.0599  0.1157  0.0365
    7ETHOX   O114415  14.635   8.528   7.155 -0.0997  0.9496  0.0392
    7ETHOX   C114416  14.772   8.526   7.127  0.4624 -0.0372 -0.0536
    7ETHOX  H1114417  14.821   8.426   7.118  1.4334  0.5590 -1.8138
    7ETHOX  H1314418  14.794   8.577   7.031  2.1005  0.6376  0.6290
    7ETHOX   C214419  14.855   8.595   7.241 -0.4313  0.4563 -0.3364
    7ETHOX  H2114420  14.799   8.682   7.282 -2.7321 -1.5861  1.0992
    7ETHOX  H2314421  14.949   8.618   7.186 -0.5855 -2.1456 -1.8646
    8ETHOX   O114422  14.869   8.501   7.345 -0.5203 -0.4397  0.4499
    8ETHOX   C114423  14.916   8.555   7.467 -0.0948 -0.7192  0.0500
    8ETHOX  H1114424  14.866   8.500   7.549 -0.5922 -0.1220  0.1580
    8ETHOX  H1314425  14.886   8.661   7.480  0.6779 -0.6948  1.9809
    8ETHOX   C214426  15.061   8.517   7.505  0.1333 -0.4175  0.1410
    8ETHOX  H2114427  15.080   8.411   7.477  2.2068 -0.3662  1.1472
    8ETHOX  H2314428  15.072   8.534   7.614 -0.8782  0.6542  0.0941
    9ETHOX   O114429  15.149   8.608   7.431 -0.5264  0.6561  0.2884
    9ETHOX   C114430  15.285   8.581   7.471  0.4176  0.2594 -0.2893
    9ETHOX  H1114431  15.292   8.569   7.581  2.4963 -3.1414 -0.6410
    9ETHOX  H1314432  15.324   8.484   7.433 -2.0133 -1.6228  1.7073
    9ETHOX   C214433  15.372   8.696   7.420  0.8381 -0.2552 -0.4377
    9ETHOX  H2114434  15.475   8.673   7.454  0.7453  1.9015  1.5108
    9ETHOX  H2314435  15.342   8.789   7.472  1.2290 -0.7902  0.7812
   10ETHOX   O114436  15.362   8.732   7.281  0.1155  0.4967  0.0356
   10ETHOX   C114437  15.491   8.751   7.221  0.4069 -0.2833 -0.0370
   10ETHOX  H1114438  15.545   8.656   7.206  1.9238  0.7034 -1.1579
   10ETHOX  H1314439  15.550   8.823   7.282  1.2904  1.3800 -2.6704
   10ETHOX   C214440  15.474   8.813   7.080 -0.3509 -0.0086  0.3010
   10ETHOX  H2114441  15.380   8.790   7.025 -0.7636  1.7870  0.1848
   10ETHOX  H2314442  15.554   8.775   7.013  0.3989  2.7627 -0.5209
   11ETHOX   O114443  15.483   8.959   7.090 -0.3572 -0.5174 -0.4685
   11ETHOX   C114444  15.484   9.028   6.968 -0.3301  0.4098  0.1032
   11ETHOX  H1114445  15.414   8.969   6.904 -2.3294  0.2816  2.2627
   11ETHOX  H1314446  15.441   9.131   6.975  0.0876  0.5932 -0.0053
   11ETHOX   C214447  15.629   9.036   6.907 -0.1677  0.1389  0.0826
   11ETHOX  H2114448  15.619   9.107   6.822  0.5638 -0.4066 -0.4646
   11ETHOX  H2314449  15.700   9.083   6.978 -0.1553  0.7232 -0.3090
   12ETHOX   O114450  15.682   8.916   6.857  0.5358 -0.2994  0.2877
   12ETHOX   C114451  15.822   8.944   6.834  0.2335  0.3924  0.0505
   12ETHOX  H1114452  15.875   8.956   6.931  0.1975  1.7656 -0.0846
   12ETHOX  H1314453  15.845   9.028   6.765  0.7349 -0.2454 -0.5735
   12ETHOX   C214454  15.896   8.829   6.757  0.3230 -0.2852  0.0251
   12ETHOX  H2114455  15.845   8.732   6.773 -1.1523  0.9997  4.8283
   12ETHOX  H2314456  15.999   8.826   6.799  0.6302 -0.3287 -0.7163
   13ETHOX   O114457  15.903   8.855   6.615 -0.1593 -0.0333  0.0037
   13ETHOX   C114458  15.975   8.749   6.556  0.1760  0.0719 -0.5235
   13ETHOX  H1114459  16.082   8.739   6.585  0.2334 -1.0208 -1.0531
   13ETHOX  H1314460  15.923   8.656   6.588 -0.7804  1.3268  1.7488
   13ETHOX   C214461  15.981   8.763   6.410 -0.4749 -0.2352  0.3929
   13ETHOX  H2114462  15.879   8.786   6.370 -0.2038  3.3291  1.3676
   13ETHOX  H2314463  16.030   8.672   6.372  1.0799  0.3164  1.0244
   14ETHOX   O114464  16.064   8.875   6.369 -0.0638 -0.6246 -0.0229
   14ETHOX   C114465  16.109   8.864   6.235  0.9889  0.7820  0.1121
   14ETHOX  H1114466  16.116   8.967   6.193 -0.9393  0.9718  0.1832
   14ETHOX  H1314467  16.020   8.825   6.182  2.8057 -2.5442 -0.7573
   14ETHOX   C214468  16.232   8.781   6.215 -0.2915  0.3590  0.4827
   14ETHOX  H2114469  16.302   8.821   6.292 -0.2982  1.3197  0.0006
   14ETHOX  H2314470  16.292   8.802   6.124  0.2952  0.1339  0.8062
   15ETHOX   O114471  16.205   8.638   6.230  0.2908 -0.0742 -0.6426
   15ETHOX   C114472  16.320   8.559   6.255 -0.1910 -0.5337 -0.3526
   15ETHOX  H1114473  16.333   8.479   6.180  0.8292 -3.0565  2.3157
   15ETHOX  H1314474  16.401   8.636   6.251 -1.5766  1.0727  0.8607
   15ETHOX   C214475  16.295   8.480   6.390 -0.0228  0.1647  0.0215
   15ETHOX  H2114476  16.194   8.435   6.393  0.4981 -1.2723 -1.5902
   15ETHOX  H2314477  16.380   8.407   6.388  0.6155  0.7205  2.7981
   16ETHOX   O114478  16.306   8.578   6.500  0.1244  0.1120  0.1421
   16ETHOX   C114479  16.321   8.514   6.623 -0.3831 -0.2338 -0.1502
   16ETHOX  H1114480  16.264   8.421   6.643  2.0577 -1.5839  0.9959
   16ETHOX  H1314481  16.424   8.472   6.616 -0.8503 -1.4788  0.2481
   16ETHOX   C214482  16.316   8.614   6.737 -0.6240  0.4345  0.1330
   16ETHOX  H2114483  16.330   8.556   6.831 -1.3619 -1.8914 -1.1128
   16ETHOX  H2314484  16.219   8.664   6.756  1.0144  3.6590  0.8158
   17ETHOX   O114485  16.414   8.715   6.731  0.4621  0.6995  0.5290
   17ETHOX   C114486  16.459   8.762   6.866 -0.7477 -0.3390 -0.0401
   17ETHOX  H1114487  16.378   8.772   6.942  1.2058  0.9149  1.9745
   17ETHOX  H1314488  16.532   8.694   6.914 -2.2518 -0.4455  2.2659
   17ETHOX   C214489  16.551   8.890   6.853 -0.5420  0.4616 -0.5851
   17ETHOX  H2114490  16.612   8.879   6.761 -1.1089 -2.9384 -0.6948
   17ETHOX  H2314491  16.615   8.913   6.941  2.6502  0.8152 -2.8283
   18ETHOX   O114492  16.471   9.008   6.834 -0.3878 -0.1107  0.3064
   18ETHOX   C114493  16.547   9.108   6.767 -0.7243  0.1723  0.0738
   18ETHOX  H1114494  16.622   9.139   6.843 -0.8041 -1.6617  0.9503
   18ETHOX  H1314495  16.603   9.063   6.683  1.7025  1.4313  0.9260
   18ETHOX   C214496  16.477   9.228   6.709 -0.4332 -0.4128 -0.0859
   18ETHOX  H2114497  16.390   9.196   6.647 -2.8705  2.4842  1.5417
   18ETHOX  H2314498  16.547   9.286   6.646 -0.2288 -1.0219 -0.4315
   19ETHOX   O114499  16.444   9.318   6.818  0.2413  0.2349  0.1221
   19ETHOX   C114500  16.404   9.442   6.770 -0.4424 -0.5177 -0.0090
   19ETHOX  H1114501  16.305   9.428   6.722 -0.6649  2.5052 -0.6445
   19ETHOX  H1314502  16.476   9.486   6.698 -0.1047 -1.0882 -0.0260
   19ETHOX   C214503  16.394   9.548   6.885 -0.0357 -0.1091 -0.1739
   19ETHOX  H2114504  16.339   9.497   6.967 -1.6977 -0.4231 -1.4278
   19ETHOX  H2314505  16.340   9.637   6.846  2.8412  0.0495 -4.6532
   20ETHOX   O114506  16.524   9.592   6.925 -0.0309  0.3614  0.4003
   20ETHOX   C114507  16.517   9.673   7.039  0.4172 -0.5655 -1.2189
   20ETHOX  H1114508  16.468   9.772   7.026 -0.5782 -0.6020  1.5392
   20ETHOX  H1314509  16.456   9.616   7.113 -0.2519  1.9199  0.2747
   20ETHOX   C214510  16.651   9.717   7.109 -0.0565  0.0436  0.3575
   20ETHOX  H2114511  16.722   9.751   7.030 -0.9096  1.6812  0.2458
   20ETHOX  H2314512  16.705   9.631   7.152 -0.5142  0.5863  2.0817
   21ETHOX   O114513  16.628   9.832   7.197  0.2465  0.2957  0.2233
   21ETHOX   C114514  16.751   9.902   7.226 -0.0669 -0.3205  0.8346
   21ETHOX  H1114515  16.811   9.931   7.137  0.4660  1.7644  1.8018
   21ETHOX  H1314516  16.814   9.829   7.281 -1.1327 -2.8156 -1.0498
   21ETHOX   C214517  16.732  10.038   7.297 -0.1350  0.2894  0.1885
   21ETHOX  H2114518  16.691  10.120   7.233 -2.2501 -0.8675 -0.0308
   21ETHOX  H2314519  16.834  10.073   7.322 -0.0699  1.4297 -1.5092
   22ETHOX   O114520  16.665  10.031   7.425 -0.0811 -0.2992 -0.1755
   22ETHOX   C114521  16.712  10.134   7.504 -0.5694 -0.3301  0.0769
   22ETHOX  H1114522  16.820  10.117   7.524 -0.4944 -1.0441 -0.8456
   22ETHOX  H1314523  16.716  10.234   7.456  2.6344 -0.0176  0.7750
   22ETHOX   C214524  16.637  10.132   7.644 -0.9047  0.2064 -0.4027
   22ETHOX  H2114525  16.553  10.059   7.638  0.0637 -0.9060 -0.6235
   22ETHOX  H2314526  16.709  10.097   7.720 -2.6808 -0.9203  0.8493
   23ETHOX   O114527  16.594  10.262   7.681 -0.3850 -0.1285 -0.1340
   23ETHOX   C114528  16.573  10.271   7.820  0.2391 -0.0458 -0.2181
   23ETHOX  H1114529  16.670  10.269   7.874  1.2889  2.6595 -1.8121
   23ETHOX  H1314530  16.505  10.186   7.846  1.6578 -1.3491 -0.6587
   23ETHOX   C214531  16.495  10.400   7.850 -0.6810 -0.2704 -0.1122
   23ETHOX  H2114532  16.448  10.380   7.949  1.1625 -1.8687  0.5007
   23ETHOX  H2314533  16.414  10.406   7.775 -0.2094  1.6306 -0.5290
   24ETHOX   O114534  16.577  10.517   7.864  0.1431 -0.2764  0.3513
   24ETHOX   C114535  16.501  10.632   7.886 -0.0135 -0.4244 -0.3724
   24ETHOX  H1114536  16.427  10.647   7.805  2.4167  2.4417 -2.2821
   24ETHOX  H1314537  16.459  10.641   7.989  0.6745  0.7100 -0.1643
   24ETHOX   C214538  16.600  10.745   7.882 -0.5805  0.3951  0.3443
   24ETHOX  H2114539  16.681  10.748   7.959  1.5174  2.2735 -1.7606
   24ETHOX  H2314540  16.544  10.839   7.903 -0.6137  0.7023 -1.0156
   25ETHOX   O114541  16.662  10.752   7.750  0.8849 -0.1524  0.4917
   25ETHOX   C114542  16.674  10.885   7.713 -0.4568 -0.4050  0.1902
   25ETHOX  H1114543  16.728  10.942   7.791  1.9908 -1.6550 -0.5083
   25ETHOX  H1314544  16.573  10.928   7.692 -0.0744 -0.9094 -3.4045
   25ETHOX   C214545  16.759  10.895   7.585 -0.2838  0.0550 -0.3726
   25ETHOX  H2114546  16.760  11.001   7.553  0.9251  0.1029 -0.2115
   25ETHOX  H2314547  16.708  10.853   7.496 -2.3146 -0.0431  0.7667
   26ETHOX   O114548  16.895  10.847   7.603  0.5764 -0.0267 -0.1117
   26ETHOX   C114549  16.954  10.842   7.475 -0.3416  0.8837  0.6019
   26ETHOX  H1114550  16.880  10.806   7.401  1.0212  2.3695 -1.5924
   26ETHOX  H1314551  16.993  10.942   7.447 -0.1945  0.0515 -2.4838
   26ETHOX   C214552  17.075  10.744   7.475 -1.0088  0.6367  0.1355
   26ETHOX  H2114553  17.117  10.748   7.372 -2.2741  1.7357 -0.3689
   26ETHOX  H2314554  17.039  10.640   7.485 -1.8371  0.6949 -1.7131
   27ETHOX   O114555  17.181  10.779   7.565  0.5946  0.1632  0.2945
   27ETHOX   C114556  17.298  10.703   7.535  0.0243  0.4915  0.2825
   27ETHOX  H1114557  17.328  10.721   7.429 -1.7400 -0.3922 -0.4098
   27ETHOX  H1314558  17.263  10.599   7.551 -2.4191  1.3997  1.3409
   27ETHOX   C214559  17.419  10.732   7.626  0.5189  0.4090  0.1513
   27ETHOX  H2114560  17.488  10.645   7.618 -0.3628 -0.1667 -1.6464
   27ETHOX  H2314561  17.385  10.728   7.732 -0.4936  1.3825 -0.1271
   28ETHOX   O114562  17.491  10.845   7.586 -0.0419 -0.3209 -0.0731
   28ETHOX   C114563  17.602  10.865   7.673 -0.1111 -0.3801 -0.1792
   28ETHOX  H1114564  17.566  10.872   7.778  0.8209  1.6009  0.0561
   28ETHOX  H1314565  17.678  10.786   7.664  0.1573  0.0218 -1.7378
   28ETHOX   C214566  17.674  10.998   7.630  0.3417  0.8234 -0.3820
   28ETHOX  H2114567  17.723  10.987   7.531 -2.5382 -0.6955 -1.7819
   28ETHOX  H2314568  17.752  11.006   7.708  0.1703 -0.0436 -0.1086
   29ETHOX   O114569  17.583  11.112   7.627  0.3740 -0.6948 -0.5036
   29ETHOX   C114570  17.647  11.237   7.591  0.1459  0.6896 -0.1961
   29ETHOX  H1114571  17.711  11.221   7.502 -1.0857 -1.7813 -0.7529
   29ETHOX  H1314572  17.709  11.271   7.677 -0.3020 -0.5729  0.6700
   29ETHOX   C214573  17.534  11.328   7.556  0.1358 -0.3688  0.3303
   29ETHOX  H2114574  17.567  11.433   7.570 -1.7006  0.2945 -0.1546
   29ETHOX  H2314575  17.451  11.313   7.628 -0.5773  0.4805 -0.2930
   30ETHOX   O114576  17.469  11.294   7.426 -0.0988  1.1453 -0.1962
   30ETHOX   C114577  17.369  11.390   7.386 -0.0861  0.3967 -0.1233
   30ETHOX  H1114578  17.302  11.420   7.469  0.9809 -1.1823  1.3892
   30ETHOX  H1314579  17.423  11.482   7.354  0.7824 -1.2471 -3.9936
   30ETHOX   C214580  17.283  11.364   7.264 -0.0574  0.4168 -0.0399
   30ETHOX  H2114581  17.197  11.435   7.257 -2.1533 -1.7666  1.6269
   30ETHOX  H2314582  17.237  11.265   7.284 -0.5537  1.0956  2.5794
   31ETHOX   O114583  17.358  11.365   7.150  0.0751 -0.0649 -0.0360
   31ETHOX   C114584  17.283  11.385   7.026 -0.7771  0.4003 -0.2959
   31ETHOX  H1114585  17.179  11.346   7.039 -0.2347 -0.7130  1.0375
   31ETHOX  H1314586  17.294  11.493   7.002  1.4664  0.9315  2.6044
   31ETHOX   C214587  17.357  11.299   6.923  0.2838  0.4303  0.0139
   31ETHOX  H2114588  17.466  11.314   6.929  0.1910  0.8018  0.8643
   31ETHOX  H2314589  17.324  11.335   6.823 -1.5141 -2.6354 -0.6258
   32ETHOX   O114590  17.328  11.160   6.929 -0.7377  0.2312 -0.1647
   32ETHOX   C114591  17.436  11.080   6.876  0.2175 -0.9391 -0.0124
   32ETHOX  H1114592  17.398  10.982   6.839  1.2808 -1.3557 -0.0481
   32ETHOX  H1314593  17.469  11.129   6.782 -2.2559  3.1139  0.9750
   32ETHOX   C214594  17.561  11.050   6.964 -0.1999 -0.4319 -0.2229
   32ETHOX  H2114595  17.589  11.149   7.006 -1.3040  0.0844 -0.6661
   32ETHOX  H2314596  17.644  11.023   6.894 -2.1497  2.3576 -4.0298
   33ETHOX   O114597  17.543  10.962   7.066  0.5562  0.0591 -0.3908
   33ETHOX   C114598  17.645  10.954   7.158  0.0849  0.3980 -0.3720
   33ETHOX  H1114599  17.736  10.926   7.102 -0.0454 -1.1350  0.1517
   33ETHOX  H1314600  17.656  11.052   7.210 -0.1819 -0.2090  0.8524
   33ETHOX   C214601  17.630  10.841   7.263 -0.0522 -0.1165 -1.3082
   33ETHOX  H2114602  17.521  10.846   7.287  0.2616  0.6669  0.0365
   33ETHOX  H2314603  17.699  10.857   7.348 -0.8252  1.6000 -0.9683
   34ETHOX   O114604  17.660  10.708   7.220 -0.0164  0.0307 -0.3495
   34ETHOX   C114605  17.619  10.617   7.321 -1.0590  0.6083  0.2321
   34ETHOX  H1114606  17.509  10.609   7.338 -0.9873  1.3969  1.2180
   34ETHOX  H1314607  17.655  10.662   7.416  0.1012  1.8127 -0.7433
   34ETHOX   C214608  17.701  10.483   7.310  0.7188  0.0689  0.2911
   34ETHOX  H2114609  17.703  10.450   7.204 -0.7272  0.4397  0.1285
   34ETHOX  H2314610  17.644  10.414   7.376 -2.4064  1.7456 -0.4516
   35ETHOX   O114611  17.843  10.495   7.346 -0.0965  0.1724 -0.0015
   35ETHOX   C114612  17.915  10.375   7.323 -0.6532  0.1958  0.2464
   35ETHOX  H1114613  17.906  10.358   7.214  1.2786 -0.1736  0.1088
   35ETHOX  H1314614  18.023  10.394   7.342 -0.3348 -0.6596 -0.6457
   35ETHOX   C214615  17.875  10.246   7.396  0.1296 -0.0282  0.4386
   35ETHOX  H2114616  17.856  10.264   7.504 -0.6809 -1.3148  0.5397
   35ETHOX  H2314617  17.954  10.168   7.392 -2.2018 -2.7859  3.0874
   36ETHOX   O114618  17.761  10.186   7.333 -0.2900  0.0927  0.0004
   36ETHOX   C114619  17.751  10.054   7.388  0.2767  0.1018  0.3993
   36ETHOX  H1114620  17.763  10.055   7.498 -0.8558 -0.7553  0.5597
   36ETHOX  H1314621  17.834  10.000   7.337  1.1715  0.7529  1.1534
   36ETHOX   C214622  17.617   9.983   7.353 -0.3256 -0.8330  0.0648
   36ETHOX  H2114623  17.603   9.987   7.243 -1.4684 -0.4231  0.2136
   36ETHOX  H2314624  17.531  10.039   7.396 -0.2033 -0.9676  0.4859
   37ETHOX   O114625  17.598   9.855   7.401  0.1276  0.3757  0.0085
   37ETHOX   C114626  17.684   9.762   7.339  0.5478  0.5296 -0.1406
   37ETHOX  H1114627  17.690   9.774   7.229  0.5650 -0.6445 -0.2758
   37ETHOX  H1314628  17.788   9.767   7.379 -0.0034 -2.9080  2.1041
   37ETHOX   C214629  17.640   9.624   7.358  0.4380 -0.2870  0.4059
   37ETHOX  H2114630  17.700   9.552   7.299 -1.0665 -0.5327 -0.8609
   37ETHOX  H2314631  17.533   9.616   7.331  0.7502 -1.2076 -0.6008
   38ETHOX   O114632  17.649   9.592   7.497 -0.6516 -0.3348  0.0966
   38ETHOX   C114633  17.612   9.457   7.514  0.4903  0.6240  0.8469
   38ETHOX  H1114634  17.675   9.415   7.596  0.7007 -0.0951  0.3277
   38ETHOX  H1314635  17.625   9.395   7.422 -1.2936 -0.2776  1.1581
   38ETHOX   C214636  17.464   9.434   7.555 -0.2516 -0.0427 -0.2078
   38ETHOX  H2114637  17.449   9.324   7.550  1.4895 -0.4506  1.9923
   38ETHOX  H2314638  17.402   9.495   7.486  0.5958  2.1539  0.8839
   39ETHOX   O114639  17.437   9.477   7.688 -0.3685  0.1049  0.1133
   39ETHOX   C114640  17.330   9.407   7.742 -0.3613  0.0460 -0.3515
   39ETHOX  H1114641  17.257   9.384   7.661  0.4539 -0.6694 -0.8935
   39ETHOX  H1314642  17.376   9.313   7.779 -1.0282  0.1458  0.7876
   39ETHOX   C214643  17.267   9.493   7.862 -0.2483 -0.4854  0.5397
   39ETHOX  H2114644  17.349   9.498   7.937  0.0155 -0.3508  0.2428
   39ETHOX  H2314645  17.175   9.443   7.899 -1.9755  1.4266 -0.8704
   40ETHOX   O114646  17.229   9.630   7.809 -0.8620  0.2392  0.5308
   40ETHOX   C114647  17.136   9.694   7.891  1.0628  0.5336 -0.1475
   40ETHOX  H1114648  17.176   9.701   7.995  2.4172  0.9392 -0.6666
   40ETHOX  H1314649  17.043   9.635   7.904  0.4454  2.0569  3.7277
   40ETHOX   C214650  17.103   9.826   7.826 -0.4694 -0.1719 -0.2055
   40ETHOX  H2114651  17.007   9.869   7.861  0.5245  1.0410  1.1668
   40ETHOX  H2314652  17.089   9.810   7.716 -2.5722 -0.2649  0.0396
   41ETHOX   O114653  17.208   9.920   7.844  0.4898  0.2498 -0.5152
   41ETHOX   C114654  17.182  10.033   7.765 -0.3200  0.0715 -0.1133
   41ETHOX  H1114655  17.192  10.005   7.658 -2.0869 -1.4999  0.0783
   41ETHOX  H1314656  17.079  10.072   7.778 -0.5311 -1.0435  2.0326
   41ETHOX   C214657  17.280  10.145   7.794 -0.7950 -0.6735  0.2598
   41ETHOX  H2114658  17.277  10.230   7.723 -1.5576  1.9896  3.2516
   41ETHOX  H2314659  17.385  10.108   7.799 -0.3267  0.6191  0.5919
   42ETHOX   O114660  17.255  10.211   7.919 -0.2346 -0.0248  0.5533
   42ETHOX   C114661  17.352  10.305   7.962 -0.5312  0.3110  0.2540
   42ETHOX  H1114662  17.447  10.249   7.972 -0.2365  0.5767 -0.9296
   42ETHOX  H1314663  17.353  10.377   7.877 -0.2872  0.0653  0.0512
   42ETHOX   C214664  17.309  10.375   8.096 -0.1733  0.2580  0.4581
   42ETHOX  H2114665  17.383  10.456   8.113  0.7561  0.0717 -2.1224
   42ETHOX  H2314666  17.315  10.300   8.178  1.6294 -0.3033 -0.1238
   43ETHOX   O114667  17.179  10.429   8.090 -0.0978 -0.2763 -0.1345
   43ETHOX   C114668  17.155  10.498   8.215 -0.1800 -0.6644 -0.1744
   43ETHOX  H1114669  17.156  10.421   8.295  1.0368 -1.6683 -1.1215
   43ETHOX  H1314670  17.237  10.570   8.231  0.2420 -1.8347  4.4893
   43ETHOX   C214671  17.024  10.566   8.209 -0.0082  0.3325  0.2313
   43ETHOX  H2114672  17.019  10.619   8.111  1.9303 -0.4553 -0.3357
   43ETHOX  H2314673  17.004  10.641   8.288  0.1847 -0.4374  1.0221
   44ETHOX   O114674  16.916  10.466   8.214 -0.4492 -0.2908  0.3118
   44ETHOX   C114675  16.781  10.515   8.193 -0.0935 -0.3597 -0.1880
   44ETHOX  H1114676  16.734  10.563   8.281  0.3320 -0.8357  0.3022
   44ETHOX  H1314677  16.773  10.586   8.107 -1.7738 -1.3724 -0.9198
   44ETHOX   C214678  16.682  10.405   8.156  0.1574  0.1941  0.6501
   44ETHOX  H2114679  16.730  10.352   8.071  1.3895 -1.5372  2.3439
   44ETHOX  H2314680  16.586  10.447   8.121 -1.8449 -3.5809  1.0835
   45ETHOX   O114681  16.651  10.312   8.260  0.9944 -0.0634 -0.3970
   45ETHOX   C114682  16.555  10.208   8.224  0.1096 -0.7191  0.2112
   45ETHOX  H1114683  16.579  10.172   8.122 -2.3028 -2.2430  0.1077
   45ETHOX  H1314684  16.455  10.256   8.216 -0.5352 -2.0625  0.0044
   45ETHOX   C214685  16.551  10.108   8.339  0.0681  0.2481 -0.0094
   45ETHOX  H2114686  16.658  10.090   8.360  0.0119  1.4089  1.4773
   45ETHOX  H2314687  16.505  10.013   8.304 -1.0615  0.3810  1.0189
   46ETHOX   O114688  16.489  10.153   8.460  0.6404  0.1867  0.2181
   46ETHOX   C114689  16.530  10.083   8.580  0.3304  0.4048  0.2029
   46ETHOX  H1114690  16.456  10.109   8.659  0.1521  1.8863 -0.4163
   46ETHOX  H1314691  16.533   9.973   8.564 -1.9495  0.3341 -0.0462
   46ETHOX   C214692  16.659  10.153   8.635 -0.0012  0.0089 -0.4820
   46ETHOX  H2114693  16.654  10.263   8.617  1.4164  0.3566  1.0458
   46ETHOX  H2314694  16.755  10.130   8.585  1.1816 -0.2260  1.7347
   47ETHOX   O114695  16.670  10.144   8.781 -0.0732 -0.1673 -0.0481
   47ETHOX   C114696  16.710  10.015   8.822 -0.1772 -0.5344 -0.0897
   47ETHOX  H1114697  16.807   9.986   8.776  0.4337  0.6769  0.4037
   47ETHOX  H1314698  16.634   9.937   8.797  1.1683 -2.3072  1.1115
   47ETHOX   C214699  16.737  10.005   8.975 -0.3433  0.3662  0.7879
   47ETHOX  H2114700  16.740   9.897   8.997 -0.8462 -0.1585 -1.4664
   47ETHOX  H2314701  16.647  10.042   9.030  1.3100  0.8877  3.3018
   48ETHOX   O114702  16.850  10.084   9.023  0.7627  0.0293 -0.3107
   48ETHOX   C114703  16.869  10.084   9.164 -0.1942  0.4224  0.0203
   48ETHOX  H1114704  16.954  10.154   9.180  0.7154 -0.6233 -0.0948
   48ETHOX  H1314705  16.784  10.125   9.223 -0.7387 -2.8971  1.8014
   48ETHOX   C214706  16.906   9.948   9.232 -0.0716 -0.6710  0.2874
   48ETHOX  H2114707  16.913   9.964   9.342 -0.4973  0.6533  0.1401
   48ETHOX  H2314708  16.821   9.878   9.219 -0.2485 -1.1299  3.1819
   49ETHOX   O114709  17.026   9.891   9.181  0.3523  0.5660  0.1900
   49ETHOX   C114710  17.097   9.837   9.289  0.0616  0.2192  0.3951
   49ETHOX  H1114711  17.035   9.792   9.370 -0.5258  0.1703 -0.0701
   49ETHOX  H1314712  17.143   9.921   9.345 -0.3794 -1.7800  4.0673
   49ETHOX   C214713  17.209   9.731   9.249  0.5843 -0.5046 -0.3836
   49ETHOX  H2114714  17.282   9.715   9.331 -0.6907  1.2516  1.1822
   49ETHOX  H2314715  17.264   9.781   9.166  0.8913  1.3358  0.8704
   50ETHOX   O114716  17.156   9.608   9.219 -0.3531  0.7326  0.2919
   50ETHOX   C114717  17.216   9.554   9.100  0.2139  0.2671  0.3631
   50ETHOX  H1114718  17.191   9.628   9.020 -1.2864  2.1662  2.4571
   50ETHOX  H1314719  17.327   9.554   9.102  0.2536  1.9828 -0.0928
   50ETHOX   C214720  17.172   9.410   9.084  0.0959  0.2670  0.1246
   50ETHOX  H2114721  17.063   9.408   9.108 -0.0070 -0.4058 -0.3644
   50ETHOX  H2314722  17.223   9.338   9.153  1.6732  0.7311 -0.5291
   51ETHOX   O114723  17.176   9.346   8.958 -0.2568  0.0668  0.0389
   51ETHOX   C114724  17.098   9.226   8.947 -0.3909 -0.6266 -0.4341
   51ETHOX  H1114725  16.998   9.238   8.993  0.5246  2.8126  0.9961
   51ETHOX  H1314726  17.167   9.153   8.995  3.5302  2.1777 -1.2671
   51ETHOX   C214727  17.086   9.188   8.798  0.1716  0.7290 -0.0431
   51ETHOX  H2114728  17.015   9.258   8.748  0.6318 -0.1647 -2.0755
   51ETHOX  H2314729  17.046   9.085   8.790  1.6565  0.2288 -1.6941
   52ETHOX   O114730  17.204   9.212   8.723 -0.0616 -0.3567  0.3212
   52ETHOX   C114731  17.225   9.113   8.626 -0.5183  0.7363 -0.5585
   52ETHOX  H1114732  17.213   9.013   8.673  0.6820  1.1195  0.6317
   52ETHOX  H1314733  17.149   9.132   8.548 -0.9113 -0.6749 -0.5347
   52ETHOX   C214734  17.352   9.111   8.539  0.8922  0.0835 -0.1436
   52ETHOX  H2114735  17.354   9.215   8.500 -1.9254  0.9353  1.7398
   52ETHOX  H2314736  17.348   9.036   8.457  3.4865  0.3507 -0.6130
   53ETHOX   O114737  17.469   9.085   8.614 -0.0755 -0.0128  0.1619
   53ETHOX   C114738  17.584   9.136   8.549 -0.2241 -0.1587 -0.8145
   53ETHOX  H1114739  17.651   9.051   8.522  1.8436  0.5806  1.5677
   53ETHOX  H1314740  17.559   9.205   8.466 -0.8098  0.2628 -0.2998
   53ETHOX   C214741  17.678   9.196   8.656 -0.2870 -0.0231  0.3266
   53ETHOX  H2114742  17.621   9.249   8.735  0.3463 -1.7926  2.0591
   53ETHOX  H2314743  17.738   9.265   8.592 -1.2720  0.0255 -0.5728
   54ETHOX   O114744  17.755   9.099   8.715  0.4043  0.7086  0.1537
   54ETHOX   C114745  17.869   9.148   8.791  0.4039  0.7079  0.3867
   54ETHOX  H1114746  17.934   9.220   8.738  2.0395 -1.0305 -0.0496
   54ETHOX  H1314747  17.818   9.203   8.874 -0.0955  0.3463  0.3303
   54ETHOX   C214748  17.944   9.028   8.850  0.1374 -0.3612  0.6825
   54ETHOX  H2114749  17.870   8.953   8.885  0.5469 -1.1605 -0.1427
   54ETHOX  H2314750  18.006   9.065   8.934  0.3074  0.0647  0.3735
   55ETHOX   O114751  18.040   8.989   8.750 -0.5110 -0.0822 -0.2180
   55ETHOX   C114752  18.140   8.904   8.809  0.1935 -0.3965  0.0767
   55ETHOX  H1114753  18.183   8.959   8.896 -0.5278  1.5800 -0.7674
   55ETHOX  H1314754  18.098   8.805   8.841 -0.1181  0.1205  1.3418
   55ETHOX   C214755  18.245   8.875   8.697 -0.5027 -0.3504  0.2361
   55ETHOX  H2114756  18.281   8.973   8.660  0.0024 -0.6726 -0.1471
   55ETHOX  H2314757  18.334   8.825   8.743  1.0989  0.9150 -1.3262
   56ETHOX   O114758  18.201   8.793   8.590 -0.1908  0.2053 -0.4761
   56ETHOX   C114759  18.303   8.792   8.490 -0.9079  0.1152  0.1158
   56ETHOX  H1114760  18.399   8.770   8.541 -1.5289  0.4926  1.4983
   56ETHOX  H1314761  18.320   8.895   8.452  2.7741 -0.4218 -0.1111
   56ETHOX   C214762  18.286   8.709   8.362  0.5135  0.6180 -0.3011
   56ETHOX  H2114763  18.278   8.602   8.393  1.2597  0.8344  0.6864
   56ETHOX  H2314764  18.374   8.724   8.295  0.8787 -0.4220 -0.0772
   57ETHOX   O114765  18.176   8.752   8.279  0.2443  1.0619 -0.0108
   57ETHOX   C114766  18.049   8.733   8.347  0.6532 -0.3054  0.0893
   57ETHOX  H1114767  18.051   8.632   8.394  0.6434 -1.7383 -2.7681
   57ETHOX  H1314768  18.031   8.820   8.414 -0.3603  1.1662 -1.9808
   57ETHOX   C214769  17.942   8.736   8.231  0.9196 -0.0581  0.1502
   57ETHOX  H2114770  17.973   8.808   8.152 -0.3726  0.6837  0.2968
   57ETHOX  H2314771  17.838   8.744   8.269  1.0074 -0.9130  0.5893
   58ETHOX   O114772  17.945   8.609   8.168 -0.0972  0.0820 -0.5901
   58ETHOX   C114773  17.850   8.597   8.061 -0.4041 -0.0883 -0.7423
   58ETHOX  H1114774  17.841   8.696   8.012 -1.5478 -0.4180 -1.2495
   58ETHOX  H1314775  17.756   8.584   8.118  0.6378  0.4693  1.1785
   58ETHOX   C214776  17.875   8.475   7.974  0.1947  0.3146  0.7362
   58ETHOX  H2114777  17.792   8.451   7.904  0.6361  2.0306 -0.4426
   58ETHOX  H2314778  17.899   8.392   8.044 -1.7124  0.1305  1.2341
   59ETHOX   O114779  17.989   8.513   7.893 -0.6876 -0.2276  0.1799
   59ETHOX   C114780  18.025   8.412   7.798 -0.0522 -0.6572 -0.0817
   59ETHOX  H1114781  18.064   8.330   7.863  0.8947 -1.0825 -1.1541
   59ETHOX  H1314782  17.951   8.386   7.719  3.2208  0.6758 -3.9413
   59ETHOX   C214783  18.147   8.462   7.718  0.6225 -0.2897  0.6522
   59ETHOX  H2114784  18.126   8.557   7.665  0.3180  0.4414  2.0256
   59ETHOX  H2314785  18.174   8.381   7.647 -0.5565  0.7142 -1.0125
   60ETHOX   O114786  18.261   8.479   7.803  0.2552 -0.6098 -0.0530
   60ETHOX   C114787  18.383   8.515   7.732 -0.5910  0.1387 -0.2276
   60ETHOX  H1114788  18.361   8.583   7.646 -1.4694  0.0106 -0.1195
   60ETHOX  H1314789  18.425   8.421   7.691  0.3512  0.6443 -0.4525
   60ETHOX   C214790  18.482   8.562   7.836  0.7063 -0.6701 -1.1930
   60ETHOX  H2114791  18.585   8.561   7.795  1.2686  0.7326  0.0656
   60ETHOX  H2314792  18.483   8.497   7.926 -0.2753  1.5810  0.5423
   61ETHOX   O114793  18.433   8.700   7.868 -0.1699  0.7729  0.0798
   61ETHOX   C114794  18.496   8.757   7.971  0.3469 -0.2183 -0.0177
   61ETHOX  H1114795  18.440   8.847   8.005  1.0804  0.3613 -0.3371
   61ETHOX  H1314796  18.490   8.680   8.052  1.8722 -0.0741  0.2550
   61ETHOX   C214797  18.640   8.805   7.937  0.9272 -0.2966  0.1262
   61ETHOX  H2114798  18.688   8.720   7.885 -1.4948 -1.9927  0.4785
   61ETHOX  H2314799  18.699   8.820   8.030  1.9892 -0.5690 -0.4923
   62ETHOX   O114800  18.640   8.925   7.857  0.3563  0.3037  0.2224
   62ETHOX   C114801  18.768   8.976   7.835 -0.1571 -0.2424 -0.8330
   62ETHOX  H1114802  18.830   8.980   7.927  0.4758 -0.1730 -1.2603
   62ETHOX  H1314803  18.751   9.079   7.798 -1.7447 -1.3860 -3.6029
   62ETHOX   C214804  18.846   8.900   7.720 -0.2888  0.0822 -0.0868
   62ETHOX  H2114805  18.938   8.953   7.686  1.4718 -1.1360  2.4809
   62ETHOX  H2314806  18.779   8.883   7.633 -0.2927 -2.3908  0.3312
   63ETHOX   O114807  18.884   8.770   7.766  0.3444  0.2750  0.0090
   63ETHOX   C114808  18.953   8.686   7.673  0.7825  0.1309  0.5886
   63ETHOX  H1114809  18.934   8.720   7.569  0.0280 -0.0073  0.6736
   63ETHOX  H1314810  19.060   8.670   7.700  0.5120  0.1732  1.7411
   63ETHOX   C214811  18.887   8.553   7.675 -0.0119  0.0025 -0.2860
   63ETHOX  H2114812  18.940   8.473   7.619  0.9144 -0.2059  0.8666
   63ETHOX  H2314813  18.785   8.551   7.630  0.0000 -0.6207 -0.2954
   64ETHOX   O114814  18.884   8.499   7.803  0.3644  0.3835 -0.2744
   64ETHOX   C114815  18.824   8.368   7.812 -0.7029  0.4616  0.8196
   64ETHOX  H1114816  18.870   8.292   7.745  0.1074  1.4590  0.2117
   64ETHOX  H1314817  18.716   8.373   7.786 -1.1809  0.6122  2.6739
   64ETHOX   C214818  18.834   8.323   7.954 -0.1640 -0.2835  0.1458
   64ETHOX  H2114819  18.749   8.363   8.014 -1.1379  0.0224 -1.3767
   64ETHOX  H2314820  18.929   8.366   7.991 -1.8967  2.5919  1.6206
   65ETHOX   O114821  18.834   8.180   7.964  0.4049 -0.0793 -0.1655
   65ETHOX   C114822  18.812   8.156   8.106 -0.0597 -0.2969  0.0208
   65ETHOX  H1114823  18.900   8.177   8.171  1.1901 -0.8604 -1.4384
   65ETHOX  H1314824  18.725   8.215   8.141 -0.0447 -0.7650  0.8877
   65ETHOX   C214825  18.789   8.004   8.141  0.2816 -0.1267  0.3039
   65ETHOX  H2114826  18.795   7.985   8.250 -1.0867 -1.5269  0.1689
   65ETHOX  H2314827  18.871   7.952   8.087 -1.2420 -1.0730 -1.1849
   66ETHOX   O114828  18.667   7.957   8.089 -0.1498  0.3041 -0.2713
   66ETHOX   C114829  18.640   7.823   8.119 -0.4127  0.1703  0.1941
   66ETHOX  H1114830  18.622   7.820   8.229  0.2086  0.3466  0.3098
   66ETHOX  H1314831  18.732   7.762   8.102 -1.4194 -1.6676  0.9824
   66ETHOX   C214832  18.527   7.774   8.027 -0.6592 -0.3171 -0.3197
   66ETHOX  H2114833  18.530   7.665   8.050 -0.8863 -0.3022 -0.2112
   66ETHOX  H2314834  18.536   7.788   7.917 -0.8356 -0.7347 -0.3928
   67ETHOX   O114835  18.404   7.829   8.068  0.3314  0.3313 -0.3186
   67ETHOX   C114836  18.301   7.799   7.984  0.1549 -0.2045  0.9160
   67ETHOX  H1114837  18.323   7.855   7.890 -0.3896 -2.4554 -0.6433
   67ETHOX  H1314838  18.317   7.696   7.946 -0.2555  1.2118 -3.6731
   67ETHOX   C214839  18.160   7.822   8.026 -0.7390  0.4463  0.1962
   67ETHOX  H2114840  18.091   7.804   7.941  0.0198 -0.0808 -0.3227
   67ETHOX  H2314841  18.155   7.930   8.053 -1.3639  0.7946 -1.1965
   68ETHOX   O114842  18.109   7.739   8.133  0.0483  0.1946 -0.0044
   68ETHOX   C114843  17.986   7.782   8.183 -0.1863  1.2390 -0.0329
   68ETHOX  H1114844  17.913   7.817   8.106 -0.5305 -3.1785 -2.0792
   68ETHOX  H1314845  17.933   7.690   8.215  0.2987  0.3170 -1.7375
   68ETHOX   C214846  18.004   7.872   8.307 -0.0920 -0.3369 -0.3148
   68ETHOX  H2114847  18.095   7.851   8.367  0.3739 -0.9475 -1.2244
   68ETHOX  H2314848  17.913   7.848   8.366 -1.1238 -1.3741 -2.2254
   69ETHOX   O114849  17.995   8.008   8.266  0.3490 -0.4406  0.2410
   69ETHOX   C114850  18.034   8.087   8.376  0.3467  0.2624 -0.0029
   69ETHOX  H1114851  17.992   8.037   8.465 -0.4723  1.0559  0.0739
   69ETHOX  H1314852  18.145   8.098   8.380  0.2312  1.4656  0.0651
   69ETHOX   C214853  17.981   8.228   8.369  0.0584 -0.4536  0.5139
   69ETHOX  H2114854  17.976   8.256   8.261  0.5973  1.5333  0.9610
   69ETHOX  H2314855  18.065   8.282   8.418  2.3367 -3.0514 -0.2427
   70ETHOX   O114856  17.858   8.251   8.444  0.5859  0.4672 -0.6406
   70ETHOX   C114857  17.825   8.390   8.440  0.3164 -0.2313 -0.3434
   70ETHOX  H1114858  17.920   8.436   8.477  0.1217 -1.2069  1.4708
   70ETHOX  H1314859  17.812   8.423   8.335 -1.4423  0.2313 -0.0118
   70ETHOX   C214860  17.718   8.448   8.534 -0.0531  0.3318 -0.2635
   70ETHOX  H2114861  17.744   8.553   8.559 -1.3927  0.9314 -1.2396
   70ETHOX  H2314862  17.720   8.391   8.630  1.0661 -0.9197 -1.0058
   71ETHOX   O114863  17.588   8.441   8.482  0.5224  0.3022 -0.3994
   71ETHOX   C114864  17.550   8.318   8.442  0.8454  0.5462  0.2481
   71ETHOX  H1114865  17.587   8.241   8.514  0.2165 -0.5373 -0.5454
   71ETHOX  H1314866  17.584   8.285   8.341 -3.0566 -2.4516 -0.3742
   71ETHOX   C214867  17.395   8.306   8.435  0.3930 -0.2890  0.1059
   71ETHOX  H2114868  17.352   8.217   8.383  0.1670  0.4231 -0.9632
   71ETHOX  H2314869  17.364   8.392   8.372 -2.0600  0.0449  1.6606
   72ETHOX   O114870  17.334   8.307   8.565 -0.1549  0.3594 -0.4847
   72ETHOX   C114871  17.191   8.307   8.557 -0.0461 -0.3772  0.7370
   72ETHOX  H1114872  17.167   8.405   8.511  0.0741 -0.9024 -0.4833
   72ETHOX  H1314873  17.161   8.225   8.488  0.4180  0.9704 -1.1442
   72ETHOX   C214874  17.107   8.292   8.686  0.2905 -0.2086 -0.6364
   72ETHOX  H2114875  17.004   8.311   8.649 -0.1599 -0.7073  0.3173
   72ETHOX  H2314876  17.143   8.365   8.762  0.8562 -2.5926  1.5237
   73ETHOX   O114877  17.114   8.164   8.737 -0.1347 -0.6837 -0.2890
   73ETHOX   C114878  17.113   8.158   8.876  0.2438  0.0298 -0.1899
   73ETHOX  H1114879  17.014   8.193   8.913 -0.0805 -0.9099 -0.1352
   73ETHOX  H1314880  17.185   8.233   8.913 -0.3761  1.0311 -0.9690
   73ETHOX   C214881  17.138   8.014   8.923 -0.0952 -0.3200  0.3937
   73ETHOX  H2114882  17.187   8.008   9.023 -0.4546  0.7191  0.6411
   73ETHOX  H2314883  17.209   7.966   8.852  0.4867 -0.4858  1.0783
   74ETHOX   O114884  17.007   7.948   8.926  0.0526 -0.2059  0.3441
   74ETHOX   C114885  17.019   7.804   8.924  0.4634  0.8927  0.3120
   74ETHOX  H1114886  17.095   7.774   8.848  0.2035  2.9521 -0.8414
   74ETHOX  H1314887  17.067   7.776   9.020 -0.3787 -2.1198 -0.0414
   74ETHOX   C214888  16.885   7.727   8.898  0.3753  0.0562 -0.0498
   74ETHOX  H2114889  16.808   7.765   8.968 -0.2443 -0.3326 -0.5143
   74ETHOX  H2314890  16.905   7.618   8.904 -0.2886 -0.2823 -2.6867
   75ETHOX   O114891  16.822   7.756   8.766 -0.1564 -0.2750 -0.1250
   75ETHOX   C114892  16.883   7.689   8.659 -0.0512 -0.0439 -0.1332
   75ETHOX  H1114893  16.889   7.581   8.684  0.3716  0.2362  1.0215
   75ETHOX  H1314894  16.991   7.714   8.651  0.5078 -1.4583  2.1067
   75ETHOX   C214895  16.812   7.703   8.524  0.1101 -0.3046 -0.6298
   75ETHOX  H2114896  16.701   7.697   8.523  0.0374  0.8884 -1.5887
   75ETHOX  H2314897  16.844   7.616   8.463 -0.4512 -1.5081  0.7123
   76ETHOX   O114898  16.843   7.816   8.445  0.3539 -0.0741  0.2477
   76ETHOX   C114899  16.835   7.945   8.515  0.2388  0.2223 -0.7941
   76ETHOX  H1114900  16.730   7.958   8.549  0.0026  0.0426 -1.4434
   76ETHOX  H1314901  16.896   7.940   8.607 -0.5997 -1.5962 -0.2769
   76ETHOX   C214902  16.901   8.061   8.440  0.4208  0.3210  0.2020
   76ETHOX  H2114903  17.007   8.027   8.435  0.2209 -0.2224 -0.4622
   76ETHOX  H2314904  16.893   8.159   8.491 -1.5048  0.2858  0.0416
   77ETHOX   O114905  16.862   8.075   8.301 -0.4482 -0.0965 -0.1807
   77ETHOX   C114906  16.757   8.169   8.275 -0.2836 -0.4513  0.2064
   77ETHOX  H1114907  16.687   8.173   8.361  3.1315  1.1433  3.1657
   77ETHOX  H1314908  16.697   8.138   8.187 -0.6141  1.3054 -0.2228
   77ETHOX   C214909  16.820   8.309   8.250 -0.5005  0.1150  0.2220
   77ETHOX  H2114910  16.893   8.348   8.324 -1.7503  1.1790  0.9278
   77ETHOX  H2314911  16.747   8.392   8.251  0.3230  0.9122 -1.8936
   78ETHOX   O114912  16.879   8.303   8.122 -0.1505 -0.7471  0.2394
   78ETHOX   C114913  16.883   8.430   8.065  0.0478 -0.0572  0.2953
   78ETHOX  H1114914  16.899   8.501   8.148 -1.4593  0.0193  0.5541
   78ETHOX  H1314915  16.967   8.420   7.993 -0.0177  1.2575  0.0245
   78ETHOX   C214916  16.762   8.476   7.987 -0.0471  0.2154  0.2224
   78ETHOX  H2114917  16.735   8.406   7.905 -1.3364 -0.2771  1.0357
   78ETHOX  H2314918  16.783   8.572   7.936  4.5133  1.1421  3.3108
   79ETHOX   O114919  16.659   8.496   8.084  0.6725 -0.5603  0.4843
   79ETHOX   C114920  16.542   8.564   8.025 -0.5519  0.2675  0.0671
   79ETHOX  H1114921  16.580   8.663   7.990  0.8108 -0.9042 -1.9138
   79ETHOX  H1314922  16.500   8.500   7.945 -0.2214  0.3213 -0.1474
   79ETHOX   C214923  16.420   8.592   8.117  0.8454 -0.7501 -0.2986
   79ETHOX  H2114924  16.392   8.488   8.146 -2.9354 -0.6873 -2.9472
   79ETHOX  H2314925  16.326   8.618   8.063  0.9868  1.1519  0.3156
   80ETHOX   O114926  16.439   8.683   8.223 -0.3199  0.3460 -0.3872
   80ETHOX   C114927  16.401   8.818   8.192 -0.7307 -0.4802 -0.2958
   80ETHOX  H1114928  16.430   8.841   8.087 -1.1200 -0.3548 -0.3763
   80ETHOX  H1314929  16.292   8.836   8.195 -0.4377  1.3850  2.0246
   80ETHOX   C214930  16.455   8.916   8.290 -0.0243  1.2866  0.4913
   80ETHOX  H2114931  16.566   8.922   8.287  0.4604 -2.6416  2.9168
   80ETHOX  H2314932  16.432   8.884   8.394  0.6995  0.2611  0.3527
   81ETHOX   O114933  16.398   9.049   8.272 -0.0013 -0.0226  0.0992
   81ETHOX   C114934  16.426   9.135   8.380 -0.1519  0.3017 -0.3666
   81ETHOX  H1114935  16.391   9.089   8.475  0.5881  1.6850  0.6016
   81ETHOX  H1314936  16.534   9.157   8.393 -0.3576  2.1936 -1.5831
   81ETHOX   C214937  16.348   9.268   8.382  0.1537  0.4178 -0.6811
   81ETHOX  H2114938  16.245   9.252   8.342  0.0096 -1.0144  0.1610
   81ETHOX  H2314939  16.338   9.303   8.487 -1.6420 -0.6231 -0.4589
   82ETHOX   O114940  16.410   9.377   8.309  0.3702  0.1973 -0.1595
   82ETHOX   C114941  16.342   9.503   8.324  0.5735 -0.3750 -0.4330
   82ETHOX  H1114942  16.360   9.531   8.430  0.7652  0.5175 -0.7010
   82ETHOX  H1314943  16.231   9.495   8.324  0.4103  0.4621 -3.8423
   82ETHOX   C214944  16.386   9.628   8.245  0.1575 -0.2067  0.2892
   82ETHOX  H2114945  16.497   9.631   8.251  0.1839  1.3098 -0.4799
   82ETHOX  H2314946  16.342   9.718   8.293  2.8113  0.3794  1.8070
   83ETHOX   O114947  16.343   9.630   8.107 -0.3904 -0.4008  0.1569
   83ETHOX   C114948  16.385   9.758   8.051  0.4201  0.4440  0.0402
   83ETHOX  H1114949  16.389   9.839   8.126 -0.4914  0.4706  0.0676
   83ETHOX  H1314950  16.485   9.738   8.007 -0.5939 -3.0259 -1.0183
   83ETHOX   C214951  16.311   9.825   7.932  0.5231 -0.5293  0.0298
   83ETHOX  H2114952  16.315   9.760   7.841 -2.0796 -0.8460  0.0878
   83ETHOX  H2314953  16.357   9.924   7.910 -1.3776  0.6331  1.1072
   84ETHOX   O114954  16.181   9.846   7.970  0.3550 -0.0911 -0.1213
   84ETHOX   C114955  16.124   9.938   7.871  0.1260  0.4700 -0.5117
   84ETHOX  H1114956  16.148   9.901   7.769  3.6153  1.2458 -0.0857
   84ETHOX  H1314957  16.185  10.030   7.875  1.0082 -0.1322  0.8806
   84ETHOX   C214958  15.979   9.963   7.886  0.4468  0.7695  0.1907
   84ETHOX  H2114959  15.926   9.865   7.889  0.7925  0.5977  2.1033
   84ETHOX  H2314960  15.941  10.031   7.808 -1.5396  1.6730  1.8304
   85ETHOX   O114961  15.947  10.031   8.010 -0.0616  0.2966 -0.4627
   85ETHOX   C114962  15.814  10.089   8.005  0.4103  0.1367  0.0883
   85ETHOX  H1114963  15.831  10.197   7.984 -0.3302  0.8241  2.6476
   85ETHOX  H1314964  15.756  10.053   7.917  3.0997  0.3674 -1.8799
   85ETHOX   C214965  15.735  10.080   8.133 -0.3364 -0.4386  1.0549
   85ETHOX  H2114966  15.761   9.980   8.174  1.0384 -0.4164  0.2860
   85ETHOX  H2314967  15.626  10.079   8.108 -0.5402  0.7036  1.8040
   86ETHOX   O114968  15.753  10.189   8.222 -0.3329 -0.3817 -0.2783
   86ETHOX   C114969  15.710  10.162   8.352 -0.3856 -0.8416  0.1585
   86ETHOX  H1114970  15.783  10.091   8.396  0.0231 -1.0679 -0.8488
   86ETHOX  H1314971  15.606  10.122   8.348 -0.5174 -1.4442  4.5315
   86ETHOX   C214972  15.711  10.281   8.446  0.2378  0.2787  1.0998
   86ETHOX  H2114973  15.764  10.359   8.387  2.2326 -1.6395  0.2247
   86ETHOX  H2314974  15.776  10.267   8.535  1.1582  0.5036  0.4770
   87ETHOX   O114975  15.576  10.320   8.489  0.2700 -0.1974  0.9390
   87ETHOX   C114976  15.519  10.405   8.389 -0.1203  0.2941  0.7018
   87ETHOX  H1114977  15.575  10.500   8.381 -0.4452  0.5544  1.4612
   87ETHOX  H1314978  15.536  10.362   8.288  1.4153 -2.5886  2.0654
   87ETHOX   C214979  15.366  10.428   8.415 -0.4931 -0.2106 -0.3930
   87ETHOX  H2114980  15.325  10.519   8.366 -3.4699 -0.4387  1.3976
   87ETHOX  H2314981  15.349  10.445   8.524 -0.7671  0.8384 -0.5810
   88ETHOX   O114982  15.283  10.322   8.383 -0.5732  0.9413 -0.2185
   88ETHOX   C114983  15.152  10.338   8.443 -0.4840  0.3185 -0.3753
   88ETHOX  H1114984  15.146  10.353   8.553 -2.0211 -0.6971 -0.2872
   88ETHOX  H1314985  15.107  10.237   8.429 -0.2789  0.1125  0.4234
   88ETHOX   C214986  15.053  10.434   8.375  0.2272 -0.3334  0.2777
   88ETHOX  H2114987  15.055  10.391   8.273  0.8347 -1.7804  0.8627
   88ETHOX  H2314988  15.094  10.537   8.381  0.7009 -0.3348 -2.1107
   89ETHOX   O114989  14.927  10.424   8.440  0.3524  0.6254 -0.1190
   89ETHOX   C114990  14.853  10.544   8.421  0.4752 -0.3946 -0.4826
   89ETHOX  H1114991  14.908  10.621   8.479 -0.5636 -0.4246  0.5935
   89ETHOX  H1314992  14.865  10.564   8.313  0.4470  0.7038 -0.2927
   89ETHOX   C214993  14.699  10.524   8.456  0.0695 -0.3047  0.5018
   89ETHOX  H2114994  14.646  10.622   8.445  1.3420  0.4453  0.8356
   89ETHOX  H2314995  14.687  10.482   8.558 -0.2079  1.0529  1.0524
   90ETHOX   O114996  14.647  10.430   8.353 -0.2202  0.1339 -0.0656
   90ETHOX   C114997  14.507  10.408   8.361  0.0663  0.3990  0.5948
   90ETHOX  H1114998  14.444  10.486   8.410 -3.4436 -1.8933  0.0696
   90ETHOX  H1314999  14.469  10.378   8.261  0.4201  1.7968  0.0036
   90ETHOX   C215000  14.491  10.283   8.441  0.0604 -0.7014 -0.0280
   90ETHOX  H2115001  14.384  10.254   8.442  0.9096 -4.4342 -1.3694
   90ETHOX  H2315002  14.519  10.312   8.544  0.2101  1.3413 -0.6029
   91ETHOX   O115003  14.575  10.176   8.397  0.4404 -0.0439  0.2853
   91ETHOX   C115004  14.509  10.055   8.390  0.3484  0.5037 -0.2070
   91ETHOX  H1115005  14.576   9.969   8.412 -0.9110 -0.3560  0.3865
   91ETHOX  H1315006  14.437  10.052   8.474  0.8067  0.8252  0.2013
   91ETHOX   C215007  14.442  10.035   8.255  0.6637  0.0279 -0.7502
   91ETHOX  H2115008  14.360  10.106   8.233 -0.6354 -1.6322 -1.4660
   91ETHOX  H2315009  14.396   9.934   8.264  2.0854 -0.6342 -0.7229
   92ETHOX   O115010  14.539  10.051   8.152 -0.9651 -0.1865 -0.5279
   92ETHOX   C115011  14.491  10.027   8.019 -0.5943 -0.4727  0.3233
   92ETHOX  H1115012  14.404   9.957   8.013 -0.5202 -0.5570  0.2341
   92ETHOX  H1315013  14.459  10.126   7.980  1.4408  0.1684  0.1894
   92ETHOX   C215014  14.608   9.984   7.923  0.0744 -0.5401  0.3489
   92ETHOX  H2115015  14.699  10.038   7.955 -0.4039  0.5405 -0.0432
   92ETHOX  H2315016  14.600  10.031   7.822  4.8369  1.2542  0.5602
   93ETHOX   O115017  14.634   9.849   7.917  0.3176 -0.2768 -0.0768
   93ETHOX   C115018  14.753   9.812   7.853  0.0993  0.3923 -0.4552
   93ETHOX  H1115019  14.832   9.820   7.931  0.6456 -1.1972 -0.8138
   93ETHOX  H1315020  14.768   9.879   7.766 -2.8224 -2.0786 -3.0844
   93ETHOX   C215021  14.761   9.665   7.804 -0.0443 -0.9452 -0.1409
   93ETHOX  H2115022  14.750   9.599   7.893  0.0936  0.7518  1.1718
   93ETHOX  H2315023  14.854   9.665   7.744 -0.0576 -0.5415 -0.1599
   94ETHOX   O115024  14.637   9.629   7.740 -0.7483 -0.0117 -0.4003
   94ETHOX   C115025  14.647   9.496   7.702  0.2780 -0.7270  0.0901
   94ETHOX  H1115026  14.721   9.476   7.621  0.3101  0.1942 -0.1200
   94ETHOX  H1315027  14.669   9.429   7.787  0.7691 -1.0989 -0.3174
   94ETHOX   C215028  14.510   9.452   7.656  0.2908 -0.1176 -0.2277
   94ETHOX  H2115029  14.509   9.362   7.591  0.1806 -2.1497  2.4282
   94ETHOX  H2315030  14.470   9.523   7.580  3.3088  0.4069 -1.4973
   95ETHOX   O115031  14.421   9.433   7.771  0.0502 -0.1439 -0.5976
   95ETHOX   C115032  14.281   9.417   7.724 -0.7526 -0.2866 -0.1779
   95ETHOX  H1115033  14.273   9.357   7.631 -1.0083  1.1909 -1.1428
   95ETHOX  H1315034  14.249   9.519   7.696 -1.1778 -0.2016  0.5904
   95ETHOX   C215035  14.204   9.354   7.834  0.1318  0.5992 -0.1315
   95ETHOX  H2115036  14.099   9.389   7.828  0.8888  3.4992  1.3441
   95ETHOX  H2315037  14.243   9.369   7.938 -2.0079  0.2065  0.7713
   96ETHOX   O115038  14.195   9.214   7.811  0.7674 -0.8038 -0.3749
   96ETHOX   C115039  14.098   9.147   7.894 -0.0615 -0.4223 -0.2405
   96ETHOX  H1115040  14.115   9.037   7.892  1.3130 -0.2243 -0.5278
   96ETHOX  H1315041  14.112   9.185   7.998  1.6503 -0.5052 -0.4163
   96ETHOX   C215042  13.948   9.166   7.855 -0.5810 -0.5070 -0.2873
   96ETHOX  H2115043  13.918   9.273   7.852 -0.0735 -0.3719 -2.6612
   96ETHOX  H2315044  13.890   9.120   7.937  2.0704  1.2067  2.7783
   97ETHOX   O115045  13.933   9.097   7.730 -0.4253 -0.2647  0.3032
   97ETHOX   C115046  13.816   9.133   7.672 -0.2285  0.1298  0.6187
   97ETHOX  H1115047  13.830   9.123   7.563  0.1962 -0.3219  0.7120
   97ETHOX  H1315048  13.785   9.240   7.682 -2.1724 -0.3774  0.3950
   97ETHOX   C215049  13.696   9.039   7.704 -0.1713  0.2586 -0.4009
   97ETHOX  H2115050  13.734   8.936   7.688 -0.0317  0.3970 -0.9782
   97ETHOX  H2315051  13.606   9.056   7.642  0.5992  1.1985 -1.2958
   98ETHOX   O115052  13.656   9.052   7.836  0.5845  0.1669  0.6408
   98ETHOX   C115053  13.556   8.971   7.880 -0.1389  0.0221  0.1275
   98ETHOX  H1115054  13.561   8.870   7.835  0.0568  0.7524 -1.5695
   98ETHOX  H1315055  13.579   8.965   7.989  1.9876 -0.9294 -0.3237
   98ETHOX   C215056  13.416   9.029   7.856 -0.2385 -0.2172 -0.6055
   98ETHOX  H2115057  13.339   8.952   7.879 -1.6991  1.1382 -0.8083
   98ETHOX  H2315058  13.402   9.035   7.746  0.4353 -0.3185 -0.7046
   99ETHOX   O115059  13.393   9.155   7.925  0.2975 -0.2779 -0.1184
   99ETHOX   C115060  13.258   9.207   7.915  0.2372  0.2965 -0.6245
   99ETHOX  H1115061  13.209   9.131   7.979  1.9373 -1.4012 -1.2056
   99ETHOX  H1315062  13.218   9.206   7.811 -0.5309  0.6637 -0.3401
   99ETHOX   C215063  13.265   9.347   7.979 -0.2804 -0.1368  0.5338
   99ETHOX  H2115064  13.181   9.413   7.951  0.3164 -0.7217 -3.1021
   99ETHOX  H2315065  13.356   9.396   7.938  1.1855 -2.4301  0.8968
  100ETHOX   O115066  13.287   9.327   8.113 -0.2549 -0.1711  0.2444
  100ETHOX   C115067  13.275   9.442   8.197 -0.3482 -0.4204  0.2021
  100ETHOX  H1115068  13.331   9.528   8.154 -2.1416  0.9067  0.3950
  100ETHOX  H1315069  13.166   9.464   8.191 -0.3601 -0.5001  0.1219
  100ETHOX   C215070  13.329   9.418   8.337 -0.1891  0.9589 -0.2145
  100ETHOX  H2115071  13.284   9.321   8.367  1.8435  0.2589  0.6773
  100ETHOX  H2315072  13.285   9.505   8.390 -2.7564  0.9269 -2.0693
  101PROXS   O115073  13.474   9.420   8.349  0.9318  0.3886  0.4468
  101PROXS   C115074  13.513   9.446   8.487 -0.2324 -0.3451 -0.4817
  101PROXS  H1115075  13.460   9.536   8.524 -0.2402 -0.5904  0.1152
  101PROXS  H1315076  13.476   9.368   8.557  1.4547 -1.0318 -0.3104
  101PROXS   C215077  13.665   9.471   8.498 -0.2237  0.3875  0.3664
  101PROXS  H2115078  13.693   9.510   8.398  2.2111 -0.2026  0.7523
  101PROXS   C315079  13.736   9.329   8.517 -0.5595 -0.1587 -0.0880
  101PROXS  H3115080  13.750   9.292   8.621  1.3633  1.1839  0.1921
  101PROXS  H3215081  13.687   9.242   8.469 -1.4871  0.3225 -0.0440
  101PROXS  H3315082  13.837   9.323   8.470 -0.0193 -2.8412  1.2088
  102PROXS   O115083  13.697   9.560   8.604 -0.3865  0.1763  0.3470
  102PROXS   C115084  13.832   9.595   8.604 -0.3712 -0.1039  0.0654
  102PROXS  H1115085  13.892   9.519   8.658  1.5208  1.0126 -0.3754
  102PROXS  H1315086  13.871   9.596   8.500  0.4768  2.8250  0.3150
  102PROXS   C215087  13.866   9.729   8.669  0.2576 -0.1935  0.1318
  102PROXS  H2115088  13.776   9.761   8.727  0.4571 -2.0796  1.6081
  102PROXS   C315089  13.892   9.832   8.555 -0.0629  0.6901  0.1800
  102PROXS  H3115090  13.879   9.935   8.595 -1.8143  0.3276  0.5989
  102PROXS  H3215091  13.987   9.812   8.501  0.7580  2.9532  0.6755
  102PROXS  H3315092  13.803   9.818   8.489 -0.7760 -0.3822  1.3288
  103PROXR   O115093  13.982   9.708   8.744 -0.0165 -0.4916  1.0808
  103PROXR   C115094  13.985   9.785   8.861 -0.5033 -0.5901 -0.0737
  103PROXR  H1115095  14.004   9.886   8.818 -2.8947 -0.9072 -2.0563
  103PROXR  H1315096  13.882   9.798   8.901 -0.3860  1.0202 -0.2065
  103PROXR   C215097  14.083   9.728   8.964 -0.5254 -0.4265 -0.1328
  103PROXR  H2115098  14.185   9.731   8.919 -0.6009 -1.2252 -0.3677
  103PROXR   C315099  14.042   9.588   9.004  0.1451  0.0804  0.4857
  103PROXR  H3115100  14.112   9.534   9.071 -0.6501 -1.8800 -0.1869
  103PROXR  H3215101  13.950   9.587   9.065  0.3892 -0.9166  0.8614
  103PROXR  H3315102  14.020   9.524   8.916  0.2456  1.6240 -0.7139
  104PROXS   O115103  14.087   9.813   9.082  0.0730 -0.3356  0.3677
  104PROXS   C115104  14.142   9.942   9.070  0.2016  0.3422 -0.1258
  104PROXS  H1115105  14.243   9.932   9.025 -0.6525 -0.8404 -1.9039
  104PROXS  H1315106  14.072  10.000   9.005 -0.4653 -0.2657  0.0283
  104PROXS   C215107  14.151  10.014   9.200 -0.2534  0.9102  0.1207
  104PROXS  H2115108  14.220   9.962   9.269  1.8843 -0.9671 -3.1671
  104PROXS   C315109  14.016  10.025   9.273  0.4198  0.1211  0.0150
  104PROXS  H3115110  13.946  10.064   9.196  0.0698  2.0750  1.2731
  104PROXS  H3215111  13.993   9.922   9.306  1.5232  0.4655  1.9938
  104PROXS  H3315112  14.029  10.081   9.368  2.2313  2.5032 -1.5034
  105PROXS   O115113  14.198  10.141   9.168 -0.2031 -0.4743 -0.1615
  105PROXS   C115114  14.256  10.204   9.281  0.0336 -0.5420  0.3162
  105PROXS  H1115115  14.168  10.233   9.343  0.2978  3.2899 -0.8660
  105PROXS  H1315116  14.331  10.145   9.337 -0.1626 -1.6870 -0.5817
  105PROXS   C215117  14.328  10.335   9.238  0.0558 -0.1501  0.4235
  105PROXS  H2115118  14.285  10.377   9.144  0.5260  0.7222  0.5867
  105PROXS   C315119  14.476  10.307   9.208  0.4423 -0.1872  0.1936
  105PROXS  H3115120  14.486  10.262   9.106 -0.4161  2.3702 -1.1074
  105PROXS  H3215121  14.522  10.404   9.179  1.2255 -0.5868  0.0820
  105PROXS  H3315122  14.535  10.251   9.283 -0.5254 -1.3976  0.0801
  106PROXS   O115123  14.299  10.434   9.337 -0.2633  0.5550  0.1509
  106PROXS   C115124  14.358  10.556   9.309 -0.0081 -0.6279 -0.4041
  106PROXS  H1115125  14.467  10.558   9.334 -0.1965  0.7596  0.3809
  106PROXS  H1315126  14.352  10.574   9.200  1.8199 -1.7121 -0.7372
  106PROXS   C215127  14.302  10.669   9.396  0.2112 -0.1878  0.3120
  106PROXS  H2115128  14.289  10.628   9.498 -0.6964 -0.5613  0.0584
  106PROXS   C315129  14.169  10.711   9.343  0.0350 -0.3174  0.4593
  106PROXS  H3115130  14.116  10.787   9.404 -0.9479 -0.3751 -0.3052
  106PROXS  H3215131  14.181  10.756   9.242  1.4582 -1.7723 -0.0742
  106PROXS  H3315132  14.108  10.618   9.343  1.1538 -1.1404 -1.9328
  107PROXR   O115133  14.392  10.787   9.396 -0.7247  0.0143 -0.8186
  107PROXR   C115134  14.358  10.881   9.495 -0.1855  0.5259  0.1755
  107PROXR  H1115135  14.341  10.978   9.444 -0.2444  0.8499  0.8061
  107PROXR  H1315136  14.268  10.853   9.555  0.8156  1.0045  1.9670
  107PROXR   C215137  14.469  10.892   9.591 -0.1228 -0.0012 -0.6901
  107PROXR  H2115138  14.563  10.921   9.539  0.6353  2.0527  1.6329
  107PROXR   C315139  14.504  10.754   9.655  0.2524 -0.0612  0.2720
  107PROXR  H3115140  14.527  10.680   9.574 -1.0784  2.0796 -2.2145
  107PROXR  H3215141  14.594  10.753   9.720 -0.5035 -1.0145  1.3456
  107PROXR  H3315142  14.420  10.710   9.713 -0.4458 -0.3163 -0.8920
  108PROXS   O115143  14.441  10.990   9.690  0.0358  0.4615 -0.8011
  108PROXS   C115144  14.531  10.994   9.794  0.1094 -0.6185 -0.2304
  108PROXS  H1115145  14.519  10.911   9.867  0.8544 -0.0182  0.5907
  108PROXS  H1315146  14.631  11.002   9.746  1.7151 -0.2180  2.9092
  108PROXS   C215147  14.503  11.121   9.869 -0.7771 -0.2194 -0.0905
  108PROXS  H2115148  14.500  11.203   9.795  0.0637  0.4054  0.5529
  108PROXS   C315149  14.630  11.153   9.953  0.1941 -0.0275  0.3569
  108PROXS  H3115150  14.719  11.158   9.888  0.6377 -0.8146  0.8906
  108PROXS  H3215151  14.619  11.250  10.007  2.0109  1.8317 -2.3632
  108PROXS  H3315152  14.642  11.072  10.028 -1.1709  0.0998  0.7418
  109PROXS   O115153  14.393  11.104   9.953  0.3879 -0.3846  0.2792
  109PROXS   C115154  14.341  11.237   9.997 -0.7241  0.0440  0.1427
  109PROXS  H1115155  14.386  11.257  10.096 -1.2771  1.2439  0.1705
  109PROXS  H1315156  14.380  11.314   9.927 -0.1671 -0.3544  0.0134
  109PROXS   C215157  14.191  11.251   9.996 -0.1320  0.3831 -0.1174
  109PROXS  H2115158  14.151  11.155  10.034  1.0987 -1.6628 -3.4890
  109PROXS   C315159  14.133  11.269   9.846  0.3031 -0.1012  0.2802
  109PROXS  H3115160  14.161  11.365   9.799  0.0834 -1.2416 -2.3698
  109PROXS  H3215161  14.162  11.181   9.784  2.3189  1.2703 -0.8413
  109PROXS  H3315162  14.025  11.258   9.868  0.4148 -1.3464  0.2856
  110PROXR   O115163  14.148  11.365  10.069 -0.0910  0.0719 -0.0908
  110PROXR   C115164  14.162  11.352  10.218 -0.4454  0.0388  0.0318
  110PROXR  H1115165  14.126  11.252  10.250 -0.9089 -0.2882 -1.4175
  110PROXR  H1315166  14.270  11.363  10.239  0.0348  2.1931 -2.9197
  110PROXR   C215167  14.096  11.462  10.290  0.7313  0.3695  0.4336
  110PROXR  H2115168  13.992  11.458  10.251  1.5427 -1.6569 -1.7267
  110PROXR   C315169  14.153  11.601  10.267  0.7647  0.0341 -0.3262
  110PROXR  H3115170  14.202  11.600  10.167  1.1051  0.9995 -0.1799
  110PROXR  H3215171  14.076  11.681  10.274 -1.4902 -2.0759  0.2530
  110PROXR  H3315172  14.241  11.620  10.333 -1.7103  2.5040  2.5850
  111PROXS   O115173  14.103  11.425  10.427 -0.0544 -0.0562  0.0529
  111PROXS   C115174  14.005  11.487  10.509 -0.1931 -0.8000  0.5708
  111PROXS  H1115175  14.019  11.596  10.523 -3.0690 -0.3617  0.6504
  111PROXS  H1315176  13.903  11.463  10.473 -1.6245  1.8296  2.5494
  111PROXS   C215177  14.013  11.427  10.652 -0.2311  0.1222 -0.0456
  111PROXS  H2115178  14.119  11.436  10.683  0.0063  0.2855 -0.8790
  111PROXS   C315179  13.973  11.279  10.641  0.0889  0.1626 -0.4057
  111PROXS  H3115180  13.876  11.272  10.586  0.1438 -2.7370 -0.2757
  111PROXS  H3215181  14.050  11.221  10.587  0.7501  0.7409 -0.0952
  111PROXS  H3315182  13.955  11.234  10.740 -2.3193  0.3202 -0.7025
  112PROXR   O115183  13.934  11.507  10.742  0.0481  0.3810 -0.3465
  112PROXR   C115184  13.795  11.511  10.711 -0.6959  0.3657 -0.2739
  112PROXR  H1115185  13.773  11.598  10.645 -0.5827  0.6685  0.0816
  112PROXR  H1315186  13.758  11.420  10.661  1.9483 -0.5055 -0.7896
  112PROXR   C215187  13.720  11.520  10.845  0.8552 -0.0008  0.2629
  112PROXR  H2115188  13.763  11.610  10.895  2.4721  0.1148 -1.2406
  112PROXR   C315189  13.747  11.392  10.933 -0.4948 -0.6264 -0.3212
  112PROXR  H3115190  13.680  11.385  11.022 -1.0899  1.0729 -0.6040
  112PROXR  H3215191  13.729  11.302  10.869 -0.9351 -0.5872 -0.2549
  112PROXR  H3315192  13.851  11.386  10.972 -0.7880  2.2823  1.1587
  113PROXS   O115193  13.578  11.538  10.815 -0.1248 -0.3905 -0.6775
  113PROXS   C115194  13.503  11.546  10.934  0.0197  0.7065  0.0658
  113PROXS  H1115195  13.484  11.444  10.973  1.5570  0.0690 -0.7653
  113PROXS  H1315196  13.560  11.595  11.016  1.7821 -1.0251 -0.0355
  113PROXS   C215197  13.368  11.617  10.924 -0.1031 -0.0411 -0.5245
  113PROXS  H2115198  13.384  11.707  10.859 -0.5527  0.7919  0.4942
  113PROXS   C315199  13.327  11.674  11.061  0.5427 -1.2335 -0.1989
  113PROXS  H3115200  13.240  11.742  11.052  1.9507  0.8123  0.7643
  113PROXS  H3215201  13.310  11.599  11.141 -2.1741  0.8323  1.3243
  113PROXS  H3315202  13.410  11.738  11.098 -0.7913 -0.2429  1.2102
  114PROXR   O115203  13.270  11.537  10.869  0.3790 -0.8054  0.0655
  114PROXR   C115204  13.287  11.486  10.739  0.3620  0.0887  0.5300
  114PROXR  H1115205  13.386  11.506  10.692 -0.1416  0.1756 -0.5319
  114PROXR  H1315206  13.277  11.376  10.734 -1.2691  0.2732 -1.9904
  114PROXR   C215207  13.173  11.533  10.644  0.3524 -0.0424  1.0964
  114PROXR  H2115208  13.182  11.644  10.642  0.2462 -0.0397  0.3532
  114PROXR   C315209  13.036  11.483  10.697 -0.3755  0.0808 -0.1110
  114PROXR  H3115210  13.023  11.378  10.665 -0.2510  0.0128  0.0549
  114PROXR  H3215211  13.031  11.495  10.808 -3.5372 -1.5082  0.0212
  114PROXR  H3315212  12.957  11.545  10.649  0.2391 -0.2532 -1.5819
  115PROXR   O115213  13.197  11.475  10.512  0.2063  0.8617  0.4642
  115PROXR   C115214  13.101  11.501  10.412 -0.5585 -0.3241 -0.4311
  115PROXR  H1115215  13.023  11.422  10.417 -1.3795  0.4332 -1.0351
  115PROXR  H1315216  13.051  11.599  10.426 -0.1978 -0.2985  0.7315
  115PROXR   C215217  13.170  11.484  10.269 -0.2549 -1.0398 -0.3187
  115PROXR  H2115218  13.214  11.383  10.253  0.3755 -1.0305  1.2207
  115PROXR   C315219  13.277  11.591  10.251 -0.2985  0.0172 -0.3566
  115PROXR  H3115220  13.340  11.598  10.342 -0.0352  0.9352 -0.6042
  115PROXR  H3215221  13.333  11.572  10.156  0.6233  0.1509  0.1491
  115PROXR  H3315222  13.234  11.691  10.230  0.7081  0.3579 -0.9209
  116PROXS   O115223  13.070  11.514  10.170  0.2461  0.3281  0.6136
  116PROXS   C115224  13.105  11.454  10.042 -0.5781 -0.2631 -0.2453
  116PROXS  H1115225  13.208  11.489  10.018 -1.4306  1.7730 -1.1225
  116PROXS  H1315226  13.099  11.343  10.050 -1.3725 -0.1610  0.9581
  116PROXS   C215227  13.003  11.497   9.926  0.3599  0.8583 -0.5264
  116PROXS  H2115228  13.003  11.608   9.926  0.8976  0.8687  0.5635
  116PROXS   C315229  12.868  11.432   9.961 -0.5450 -0.6712  0.8771
  116PROXS  H3115230  12.838  11.450  10.067 -0.4816 -1.8915  1.1236
  116PROXS  H3215231  12.791  11.455   9.885 -0.2829 -0.5183  0.6571
  116PROXS  H3315232  12.887  11.322   9.959 -2.5980 -1.0940  1.4401
  117PROXS   O115233  13.037  11.439   9.802  0.0228 -0.6605 -0.1067
  117PROXS   C115234  13.134  11.515   9.732 -0.6513 -0.2915  0.0354
  117PROXS  H1115235  13.096  11.615   9.704 -0.0170 -0.6499 -2.4131
  117PROXS  H1315236  13.234  11.520   9.780 -0.4179 -1.4234 -0.3067
  117PROXS   C215237  13.168  11.443   9.605 -0.0547  0.2295 -0.3010
  117PROXS  H2115238  13.073  11.412   9.555 -0.8942  1.5326  0.4133
  117PROXS   C315239  13.264  11.325   9.635  0.2771  0.1577 -0.3989
  117PROXS  H3115240  13.276  11.253   9.551  1.6586  1.4469 -1.3779
  117PROXS  H3215241  13.360  11.368   9.672 -0.4480  0.2421  1.5277
  117PROXS  H3315242  13.211  11.270   9.715 -1.9248  1.3924 -0.9329
  118PROXR   O115243  13.227  11.537   9.516 -0.0859 -0.4115  0.7071
  118PROXR   C115244  13.251  11.484   9.382  0.1623 -0.0876  0.6053
  118PROXR  H1115245  13.344  11.423   9.381 -0.5233 -1.1872  1.7575
  118PROXR  H1315246  13.161  11.430   9.346 -0.0271 -0.7688  2.0711
  118PROXR   C215247  13.278  11.604   9.280 -0.2326 -0.1403 -0.0334
  118PROXR  H2115248  13.374  11.656   9.300 -0.4502  0.4621 -0.5513
  118PROXR   C315249  13.163  11.708   9.278  0.3485 -0.3688  0.2098
  118PROXR  H3115250  13.120  11.722   9.176 -1.8090 -0.5663  1.0501
  118PROXR  H3215251  13.084  11.655   9.334 -0.3073  1.1350  0.7717
  118PROXR  H3315252  13.196  11.808   9.315 -0.7630 -1.0707  3.4014
  119PROXR   O115253  13.284  11.550   9.144  0.5489  0.0489 -0.8264
  119PROXR   C115254  13.396  11.466   9.128  0.8766  0.1841  0.4880
  119PROXR  H1115255  13.489  11.508   9.173  1.0795  0.3778 -0.1043
  119PROXR  H1315256  13.376  11.365   9.169 -0.1859 -0.1867 -0.8579
  119PROXR   C215257  13.417  11.437   8.978  0.1563 -0.5925 -0.1419
  119PROXR  H2115258  13.391  11.522   8.911  2.1308 -0.9163 -1.3849
  119PROXR   C315259  13.339  11.311   8.925 -0.6554 -0.1337 -0.2136
  119PROXR  H3115260  13.383  11.277   8.829  0.8165 -2.1155  1.0818
  119PROXR  H3215261  13.359  11.226   8.994  0.7020 -0.0537 -0.4822
  119PROXR  H3315262  13.233  11.335   8.900 -0.9194  0.4986  1.4038
  120PROXS   O115263  13.555  11.402   8.966 -0.3550  0.2972  0.3203
  120PROXS   C115264  13.642  11.509   8.929  0.0002  0.6508  0.4307
  120PROXS  H1115265  13.578  11.567   8.858 -0.7745  0.7020  1.1575
  120PROXS  H1315266  13.635  11.587   9.007  1.6411  0.5382  0.7143
  120PROXS   C215267  13.778  11.458   8.880 -0.4946  0.1728  0.7599
  120PROXS  H2115268  13.806  11.386   8.960  1.1478  0.9475  0.9146
  120PROXS   C315269  13.898  11.558   8.881  0.0251  0.4931 -0.0461
  120PROXS  H3115270  13.989  11.511   8.838  0.2457  0.9061 -0.0396
  120PROXS  H3215271  13.870  11.648   8.821 -1.1740  0.3936  0.3337
  120PROXS  H3315272  13.924  11.596   8.982  1.1521 -2.2768  0.7910
  121PROXS   O115273  13.758  11.397   8.751  0.0149 -0.3019 -0.0243
  121PROXS   C115274  13.854  11.304   8.709  0.0600  0.1639  0.4583
  121PROXS  H1115275  13.837  11.301   8.599 -1.7213  0.8814  0.6832
  121PROXS  H1315276  13.953  11.344   8.741  0.4754 -0.2596 -0.2647
  121PROXS   C215277  13.829  11.166   8.766 -0.1736  0.0664  0.4011
  121PROXS  H2115278  13.903  11.097   8.720  0.4781  0.3270  1.0449
  121PROXS   C315279  13.679  11.121   8.744 -0.4212  0.0936  0.4363
  121PROXS  H3115280  13.647  11.031   8.800 -1.1116 -0.1731 -0.3565
  121PROXS  H3215281  13.625  11.214   8.773  1.3285  2.5160 -3.2813
  121PROXS  H3315282  13.663  11.095   8.637 -1.1077  0.4163  0.4518
  122PROXS   O115283  13.854  11.168   8.905 -0.0292  0.1645 -0.3644
  122PROXS   C115284  13.879  11.042   8.968 -0.9020 -0.5057  0.1178
  122PROXS  H1115285  13.797  10.968   8.965 -0.5416 -0.8734 -0.7351
  122PROXS  H1315286  13.956  10.988   8.909 -2.2607 -0.4425 -1.7760
  122PROXS   C215287  13.932  11.055   9.114  0.3269 -0.1279  0.2722
  122PROXS  H2115288  13.972  11.158   9.116  0.2112 -0.0734 -0.0900
  122PROXS   C315289  14.034  10.956   9.148 -0.0387 -0.6402  1.4318
  122PROXS  H3115290  14.070  10.974   9.252 -1.3007  2.2050  1.4455
  122PROXS  H3215291  13.994  10.853   9.138 -2.3893  0.2036  1.6425
  122PROXS  H3315292  14.113  10.979   9.073 -2.5890 -0.1932 -1.3034
  123PROXS   O115293  13.814  11.038   9.195  0.1168 -0.6870 -0.4079
  123PROXS   C115294  13.847  11.060   9.333 -0.5030 -0.7574  0.1196
  123PROXS  H1115295  13.869  10.967   9.389 -1.4122 -0.6620  0.6440
  123PROXS  H1315296  13.932  11.131   9.343  0.6880 -2.0200 -0.6287
  123PROXS   C215297  13.731  11.136   9.396 -0.1783  0.0796 -0.4515
  123PROXS  H2115298  13.656  11.054   9.403 -0.4583  0.2378 -1.4699
  123PROXS   C315299  13.684  11.259   9.312  0.4288  0.1011 -0.1911
  123PROXS  H3115300  13.596  11.316   9.348  2.5969  1.6840  3.0495
  123PROXS  H3215301  13.764  11.335   9.303  0.9817 -0.4874 -0.3605
  123PROXS  H3315302  13.666  11.222   9.208 -0.1795  0.7689 -0.3301
  124PROXR   O115303  13.766  11.174   9.530  0.4208 -0.1669  0.0600
  124PROXR   C115304  13.646  11.157   9.607  0.7285  0.0878  0.4789
  124PROXR  H1115305  13.559  11.212   9.565  0.3295 -0.1696  0.9516
  124PROXR  H1315306  13.614  11.051   9.599  0.6199  0.1692 -0.2402
  124PROXR   C215307  13.678  11.189   9.752 -0.9175 -0.3916 -0.0567
  124PROXR  H2115308  13.714  11.293   9.766  0.4161 -0.8127 -0.2499
  124PROXR   C315309  13.780  11.082   9.802 -0.3426  0.5509  0.3394
  124PROXR  H3115310  13.738  10.979   9.793 -2.2216  1.2651  0.5295
  124PROXR  H3215311  13.877  11.091   9.749 -0.9320  1.1296 -0.6530
  124PROXR  H3315312  13.805  11.103   9.908  0.0810  0.5506  0.2409
  125PROXS   O115313  13.563  11.169   9.827  0.2931  0.4077  0.5078
  125PROXS   C115314  13.560  11.240   9.949  0.2692 -0.6096 -0.3706
  125PROXS  H1115315  13.657  11.241  10.003  0.5907 -0.9915 -0.9296
  125PROXS  H1315316  13.517  11.342   9.938 -1.5735 -1.0992  1.6942
  125PROXS   C215317  13.473  11.158  10.042 -0.4664 -0.0809 -0.2252
  125PROXS  H2115318  13.524  11.062  10.062  0.2021  0.8616  3.2210
  125PROXS   C315319  13.333  11.125   9.979  0.4730 -0.4811  0.7523
  125PROXS  H3115320  13.278  11.221   9.969  1.1906 -0.2930 -1.8150
  125PROXS  H3215321  13.336  11.070   9.883 -0.1433  3.0045 -1.4324
  125PROXS  H3315322  13.288  11.063  10.061  1.8730 -0.5499  1.4911
  126PROXS   O115323  13.450  11.227  10.166  1.2056 -0.4013 -0.4785
  126PROXS   C115324  13.551  11.205  10.263  0.9420 -0.3812 -0.6336
  126PROXS  H1115325  13.563  11.094  10.268 -1.1934 -0.6136  0.6539
  126PROXS  H1315326  13.646  11.261  10.247  0.8660  0.0179  0.2616
  126PROXS   C215327  13.500  11.251  10.397 -0.2592  0.0826 -0.6967
  126PROXS  H2115328  13.389  11.244  10.398 -0.2411 -0.3793 -1.7570
  126PROXS   C315329  13.552  11.390  10.440 -0.3467 -0.5808  0.0179
  126PROXS  H3115330  13.540  11.407  10.549 -3.3548 -0.6484 -0.2215
  126PROXS  H3215331  13.662  11.390  10.428 -0.3062 -2.2965  0.2286
  126PROXS  H3315332  13.510  11.472  10.377  1.6048 -0.1395 -0.7696
  127PROXR   O115333  13.546  11.153  10.494  0.5636 -0.4881 -0.0579
  127PROXR   C115334  13.474  11.153  10.620 -0.1280 -0.3398 -0.4021
  127PROXR  H1115335  13.482  11.251  10.671  1.1081 -0.7020  0.1472
  127PROXR  H1315336  13.369  11.125  10.593  0.8062 -5.8181  0.3633
  127PROXR   C215337  13.511  11.044  10.724  0.1474  0.4947 -0.4837
  127PROXR  H2115338  13.615  11.058  10.761  0.4225  0.2762 -1.1541
  127PROXR   C315339  13.491  10.903  10.664  0.2949  0.4133  0.7313
  127PROXR  H3115340  13.393  10.880  10.616  0.5556  2.4897 -0.9743
  127PROXR  H3215341  13.558  10.899  10.576  1.4290 -0.3618  1.6110
  127PROXR  H3315342  13.533  10.816  10.718 -0.0529 -0.5704 -0.5282
  128PROXR   O115343  13.421  11.044  10.833 -0.4613 -0.4249 -0.2630
  128PROXR   C115344  13.446  11.147  10.931  0.0864 -0.1961  0.5847
  128PROXR  H1115345  13.546  11.135  10.978 -0.3334 -1.8575  1.0924
  128PROXR  H1315346  13.439  11.246  10.881  1.9685  0.0140  0.6566
  128PROXR   C215347  13.345  11.132  11.039 -0.2970  0.4012  0.0386
  128PROXR  H2115348  13.352  11.027  11.076 -0.4899 -0.2747 -1.7293
  128PROXR   C315349  13.205  11.162  10.994 -0.1663 -0.0218 -0.2453
  128PROXR  H3115350  13.130  11.130  11.069  0.8042 -0.5946  0.4853
  128PROXR  H3215351  13.196  11.273  10.993 -1.6806 -0.1138  0.1487
  128PROXR  H3315352  13.196  11.122  10.891  0.7548 -1.2426  0.1285
  129PROXS   O115353  13.385  11.224  11.140 -0.0455 -0.1143 -0.1978
  129PROXS   C115354  13.311  11.206  11.259 -0.2463  0.4213 -0.0326
  129PROXS  H1115355  13.201  11.200  11.249 -0.4589  1.5312  1.3557
  129PROXS  H1315356  13.334  11.105  11.301  2.2831  1.1076  0.3974
  129PROXS   C215357  13.342  11.317  11.367  0.3089 -0.2385 -0.2050
  129PROXS  H2115358  13.349  11.415  11.316  0.6130  0.5200  1.2269
  129PROXS   C315359  13.475  11.289  11.430  0.4700 -0.0784  0.3985
  129PROXS  H3115360  13.553  11.279  11.351  1.0575  2.0128  0.6470
  129PROXS  H3215361  13.509  11.364  11.504  1.6218  1.7220 -1.8386
  129PROXS  H3315362  13.458  11.193  11.484 -2.4482  0.5398  0.7268
  130PROXS   O115363  13.242  11.312  11.473 -0.0993 -0.2034 -0.7668
  130PROXS   C115364  13.231  11.441  11.532 -0.2870  0.2851  0.2483
  130PROXS  H1115365  13.157  11.429  11.613 -0.6468  0.0170 -0.1197
  130PROXS  H1315366  13.321  11.480  11.584 -1.2580  1.6933  0.9316
  130PROXS   C215367  13.171  11.563  11.439 -0.4737  0.2546  0.5053
  130PROXS  H2115368  13.240  11.574  11.352 -2.4882 -2.6104 -1.6405
  130PROXS   C315369  13.159  11.691  11.526 -0.0441  0.7234  0.0415
  130PROXS  H3115370  13.257  11.715  11.571  0.5492 -0.2118 -0.7197
  130PROXS  H3215371  13.117  11.779  11.472 -2.5114 -0.6047 -0.3606
  130PROXS  H3315372  13.087  11.664  11.606 -2.1788  1.7117 -1.4159
  131PROXS   O115373  13.050  11.527  11.373  0.1211  0.4042 -0.4151
  131PROXS   C115374  12.993  11.631  11.292 -0.0955  0.6657  0.7513
  131PROXS  H1115375  12.925  11.704  11.340 -1.7078  0.5228 -1.1918
  131PROXS  H1315376  13.066  11.687  11.230 -1.5473  1.0569 -0.6924
  131PROXS   C215377  12.895  11.564  11.185  0.0677 -0.2715  0.2493
  131PROXS  H2115378  12.816  11.516  11.247 -0.8529  1.2077  0.2661
  131PROXS   C315379  12.961  11.449  11.103 -0.1597  0.7649 -0.0606
  131PROXS  H3115380  12.993  11.370  11.174  0.9888  2.7954  1.7950
  131PROXS  H3215381  12.887  11.396  11.039 -1.3223  0.8447  1.1566
  131PROXS  H3315382  13.052  11.485  11.051 -0.0187 -1.6733 -1.6443
  132PROXS   O115383  12.841  11.675  11.101  0.1572 -0.2658 -0.5189
  132PROXS   C115384  12.769  11.636  10.986  0.5611 -0.1921 -0.4668
  132PROXS  H1115385  12.854  11.609  10.920  0.8311  1.7072 -0.9422
  132PROXS  H1315386  12.707  11.544  10.999  2.2977 -1.0545  2.8832
  132PROXS   C215387  12.688  11.754  10.927  0.4452 -0.4083  0.1096
  132PROXS  H2115388  12.754  11.844  10.921 -1.1200  0.7029 -1.5046
  132PROXS   C315389  12.561  11.776  11.026 -0.3048 -0.1179  0.4401
  132PROXS  H3115390  12.477  11.706  11.007 -0.4341  0.2555 -0.4254
  132PROXS  H3215391  12.592  11.780  11.133 -1.0087  0.6502  0.6293
  132PROXS  H3315392  12.518  11.875  11.000  0.8329  0.5228  0.8895
  133PROXS   O115393  12.651  11.715  10.793  0.1756  0.3251 -0.0965
  133PROXS   C115394  12.731  11.770  10.695  0.7161 -0.1268 -0.4420
  133PROXS  H1115395  12.838  11.763  10.727  1.1121 -0.5091 -1.7844
  133PROXS  H1315396  12.718  11.709  10.603  0.2565 -1.0296  0.1979
  133PROXS   C215397  12.689  11.914  10.662  0.2209  0.6182 -0.5896
  133PROXS  H2115398  12.692  11.976  10.754 -2.4313  2.1980 -1.4392
  133PROXS   C315399  12.540  11.923  10.608 -0.2949  0.1363  0.3065
  133PROXS  H3115400  12.526  11.844  10.531  1.2226  2.7118 -2.8536
  133PROXS  H3215401  12.474  11.910  10.696  0.7118 -1.4442  0.8817
  133PROXS  H3315402  12.543  12.020  10.555 -0.0504  0.7183  1.3688
  134PROXS   O115403  12.764  11.961  10.558  0.0487 -0.1852 -0.4900
  134PROXS   C115404  12.904  11.976  10.581 -0.2413 -0.0089 -1.0316
  134PROXS  H1115405  12.924  12.029  10.676  0.2249 -0.9834 -0.5773
  134PROXS  H1315406  12.959  11.880  10.585 -1.0467 -0.4835 -1.0956
  134PROXS   C215407  12.976  12.061  10.466  0.0116 -0.4099  0.1488
  134PROXS  H2115408  12.926  12.161  10.471  2.1096  0.7326 -0.5154
  134PROXS   C315409  12.952  11.994  10.328  0.0251  0.1710  0.2706
  134PROXS  H3115410  12.841  11.983  10.321 -0.1999  1.6209  1.1113
  134PROXS  H3215411  12.985  12.076  10.261  2.0028 -0.6262  0.2126
  134PROXS  H3315412  13.013  11.902  10.322  0.8942  0.7897 -0.7082
  135PROXS   O115413  13.114  12.079  10.492 -0.1455 -0.1902  0.7098
  135PROXS   C115414  13.173  12.191  10.427  0.1497 -0.7341  0.2642
  135PROXS  H1115415  13.154  12.195  10.318  0.0328 -1.6426  0.2452
  135PROXS  H1315416  13.120  12.281  10.465 -0.1983 -0.0475 -1.7234
  135PROXS   C215417  13.321  12.193  10.459 -0.8882 -0.4767  0.2044
  135PROXS  H2115418  13.353  12.100  10.409 -2.1099 -1.8373  1.8325
  135PROXS   C315419  13.355  12.171  10.607  0.4955  0.4220 -0.2130
  135PROXS  H3115420  13.313  12.078  10.649 -1.0450  0.2153 -2.0855
  135PROXS  H3215421  13.465  12.177  10.623  0.3619  1.1570  0.5292
  135PROXS  H3315422  13.302  12.241  10.675  0.0047 -1.6471  1.6322
  136PROXS   O115423  13.383  12.305  10.396  0.6405 -0.1628  0.0760
  136PROXS   C115424  13.517  12.328  10.433  0.0841 -0.2418  0.1556
  136PROXS  H1115425  13.521  12.375  10.534 -1.2277 -0.1341  0.1742
  136PROXS  H1315426  13.564  12.227  10.434 -1.4486 -1.0432 -1.6577
  136PROXS   C215427  13.590  12.425  10.329  0.2999  0.6320  0.1060
  136PROXS  H2115428  13.539  12.523  10.340  1.0049  1.1039 -0.6911
  136PROXS   C315429  13.584  12.384  10.178  0.5776 -0.2171 -0.2679
  136PROXS  H3115430  13.480  12.347  10.164  1.0180 -1.2580 -0.9609
  136PROXS  H3215431  13.608  12.468  10.109  2.3857 -0.4871 -0.0247
  136PROXS  H3315432  13.651  12.298  10.153  0.7123  0.1040 -1.0420
  137PROXS   O115433  13.725  12.440  10.359  0.0503 -0.2881 -0.3529
  137PROXS   C115434  13.748  12.508  10.481  0.1724 -0.8804  0.1729
  137PROXS  H1115435  13.675  12.589  10.503  3.1371  1.4596  2.0870
  137PROXS  H1315436  13.744  12.440  10.569  1.5842  1.3951  2.0867
  137PROXS   C215437  13.884  12.584  10.487 -0.3965 -0.2087  0.2117
  137PROXS  H2115438  13.899  12.630  10.387 -0.3281 -0.4841  0.0917
  137PROXS   C315439  13.995  12.479  10.516  0.4453 -0.1786  0.0510
  137PROXS  H3115440  13.979  12.433  10.616  0.9818  0.2147  0.3192
  137PROXS  H3215441  14.007  12.406  10.433  0.1447  0.5969 -0.6835
  137PROXS  H3315442  14.092  12.531  10.532  0.5404 -0.4111  0.2372
  138PROXR   O115443  13.884  12.681  10.591  0.0661  0.0173 -0.4919
  138PROXR   C115444  13.972  12.783  10.558 -0.0523 -0.2746  0.6281
  138PROXR  H1115445  14.069  12.745  10.520 -0.0539  0.1788  0.1507
  138PROXR  H1315446  13.913  12.838  10.481 -2.0288 -3.3769 -0.2984
  138PROXR   C215447  14.002  12.888  10.668 -0.2894 -0.1043 -0.0435
  138PROXR  H2115448  13.913  12.913  10.729  0.0447 -0.5366  0.6337
  138PROXR   C315449  14.056  13.019  10.605  0.3648 -0.2110  0.3001
  138PROXR  H3115450  13.969  13.082  10.576  1.1062  0.7160  0.0651
  138PROXR  H3215451  14.131  13.074  10.665  2.7568 -1.2689 -1.5608
  138PROXR  H3315452  14.112  12.996  10.512 -0.6239  2.4273 -1.0565
  139PROXS   O115453  14.103  12.841  10.756  0.0081 -0.0680  0.1383
  139PROXS   C115454  14.058  12.738  10.846  0.7490  0.2416  0.2216
  139PROXS  H1115455  13.951  12.756  10.869  0.7497  0.9610 -0.3150
  139PROXS  H1315456  14.062  12.640  10.792  0.3092  0.6343 -0.5357
  139PROXS   C215457  14.138  12.732  10.976  0.2033 -0.0912 -0.9692
  139PROXS  H2115458  14.116  12.820  11.040 -0.1542 -0.9141  0.0625
  139PROXS   C315459  14.287  12.746  10.960  0.1749  0.8514 -0.2397
  139PROXS  H3115460  14.305  12.847  10.917 -0.1719  1.8608  1.8528
  139PROXS  H3215461  14.340  12.739  11.057 -0.6828 -0.4058  0.1681
  139PROXS  H3315462  14.325  12.662  10.899  1.0291  0.2547  1.0681
  140PROXR   O115463  14.108  12.612  11.050 -0.2197 -0.0823  0.7741
  140PROXR   C115464  13.988  12.632  11.128  0.3535 -0.1207  0.4513
  140PROXR  H1115465  14.011  12.729  11.177  2.1800 -0.7563  0.9228
  140PROXR  H1315466  13.892  12.645  11.074 -0.3351  0.2163  1.7178
  140PROXR   C215467  13.959  12.515  11.228  0.3887  0.1665  0.2851
  140PROXR  H2115468  14.057  12.495  11.277  1.0571 -0.4604 -1.2537
  140PROXR   C315469  13.907  12.388  11.157  0.0116 -0.5266 -0.6173
  140PROXR  H3115470  13.808  12.412  11.115 -1.0565 -0.5522  1.7396
  140PROXR  H3215471  13.987  12.362  11.085  1.7744  1.7236  0.3824
  140PROXR  H3315472  13.892  12.312  11.237 -0.4871  1.0859  0.8975
  141PROXS   O115473  13.875  12.566  11.327 -0.0155  0.2289 -0.4122
  141PROXS   C115474  13.891  12.507  11.453  0.0131 -0.0688  0.0901
  141PROXS  H1115475  13.913  12.398  11.446  3.1731  0.4933  0.1228
  141PROXS  H1315476  13.988  12.547  11.489 -0.0079  1.2607 -1.2387
  141PROXS   C215477  13.767  12.535  11.552  0.2135  0.1284  0.5187
  141PROXS  H2115478  13.761  12.646  11.559  1.4725  0.2802 -0.4161
  141PROXS   C315479  13.785  12.466  11.694  0.2468  0.1950 -0.1942
  141PROXS  H3115480  13.680  12.454  11.725 -0.0164  2.1645 -0.1969
  141PROXS  H3215481  13.831  12.367  11.673 -2.2311 -0.3219 -4.2831
  141PROXS  H3315482  13.845  12.530  11.763  1.2838 -0.1435 -0.7642
  142PROXS   O115483  13.644  12.507  11.490 -0.0144  0.4025 -0.2150
  142PROXS   C115484  13.621  12.374  11.451 -0.2705 -0.1489 -0.5624
  142PROXS  H1115485  13.680  12.345  11.362  0.7736 -1.0096  0.3742
  142PROXS  H1315486  13.647  12.303  11.532 -1.1833 -1.1943 -1.1613
  142PROXS   C215487  13.474  12.366  11.407  0.4886  0.4908  0.6284
  142PROXS  H2115488  13.452  12.425  11.315 -1.1949 -0.1795  0.5650
  142PROXS   C315489  13.384  12.415  11.516  0.4927  0.0657 -0.2135
  142PROXS  H3115490  13.275  12.415  11.499  0.5144  0.5506 -0.3600
  142PROXS  H3215491  13.404  12.359  11.610  0.1221 -1.2092 -0.8710
  142PROXS  H3315492  13.403  12.522  11.540 -2.9721  0.6499  0.4211
  143PROXS   O115493  13.444  12.229  11.373 -0.1789  0.2823 -0.3833
  143PROXS   C115494  13.517  12.178  11.264 -0.0592  0.6366  0.0611
  143PROXS  H1115495  13.520  12.246  11.176  0.8987  1.4432  0.6915
  143PROXS  H1315496  13.622  12.166  11.298 -0.6261 -0.4863  1.5185
  143PROXS   C215497  13.455  12.048  11.236 -0.8749  0.2240  0.3562
  143PROXS  H2115498  13.353  12.059  11.193 -0.4416 -0.3408 -0.8771
  143PROXS   C315499  13.450  11.965  11.363  0.0922 -0.0016  0.2387
  143PROXS  H3115500  13.554  11.933  11.384  0.5984 -0.6524 -2.7921
  143PROXS  H3215501  13.409  12.021  11.450 -1.4416 -0.1301 -0.3687
  143PROXS  H3315502  13.390  11.872  11.353 -0.0999  0.2027 -0.5544
  144PROXS   O115503  13.529  11.981  11.129 -0.6834  0.2349  0.8401
  144PROXS   C115504  13.493  12.013  10.993  0.7864 -0.1534 -0.4634
  144PROXS  H1115505  13.386  11.981  10.986 -1.1022  2.9928  6.1964
  144PROXS  H1315506  13.512  12.120  10.972 -2.6418  0.5830 -0.4364
  144PROXS   C215507  13.597  11.951  10.895 -0.1691 -0.2835 -0.5560
  144PROXS  H2115508  13.598  11.841  10.911 -1.3263  0.0355  2.1521
  144PROXS   C315509  13.740  11.998  10.933  0.4441 -0.4536  0.4364
  144PROXS  H3115510  13.767  11.972  11.038 -0.6525 -1.7410  0.4229
  144PROXS  H3215511  13.809  11.942  10.867 -1.6294 -0.3607 -1.9654
  144PROXS  H3315512  13.763  12.107  10.932  1.1579 -0.5988 -0.9793
  145PROXR   O115513  13.572  11.980  10.760  0.5088 -0.4325 -0.3503
  145PROXR   C115514  13.635  11.886  10.671 -0.1531 -0.2719 -0.2649
  145PROXR  H1115515  13.725  11.942  10.639  0.1013  1.4025  2.9384
  145PROXR  H1315516  13.676  11.804  10.733  3.6842  2.3317  1.0152
  145PROXR   C215517  13.550  11.862  10.541 -0.6767  0.0732 -0.0327
  145PROXR  H2115518  13.512  11.959  10.504 -0.1713  0.3413  0.1437
  145PROXR   C315519  13.438  11.767  10.559 -0.3198  0.2125 -0.1462
  145PROXR  H3115520  13.358  11.760  10.482 -2.0553 -1.6756  1.6880
  145PROXR  H3215521  13.465  11.659  10.562 -1.4685 -0.1105 -0.7170
  145PROXR  H3315522  13.380  11.788  10.652 -1.8726 -0.8427 -0.8250
  146PROXS   O115523  13.641  11.809  10.444  0.1567 -0.4945 -0.1851
  146PROXS   C115524  13.590  11.830  10.314  0.9227  0.4130  0.0221
  146PROXS  H1115525  13.483  11.806  10.295  1.3105 -0.3617 -1.3379
  146PROXS  H1315526  13.599  11.938  10.292  0.1531  0.9026  1.8971
  146PROXS   C215527  13.672  11.746  10.210  0.0599 -0.1330 -0.3952
  146PROXS  H2115528  13.653  11.637  10.221  0.6856 -0.2135 -0.0432
  146PROXS   C315529  13.822  11.773  10.202 -0.3143 -0.1097 -0.4470
  146PROXS  H3115530  13.837  11.874  10.158 -0.0648  1.8921  3.8190
  146PROXS  H3215531  13.863  11.781  10.304 -0.8131 -0.6510 -0.1962
  146PROXS  H3315532  13.871  11.691  10.145 -1.1118  0.5854 -2.2211
  147PROXR   O115533  13.629  11.778  10.081  0.1925  0.3118 -0.2388
  147PROXR   C115534  13.632  11.665   9.992  0.1320  0.2546  0.2105
  147PROXR  H1115535  13.705  11.587  10.024 -0.0563  0.3024  0.7762
  147PROXR  H1315536  13.538  11.615   9.962  1.3630 -0.7823 -2.2541
  147PROXR   C215537  13.687  11.721   9.861  0.1719 -0.1989  0.8794
  147PROXR  H2115538  13.789  11.760   9.881  0.7682 -2.3256  2.3662
  147PROXR   C315539  13.602  11.834   9.798 -0.0178 -0.1928  0.1289
  147PROXR  H3115540  13.647  11.872   9.704 -2.2524  1.6362 -0.2906
  147PROXR  H3215541  13.504  11.791   9.766  0.3983 -1.7599  0.8765
  147PROXR  H3315542  13.589  11.916   9.872 -1.1500 -0.6572  0.4703
  148PROXR   O115543  13.704  11.620   9.759  0.2359  0.0593  0.6359
  148PROXR   C115544  13.838  11.620   9.696  0.2363 -0.3975  0.0625
  148PROXR  H1115545  13.868  11.724   9.675 -1.2816  0.2093  0.7181
  148PROXR  H1315546  13.915  11.564   9.753  0.9314 -1.1440 -1.5501
  148PROXR   C215547  13.835  11.539   9.559  0.8959  0.0360 -0.2077
  148PROXR  H2115548  13.741  11.479   9.562  0.8080  0.2020  0.6943
  148PROXR   C315549  13.951  11.444   9.531 -0.5724 -0.3468 -0.1497
  148PROXR  H3115550  13.932  11.382   9.440  2.8312  0.6656 -1.7434
  148PROXR  H3215551  14.042  11.505   9.511 -1.3472  1.0996  0.6515
  148PROXR  H3315552  13.966  11.382   9.622  0.0222  0.0865  0.0540
  149PROXR   O115553  13.825  11.633   9.447  0.3330 -0.2893 -0.4332
  149PROXR   C115554  13.697  11.694   9.421 -0.1184  0.1055 -0.1466
  149PROXR  H1115555  13.627  11.615   9.385 -0.4178  0.3254 -0.0511
  149PROXR  H1315556  13.656  11.741   9.513  0.3260 -1.1893  0.7378
  149PROXR   C215557  13.698  11.805   9.316  0.3909  0.1647 -0.1424
  149PROXR  H2115558  13.728  11.760   9.219 -1.1417 -1.7666  0.2246
  149PROXR   C315559  13.791  11.924   9.361  0.3255  0.1213  0.1863
  149PROXR  H3115560  13.759  11.971   9.457  0.7120 -0.2465  0.5027
  149PROXR  H3215561  13.902  11.912   9.360  0.3546  0.3758  0.0973
  149PROXR  H3315562  13.780  12.003   9.284 -1.7125  0.1670  0.4737
  150PROXS   O115563  13.558  11.854   9.288  0.6509  0.1085  0.0419
  150PROXS   C115564  13.540  11.965   9.194  0.2126  0.8184 -0.6641
  150PROXS  H1115565  13.554  12.053   9.260  2.0279 -0.2190  0.4505
  150PROXS  H1315566  13.622  11.966   9.118  1.9315  0.6627  1.1115
  150PROXS   C215567  13.408  11.953   9.114  0.1357 -0.5804  0.5379
  150PROXS  H2115568  13.316  11.939   9.175 -1.2458 -1.7528 -1.6995
  150PROXS   C315569  13.413  11.846   9.009 -0.3210 -0.8808 -0.1567
  150PROXS  H3115570  13.320  11.832   8.950 -1.0950  0.4887  0.6822
  150PROXS  H3215571  13.496  11.880   8.944 -0.5859  1.4552  0.6235
  150PROXS  H3315572  13.437  11.753   9.065  0.5613 -1.0145 -0.7374
  151PROXR   O115573  13.399  12.081   9.044  0.6390 -0.3631  0.9316
  151PROXR   C115574  13.272  12.113   8.983  0.5736  0.0747 -0.0803
  151PROXR  H1115575  13.291  12.200   8.916 -1.7239  0.7696  0.0684
  151PROXR  H1315576  13.247  12.037   8.907  1.3009  2.1842 -2.5863
  151PROXR   C215577  13.153  12.141   9.074  0.2750 -0.1179 -0.4074
  151PROXR  H2115578  13.136  12.055   9.142  1.5763  0.8082  1.1870
  151PROXR   C315579  13.031  12.166   8.987 -0.6005  0.2316 -0.5788
  151PROXR  H3115580  13.021  12.108   8.893  0.0589  2.0210 -1.8207
  151PROXR  H3215581  12.936  12.185   9.041 -0.3830 -1.1624  0.3362
  151PROXR  H3315582  13.052  12.265   8.939  0.9256 -0.7359 -2.0327
  152PROXR   O115583  13.173  12.265   9.138 -0.3563  0.0161 -0.1302
  152PROXR   C115584  13.245  12.248   9.258 -0.0717 -0.3582  0.3603
  152PROXR  H1115585  13.174  12.217   9.338  0.1840  0.4766  0.9232
  152PROXR  H1315586  13.330  12.178   9.249  1.0371  1.0827 -0.7466
  152PROXR   C215587  13.303  12.382   9.315  0.3091  0.2967  0.0828
  152PROXR  H2115588  13.211  12.438   9.343  2.4922  3.3368  1.6942
  152PROXR   C315589  13.380  12.458   9.208 -0.1313 -0.6852 -0.1882
  152PROXR  H3115590  13.319  12.456   9.115 -0.4557 -1.2640  0.0269
  152PROXR  H3215591  13.404  12.563   9.234 -0.3819 -0.6453 -0.1112
  152PROXR  H3315592  13.477  12.407   9.189 -0.0627 -0.9096  0.7034
  153PROXR   O115593  13.381  12.352   9.427  0.2987  0.1592 -0.1378
  153PROXR   C115594  13.426  12.467   9.493  0.5184  0.2681 -0.2822
  153PROXR  H1115595  13.505  12.521   9.436  1.3994 -2.2349 -1.5519
  153PROXR  H1315596  13.337  12.528   9.519  0.2964 -0.6949  1.3672
  153PROXR   C215597  13.494  12.413   9.624  0.0252 -0.0274  1.0267
  153PROXR  H2115598  13.585  12.359   9.588  0.2116  1.0366 -0.1767
  153PROXR   C315599  13.392  12.330   9.705  0.6034 -0.2240 -0.1201
  153PROXR  H3115600  13.316  12.400   9.746  1.5282  0.2764  0.7917
  153PROXR  H3215601  13.340  12.254   9.642 -0.0870  0.9053 -0.9558
  153PROXR  H3315602  13.447  12.271   9.782  0.3992  0.9333  0.9427
  154PROXS   O115603  13.544  12.517   9.710  0.6499  0.0049 -0.1410
  154PROXS   C115604  13.665  12.476   9.774  0.0839  0.4787  0.2230
  154PROXS  H1115605  13.650  12.380   9.828 -0.0592  1.1734  1.4628
  154PROXS  H1315606  13.744  12.462   9.698  0.3358  1.7367  0.2261
  154PROXS   C215607  13.716  12.593   9.855 -0.1017 -0.3392  0.0602
  154PROXS  H2115608  13.632  12.614   9.925 -0.3436 -0.2433 -0.2573
  154PROXS   C315609  13.755  12.714   9.761 -0.4013  0.0088 -0.3215
  154PROXS  H3115610  13.773  12.801   9.827 -0.9170  0.2743 -0.5223
  154PROXS  H3215611  13.830  12.693   9.681  1.2357  2.0243  0.5819
  154PROXS  H3315612  13.663  12.731   9.701 -0.8898 -4.7702 -1.2973
  155PROXR   O115613  13.832  12.558   9.932  0.0005 -0.1953 -0.2708
  155PROXR   C115614  13.878  12.648  10.031  0.2600 -0.4084 -0.5046
  155PROXR  H1115615  13.891  12.751   9.990 -1.1198  0.7518  1.7844
  155PROXR  H1315616  13.804  12.645  10.113  1.1652  1.2719  0.4192
  155PROXR   C215617  14.013  12.596  10.089  0.0650  0.1403 -0.2722
  155PROXR  H2115618  14.075  12.589   9.997  1.9875 -0.1893  1.0124
  155PROXR   C315619  13.998  12.456  10.144  0.0101 -0.5454  0.0044
  155PROXR  H3115620  13.973  12.380  10.067  1.5756 -0.8394 -0.2359
  155PROXR  H3215621  14.096  12.430  10.188 -0.0569 -0.6807  0.0779
  155PROXR  H3315622  13.924  12.451  10.227 -0.0609 -0.7217 -0.0681
  156PROXS   O115623  14.058  12.693  10.184  0.3049 -0.2901  0.0236
  156PROXS   C115624  14.196  12.693  10.203  0.6821  0.2204  0.6180
  156PROXS  H1115625  14.227  12.618  10.279  1.3711 -0.5722 -0.4039
  156PROXS  H1315626  14.255  12.683  10.109 -1.6603  1.0041 -1.0112
  156PROXS   C215627  14.244  12.831  10.255  0.0798  0.6928 -0.0217
  156PROXS  H2115628  14.202  12.844  10.357  1.6045 -0.6279  0.8279
  156PROXS   C315629  14.202  12.951  10.171 -0.2105  0.0870 -0.1893
  156PROXS  H3115630  14.091  12.956  10.171 -0.2909 -0.7116 -2.3206
  156PROXS  H3215631  14.244  13.044  10.215  0.8584 -0.3377 -0.2646
  156PROXS  H3315632  14.247  12.931  10.071 -0.2136  0.1379 -0.2009
  157PROXS   O115633  14.386  12.825  10.259 -0.1660 -0.1035 -0.7189
  157PROXS   C115634  14.435  12.915  10.361 -0.3778  0.5084  0.2438
  157PROXS  H1115635  14.541  12.933  10.333 -1.4713  1.8532 -3.8043
  157PROXS  H1315636  14.379  13.011  10.354 -1.6820 -0.2391  0.1609
  157PROXS   C215637  14.418  12.872  10.510 -1.2188  0.1502  0.2890
  157PROXS  H2115638  14.314  12.834  10.524 -1.4728  1.0289  0.8733
  157PROXS   C315639  14.458  12.987  10.602  0.1295 -0.1914  0.2095
  157PROXS  H3115640  14.508  12.942  10.691 -2.4154 -0.4988  1.5782
  157PROXS  H3215641  14.529  13.055  10.550  0.5706 -0.2828  0.6756
  157PROXS  H3315642  14.364  13.040  10.626 -1.4277 -2.1499 -1.2310
  158PROXR   O115643  14.517  12.777  10.532  0.8482  0.1657  0.0423
  158PROXR   C115644  14.484  12.641  10.490 -0.4451  0.6200  0.3793
  158PROXR  H1115645  14.377  12.612  10.489 -0.3054 -0.0994 -2.1702
  158PROXR  H1315646  14.520  12.614  10.388 -0.7792 -1.1608  0.6926
  158PROXR   C215647  14.570  12.543  10.572 -1.1482  0.0876 -0.7113
  158PROXR  H2115648  14.545  12.552  10.680 -0.5351  1.2273 -0.6461
  158PROXR   C315649  14.721  12.567  10.552 -0.0992  0.0957  0.4698
  158PROXR  H3115650  14.735  12.556  10.442 -0.3881 -0.5512  0.4956
  158PROXR  H3215651  14.764  12.664  10.584  0.4735 -0.7521  2.4138
  158PROXR  H3315652  14.795  12.494  10.592  2.9521  0.5747 -3.6419
  159PROXR   O115653  14.552  12.408  10.518  0.0838  0.3047  0.2280
  159PROXR   C115654  14.415  12.376  10.530 -0.4007  0.8329 -0.0576
  159PROXR  H1115655  14.370  12.403  10.628 -0.8874 -0.1685  0.0049
  159PROXR  H1315656  14.358  12.422  10.447  1.1889  3.1384  0.0412
  159PROXR   C215657  14.382  12.222  10.517 -0.7642 -0.2323  0.3865
  159PROXR  H2115658  14.415  12.172  10.610 -0.0135  0.0616  0.2843
  159PROXR   C315659  14.451  12.165  10.392  0.2980  0.8503  0.2321
  159PROXR  H3115660  14.405  12.221  10.308 -0.5761  1.4344  1.0903
  159PROXR  H3215661  14.559  12.192  10.392  0.5535 -0.1100 -0.4371
  159PROXR  H3315662  14.437  12.055  10.384  1.1651  0.7914 -0.7510
  160PROXS   O115663  14.243  12.197  10.510 -0.1369 -0.3048 -0.1347
  160PROXS   C115664  14.211  12.066  10.558 -0.1801 -0.0124 -0.5056
  160PROXS  H1115665  14.295  11.995  10.541  1.2838  2.1834 -3.1814
  160PROXS  H1315666  14.203  12.093  10.665  2.9693  2.5235 -0.7557
  160PROXS   C215667  14.075  12.016  10.501  0.0833 -0.2970 -0.6743
  160PROXS  H2115668  13.993  12.092  10.503 -0.3229 -0.7359  0.8028
  160PROXS   C315669  14.020  11.908  10.596 -0.1522 -0.0190 -0.0726
  160PROXS  H3115670  13.989  11.951  10.694  1.5252  1.1539 -0.0038
  160PROXS  H3215671  13.934  11.857  10.549 -1.3531  0.9882  0.9505
  160PROXS  H3315672  14.097  11.831  10.618 -1.5501 -2.2382 -2.4190
  161PROXR   O115673  14.106  11.965  10.374 -0.2901  0.2481  0.1806
  161PROXR   C115674  14.054  12.055  10.278 -0.6306  0.2345 -0.2106
  161PROXR  H1115675  13.943  12.045  10.270 -0.6739  0.7551 -0.2981
  161PROXR  H1315676  14.076  12.162  10.300  1.0753  0.3330 -2.1412
  161PROXR   C215677  14.098  12.024  10.135  0.3124  0.6026  0.1174
  161PROXR  H2115678  14.063  11.922  10.110 -0.0317  0.6330  0.4717
  161PROXR   C315679  14.250  12.021  10.121  0.3412  0.5765  0.6125
  161PROXR  H3115680  14.291  11.967  10.034 -0.6576 -1.3270  1.2638
  161PROXR  H3215681  14.297  12.122  10.112 -0.1640  0.7695  0.0702
  161PROXR  H3315682  14.290  11.979  10.216 -1.1215 -1.3681  0.4141
  162PROXR   O115683  14.039  12.115  10.040  0.8979 -0.4054  0.3306
  162PROXR   C115684  14.066  12.081   9.902  0.1222  0.1931 -0.0832
  162PROXR  H1115685  14.173  12.105   9.885 -0.1927  1.6389 -0.2240
  162PROXR  H1315686  14.040  11.976   9.880 -1.0517  0.6850 -1.1629
  162PROXR   C215687  13.976  12.165   9.810 -0.0832 -0.7970  0.4499
  162PROXR  H2115688  13.977  12.271   9.844 -1.3053 -0.4007 -0.6576
  162PROXR   C315689  13.834  12.111   9.816  0.1993  0.8286 -0.0436
  162PROXR  H3115690  13.771  12.181   9.757 -2.6620 -1.4860  0.0501
  162PROXR  H3215691  13.812  12.015   9.765 -0.4702  1.1763 -0.4292
  162PROXR  H3315692  13.803  12.115   9.922 -0.2554 -0.0762 -0.1296
  163PROXS   O115693  14.035  12.154   9.678 -0.2538 -0.1982  0.3343
  163PROXS   C115694  14.007  12.271   9.595  0.5402 -1.1602  0.3350
  163PROXS  H1115695  13.899  12.264   9.570 -0.0273  1.0877  1.9175
  163PROXS  H1315696  14.030  12.362   9.653 -1.0766 -0.5716  0.0867
  163PROXS   C215697  14.095  12.267   9.468  0.6239 -0.7312 -0.5221
  163PROXS  H2115698  14.071  12.179   9.404  0.6630 -0.8982 -0.3088
  163PROXS   C315699  14.249  12.259   9.503 -0.1615  0.1180 -0.4397
  163PROXS  H3115700  14.287  12.357   9.540  1.5041 -0.6110 -0.1588
  163PROXS  H3215701  14.268  12.170   9.567  1.1168 -0.1128 -1.1134
  163PROXS  H3315702  14.296  12.254   9.403 -0.1212  1.9818 -0.5571
  164PROXR   O115703  14.072  12.389   9.391  1.0276 -0.5132  0.1300
  164PROXR   C115704  13.954  12.378   9.312 -0.7698  0.5883 -0.0902
  164PROXR  H1115705  13.977  12.343   9.209  1.0257 -1.0742  0.8056
  164PROXR  H1315706  13.885  12.302   9.355  0.9045 -0.4778  0.8125
  164PROXR   C215707  13.877  12.508   9.292 -0.0777 -0.5407  0.2730
  164PROXR  H2115708  13.950  12.568   9.233 -0.8813 -0.6928 -0.9167
  164PROXR   C315709  13.839  12.576   9.422 -0.5569  0.7471  0.0620
  164PROXR  H3115710  13.930  12.584   9.485 -0.0261 -0.5527 -0.5049
  164PROXR  H3215711  13.797  12.676   9.401  2.5972  1.6040 -2.9199
  164PROXR  H3315712  13.765  12.507   9.468 -0.8265  0.8392 -0.2308
  165PROXR   O115713  13.775  12.471   9.199  0.3172 -0.1480 -0.2397
  165PROXR   C115714  13.811  12.486   9.063  0.7285 -0.4962  0.0574
  165PROXR  H1115715  13.825  12.595   9.047 -3.5550  0.0692 -1.1588
  165PROXR  H1315716  13.895  12.421   9.029  0.6988 -1.2488  1.3716
  165PROXR   C215717  13.691  12.441   8.974  0.0607  0.3680  0.1944
  165PROXR  H2115718  13.602  12.506   8.989 -0.3771 -0.3708  0.9379
  165PROXR   C315719  13.661  12.293   9.010  0.8690  0.1650  0.6813
  165PROXR  H3115720  13.564  12.265   8.964  1.2745 -1.1095  0.5758
  165PROXR  H3215721  13.747  12.232   8.975  0.5494 -0.4079  0.8909
  165PROXR  H3315722  13.644  12.274   9.118  0.1476 -0.7438  0.4136
  166ETHOX   O115723  13.737  12.456   8.841 -0.4331 -0.2261 -0.4208
  166ETHOX   C115724  13.639  12.419   8.744 -0.2150  0.4727  0.1195
  166ETHOX  H1115725  13.538  12.446   8.782 -0.6452 -2.5257  1.3579
  166ETHOX  H1315726  13.637  12.308   8.745 -1.0410  0.4653 -0.8236
  166ETHOX   C215727  13.667  12.475   8.610  0.0654  0.7284 -0.2353
  166ETHOX  H2115728  13.776  12.461   8.590  0.6455  1.4742  2.0289
  166ETHOX  H2315729  13.646  12.584   8.617 -2.5770  0.5168 -2.8726
  167ETHOX   O115730  13.597  12.415   8.497 -0.4786  0.9433  0.1413
  167ETHOX   C115731  13.664  12.459   8.375  0.4401  0.3172 -0.0274
  167ETHOX  H1115732  13.631  12.565   8.363  0.4515  0.0999 -2.4774
  167ETHOX  H1315733  13.775  12.465   8.380  0.5970 -1.9260  0.0040
  167ETHOX   C215734  13.628  12.368   8.255 -0.5478 -0.9599 -0.3638
  167ETHOX  H2115735  13.670  12.265   8.265 -0.6624 -0.9555  0.2215
  167ETHOX  H2315736  13.676  12.407   8.163 -1.3353 -1.0877 -0.8411
  168ETHOX   O115737  13.490  12.380   8.229  0.3249 -0.2485 -0.4279
  168ETHOX   C115738  13.458  12.479   8.137  1.1659 -0.0805  0.5365
  168ETHOX  H1115739  13.496  12.440   8.041  1.6491 -3.4317  1.9723
  168ETHOX  H1315740  13.495  12.579   8.169  0.1462 -0.2402  2.3417
  168ETHOX   C215741  13.306  12.490   8.129 -0.2904 -0.3224  0.5334
  168ETHOX  H2115742  13.272  12.389   8.099 -0.6062 -0.8891  2.6416
  168ETHOX  H2315743  13.277  12.555   8.043  0.1208 -1.0175 -0.1337
  169ETHOX   O115744  13.241  12.501   8.251  0.8804  0.5819 -0.2291
  169ETHOX   C115745  13.114  12.568   8.236 -0.2877  0.4414 -0.3092
  169ETHOX  H1115746  13.131  12.676   8.219 -0.5886  0.3825 -0.9952
  169ETHOX  H1315747  13.044  12.521   8.164 -0.7629 -2.7146  1.9910
  169ETHOX   C215748  13.062  12.588   8.381  0.0257 -0.4057  0.1257
  169ETHOX  H2115749  12.987  12.670   8.388 -0.2778 -0.7223  0.6200
  169ETHOX  H2315750  13.140  12.622   8.453 -0.6813 -0.9034  1.1384
  170ETHOX   O115751  13.009  12.468   8.431  0.0974  0.7165 -0.3037
  170ETHOX   C115752  12.992  12.484   8.576  0.8350 -0.2211 -0.0141
  170ETHOX  H1115753  12.913  12.560   8.594  1.9909  0.8137  0.8462
  170ETHOX  H1315754  13.086  12.528   8.616 -0.1373  0.0645  2.0906
  170ETHOX   C215755  12.952  12.359   8.654 -0.1355  0.2859  0.1892
  170ETHOX  H2115756  12.929  12.388   8.759  1.6297  1.5280  0.2742
  170ETHOX  H2315757  13.040  12.292   8.648 -1.5501 -1.7106  0.8179
  171ETHOX   O115758  12.838  12.286   8.600 -0.0636 -1.3592  0.0159
  171ETHOX   C115759  12.802  12.175   8.682 -0.3692  0.5517  0.1187
  171ETHOX  H1115760  12.892  12.114   8.705 -0.6361  0.5535  1.1993
  171ETHOX  H1315761  12.760  12.208   8.779  0.4359 -0.8821  0.9952
  171ETHOX   C215762  12.685  12.097   8.621  0.4796  0.2518  0.4308
  171ETHOX  H2115763  12.701  11.987   8.624 -2.4569 -0.2560 -0.1116
  171ETHOX  H2315764  12.675  12.132   8.516 -2.4757  0.1993  0.6145
  172ETHOX   O115765  12.562  12.129   8.686 -0.1495 -0.1209  0.0700
  172ETHOX   C115766  12.460  12.034   8.670  0.5292  0.7395  0.1086
  172ETHOX  H1115767  12.474  11.952   8.596 -1.7576 -0.9103  1.3506
  172ETHOX  H1315768  12.363  12.082   8.648  0.1370  0.2072  0.6386
  172ETHOX   C215769  12.446  11.958   8.806  0.8154  0.1195  0.3815
  172ETHOX  H2115770  12.366  11.882   8.794  0.2226  0.8473 -0.4789
  172ETHOX  H2315771  12.419  12.026   8.890  1.5850  0.3634  0.4347
  173ETHOX   O115772  12.571  11.898   8.855  0.1379 -0.2851 -0.5298
  173ETHOX   C115773  12.551  11.837   8.983  0.5717  0.7185  0.0110
  173ETHOX  H1115774  12.533  11.915   9.059 -1.8113  0.9673 -0.7075
  173ETHOX  H1315775  12.458  11.776   8.985 -0.3991  2.1380  3.0238
  173ETHOX   C215776  12.662  11.736   9.018  0.4289 -0.3267  0.0331
  173ETHOX  H2115777  12.642  11.690   9.118 -2.3639  1.3475  0.3455
  173ETHOX  H2315778  12.667  11.654   8.943  0.4477  0.9025 -1.3491
  174ETHOX   O115779  12.785  11.807   9.027  0.3459  0.0770 -0.5213
  174ETHOX   C115780  12.846  11.833   8.904 -0.6924 -0.5055 -1.0551
  174ETHOX  H1115781  12.802  11.766   8.827  0.7863 -3.2851  0.3454
  174ETHOX  H1315782  12.824  11.941   8.887  0.3303 -0.2922 -1.0747
  174ETHOX   C215783  12.995  11.802   8.912 -0.5661  0.2059  0.2556
  174ETHOX  H2115784  13.023  11.694   8.908 -1.3977  0.0013 -2.3436
  174ETHOX  H2315785  13.040  11.854   8.999  1.9753  2.0647 -2.0025
  175ETHOX   O115786  13.067  11.856   8.800 -0.0100 -0.0724  0.4076
  175ETHOX   C115787  13.046  11.778   8.680 -0.5653 -0.3590  0.1657
  175ETHOX  H1115788  13.101  11.682   8.692 -1.6676 -0.8825  1.2999
  175ETHOX  H1315789  12.936  11.768   8.669 -0.3293 -0.8351 -2.3109
  175ETHOX   C215790  13.085  11.841   8.539  0.8225 -0.3549 -0.8629
  175ETHOX  H2115791  13.037  11.941   8.544  0.0446 -0.7648  0.0621
  175ETHOX  H2315792  13.041  11.784   8.454 -1.3624  1.2267 -0.8653
  176ETHOX   O115793  13.229  11.852   8.536  0.6615  0.3624  0.1896
  176ETHOX   C115794  13.274  11.981   8.579 -0.6272  0.0337  0.5063
  176ETHOX  H1115795  13.248  12.062   8.508  2.4527  1.8832  1.2902
  176ETHOX  H1315796  13.223  12.010   8.673 -2.2462 -0.0891 -0.3043
  176ETHOX   C215797  13.431  11.990   8.589  0.2113  0.1539  0.4715
  176ETHOX  H2115798  13.461  12.096   8.608  0.3904  0.7166 -2.5002
  176ETHOX  H2315799  13.466  11.978   8.484 -0.5927 -0.2642  0.2504
  177ETHOX   O115800  13.490  11.896   8.677 -0.1407  0.2380 -0.1444
  177ETHOX   C115801  13.621  11.877   8.641  0.1462 -0.0238 -0.8665
  177ETHOX  H1115802  13.622  11.831   8.540 -0.4175 -0.9590 -0.4614
  177ETHOX  H1315803  13.653  11.792   8.705  0.2470  0.9750  0.4536
  177ETHOX   C215804  13.721  11.996   8.666  0.3653 -0.2871  0.1520
  177ETHOX  H2115805  13.676  12.087   8.620 -0.5738 -0.5658  0.4870
  177ETHOX  H2315806  13.819  11.977   8.618  0.8575  2.1848  0.0087
  178ETHOX   O115807  13.754  12.037   8.799  1.3776 -0.1281  0.5954
  178ETHOX   C115808  13.837  11.940   8.866  0.1064 -0.6501  0.2700
  178ETHOX  H1115809  13.779  11.852   8.898 -0.1528 -0.4853  0.2579
  178ETHOX  H1315810  13.916  11.905   8.796 -2.3301 -1.3418 -2.3210
  178ETHOX   C215811  13.918  11.988   8.991  0.7703 -0.1129  0.2251
  178ETHOX  H2115812  13.933  11.896   9.051  3.4991 -0.0780 -0.3058
  178ETHOX  H2315813  13.852  12.063   9.040  0.1501 -0.2560 -0.3685
  179ETHOX   O115814  14.046  12.037   8.949 -0.2420 -0.3114  0.2592
  179ETHOX   C115815  14.031  12.175   8.908 -0.4033  0.6277  0.1854
  179ETHOX  H1115816  13.993  12.236   8.993 -0.1257  0.5002  0.4048
  179ETHOX  H1315817  13.948  12.179   8.834 -3.1299  0.7911  3.0384
  179ETHOX   C215818  14.162  12.213   8.852  0.3467 -0.1894  0.0998
  179ETHOX  H2115819  14.234  12.228   8.935 -0.8028 -0.2010  1.1409
  179ETHOX  H2315820  14.154  12.319   8.820 -0.7293  0.2786  1.7861
  180ETHOX   O115821  14.214  12.155   8.734 -0.1054 -0.1016  0.0190
  180ETHOX   C115822  14.320  12.230   8.676  0.5219 -0.1193 -0.3908
  180ETHOX  H1115823  14.379  12.279   8.756 -0.5811 -0.6201  0.7526
  180ETHOX  H1315824  14.378  12.152   8.622 -1.4273 -1.5995 -0.4687
  180ETHOX   C215825  14.281  12.325   8.567 -0.1710 -0.3590 -0.4460
  180ETHOX  H2115826  14.369  12.386   8.540  0.5810 -0.9291  0.6340
  180ETHOX  H2315827  14.195  12.391   8.592 -0.9759 -1.3245 -0.5916
  181ETHOX   O115828  14.244  12.258   8.448 -0.2551 -0.3078 -0.4084
  181ETHOX   C115829  14.099  12.230   8.445  0.1176 -0.0685  0.8493
  181ETHOX  H1115830  14.040  12.321   8.470  1.3084  0.7161  0.9124
  181ETHOX  H1315831  14.068  12.165   8.530  0.8113  1.4136  2.3085
  181ETHOX   C215832  14.050  12.181   8.309 -0.4319 -0.0545 -0.0509
  181ETHOX  H2115833  13.956  12.127   8.335 -0.2823 -0.1775  0.2282
  181ETHOX  H2315834  14.129  12.111   8.274 -1.4576 -1.8900  1.1386
  182ETHOX   O115835  14.035  12.287   8.221  0.8367 -0.5820 -0.9363
  182ETHOX   C115836  13.985  12.236   8.097  0.4339  0.0124 -1.0442
  182ETHOX  H1115837  14.020  12.133   8.074  0.1191 -0.7199  1.4733
  182ETHOX  H1315838  13.879  12.223   8.128  0.6147  1.1007  0.0860
  182ETHOX   C215839  13.992  12.336   7.982 -0.3317 -1.0187  0.4640
  182ETHOX  H2115840  13.996  12.439   8.022  1.5043 -0.4502 -1.0268
  182ETHOX  H2315841  13.897  12.326   7.925  1.3621  0.5014 -2.8919
  183ETHOX   O115842  14.103  12.321   7.893 -0.1428 -0.1908 -0.2383
  183ETHOX   C115843  14.097  12.386   7.768  0.5242 -0.0026  0.4403
  183ETHOX  H1115844  14.097  12.496   7.784  2.6741  0.1308 -0.1690
  183ETHOX  H1315845  14.001  12.359   7.718  0.2527 -0.5301  1.2332
  183ETHOX   C215846  14.212  12.347   7.682 -0.5908 -0.6318 -0.5202
  183ETHOX  H2115847  14.309  12.363   7.733 -0.0572 -0.7983 -1.4611
  183ETHOX  H2315848  14.221  12.416   7.596 -0.5410  0.5825  0.4279
  184ETHOX   O115849  14.200  12.212   7.634 -0.0177  0.0250  0.3276
  184ETHOX   C115850  14.315  12.185   7.550 -0.1118  0.2283  0.5819
  184ETHOX  H1115851  14.288  12.090   7.500  0.8211  0.2326  0.0412
  184ETHOX  H1315852  14.319  12.261   7.469  0.5349  0.7322  1.0779
  184ETHOX   C215853  14.447  12.153   7.618 -0.1604 -0.2983 -0.1787
  184ETHOX  H2115854  14.437  12.073   7.695  2.6036 -1.7563 -1.2201
  184ETHOX  H2315855  14.480  12.253   7.653 -0.6888 -0.0993 -0.2386
  185ETHOX   O115856  14.543  12.100   7.531  0.1420 -0.0206  0.3532
  185ETHOX   C115857  14.650  12.055   7.608  0.3210 -0.3648  0.1134
  185ETHOX  H1115858  14.677  12.131   7.684 -3.6173  3.0975 -1.5734
  185ETHOX  H1315859  14.636  11.958   7.659 -0.4021 -0.6173 -0.5517
  185ETHOX   C215860  14.776  12.035   7.518 -0.3014  0.4914  0.4090
  185ETHOX  H2115861  14.753  11.983   7.423  3.8103 -1.7725  0.4143
  185ETHOX  H2315862  14.854  11.977   7.573 -0.6339  0.2687  0.6455
  186ETHOX   O115863  14.839  12.159   7.481 -0.5137  0.7801 -0.5215
  186ETHOX   C115864  14.924  12.140   7.363 -0.5381 -0.2441  0.0321
  186ETHOX  H1115865  15.018  12.088   7.392 -0.7117 -0.7543 -0.3014
  186ETHOX  H1315866  14.866  12.091   7.282 -1.3602  1.8311 -0.6947
  186ETHOX   C215867  14.973  12.267   7.297  0.5173 -0.5303  0.3411
  186ETHOX  H2115868  14.884  12.319   7.258 -0.0449 -0.3419  1.8412
  186ETHOX  H2315869  15.039  12.255   7.208 -1.5408  1.7707 -1.6359
  187ETHOX   O115870  15.042  12.370   7.372  0.0668 -0.1910  0.2180
  187ETHOX   C115871  15.058  12.488   7.293  0.5419 -0.2034 -0.2323
  187ETHOX  H1115872  15.101  12.472   7.192 -1.6570 -0.4754 -1.1859
  187ETHOX  H1315873  14.958  12.536   7.278  1.5178  1.5012 -1.6426
  187ETHOX   C215874  15.147  12.595   7.359  0.0544 -0.2192 -0.3498
  187ETHOX  H2115875  15.185  12.665   7.282  1.3760 -1.0438 -0.4860
  187ETHOX  H2315876  15.228  12.550   7.421 -0.8817  0.3244  1.3166
  188ETHOX   O115877  15.076  12.674   7.456  0.2645  0.4778  0.2045
  188ETHOX   C115878  15.158  12.766   7.534  0.2438 -0.5551  0.3309
  188ETHOX  H1115879  15.251  12.717   7.572  0.1663  0.8568  2.5308
  188ETHOX  H1315880  15.100  12.809   7.618 -0.3563  1.5963 -1.1104
  188ETHOX   C215881  15.209  12.889   7.451  0.4042 -0.0717 -0.4201
  188ETHOX  H2115882  15.279  12.855   7.372  2.4802  0.5279  1.0660
  188ETHOX  H2315883  15.285  12.935   7.518  1.1273 -2.0316  0.1828
  189ETHOX   O115884  15.124  12.993   7.403 -0.4318  0.2555  0.3025
  189ETHOX   C115885  15.189  13.109   7.365 -0.1099 -0.3191  0.0007
  189ETHOX  H1115886  15.257  13.144   7.446 -1.1364  2.1859 -0.1087
  189ETHOX  H1315887  15.246  13.089   7.273 -1.4892  1.3498 -1.2981
  189ETHOX   C215888  15.089  13.220   7.342  0.7049  0.2677  0.2567
  189ETHOX  H2115889  14.998  13.169   7.304  1.0445  0.5839 -1.0291
  189ETHOX  H2315890  15.124  13.296   7.269  0.8412 -0.7845 -0.7851
  190ETHOX   O115891  15.060  13.276   7.473  0.1383 -0.4534 -0.2580
  190ETHOX   C115892  14.966  13.376   7.453  0.3246  0.0964  0.1055
  190ETHOX  H1115893  14.880  13.337   7.394 -0.6771 -0.0259  1.5951
  190ETHOX  H1315894  15.017  13.456   7.395 -1.8100  1.5957  0.1739
  190ETHOX   C215895  14.924  13.434   7.586  0.4308  0.4809  0.0159
  190ETHOX  H2115896  14.884  13.536   7.566  2.0509  1.0657 -0.3674
  190ETHOX  H2315897  14.999  13.445   7.667  1.7915  2.1304 -1.3799
  191ETHOX   O115898  14.829  13.341   7.637 -0.3622 -0.2356 -0.2968
  191ETHOX   C115899  14.772  13.397   7.760 -0.2165  0.4534  0.1738
  191ETHOX  H1115900  14.852  13.407   7.837 -0.5660 -0.1103  0.6143
  191ETHOX  H1315901  14.731  13.498   7.739 -0.3759  0.0766 -1.4413
  191ETHOX   C215902  14.657  13.303   7.813 -0.4398 -1.2884 -0.1741
  191ETHOX  H2115903  14.604  13.263   7.724 -0.3741 -0.5068 -0.5698
  191ETHOX  H2315904  14.590  13.363   7.879 -0.3147 -1.4324  0.0856
  192ETHOX   O115905  14.708  13.189   7.880 -0.6869 -0.0230  0.5741
  192ETHOX   C115906  14.606  13.091   7.911  0.2115  0.0061  0.0471
  192ETHOX  H1115907  14.605  13.039   7.813  0.1246 -1.3540  0.7458
  192ETHOX  H1315908  14.504  13.129   7.935  1.3339  2.3827  1.4394
  192ETHOX   C215909  14.649  12.990   8.018  0.9001  0.3893 -0.7141
  192ETHOX  H2115910  14.749  12.945   8.001 -0.2008 -1.8969 -1.5012
  192ETHOX  H2315911  14.570  12.913   8.019  2.0648 -0.8547  1.1543
  193ETHOX   O115912  14.636  13.042   8.149  0.0466 -0.6764  0.3037
  193ETHOX   C115913  14.669  12.948   8.246 -0.7257  0.3522 -0.2243
  193ETHOX  H1115914  14.575  12.889   8.253 -1.0862  0.4405 -3.0234
  193ETHOX  H1315915  14.751  12.877   8.223  0.4180  0.4054  3.1593
  193ETHOX   C215916  14.708  12.991   8.387 -0.8561 -0.6170  0.1330
  193ETHOX  H2115917  14.787  13.069   8.390 -1.4944  0.0379  0.2724
  193ETHOX  H2315918  14.749  12.907   8.447  0.4464  0.0769  0.2640
  194ETHOX   O115919  14.587  13.040   8.441 -0.4825  0.0819  0.0523
  194ETHOX   C115920  14.610  13.124   8.555  0.1277  0.2390  0.2980
  194ETHOX  H1115921  14.518  13.180   8.583  0.8647  2.1200 -0.8494
  194ETHOX  H1315922  14.682  13.206   8.538 -2.0216  2.7246  2.4219
  194ETHOX   C215923  14.651  13.048   8.678  0.0636 -0.3500 -0.1847
  194ETHOX  H2115924  14.709  13.122   8.737  2.0592 -2.6285  0.8992
  194ETHOX  H2315925  14.722  12.967   8.653  1.4171  1.4422 -2.5281
  195ETHOX   O115926  14.540  12.995   8.748  0.3331 -0.1133 -0.9953
  195ETHOX   C115927  14.576  12.908   8.859  0.4869 -0.2362  0.8911
  195ETHOX  H1115928  14.663  12.847   8.830  2.4394  1.8440  2.0463
  195ETHOX  H1315929  14.609  12.979   8.938 -0.1088 -0.2178  1.1285
  195ETHOX   C215930  14.464  12.820   8.904  0.9435 -0.1954 -0.2950
  195ETHOX  H2115931  14.366  12.867   8.926  0.9918 -0.0162 -0.4585
  195ETHOX  H2315932  14.499  12.779   9.001  2.6117  1.0632 -0.3184
  196ETHOX   O115933  14.443  12.726   8.796 -0.3327 -0.0066 -0.1812
  196ETHOX   C115934  14.380  12.609   8.842  0.7171  0.0714 -0.0407
  196ETHOX  H1115935  14.410  12.528   8.772  0.5044  0.6965 -0.8768
  196ETHOX  H1315936  14.422  12.584   8.941 -0.8744 -1.0844  0.3790
  196ETHOX   C215937  14.229  12.610   8.840 -0.0674 -0.2151 -0.6478
  196ETHOX  H2115938  14.183  12.699   8.889 -0.6281 -1.9429  2.1969
  196ETHOX  H2315939  14.189  12.527   8.902 -0.3351 -0.2055 -0.8087
  197ETHOX   O115940  14.185  12.596   8.710  0.4358  0.2531 -0.1399
  197ETHOX   C115941  14.039  12.581   8.707 -0.6782 -0.8783  0.4462
  197ETHOX  H1115942  14.014  12.548   8.604  0.1572 -0.7632  0.1990
  197ETHOX  H1315943  14.007  12.497   8.772  0.0618  0.0489  2.0694
  197ETHOX   C215944  13.961  12.707   8.740  0.6438 -0.1916  0.9173
  197ETHOX  H2115945  13.857  12.693   8.703  0.5824  1.5639  0.3364
  197ETHOX  H2315946  14.011  12.786   8.680 -2.9095  1.5255 -0.0594
  198ETHOX   O115947  13.948  12.746   8.878  0.6202 -0.5292  0.7604
  198ETHOX   C115948  13.885  12.878   8.896 -0.4007  0.1205 -0.9970
  198ETHOX  H1115949  13.879  12.930   8.799 -0.0486  1.1743 -0.4708
  198ETHOX  H1315950  13.781  12.862   8.932  0.0038  2.1462  1.3581
  198ETHOX   C215951  13.952  12.965   8.999 -0.1305 -0.6589  0.1189
  198ETHOX  H2115952  13.982  12.905   9.088 -1.3971  0.3772  1.3024
  198ETHOX  H2315953  13.889  13.045   9.043 -0.0477 -0.2869 -0.4240
  199ETHOX   O115954  14.066  13.031   8.951 -0.4290 -0.1386 -0.4200
  199ETHOX   C115955  14.160  13.069   9.045  0.0113  0.7260 -1.0742
  199ETHOX  H1115956  14.199  12.975   9.090 -2.9504 -0.3798 -0.5726
  199ETHOX  H1315957  14.107  13.112   9.132  1.9804  0.7705  0.1522
  199ETHOX   C215958  14.270  13.152   8.988  0.1495  0.0452 -0.0956
  199ETHOX  H2115959  14.332  13.090   8.919 -1.2751 -0.8483 -0.6123
  199ETHOX  H2315960  14.330  13.178   9.077  1.1220 -1.1544 -0.3731
  200ETHOX   O115961  14.228  13.272   8.921 -0.1565 -0.0008 -0.1903
  200ETHOX   C115962  14.337  13.321   8.849 -0.4018  0.0293 -0.3993
  200ETHOX  H1115963  14.421  13.346   8.918  0.6660 -0.3509 -1.5191
  200ETHOX  H1315964  14.376  13.246   8.777  1.1619  1.7338 -1.4231
  200ETHOX   C215965  14.305  13.451   8.770  0.2529 -0.2737 -0.5277
  200ETHOX  H2115966  14.391  13.521   8.770  0.2293 -0.1759  1.8385
  200ETHOX  H2315967  14.223  13.501   8.824  0.1174 -2.0080  0.9732
  201ETHOX   O115968  14.267  13.417   8.634  0.1850  0.0439  0.1034
  201ETHOX   C115969  14.198  13.523   8.564 -0.6021  0.1007  0.2098
  201ETHOX  H1115970  14.224  13.622   8.607 -2.5531  1.4456 -1.5423
  201ETHOX  H1315971  14.091  13.511   8.588 -0.4544 -0.8600  0.4549
  201ETHOX   C215972  14.209  13.517   8.409 -0.3451 -0.5931 -0.2989
  201ETHOX  H2115973  14.147  13.604   8.377 -0.1980  0.6699  2.5067
  201ETHOX  H2315974  14.159  13.422   8.381 -0.4921 -0.1492 -1.6333
  202ETHOX   O115975  14.341  13.529   8.366 -0.5986  0.3247  0.3603
  202ETHOX   C115976  14.369  13.456   8.255 -0.7554  0.4157  0.0543
  202ETHOX  H1115977  14.379  13.350   8.288  0.4675  1.0519  1.8984
  202ETHOX  H1315978  14.288  13.470   8.180 -0.3216  1.7590 -0.1817
  202ETHOX   C215979  14.502  13.492   8.190  0.2967 -0.8072  0.0852
  202ETHOX  H2115980  14.490  13.601   8.168  1.1960 -0.5941  0.6036
  202ETHOX  H2315981  14.505  13.444   8.090 -1.3358 -2.4475  0.7660
  203ETHOX   O115982  14.623  13.464   8.258 -0.8290  0.1292 -0.2185
  203ETHOX   C115983  14.727  13.449   8.163  0.0217 -0.3823  0.0724
  203ETHOX  H1115984  14.747  13.547   8.115 -1.5817 -0.5054 -0.9382
  203ETHOX  H1315985  14.698  13.377   8.083  0.4609 -0.6389  0.1439
  203ETHOX   C215986  14.854  13.396   8.238  0.5264  0.0558 -0.6150
  203ETHOX  H2115987  14.914  13.338   8.164  1.7115 -1.3575  1.3344
  203ETHOX  H2315988  14.820  13.336   8.325 -0.5042 -0.0494 -1.0756
  204ETHOX   O115989  14.935  13.509   8.285  0.0826 -0.0681 -0.4553
  204ETHOX   C115990  14.884  13.578   8.409 -0.5675 -0.0179  1.0182
  204ETHOX  H1115991  14.789  13.628   8.380 -0.3887 -0.1515  0.1549
  204ETHOX  H1315992  14.867  13.502   8.488 -4.3339 -1.7520 -1.1677
  204ETHOX   C215993  14.974  13.694   8.457  0.7074  0.3344  0.5268
  204ETHOX  H2115994  15.075  13.659   8.488  1.3103 -0.8183 -2.4033
  204ETHOX  H2315995  14.919  13.733   8.545  0.2320 -3.1793  1.9577
  205ETHOX   O115996  14.990  13.795   8.360 -0.3212 -0.0902 -0.1633
  205ETHOX   C115997  15.081  13.893   8.417 -0.0349  0.4759  0.5469
  205ETHOX  H1115998  15.175  13.846   8.453  1.2706  1.9417 -0.7828
  205ETHOX  H1315999  15.027  13.953   8.493  2.2346  3.9086 -0.3525
  205ETHOX   C216000  15.124  13.995   8.312  0.1625 -0.0325  1.4706
  205ETHOX  H2116001  15.211  14.061   8.336  0.1483  0.7464 -0.4029
  205ETHOX  H2316002  15.034  14.051   8.279  0.6465  1.2538  2.2353
  206ETHOX   O116003  15.165  13.920   8.194 -0.1700 -0.3373  0.2273
  206ETHOX   C116004  15.218  14.008   8.097  0.2519  0.4944 -0.5115
  206ETHOX  H1116005  15.138  14.075   8.060 -0.3026  0.3145  0.3542
  206ETHOX  H1316006  15.294  14.076   8.139 -0.1123  0.6757 -0.1449
  206ETHOX   C216007  15.267  13.936   7.968  0.2636  0.7375  0.0453
  206ETHOX  H2116008  15.365  13.888   7.990 -0.2687  0.4002  1.7928
  206ETHOX  H2316009  15.195  13.854   7.949  2.3507 -1.0404 -0.6254
  207ETHOX   O116010  15.290  14.024   7.857 -0.6644  0.0944  0.7462
  207ETHOX   C116011  15.177  14.042   7.774 -0.2242  0.6517 -0.2087
  207ETHOX  H1116012  15.087  14.040   7.838  1.2743 -0.3092  2.0208
  207ETHOX  H1316013  15.175  13.960   7.698 -0.6084  1.6960 -1.3577
  207ETHOX   C216014  15.169  14.166   7.691  0.0592  0.0333  0.0513
  207ETHOX  H2116015  15.075  14.160   7.632  1.5446 -0.4510 -2.3932
  207ETHOX  H2316016  15.252  14.171   7.618 -0.5237 -0.9276 -0.6951
  208ETHOX   O116017  15.171  14.279   7.777  0.2007  0.2241 -1.0619
  208ETHOX   C116018  15.167  14.389   7.697  0.1124 -0.3281  0.2760
  208ETHOX  H1116019  15.255  14.400   7.629 -0.7262  3.0655 -0.4479
  208ETHOX  H1316020  15.076  14.389   7.633 -0.5651  0.8985  1.1876
  208ETHOX   C216021  15.152  14.516   7.778 -0.1936  0.1582 -0.1113
  208ETHOX  H2116022  15.126  14.611   7.726 -1.1021  0.9204  1.6205
  208ETHOX  H2316023  15.250  14.530   7.828 -0.7119 -0.6930  1.2001
  209ETHOX   O116024  15.054  14.492   7.874  0.2699  0.3135  0.3738
  209ETHOX   C116025  15.032  14.587   7.979 -0.0737 -0.1387  0.1174
  209ETHOX  H1116026  15.017  14.685   7.929 -1.7686 -0.5714 -0.2987
  209ETHOX  H1316027  15.121  14.595   8.045 -0.2592 -0.2057  0.3765
  209ETHOX   C216028  14.907  14.551   8.064  0.4334 -0.1439  0.4773
  209ETHOX  H2116029  14.832  14.508   7.994  0.0272 -1.8722  1.9217
  209ETHOX  H2316030  14.870  14.649   8.102 -0.1483 -0.6109  1.1397
  210ETHOX   O116031  14.927  14.463   8.174 -0.4958 -0.5560  0.0335
  210ETHOX   C116032  14.805  14.414   8.216  1.0236  0.4669 -0.1441
  210ETHOX  H1116033  14.733  14.499   8.214  0.1345 -0.2442  0.6611
  210ETHOX  H1316034  14.777  14.340   8.138  2.3567  0.5170 -0.7059
  210ETHOX   C216035  14.807  14.335   8.347 -0.0668  0.0053  0.0931
  210ETHOX  H2116036  14.742  14.390   8.418  0.4040  0.4583  0.1789
  210ETHOX  H2316037  14.909  14.317   8.387  0.2800 -0.0692 -0.8062
  211ETHOX   O116038  14.745  14.204   8.328 -0.4113  0.2110 -0.2115
  211ETHOX   C116039  14.757  14.124   8.452  0.0278  0.0003  0.8400
  211ETHOX  H1116040  14.863  14.131   8.482  0.7943 -0.2248 -1.5698
  211ETHOX  H1316041  14.711  14.170   8.542 -1.9243 -1.9271  0.9216
  211ETHOX   C216042  14.711  13.977   8.434  0.8824 -0.2368  0.6173
  211ETHOX  H2116043  14.742  13.922   8.525 -0.1479 -0.5789  0.7835
  211ETHOX  H2316044  14.766  13.933   8.347 -2.9515 -0.3132 -2.0576
  212ETHOX   O116045  14.574  13.971   8.418  0.2392 -0.5546  0.2618
  212ETHOX   C116046  14.534  13.866   8.329  0.1086 -0.0959  1.0612
  212ETHOX  H1116047  14.598  13.877   8.239  1.8920  2.8975  2.5167
  212ETHOX  H1316048  14.544  13.769   8.384  0.9570 -0.1986  0.7534
  212ETHOX   C216049  14.381  13.882   8.311  0.1684  0.9159 -0.7965
  212ETHOX  H2116050  14.326  13.922   8.399  0.3407 -2.5288  1.0205
  212ETHOX  H2316051  14.328  13.788   8.286  1.3280 -0.3945  1.3013
  213ETHOX   O116052  14.342  13.964   8.202 -0.3542  0.5655 -0.6670
  213ETHOX   C116053  14.378  14.101   8.216 -0.6331  0.3698 -0.0103
  213ETHOX  H1116054  14.488  14.096   8.231 -0.5687 -1.7592 -0.8248
  213ETHOX  H1316055  14.377  14.148   8.115  1.0093  0.1509 -0.1529
  213ETHOX   C216056  14.299  14.194   8.315  0.3238  0.6933 -0.8228
  213ETHOX  H2116057  14.375  14.257   8.367  0.9420  0.7734 -1.7925
  213ETHOX  H2316058  14.259  14.126   8.392 -0.2863  1.1026 -0.7722
  214ETHOX   O116059  14.200  14.270   8.248  0.7186 -0.5741  0.3257
  214ETHOX   C116060  14.140  14.366   8.334  0.0143  0.5373  0.4689
  214ETHOX  H1116061  14.210  14.448   8.359  1.3227 -0.8750  1.6804
  214ETHOX  H1316062  14.096  14.314   8.422 -0.5320 -0.9596 -0.6405
  214ETHOX   C216063  14.009  14.406   8.260  0.0930 -0.2942  0.3449
  214ETHOX  H2116064  13.940  14.461   8.327  1.6893  0.9936  0.9961
  214ETHOX  H2316065  13.964  14.312   8.223 -3.1783  1.4754 -0.5477
  215ETHOX   O116066  14.039  14.495   8.149 -0.4354 -0.3816  0.2840
  215ETHOX   C116067  13.922  14.547   8.080  0.0303 -0.2505 -0.3934
  215ETHOX  H1116068  13.850  14.465   8.056  0.9684 -0.5516 -2.4178
  215ETHOX  H1316069  13.868  14.619   8.145 -0.2357 -0.7012 -0.0997
  215ETHOX   C216070  13.959  14.633   7.961 -0.0744 -0.3723 -0.2054
  215ETHOX  H2116071  13.890  14.612   7.876 -0.6276  1.4216 -0.2339
  215ETHOX  H2316072  14.059  14.605   7.920 -0.0546 -1.7974  0.7648
  216ETHOX   O116073  13.959  14.772   7.988 -0.4476 -0.1420 -0.4651
  216ETHOX   C116074  13.988  14.850   7.870  0.6335  0.4946 -0.2762
  216ETHOX  H1116075  13.933  14.804   7.785 -0.0549  0.2447  0.2947
  216ETHOX  H1316076  14.095  14.843   7.841  0.5048  1.0266 -0.8990
  216ETHOX   C216077  13.952  14.999   7.872 -0.2377  0.3093  0.4537
  216ETHOX  H2116078  14.009  15.048   7.791 -0.5078 -0.2542 -0.0797
  216ETHOX  H2316079  13.984  15.055   7.963 -1.8633  0.9045  0.6944
  217ETHOX   O116080  13.810  15.009   7.857  0.1092 -0.0550 -1.0730
  217ETHOX   C116081  13.770  15.141   7.843  0.3645 -0.5594  0.8515
  217ETHOX  H1116082  13.808  15.199   7.930 -0.6305  0.7875  0.4409
  217ETHOX  H1316083  13.813  15.175   7.747 -3.1826 -1.1706 -1.1284
  217ETHOX   C216084  13.613  15.147   7.834  0.0394  0.0885 -0.1971
  217ETHOX  H2116085  13.578  15.089   7.746 -0.1840 -0.1094  0.0168
  217ETHOX  H2316086  13.607  15.256   7.812  0.7818  0.1400 -0.1893
  218ETHOX   O116087  13.550  15.124   7.961 -0.0469  0.2258  0.4536
  218ETHOX   C116088  13.414  15.162   7.959  0.4882  0.5250  0.2399
  218ETHOX  H1116089  13.379  15.148   7.854 -0.9103  1.0455  0.6092
  218ETHOX  H1316090  13.403  15.271   7.977 -1.7414  0.5700 -1.0524
  218ETHOX   C216091  13.340  15.102   8.079  0.4307  0.6170 -0.0001
  218ETHOX  H2116092  13.251  15.161   8.109 -0.5165 -1.7454  2.3318
  218ETHOX  H2316093  13.410  15.112   8.165 -0.0796 -0.9131  0.6443
  219ETHOX   O116094  13.296  14.965   8.065  0.5390  0.0230 -0.3713
  219ETHOX   C116095  13.246  14.914   8.184  0.4890  0.4433 -0.3828
  219ETHOX  H1116096  13.186  14.995   8.230  0.2141  0.2933 -0.4719
  219ETHOX  H1316097  13.175  14.831   8.161 -1.3549  0.5602  3.8825
  219ETHOX   C216098  13.346  14.856   8.288 -0.0802  0.4353 -0.3875
  219ETHOX  H2116099  13.287  14.831   8.379 -1.3134  1.6971 -0.8007
  219ETHOX  H2316100  13.420  14.930   8.326  0.8066 -0.7657  0.2901
  220ETHOX   O116101  13.430  14.751   8.230 -0.4030 -0.3491 -0.4781
  220ETHOX   C116102  13.526  14.707   8.333  0.9309 -0.0903 -0.1259
  220ETHOX  H1116103  13.473  14.665   8.421  0.0006 -1.4422 -1.2741
  220ETHOX  H1316104  13.588  14.793   8.364  0.4978  0.3623 -0.4942
  220ETHOX   C216105  13.620  14.599   8.284 -0.0603  0.4836  0.4331
  220ETHOX  H2116106  13.717  14.596   8.338  1.4135  1.0681 -2.0260
  220ETHOX  H2316107  13.638  14.623   8.177 -2.3390  0.3406 -0.0445
  221ETHOX   O116108  13.557  14.473   8.296 -0.1695 -0.3170 -0.3575
  221ETHOX   C116109  13.648  14.359   8.299 -0.1182 -0.5607 -0.2481
  221ETHOX  H1116110  13.686  14.347   8.195 -1.3888 -1.9414 -0.5860
  221ETHOX  H1316111  13.727  14.377   8.375 -1.1425 -0.4187  0.8094
  221ETHOX   C216112  13.568  14.231   8.321 -0.6787  0.1083 -0.1806
  221ETHOX  H2116113  13.627  14.142   8.289 -1.4971 -0.9303  1.0560
  221ETHOX  H2316114  13.482  14.245   8.252  0.8918  0.0857 -2.2435
  222ETHOX   O116115  13.532  14.217   8.461 -0.0514 -0.4174 -0.1921
  222ETHOX   C116116  13.401  14.179   8.480  0.3912 -0.0114 -0.1369
  222ETHOX  H1116117  13.333  14.266   8.489 -0.7864 -1.0531  1.7400
  222ETHOX  H1316118  13.386  14.111   8.393  1.2533  1.3537 -1.4079
  222ETHOX   C216119  13.384  14.103   8.611  0.5319  0.4932  0.4439
  222ETHOX  H2116120  13.275  14.081   8.614  0.4328  0.5488 -1.3938
  222ETHOX  H2316121  13.401  14.177   8.692  1.4176  0.4696  0.2838
  223ETHOX   O116122  13.457  13.982   8.627  0.4241  0.5732 -0.2574
  223ETHOX   C116123  13.416  13.918   8.748  0.1252 -0.8191 -0.3367
  223ETHOX  H1116124  13.306  13.915   8.761 -0.0758  0.0003 -1.7127
  223ETHOX  H1316125  13.449  13.812   8.742 -1.0423 -1.0813 -3.3199
  223ETHOX   C216126  13.480  13.980   8.881  1.0017  0.5235  0.8236
  223ETHOX  H2116127  13.445  13.913   8.963  1.3603 -0.1349  0.4483
  223ETHOX  H2316128  13.444  14.083   8.898  0.7787  0.3498  1.4522
  224ETHOX   O116129  13.620  13.975   8.878 -0.1518 -0.4459  0.3713
  224ETHOX   C116130  13.663  14.015   9.009  0.1785 -0.0050 -0.4092
  224ETHOX  H1116131  13.590  13.994   9.090 -0.1862  1.7760 -0.2462
  224ETHOX  H1316132  13.758  13.963   9.033  1.0754  1.4823 -0.5916
  224ETHOX   C216133  13.692  14.161   9.011 -0.0036 -0.2331  0.5507
  224ETHOX  H2116134  13.754  14.193   8.925 -0.2716 -0.7349  0.1651
  224ETHOX  H2316135  13.745  14.168   9.108 -3.2772 -2.9128  2.7713
  225ETHOX   O116136  13.576  14.243   9.005  0.2642  0.3218 -0.1633
  225ETHOX   C116137  13.520  14.258   9.132  0.6440 -0.8424 -0.2121
  225ETHOX  H1116138  13.593  14.291   9.209 -1.5106 -1.1171  2.0757
  225ETHOX  H1316139  13.475  14.162   9.166 -0.5553 -0.9189 -1.8932
  225ETHOX   C216140  13.411  14.370   9.149 -0.5967  0.1980 -0.0347
  225ETHOX  H2116141  13.455  14.459   9.098 -0.6548  0.3009  0.0968
  225ETHOX  H2316142  13.389  14.395   9.255 -1.8456  0.9410 -0.4506
  226ETHOX   O116143  13.285  14.332   9.097 -0.6524  0.3624 -0.5673
  226ETHOX   C116144  13.182  14.428   9.126 -0.3438 -0.0224 -0.7661
  226ETHOX  H1116145  13.161  14.439   9.235  2.1487 -0.8128 -0.1426
  226ETHOX  H1316146  13.209  14.526   9.080 -2.0361  1.0289  0.3329
  226ETHOX   C216147  13.049  14.377   9.066  0.3984  0.9792 -0.7934
  226ETHOX  H2116148  13.038  14.276   9.110  2.9844  0.8903 -0.1610
  226ETHOX  H2316149  13.045  14.370   8.955 -2.5748  0.0793 -0.7020
  227ETHOX   O116150  12.940  14.457   9.113 -0.0062 -0.0094 -0.2264
  227ETHOX   C116151  12.817  14.387   9.081  0.5485  0.1853  0.0028
  227ETHOX  H1116152  12.816  14.285   9.125  0.2118 -0.5871 -1.6975
  227ETHOX  H1316153  12.797  14.384   8.972 -0.7511  1.5948  0.1649
  227ETHOX   C216154  12.705  14.464   9.151 -0.2358  0.3644 -0.0603
  227ETHOX  H2116155  12.678  14.563   9.109 -3.4259 -0.7344 -0.8547
  227ETHOX  H2316156  12.734  14.480   9.257  0.8701 -1.0923 -0.0991
  228ETHOX   O116157  12.595  14.376   9.137  0.7154 -0.6342 -0.5242
  228ETHOX   C116158  12.480  14.425   9.216  0.0004  0.4337 -0.3071
  228ETHOX  H1116159  12.492  14.397   9.323  0.1193 -0.9236 -0.6560
  228ETHOX  H1316160  12.485  14.536   9.211  0.8737  0.5065  1.4424
  228ETHOX   C216161  12.342  14.391   9.174  0.0596  1.3675 -0.6797
  228ETHOX  H2116162  12.344  14.384   9.063 -0.6389 -0.8933 -0.5941
  228ETHOX  H2316163  12.263  14.466   9.196 -2.8755 -1.7202  0.2223
  229ETHOX   O116164  12.306  14.266   9.240  1.0268 -0.0400  0.0025
  229ETHOX   C116165  12.165  14.236   9.243  0.2467 -0.1847  0.3726
  229ETHOX  H1116166  12.113  14.316   9.300 -0.5784 -1.0438  0.8412
  229ETHOX  H1316167  12.142  14.141   9.295 -1.6713 -0.2065 -0.4403
  229ETHOX   C216168  12.104  14.224   9.103 -1.1687 -0.7193 -0.0840
  229ETHOX  H2116169  12.005  14.173   9.108 -0.3763 -2.4831 -1.2854
  229ETHOX  H2316170  12.169  14.152   9.048 -0.6825 -0.3679  0.0231
  230ETHOX   O116171  12.090  14.343   9.031 -0.1928  0.2058 -0.3830
  230ETHOX   C116172  11.995  14.327   8.928 -0.1944 -0.4165  0.0076
  230ETHOX  H1116173  11.900  14.293   8.974 -1.1385  1.7304 -0.2417
  230ETHOX  H1316174  11.967  14.421   8.877 -0.6720 -0.7070 -0.2664
  230ETHOX   C216175  12.038  14.227   8.814 -0.4008  0.3582  0.2614
  230ETHOX  H2116176  12.144  14.236   8.784 -0.8704 -1.5702 -2.3508
  230ETHOX  H2316177  11.974  14.241   8.724 -0.8727 -2.0326  0.1582
  231ETHOX   O116178  12.015  14.091   8.859  0.7266 -0.0490 -0.3240
  231ETHOX   C116179  12.064  13.997   8.763 -0.8332 -0.4661 -0.8102
  231ETHOX  H1116180  12.071  13.898   8.812 -1.5308 -0.3959 -0.5475
  231ETHOX  H1316181  12.163  14.021   8.720 -1.2550  1.0476 -1.0195
  231ETHOX   C216182  11.983  13.976   8.629 -0.3148  0.1292  0.4766
  231ETHOX  H2116183  11.987  14.077   8.583  0.2485 -0.3050 -0.4603
  231ETHOX  H2316184  11.874  13.956   8.637 -0.2022  0.1349  2.4467
  232ETHOX   O116185  12.049  13.886   8.536 -0.4195 -0.4701 -0.0958
  232ETHOX   C116186  12.017  13.923   8.399  0.0741  0.2389 -0.7385
  232ETHOX  H1116187  11.916  13.967   8.403 -1.0512 -2.2845  1.2222
  232ETHOX  H1316188  12.094  13.997   8.368  0.3790  1.0848  1.8340
  232ETHOX   C216189  12.027  13.814   8.295  0.0025  0.2318  0.0329
  232ETHOX  H2116190  12.130  13.773   8.292  0.6951  1.9623 -1.5504
  232ETHOX  H2316191  11.999  13.856   8.196 -0.9129 -0.3124  0.0482
  233ETHOX   O116192  11.930  13.711   8.329 -0.1730 -0.3328  0.1750
  233ETHOX   C116193  11.950  13.595   8.254  0.3595  0.4671  0.4899
  233ETHOX  H1116194  11.924  13.620   8.149  0.9391 -0.1457  0.1917
  233ETHOX  H1316195  12.056  13.570   8.275  0.6360  1.6961  0.6596
  233ETHOX   C216196  11.869  13.473   8.291 -0.0210 -0.0267 -0.3970
  233ETHOX  H2116197  11.910  13.385   8.236 -1.7943 -0.8667 -0.4276
  233ETHOX  H2316198  11.764  13.491   8.260 -0.1352  2.4299  1.1728
  234ETHOX   O116199  11.866  13.422   8.424 -0.0444 -0.0345 -0.7386
  234ETHOX   C116200  11.790  13.303   8.444 -0.5356  0.2063 -0.1742
  234ETHOX  H1116201  11.696  13.304   8.385 -1.7513 -0.1908  1.6519
  234ETHOX  H1316202  11.851  13.213   8.424 -0.0366  0.6685 -0.7553
  234ETHOX   C216203  11.754  13.296   8.592 -0.1071  0.6243  0.1295
  234ETHOX  H2116204  11.847  13.316   8.649 -0.9746  0.4926  1.6763
  234ETHOX  H2316205  11.720  13.192   8.608  2.8288 -0.6348 -1.1287
  235ETHOX   O116206  11.649  13.383   8.631  0.0664  0.2607  0.3594
  235ETHOX   C116207  11.650  13.403   8.776  0.3055  0.3799  0.5755
  235ETHOX  H1116208  11.662  13.304   8.826  0.4219 -0.7427 -1.5524
  235ETHOX  H1316209  11.744  13.455   8.804  0.9096 -1.1962  1.6324
  235ETHOX   C216210  11.526  13.484   8.828  0.0919 -0.1346  0.7424
  235ETHOX  H2116211  11.528  13.582   8.776  2.3070 -0.9845 -0.9633
  235ETHOX  H2316212  11.530  13.510   8.935  0.0855  1.8379  0.3039
  236ETHOX   O116213  11.408  13.411   8.804 -0.1854  0.0055 -0.4437
  236ETHOX   C116214  11.295  13.484   8.839 -0.3957 -0.3476 -0.6049
  236ETHOX  H1116215  11.312  13.574   8.902 -0.0672 -1.0251  0.3051
  236ETHOX  H1316216  11.223  13.429   8.904 -1.1314 -0.6488 -1.6627
  236ETHOX   C216217  11.203  13.508   8.716  0.8189  0.5157 -0.1087
  236ETHOX  H2116218  11.099  13.483   8.746  0.7115  0.6943 -0.3315
  236ETHOX  H2316219  11.229  13.445   8.628 -3.0371  0.0892 -1.1156
  237ETHOX   O116220  11.208  13.642   8.675  0.2694  0.0217 -0.4392
  237ETHOX   C116221  11.145  13.661   8.555 -0.4334 -0.1633  0.2854
  237ETHOX  H1116222  11.184  13.590   8.478 -1.7266  0.2065 -0.7482
  237ETHOX  H1316223  11.037  13.635   8.559 -0.3115 -1.6177 -2.5342
  237ETHOX   C216224  11.172  13.806   8.501 -0.0413  1.2292 -0.2865
  237ETHOX  H2116225  11.160  13.813   8.391 -0.2864 -0.3100 -0.3744
  237ETHOX  H2316226  11.274  13.847   8.520 -0.2619  1.0709  1.4022
  238ETHOX   O116227  11.079  13.898   8.565 -1.0429 -0.1541  0.1781
  238ETHOX   C116228  11.092  14.023   8.504  0.5419 -0.0291  0.7795
  238ETHOX  H1116229  11.065  14.008   8.397  0.0289 -2.9823  1.2422
  238ETHOX  H1316230  11.191  14.073   8.511  0.5658  0.6034 -2.4065
  238ETHOX   C216231  10.981  14.109   8.563  0.0262  0.0880 -0.0119
  238ETHOX  H2116232  10.884  14.061   8.538 -0.4915  0.2570  1.5584
  238ETHOX  H2316233  10.968  14.212   8.521 -0.2193  0.5368  1.1351
  239ETHOX   O116234  10.986  14.127   8.706 -0.4638  0.6683 -0.3062
  239ETHOX   C116235  10.859  14.152   8.766  0.1652  0.1305 -0.3007
  239ETHOX  H1116236  10.829  14.246   8.716 -1.2477  0.2652  0.7388
  239ETHOX  H1316237  10.788  14.069   8.744 -0.2565  0.4345 -0.1024
  239ETHOX   C216238  10.850  14.187   8.918  0.0999  0.1420 -1.0948
  239ETHOX  H2116239  10.742  14.206   8.938  0.3682  1.6274 -0.9443
  239ETHOX  H2316240  10.885  14.099   8.975 -0.7964  1.1839  1.2173
  240ETHOX   O116241  10.924  14.304   8.943 -0.1932 -0.1037  0.3013
  240ETHOX   C116242  10.912  14.347   9.077 -0.3670 -0.0843 -0.0840
  240ETHOX  H1116243  10.947  14.263   9.141 -1.2267 -1.2964 -1.1666
  240ETHOX  H1316244  10.807  14.373   9.099 -0.2680  2.1914 -1.9391
  240ETHOX   C216245  11.004  14.471   9.097 -0.1502 -0.0886  0.0711
  240ETHOX  H2116246  11.105  14.442   9.059 -0.6320 -1.6391 -0.0757
  240ETHOX  H2316247  11.015  14.497   9.204 -0.6056 -1.1083  0.3723
  241ETHOX   O116248  10.953  14.586   9.034 -0.0065 -0.4019 -0.3554
  241ETHOX   C116249  11.051  14.695   9.026 -0.1312 -0.3589 -0.2708
  241ETHOX  H1116250  11.118  14.695   9.115 -1.4884 -0.7053  0.8013
  241ETHOX  H1316251  11.111  14.686   8.933 -0.9866 -1.1944 -0.7561
  241ETHOX   C216252  10.970  14.819   9.020  0.3012  0.2389 -0.2361
  241ETHOX  H2116253  11.033  14.910   9.020 -0.0892  0.5169  0.3520
  241ETHOX  H2316254  10.914  14.842   9.113  0.0501  1.2131 -0.6145
  242ETHOX   O116255  10.891  14.815   8.903 -0.1987 -0.3489 -0.3033
  242ETHOX   C116256  10.826  14.940   8.888 -0.4054  0.1647  0.5662
  242ETHOX  H1116257  10.913  15.005   8.866  0.2917 -1.4291 -1.7986
  242ETHOX  H1316258  10.774  14.961   8.984 -1.7857  2.5019 -0.5818
  242ETHOX   C216259  10.717  14.949   8.783 -0.1101 -0.2575  0.7840
  242ETHOX  H2116260  10.664  15.045   8.800  0.4811  0.5909 -1.6604
  242ETHOX  H2316261  10.649  14.867   8.813 -0.2846  0.3795  2.2143
  243ETHOX   O116262  10.766  14.943   8.651  0.0647 -0.3946 -0.0106
  243ETHOX   C116263  10.663  14.910   8.558  0.1002 -0.0692 -0.1916
  243ETHOX  H1116264  10.653  14.799   8.547 -0.7835  0.0229 -0.3940
  243ETHOX  H1316265  10.566  14.955   8.587  0.1793  1.0345 -1.5343
  243ETHOX   C216266  10.689  14.967   8.420 -0.0797 -0.1091 -0.5088
  243ETHOX  H2116267  10.606  14.923   8.360 -3.4455  0.8718  3.0149
  243ETHOX  H2316268  10.784  14.930   8.376  0.7092  0.2526  0.8552
  244ETHOX   O116269  10.680  15.112   8.413 -0.6713  0.0453 -0.0725
  244ETHOX   C116270  10.808  15.172   8.416 -0.6098  0.2741  0.1576
  244ETHOX  H1116271  10.878  15.102   8.465 -0.5415 -0.8426 -1.4535
  244ETHOX  H1316272  10.806  15.267   8.474  1.2056  1.1112 -1.0712
  244ETHOX   C216273  10.871  15.201   8.275  0.1033  0.9098 -0.7138
  244ETHOX  H2116274  10.855  15.115   8.206  0.4041  0.2303  0.0456
  244ETHOX  H2316275  10.980  15.195   8.296 -0.3228 -2.3663  1.2098
  245ETHOX   O116276  10.831  15.330   8.232 -0.2296  0.3032 -0.0131
  245ETHOX   C116277  10.873  15.355   8.100 -1.0412 -1.0605  0.1483
  245ETHOX  H1116278  10.979  15.321   8.096 -0.0778  1.5281  1.2437
  245ETHOX  H1316279  10.812  15.296   8.028 -0.3855  0.9361 -2.1656
  245ETHOX   C216280  10.872  15.501   8.061 -0.4044 -0.0122  0.0361
  245ETHOX  H2116281  10.779  15.557   8.083  0.2488  1.4892 -0.8052
  245ETHOX  H2316282  10.878  15.508   7.950 -2.1384 -0.0115 -0.0780
  246ETHOX   O116283  10.979  15.559   8.125 -0.2001  0.2124  0.4744
  246ETHOX   C116284  10.979  15.701   8.108  0.5989 -0.1373 -0.1507
  246ETHOX  H1116285  10.934  15.719   8.008 -1.9127  1.9405  1.2284
  246ETHOX  H1316286  11.086  15.732   8.107  0.4078  0.5740 -1.6034
  246ETHOX   C216287  10.893  15.776   8.207 -0.7056 -0.0368 -0.3853
  246ETHOX  H2116288  10.789  15.736   8.205 -0.7439  0.0197  0.2630
  246ETHOX  H2316289  10.901  15.885   8.189 -1.3199  0.1585  0.4360
  247ETHOX   O116290  10.945  15.752   8.335 -0.2511 -0.0540  0.1503
  247ETHOX   C116291  10.875  15.811   8.446 -0.4824 -0.4295  0.5113
  247ETHOX  H1116292  10.879  15.921   8.435  2.0208 -0.4716  0.4944
  247ETHOX  H1316293  10.769  15.778   8.448 -0.1540 -1.5813  3.1434
  247ETHOX   C216294  10.939  15.783   8.580  0.0601 -0.1011  0.2625
  247ETHOX  H2116295  11.043  15.820   8.565  0.5027 -1.7190 -0.9311
  247ETHOX  H2316296  10.890  15.839   8.662  0.9736  0.5770  0.3617
  248ETHOX   O116297  10.939  15.650   8.624  0.6395  0.2373 -0.2899
  248ETHOX   C116298  11.060  15.588   8.586 -0.0232 -0.5025 -0.9353
  248ETHOX  H1116299  11.065  15.566   8.478 -0.8422  0.2034 -1.1347
  248ETHOX  H1316300  11.141  15.657   8.616 -1.3653 -0.0865  2.1123
  248ETHOX   C216301  11.098  15.455   8.653 -0.0286 -0.4580  0.0686
  248ETHOX  H2116302  11.094  15.468   8.763 -1.4362 -2.6784  0.3610
  248ETHOX  H2316303  11.201  15.420   8.632 -0.3879 -1.0418 -0.8198
  249ETHOX   O116304  11.005  15.350   8.626  0.1938  0.0118  0.7969
  249ETHOX   C116305  10.998  15.250   8.720  0.2864  0.2598  0.3157
  249ETHOX  H1116306  10.987  15.300   8.818  0.9692 -0.3494  0.7153
  249ETHOX  H1316307  10.911  15.184   8.701 -0.3399 -0.2144  4.1453
  249ETHOX   C216308  11.127  15.155   8.712  0.8816 -0.6476 -0.1554
  249ETHOX  H2116309  11.104  15.065   8.773 -0.6351 -1.1702 -1.4169
  249ETHOX  H2316310  11.218  15.203   8.754  1.4605 -0.3583 -1.6600
  250ETHOX   O116311  11.148  15.110   8.574  0.0141 -0.1361  0.0151
  250ETHOX   C116312  11.249  15.004   8.577  0.1875  0.6079  0.2709
  250ETHOX  H1116313  11.342  15.047   8.621  0.3099 -0.2516  0.8693
  250ETHOX  H1316314  11.227  14.914   8.637  1.2651  0.2486  0.1486
  250ETHOX   C216315  11.291  14.953   8.434  0.2384 -0.4894  0.7805
  250ETHOX  H2116316  11.201  14.929   8.374  0.4907  3.3379 -1.4024
  250ETHOX  H2316317  11.336  14.852   8.441  0.4682 -0.4186  0.3364
  251ETHOX   O116318  11.361  15.057   8.364  0.1566 -0.0157  0.0887
  251ETHOX   C116319  11.435  15.014   8.247 -0.0153 -0.2031  0.5096
  251ETHOX  H1116320  11.498  14.925   8.268 -0.8270 -0.0150  4.3621
  251ETHOX  H1316321  11.502  15.099   8.219 -0.5612  0.3180  0.7753
  251ETHOX   C216322  11.346  14.981   8.127  0.8043  0.7241  0.1789
  251ETHOX  H2116323  11.396  14.986   8.028  0.7614  1.2694  0.1823
  251ETHOX  H2316324  11.269  15.061   8.134 -2.4126 -2.1478  0.4034
  252ETHOX   O116325  11.277  14.861   8.143 -0.2092  0.2753  0.5451
  252ETHOX   C116326  11.171  14.852   8.049  0.2143 -0.4009 -0.4811
  252ETHOX  H1116327  11.136  14.952   8.018 -1.3678 -1.0108 -0.7818
  252ETHOX  H1316328  11.204  14.784   7.967  1.9592 -0.9434  0.6042
  252ETHOX   C216329  11.045  14.803   8.121  0.5525  0.2455 -0.3899
  252ETHOX  H2116330  11.025  14.871   8.206  2.0910 -0.7726  0.8387
  252ETHOX  H2316331  11.069  14.704   8.165 -1.6278  0.2145  0.8926
  253ETHOX   O116332  10.931  14.799   8.041 -0.6282 -0.0220 -0.0377
  253ETHOX   C116333  10.826  14.732   8.106 -0.1131 -0.0194 -0.2239
  253ETHOX  H1116334  10.814  14.782   8.205 -0.1527  1.9923 -1.1823
  253ETHOX  H1316335  10.853  14.625   8.117 -0.3322  0.0669  1.3324
  253ETHOX   C216336  10.686  14.735   8.039  0.3392 -0.4681 -0.0294
  253ETHOX  H2116337  10.635  14.638   8.051  0.7040 -0.3630  3.0717
  253ETHOX  H2316338  10.702  14.751   7.930  0.5477  1.3164  0.2338
  254ETHOX   O116339  10.595  14.827   8.101  0.4029  0.4041 -0.6646
  254ETHOX   C116340  10.460  14.816   8.049  0.1645  0.6021  0.0721
  254ETHOX  H1116341  10.475  14.863   7.950  0.6091 -0.4180 -0.3551
  254ETHOX  H1316342  10.418  14.715   8.028  1.1073 -0.2933  2.1671
  254ETHOX   C216343  10.357  14.884   8.144 -0.5252  0.4459  1.4980
  254ETHOX  H2116344  10.254  14.880   8.101 -0.2615  0.1018  0.8923
  254ETHOX  H2316345  10.385  14.991   8.154 -1.7661  0.7509  1.9805
  255ETHOX   O116346  10.365  14.824   8.268 -0.1457 -0.1028 -0.4761
  255ETHOX   C116347  10.255  14.874   8.349 -0.0073  0.9026  0.5128
  255ETHOX  H1116348  10.158  14.847   8.303 -0.5610  0.8556  1.6886
  255ETHOX  H1316349  10.274  14.984   8.352  1.2536  0.6868  1.2077
  255ETHOX   C216350  10.256  14.801   8.482  0.3977 -0.2394 -0.1808
  255ETHOX  H2116351  10.180  14.848   8.548  1.7643 -2.2486  3.0157
  255ETHOX  H2316352  10.360  14.802   8.522  0.4837 -0.9288 -0.3738
  256ETHOX   O116353  10.208  14.669   8.468 -0.2054 -0.2367 -0.2006
  256ETHOX   C116354  10.188  14.600   8.590 -0.6476  0.3489  0.4249
  256ETHOX  H1116355  10.261  14.516   8.586  0.4828  1.3325 -0.8973
  256ETHOX  H1316356  10.190  14.664   8.681  1.5460 -0.4332  1.0003
  256ETHOX   C216357  10.051  14.524   8.585 -0.8415  0.4237 -0.2210
  256ETHOX  H2116358  10.046  14.449   8.667  1.2493 -0.9217 -1.2244
  256ETHOX  H2316359  10.048  14.454   8.499  0.5793 -0.7041  0.5946
  257ETHOX   O116360   9.945  14.617   8.587  0.0765  0.2156 -0.0264
  257ETHOX   C116361   9.814  14.552   8.576 -0.0605  0.5407 -0.0202
  257ETHOX  H1116362   9.802  14.482   8.662 -1.5356 -1.0360 -1.4539
  257ETHOX  H1316363   9.808  14.487   8.486  2.5987 -1.3036  0.9968
  257ETHOX   C216364   9.700  14.652   8.590 -0.5397 -0.1289 -0.5772
  257ETHOX  H2116365   9.728  14.722   8.672  0.9875 -0.6835 -0.5886
  257ETHOX  H2316366   9.607  14.594   8.611 -0.8051  0.4080 -0.2548
  258ETHOX   O116367   9.675  14.731   8.474 -0.0638  0.2191  0.8272
  258ETHOX   C116368   9.554  14.795   8.478  0.0718 -0.3172  0.3627
  258ETHOX  H1116369   9.490  14.781   8.388  3.7902 -0.4278 -2.4661
  258ETHOX  H1316370   9.501  14.772   8.573 -0.1667 -1.2770  0.0100
  258ETHOX   C216371   9.579  14.945   8.493  0.6478 -0.5388  0.4354
  258ETHOX  H2116372   9.659  14.957   8.568  1.4650 -3.4543  0.1770
  258ETHOX  H2316373   9.486  14.989   8.534  0.1653 -1.7634  0.6915
  259ETHOX   O116374   9.615  15.010   8.374 -0.1785  0.4645  0.6353
  259ETHOX   C116375   9.658  15.143   8.404 -0.2325  0.4075  0.0085
  259ETHOX  H1116376   9.593  15.199   8.474  1.2876  0.1925  1.6717
  259ETHOX  H1316377   9.763  15.137   8.442  0.0191 -1.0958 -0.8491
  259ETHOX   C216378   9.678  15.222   8.268  0.0554  0.1947 -0.0562
  259ETHOX  H2116379   9.720  15.149   8.197  0.3643  1.5550 -1.3204
  259ETHOX  H2316380   9.754  15.299   8.294  0.7423 -0.6249  0.4321
  260ETHOX   O116381   9.551  15.265   8.218 -0.0236  0.1137  0.0095
  260ETHOX   C116382   9.505  15.383   8.280 -0.4852  0.2146 -0.2624
  260ETHOX  H1116383   9.420  15.350   8.344 -0.0510  1.3616  0.9477
  260ETHOX  H1316384   9.577  15.436   8.346 -1.2228  1.1778 -0.2029
  260ETHOX   C216385   9.455  15.488   8.180  0.1046  0.4130  0.2347
  260ETHOX  H2116386   9.392  15.558   8.238  0.6815  2.2830 -1.2580
  260ETHOX  H2316387   9.401  15.436   8.098  0.5541  2.8673 -1.7504
  261ETHOX   O116388   9.558  15.555   8.112 -0.6320  0.4235  0.0929
  261ETHOX   C116389   9.515  15.651   8.018 -0.8339 -0.1568 -0.4114
  261ETHOX  H1116390   9.607  15.684   7.965 -0.0307 -1.4080  0.1424
  261ETHOX  H1316391   9.459  15.611   7.931 -1.7954 -1.2247  0.6591
  261ETHOX   C216392   9.449  15.785   8.071  0.2264  0.0591 -0.1192
  261ETHOX  H2116393   9.425  15.845   7.981 -0.5055 -1.9764 -1.3649
  261ETHOX  H2316394   9.522  15.836   8.137  1.4046  0.3111 -1.5810
  262ETHOX   O116395   9.321  15.761   8.136 -0.3640 -0.3783 -0.6948
  262ETHOX   C116396   9.243  15.881   8.156  0.0230 -0.4487 -0.6254
  262ETHOX  H1116397   9.220  15.927   8.057  3.0561  0.7310 -0.8943
  262ETHOX  H1316398   9.313  15.948   8.210 -1.3411 -0.4561  1.2201
  262ETHOX   C216399   9.118  15.855   8.242 -0.3960  0.0878  0.2661
  262ETHOX  H2116400   9.050  15.795   8.178 -0.0948  0.9809 -0.9378
  262ETHOX  H2316401   9.057  15.945   8.266 -1.1086 -0.3086 -0.0235
  263ETHOX   O116402   9.142  15.765   8.353  0.0918  0.6123 -0.0788
  263ETHOX   C116403   9.090  15.808   8.478  0.3783  0.1201  0.0939
  263ETHOX  H1116404   9.087  15.713   8.536 -2.4556 -0.5308 -0.9271
  263ETHOX  H1316405   8.983  15.832   8.460  0.3086  0.3488  0.7810
  263ETHOX   C216406   9.163  15.927   8.535  0.2137  0.2458 -0.6031
  263ETHOX  H2116407   9.261  15.912   8.484  0.9995 -1.8281  1.3299
  263ETHOX  H2316408   9.182  15.899   8.641  1.2649  0.6007 -0.6823
  264ETHOX   O116409   9.105  16.055   8.518  0.0833  0.6367  0.1652
  264ETHOX   C116410   9.204  16.153   8.551 -0.1371  0.7356 -0.5158
  264ETHOX  H1116411   9.294  16.135   8.489  0.9989  1.8930  0.7274
  264ETHOX  H1316412   9.242  16.131   8.653 -1.8133  2.7222  0.5994
  264ETHOX   C216413   9.147  16.290   8.546 -0.3107 -0.0993  0.4189
  264ETHOX  H2116414   9.103  16.309   8.446  1.8936 -0.5539 -0.6798
  264ETHOX  H2316415   9.224  16.369   8.555  0.0762 -0.5474  1.0861
  265ETHOX   O116416   9.050  16.300   8.651  0.2295  0.1559  0.8410
  265ETHOX   C116417   8.971  16.416   8.627 -0.5609 -0.2247 -0.1629
  265ETHOX  H1116418   9.026  16.509   8.653 -0.1667  0.2523 -2.5032
  265ETHOX  H1316419   8.941  16.415   8.520  0.4800 -1.3227 -0.4682
  265ETHOX   C216420   8.841  16.419   8.711 -0.4032 -0.5359  0.0319
  265ETHOX  H2116421   8.792  16.320   8.699 -3.4639  0.4706  2.8335
  265ETHOX  H2316422   8.768  16.488   8.663  0.8500  0.6852 -0.1813
  265ETHOX   OZ16423   8.854  16.449   8.849  0.3338 -0.2582  0.4713
  265ETHOX  HZ116424   8.762  16.441   8.876  0.1723 -0.8543 -0.2162
    1ETHOX   O116425  18.593  16.407  12.368 -0.6138  1.3001 -0.0924
    1ETHOX  HO116426  18.645  16.383  12.291 -2.0384  1.1695 -1.0414
    1ETHOX   C116427  18.468  16.347  12.360 -0.4477 -0.4320 -0.3736
    1ETHOX  H1116428  18.457  16.335  12.250 -2.0608 -0.8266 -0.1903
    1ETHOX  H1316429  18.387  16.412  12.399 -0.5200 -0.9192  0.3020
    1ETHOX   C216430  18.473  16.208  12.434 -1.0473 -0.3461 -0.1788
    1ETHOX  H2116431  18.560  16.156  12.388  0.0417  0.6914  0.6271
    1ETHOX  H2316432  18.378  16.154  12.416 -0.5804 -1.0991 -0.4482
    2ETHOX   O116433  18.495  16.220  12.573  0.9801  0.4483  0.2195
    2ETHOX   C116434  18.539  16.099  12.632 -0.4824  0.4783 -0.5615
    2ETHOX  H1116435  18.462  16.021  12.613 -1.2611  1.6736 -2.8004
    2ETHOX  H1316436  18.639  16.058  12.609 -0.1066 -0.1580  1.9361
    2ETHOX   C216437  18.544  16.125  12.778  0.8339 -0.0491 -0.8021
    2ETHOX  H2116438  18.548  16.028  12.833  0.0026  0.3590  0.0035
    2ETHOX  H2316439  18.451  16.174  12.813  1.4976 -1.0207  2.6955
    3ETHOX   O116440  18.661  16.200  12.813  0.0460 -0.1652  0.0017
    3ETHOX   C116441  18.669  16.245  12.949  0.5071  0.1422 -0.6986
    3ETHOX  H1116442  18.654  16.152  13.008 -1.3035  0.3938 -0.6983
    3ETHOX  H1316443  18.585  16.312  12.975  1.3491  0.4751  1.3507
    3ETHOX   C216444  18.789  16.330  12.995  0.5719  0.4643  0.5371
    3ETHOX  H2116445  18.752  16.387  13.083  0.9357  1.7136 -0.1058
    3ETHOX  H2316446  18.800  16.403  12.912 -2.5586 -1.6792 -2.0055
    4ETHOX   O116447  18.909  16.266  13.035 -0.7019  0.1417 -0.3594
    4ETHOX   C116448  18.995  16.237  12.921 -0.3805 -0.0063 -0.4159
    4ETHOX  H1116449  18.948  16.177  12.839  2.7253  0.1167 -2.4565
    4ETHOX  H1316450  19.013  16.332  12.865 -0.8922  1.6185  2.0023
    4ETHOX   C216451  19.132  16.176  12.965  0.7211 -0.4067 -0.4194
    4ETHOX  H2116452  19.170  16.227  13.055 -2.8107 -2.9122  2.8034
    4ETHOX  H2316453  19.204  16.175  12.880  0.7654 -0.0484 -0.3882
    5ETHOX   O116454  19.108  16.036  12.998 -0.3047  0.1365  0.0176
    5ETHOX   C116455  19.226  15.965  13.042 -1.2924 -0.1193  0.7115
    5ETHOX  H1116456  19.291  15.934  12.958 -0.9149 -1.6290  1.5330
    5ETHOX  H1316457  19.280  16.024  13.120 -0.0818 -0.1571 -0.0729
    5ETHOX   C216458  19.195  15.835  13.111 -0.3873 -0.0003 -0.4822
    5ETHOX  H2116459  19.287  15.773  13.118 -0.6688 -0.6164 -1.8583
    5ETHOX  H2316460  19.126  15.782  13.042  1.0425 -1.7742 -0.6241
    6ETHOX   O116461  19.147  15.856  13.240 -0.0202 -0.2940 -0.2257
    6ETHOX   C116462  19.129  15.733  13.317 -0.4342 -0.4728  0.8664
    6ETHOX  H1116463  19.029  15.687  13.295 -0.3206  0.4432 -2.0754
    6ETHOX  H1316464  19.211  15.660  13.300 -1.8568 -1.5510 -2.2033
    6ETHOX   C216465  19.129  15.762  13.465  0.3266 -0.4789 -0.2617
    6ETHOX  H2116466  19.049  15.697  13.507  0.0083  1.0488  1.6636
    6ETHOX  H2316467  19.102  15.866  13.494  0.4835 -0.5463  0.1236
    7ETHOX   O116468  19.254  15.718  13.521  0.6584 -0.8238  0.3003
    7ETHOX   C116469  19.256  15.730  13.668  0.2419 -0.2645  0.1202
    7ETHOX  H1116470  19.237  15.833  13.706 -0.6825 -0.3372 -0.1018
    7ETHOX  H1316471  19.179  15.666  13.717 -0.8207  1.8583  1.3629
    7ETHOX   C216472  19.396  15.698  13.729 -0.1094 -0.0537 -0.3202
    7ETHOX  H2116473  19.392  15.724  13.838 -3.3755  3.6161 -1.0799
    7ETHOX  H2316474  19.470  15.765  13.681 -1.9489  2.0179 -0.4343
    8ETHOX   O116475  19.430  15.559  13.717 -0.0848  0.7168 -0.0941
    8ETHOX   C116476  19.486  15.496  13.833  0.2663 -0.1674 -0.0803
    8ETHOX  H1116477  19.408  15.510  13.911 -2.1194 -2.7653 -1.8372
    8ETHOX  H1316478  19.573  15.560  13.862  1.4059 -0.4483 -2.5921
    8ETHOX   C216479  19.517  15.346  13.827 -0.3536  0.0433 -0.0800
    8ETHOX  H2116480  19.447  15.289  13.762  0.0038 -1.4565  0.7967
    8ETHOX  H2316481  19.520  15.299  13.928 -1.2938  0.1688  0.0133
    9ETHOX   O116482  19.645  15.320  13.766  0.1433  0.1323  0.3493
    9ETHOX   C116483  19.663  15.175  13.752  0.1414 -0.6394  0.5617
    9ETHOX  H1116484  19.619  15.120  13.838  0.0781  0.7165  1.4240
    9ETHOX  H1316485  19.603  15.135  13.667 -0.9462 -1.5730  1.7279
    9ETHOX   C216486  19.810  15.128  13.739 -0.7409 -0.4026  0.0701
    9ETHOX  H2116487  19.861  15.189  13.660  0.0154 -0.6620  0.3471
    9ETHOX  H2316488  19.802  15.023  13.704  4.2261 -0.8235 -0.6216
   10ETHOX   O116489  19.880  15.132  13.860 -0.3675 -0.3841  0.2998
   10ETHOX   C116490  20.013  15.097  13.846 -0.4312 -0.1269  0.7321
   10ETHOX  H1116491  20.065  15.097  13.944  1.4771 -0.5426 -0.2304
   10ETHOX  H1316492  20.049  15.165  13.766 -1.6571  0.5324  0.7193
   10ETHOX   C216493  20.040  14.951  13.809  0.4369  0.7342  0.3056
   10ETHOX  H2116494  19.954  14.888  13.840  0.6950  0.7075  0.9728
   10ETHOX  H2316495  20.132  14.904  13.848  0.7161 -0.0126 -1.1821
   11ETHOX   O116496  20.055  14.949  13.665 -0.2550  0.3613 -0.0331
   11ETHOX   C116497  19.999  14.836  13.602  0.3824  0.2281 -0.4773
   11ETHOX  H1116498  20.053  14.747  13.641 -1.0854 -0.3674  0.2897
   11ETHOX  H1316499  19.895  14.817  13.637  0.0084  0.7193 -1.2955
   11ETHOX   C216500  19.999  14.848  13.450 -0.1355 -0.7268  0.3336
   11ETHOX  H2116501  19.940  14.765  13.405 -0.2893 -0.8813  0.8203
   11ETHOX  H2316502  19.955  14.948  13.428 -0.1097 -0.9829 -0.9750
   12ETHOX   O116503  20.131  14.833  13.399  0.2430 -0.2502  0.4012
   12ETHOX   C116504  20.146  14.816  13.260 -0.5162  0.1373  0.0750
   12ETHOX  H1116505  20.094  14.902  13.213 -0.5182  1.0789  1.7193
   12ETHOX  H1316506  20.100  14.716  13.241 -0.4394  0.3924 -1.6186
   12ETHOX   C216507  20.294  14.827  13.204  0.1682  1.3536 -0.1507
   12ETHOX  H2116508  20.351  14.916  13.237  0.6339  0.9227  0.2276
   12ETHOX  H2316509  20.287  14.819  13.094  0.3133  0.2568 -0.0883
   13ETHOX   O116510  20.344  14.707  13.254 -0.0152  0.1774 -0.2948
   13ETHOX   C116511  20.477  14.679  13.234 -0.6056 -0.0802  0.7900
   13ETHOX  H1116512  20.481  14.601  13.154  2.9456 -1.5592  2.2243
   13ETHOX  H1316513  20.535  14.764  13.191 -1.5567 -0.5726 -1.6855
   13ETHOX   C216514  20.551  14.627  13.358 -0.2575  0.6303  0.2607
   13ETHOX  H2116515  20.650  14.596  13.317  0.4761 -0.9740  2.9796
   13ETHOX  H2316516  20.494  14.539  13.396  0.1783 -0.7079 -2.0016
   14ETHOX   O116517  20.569  14.719  13.465 -0.8936 -0.2696  0.0603
   14ETHOX   C116518  20.665  14.819  13.427  0.8038 -0.0817  0.2651
   14ETHOX  H1116519  20.627  14.870  13.336  0.5168  0.3830  0.6344
   14ETHOX  H1316520  20.767  14.778  13.416  0.8445  0.3964 -1.3298
   14ETHOX   C216521  20.665  14.925  13.551  0.7728  0.3199  0.3686
   14ETHOX  H2116522  20.559  14.939  13.581  0.7191 -0.6739  0.6834
   14ETHOX  H2316523  20.713  15.024  13.535  0.1489  0.5778  0.0579
   15ETHOX   O116524  20.734  14.860  13.655 -0.9840 -0.0570  0.2754
   15ETHOX   C116525  20.776  14.948  13.759  0.4970  0.9043 -0.5128
   15ETHOX  H1116526  20.829  14.885  13.833 -1.0949  0.8934  0.6656
   15ETHOX  H1316527  20.837  15.028  13.710  0.1332  0.1396 -2.2917
   15ETHOX   C216528  20.657  15.018  13.827 -0.2831 -0.5203  0.5729
   15ETHOX  H2116529  20.575  14.944  13.824 -0.0678 -0.8468 -3.2363
   15ETHOX  H2316530  20.678  15.045  13.932 -2.0249 -0.1037  0.8416
   16ETHOX   O116531  20.606  15.136  13.759 -0.2070  0.4155  0.1890
   16ETHOX   C116532  20.508  15.205  13.836  0.3069 -0.2413  0.0743
   16ETHOX  H1116533  20.437  15.133  13.883 -1.3691  0.1942 -1.6617
   16ETHOX  H1316534  20.568  15.258  13.913 -0.4791  1.6131 -0.5236
   16ETHOX   C216535  20.431  15.312  13.753  0.4978 -0.3281 -0.2109
   16ETHOX  H2116536  20.502  15.358  13.682 -0.2751  0.6222 -0.3974
   16ETHOX  H2316537  20.382  15.398  13.805 -0.2792 -1.3163  0.7582
   17ETHOX   O116538  20.327  15.249  13.680 -0.1953  0.2334 -1.4058
   17ETHOX   C116539  20.379  15.195  13.559 -0.4743  0.5809 -0.3903
   17ETHOX  H1116540  20.440  15.273  13.508  1.1168  0.5890  1.3795
   17ETHOX  H1316541  20.457  15.119  13.579 -1.8578 -0.4247  1.5109
   17ETHOX   C216542  20.267  15.149  13.465 -0.5637  0.7797 -0.4158
   17ETHOX  H2116543  20.212  15.072  13.524 -0.8115  0.9405 -0.4393
   17ETHOX  H2316544  20.301  15.098  13.373  0.1778  1.2205 -0.3995
   18ETHOX   O116545  20.182  15.250  13.412  0.1200 -0.1124 -0.2864
   18ETHOX   C116546  20.060  15.254  13.486  1.1002 -0.0147 -0.4335
   18ETHOX  H1116547  19.996  15.164  13.492  1.4612 -0.1889  1.7988
   18ETHOX  H1316548  20.098  15.270  13.589  0.1404  0.6818 -0.1722
   18ETHOX   C216549  19.975  15.373  13.431  0.6653 -0.5406 -0.2861
   18ETHOX  H2116550  20.034  15.466  13.417 -1.2398  0.7966  0.2707
   18ETHOX  H2316551  19.893  15.404  13.499  0.5337  0.7394 -0.9994
   19ETHOX   O116552  19.910  15.338  13.305 -1.0363 -0.1366 -0.2284
   19ETHOX   C116553  19.866  15.462  13.246  0.4133  0.7228  0.1557
   19ETHOX  H1116554  19.934  15.550  13.246 -0.6974  1.6468 -1.1395
   19ETHOX  H1316555  19.773  15.493  13.299  2.0573  1.2134  2.9372
   19ETHOX   C216556  19.829  15.441  13.094 -1.1404 -0.1470 -0.4924
   19ETHOX  H2116557  19.771  15.527  13.053 -1.4466  0.7807  1.7335
   19ETHOX  H2316558  19.763  15.352  13.089 -1.7474  0.1505  1.2188
   20ETHOX   O116559  19.949  15.421  13.022 -0.7349 -0.0385  1.0787
   20ETHOX   C116560  19.913  15.357  12.895 -1.2135 -0.2287  0.3445
   20ETHOX  H1116561  19.909  15.249  12.918  0.5774 -1.0343 -2.6865
   20ETHOX  H1316562  19.812  15.397  12.870 -1.5099  0.6828  2.6611
   20ETHOX   C216563  20.023  15.373  12.783  0.2527  0.3174  0.1233
   20ETHOX  H2116564  19.980  15.335  12.688  0.1767 -2.5288  1.1958
   20ETHOX  H2316565  20.115  15.320  12.818 -0.1935 -0.3679  0.2827
   21ETHOX   O116566  20.054  15.513  12.771  0.1968 -0.1673 -0.1212
   21ETHOX   C116567  20.171  15.540  12.700  0.9166 -0.0636  0.5677
   21ETHOX  H1116568  20.168  15.512  12.593 -0.7966 -0.3512  0.6630
   21ETHOX  H1316569  20.260  15.500  12.754  1.1369  1.0924  1.0740
   21ETHOX   C216570  20.187  15.690  12.695  0.2357 -1.3772 -0.1384
   21ETHOX  H2116571  20.105  15.731  12.633  0.6207 -0.7301 -0.2355
   21ETHOX  H2316572  20.276  15.717  12.635  0.5187 -0.4125  0.6752
   22ETHOX   O116573  20.178  15.742  12.830 -0.2736 -0.7294 -0.0513
   22ETHOX   C116574  20.150  15.884  12.832 -0.0202 -0.8918  0.5728
   22ETHOX  H1116575  20.249  15.934  12.820 -0.6743  0.1317 -0.8486
   22ETHOX  H1316576  20.089  15.921  12.747  1.6823  0.4445 -0.1348
   22ETHOX   C216577  20.093  15.928  12.969 -0.1013  0.0440  0.6727
   22ETHOX  H2116578  20.105  15.844  13.040 -3.1188 -1.6366 -0.6208
   22ETHOX  H2316579  20.151  16.017  13.002  0.7013  0.4522 -1.6033
   23ETHOX   O116580  19.957  15.951  12.960 -0.0325 -0.0326 -0.0558
   23ETHOX   C116581  19.924  16.070  12.900  0.8885 -0.5765  0.1024
   23ETHOX  H1116582  19.824  16.050  12.855  0.2337 -0.8816  1.6044
   23ETHOX  H1316583  20.000  16.091  12.823  1.3584  0.8335  0.9140
   23ETHOX   C216584  19.913  16.194  12.986 -0.2065 -0.5037  0.3108
   23ETHOX  H2116585  19.945  16.288  12.936 -1.0416  0.7580  2.0541
   23ETHOX  H2316586  19.964  16.185  13.084  0.5840  1.6834  0.1583
   24ETHOX   O116587  19.777  16.228  13.001 -0.4749  0.3907 -0.4330
   24ETHOX   C116588  19.773  16.344  13.081  0.4433  0.0998 -0.5554
   24ETHOX  H1116589  19.836  16.325  13.170 -0.2900 -1.7919 -0.3982
   24ETHOX  H1316590  19.818  16.430  13.027  0.2553  0.7790  0.3384
   24ETHOX   C216591  19.631  16.377  13.119  0.2267  0.7227  1.2314
   24ETHOX  H2116592  19.628  16.454  13.199 -2.7325  1.2830  0.6992
   24ETHOX  H2316593  19.594  16.277  13.150  1.5349 -0.0186  0.4699
   25ETHOX   O116594  19.562  16.433  13.003 -0.0141  0.7132 -0.0803
   25ETHOX   C116595  19.425  16.439  13.036 -0.3330  0.1510  0.0875
   25ETHOX  H1116596  19.411  16.517  13.113 -2.9701  0.5925 -0.7316
   25ETHOX  H1316597  19.384  16.342  13.072 -0.2448 -0.0823 -0.4278
   25ETHOX   C216598  19.343  16.486  12.911 -0.1396 -0.0654 -0.0255
   25ETHOX  H2116599  19.370  16.593  12.900  1.0141 -0.0646  2.2647
   25ETHOX  H2316600  19.236  16.481  12.939  0.0071  1.0722  0.7791
   26ETHOX   O116601  19.367  16.406  12.797  0.1111 -0.0095  1.0273
   26ETHOX   C116602  19.272  16.430  12.692  0.4526 -0.2348  0.0943
   26ETHOX  H1116603  19.164  16.423  12.716  0.2827  1.1933 -0.1713
   26ETHOX  H1316604  19.293  16.534  12.658  0.6979 -0.8607 -1.8042
   26ETHOX   C216605  19.304  16.343  12.568  0.5269  0.1770  0.3361
   26ETHOX  H2116606  19.413  16.334  12.548  0.4860 -2.8586  0.9781
   26ETHOX  H2316607  19.276  16.387  12.470  1.6222  0.7058  0.2549
   27ETHOX   O116608  19.253  16.208  12.579 -0.1338  0.3847  0.5265
   27ETHOX   C116609  19.110  16.205  12.549 -0.1361  0.1982  0.2941
   27ETHOX  H1116610  19.098  16.255  12.450  0.5939  0.7014  0.4468
   27ETHOX  H1316611  19.048  16.257  12.625  3.2112  0.7073  2.9094
   27ETHOX   C216612  19.062  16.059  12.536 -0.6207  0.0434 -0.0167
   27ETHOX  H2116613  19.085  16.010  12.633  1.7021  0.0298 -0.5067
   27ETHOX  H2316614  19.129  16.014  12.459  1.6545  0.5770  1.5437
   28ETHOX   O116615  18.924  16.033  12.500  0.5059  0.0794  0.0077
   28ETHOX   C116616  18.885  16.077  12.368  0.5375 -0.0331  0.1121
   28ETHOX  H1116617  18.841  16.178  12.381  0.0795 -0.0120 -1.4499
   28ETHOX  H1316618  18.976  16.101  12.308  0.3978  2.2447  0.7182
   28ETHOX   C216619  18.776  15.995  12.296  0.3315 -0.1872  0.6789
   28ETHOX  H2116620  18.728  16.059  12.218 -0.4384 -2.5132 -0.8982
   28ETHOX  H2316621  18.695  15.958  12.362 -0.6961 -1.9100 -1.4188
   29ETHOX   O116622  18.846  15.888  12.237 -0.2665 -0.4371 -0.5699
   29ETHOX   C116623  18.886  15.906  12.102 -0.1886 -0.2791 -0.2139
   29ETHOX  H1116624  18.940  16.003  12.099  0.6267 -0.6549  1.2140
   29ETHOX  H1316625  18.799  15.913  12.034 -1.1348  0.8124  1.0585
   29ETHOX   C216626  18.973  15.795  12.036 -0.9503  0.0785 -0.7054
   29ETHOX  H2116627  19.055  15.772  12.108 -0.8688  3.1622  0.3279
   29ETHOX  H2316628  19.019  15.834  11.943 -0.6135 -0.0465 -0.5908
   30ETHOX   O116629  18.900  15.670  12.015  0.9296  0.1193 -0.2808
   30ETHOX   C116630  18.973  15.569  11.952  0.0343  0.1706 -0.6374
   30ETHOX  H1116631  19.044  15.627  11.888  1.7350  1.2967  2.0819
   30ETHOX  H1316632  19.032  15.514  12.028  0.5836  1.8260  0.2076
   30ETHOX   C216633  18.872  15.484  11.889  0.4578  0.2092  0.1095
   30ETHOX  H2116634  18.922  15.406  11.827 -3.5421 -2.0165 -0.6703
   30ETHOX  H2316635  18.804  15.528  11.812 -2.1872 -2.7527  0.5174
   31ETHOX   O116636  18.793  15.415  11.988 -0.0234 -0.2028  0.2475
   31ETHOX   C116637  18.681  15.340  11.931  0.0666  0.3900 -0.6896
   31ETHOX  H1116638  18.621  15.414  11.874  1.8737 -0.3723 -3.8337
   31ETHOX  H1316639  18.738  15.282  11.856  1.5423 -0.7822  1.2305
   31ETHOX   C216640  18.597  15.260  12.033  0.1651  0.1463  0.1780
   31ETHOX  H2116641  18.660  15.190  12.092  0.2800  1.5274  1.7682
   31ETHOX  H2316642  18.519  15.204  11.976 -0.7718  1.4102  0.1744
   32ETHOX   O116643  18.529  15.353  12.127 -0.1562 -0.0203 -0.3811
   32ETHOX   C116644  18.443  15.277  12.215 -0.3506 -0.1341  0.1720
   32ETHOX  H1116645  18.389  15.196  12.162  0.5945 -0.9395  0.4236
   32ETHOX  H1316646  18.509  15.226  12.288 -1.4792 -1.2576  0.4330
   32ETHOX   C216647  18.337  15.371  12.291  0.6983  0.7668 -0.4000
   32ETHOX  H2116648  18.402  15.453  12.331  0.6723  0.3578  0.5141
   32ETHOX  H2316649  18.280  15.309  12.363  1.3348  0.8871  0.2213
   33ETHOX   O116650  18.248  15.420  12.201  0.5817  0.0469  0.0890
   33ETHOX   C116651  18.172  15.528  12.247  0.3845  0.4025 -0.4540
   33ETHOX  H1116652  18.146  15.515  12.354  0.2497 -3.5590 -0.8423
   33ETHOX  H1316653  18.234  15.619  12.229  1.0069 -0.3605 -2.3878
   33ETHOX   C216654  18.051  15.564  12.163  0.2723  0.3869 -0.1460
   33ETHOX  H2116655  17.971  15.492  12.191  0.7276 -0.0847 -0.0425
   33ETHOX  H2316656  18.072  15.541  12.056  1.7957  1.1081 -0.0403
   34ETHOX   O116657  18.015  15.698  12.177 -0.3273 -0.1049  0.0463
   34ETHOX   C116658  17.948  15.724  12.293 -0.8243  0.2264  1.1633
   34ETHOX  H1116659  18.010  15.703  12.383  1.0781 -0.2614 -0.1942
   34ETHOX  H1316660  17.866  15.648  12.294  0.6754 -1.4984  0.0766
   34ETHOX   C216661  17.886  15.858  12.299  0.4746 -0.3553 -0.2557
   34ETHOX  H2116662  17.783  15.861  12.341  0.8313 -0.8095  0.6708
   34ETHOX  H2316663  17.885  15.902  12.196  4.1733  0.4553 -0.0874
   35ETHOX   O116664  17.967  15.949  12.366  0.0118  0.5375  0.0345
   35ETHOX   C116665  17.956  15.942  12.507 -0.6297  0.2519 -0.4811
   35ETHOX  H1116666  17.956  15.835  12.538 -2.6340 -0.7712 -3.5506
   35ETHOX  H1316667  18.048  15.996  12.537  0.9489  0.2217 -4.6857
   35ETHOX   C216668  17.834  16.014  12.565  1.0145  0.1070  0.5580
   35ETHOX  H2116669  17.819  15.984  12.671 -1.2358  0.9075  0.5031
   35ETHOX  H2316670  17.737  15.995  12.514  1.2796  0.1203  0.0483
   36ETHOX   O116671  17.860  16.152  12.557  0.2426 -0.0393 -0.0510
   36ETHOX   C116672  17.749  16.227  12.591 -0.1094  0.1815  0.7077
   36ETHOX  H1116673  17.715  16.207  12.695  3.3244 -0.1980  1.8703
   36ETHOX  H1316674  17.671  16.208  12.514 -1.3217 -2.1553  2.3862
   36ETHOX   C216675  17.769  16.375  12.574  0.3610 -0.6638  0.0394
   36ETHOX  H2116676  17.680  16.435  12.603  0.2114 -1.2074  0.7444
   36ETHOX  H2316677  17.802  16.395  12.470  1.2883 -0.3839  0.3745
   37ETHOX   O116678  17.866  16.425  12.663  0.3191 -0.5032  0.3754
   37ETHOX   C116679  17.867  16.564  12.685 -0.3483  0.5247  0.0286
   37ETHOX  H1116680  17.822  16.610  12.594  0.3981 -0.2127 -0.7402
   37ETHOX  H1316681  17.797  16.582  12.769 -0.7014 -2.1337  0.3980
   37ETHOX   C216682  17.999  16.631  12.732  0.3065  0.6109  0.5389
   37ETHOX  H2116683  17.994  16.741  12.749  1.1906  0.5184  1.4842
   37ETHOX  H2316684  18.080  16.618  12.658  0.0206 -0.5788  0.4261
   38ETHOX   O116685  18.045  16.573  12.857 -0.4719 -0.3274  0.0750
   38ETHOX   C116686  18.133  16.660  12.928  0.2643 -0.3219 -1.1402
   38ETHOX  H1116687  18.198  16.713  12.856  2.1238  0.7992  1.2352
   38ETHOX  H1316688  18.195  16.594  12.992  1.7725 -0.6078 -2.8397
   38ETHOX   C216689  18.059  16.779  12.995  0.0820 -0.4378 -0.9439
   38ETHOX  H2116690  18.000  16.730  13.075  2.5899  1.0311  2.0468
   38ETHOX  H2316691  17.988  16.830  12.926 -0.1405  0.6617  0.0745
   39ETHOX   O116692  18.147  16.869  13.059  0.4030  0.0677 -0.2871
   39ETHOX   C116693  18.217  16.953  12.970 -0.5511  0.2782  0.4774
   39ETHOX  H1116694  18.287  16.890  12.912 -1.2359 -0.2177  0.1706
   39ETHOX  H1316695  18.139  17.007  12.911 -2.1521 -1.3089  1.0647
   39ETHOX   C216696  18.298  17.063  13.055  0.1131 -0.5321 -0.1977
   39ETHOX  H2116697  18.374  17.104  12.985  0.1994  0.3009  0.3712
   39ETHOX  H2316698  18.362  17.017  13.133  1.0567 -0.0068 -0.6409
   40ETHOX   O116699  18.215  17.167  13.104  0.7395 -0.2592 -0.0093
   40ETHOX   C116700  18.287  17.254  13.204 -0.4010  0.8588 -0.0203
   40ETHOX  H1116701  18.380  17.207  13.242 -2.0910 -0.3074  3.0178
   40ETHOX  H1316702  18.222  17.272  13.292 -0.3798  0.2071  0.1353
   40ETHOX   C216703  18.313  17.399  13.161  0.3412  0.4195 -0.4189
   40ETHOX  H2116704  18.378  17.389  13.072  0.1526  1.9409 -0.7493
   40ETHOX  H2316705  18.373  17.428  13.250 -1.5737 -2.0247  1.8602
   41ETHOX   O116706  18.203  17.482  13.143  0.2815 -0.1319  0.3362
   41ETHOX   C116707  18.162  17.479  13.008 -0.1257 -0.6952 -0.7689
   41ETHOX  H1116708  18.245  17.502  12.938  1.3768 -0.9362  0.8622
   41ETHOX  H1316709  18.126  17.374  12.995  1.7765 -1.0916 -3.4027
   41ETHOX   C216710  18.050  17.575  12.993 -0.7126 -0.8927  0.0523
   41ETHOX  H2116711  17.968  17.558  13.066 -1.3101  1.0251 -0.1084
   41ETHOX  H2316712  17.995  17.562  12.898 -0.0828  0.9152 -0.6149
   42ETHOX   O116713  18.097  17.710  13.014 -0.6013  1.1121 -0.4379
   42ETHOX   C116714  17.985  17.798  13.007 -1.1787  0.6999 -0.2915
   42ETHOX  H1116715  17.938  17.791  12.906  0.0226 -0.4390 -0.7983
   42ETHOX  H1316716  17.906  17.767  13.079  0.0351 -2.7409 -0.2270
   42ETHOX   C216717  18.023  17.942  13.038  0.1945  0.7568  0.1028
   42ETHOX  H2116718  17.921  17.986  13.041 -0.3860 -0.4751 -0.7107
   42ETHOX  H2316719  18.079  17.988  12.954  1.2739  1.8603  1.3948
   43ETHOX   O116720  18.086  17.939  13.163 -0.1023 -0.2070 -0.2716
   43ETHOX   C116721  18.142  18.066  13.196  0.7441 -0.4392 -0.2546
   43ETHOX  H1116722  18.251  18.049  13.208  0.7076 -0.1520  0.5250
   43ETHOX  H1316723  18.131  18.134  13.109 -0.0944 -2.0742 -1.4909
   43ETHOX   C216724  18.072  18.131  13.310 -0.2047 -0.5651  0.1750
   43ETHOX  H2116725  17.967  18.113  13.281 -0.9570  0.9445  1.7546
   43ETHOX  H2316726  18.090  18.241  13.305  3.4010 -1.0160  0.1342
   44ETHOX   O116727  18.106  18.090  13.443  0.4037  0.5654 -0.1159
   44ETHOX   C116728  18.213  18.158  13.499 -0.6397 -0.6409  0.5142
   44ETHOX  H1116729  18.291  18.157  13.421  1.0425  2.1974  1.9583
   44ETHOX  H1316730  18.185  18.264  13.518 -2.2519 -1.3921  2.7519
   44ETHOX   C216731  18.276  18.103  13.627 -0.1727  0.6878  0.5549
   44ETHOX  H2116732  18.380  18.139  13.639  0.7486 -1.7239  0.2920
   44ETHOX  H2316733  18.278  17.992  13.629 -0.8741  0.6652  0.1749
   45ETHOX   O116734  18.199  18.155  13.741  0.6666 -0.4205 -0.1688
   45ETHOX   C116735  18.229  18.080  13.863  0.0712 -0.0508  0.4115
   45ETHOX  H1116736  18.209  18.152  13.946 -1.8627  4.0742 -3.2290
   45ETHOX  H1316737  18.339  18.068  13.857 -0.0146 -1.8986  1.5947
   45ETHOX   C216738  18.157  17.945  13.877 -0.7600 -0.0208  0.0365
   45ETHOX  H2116739  18.202  17.898  13.967  0.5777  0.2491 -0.4665
   45ETHOX  H2316740  18.185  17.867  13.803 -1.5507 -1.5512  1.3028
   46ETHOX   O116741  18.015  17.954  13.906 -0.4470 -0.6986 -0.2113
   46ETHOX   C116742  17.963  17.831  13.944  1.0055  0.5334 -0.3027
   46ETHOX  H1116743  17.946  17.761  13.859  0.9461 -1.0493  0.9737
   46ETHOX  H1316744  18.011  17.767  14.020  0.0920  0.6661  0.3994
   46ETHOX   C216745  17.826  17.870  14.004  0.2822 -0.0322 -0.0492
   46ETHOX  H2116746  17.760  17.783  13.985 -1.3805  1.5722 -2.1616
   46ETHOX  H2316747  17.779  17.952  13.946  1.8222  0.5547 -0.5359
   47ETHOX   O116748  17.830  17.899  14.143  0.4844  0.1405 -0.1596
   47ETHOX   C116749  17.712  17.971  14.183  0.9745  0.8489 -0.5570
   47ETHOX  H1116750  17.622  17.924  14.138  1.8807 -0.0477 -1.4690
   47ETHOX  H1316751  17.719  18.079  14.158  1.3247  0.8920 -0.2715
   47ETHOX   C216752  17.682  17.950  14.332  1.1325  0.4002 -0.5194
   47ETHOX  H2116753  17.693  17.842  14.357 -4.0557  0.2092  2.1734
   47ETHOX  H2316754  17.577  17.973  14.360  1.1389  2.4361 -1.9598
   48ETHOX   O116755  17.765  18.026  14.421  0.3842  0.3770  0.1137
   48ETHOX   C116756  17.696  18.132  14.478  0.1886 -0.5845 -0.1128
   48ETHOX  H1116757  17.653  18.196  14.399 -1.2450 -0.3907  0.8022
   48ETHOX  H1316758  17.610  18.096  14.537  0.0574 -0.2789 -0.1217
   48ETHOX   C216759  17.780  18.221  14.560 -0.2783 -0.7297 -0.2323
   48ETHOX  H2116760  17.787  18.180  14.662 -1.0992 -0.2072  0.0427
   48ETHOX  H2316761  17.881  18.225  14.513  0.1116 -0.4025  0.6279
   49ETHOX   O116762  17.731  18.355  14.563 -0.3313  0.0723  0.1682
   49ETHOX   C116763  17.800  18.438  14.656 -1.1902  0.1264 -0.0810
   49ETHOX  H1116764  17.908  18.435  14.628 -0.7909  2.2795  0.9844
   49ETHOX  H1316765  17.791  18.400  14.760 -1.3213 -0.1723 -0.1999
   49ETHOX   C216766  17.757  18.584  14.657 -0.6956  0.0321  0.2712
   49ETHOX  H2116767  17.751  18.610  14.549  1.1032  0.6446  0.2889
   49ETHOX  H2316768  17.838  18.646  14.702 -1.6831  1.4319  0.1960
   50ETHOX   O116769  17.635  18.598  14.722  0.4017  0.0503 -0.0045
   50ETHOX   C116770  17.553  18.708  14.679 -0.6640  0.2088  0.2655
   50ETHOX  H1116771  17.623  18.793  14.691  0.1431 -0.4199  0.1315
   50ETHOX  H1316772  17.522  18.697  14.572  0.7659  2.5969 -0.4616
   50ETHOX   C216773  17.424  18.718  14.750  0.3564  0.1621  0.2414
   50ETHOX  H2116774  17.365  18.804  14.712 -0.0326 -0.1990  0.0021
   50ETHOX  H2316775  17.445  18.729  14.859  0.0205  0.5408  0.2713
   51ETHOX   O116776  17.337  18.607  14.736  0.0445  0.1803 -0.3409
   51ETHOX   C116777  17.207  18.644  14.788 -0.5215  0.3569  0.2560
   51ETHOX  H1116778  17.151  18.719  14.728 -1.6925  1.9017  3.0274
   51ETHOX  H1316779  17.218  18.676  14.894  1.1291  0.3701  0.0995
   51ETHOX   C216780  17.106  18.522  14.788  0.2200 -0.1424  1.2196
   51ETHOX  H2116781  17.104  18.485  14.683 -1.7768  1.1995  0.7226
   51ETHOX  H2316782  16.999  18.547  14.804  0.3716 -0.4300  2.8445
   52ETHOX   O116783  17.147  18.417  14.878  0.3863 -0.3588 -0.3672
   52ETHOX   C116784  17.097  18.291  14.846 -0.3673 -0.4771  0.1189
   52ETHOX  H1116785  17.085  18.284  14.736 -2.7115 -0.1577  0.3115
   52ETHOX  H1316786  17.181  18.227  14.880 -1.5725 -0.8203  2.6254
   52ETHOX   C216787  16.971  18.252  14.922  0.1441  0.2679 -0.0449
   52ETHOX  H2116788  16.897  18.334  14.906 -1.0651 -0.9838 -1.1435
   52ETHOX  H2316789  17.001  18.253  15.029 -0.6074  0.9726  0.1714
   53ETHOX   O116790  16.917  18.128  14.876  0.5795 -0.3808 -0.2895
   53ETHOX   C116791  16.782  18.102  14.920  0.0785 -0.3202 -0.5047
   53ETHOX  H1116792  16.740  18.189  14.976 -0.3432  0.4292 -1.9380
   53ETHOX  H1316793  16.714  18.084  14.834 -0.4670  2.8934 -0.8955
   53ETHOX   C216794  16.784  17.978  15.019  0.5613 -0.5708  0.5110
   53ETHOX  H2116795  16.689  17.982  15.078 -0.3248  0.4674 -0.9174
   53ETHOX  H2316796  16.870  17.999  15.086  2.4344 -2.0236 -1.3179
   54ETHOX   O116797  16.804  17.856  14.950 -0.0534 -0.5915 -0.0850
   54ETHOX   C116798  16.801  17.751  15.043 -0.1774  0.1470  0.2384
   54ETHOX  H1116799  16.898  17.736  15.095 -0.6435  0.8376  1.3548
   54ETHOX  H1316800  16.734  17.784  15.126 -2.0238 -2.9084  0.1413
   54ETHOX   C216801  16.728  17.620  14.998  0.3142  0.6839  0.1724
   54ETHOX  H2116802  16.636  17.642  14.940  0.9671 -0.1956 -1.2523
   54ETHOX  H2316803  16.709  17.559  15.089  0.5004 -1.5554 -1.2208
   55ETHOX   O116804  16.812  17.545  14.909  0.7605  0.2730 -0.3803
   55ETHOX   C116805  16.746  17.423  14.874  0.2653  0.3336 -0.3497
   55ETHOX  H1116806  16.635  17.434  14.872  0.2551  0.3187 -2.5905
   55ETHOX  H1316807  16.773  17.393  14.771  0.6507 -2.0529  0.3841
   55ETHOX   C216808  16.798  17.300  14.961 -0.2079  0.2979  0.1542
   55ETHOX  H2116809  16.799  17.330  15.067  0.1028 -0.8079  0.4848
   55ETHOX  H2316810  16.731  17.212  14.949  2.8840 -2.5229  1.9737
   56ETHOX   O116811  16.935  17.257  14.919  0.8758 -0.2583 -0.1900
   56ETHOX   C116812  16.961  17.123  14.937 -0.1215  0.9575  0.3154
   56ETHOX  H1116813  16.893  17.074  15.009  0.7486  0.8321  1.0728
   56ETHOX  H1316814  17.052  17.124  15.000 -1.1149 -2.9751  2.1364
   56ETHOX   C216815  16.987  17.029  14.816  0.1787 -0.3293  0.2138
   56ETHOX  H2116816  16.900  17.019  14.747  1.0961 -1.7191 -0.7917
   56ETHOX  H2316817  16.996  16.928  14.860 -1.1074 -1.2701 -1.5499
   57ETHOX   O116818  17.109  17.067  14.751 -0.6226  0.3362  0.0646
   57ETHOX   C116819  17.151  16.968  14.660 -0.0621 -0.6091  0.0323
   57ETHOX  H1116820  17.173  16.867  14.701  3.6174  0.2262  0.4488
   57ETHOX  H1316821  17.076  16.966  14.578 -1.4511 -0.1286  1.2463
   57ETHOX   C216822  17.290  16.986  14.582  0.0206 -0.1503 -0.0516
   57ETHOX  H2116823  17.311  17.094  14.572 -1.5752  0.1943  0.1022
   57ETHOX  H2316824  17.279  16.942  14.480 -0.4059  1.9584 -0.9613
   58ETHOX   O116825  17.403  16.938  14.654 -0.3059  0.5612 -0.3343
   58ETHOX   C116826  17.524  16.984  14.597  0.2697  0.5313  0.7246
   58ETHOX  H1116827  17.521  17.094  14.609 -2.8502  0.4800  1.4533
   58ETHOX  H1316828  17.519  16.963  14.488 -0.7234  0.8216  0.6982
   58ETHOX   C216829  17.648  16.921  14.654  0.4945  0.1920 -0.4097
   58ETHOX  H2116830  17.634  16.906  14.763  2.8786 -2.7367 -0.3910
   58ETHOX  H2316831  17.741  16.976  14.631  0.7506  0.6643  1.5663
   59ETHOX   O116832  17.658  16.786  14.605 -0.2533  0.2431  0.4012
   59ETHOX   C116833  17.773  16.717  14.645  0.6846 -0.0400  0.8658
   59ETHOX  H1116834  17.866  16.777  14.629  1.3448 -1.0391  0.8927
   59ETHOX  H1316835  17.754  16.702  14.753 -1.1003  0.5254  0.6655
   59ETHOX   C216836  17.781  16.578  14.581 -0.2188  0.3602  0.1164
   59ETHOX  H2116837  17.686  16.522  14.589 -0.0806 -0.5885 -3.2401
   59ETHOX  H2316838  17.859  16.533  14.646 -1.7621 -1.0719  1.0515
   60ETHOX   O116839  17.825  16.587  14.443 -0.0256 -0.6604 -0.6600
   60ETHOX   C116840  17.838  16.460  14.387 -0.0116 -0.5253  0.2203
   60ETHOX  H1116841  17.739  16.413  14.402 -1.3515  2.0453 -0.0513
   60ETHOX  H1316842  17.900  16.393  14.452 -0.0917  0.6668  1.5815
   60ETHOX   C216843  17.881  16.479  14.239 -0.2681 -0.6726 -0.5877
   60ETHOX  H2116844  17.922  16.382  14.205  1.0481 -1.5192  2.9718
   60ETHOX  H2316845  17.965  16.551  14.230 -0.7757  0.0783  0.3918
   61ETHOX   O116846  17.777  16.523  14.158  0.3047 -0.2303  0.1544
   61ETHOX   C116847  17.815  16.599  14.043  0.0429 -0.7641 -0.2828
   61ETHOX  H1116848  17.878  16.685  14.076  1.0693 -1.2810 -0.8345
   61ETHOX  H1316849  17.867  16.533  13.970 -0.7778 -0.7201 -0.9180
   61ETHOX   C216850  17.689  16.634  13.966  0.3521 -0.3507  0.0959
   61ETHOX  H2116851  17.605  16.581  14.015 -0.9981  3.2813  2.0572
   61ETHOX  H2316852  17.696  16.606  13.859  1.5133  2.0748 -0.5107
   62ETHOX   O116853  17.664  16.773  13.970 -0.1179  0.2048  0.0071
   62ETHOX   C116854  17.526  16.792  13.938  0.1553 -0.0416  0.3658
   62ETHOX  H1116855  17.459  16.730  14.001  1.0890  0.7882  2.2674
   62ETHOX  H1316856  17.504  16.768  13.832 -1.6853  0.6387  0.5614
   62ETHOX   C216857  17.470  16.929  13.989 -0.2610  0.9551 -0.0497
   62ETHOX  H2116858  17.520  16.941  14.088 -1.7342  0.6609  0.7598
   62ETHOX  H2316859  17.359  16.920  13.985 -0.4059  1.4551  1.8834
   63ETHOX   O116860  17.506  17.044  13.906 -0.2745  0.5510 -0.5253
   63ETHOX   C116861  17.449  17.165  13.965  0.5308  0.7486 -0.2585
   63ETHOX  H1116862  17.351  17.138  14.009  0.9633  0.2930  0.4415
   63ETHOX  H1316863  17.513  17.178  14.055  0.3591 -1.6167  0.2635
   63ETHOX   C216864  17.438  17.285  13.879 -0.5651  0.3019 -0.7113
   63ETHOX  H2116865  17.382  17.264  13.785  0.6535  0.9767 -1.6204
   63ETHOX  H2316866  17.540  17.317  13.850 -1.1602  1.6948 -1.3150
   64ETHOX   O116867  17.379  17.388  13.961  0.0907  0.7818 -0.4287
   64ETHOX   C116868  17.370  17.511  13.897  0.1072  0.2428  0.1097
   64ETHOX  H1116869  17.336  17.497  13.792 -2.1563 -1.7460  1.0088
   64ETHOX  H1316870  17.472  17.553  13.906  0.3700  0.1272 -2.0034
   64ETHOX   C216871  17.274  17.592  13.975  0.2647 -0.7507  0.2474
   64ETHOX  H2116872  17.172  17.548  13.978  1.2423 -3.1032  1.1204
   64ETHOX  H2316873  17.278  17.696  13.936  0.7426 -0.9755 -0.3254
   65ETHOX   O116874  17.326  17.604  14.114  0.1863 -0.0210 -0.0003
   65ETHOX   C116875  17.221  17.597  14.208  0.3639  0.3488 -1.4016
   65ETHOX  H1116876  17.163  17.503  14.200 -1.5583  1.2519  0.6590
   65ETHOX  H1316877  17.273  17.595  14.307 -2.0048 -0.0356 -0.0874
   65ETHOX   C216878  17.127  17.720  14.226 -0.6068 -0.0984  0.0537
   65ETHOX  H2116879  17.199  17.802  14.243  0.8316 -1.0231 -1.2457
   65ETHOX  H2316880  17.066  17.708  14.318 -0.1532  3.0738  0.8606
   66ETHOX   O116881  17.049  17.741  14.108 -0.3315 -0.9234 -0.2612
   66ETHOX   C116882  16.909  17.772  14.131  0.7239 -0.4619  0.3310
   66ETHOX  H1116883  16.867  17.693  14.197 -0.4067 -1.1127 -1.0988
   66ETHOX  H1316884  16.846  17.766  14.040  0.2197  0.3840  0.6041
   66ETHOX   C216885  16.888  17.905  14.204 -0.3026 -0.4204 -0.2456
   66ETHOX  H2116886  16.953  17.919  14.293  0.2468 -0.8357 -0.5763
   66ETHOX  H2316887  16.782  17.917  14.234 -0.5061  0.4163 -1.2303
   67ETHOX   O116888  16.925  18.008  14.108 -0.2487 -0.0140 -0.2121
   67ETHOX   C116889  16.898  18.134  14.169  0.2755 -0.2185  0.4537
   67ETHOX  H1116890  16.884  18.127  14.279  0.1494  2.0581  0.6328
   67ETHOX  H1316891  16.990  18.194  14.156  1.7419 -2.0397  1.8210
   67ETHOX   C216892  16.785  18.204  14.102 -0.7567  0.2600  0.1964
   67ETHOX  H2116893  16.767  18.303  14.148 -1.6957 -0.6064  1.7872
   67ETHOX  H2316894  16.694  18.142  14.115  0.8306 -2.0332  1.1680
   68ETHOX   O116895  16.812  18.222  13.965  0.1923 -0.0697 -0.2184
   68ETHOX   C116896  16.716  18.305  13.916  0.8210  0.0519  0.0926
   68ETHOX  H1116897  16.616  18.270  13.950  0.9286 -0.8895 -0.5008
   68ETHOX  H1316898  16.723  18.411  13.949 -2.9261  0.9572 -1.4431
   68ETHOX   C216899  16.737  18.293  13.768  0.2170  0.2450 -0.4919
   68ETHOX  H2116900  16.838  18.334  13.745  1.4819 -0.3606  3.3337
   68ETHOX  H2316901  16.658  18.360  13.727  0.2874 -0.0329 -1.0843
   69ETHOX   O116902  16.704  18.157  13.726 -0.3785  0.2939  0.3450
   69ETHOX   C116903  16.728  18.142  13.584  0.3698 -0.1395 -0.0373
   69ETHOX  H1116904  16.811  18.209  13.554  0.5948  0.3986  1.6772
   69ETHOX  H1316905  16.760  18.038  13.563  0.8021  0.1218 -0.7048
   69ETHOX   C216906  16.601  18.181  13.510 -0.2148 -0.7975  0.7726
   69ETHOX  H2116907  16.518  18.124  13.559 -0.0610 -2.0160 -0.3358
   69ETHOX  H2316908  16.611  18.148  13.405  0.3456  1.5177  0.0543
   70ETHOX   O116909  16.558  18.319  13.507  0.2936  0.1256  0.2244
   70ETHOX   C116910  16.421  18.332  13.478  0.3500  0.3922  1.0218
   70ETHOX  H1116911  16.406  18.296  13.374  0.7790 -0.9944  1.4289
   70ETHOX  H1316912  16.360  18.261  13.538  2.0889 -1.2854  0.8734
   70ETHOX   C216913  16.374  18.479  13.483 -0.3105 -1.2847  0.2642
   70ETHOX  H2116914  16.421  18.517  13.576 -1.1520  0.6069 -0.0318
   70ETHOX  H2316915  16.263  18.481  13.493 -0.1403  1.8993  4.4014
   71ETHOX   O116916  16.411  18.542  13.366 -0.2837 -0.1431 -0.0117
   71ETHOX   C116917  16.454  18.680  13.377  0.6663  0.2909 -0.2198
   71ETHOX  H1116918  16.495  18.716  13.280 -0.9770  0.5008 -0.8709
   71ETHOX  H1316919  16.520  18.685  13.466  1.0282 -2.1782 -0.2797
   71ETHOX   C216920  16.333  18.776  13.395  0.2908  0.2512 -0.2505
   71ETHOX  H2116921  16.268  18.758  13.306  0.3047 -0.4581 -0.1242
   71ETHOX  H2316922  16.353  18.883  13.412 -3.2569  0.8119  1.2366
   72ETHOX   O116923  16.238  18.730  13.488 -0.1925  0.3887 -0.2443
   72ETHOX   C116924  16.114  18.793  13.459 -0.8002  0.0519 -0.2298
   72ETHOX  H1116925  16.134  18.899  13.430  0.9239 -0.4529 -1.0507
   72ETHOX  H1316926  16.068  18.745  13.370  1.2889 -1.2664 -0.6712
   72ETHOX   C216927  16.030  18.800  13.586 -1.0453 -0.1344  0.5514
   72ETHOX  H2116928  15.985  18.700  13.597  0.1672 -0.8573 -0.6587
   72ETHOX  H2316929  15.953  18.873  13.554 -2.7439 -1.1961  2.0922
   73ETHOX   O116930  16.102  18.842  13.698 -0.2370  0.1764 -0.4639
   73ETHOX   C116931  16.015  18.888  13.800  0.0574 -1.1430 -0.2459
   73ETHOX  H1116932  15.939  18.955  13.756 -1.3667 -1.1445  2.0314
   73ETHOX  H1316933  16.078  18.948  13.869 -0.1456  0.4397 -1.3872
   73ETHOX   C216934  15.917  18.783  13.867  0.6379  0.2911 -0.4688
   73ETHOX  H2116935  15.855  18.842  13.937 -0.3246  0.5774 -1.5373
   73ETHOX  H2316936  15.971  18.701  13.920 -2.0569 -1.3511 -0.0830
   74ETHOX   O116937  15.804  18.741  13.775 -0.1776  0.3190 -0.1013
   74ETHOX   C116938  15.708  18.664  13.844 -0.5316 -0.0553  0.0731
   74ETHOX  H1116939  15.753  18.562  13.853 -2.1950 -0.9016 -0.6809
   74ETHOX  H1316940  15.694  18.709  13.944  2.4600  0.1912  0.4759
   74ETHOX   C216941  15.572  18.646  13.774  0.0641 -0.5092  0.0936
   74ETHOX  H2116942  15.551  18.755  13.766  1.3592 -0.2987 -0.7147
   74ETHOX  H2316943  15.498  18.600  13.843 -1.5297  1.3943 -0.2780
   75ETHOX   O116944  15.592  18.571  13.656  0.2941  0.0507 -1.5449
   75ETHOX   C116945  15.546  18.643  13.550  0.3309  0.2792 -0.2342
   75ETHOX  H1116946  15.621  18.721  13.525 -1.9097  2.0559 -1.8103
   75ETHOX  H1316947  15.448  18.693  13.566  0.9881  1.7273 -0.5312
   75ETHOX   C216948  15.546  18.535  13.445 -0.2479 -0.2603 -0.0458
   75ETHOX  H2116949  15.642  18.479  13.439  0.5653  1.1019 -0.1233
   75ETHOX  H2316950  15.534  18.575  13.343  1.9599 -1.2879 -0.7748
   76ETHOX   O116951  15.443  18.448  13.469  0.0761 -0.1327 -0.0323
   76ETHOX   C116952  15.431  18.352  13.364  0.0587 -0.1321  0.0829
   76ETHOX  H1116953  15.400  18.411  13.275 -0.7637 -1.1411 -0.3226
   76ETHOX  H1316954  15.528  18.302  13.344 -0.6790 -0.3641 -3.6056
   76ETHOX   C216955  15.322  18.259  13.417 -0.1128  0.0120 -0.1971
   76ETHOX  H2116956  15.341  18.239  13.524 -1.9935  0.0616  0.1805
   76ETHOX  H2316957  15.327  18.163  13.361  2.3126  1.8376 -3.5290
   77ETHOX   O116958  15.192  18.318  13.405 -0.4194 -0.1775  0.3780
   77ETHOX   C116959  15.105  18.257  13.495  0.4308  0.7846  0.3409
   77ETHOX  H1116960  15.132  18.279  13.600  0.2709  0.0032  0.5510
   77ETHOX  H1316961  15.118  18.147  13.484  0.2912  0.6945  1.0385
   77ETHOX   C216962  14.966  18.318  13.475  0.1981  0.2650  0.3583
   77ETHOX  H2116963  14.892  18.252  13.524 -1.7275  3.5465  2.1973
   77ETHOX  H2316964  14.941  18.321  13.366  0.2415  1.1824  0.3613
   78ETHOX   O116965  14.964  18.451  13.522  0.0641  0.1804  0.1867
   78ETHOX   C116966  14.840  18.523  13.489 -0.1387 -0.4765  0.0485
   78ETHOX  H1116967  14.856  18.555  13.383 -1.4564  1.0587  0.2749
   78ETHOX  H1316968  14.751  18.458  13.501 -1.1874  0.9662  0.3102
   78ETHOX   C216969  14.823  18.641  13.585  0.0983 -0.2030 -0.0482
   78ETHOX  H2116970  14.751  18.715  13.543  0.2878  0.2734  0.4550
   78ETHOX  H2316971  14.916  18.700  13.600  1.6496 -2.1921 -1.3566
   79ETHOX   O116972  14.764  18.578  13.700 -0.3452 -0.2679  0.1473
   79ETHOX   C116973  14.700  18.662  13.799 -0.0251 -0.5010  0.2253
   79ETHOX  H1116974  14.778  18.730  13.839  0.5473  0.0562 -1.7326
   79ETHOX  H1316975  14.620  18.716  13.744  0.9278 -0.1969 -0.9151
   79ETHOX   C216976  14.621  18.596  13.915  0.0519  0.2749  0.5421
   79ETHOX  H2116977  14.608  18.679  13.988  0.1955  0.9647 -0.2008
   79ETHOX  H2316978  14.678  18.513  13.962 -0.1379 -1.4579 -2.0781
   80ETHOX   O116979  14.502  18.545  13.866  0.2756 -0.1004  0.0187
   80ETHOX   C116980  14.435  18.465  13.960  0.2277  1.1135  0.1053
   80ETHOX  H1116981  14.491  18.427  14.048  0.3979 -0.6215 -0.7017
   80ETHOX  H1316982  14.344  18.514  14.003 -0.5706  1.3570 -1.7442
   80ETHOX   C216983  14.386  18.333  13.883  0.5343 -0.0451  0.4405
   80ETHOX  H2116984  14.326  18.364  13.795  1.0635  1.3938  0.5513
   80ETHOX  H2316985  14.307  18.274  13.933  0.8172 -1.2506 -0.4996
   81ETHOX   O116986  14.487  18.243  13.848  0.5097  0.0083  0.2342
   81ETHOX   C116987  14.437  18.139  13.757 -0.5246  0.8015  0.3420
   81ETHOX  H1116988  14.345  18.092  13.798  0.5726 -1.7015  0.1459
   81ETHOX  H1316989  14.418  18.194  13.662  1.0855  1.3996  0.3364
   81ETHOX   C216990  14.552  18.037  13.735 -0.0221 -0.5403  1.1612
   81ETHOX  H2116991  14.517  17.975  13.649 -0.5218  0.8898  0.2923
   81ETHOX  H2316992  14.646  18.085  13.698 -0.5632 -0.2606  0.0990
   82ETHOX   O116993  14.573  17.949  13.848 -0.7531 -0.3799  0.0561
   82ETHOX   C116994  14.460  17.856  13.877  0.3689  0.2994  0.1088
   82ETHOX  H1116995  14.433  17.806  13.781  1.9810  0.2915 -0.3735
   82ETHOX  H1316996  14.366  17.910  13.902 -0.7669 -1.7002  0.3560
   82ETHOX   C216997  14.492  17.749  13.981 -0.4153  0.1892  0.5465
   82ETHOX  H2116998  14.584  17.692  13.957  0.0455  1.1716 -0.0957
   82ETHOX  H2316999  14.408  17.678  13.968  0.6843 -0.7513 -2.2054
   83ETHOX   O117000  14.503  17.812  14.106  0.5355  0.2739  0.4329
   83ETHOX   C117001  14.523  17.726  14.212  0.9119 -0.0314 -0.3432
   83ETHOX  H1117002  14.463  17.633  14.203  0.8834 -0.2148  1.4359
   83ETHOX  H1317003  14.630  17.698  14.221  1.3730  1.4525 -0.8341
   83ETHOX   C217004  14.486  17.793  14.350  0.0182  0.1590 -0.2178
   83ETHOX  H2117005  14.519  17.899  14.344  0.3510  0.2502  2.0424
   83ETHOX  H2317006  14.551  17.748  14.428  1.1838 -0.1626 -1.3536
   84ETHOX   O117007  14.343  17.781  14.383 -0.4998 -0.0434 -0.2908
   84ETHOX   C117008  14.262  17.870  14.303 -0.3859  1.1059 -0.0707
   84ETHOX  H1117009  14.241  17.803  14.217  0.3107 -0.2898  0.8134
   84ETHOX  H1317010  14.313  17.957  14.257  1.7353 -0.0065  0.0673
   84ETHOX   C217011  14.136  17.912  14.376 -0.1039 -0.7006  1.1369
   84ETHOX  H2117012  14.081  17.817  14.391 -0.9920 -0.2380  0.8779
   84ETHOX  H2317013  14.071  17.973  14.311  1.0322  0.3666  0.9594
   85ETHOX   O117014  14.149  17.977  14.503 -0.3265 -0.4009 -0.1098
   85ETHOX   C117015  14.023  18.013  14.552  0.3493 -0.4990  0.1191
   85ETHOX  H1117016  13.990  18.096  14.486  0.4615 -1.1763 -0.8124
   85ETHOX  H1317017  13.944  17.934  14.555  1.1928 -1.3892 -0.3461
   85ETHOX   C217018  14.040  18.063  14.692 -0.3818  0.0028  0.0085
   85ETHOX  H2117019  13.940  18.104  14.716 -0.3315  1.1162 -1.5781
   85ETHOX  H2317020  14.128  18.131  14.697  1.0576 -1.6182 -1.4660
   86ETHOX   O117021  14.071  17.956  14.788  0.4645  0.0697 -0.1204
   86ETHOX   C117022  14.155  17.993  14.900  0.3606  0.5412  0.2780
   86ETHOX  H1117023  14.123  18.092  14.938 -3.0204 -0.0566 -0.6941
   86ETHOX  H1317024  14.262  17.996  14.868 -0.4445  3.7036 -2.7780
   86ETHOX   C217025  14.151  17.890  15.016 -0.1419 -0.4890  0.4162
   86ETHOX  H2117026  14.223  17.918  15.096  1.4569  0.1617 -1.1882
   86ETHOX  H2317027  14.172  17.784  14.989 -1.1671 -0.5302 -0.2537
   87ETHOX   O117028  14.027  17.891  15.083 -0.1390 -0.3363  0.3762
   87ETHOX   C117029  14.030  17.839  15.220  0.4276 -0.1541  0.3883
   87ETHOX  H1117030  14.083  17.912  15.284 -0.1902  1.6681 -1.0905
   87ETHOX  H1317031  13.928  17.831  15.264 -0.9604  0.0155 -2.5796
   87ETHOX   C217032  14.075  17.693  15.226 -0.6389 -0.2857 -0.1500
   87ETHOX  H2117033  14.022  17.647  15.140 -1.1739  1.2022 -0.6474
   87ETHOX  H2317034  14.049  17.654  15.327  0.7220  0.2345  0.4302
   88ETHOX   O117035  14.212  17.673  15.203  0.2417 -0.4231  0.5071
   88ETHOX   C117036  14.227  17.529  15.205 -0.4862 -0.8106  0.1640
   88ETHOX  H1117037  14.179  17.478  15.119  0.1935  0.4491 -1.0187
   88ETHOX  H1317038  14.179  17.489  15.297 -0.7654 -0.2317  0.2729
   88ETHOX   C217039  14.384  17.501  15.212 -0.3543 -0.0782 -0.1402
   88ETHOX  H2117040  14.389  17.391  15.228  0.9970 -0.2917 -1.7824
   88ETHOX  H2317041  14.426  17.554  15.300 -0.6089  5.0988 -2.7641
   89ETHOX   O117042  14.465  17.517  15.090  0.6061  0.2126 -0.0536
   89ETHOX   C117043  14.472  17.656  15.061 -0.5413 -0.5617  0.3279
   89ETHOX  H1117044  14.382  17.692  15.007  0.4168  2.3955  0.4944
   89ETHOX  H1317045  14.490  17.711  15.156  1.4594  0.5341 -0.5991
   89ETHOX   C217046  14.582  17.679  14.962  0.3776  0.1221 -0.0577
   89ETHOX  H2117047  14.670  17.612  14.975 -1.2025 -1.8052  1.3079
   89ETHOX  H2317048  14.624  17.781  14.977  1.0233 -0.1422 -0.0138
   90ETHOX   O117049  14.557  17.673  14.831 -0.2763  0.0870  0.6465
   90ETHOX   C117050  14.510  17.545  14.786 -0.4109 -0.3206  0.2536
   90ETHOX  H1117051  14.569  17.463  14.832 -1.7381 -1.3711  0.1583
   90ETHOX  H1317052  14.402  17.533  14.808 -0.6962 -2.1700 -1.8075
   90ETHOX   C217053  14.538  17.519  14.638 -0.6144  0.4054 -0.0858
   90ETHOX  H2117054  14.502  17.604  14.577 -1.5225  0.4971  0.5616
   90ETHOX  H2317055  14.484  17.427  14.605  1.0596 -0.5613 -0.2812
   91ETHOX   O117056  14.680  17.504  14.611  0.2810  0.3716 -0.0853
   91ETHOX   C117057  14.706  17.385  14.530  0.2794 -0.2994  0.4911
   91ETHOX  H1117058  14.815  17.366  14.542  0.6092  0.9400 -0.3776
   91ETHOX  H1317059  14.648  17.294  14.555 -1.6365  0.7359 -0.0506
   91ETHOX   C217060  14.687  17.404  14.380 -0.0996 -0.0669  0.8766
   91ETHOX  H2117061  14.590  17.450  14.353  1.4832  2.0214 -1.8833
   91ETHOX  H2317062  14.696  17.298  14.345  2.2261  0.5003 -0.4871
   92ETHOX   O117063  14.786  17.490  14.325 -0.2059 -0.1689  0.0425
   92ETHOX   C117064  14.817  17.470  14.187 -0.1200 -0.1545  0.2950
   92ETHOX  H1117065  14.846  17.364  14.168 -1.4893 -0.4830 -0.0256
   92ETHOX  H1317066  14.723  17.501  14.137 -1.2303 -1.1194  1.6802
   92ETHOX   C217067  14.933  17.557  14.142 -0.1402 -0.5414 -0.0062
   92ETHOX  H2117068  14.892  17.659  14.151 -1.4862 -1.1490  1.0188
   92ETHOX  H2317069  14.961  17.544  14.036  0.6995 -0.2930  0.1684
   93ETHOX   O117070  15.047  17.541  14.220 -0.0915  0.1069 -0.1670
   93ETHOX   C117071  15.164  17.567  14.152 -0.0782 -0.1426  0.4211
   93ETHOX  H1117072  15.179  17.677  14.151 -1.7182  0.1110 -1.5169
   93ETHOX  H1317073  15.171  17.522  14.051  1.5538 -1.3228  1.0204
   93ETHOX   C217074  15.273  17.505  14.238 -0.0863 -0.2306  0.0723
   93ETHOX  H2117075  15.264  17.540  14.343  2.3160  1.2366 -0.1242
   93ETHOX  H2317076  15.375  17.538  14.206  1.0077  0.5276  3.8456
   94ETHOX   O117077  15.269  17.366  14.238 -0.0406 -0.5124  0.4387
   94ETHOX   C117078  15.378  17.311  14.313  0.2848  0.1720  0.5088
   94ETHOX  H1117079  15.466  17.355  14.261  0.5355 -2.0874 -1.1362
   94ETHOX  H1317080  15.379  17.350  14.417 -1.8299 -2.0307  1.4689
   94ETHOX   C217081  15.377  17.162  14.320  0.0358  0.2093  0.4258
   94ETHOX  H2117082  15.287  17.111  14.359  0.7976 -1.0357  0.6232
   94ETHOX  H2317083  15.455  17.131  14.393  2.0613  0.7587 -1.3941
   95ETHOX   O117084  15.397  17.113  14.183  0.6470 -0.6155 -0.0194
   95ETHOX   C117085  15.455  16.991  14.185 -0.0898  0.4006  0.6534
   95ETHOX  H1117086  15.382  16.924  14.236 -0.1734  1.5828  2.1720
   95ETHOX  H1317087  15.548  16.995  14.246  1.7440 -1.0305 -1.8445
   95ETHOX   C217088  15.486  16.932  14.046 -0.0551 -0.3144  0.4931
   95ETHOX  H2117089  15.562  16.996  13.996  1.1388 -1.3629  0.9139
   95ETHOX  H2317090  15.389  16.934  13.993  0.9762  1.8070 -1.4966
   96ETHOX   O117091  15.539  16.802  14.051  0.4078  0.3093 -0.1651
   96ETHOX   C117092  15.572  16.751  13.916  0.1311 -0.2857 -0.6476
   96ETHOX  H1117093  15.662  16.802  13.876  1.5069 -1.9309  0.1990
   96ETHOX  H1317094  15.585  16.644  13.944 -1.4346 -0.0659  1.1055
   96ETHOX   C217095  15.454  16.755  13.811 -0.0007  0.1645  0.3768
   96ETHOX  H2117096  15.498  16.718  13.717  4.4675 -1.5406  2.8509
   96ETHOX  H2317097  15.412  16.856  13.792 -2.4463 -0.0394  3.6898
   97ETHOX   O117098  15.352  16.660  13.843 -0.5144  0.1456 -0.6844
   97ETHOX   C117099  15.236  16.665  13.761  0.7698  0.2243  0.6409
   97ETHOX  H1117100  15.199  16.767  13.786 -0.7603 -0.4532  1.2818
   97ETHOX  H1317101  15.160  16.595  13.802 -0.9907  1.3428 -0.6029
   97ETHOX   C217102  15.260  16.634  13.611 -0.6980  0.0689 -0.1866
   97ETHOX  H2117103  15.352  16.572  13.608 -0.3032  0.5909  0.6075
   97ETHOX  H2317104  15.262  16.730  13.555 -4.4327 -0.1074 -0.9267
   98ETHOX   O117105  15.158  16.565  13.535 -0.4044  0.3761 -0.2907
   98ETHOX   C117106  15.192  16.553  13.399  0.0410 -0.3954 -0.8322
   98ETHOX  H1117107  15.261  16.638  13.381  0.7363 -0.4053  1.4041
   98ETHOX  H1317108  15.248  16.460  13.379 -0.6573 -0.6869 -1.4663
   98ETHOX   C217109  15.072  16.563  13.299 -0.0598 -0.2509 -0.3430
   98ETHOX  H2117110  15.113  16.566  13.196  1.6918 -1.0158  0.2999
   98ETHOX  H2317111  15.001  16.641  13.334 -2.9220 -1.8905 -2.0561
   99ETHOX   O117112  14.992  16.450  13.312 -0.4380  0.0943 -1.0935
   99ETHOX   C117113  14.876  16.461  13.225 -0.2087 -0.6937 -0.5472
   99ETHOX  H1117114  14.916  16.486  13.125  1.9524 -0.7729  0.2271
   99ETHOX  H1317115  14.814  16.547  13.259  2.3560  0.8136  0.6493
   99ETHOX   C217116  14.787  16.340  13.209  0.0106 -0.3502 -0.5647
   99ETHOX  H2117117  14.692  16.386  13.175 -0.4744 -0.0656  1.0789
   99ETHOX  H2317118  14.762  16.288  13.304  1.3945  0.6551  0.3936
  100ETHOX   O117119  14.847  16.246  13.126  0.4933 -0.0214  0.0559
  100ETHOX   C117120  14.757  16.212  13.016  0.5098 -0.0013  0.3512
  100ETHOX  H1117121  14.654  16.185  13.049  0.3149 -1.2333 -1.1340
  100ETHOX  H1317122  14.751  16.295  12.943 -0.7608 -0.3736  0.0012
  100ETHOX   C217123  14.813  16.082  12.948  0.0359  0.4239 -0.2258
  100ETHOX  H2117124  14.910  16.110  12.901 -0.8185 -0.6889 -2.8093
  100ETHOX  H2317125  14.746  16.050  12.865 -0.0103 -1.0729  0.3664
  101PROXS   O117126  14.822  15.971  13.040  1.0380 -0.1350  0.3735
  101PROXS   C117127  14.838  15.848  12.970  0.4447 -0.1589  0.2373
  101PROXS  H1117128  14.751  15.839  12.901 -0.0558  1.2119  0.6723
  101PROXS  H1317129  14.934  15.840  12.914  1.4332  1.4227  1.6350
  101PROXS   C217130  14.834  15.726  13.067  0.1208 -0.9801 -0.4052
  101PROXS  H2117131  14.735  15.732  13.117 -0.4725 -0.1923 -1.6312
  101PROXS   C317132  14.954  15.746  13.153 -0.1830 -0.3467 -0.2931
  101PROXS  H3117133  14.975  15.654  13.213 -0.2272  0.5988  1.2271
  101PROXS  H3217134  15.044  15.766  13.091 -0.0891  0.6579  0.1462
  101PROXS  H3317135  14.945  15.823  13.233  0.7594  1.0087 -1.4423
  102PROXS   O117136  14.847  15.606  12.994 -0.0591  0.5798  0.0234
  102PROXS   C117137  14.768  15.502  13.041  0.3522  0.1211  0.1665
  102PROXS  H1117138  14.774  15.501  13.152  1.9808  0.3794  0.1048
  102PROXS  H1317139  14.662  15.514  13.011 -0.1071 -3.2167  0.0998
  102PROXS   C217140  14.812  15.371  12.971  0.0006  0.1022  0.3924
  102PROXS  H2117141  14.913  15.351  13.013 -0.4343  2.2621  2.7353
  102PROXS   C317142  14.819  15.381  12.812 -0.0072 -0.2867 -0.0618
  102PROXS  H3117143  14.715  15.394  12.774 -0.6405  1.2069  1.9816
  102PROXS  H3217144  14.870  15.477  12.788  0.5155 -0.8683 -1.3539
  102PROXS  H3317145  14.865  15.288  12.773  0.8789  0.5847 -1.1586
  103PROXR   O117146  14.715  15.275  13.009  0.1932 -0.0524 -0.1739
  103PROXR   C117147  14.766  15.140  12.994 -0.7673 -0.3601 -0.2214
  103PROXR  H1117148  14.819  15.135  12.897 -1.3619  1.1082 -0.6586
  103PROXR  H1317149  14.827  15.122  13.085 -1.8267  3.4423  1.4681
  103PROXR   C217150  14.643  15.046  12.985  0.0120  0.5256 -0.4842
  103PROXR  H2117151  14.590  15.095  12.901 -0.5734  3.3354  1.3548
  103PROXR   C317152  14.530  15.045  13.093  0.2102 -0.1395  0.5608
  103PROXR  H3117153  14.468  15.137  13.102 -0.2425 -0.2716 -0.9179
  103PROXR  H3217154  14.450  14.969  13.084 -0.7409  0.5872  2.2693
  103PROXR  H3317155  14.580  15.011  13.186  1.0051  0.1703  0.2599
  104PROXS   O117156  14.695  14.918  12.948  0.2780  0.5725  0.4486
  104PROXS   C117157  14.596  14.834  12.906  0.0347  0.1472 -0.7835
  104PROXS  H1117158  14.530  14.796  12.987 -1.3781  1.5832 -1.2273
  104PROXS  H1317159  14.531  14.885  12.832 -1.5058 -2.3753 -1.3173
  104PROXS   C217160  14.653  14.699  12.841  0.0178  0.4357 -0.2006
  104PROXS  H2117161  14.740  14.669  12.903 -0.4620  0.0782  0.3102
  104PROXS   C317162  14.707  14.703  12.693  0.4221  0.1659  0.4456
  104PROXS  H3117163  14.786  14.781  12.692 -1.4996  2.1980  0.0452
  104PROXS  H3217164  14.760  14.608  12.671 -0.6894 -0.4260  0.2662
  104PROXS  H3317165  14.628  14.733  12.621  0.7695 -0.0076 -0.0094
  105PROXS   O117166  14.553  14.600  12.846 -0.5761 -0.1067  0.2909
  105PROXS   C117167  14.572  14.510  12.954 -0.8135 -0.8962 -0.5298
  105PROXS  H1117168  14.615  14.570  13.038 -2.4963 -0.9851  0.4329
  105PROXS  H1317169  14.473  14.474  12.987 -1.8628  1.2475 -1.1847
  105PROXS   C217170  14.664  14.398  12.908 -0.1561  0.1325  0.5265
  105PROXS  H2117171  14.756  14.427  12.852  1.9906 -1.5141  2.9615
  105PROXS   C317172  14.588  14.297  12.821 -0.1272 -0.0244  0.0131
  105PROXS  H3117173  14.554  14.341  12.724  0.4329 -1.0302 -0.6626
  105PROXS  H3217174  14.642  14.202  12.804 -0.5027 -0.4648  1.2281
  105PROXS  H3317175  14.487  14.269  12.857 -0.4252  1.7795  0.7050
  106PROXS   O117176  14.706  14.321  13.017 -0.2734  1.1841 -0.1249
  106PROXS   C117177  14.812  14.385  13.095  0.1838  0.0967  0.3520
  106PROXS  H1117178  14.911  14.338  13.076  0.9365  1.2475  1.2631
  106PROXS  H1317179  14.821  14.495  13.079  2.1153 -0.0315  0.3596
  106PROXS   C217180  14.783  14.379  13.247  0.3372 -0.2820 -0.4340
  106PROXS  H2117181  14.780  14.276  13.289 -0.5875  0.4707  1.4352
  106PROXS   C317182  14.653  14.457  13.283 -0.2011 -0.2794 -0.3418
  106PROXS  H3117183  14.641  14.459  13.393  0.8232 -0.8554 -0.2039
  106PROXS  H3217184  14.663  14.558  13.239 -0.4831  0.6036  1.5253
  106PROXS  H3317185  14.567  14.410  13.231 -1.3552  1.9908 -0.5889
  107PROXR   O117186  14.883  14.448  13.317 -0.4159  0.4238  0.1482
  107PROXR   C117187  14.981  14.362  13.369 -0.3159  0.3428 -0.2363
  107PROXR  H1117188  14.932  14.308  13.453 -0.6792 -0.5003 -0.9843
  107PROXR  H1317189  15.009  14.289  13.290  0.4059  0.7584 -0.3790
  107PROXR   C217190  15.111  14.439  13.418 -0.1125  0.0683  0.6969
  107PROXR  H2117191  15.083  14.496  13.509  1.4790  1.9713  0.0779
  107PROXR   C317192  15.158  14.543  13.309 -0.3701  0.3324  0.5630
  107PROXR  H3117193  15.217  14.511  13.221  0.6010  3.2113  0.0492
  107PROXR  H3217194  15.068  14.595  13.271 -0.8765 -2.0368 -1.8001
  107PROXR  H3317195  15.218  14.621  13.362 -0.1935 -1.0534  2.5365
  108PROXS   O117196  15.218  14.349  13.448  0.1220 -0.1119 -0.5725
  108PROXS   C117197  15.307  14.401  13.549  0.2171  0.5950  0.0939
  108PROXS  H1117198  15.328  14.509  13.537 -1.9226  0.8358 -2.1522
  108PROXS  H1317199  15.245  14.389  13.640  0.1458 -0.3966 -0.0665
  108PROXS   C217200  15.427  14.305  13.572  0.0371 -0.5626  0.5058
  108PROXS  H2117201  15.392  14.201  13.557 -1.4145  0.0315 -0.4812
  108PROXS   C317202  15.494  14.334  13.712 -0.3826 -0.1003  0.1521
  108PROXS  H3117203  15.425  14.319  13.797 -0.4320  0.8194  0.2849
  108PROXS  H3217204  15.590  14.279  13.727 -0.6290 -0.3475  0.8310
  108PROXS  H3317205  15.510  14.444  13.716 -2.8588  0.2869  1.4676
  109PROXS   O117206  15.531  14.340  13.478  0.6051 -0.5673 -1.0691
  109PROXS   C117207  15.492  14.329  13.340 -0.2407 -0.5050 -0.0547
  109PROXS  H1117208  15.408  14.393  13.304 -0.4662 -1.1499 -0.7092
  109PROXS  H1317209  15.575  14.371  13.278 -1.3738 -0.6054 -1.7117
  109PROXS   C217210  15.467  14.181  13.301 -0.2331 -0.2490 -0.5495
  109PROXS  H2117211  15.378  14.138  13.351 -0.1818 -0.1415 -0.3674
  109PROXS   C317212  15.591  14.105  13.326 -0.1588 -0.2655  0.6335
  109PROXS  H3117213  15.680  14.162  13.292 -0.5945 -1.0902 -2.0667
  109PROXS  H3217214  15.594  14.097  13.437 -0.2562 -1.1028  0.5850
  109PROXS  H3317215  15.587  14.001  13.287  1.6127 -0.7561  1.6461
  110PROXR   O117216  15.445  14.171  13.161 -0.2993 -0.8553  0.3466
  110PROXR   C117217  15.305  14.187  13.124 -0.3737  0.3360 -0.4428
  110PROXR  H1117218  15.234  14.111  13.164  2.0382 -0.8626  1.9065
  110PROXR  H1317219  15.284  14.286  13.170  0.5190 -0.6198  2.2122
  110PROXR   C217220  15.290  14.191  12.973 -0.0390  0.5128 -0.8145
  110PROXR  H2117221  15.333  14.097  12.932 -0.0903  0.2360 -0.2460
  110PROXR   C317222  15.378  14.299  12.920  0.5431 -0.6483 -0.0819
  110PROXR  H3117223  15.458  14.326  12.991 -0.2409 -1.3526  1.1040
  110PROXR  H3217224  15.428  14.285  12.821 -0.9235  2.6403 -1.4271
  110PROXR  H3317225  15.314  14.390  12.927  0.6247 -0.4767 -1.2837
  111PROXS   O117226  15.154  14.200  12.941  0.4051 -0.2399 -0.6758
  111PROXS   C117227  15.141  14.206  12.801 -0.1865 -0.2310  0.2703
  111PROXS  H1117228  15.163  14.314  12.785 -0.1591 -0.0348  1.5674
  111PROXS  H1317229  15.214  14.139  12.749 -1.9772 -0.6804 -1.8397
  111PROXS   C217230  14.993  14.170  12.770  0.6456  0.8983  0.0853
  111PROXS  H2117231  14.922  14.240  12.820  1.4571  0.9186  1.2569
  111PROXS   C317232  14.959  14.025  12.807 -0.8241 -0.6609  0.1723
  111PROXS  H3117233  14.856  13.991  12.782  0.3327 -4.1969 -0.3384
  111PROXS  H3217234  15.034  13.956  12.763  0.7371  2.1494 -1.9386
  111PROXS  H3317235  14.976  14.020  12.916  2.5770 -0.8464 -0.2477
  112PROXR   O117236  14.972  14.169  12.625  0.5209 -0.9213 -0.3058
  112PROXR   C117237  14.974  14.297  12.557  0.3198  0.4891  0.0183
  112PROXR  H1117238  15.015  14.375  12.625  1.0512 -0.2305  0.4300
  112PROXR  H1317239  15.035  14.295  12.464 -1.2619 -0.3385 -1.0331
  112PROXR   C217240  14.833  14.347  12.511  0.3160 -0.1819 -0.0727
  112PROXR  H2117241  14.763  14.332  12.596  0.7790 -1.0569  0.1671
  112PROXR   C317242  14.782  14.286  12.384  0.1342 -0.0608  0.2844
  112PROXR  H3117243  14.859  14.273  12.305 -0.8134 -0.8390 -0.5290
  112PROXR  H3217244  14.744  14.184  12.406  0.0887 -0.5973 -1.9562
  112PROXR  H3317245  14.691  14.339  12.349 -0.5273 -1.0097  0.5325
  113PROXS   O117246  14.840  14.486  12.483 -0.3179 -0.1712  0.1749
  113PROXS   C117247  14.926  14.519  12.367 -0.6092  0.1544 -0.4387
  113PROXS  H1117248  15.030  14.499  12.403 -0.0382 -0.2299 -2.2138
  113PROXS  H1317249  14.901  14.482  12.265  1.4284  2.0823 -1.7402
  113PROXS   C217250  14.914  14.671  12.344 -0.2975  0.0459  0.3715
  113PROXS  H2117251  14.905  14.713  12.447 -1.2242 -0.7955  0.6579
  113PROXS   C317252  14.789  14.712  12.276  0.5736 -0.2308 -0.1894
  113PROXS  H3117253  14.705  14.654  12.319 -0.2003  1.1843  0.2933
  113PROXS  H3217254  14.762  14.817  12.299 -2.1300 -1.1354  1.1187
  113PROXS  H3317255  14.791  14.687  12.168 -1.3774 -3.2681  0.3761
  114PROXR   O117256  15.027  14.712  12.267 -0.1858 -0.0676 -0.0892
  114PROXR   C117257  15.028  14.852  12.254 -0.0620 -0.1504  0.2863
  114PROXR  H1117258  14.950  14.886  12.183 -0.1687  0.1924  0.5600
  114PROXR  H1317259  15.023  14.894  12.357 -1.4352 -1.0026  0.5931
  114PROXR   C217260  15.166  14.893  12.207 -1.0102 -0.3691 -0.1226
  114PROXR  H2117261  15.187  14.858  12.104  2.2221 -1.4082  0.7661
  114PROXR   C317262  15.273  14.845  12.303  0.1032 -0.2448  0.3652
  114PROXR  H3117263  15.374  14.884  12.277  0.0279  0.0840  0.5553
  114PROXR  H3217264  15.259  14.887  12.405 -0.3930  3.5291 -1.1196
  114PROXR  H3317265  15.285  14.734  12.302 -0.9576 -0.4036  1.6693
  115PROXR   O117266  15.175  15.039  12.213  0.3654 -0.3303  0.1973
  115PROXR   C117267  15.282  15.101  12.138 -0.6322 -0.5381 -0.0841
  115PROXR  H1117268  15.356  15.125  12.217 -2.6388 -0.0094  1.6962
  115PROXR  H1317269  15.319  15.042  12.051  0.0739  0.2269 -0.3149
  115PROXR   C217270  15.253  15.250  12.092 -0.0555 -0.3698  0.4424
  115PROXR  H2117271  15.177  15.254  12.012 -1.9408  0.0640  2.1723
  115PROXR   C317272  15.386  15.327  12.041  0.0454 -0.0006  0.4025
  115PROXR  H3117273  15.476  15.296  12.098  1.5624 -0.4988 -2.1001
  115PROXR  H3217274  15.402  15.285  11.940  2.0762 -1.4176  1.2484
  115PROXR  H3317275  15.389  15.438  12.040  0.6230  0.0251 -2.1465
  116PROXS   O117276  15.209  15.325  12.205 -0.3066  0.4479  0.1700
  116PROXS   C117277  15.066  15.333  12.224 -0.2730 -0.4800 -0.2410
  116PROXS  H1117278  15.012  15.378  12.138  0.5600 -1.0527 -1.0798
  116PROXS  H1317279  15.030  15.229  12.235  0.0391 -0.3600  2.9613
  116PROXS   C217280  15.034  15.399  12.359 -1.0513  0.6092 -0.4315
  116PROXS  H2117281  15.079  15.501  12.367 -0.3631  0.3054 -0.3790
  116PROXS   C317282  15.091  15.332  12.485  0.2212 -0.0891 -0.3570
  116PROXS  H3117283  15.029  15.246  12.516  2.2205 -0.9532  1.5662
  116PROXS  H3217284  15.200  15.308  12.477  0.1912  0.1124 -1.4428
  116PROXS  H3317285  15.078  15.412  12.562 -0.6424  0.3268 -0.9254
  117PROXS   O117286  14.893  15.391  12.379 -0.1539 -0.2971 -0.3681
  117PROXS   C117287  14.844  15.511  12.442  0.3860 -0.1905 -0.0234
  117PROXS  H1117288  14.863  15.518  12.551 -1.0802  1.4704  0.1724
  117PROXS  H1317289  14.886  15.600  12.390  0.0548 -1.0001 -1.7428
  117PROXS   C217290  14.692  15.526  12.424  0.7828 -0.2932  0.4139
  117PROXS  H2117291  14.628  15.439  12.451 -1.8718  1.0346 -1.2662
  117PROXS   C317292  14.655  15.564  12.274 -0.2040  0.4117  0.1159
  117PROXS  H3117293  14.666  15.671  12.250  4.2803  0.2236  0.4982
  117PROXS  H3217294  14.713  15.497  12.208  1.5894  0.0086  2.0091
  117PROXS  H3317295  14.547  15.537  12.265 -0.7204  1.5894  2.0287
  118PROXR   O117296  14.649  15.643  12.502 -0.1209  0.0350  0.4649
  118PROXR   C117297  14.517  15.624  12.557  0.0209 -0.4415  0.0766
  118PROXR  H1117298  14.457  15.582  12.473 -1.4278 -1.2328  1.4392
  118PROXR  H1317299  14.520  15.558  12.647 -1.8689  0.6933  1.0424
  118PROXR   C217300  14.463  15.761  12.603  1.1904 -1.1662  1.3988
  118PROXR  H2117301  14.482  15.819  12.510 -0.0172 -0.9997  1.2487
  118PROXR   C317302  14.540  15.818  12.723 -0.5199 -1.1476 -0.3555
  118PROXR  H3117303  14.644  15.839  12.690 -0.5578 -1.4742 -0.6946
  118PROXR  H3217304  14.491  15.912  12.758 -0.4788 -1.2042 -0.1451
  118PROXR  H3317305  14.544  15.752  12.812  0.9431  1.3735  1.6094
  119PROXR   O117306  14.323  15.741  12.636  0.7210 -0.2324 -0.1929
  119PROXR   C117307  14.251  15.862  12.659  0.4520  0.4121 -0.0024
  119PROXR  H1117308  14.284  15.908  12.754  2.5000  0.5152 -0.7035
  119PROXR  H1317309  14.281  15.939  12.584 -5.6616  3.3494  0.0077
  119PROXR   C217310  14.096  15.843  12.645  0.3966  0.6655  0.4050
  119PROXR  H2117311  14.051  15.769  12.714 -1.4509  1.8875  0.5765
  119PROXR   C317312  14.068  15.792  12.495 -0.3833 -0.4129  0.4805
  119PROXR  H3117313  14.087  15.874  12.423  0.1901 -0.5476  0.4703
  119PROXR  H3217314  14.132  15.704  12.470  0.9489 -0.1926  2.8084
  119PROXR  H3317315  13.963  15.757  12.487 -0.6022  0.1836  0.7256
  120PROXS   O117316  14.040  15.971  12.658  0.3464  0.3166  0.3468
  120PROXS   C117317  13.898  15.967  12.644  0.9731  0.7211  0.0262
  120PROXS  H1117318  13.864  15.972  12.539  0.3079 -2.4089 -0.0142
  120PROXS  H1317319  13.849  15.871  12.671  1.1290  0.3034 -1.1065
  120PROXS   C217320  13.834  16.086  12.721 -0.0293 -0.4553 -0.6072
  120PROXS  H2117321  13.901  16.173  12.709  0.4687 -0.7600 -0.1158
  120PROXS   C317322  13.824  16.058  12.868  0.3495 -0.1680  0.3789
  120PROXS  H3117323  13.766  15.967  12.894 -0.5701  0.3383  0.1609
  120PROXS  H3217324  13.925  16.046  12.912  0.1630 -1.2732  0.5321
  120PROXS  H3317325  13.781  16.153  12.907 -0.0673  0.1724 -0.8537
  121PROXS   O117326  13.701  16.106  12.670 -0.6081 -0.2649  0.1694
  121PROXS   C117327  13.661  16.243  12.675 -0.5299  0.0569 -0.5048
  121PROXS  H1117328  13.665  16.286  12.777  0.2841  1.9051 -1.2617
  121PROXS  H1317329  13.733  16.308  12.620  0.9636 -0.5242  0.6982
  121PROXS   C217330  13.524  16.255  12.603  0.0132 -0.4857  0.2689
  121PROXS  H2117331  13.455  16.181  12.647  0.2322 -0.0131  1.4369
  121PROXS   C317332  13.528  16.221  12.454 -0.4381 -0.1902  0.2486
  121PROXS  H3117333  13.428  16.198  12.412 -0.4341  0.2727 -0.0111
  121PROXS  H3217334  13.575  16.292  12.383  0.0427 -1.4964 -0.7835
  121PROXS  H3317335  13.585  16.125  12.453  1.3992  0.8659  0.4025
  122PROXS   O117336  13.465  16.389  12.616  0.1597 -0.1694 -0.2224
  122PROXS   C117337  13.324  16.371  12.652 -0.6120  0.9213 -0.6340
  122PROXS  H1117338  13.275  16.305  12.577 -0.4511 -0.1509  0.1728
  122PROXS  H1317339  13.332  16.318  12.750 -1.5243  0.2837 -0.8989
  122PROXS   C217340  13.253  16.503  12.673 -0.1897  0.1834 -0.0111
  122PROXS  H2117341  13.285  16.569  12.590 -0.0939 -0.3037 -0.3650
  122PROXS   C317342  13.303  16.571  12.799 -0.0559 -0.1525 -0.2623
  122PROXS  H3117343  13.414  16.574  12.799 -0.0636  1.0258 -1.3544
  122PROXS  H3217344  13.251  16.669  12.805 -0.4251 -0.3652  0.0943
  122PROXS  H3317345  13.270  16.514  12.889  0.8908  0.2061  0.3270
  123PROXS   O117346  13.113  16.475  12.664 -0.0170 -0.0965  0.7315
  123PROXS   C117347  13.025  16.585  12.687  0.4295  0.1942  0.3292
  123PROXS  H1117348  13.003  16.583  12.796  1.6913 -1.3337  0.5989
  123PROXS  H1317349  13.070  16.681  12.655 -1.0339  0.9571  0.5041
  123PROXS   C217350  12.908  16.556  12.595 -0.2276 -0.4494 -0.4815
  123PROXS  H2117351  12.871  16.452  12.607  1.3321 -0.7533  2.6673
  123PROXS   C317352  12.963  16.566  12.453  0.3075  1.0269  0.2488
  123PROXS  H3117353  12.993  16.667  12.418 -0.8151  1.5480  0.7544
  123PROXS  H3217354  13.058  16.509  12.446  1.2415  2.6217 -0.7915
  123PROXS  H3317355  12.889  16.524  12.381  0.4146 -1.5868  1.5501
  124PROXR   O117356  12.812  16.653  12.613 -0.1502  0.1394 -0.2948
  124PROXR   C117357  12.727  16.618  12.717 -0.0007  0.6613  0.8121
  124PROXR  H1117358  12.679  16.522  12.689  1.9012 -0.2631  0.5843
  124PROXR  H1317359  12.781  16.608  12.813  1.2960 -1.4150 -0.0684
  124PROXR   C217360  12.610  16.718  12.754 -0.6417  0.5201  0.3541
  124PROXR  H2117361  12.526  16.702  12.684 -0.7573  0.1867  0.5710
  124PROXR   C317362  12.649  16.868  12.726  0.6399  0.2622  0.0127
  124PROXR  H3117363  12.706  16.914  12.810  2.6076  1.6860 -1.9806
  124PROXR  H3217364  12.707  16.877  12.632 -0.9584 -1.3608 -1.1946
  124PROXR  H3317365  12.558  16.928  12.701  0.5067  1.2716  2.6385
  125PROXS   O117366  12.570  16.696  12.888 -0.2242 -0.3827 -0.2828
  125PROXS   C117367  12.477  16.581  12.903  0.9021  0.0202  0.6322
  125PROXS  H1117368  12.387  16.591  12.838 -0.4991  1.5575  2.6551
  125PROXS  H1317369  12.530  16.491  12.867 -1.2207 -0.4396 -1.5726
  125PROXS   C217370  12.434  16.582  13.055 -0.0705  0.2027  0.2667
  125PROXS  H2117371  12.400  16.687  13.067 -2.0717 -0.2549 -0.9530
  125PROXS   C317372  12.567  16.554  13.133  0.1749 -0.2846 -0.4596
  125PROXS  H3117373  12.547  16.559  13.242 -2.0964  0.3574 -0.8563
  125PROXS  H3217374  12.605  16.453  13.106 -1.6769 -0.2176 -3.9924
  125PROXS  H3317375  12.643  16.633  13.114  1.8191 -1.4065  1.1262
  126PROXS   O117376  12.336  16.484  13.074  0.0876 -0.1263 -0.3736
  126PROXS   C117377  12.253  16.522  13.187  0.1873 -0.2782  0.0765
  126PROXS  H1117378  12.308  16.536  13.283 -1.6375  4.1702  0.7189
  126PROXS  H1317379  12.225  16.626  13.158  0.8944 -0.7825 -2.7041
  126PROXS   C217380  12.125  16.428  13.205 -0.2945  0.0780 -0.2736
  126PROXS  H2117381  12.083  16.411  13.104  2.4159  0.9202 -1.6264
  126PROXS   C317382  12.014  16.490  13.286 -0.4947  0.2941 -0.7468
  126PROXS  H3117383  12.056  16.520  13.384 -0.6270 -0.9756 -0.2864
  126PROXS  H3217384  11.970  16.578  13.236 -1.3694  1.1932  1.5077
  126PROXS  H3317385  11.928  16.422  13.301 -0.5176  0.7572  1.5600
  127PROXR   O117386  12.160  16.303  13.272  0.7403 -0.2278 -0.8355
  127PROXR   C117387  12.232  16.214  13.184 -0.3612  0.2672 -0.2508
  127PROXR  H1117388  12.150  16.159  13.133 -0.4405  2.5106 -2.7423
  127PROXR  H1317389  12.287  16.276  13.110 -0.2667  0.4925  0.0028
  127PROXR   C217390  12.326  16.141  13.270 -0.1345  0.0378 -0.0046
  127PROXR  H2117391  12.274  16.099  13.359  0.9247  0.1738  0.6936
  127PROXR   C317392  12.439  16.235  13.313  0.2859  0.1607  0.8068
  127PROXR  H3117393  12.391  16.315  13.373 -0.1635  2.1982 -2.0595
  127PROXR  H3217394  12.520  16.189  13.373  2.2561  1.6360 -0.5820
  127PROXR  H3317395  12.491  16.284  13.227  0.2475  1.2738  1.4023
  128PROXR   O117396  12.376  16.036  13.194 -0.0745 -0.1770  0.1792
  128PROXR   C117397  12.455  15.944  13.272  0.4531 -0.4675 -0.0419
  128PROXR  H1117398  12.561  15.976  13.283  0.6124 -0.7192 -0.7830
  128PROXR  H1317399  12.420  15.931  13.376  0.6559 -0.6094  0.0106
  128PROXR   C217400  12.461  15.810  13.197  0.5052  0.0869 -0.1860
  128PROXR  H2117401  12.524  15.839  13.110 -0.6135  1.6835 -0.5096
  128PROXR   C317402  12.329  15.747  13.152 -0.2128  0.0160  0.2076
  128PROXR  H3117403  12.246  15.783  13.216  1.0753 -0.6522  2.3379
  128PROXR  H3217404  12.299  15.773  13.048 -1.0494 -0.0499  0.4224
  128PROXR  H3317405  12.328  15.636  13.154  0.1867 -0.1443 -2.8357
  129PROXS   O117406  12.535  15.720  13.279 -0.1997 -0.5266  0.1926
  129PROXS   C117407  12.671  15.722  13.242  0.1600 -0.3781 -0.0080
  129PROXS  H1117408  12.669  15.669  13.144 -0.8213  1.8146 -1.2444
  129PROXS  H1317409  12.737  15.811  13.229 -1.6765  1.2171  1.1972
  129PROXS   C217410  12.750  15.633  13.346 -0.1966 -0.1494  0.2335
  129PROXS  H2117411  12.717  15.527  13.349  1.1853 -0.6082  0.0014
  129PROXS   C317412  12.727  15.698  13.496  0.4627  0.5093 -0.8749
  129PROXS  H3117413  12.625  15.739  13.515  0.0435 -0.3298 -1.2615
  129PROXS  H3217414  12.741  15.613  13.566  0.8991  0.2757 -1.2406
  129PROXS  H3317415  12.813  15.765  13.513  0.5336  0.3281 -0.5097
  130PROXS   O117416  12.886  15.620  13.298  0.0298 -0.0265  0.0502
  130PROXS   C117417  12.960  15.511  13.362  0.7248 -0.4236  0.1565
  130PROXS  H1117418  12.966  15.530  13.471  1.0730 -0.5060  0.1538
  130PROXS  H1317419  12.901  15.419  13.344 -0.8981  0.8479 -1.4141
  130PROXS   C217420  13.108  15.507  13.315  0.1501 -0.1166 -0.5285
  130PROXS  H2117421  13.115  15.488  13.206  0.4979  0.2685 -0.5782
  130PROXS   C317422  13.186  15.404  13.413 -0.4212  0.0758  0.9738
  130PROXS  H3117423  13.203  15.454  13.511  3.1280 -1.1457  1.1428
  130PROXS  H3217424  13.120  15.316  13.430  0.9243 -1.5299 -1.5291
  130PROXS  H3317425  13.279  15.379  13.357  0.4706  0.9434  2.0135
  131PROXS   O117426  13.175  15.627  13.352  0.2680 -0.0715  0.1467
  131PROXS   C117427  13.169  15.720  13.248  0.0894  0.0748 -0.2437
  131PROXS  H1117428  13.218  15.673  13.160  1.8994  1.6698 -0.1522
  131PROXS  H1317429  13.065  15.750  13.222  0.5799  3.0027  0.8174
  131PROXS   C217430  13.242  15.852  13.280 -1.0755 -0.2814 -0.1494
  131PROXS  H2117431  13.347  15.820  13.297 -1.2374 -0.4723  0.5428
  131PROXS   C317432  13.190  15.920  13.407 -0.4184 -0.3149  0.3937
  131PROXS  H3117433  13.246  16.012  13.432  1.6025 -0.7018 -2.2068
  131PROXS  H3217434  13.087  15.952  13.381  0.2082 -0.0830 -2.1275
  131PROXS  H3317435  13.190  15.844  13.488  1.6149 -2.6116 -1.6036
  132PROXS   O117436  13.236  15.945  13.179  0.2245  0.5752 -0.7505
  132PROXS   C117437  13.350  16.033  13.175  0.1037 -0.4412 -0.0121
  132PROXS  H1117438  13.368  16.091  13.268 -0.4108  0.0795 -0.2298
  132PROXS  H1317439  13.439  15.967  13.161  0.5205  0.1271 -0.0612
  132PROXS   C217440  13.347  16.115  13.042 -0.0877 -0.4849 -0.1150
  132PROXS  H2117441  13.302  16.057  12.959 -0.7243  0.5227 -0.4926
  132PROXS   C317442  13.491  16.142  12.992  0.1347  0.4851 -0.0012
  132PROXS  H3117443  13.548  16.213  13.054  0.7804  0.1851 -0.2370
  132PROXS  H3217444  13.543  16.046  12.967 -2.0793 -0.4386 -1.4318
  132PROXS  H3317445  13.482  16.186  12.890  2.8662 -1.3826 -1.1868
  133PROXS   O117446  13.273  16.236  13.062  0.1448  0.1188 -0.5347
  133PROXS   C117447  13.136  16.206  13.070  0.4360 -0.6670  0.7015
  133PROXS  H1117448  13.095  16.110  13.033 -1.6030  1.0047 -1.6890
  133PROXS  H1317449  13.110  16.214  13.178 -1.9282 -1.0776  0.2226
  133PROXS   C217450  13.051  16.315  12.997  0.4640 -0.1967 -0.8996
  133PROXS  H2117451  13.077  16.320  12.889  1.1355 -1.6240 -0.8276
  133PROXS   C317452  13.039  16.458  13.061 -0.2859  0.6826  0.0183
  133PROXS  H3117453  12.942  16.497  13.021 -1.4355 -2.1328 -0.1290
  133PROXS  H3217454  13.033  16.452  13.171  1.3308 -0.8123  0.0573
  133PROXS  H3317455  13.123  16.525  13.031  1.1997 -0.2670  1.9033
  134PROXS   O117456  12.914  16.272  13.005 -0.3483  0.1855  0.2325
  134PROXS   C117457  12.856  16.213  12.888  0.2875  0.9187  0.2895
  134PROXS  H1117458  12.872  16.279  12.800  0.2902  0.9368  0.3043
  134PROXS  H1317459  12.909  16.119  12.864 -0.1417  0.3451  1.4898
  134PROXS   C217460  12.703  16.191  12.908 -0.4510  0.4515 -0.2387
  134PROXS  H2117461  12.647  16.285  12.928 -0.0095  0.8430 -0.8146
  134PROXS   C317462  12.692  16.079  13.013  0.0987  0.2836 -0.6972
  134PROXS  H3117463  12.725  15.977  12.986  1.6733 -0.0851  2.2154
  134PROXS  H3217464  12.757  16.106  13.099 -0.2480 -2.6853  0.6143
  134PROXS  H3317465  12.586  16.067  13.043 -0.6840  2.4027 -2.3284
  135PROXS   O117466  12.650  16.132  12.791  0.0124  0.2671  0.3177
  135PROXS   C117467  12.509  16.102  12.796  0.1219  0.4493  0.4734
  135PROXS  H1117468  12.495  15.996  12.824 -1.1673  0.6182  0.5681
  135PROXS  H1317469  12.468  16.172  12.872  0.6239 -0.2472  1.3926
  135PROXS   C217470  12.453  16.136  12.659  0.5634 -0.2570  0.0293
  135PROXS  H2117471  12.507  16.082  12.579  1.2063 -2.0116  1.5883
  135PROXS   C317472  12.474  16.285  12.623  0.3128 -0.8539  0.1932
  135PROXS  H3117473  12.401  16.343  12.683  1.2505 -1.3446  1.8582
  135PROXS  H3217474  12.580  16.315  12.636  0.8365 -2.1484 -0.8150
  135PROXS  H3317475  12.450  16.301  12.515 -0.3775  0.6062  0.5392
  136PROXS   O117476  12.310  16.117  12.663 -0.2297 -0.3912 -0.1567
  136PROXS   C117477  12.256  16.056  12.543 -0.4461  0.0986 -0.0812
  136PROXS  H1117478  12.240  16.138  12.468 -1.2977 -0.7329 -0.8307
  136PROXS  H1317479  12.330  15.985  12.500 -0.0131  1.6987 -2.1660
  136PROXS   C217480  12.121  15.991  12.580 -0.0272  0.5998 -0.3961
  136PROXS  H2117481  12.045  16.067  12.606 -0.4136 -0.0845  0.4964
  136PROXS   C317482  12.139  15.890  12.697 -0.4209 -0.4062  0.4109
  136PROXS  H3117483  12.196  15.800  12.663  2.6697  1.0517  1.3238
  136PROXS  H3217484  12.195  15.937  12.781 -0.1140 -3.7791  2.2836
  136PROXS  H3317485  12.049  15.864  12.755  0.1411  1.1974  2.0788
  137PROXS   O117486  12.069  15.920  12.472 -0.1803  0.4776  0.1062
  137PROXS   C117487  11.924  15.888  12.494  0.3274  0.4561  0.0242
  137PROXS  H1117488  11.893  15.850  12.594 -0.6288  1.2300  0.0404
  137PROXS  H1317489  11.880  15.990  12.487  0.8771  0.5858 -3.8398
  137PROXS   C217490  11.868  15.793  12.378 -1.0104  0.5668 -0.5154
  137PROXS  H2117491  11.915  15.806  12.278 -1.5101 -1.8044 -1.1110
  137PROXS   C317492  11.716  15.813  12.353  0.0566  0.5228  0.0600
  137PROXS  H3117493  11.687  15.727  12.289  1.8938 -1.1643  1.3481
  137PROXS  H3217494  11.661  15.809  12.450  1.3393 -1.0467  0.7604
  137PROXS  H3317495  11.707  15.911  12.301 -0.8193  0.7802  0.6610
  138PROXR   O117496  11.892  15.658  12.414  0.0045  0.0259 -0.4135
  138PROXR   C117497  12.023  15.610  12.369 -0.2431 -0.3518 -0.0370
  138PROXR  H1117498  12.016  15.576  12.263 -2.6926 -1.1828  0.3267
  138PROXR  H1317499  12.095  15.695  12.376 -2.3833  1.7984 -2.1480
  138PROXR   C217500  12.065  15.484  12.449 -0.1796 -0.3291  0.5589
  138PROXR  H2117501  11.996  15.399  12.435  0.1194 -0.7524  1.5484
  138PROXR   C317502  12.066  15.505  12.597 -0.5957 -0.4998 -1.0249
  138PROXR  H3117503  11.979  15.566  12.631  0.7037  0.9868 -0.2126
  138PROXR  H3217504  12.070  15.415  12.662 -1.6756 -0.9758 -1.5870
  138PROXR  H3317505  12.147  15.574  12.628 -0.2463 -1.1479 -0.4986
  139PROXS   O117506  12.194  15.449  12.408 -0.0686 -0.4896 -0.1561
  139PROXS   C117507  12.248  15.322  12.460 -0.6181 -0.9088  0.3202
  139PROXS  H1117508  12.284  15.331  12.565  1.6710 -0.1019 -0.4731
  139PROXS  H1317509  12.174  15.240  12.456 -1.5539 -0.1102  0.8777
  139PROXS   C217510  12.376  15.278  12.378 -0.1021 -0.0871  0.8419
  139PROXS  H2117511  12.435  15.371  12.365  0.6381 -0.5159  1.0448
  139PROXS   C317512  12.333  15.226  12.237 -0.7983  0.8679  0.2026
  139PROXS  H3117513  12.430  15.195  12.192 -1.2573  2.2428 -1.8438
  139PROXS  H3217514  12.265  15.138  12.251 -0.8780  0.5581 -1.7829
  139PROXS  H3317515  12.279  15.293  12.167  0.0178  1.4305  0.1036
  140PROXR   O117516  12.461  15.185  12.454  0.1799 -0.6409  1.1071
  140PROXR   C117517  12.568  15.248  12.516  0.0047  0.4112 -0.4188
  140PROXR  H1117518  12.626  15.312  12.446 -0.3750 -0.6816 -1.7858
  140PROXR  H1317519  12.528  15.328  12.582 -0.1541 -1.3677  1.7515
  140PROXR   C217520  12.654  15.151  12.604 -0.1386 -0.0716  0.0285
  140PROXR  H2117521  12.696  15.068  12.544  2.5292  0.0529  1.5662
  140PROXR   C317522  12.575  15.090  12.722 -0.0197  0.2826 -0.3007
  140PROXR  H3117523  12.530  15.174  12.779 -0.2843  1.0121 -1.5508
  140PROXR  H3217524  12.504  15.011  12.688  1.1941 -1.0480  0.1481
  140PROXR  H3317525  12.639  15.033  12.792 -0.5029 -0.5159 -0.4885
  141PROXS   O117526  12.764  15.222  12.662 -0.0482 -0.0805  0.1142
  141PROXS   C117527  12.864  15.260  12.561 -0.2752  0.1415  0.0944
  141PROXS  H1117528  12.880  15.178  12.488  4.2065  1.2192 -0.4390
  141PROXS  H1317529  12.836  15.349  12.501  0.9319 -0.6992 -1.7876
  141PROXS   C217530  12.995  15.281  12.627  0.3994  0.5987  0.0915
  141PROXS  H2117531  13.043  15.184  12.650 -2.3414 -0.9679 -0.3202
  141PROXS   C317532  12.982  15.355  12.758  0.1743 -0.1857 -0.0126
  141PROXS  H3117533  12.924  15.447  12.735  0.5801  0.1246  0.1847
  141PROXS  H3217534  12.916  15.293  12.821  2.3923 -2.9924 -0.2662
  141PROXS  H3317535  13.083  15.376  12.801 -1.0638  0.2926  2.9497
  142PROXS   O117536  13.084  15.353  12.534  0.8497 -0.3582  0.7836
  142PROXS   C117537  13.154  15.265  12.446  1.0210 -0.1186 -0.4047
  142PROXS  H1117538  13.100  15.169  12.427  0.5889 -0.6686  2.9656
  142PROXS  H1317539  13.170  15.312  12.347  1.1069  2.2071  0.6660
  142PROXS   C217540  13.294  15.236  12.509 -0.3553  0.0422  0.3420
  142PROXS  H2117541  13.291  15.175  12.602  3.0383  0.6004  0.9511
  142PROXS   C317542  13.377  15.360  12.549  0.5031  1.0431  0.2402
  142PROXS  H3117543  13.411  15.425  12.465  1.4928 -0.0353 -0.2204
  142PROXS  H3217544  13.332  15.419  12.631  0.9586 -0.5165  1.6634
  142PROXS  H3317545  13.474  15.325  12.591  0.1836 -1.3623 -0.8605
  143PROXS   O117546  13.362  15.158  12.409 -0.3611 -0.5046 -0.1536
  143PROXS   C117547  13.481  15.103  12.460  0.6522 -0.0094  0.4060
  143PROXS  H1117548  13.562  15.179  12.450  0.5350  0.0888  0.1974
  143PROXS  H1317549  13.467  15.066  12.564  1.0256  2.0636  1.2565
  143PROXS   C217550  13.516  14.989  12.364 -1.0408  0.6362  0.1306
  143PROXS  H2117551  13.522  15.036  12.264  0.4550  1.6686  0.6696
  143PROXS   C317552  13.432  14.861  12.354  0.1831 -0.6531  0.2286
  143PROXS  H3117553  13.418  14.824  12.458 -0.3451  2.1860  1.2634
  143PROXS  H3217554  13.335  14.892  12.309  0.5116  0.3767  0.1997
  143PROXS  H3317555  13.477  14.787  12.283  0.1874  0.7697 -1.3182
  144PROXS   O117556  13.653  14.949  12.406 -0.6557 -0.2142  0.1408
  144PROXS   C117557  13.736  14.900  12.300 -0.2544 -0.6774  0.4451
  144PROXS  H1117558  13.799  14.830  12.359 -0.2855  0.9758  2.5349
  144PROXS  H1317559  13.679  14.840  12.226  0.4791  0.7325 -1.3564
  144PROXS   C217560  13.819  15.012  12.236 -0.1255 -0.1597  0.4253
  144PROXS  H2117561  13.887  14.960  12.165  0.2395  0.5031  0.2833
  144PROXS   C317562  13.904  15.085  12.340  0.6378  0.3510 -0.5274
  144PROXS  H3117563  13.960  15.174  12.303 -0.9537  1.2430 -0.8562
  144PROXS  H3217564  13.839  15.116  12.425  1.8194 -0.7772  0.8545
  144PROXS  H3317565  13.983  15.023  12.387 -1.2533 -2.0322 -0.3223
  145PROXR   O117566  13.742  15.105  12.169  0.2735 -0.1311 -0.0329
  145PROXR   C117567  13.722  15.064  12.037  0.5224 -0.0669  0.0738
  145PROXR  H1117568  13.818  15.068  11.981 -0.6120 -1.1677 -2.1077
  145PROXR  H1317569  13.671  14.965  12.034  0.4114  0.0097 -0.9877
  145PROXR   C217570  13.635  15.173  11.962 -1.3023 -0.1462  0.2737
  145PROXR  H2117571  13.705  15.255  11.936 -0.8467 -1.2323 -2.2875
  145PROXR   C317572  13.506  15.210  12.034  0.2381 -0.3859 -0.9088
  145PROXR  H3117573  13.456  15.113  12.055  2.1532 -0.7132  3.0933
  145PROXR  H3217574  13.533  15.258  12.130  0.7534 -0.4917 -1.0011
  145PROXR  H3317575  13.442  15.282  11.978  1.7097  0.5450 -1.4345
  146PROXS   O117576  13.595  15.104  11.841  0.1897 -0.3960 -0.5821
  146PROXS   C117577  13.531  15.185  11.741  0.6845 -0.4576 -0.2693
  146PROXS  H1117578  13.441  15.239  11.777  0.2963  0.3334 -2.2530
  146PROXS  H1317579  13.597  15.264  11.700 -0.4858  1.1568  0.8603
  146PROXS   C217580  13.485  15.084  11.631 -0.2456 -0.3814  0.0961
  146PROXS  H2117581  13.422  15.012  11.688  1.2792 -1.6656  0.2334
  146PROXS   C317582  13.598  15.000  11.565  0.4958 -0.4852  0.2985
  146PROXS  H3117583  13.559  14.952  11.473  1.6491 -2.3541  0.7300
  146PROXS  H3217584  13.676  15.072  11.532 -1.6410  1.6350 -0.3868
  146PROXS  H3317585  13.638  14.927  11.639  1.1870 -0.2885  0.1289
  147PROXR   O117586  13.418  15.153  11.526  0.0620  0.2673 -0.1058
  147PROXR   C117587  13.308  15.075  11.483 -0.3931 -0.5644  0.7853
  147PROXR  H1117588  13.340  14.969  11.476 -1.6368 -0.8639 -1.6242
  147PROXR  H1317589  13.221  15.085  11.551 -0.7921  0.4706  0.1457
  147PROXR   C217590  13.251  15.126  11.348 -0.3976  0.1217 -0.4491
  147PROXR  H2117591  13.174  15.051  11.320  0.5301 -1.0893  0.2047
  147PROXR   C317592  13.363  15.105  11.237  0.2463 -0.0860 -0.2070
  147PROXR  H3117593  13.313  15.154  11.151 -0.0730  1.0519  0.6127
  147PROXR  H3217594  13.459  15.147  11.274  0.7631 -2.2404  1.0796
  147PROXR  H3317595  13.368  14.997  11.211 -1.8837 -0.0633 -0.9108
  148PROXR   O117596  13.194  15.254  11.365 -0.2109  0.0828 -0.3197
  148PROXR   C117597  13.140  15.307  11.247  0.6339  0.3618 -0.5031
  148PROXR  H1117598  13.213  15.357  11.180  1.1206  1.4115  0.7809
  148PROXR  H1317599  13.082  15.236  11.184  1.7615  1.2741 -2.6724
  148PROXR   C217600  13.036  15.411  11.282  0.3983 -0.7070 -1.0132
  148PROXR  H2117601  13.087  15.488  11.342 -1.1148 -1.4694  1.3813
  148PROXR   C317602  12.905  15.350  11.347  0.5013  0.2401 -0.0646
  148PROXR  H3117603  12.846  15.287  11.277 -1.1858 -0.2800  1.7084
  148PROXR  H3217604  12.947  15.277  11.419  2.8444  3.2055  1.8642
  148PROXR  H3317605  12.829  15.414  11.398 -2.3334 -1.4348 -1.8981
  149PROXR   O117606  12.985  15.472  11.157  0.7207  0.2102  0.1724
  149PROXR   C117607  12.928  15.597  11.183  0.1957  0.4359 -0.2497
  149PROXR  H1117608  12.821  15.583  11.208  0.0287 -0.1600 -1.2514
  149PROXR  H1317609  12.985  15.644  11.266  0.8873  1.8321 -1.4699
  149PROXR   C217610  12.944  15.693  11.065  0.0065 -0.4018  0.9553
  149PROXR  H2117611  12.884  15.646  10.984  0.2641 -0.4203  0.7733
  149PROXR   C317612  13.085  15.711  11.023 -0.3305  0.4944  0.5276
  149PROXR  H3117613  13.151  15.735  11.109  1.1639 -0.7738 -0.2065
  149PROXR  H3217614  13.117  15.608  10.993 -1.5286 -0.0848  1.1737
  149PROXR  H3317615  13.105  15.770  10.931  0.8238 -1.7641 -0.7581
  150PROXS   O117616  12.884  15.815  11.112  0.0819  0.3736 -1.0212
  150PROXS   C117617  12.857  15.912  11.020  0.6499 -0.2070  0.6450
  150PROXS  H1117618  12.939  15.931  10.947 -1.1543  1.5053 -1.0660
  150PROXS  H1317619  12.771  15.880  10.957  0.5261 -1.2963  1.3616
  150PROXS   C217620  12.823  16.049  11.087 -1.0085 -0.3768 -0.4655
  150PROXS  H2117621  12.911  16.080  11.146 -0.7071  1.7353 -1.9512
  150PROXS   C317622  12.701  16.031  11.183  0.4608 -0.0106  0.1404
  150PROXS  H3117623  12.646  16.126  11.199 -0.5836 -0.4092 -0.9474
  150PROXS  H3217624  12.622  15.968  11.138 -1.8093  2.4216  0.4869
  150PROXS  H3317625  12.736  15.984  11.277  1.6737  2.7494  1.1968
  151PROXR   O117626  12.794  16.150  10.988  0.0257 -0.0830 -0.4625
  151PROXR   C117627  12.751  16.278  11.031 -0.3590 -0.3391  0.2651
  151PROXR  H1117628  12.741  16.345  10.943  2.9446  1.7751  1.2951
  151PROXR  H1317629  12.651  16.279  11.080 -0.0077  1.3684  1.0614
  151PROXR   C217630  12.860  16.358  11.117 -0.2099 -0.0473  0.2820
  151PROXR  H2117631  12.858  16.298  11.210 -2.4289  0.4244  0.5804
  151PROXR   C317632  12.824  16.499  11.154 -0.1108 -0.5195 -0.2474
  151PROXR  H3117633  12.720  16.509  11.191  0.2163  3.6229 -0.0084
  151PROXR  H3217634  12.899  16.532  11.229 -0.5588  3.1497 -1.2360
  151PROXR  H3317635  12.828  16.570  11.069 -1.4504  2.1915  1.7932
  152PROXR   O117636  12.989  16.350  11.047 -0.1238 -0.4272  0.8888
  152PROXR   C117637  13.099  16.372  11.135  0.2544 -0.2712  0.1131
  152PROXR  H1117638  13.113  16.477  11.168  0.2690  0.5085 -2.1981
  152PROXR  H1317639  13.092  16.299  11.219  0.3975 -2.1579 -1.4479
  152PROXR   C217640  13.231  16.335  11.066  0.0860 -0.2941 -0.1431
  152PROXR  H2117641  13.241  16.407  10.982  1.6571  1.1560  1.2108
  152PROXR   C317642  13.238  16.192  11.014  0.1783 -0.5412 -0.2094
  152PROXR  H3117643  13.145  16.172  10.956 -1.5793  0.8886  1.9336
  152PROXR  H3217644  13.313  16.175  10.934 -2.0495 -0.1320 -2.5369
  152PROXR  H3317645  13.251  16.120  11.097 -0.6240  1.7849  2.0760
  153PROXR   O117646  13.335  16.362  11.154 -0.5439 -0.5191 -0.0341
  153PROXR   C117647  13.377  16.505  11.147  0.5715  0.2647 -0.3413
  153PROXR  H1117648  13.389  16.546  11.045 -1.5986  0.4923 -0.5548
  153PROXR  H1317649  13.290  16.561  11.188 -0.9979 -1.5383 -1.0983
  153PROXR   C217650  13.502  16.535  11.236  0.3945  1.6594 -0.1122
  153PROXR  H2117651  13.480  16.500  11.339 -0.5153 -0.2198 -0.9038
  153PROXR   C317652  13.539  16.680  11.237 -0.7441 -0.0006  0.1801
  153PROXR  H3117653  13.614  16.680  11.319  0.4994 -1.0842 -0.9032
  153PROXR  H3217654  13.594  16.712  11.146 -1.4994  2.1790  0.4505
  153PROXR  H3317655  13.452  16.747  11.249 -1.4627 -0.8939  0.1140
  154PROXS   O117656  13.621  16.476  11.181  0.4113  0.5660 -0.6139
  154PROXS   C117657  13.633  16.333  11.212 -0.0156  0.1276 -0.3124
  154PROXS  H1117658  13.609  16.314  11.318 -2.6644 -0.0981 -0.8803
  154PROXS  H1317659  13.557  16.285  11.147  1.1516 -0.2849 -1.4236
  154PROXS   C217660  13.766  16.277  11.162  0.2158 -0.4178 -0.1863
  154PROXS  H2117661  13.849  16.325  11.218  0.0512  0.4247 -0.6477
  154PROXS   C317662  13.784  16.297  11.009  0.3099  0.7108  0.4712
  154PROXS  H3117663  13.774  16.404  10.980  1.4798  0.6452 -0.2430
  154PROXS  H3217664  13.886  16.262  10.980  1.3057  2.5618  1.5258
  154PROXS  H3317665  13.717  16.232  10.949 -1.3671  1.7883  1.1003
  155PROXR   O117666  13.769  16.136  11.168  0.3647  0.7076  0.8894
  155PROXR   C117667  13.789  16.082  11.297 -0.1060  0.2653 -0.0114
  155PROXR  H1117668  13.883  16.119  11.344 -0.0437 -0.3484  0.3586
  155PROXR  H1317669  13.711  16.108  11.372  0.4812 -0.9159  1.0614
  155PROXR   C217670  13.814  15.926  11.293  0.4228  0.2898  0.1467
  155PROXR  H2117671  13.889  15.905  11.213 -0.6129  1.5044 -1.2004
  155PROXR   C317672  13.687  15.846  11.247 -0.0364 -0.3087 -0.2008
  155PROXR  H3117673  13.655  15.898  11.154 -2.3984  1.5186  1.5152
  155PROXR  H3217674  13.697  15.736  11.243 -0.0718 -0.4956  2.5050
  155PROXR  H3317675  13.606  15.860  11.322  1.4265 -0.9983  1.5881
  156PROXS   O117676  13.832  15.862  11.423  0.1190  0.2400  0.0652
  156PROXS   C117677  13.959  15.884  11.473  0.1878  0.0439 -0.4264
  156PROXS  H1117678  14.037  15.873  11.394 -1.4640 -0.0173 -2.1164
  156PROXS  H1317679  13.968  15.987  11.512  1.4000  0.5320 -1.8682
  156PROXS   C217680  14.001  15.774  11.570 -0.2365 -0.4195 -0.1387
  156PROXS  H2117681  14.003  15.679  11.512 -1.4650 -1.9613  2.1906
  156PROXS   C317682  13.905  15.771  11.687 -0.6726  0.0707 -0.3185
  156PROXS  H3117683  13.801  15.771  11.649 -0.5088  0.0202 -0.7831
  156PROXS  H3217684  13.933  15.688  11.755 -0.1817  0.3367 -0.1871
  156PROXS  H3317685  13.916  15.868  11.741  2.4966 -0.2250 -0.2094
  157PROXS   O117686  14.127  15.810  11.626  0.2768  0.5970  0.3051
  157PROXS   C117687  14.184  15.692  11.681  0.1300 -0.2561  0.3213
  157PROXS  H1117688  14.132  15.651  11.771 -0.1895 -2.9157 -0.9591
  157PROXS  H1317689  14.172  15.620  11.597 -2.0226  0.0685  0.2893
  157PROXS   C217690  14.332  15.719  11.709  0.4625  0.8897 -0.3522
  157PROXS  H2117691  14.366  15.802  11.644  0.9032 -0.6584 -2.1888
  157PROXS   C317692  14.407  15.586  11.697  0.0949 -0.5560 -0.0744
  157PROXS  H3117693  14.367  15.511  11.769  0.2679 -1.0359 -0.4669
  157PROXS  H3217694  14.386  15.549  11.594 -1.0567  0.9469 -0.4132
  157PROXS  H3317695  14.515  15.607  11.708  0.0033 -0.0334 -0.1225
  158PROXR   O117696  14.345  15.750  11.848 -0.5041  0.5952 -0.0939
  158PROXR   C117697  14.349  15.889  11.873 -0.7381 -0.0058  0.0943
  158PROXR  H1117698  14.438  15.922  11.816  0.9193  0.7661  2.9344
  158PROXR  H1317699  14.256  15.941  11.842 -0.4420 -0.1788 -1.1352
  158PROXR   C217700  14.363  15.911  12.026 -0.0574  0.2248  0.0892
  158PROXR  H2117701  14.440  15.838  12.056  1.6793  0.8344 -2.5447
  158PROXR   C317702  14.233  15.875  12.098 -0.0567  0.6395 -0.6050
  158PROXR  H3117703  14.236  15.893  12.207 -3.0273 -2.8083  0.2626
  158PROXR  H3217704  14.150  15.938  12.060 -0.5593  1.0953  1.1650
  158PROXR  H3317705  14.200  15.769  12.092 -0.9701  0.8004  1.0659
  159PROXR   O117706  14.399  16.042  12.064 -0.5763  0.1819 -0.3172
  159PROXR   C117707  14.465  16.057  12.187 -0.6347  0.5048 -0.0899
  159PROXR  H1117708  14.480  15.958  12.234 -2.7133 -0.7594 -1.8886
  159PROXR  H1317709  14.565  16.099  12.163 -0.8569  1.0530 -0.0909
  159PROXR   C217710  14.405  16.155  12.280  0.0353 -0.0620 -0.3017
  159PROXR  H2117711  14.310  16.107  12.311  0.6588 -1.9087 -1.0693
  159PROXR   C317712  14.389  16.293  12.204 -0.4308  0.5587 -0.0952
  159PROXR  H3117713  14.332  16.280  12.110 -0.3459  1.0134 -0.2140
  159PROXR  H3217714  14.346  16.370  12.272 -0.8814  0.2334 -0.0097
  159PROXR  H3317715  14.493  16.331  12.190  0.3225 -1.1535  0.6209
  160PROXS   O117716  14.491  16.176  12.393  0.3424  0.3948  0.2712
  160PROXS   C117717  14.420  16.214  12.507 -0.2335 -0.7506  0.4663
  160PROXS  H1117718  14.341  16.286  12.477 -0.1378 -0.4083  1.0160
  160PROXS  H1317719  14.365  16.138  12.567 -0.7538  0.5405  1.6925
  160PROXS   C217720  14.513  16.292  12.602 -0.8122  0.8752 -0.1880
  160PROXS  H2117721  14.564  16.370  12.541 -2.0208  0.6955 -1.4997
  160PROXS   C317722  14.626  16.203  12.657 -0.2252  0.1218  0.1552
  160PROXS  H3117723  14.580  16.125  12.721 -1.9210 -0.3864 -1.5970
  160PROXS  H3217724  14.688  16.146  12.584  0.5403 -0.6833  1.3729
  160PROXS  H3317725  14.704  16.255  12.717  0.8226  0.8367 -1.7379
  161PROXR   O117726  14.433  16.353  12.697 -0.0489 -0.0662 -0.6947
  161PROXR   C117727  14.501  16.452  12.773 -0.7152  0.0822  0.2516
  161PROXR  H1117728  14.611  16.437  12.778 -0.4518  1.4914 -0.7591
  161PROXR  H1317729  14.488  16.553  12.730  1.8553  0.5746  0.4913
  161PROXR   C217730  14.447  16.471  12.912  0.8507  0.2485 -0.0211
  161PROXR  H2117731  14.337  16.481  12.904  0.5641 -2.7351 -1.2293
  161PROXR   C317732  14.506  16.599  12.968 -0.0074  0.4432  0.4044
  161PROXR  H3117733  14.477  16.686  12.905 -0.0943  0.5562  0.5985
  161PROXR  H3217734  14.467  16.619  13.070  1.4568 -2.7281  1.7232
  161PROXR  H3317735  14.616  16.592  12.976  0.1045  0.3966 -0.9522
  162PROXR   O117736  14.480  16.354  12.986  1.0464 -0.2420  0.1913
  162PROXR   C117737  14.379  16.320  13.078  0.0092  0.2897 -0.1125
  162PROXR  H1117738  14.392  16.370  13.176 -0.4403 -0.7136  0.4767
  162PROXR  H1317739  14.280  16.354  13.040 -0.8896 -0.8538  1.0906
  162PROXR   C217740  14.346  16.164  13.094 -0.4336 -0.3961 -0.5208
  162PROXR  H2117741  14.436  16.126  13.145 -0.9125  0.5757  1.1142
  162PROXR   C317742  14.324  16.077  12.969 -0.1013  0.6998  0.3663
  162PROXR  H3117743  14.228  16.102  12.920 -0.3760  1.3353  1.1961
  162PROXR  H3217744  14.396  16.101  12.887 -0.3111  0.7060  0.1854
  162PROXR  H3317745  14.334  15.970  12.995  1.8706  1.0909  1.4636
  163PROXS   O117746  14.240  16.133  13.181  0.2065 -0.0860 -0.2393
  163PROXS   C117747  14.291  16.126  13.314 -0.8718 -0.5960 -0.2992
  163PROXS  H1117748  14.336  16.026  13.334  2.4648  1.0074  1.0094
  163PROXS  H1317749  14.367  16.206  13.331  0.3052 -1.7537  0.0309
  163PROXS   C217750  14.182  16.153  13.415 -0.3757  0.6308  0.0935
  163PROXS  H2117751  14.099  16.082  13.396 -0.1940  0.0564  1.3799
  163PROXS   C317752  14.132  16.299  13.397  0.4195  0.6029 -0.1822
  163PROXS  H3117753  14.215  16.370  13.415  1.4855 -0.6079 -0.1354
  163PROXS  H3217754  14.093  16.319  13.295 -0.9645 -0.9514  0.0001
  163PROXS  H3317755  14.053  16.328  13.469  0.7924  1.2802 -0.0416
  164PROXR   O117756  14.233  16.131  13.546 -0.5199  0.3400 -0.1297
  164PROXR   C117757  14.165  16.025  13.616 -0.1812 -0.3011 -0.1903
  164PROXR  H1117758  14.195  16.042  13.722 -3.4763  1.0860  0.6223
  164PROXR  H1317759  14.057  16.048  13.607 -0.1606  0.6714  1.6052
  164PROXR   C217760  14.208  15.877  13.574  0.3999 -0.3416 -0.1269
  164PROXR  H2117761  14.165  15.855  13.473 -1.3627  0.9003  0.3096
  164PROXR   C317762  14.163  15.775  13.669  0.5069 -0.1737 -0.6894
  164PROXR  H3117763  14.209  15.799  13.767 -1.2530 -0.2959  0.1919
  164PROXR  H3217764  14.054  15.772  13.690  0.4215 -3.3439 -1.1012
  164PROXR  H3317765  14.186  15.671  13.636 -0.1949 -0.8958  0.9690
  165PROXR   O117766  14.352  15.871  13.564 -0.1621 -0.2611  0.4136
  165PROXR   C117767  14.382  15.760  13.479 -0.6466 -0.2622  0.4153
  165PROXR  H1117768  14.365  15.664  13.531  2.6715 -2.0147 -1.3485
  165PROXR  H1317769  14.318  15.765  13.388 -0.1931 -0.5653  0.0721
  165PROXR   C217770  14.537  15.761  13.436 -0.0553 -0.5156 -0.8156
  165PROXR  H2117771  14.595  15.793  13.525  0.2738  3.1014 -2.1714
  165PROXR   C317772  14.571  15.865  13.335 -0.2644 -0.1761  0.0354
  165PROXR  H3117773  14.512  15.851  13.242  0.8480  0.2737 -0.7610
  165PROXR  H3217774  14.553  15.969  13.371  0.4975  0.5324 -1.5507
  165PROXR  H3317775  14.677  15.866  13.301 -0.3389  0.8544 -0.2053
  166ETHOX   O117776  14.578  15.638  13.381  0.4303  0.0760  0.6056
  166ETHOX   C117777  14.575  15.523  13.464 -0.2635 -0.3279  0.4208
  166ETHOX  H1117778  14.466  15.503  13.477 -0.8429  2.0845 -0.3111
  166ETHOX  H1317779  14.613  15.552  13.564  0.3776  0.2863  0.0073
  166ETHOX   C217780  14.642  15.399  13.402  0.1537 -0.3538  0.6372
  166ETHOX  H2117781  14.609  15.380  13.297  2.9972 -2.4559 -0.0046
  166ETHOX  H2317782  14.610  15.319  13.472 -4.9958  0.8476  0.0582
  167ETHOX   O117783  14.786  15.400  13.397 -0.3710  0.1850 -0.1138
  167ETHOX   C117784  14.842  15.285  13.337 -0.4999  0.9366  0.0806
  167ETHOX  H1117785  14.845  15.188  13.392  1.2151 -0.3626 -2.0761
  167ETHOX  H1317786  14.780  15.254  13.249 -1.1997 -2.5471  1.6092
  167ETHOX   C217787  14.983  15.313  13.285  0.1814  0.3857 -0.0928
  167ETHOX  H2117788  14.977  15.403  13.220 -0.4600  0.0588 -0.4910
  167ETHOX  H2317789  15.027  15.229  13.228 -0.6183  0.3686 -0.6977
  168ETHOX   O117790  15.069  15.340  13.397 -0.2261  0.5837 -0.5572
  168ETHOX   C117791  15.204  15.367  13.360 -0.0052  0.2355 -0.1680
  168ETHOX  H1117792  15.210  15.455  13.293  1.0629 -0.3848 -0.9137
  168ETHOX  H1317793  15.245  15.273  13.317  0.4240 -0.2086  1.1673
  168ETHOX   C217794  15.293  15.398  13.484 -0.1807 -0.3706 -0.4686
  168ETHOX  H2117795  15.393  15.419  13.441  0.5080  0.8991  1.5803
  168ETHOX  H2317796  15.313  15.308  13.547  5.3055  1.5776  1.1189
  169ETHOX   O117797  15.266  15.513  13.554 -0.1840  0.0143  0.1374
  169ETHOX   C117798  15.366  15.536  13.651 -0.1485  0.4162  0.1195
  169ETHOX  H1117799  15.399  15.442  13.698 -0.1979  0.0935 -0.4815
  169ETHOX  H1317800  15.456  15.586  13.610  0.3632 -1.0356 -0.5692
  169ETHOX   C217801  15.307  15.632  13.761 -0.4548  0.1172  0.3149
  169ETHOX  H2117802  15.373  15.640  13.850 -1.2494 -1.2735  1.0578
  169ETHOX  H2317803  15.208  15.594  13.793  0.0209 -0.5512  1.0281
  170ETHOX   O117804  15.302  15.768  13.707 -0.4964  0.6066 -0.5120
  170ETHOX   C117805  15.169  15.810  13.674 -0.6112  0.0668 -0.2687
  170ETHOX  H1117806  15.113  15.788  13.768 -0.0544  0.1289  0.0831
  170ETHOX  H1317807  15.134  15.741  13.594  0.9893 -0.5870 -0.4470
  170ETHOX   C217808  15.159  15.957  13.631 -0.2059 -0.4663  0.5063
  170ETHOX  H2117809  15.056  15.972  13.592 -0.1277  0.2270  0.5420
  170ETHOX  H2317810  15.246  15.981  13.566 -0.0821 -0.4399  0.6827
  171ETHOX   O117811  15.174  16.040  13.740 -0.8487  0.8506  0.4118
  171ETHOX   C117812  15.209  16.167  13.703  0.0899  0.0706  0.0922
  171ETHOX  H1117813  15.310  16.170  13.657  1.1014 -2.9028  1.8584
  171ETHOX  H1317814  15.142  16.202  13.621 -0.1856  0.4934  0.4929
  171ETHOX   C217815  15.196  16.266  13.824 -0.5138  0.0647  0.1154
  171ETHOX  H2117816  15.263  16.351  13.798 -2.2730  2.3072  2.3887
  171ETHOX  H2317817  15.217  16.211  13.918 -1.7871 -1.2332 -0.3224
  172ETHOX   O117818  15.065  16.324  13.841  0.3808 -0.6037  0.2489
  172ETHOX   C117819  14.978  16.239  13.908 -0.6477  0.1996  0.1370
  172ETHOX  H1117820  15.015  16.238  14.013 -3.1355  2.5553  1.1502
  172ETHOX  H1317821  14.974  16.142  13.854 -0.3652 -0.0656  0.5891
  172ETHOX   C217822  14.838  16.299  13.897 -0.4285  0.4597  0.2634
  172ETHOX  H2117823  14.754  16.243  13.944 -0.7540 -0.8772 -1.7911
  172ETHOX  H2317824  14.811  16.320  13.791  0.6220  0.2982 -0.0495
  173ETHOX   O117825  14.844  16.420  13.968 -0.3308 -0.1958 -0.0885
  173ETHOX   C117826  14.739  16.506  13.935  0.1303 -0.2836 -0.2691
  173ETHOX  H1117827  14.724  16.522  13.826 -2.2957  1.9500  0.2627
  173ETHOX  H1317828  14.653  16.444  13.971 -0.8439  1.4710  0.5671
  173ETHOX   C217829  14.728  16.644  14.005  0.6138  0.8764 -0.1872
  173ETHOX  H2117830  14.621  16.676  14.011  0.0312 -1.0652  0.6069
  173ETHOX  H2317831  14.775  16.637  14.105  2.6838 -1.7382 -1.2493
  174ETHOX   O117832  14.799  16.750  13.932  0.3047 -0.2139  0.3262
  174ETHOX   C117833  14.942  16.726  13.945  0.3190  0.4596 -0.3932
  174ETHOX  H1117834  14.973  16.623  13.970  1.3486  1.1146  1.1794
  174ETHOX  H1317835  14.985  16.756  13.847 -1.9955  0.5562 -1.4566
  174ETHOX   C217836  15.005  16.832  14.039  0.4047  0.3541 -0.5861
  174ETHOX  H2117837  15.093  16.785  14.089 -1.3088 -1.2583  1.0731
  174ETHOX  H2317838  14.939  16.846  14.127 -1.2413 -0.2992 -1.6729
  175ETHOX   O117839  15.030  16.959  13.973 -0.5401  0.0976 -0.1856
  175ETHOX   C117840  15.071  17.065  14.046 -0.7301  0.4238 -0.4550
  175ETHOX  H1117841  15.005  17.059  14.134  1.1109  2.1483  1.1426
  175ETHOX  H1317842  15.178  17.048  14.072 -0.6065  0.0880 -1.1344
  175ETHOX   C217843  15.052  17.201  13.967 -0.1080  0.3396  0.6684
  175ETHOX  H2117844  15.067  17.284  14.039  1.3534  0.6390  0.0484
  175ETHOX  H2317845  14.948  17.201  13.928 -0.5142  2.6039  1.6022
  176ETHOX   O117846  15.142  17.226  13.857 -0.1967 -0.3399 -0.0504
  176ETHOX   C117847  15.111  17.348  13.792 -0.2567 -0.5901 -0.2032
  176ETHOX  H1117848  15.005  17.347  13.757 -0.3901  1.9972 -0.0476
  176ETHOX  H1317849  15.112  17.431  13.866  0.5523  0.8999 -1.7952
  176ETHOX   C217850  15.208  17.373  13.674  0.4356 -0.0319  0.1545
  176ETHOX  H2117851  15.160  17.438  13.598  1.6858 -0.0176 -0.6629
  176ETHOX  H2317852  15.236  17.280  13.620  4.6625  1.0465  0.1545
  177ETHOX   O117853  15.325  17.440  13.717  0.0290 -0.6411  0.8259
  177ETHOX   C117854  15.422  17.476  13.615  0.3613 -0.1094 -0.0600
  177ETHOX  H1117855  15.374  17.553  13.551  0.0767  0.3571  0.7051
  177ETHOX  H1317856  15.445  17.380  13.563 -0.6487 -0.0718 -0.5896
  177ETHOX   C217857  15.561  17.534  13.670  0.2412  0.1843  0.0428
  177ETHOX  H2117858  15.643  17.520  13.596  0.7344 -1.6852  0.8761
  177ETHOX  H2317859  15.594  17.473  13.757 -0.5137  0.7564  0.7458
  178ETHOX   O117860  15.546  17.669  13.707  0.4434 -0.9311  0.0707
  178ETHOX   C117861  15.496  17.687  13.841 -0.2426  0.9658  0.1381
  178ETHOX  H1117862  15.400  17.631  13.852  0.2113  0.0778 -0.2907
  178ETHOX  H1317863  15.562  17.640  13.917 -0.4961  0.0464 -0.2019
  178ETHOX   C217864  15.463  17.836  13.866  0.1517 -0.4885  0.5096
  178ETHOX  H2117865  15.388  17.859  13.945  1.1196  3.1144  0.5421
  178ETHOX  H2317866  15.413  17.883  13.779 -0.0994  0.4601  1.1528
  179ETHOX   O117867  15.577  17.906  13.904  1.1253 -0.2484 -0.3252
  179ETHOX   C117868  15.544  18.051  13.919  0.2923  0.4957  0.0984
  179ETHOX  H1117869  15.492  18.051  14.017  1.9392 -1.3219  1.0531
  179ETHOX  H1317870  15.481  18.081  13.832 -2.4428 -1.6985  1.1538
  179ETHOX   C217871  15.680  18.119  13.945 -0.2892 -0.4561 -0.5093
  179ETHOX  H2117872  15.656  18.227  13.953 -0.1416 -0.2957 -2.0185
  179ETHOX  H2317873  15.745  18.116  13.855  0.3571  1.3168 -0.1405
  180ETHOX   O117874  15.740  18.078  14.068 -0.1623  0.3441 -0.6245
  180ETHOX   C117875  15.878  18.113  14.074 -0.2183 -0.3251  0.0738
  180ETHOX  H1117876  15.902  18.217  14.044 -2.7341  0.2269 -0.2185
  180ETHOX  H1317877  15.897  18.101  14.183 -1.4593  2.0255  0.6119
  180ETHOX   C217878  15.967  18.012  14.004  0.0910  0.0109 -0.4443
  180ETHOX  H2117879  16.068  18.059  13.996  0.3936 -0.6863 -0.7904
  180ETHOX  H2317880  15.926  17.998  13.902  0.6307 -2.1222 -0.4182
  181ETHOX   O117881  15.965  17.886  14.072  0.4480 -0.1999 -0.3131
  181ETHOX   C117882  16.060  17.794  14.017  0.0062 -0.0433 -0.2890
  181ETHOX  H1117883  16.166  17.829  14.010  0.1971 -0.8844 -2.8164
  181ETHOX  H1317884  16.021  17.786  13.913  0.8778  1.6874 -0.7892
  181ETHOX   C217885  16.036  17.656  14.084 -0.4257  0.0661  0.0763
  181ETHOX  H2117886  16.064  17.591  13.999  0.1587  0.8018 -0.3062
  181ETHOX  H2317887  15.930  17.654  14.117 -0.6796  1.8034 -0.5519
  182ETHOX   O117888  16.117  17.636  14.201  0.3734 -0.2020  0.3395
  182ETHOX   C117889  16.141  17.502  14.215  0.1627 -0.5386 -0.2673
  182ETHOX  H1117890  16.079  17.441  14.145 -0.9227  0.5880 -0.3214
  182ETHOX  H1317891  16.243  17.473  14.183  1.4607  2.8881  0.4513
  182ETHOX   C217892  16.132  17.460  14.364 -0.0910 -0.1188  0.2905
  182ETHOX  H2117893  16.116  17.350  14.363  0.9895 -0.4014  3.3865
  182ETHOX  H2317894  16.045  17.504  14.419 -0.1708  1.1343 -0.7958
  183ETHOX   O117895  16.250  17.513  14.422 -0.0243  0.1538 -0.1562
  183ETHOX   C117896  16.277  17.446  14.547 -0.2905  0.0991  0.2235
  183ETHOX  H1117897  16.287  17.338  14.527 -0.4986  0.5151 -2.4266
  183ETHOX  H1317898  16.187  17.452  14.613 -1.1563  0.5596 -0.9626
  183ETHOX   C217899  16.404  17.477  14.619  0.5136 -0.8936  0.3533
  183ETHOX  H2117900  16.476  17.497  14.536 -0.5848  2.0377 -0.0109
  183ETHOX  H2317901  16.431  17.384  14.673  2.4340 -0.5628  0.0595
  184ETHOX   O117902  16.377  17.579  14.712 -0.3056 -0.0528  0.4499
  184ETHOX   C117903  16.418  17.706  14.661 -0.7775  1.1889  0.5429
  184ETHOX  H1117904  16.528  17.695  14.650 -0.9433 -0.9661  0.5938
  184ETHOX  H1317905  16.369  17.707  14.562  0.6568 -0.7505 -0.2522
  184ETHOX   C217906  16.390  17.811  14.762  0.2315 -0.1973 -0.0567
  184ETHOX  H2117907  16.434  17.906  14.726  0.1805 -1.2966 -3.3818
  184ETHOX  H2317908  16.428  17.782  14.862  1.6769  1.2144 -0.1413
  185ETHOX   O117909  16.249  17.823  14.770  0.0025  0.2221 -0.5844
  185ETHOX   C117910  16.206  17.931  14.853 -0.4948  0.9883 -0.1506
  185ETHOX  H1117911  16.250  17.915  14.954 -0.8381 -1.1750 -0.2890
  185ETHOX  H1317912  16.253  18.017  14.802  2.3712  0.0155  0.6739
  185ETHOX   C217913  16.053  17.939  14.856 -0.4073  0.5106  0.1330
  185ETHOX  H2117914  16.015  17.939  14.752 -0.5551  0.2614  0.1851
  185ETHOX  H2317915  16.034  18.034  14.912  0.5136  0.2067  0.9854
  186ETHOX   O117916  15.993  17.828  14.919 -0.0358 -0.3533 -0.6932
  186ETHOX   C117917  15.856  17.817  14.902 -0.3426  0.2413 -0.0563
  186ETHOX  H1117918  15.811  17.900  14.962 -0.2858  0.1643  0.0942
  186ETHOX  H1317919  15.829  17.835  14.796 -2.9009  2.3370  0.8402
  186ETHOX   C217920  15.794  17.679  14.950 -0.1679 -0.5750  0.2104
  186ETHOX  H2117921  15.688  17.688  14.979 -0.5893 -1.7215 -0.8695
  186ETHOX  H2317922  15.843  17.649  15.045  1.2618  0.0854 -0.2849
  187ETHOX   O117923  15.819  17.579  14.856  0.1367  0.0774 -0.2555
  187ETHOX   C117924  15.760  17.446  14.890 -0.4394 -0.0732  0.0225
  187ETHOX  H1117925  15.766  17.420  14.998 -1.8275 -0.6677 -0.0231
  187ETHOX  H1317926  15.654  17.449  14.859  0.1227 -3.8319 -2.9619
  187ETHOX   C217927  15.821  17.336  14.796 -0.4703 -0.1934  0.7907
  187ETHOX  H2117928  15.825  17.360  14.687 -0.4907 -0.4742  0.7271
  187ETHOX  H2317929  15.756  17.245  14.797  0.8951 -1.2361 -0.4868
  188ETHOX   O117930  15.952  17.296  14.849  0.0756  0.4767  0.7668
  188ETHOX   C117931  16.010  17.198  14.762  0.2175 -0.3356 -0.1518
  188ETHOX  H1117932  16.031  17.245  14.664  2.3841 -1.7717 -0.4613
  188ETHOX  H1317933  15.931  17.121  14.752  1.5041 -1.5589 -1.4439
  188ETHOX   C217934  16.136  17.137  14.814  0.2133 -0.2144  0.1468
  188ETHOX  H2117935  16.213  17.215  14.833 -0.2055  0.9597 -2.4802
  188ETHOX  H2317936  16.187  17.077  14.736  3.3654  2.0459  0.2966
  189ETHOX   O117937  16.117  17.064  14.930 -0.1610 -0.5092  0.1725
  189ETHOX   C117938  16.239  16.995  14.955  0.0448  0.0966 -0.0308
  189ETHOX  H1117939  16.236  16.901  14.895  0.6852 -0.1404  0.2935
  189ETHOX  H1317940  16.331  17.056  14.937 -0.7290  1.5446  0.7413
  189ETHOX   C217941  16.229  16.949  15.105 -0.3640 -0.3449  0.2824
  189ETHOX  H2117942  16.198  17.033  15.170 -0.2724 -0.0406 -0.0688
  189ETHOX  H2317943  16.331  16.919  15.138 -0.0935  1.1325  0.8360
  190ETHOX   O117944  16.139  16.840  15.119  0.7517  0.5600  0.2373
  190ETHOX   C117945  16.095  16.815  15.252 -0.4307 -0.1870 -0.1324
  190ETHOX  H1117946  16.015  16.888  15.275  0.1799 -0.4427  3.2291
  190ETHOX  H1317947  16.185  16.842  15.312 -0.7819  0.9277 -0.0962
  190ETHOX   C217948  16.064  16.668  15.263  0.3239  0.6880 -0.0594
  190ETHOX  H2117949  15.991  16.640  15.184 -0.1688  1.2707  0.1821
  190ETHOX  H2317950  16.023  16.655  15.366 -0.1408  2.1129 -0.0546
  191ETHOX   O117951  16.184  16.598  15.237 -0.6546  0.3085  0.5231
  191ETHOX   C117952  16.158  16.459  15.222  0.9699  0.3006 -0.2112
  191ETHOX  H1117953  16.093  16.426  15.307  1.1088  1.6944  0.4602
  191ETHOX  H1317954  16.106  16.434  15.127  0.2959  2.9185 -0.6010
  191ETHOX   C217955  16.287  16.383  15.235  0.0808 -0.0698 -0.0125
  191ETHOX  H2117956  16.250  16.280  15.252  0.0161 -0.3712 -1.7959
  191ETHOX  H2317957  16.340  16.423  15.324  0.1833  3.6817 -1.5501
  192ETHOX   O117958  16.375  16.374  15.119  0.2682  0.1724 -0.1431
  192ETHOX   C117959  16.488  16.298  15.135 -0.4489  0.1639  0.1191
  192ETHOX  H1117960  16.471  16.188  15.135  1.8942 -0.2649  1.2399
  192ETHOX  H1317961  16.503  16.320  15.243 -0.7423 -0.6740  0.3410
  192ETHOX   C217962  16.615  16.342  15.055  0.5783  0.2065  0.4908
  192ETHOX  H2117963  16.700  16.313  15.120 -0.9008 -0.6251  2.1227
  192ETHOX  H2317964  16.620  16.453  15.045  0.1368  0.0562 -2.2823
  193ETHOX   O117965  16.633  16.295  14.924 -0.1130 -0.0266  0.1387
  193ETHOX   C117966  16.698  16.390  14.845  0.2355  0.4371  0.0116
  193ETHOX  H1117967  16.641  16.484  14.833  1.2113  1.1189  0.5605
  193ETHOX  H1317968  16.796  16.412  14.893  0.9869 -1.8843 -0.3365
  193ETHOX   C217969  16.742  16.325  14.704  0.6401 -0.7059  0.0210
  193ETHOX  H2117970  16.808  16.238  14.722  1.5459  0.0502  0.4388
  193ETHOX  H2317971  16.795  16.405  14.649 -0.6519  1.4399  1.7321
  194ETHOX   O117972  16.630  16.283  14.626 -0.2866 -0.2409  0.4362
  194ETHOX   C117973  16.672  16.250  14.497 -0.1179  0.0966  0.1481
  194ETHOX  H1117974  16.750  16.171  14.510 -0.5651 -0.5597 -0.9807
  194ETHOX  H1317975  16.733  16.336  14.462  2.6387 -1.3305  1.1136
  194ETHOX   C217976  16.577  16.187  14.392 -0.0127  0.4998 -0.2524
  194ETHOX  H2117977  16.542  16.085  14.418 -2.3970  1.6782  1.5543
  194ETHOX  H2317978  16.624  16.177  14.292 -0.9178 -0.9769 -0.5614
  195ETHOX   O117979  16.463  16.269  14.381 -0.4873 -0.2428 -0.0394
  195ETHOX   C117980  16.409  16.274  14.254  0.1316  0.2760  0.0633
  195ETHOX  H1117981  16.480  16.336  14.195 -1.9435  2.5429 -0.1899
  195ETHOX  H1317982  16.412  16.172  14.211 -1.3815 -0.0985  0.7788
  195ETHOX   C217983  16.270  16.337  14.250  0.0192  0.4457  0.1485
  195ETHOX  H2117984  16.232  16.351  14.147 -1.3101  0.1346  0.5742
  195ETHOX  H2317985  16.280  16.439  14.293  1.8776 -0.1100  1.1723
  196ETHOX   O117986  16.173  16.264  14.328  0.5589  0.2990  0.7179
  196ETHOX   C117987  16.047  16.336  14.344 -0.5783  0.1167  0.0706
  196ETHOX  H1117988  16.011  16.399  14.260  1.8185  1.7179  0.1607
  196ETHOX  H1317989  15.962  16.266  14.363  0.2565 -1.4964 -1.7606
  196ETHOX   C217990  16.055  16.429  14.461  0.6990  0.0580 -0.2204
  196ETHOX  H2117991  15.958  16.484  14.468  0.3862 -0.5314  0.2383
  196ETHOX  H2317992  16.141  16.496  14.442  1.0309 -0.4994 -0.7082
  197ETHOX   O117993  16.069  16.350  14.582 -0.6144  0.6409  0.3042
  197ETHOX   C117994  16.075  16.431  14.694 -0.5044  0.4460 -0.1507
  197ETHOX  H1117995  16.142  16.513  14.661  3.0082 -1.3972  1.7724
  197ETHOX  H1317996  15.973  16.465  14.722 -0.4904 -0.0099  0.4875
  197ETHOX   C217997  16.135  16.358  14.819  0.2288 -0.5626 -0.2123
  197ETHOX  H2117998  16.138  16.428  14.905 -0.5366 -0.0484 -0.5858
  197ETHOX  H2317999  16.236  16.333  14.781  0.1034 -2.2751  0.4974
  198ETHOX   O118000  16.072  16.242  14.857 -0.3122  0.2144  0.4938
  198ETHOX   C118001  16.169  16.139  14.887 -0.2128  0.9896  0.6877
  198ETHOX  H1118002  16.206  16.090  14.794 -0.3801 -2.0508  2.0929
  198ETHOX  H1318003  16.259  16.181  14.937 -0.0301 -1.2501  2.3617
  198ETHOX   C218004  16.104  16.030  14.972  0.1950  0.4267  0.0299
  198ETHOX  H2118005  16.168  15.940  14.981 -0.2329 -0.0144 -1.1354
  198ETHOX  H2318006  16.020  15.987  14.913  0.5518 -0.2382  0.0022
  199ETHOX   O118007  16.081  16.063  15.108  0.0761 -0.2185  0.4844
  199ETHOX   C118008  16.007  15.963  15.166  0.2547 -0.4007 -0.6619
  199ETHOX  H1118009  16.073  15.883  15.205  1.8887  1.1793 -0.0346
  199ETHOX  H1318010  15.928  15.934  15.094 -1.1708 -0.4839  0.8714
  199ETHOX   C218011  15.933  16.014  15.293  0.2678 -0.4428 -0.2920
  199ETHOX  H2118012  16.010  16.065  15.354  2.9194 -2.4278 -1.7554
  199ETHOX  H2318013  15.904  15.922  15.347 -0.4346 -0.3306 -0.4698
  200ETHOX   O118014  15.822  16.094  15.272  0.7526  0.1280  0.4077
  200ETHOX   C118015  15.796  16.181  15.378  0.5613  0.5373  0.0766
  200ETHOX  H1118016  15.773  16.123  15.470 -0.0461  0.2219 -0.2690
  200ETHOX  H1318017  15.880  16.248  15.405 -0.7174  2.0774  0.3729
  200ETHOX   C218018  15.677  16.271  15.341 -0.9577  0.3491 -0.1976
  200ETHOX  H2118019  15.604  16.205  15.289  1.0124 -2.8763  0.7854
  200ETHOX  H2318020  15.725  16.344  15.273 -2.8570  0.5023 -1.4669
  201ETHOX   O118021  15.621  16.333  15.457  0.5788 -0.1189 -0.2132
  201ETHOX   C118022  15.711  16.395  15.537  0.2889  0.1885 -0.0518
  201ETHOX  H1118023  15.785  16.456  15.481  1.1557 -1.9363 -1.3236
  201ETHOX  H1318024  15.770  16.327  15.602  0.7882 -1.5325 -2.2143
  201ETHOX   C218025  15.632  16.482  15.634 -0.4514 -0.7838  0.1048
  201ETHOX  H2118026  15.704  16.519  15.710  1.8285 -0.1316 -2.2495
  201ETHOX  H2318027  15.553  16.423  15.686  0.9204  0.7400  4.3427
  202ETHOX   O118028  15.580  16.598  15.575 -0.1603  0.1554  0.0834
  202ETHOX   C118029  15.452  16.634  15.631 -0.2839 -0.1564 -0.6637
  202ETHOX  H1118030  15.395  16.691  15.555  0.9818  0.7767 -0.9473
  202ETHOX  H1318031  15.392  16.554  15.681  0.9548 -0.4109  0.4685
  202ETHOX   C218032  15.467  16.731  15.750 -0.2729 -0.0837 -0.2089
  202ETHOX  H2118033  15.362  16.756  15.775  0.6433  0.9390  3.1193
  202ETHOX  H2318034  15.515  16.824  15.712 -0.1743 -0.2278 -0.4377
  203ETHOX   O118035  15.533  16.680  15.868 -0.2017 -0.0655 -0.0108
  203ETHOX   C118036  15.509  16.775  15.974  0.5731 -0.4399  0.8947
  203ETHOX  H1118037  15.403  16.809  15.969  1.4106  2.8626  2.7875
  203ETHOX  H1318038  15.569  16.867  15.960 -0.2824 -0.1556 -1.2715
  203ETHOX   C218039  15.519  16.701  16.112 -0.2642 -0.0840 -0.1938
  203ETHOX  H2118040  15.442  16.622  16.111  0.4309 -0.8148  0.9789
  203ETHOX  H2318041  15.506  16.777  16.192  0.7399 -0.1209  0.0203
  204ETHOX   O118042  15.644  16.641  16.141 -0.4241  0.0246 -0.1380
  204ETHOX   C118043  15.746  16.732  16.161  0.3718 -0.5315 -0.5104
  204ETHOX  H1118044  15.844  16.684  16.143 -0.1657 -1.4250 -1.1243
  204ETHOX  H1318045  15.735  16.822  16.096 -0.3932 -0.2533 -0.0084
  204ETHOX   C218046  15.748  16.769  16.311  0.7763  0.2674 -0.2002
  204ETHOX  H2118047  15.855  16.778  16.340  0.4220 -0.2429  1.3546
  204ETHOX  H2318048  15.695  16.694  16.373  0.7114  0.8554  0.4539
  205ETHOX   O118049  15.676  16.890  16.336  0.2401  0.2151  0.2613
  205ETHOX   C118050  15.712  16.944  16.465  0.3114  0.9236  0.8769
  205ETHOX  H1118051  15.821  16.944  16.485  0.3488  1.0322  0.6773
  205ETHOX  H1318052  15.664  16.879  16.541  0.4373 -1.0747 -0.6629
  205ETHOX   C218053  15.664  17.089  16.460  0.3358 -0.7335 -0.1618
  205ETHOX  H2118054  15.649  17.127  16.563  1.7574 -2.2925  0.6715
  205ETHOX  H2318055  15.563  17.091  16.414  1.0559  0.7464 -1.8381
  206ETHOX   O118056  15.757  17.172  16.385  0.3469 -0.0445  0.1263
  206ETHOX   C118057  15.682  17.272  16.318 -0.0490  0.6827 -0.2212
  206ETHOX  H1118058  15.606  17.235  16.246  1.0045 -1.1369 -0.4428
  206ETHOX  H1318059  15.627  17.326  16.399 -2.1284 -0.9737 -0.4512
  206ETHOX   C218060  15.776  17.365  16.239  0.7217  0.5064 -1.1230
  206ETHOX  H2118061  15.721  17.455  16.204  1.3897  0.3992 -2.5323
  206ETHOX  H2318062  15.860  17.395  16.306  0.7237 -0.5767 -0.6272
  207ETHOX   O118063  15.820  17.311  16.113  0.5570 -0.1440 -0.1693
  207ETHOX   C118064  15.897  17.403  16.047 -0.1194  0.1588 -0.0809
  207ETHOX  H1118065  16.000  17.393  16.086 -0.5939 -0.8173  0.9835
  207ETHOX  H1318066  15.865  17.509  16.048 -1.2382 -0.1705  0.2469
  207ETHOX   C218067  15.902  17.374  15.895  0.4980 -0.0463 -0.2342
  207ETHOX  H2118068  15.927  17.267  15.878 -1.3101 -0.2455 -2.1469
  207ETHOX  H2318069  15.994  17.421  15.855 -0.1232  0.7214 -0.7900
  208ETHOX   O118070  15.780  17.413  15.821 -0.1168  0.2968 -0.0568
  208ETHOX   C118071  15.804  17.386  15.685 -0.0563 -0.1740 -0.4283
  208ETHOX  H1118072  15.897  17.441  15.657 -0.7972  1.9789  1.0630
  208ETHOX  H1318073  15.818  17.278  15.668  1.4787 -0.3287  1.4725
  208ETHOX   C218074  15.689  17.453  15.600  0.2144  0.3317 -0.7177
  208ETHOX  H2118075  15.593  17.430  15.651 -0.9372  2.6777 -1.6578
  208ETHOX  H2318076  15.696  17.418  15.495 -1.1204  1.2598 -1.1415
  209ETHOX   O118077  15.719  17.595  15.597 -0.4584 -0.1282 -0.5590
  209ETHOX   C118078  15.624  17.670  15.516  0.3652  0.4714  0.2669
  209ETHOX  H1118079  15.523  17.625  15.534  0.5297 -0.3031 -0.6650
  209ETHOX  H1318080  15.640  17.647  15.409 -0.0787 -3.8669  0.9508
  209ETHOX   C218081  15.622  17.821  15.553 -0.3974 -0.6455  0.2671
  209ETHOX  H2118082  15.636  17.832  15.662  0.5121 -3.7918  0.5552
  209ETHOX  H2318083  15.536  17.877  15.509  2.9942  2.5689 -3.1049
  210ETHOX   O118084  15.724  17.881  15.476 -0.5327 -0.2749  0.4572
  210ETHOX   C118085  15.758  18.013  15.522  0.3944  0.8965  0.4480
  210ETHOX  H1118086  15.675  18.087  15.522  0.7654  1.4704 -2.8500
  210ETHOX  H1318087  15.797  17.999  15.625 -0.2833  0.7107  0.6851
  210ETHOX   C218088  15.880  18.064  15.442 -0.1943 -0.0683  0.5943
  210ETHOX  H2118089  15.943  17.974  15.423 -0.5165 -0.4146  1.1492
  210ETHOX  H2318090  15.932  18.146  15.494  0.2628  1.5257 -2.1859
  211ETHOX   O118091  15.821  18.101  15.317 -0.0749  0.7869 -0.1459
  211ETHOX   C118092  15.918  18.159  15.226  0.8024  0.3020  0.1421
  211ETHOX  H1118093  15.977  18.230  15.288 -0.7276  2.0388 -0.2807
  211ETHOX  H1318094  15.981  18.082  15.179  2.9140  0.1954  2.9286
  211ETHOX   C218095  15.852  18.244  15.118 -0.1475  0.5674 -0.3441
  211ETHOX  H2118096  15.924  18.319  15.080  0.1907 -0.2429 -1.3555
  211ETHOX  H2318097  15.763  18.302  15.151  0.9843  1.2388  1.7254
  212ETHOX   O118098  15.808  18.156  15.010 -0.0005  0.0878 -0.3182
  212ETHOX   C118099  15.734  18.232  14.912 -0.2433 -0.0484 -0.3837
  212ETHOX  H1118100  15.654  18.284  14.967  0.9395  2.0876 -0.5725
  212ETHOX  H1318101  15.810  18.310  14.888 -0.2541  0.5454  1.4164
  212ETHOX   C218102  15.689  18.150  14.789 -0.5554  0.1256  0.3860
  212ETHOX  H2118103  15.779  18.102  14.746  0.8124  2.3306  0.5964
  212ETHOX  H2318104  15.641  18.224  14.721  0.3731 -1.3159 -1.9289
  213ETHOX   O118105  15.611  18.040  14.837 -0.3013 -0.1477  0.3149
  213ETHOX   C118106  15.479  18.080  14.861  0.3230  0.3186 -0.5183
  213ETHOX  H1118107  15.480  18.153  14.945  2.6862  0.9348 -0.9977
  213ETHOX  H1318108  15.448  18.138  14.772  1.3629  1.8430  0.0737
  213ETHOX   C218109  15.394  17.960  14.906  0.0906  0.3006  0.0945
  213ETHOX  H2118110  15.304  18.002  14.955  2.0300  1.0120  3.3267
  213ETHOX  H2318111  15.456  17.897  14.974  1.1499 -1.3482 -2.2643
  214ETHOX   O118112  15.366  17.875  14.793 -0.1807 -0.1285  0.2226
  214ETHOX   C118113  15.260  17.930  14.714  0.1952  1.0708  0.2596
  214ETHOX  H1118114  15.297  18.019  14.658 -0.6217 -0.0991 -2.2891
  214ETHOX  H1318115  15.181  17.957  14.787 -0.7665 -1.5423  0.2738
  214ETHOX   C218116  15.212  17.821  14.615 -0.1167  0.3520  0.3552
  214ETHOX  H2118117  15.297  17.792  14.550  0.2708  1.9010  0.1377
  214ETHOX  H2318118  15.135  17.871  14.553  0.6679 -1.2066 -1.9969
  215ETHOX   O118119  15.152  17.704  14.677 -0.4351  0.2093  0.3740
  215ETHOX   C118120  15.170  17.596  14.586  0.5380  0.8346  0.3663
  215ETHOX  H1118121  15.124  17.622  14.489 -1.5434  1.8803  1.5596
  215ETHOX  H1318122  15.274  17.564  14.563  0.3747  0.2333  0.4512
  215ETHOX   C218123  15.089  17.469  14.630  0.4784 -0.5320  0.3007
  215ETHOX  H2118124  15.110  17.391  14.554 -3.4629  0.2279 -1.7824
  215ETHOX  H2318125  14.985  17.505  14.646  1.4052  1.2390  3.1911
  216ETHOX   O118126  15.136  17.424  14.753 -0.2763 -0.0890 -0.0316
  216ETHOX   C118127  15.054  17.309  14.786 -0.2836 -0.4092 -0.7434
  216ETHOX  H1118128  15.110  17.219  14.752  1.2175  0.4687 -0.6699
  216ETHOX  H1318129  14.958  17.313  14.730 -0.2021  0.7865 -0.8161
  216ETHOX   C218130  15.022  17.278  14.937  0.0866 -0.6795 -1.1364
  216ETHOX  H2118131  15.116  17.236  14.978  0.1315  0.0495 -0.4722
  216ETHOX  H2318132  14.941  17.202  14.950 -0.3386  0.1301  1.7590
  217ETHOX   O118133  14.988  17.409  14.993 -0.4728  0.4213  0.2011
  217ETHOX   C118134  14.968  17.388  15.138 -0.0312  0.2709  0.8591
  217ETHOX  H1118135  14.897  17.464  15.178 -3.8933 -1.4869 -1.9496
  217ETHOX  H1318136  14.933  17.285  15.156 -0.4232  0.2737  0.1456
  217ETHOX   C218137  15.103  17.395  15.208 -0.3948  0.0383 -0.0524
  217ETHOX  H2118138  15.171  17.312  15.177 -2.1986 -0.7035 -2.3787
  217ETHOX  H2318139  15.083  17.378  15.316 -0.1787 -1.0308 -0.1713
  218ETHOX   O118140  15.170  17.525  15.199  0.0845 -1.2447 -0.2077
  218ETHOX   C118141  15.287  17.534  15.274 -0.2226  0.5649 -0.1570
  218ETHOX  H1118142  15.366  17.467  15.234 -0.0900  0.5250  0.1664
  218ETHOX  H1318143  15.264  17.509  15.380  0.0908 -0.0725 -0.2366
  218ETHOX   C218144  15.343  17.669  15.263 -0.7729  0.2654 -0.3205
  218ETHOX  H2118145  15.343  17.699  15.156 -0.7018  1.6156  0.0400
  218ETHOX  H2318146  15.447  17.678  15.301 -0.4064 -2.8395 -0.3874
  219ETHOX   O118147  15.266  17.754  15.341  0.4172  0.4484 -0.2990
  219ETHOX   C118148  15.286  17.893  15.312 -0.4435 -0.0746  0.0355
  219ETHOX  H1118149  15.395  17.918  15.313 -1.1438  3.4489 -0.0422
  219ETHOX  H1318150  15.247  17.900  15.209 -0.3272 -2.0359 -0.1927
  219ETHOX   C218151  15.224  17.981  15.427 -0.1101  0.1802  0.3330
  219ETHOX  H2118152  15.127  17.933  15.450  0.4766 -0.1542  2.2461
  219ETHOX  H2318153  15.205  18.087  15.401 -0.8612  0.2655  1.1849
  220ETHOX   O118154  15.314  17.993  15.537 -0.7833 -0.3024 -0.1809
  220ETHOX   C118155  15.269  18.076  15.643  0.2498  0.5216 -0.4812
  220ETHOX  H1118156  15.179  18.028  15.688 -1.0567  2.2800 -1.0514
  220ETHOX  H1318157  15.235  18.176  15.608 -2.1347 -0.4007 -0.9986
  220ETHOX   C218158  15.383  18.112  15.743  0.3411 -0.0998 -0.6077
  220ETHOX  H2118159  15.341  18.175  15.823  3.5468  0.9774  0.3695
  220ETHOX  H2318160  15.461  18.177  15.699 -0.5497  0.4180 -1.4583
  221ETHOX   O118161  15.445  17.999  15.804 -0.4914 -0.9468 -0.4902
  221ETHOX   C118162  15.373  17.951  15.913 -0.1181  0.1276  0.5190
  221ETHOX  H1118163  15.449  17.915  15.985 -1.6060 -0.8736  1.6664
  221ETHOX  H1318164  15.302  18.024  15.959 -1.7029 -1.0282  0.0077
  221ETHOX   C218165  15.278  17.835  15.881  0.6360  0.3128 -0.4248
  221ETHOX  H2118166  15.190  17.866  15.820 -1.4774  0.2622  2.3840
  221ETHOX  H2318167  15.239  17.792  15.976  2.5977 -2.0152 -0.5916
  222ETHOX   O118168  15.352  17.731  15.823  0.4917  0.1950 -0.3314
  222ETHOX   C118169  15.269  17.645  15.750  0.1464 -0.4204  0.5011
  222ETHOX  H1118170  15.200  17.703  15.683  0.3526 -0.8243 -0.0698
  222ETHOX  H1318171  15.338  17.592  15.681  0.7232  1.9028 -0.8563
  222ETHOX   C218172  15.175  17.553  15.830 -0.4176 -0.5705 -0.0614
  222ETHOX  H2118173  15.127  17.482  15.759  1.4564 -1.2806 -0.6800
  222ETHOX  H2318174  15.101  17.610  15.890 -0.0847 -0.3395  0.1314
  223ETHOX   O118175  15.247  17.473  15.926 -0.1161 -0.2072  0.4492
  223ETHOX   C118176  15.306  17.356  15.875 -0.0938  0.0854  0.8920
  223ETHOX  H1118177  15.245  17.326  15.787 -1.1486  1.9134  0.9470
  223ETHOX  H1318178  15.411  17.371  15.840 -0.0687 -0.6423  0.6463
  223ETHOX   C218179  15.334  17.245  15.974  0.0776  0.3265 -0.2896
  223ETHOX  H2118180  15.395  17.292  16.053 -1.2384 -1.1697  1.7224
  223ETHOX  H2318181  15.392  17.164  15.924 -0.8936 -0.2192 -0.5606
  224ETHOX   O118182  15.212  17.188  16.019  0.2466  0.3113  0.2883
  224ETHOX   C118183  15.245  17.108  16.133 -0.0568  0.4119  0.2869
  224ETHOX  H1118184  15.290  17.014  16.097  4.7937  2.9854 -1.1650
  224ETHOX  H1318185  15.324  17.150  16.199 -0.5079  1.5319  0.1465
  224ETHOX   C218186  15.119  17.080  16.205 -0.3282  0.6067 -0.6304
  224ETHOX  H2118187  15.133  17.011  16.290 -1.3557 -1.5963 -2.1735
  224ETHOX  H2318188  15.037  17.032  16.148 -1.1564  1.5923 -0.2954
  225ETHOX   O118189  15.058  17.201  16.247 -0.3138 -0.3347 -0.1070
  225ETHOX   C118190  14.951  17.170  16.336  0.5059  0.3468  0.0272
  225ETHOX  H1118191  14.987  17.105  16.419  1.2396 -0.2313 -0.7337
  225ETHOX  H1318192  14.875  17.116  16.276  1.5622  0.4089 -1.4053
  225ETHOX   C218193  14.882  17.304  16.382  0.1696  0.1597  0.2629
  225ETHOX  H2118194  14.784  17.259  16.410  0.7936 -0.6861  1.1691
  225ETHOX  H2318195  14.868  17.383  16.306 -3.6813 -0.0893  0.5074
  226ETHOX   O118196  14.953  17.357  16.489  0.2829  0.2317 -0.3899
  226ETHOX   C118197  14.873  17.447  16.559  0.3999 -0.2850 -0.0735
  226ETHOX  H1118198  14.826  17.523  16.493  0.9185 -0.6914 -0.9313
  226ETHOX  H1318199  14.796  17.387  16.612  2.1512 -1.1419  1.6586
  226ETHOX   C218200  14.949  17.498  16.686  0.1796 -0.2458  0.6185
  226ETHOX  H2118201  15.017  17.578  16.649 -0.6803  0.2598  0.1009
  226ETHOX  H2318202  15.007  17.412  16.725  0.4810  0.0158  0.7550
  227ETHOX   O118203  14.850  17.531  16.783  0.0839 -0.0722 -0.1691
  227ETHOX   C118204  14.894  17.600  16.900 -0.3318 -0.1548  0.1467
  227ETHOX  H1118205  14.933  17.695  16.857 -1.8357 -0.0274 -0.9988
  227ETHOX  H1318206  14.983  17.551  16.946  0.3745 -1.2147 -2.2144
  227ETHOX   C218207  14.788  17.625  17.009 -0.2538 -0.1829 -0.4682
  227ETHOX  H2118208  14.697  17.653  16.952 -0.6329 -1.2401 -0.4138
  227ETHOX  H2318209  14.832  17.706  17.071  1.7629  0.4204 -2.5748
  228ETHOX   O118210  14.765  17.505  17.085 -0.9294  0.2785 -0.5197
  228ETHOX   C118211  14.650  17.514  17.169  0.3096  0.0841 -0.2495
  228ETHOX  H1118212  14.687  17.563  17.262 -1.9454 -0.6773  1.1172
  228ETHOX  H1318213  14.571  17.571  17.115 -0.3093  0.2412  0.8017
  228ETHOX   C218214  14.597  17.371  17.186 -0.2943  0.2631  0.1096
  228ETHOX  H2118215  14.507  17.367  17.250  1.5499 -0.0209  2.8616
  228ETHOX  H2318216  14.680  17.316  17.236 -0.0779 -0.6630 -1.2149
  229ETHOX   O118217  14.553  17.318  17.061  0.1570  0.5560  0.4671
  229ETHOX   C118218  14.477  17.199  17.090 -0.0327  0.8049  0.1579
  229ETHOX  H1118219  14.376  17.216  17.132  0.0282 -2.3198  1.8683
  229ETHOX  H1318220  14.521  17.147  17.178 -1.0790  2.3389  1.6518
  229ETHOX   C218221  14.459  17.098  16.979  0.7912  0.7707  0.1094
  229ETHOX  H2118222  14.390  17.018  17.015  2.1702 -0.2756  0.4958
  229ETHOX  H2318223  14.551  17.052  16.937  0.4900  0.0074  0.2716
  230ETHOX   O118224  14.394  17.162  16.870  0.5678 -0.3965 -0.5887
  230ETHOX   C118225  14.303  17.072  16.800 -0.6451  0.3173  0.3604
  230ETHOX  H1118226  14.367  16.997  16.748 -0.9723  0.8270 -0.8040
  230ETHOX  H1318227  14.245  17.022  16.880  0.0907  1.6755  1.7927
  230ETHOX   C218228  14.208  17.150  16.711  0.3389 -0.6712  0.1999
  230ETHOX  H2118229  14.216  17.260  16.725 -0.6364  0.1082 -4.0886
  230ETHOX  H2318230  14.102  17.117  16.717 -0.5746  2.2021  1.2178
  231ETHOX   O118231  14.256  17.133  16.571 -1.1160  0.2066 -0.3219
  231ETHOX   C118232  14.160  17.179  16.477 -0.1879  1.1673  0.3180
  231ETHOX  H1118233  14.170  17.289  16.469  2.4200  1.1199  1.8251
  231ETHOX  H1318234  14.055  17.142  16.474  0.8700 -2.2522  0.4071
  231ETHOX   C218235  14.222  17.127  16.340  0.1234 -0.6381 -0.3518
  231ETHOX  H2118236  14.331  17.149  16.332  0.2634 -1.4659 -0.9371
  231ETHOX  H2318237  14.168  17.175  16.256  0.5128 -2.7519 -1.9203
  232ETHOX   O118238  14.210  16.987  16.317 -0.8630  0.2530 -0.0383
  232ETHOX   C118239  14.269  16.942  16.193  0.2354 -0.1997  0.3352
  232ETHOX  H1118240  14.240  17.010  16.110 -1.3886 -1.3164 -0.0583
  232ETHOX  H1318241  14.380  16.943  16.195  0.2859  2.0696 -0.4753
  232ETHOX   C218242  14.228  16.796  16.162  0.0020  0.0697 -0.1972
  232ETHOX  H2118243  14.282  16.726  16.229  0.5949 -1.1292 -1.8677
  232ETHOX  H2318244  14.269  16.773  16.062  0.3007 -0.4688  0.0476
  233ETHOX   O118245  14.085  16.777  16.138  0.9079 -0.4401 -0.3082
  233ETHOX   C118246  14.044  16.637  16.133 -0.3784 -0.5669 -0.8591
  233ETHOX  H1118247  14.100  16.590  16.050 -0.0292 -2.3409  0.3206
  233ETHOX  H1318248  14.097  16.587  16.216  0.9810 -0.1066 -1.4325
  233ETHOX   C218249  13.893  16.628  16.144  0.0239 -0.2566  0.0043
  233ETHOX  H2118250  13.849  16.704  16.212  0.4020  0.4884 -0.5639
  233ETHOX  H2318251  13.864  16.529  16.185  0.4850 -0.1717  0.5414
  234ETHOX   O118252  13.848  16.650  16.011 -0.3751 -0.0661  0.0345
  234ETHOX   C118253  13.709  16.621  16.006  0.1887 -0.0172 -0.2542
  234ETHOX  H1118254  13.700  16.511  16.016  2.2965 -0.2227 -0.1722
  234ETHOX  H1318255  13.663  16.675  16.092  0.7203  0.8818 -0.5211
  234ETHOX   C218256  13.645  16.671  15.879 -0.0193  0.6684 -0.1395
  234ETHOX  H2118257  13.539  16.640  15.869 -0.3858  0.7927  2.5800
  234ETHOX  H2318258  13.697  16.622  15.794  0.8677  0.3044  0.6026
  235ETHOX   O118259  13.647  16.814  15.869 -0.3166  0.0235  0.5799
  235ETHOX   C118260  13.620  16.854  15.733 -0.3164  0.4148  0.1839
  235ETHOX  H1118261  13.670  16.953  15.730 -0.5934  0.5510  0.0895
  235ETHOX  H1318262  13.687  16.795  15.667 -0.1824  1.6326 -0.7930
  235ETHOX   C218263  13.476  16.873  15.697  0.3017  0.4682 -0.0617
  235ETHOX  H2118264  13.481  16.945  15.613 -4.4167  2.3312  0.9315
  235ETHOX  H2318265  13.424  16.916  15.785  0.1560 -1.2734  0.7393
  236ETHOX   O118266  13.412  16.758  15.643  0.0947  0.3103 -0.3659
  236ETHOX   C118267  13.270  16.776  15.642 -0.5434 -0.1922  0.2310
  236ETHOX  H1118268  13.240  16.856  15.571  2.2603  1.3168  0.5895
  236ETHOX  H1318269  13.229  16.806  15.740  0.0948  1.2034  0.0994
  236ETHOX   C218270  13.206  16.648  15.582  0.0610 -0.0684 -0.2431
  236ETHOX  H2118271  13.100  16.644  15.616  0.0102 -2.3811 -0.4730
  236ETHOX  H2318272  13.264  16.559  15.613  0.6590  0.5085  0.3107
  237ETHOX   O118273  13.209  16.655  15.436  0.3308 -0.1427  0.2778
  237ETHOX   C118274  13.193  16.537  15.374 -0.2962  0.1385  0.0730
  237ETHOX  H1118275  13.280  16.475  15.402  0.0971  0.4486 -0.4540
  237ETHOX  H1318276  13.099  16.484  15.401  0.2094 -2.6644 -3.0715
  237ETHOX   C218277  13.204  16.529  15.218  0.2137 -0.3222  0.3102
  237ETHOX  H2118278  13.208  16.423  15.188 -1.5630 -1.4118  3.4547
  237ETHOX  H2318279  13.294  16.591  15.194 -1.2863  2.2442  0.8834
  238ETHOX   O118280  13.085  16.585  15.158  0.2678  0.2153  0.2190
  238ETHOX   C118281  13.089  16.599  15.012  0.3618  0.0069 -0.2896
  238ETHOX  H1118282  13.106  16.496  14.975 -0.3022 -0.9642  1.9320
  238ETHOX  H1318283  13.182  16.657  14.999  0.2802  0.6891  1.7604
  238ETHOX   C218284  12.972  16.674  14.953  0.1086  0.6950  0.0661
  238ETHOX  H2118285  12.879  16.623  14.986  0.7919 -1.0241 -0.5258
  238ETHOX  H2318286  12.973  16.679  14.842 -0.7223 -0.4636 -0.0121
  239ETHOX   O118287  12.978  16.804  15.007  0.0776 -0.2463  0.0660
  239ETHOX   C118288  12.851  16.869  14.978 -0.3168 -0.2649 -0.5615
  239ETHOX  H1118289  12.856  16.872  14.867 -1.6819  1.3382 -0.6187
  239ETHOX  H1318290  12.766  16.804  15.008 -1.0262 -0.0488 -2.0027
  239ETHOX   C218291  12.838  17.015  15.029 -0.3093 -0.1906 -0.5739
  239ETHOX  H2118292  12.910  17.079  14.974  0.0169 -0.4503 -0.4522
  239ETHOX  H2318293  12.738  17.057  15.008  0.2074  2.0136  1.0389
  240ETHOX   O118294  12.859  17.035  15.164 -0.2866  0.0054  0.1307
  240ETHOX   C118295  12.843  17.168  15.202 -0.4724 -0.9027 -0.2449
  240ETHOX  H1118296  12.890  17.232  15.124  0.2592 -1.5393 -0.3322
  240ETHOX  H1318297  12.909  17.186  15.289  0.8385  0.0245 -1.3919
  240ETHOX   C218298  12.703  17.201  15.239  0.7285 -0.0892  0.0268
  240ETHOX  H2118299  12.686  17.290  15.304  3.3326 -0.9205  2.0430
  240ETHOX  H2318300  12.659  17.121  15.304 -0.6862  1.6447  1.3198
  241ETHOX   O118301  12.625  17.229  15.121  0.1764  0.1016  0.1660
  241ETHOX   C118302  12.478  17.235  15.157  0.0342 -0.1437  0.5163
  241ETHOX  H1118303  12.435  17.141  15.195  0.1680 -1.0562 -1.4569
  241ETHOX  H1318304  12.463  17.321  15.226  4.4732  2.9142 -1.7933
  241ETHOX   C218305  12.408  17.279  15.023 -0.3123  0.5500 -0.2602
  241ETHOX  H2118306  12.303  17.275  15.059 -0.0516 -4.1679  0.6781
  241ETHOX  H2318307  12.416  17.197  14.948  1.4576  0.8195 -0.4029
  242ETHOX   O118308  12.442  17.400  14.968  0.2036 -0.5746 -0.5237
  242ETHOX   C118309  12.345  17.443  14.872 -0.1325  0.2264  0.0854
  242ETHOX  H1118310  12.371  17.547  14.842 -1.7647  0.4566 -0.6541
  242ETHOX  H1318311  12.243  17.437  14.917  0.0475 -1.0971  0.3740
  242ETHOX   C218312  12.332  17.348  14.755 -1.0253  0.9389  0.3244
  242ETHOX  H2118313  12.258  17.385  14.681  2.2288  0.4888 -3.4758
  242ETHOX  H2318314  12.297  17.245  14.776  0.4405  0.2262 -0.5401
  243ETHOX   O118315  12.458  17.339  14.680  0.5191 -0.7831 -1.0622
  243ETHOX   C118316  12.439  17.269  14.559 -0.4064  0.6914  0.2155
  243ETHOX  H1118317  12.409  17.164  14.580  1.5759 -0.1246 -0.7850
  243ETHOX  H1318318  12.357  17.306  14.493  0.1035  0.5989 -0.4857
  243ETHOX   C218319  12.571  17.263  14.485 -0.1104  0.5069  0.1050
  243ETHOX  H2118320  12.566  17.198  14.395  0.3184 -0.7763  0.9704
  243ETHOX  H2318321  12.657  17.224  14.543 -0.6152  0.5803  0.9269
  244ETHOX   O118322  12.614  17.393  14.448 -0.1926  0.4205 -0.8865
  244ETHOX   C118323  12.746  17.396  14.392 -0.6951  0.2081 -0.1456
  244ETHOX  H1118324  12.764  17.330  14.305 -0.1549  0.1501  0.0064
  244ETHOX  H1318325  12.818  17.366  14.471  1.3059 -0.9968 -2.2821
  244ETHOX   C218326  12.795  17.541  14.366  0.1561  0.2967  0.8812
  244ETHOX  H2118327  12.904  17.538  14.347  0.3916 -0.9456  2.2603
  244ETHOX  H2318328  12.774  17.601  14.457 -1.9673 -0.4267  0.9331
  245ETHOX   O118329  12.725  17.597  14.248 -0.9434 -0.1094 -0.7915
  245ETHOX   C118330  12.755  17.737  14.241  0.3962  0.0750  0.0472
  245ETHOX  H1118331  12.727  17.788  14.335  1.4276 -0.2842  0.5684
  245ETHOX  H1318332  12.866  17.750  14.237  0.2697  1.0697 -0.9371
  245ETHOX   C218333  12.688  17.787  14.113 -0.2106  0.8763 -0.3682
  245ETHOX  H2118334  12.696  17.896  14.096  2.0315  0.9400  0.7066
  245ETHOX  H2318335  12.582  17.755  14.120 -0.7583  2.8704  1.5636
  246ETHOX   O118336  12.739  17.726  13.996  0.0592 -0.1617  0.0275
  246ETHOX   C118337  12.670  17.767  13.882  1.2511  0.2963 -0.2533
  246ETHOX  H1118338  12.680  17.877  13.885  0.7810  0.3735 -1.1838
  246ETHOX  H1318339  12.563  17.737  13.878  1.2155  0.2583  0.8860
  246ETHOX   C218340  12.733  17.721  13.752  1.0812  0.2313  0.8700
  246ETHOX  H2118341  12.708  17.613  13.743  0.9360  0.3609 -0.5807
  246ETHOX  H2318342  12.843  17.738  13.761  1.1379  0.1939  0.2776
  247ETHOX   O118343  12.682  17.788  13.636 -0.0403 -1.1926  0.1096
  247ETHOX   C118344  12.772  17.766  13.522 -0.2627 -0.4832 -0.4164
  247ETHOX  H1118345  12.867  17.816  13.550  0.5615 -2.4274  0.4244
  247ETHOX  H1318346  12.796  17.661  13.495 -1.3391 -0.5711 -1.1170
  247ETHOX   C218347  12.720  17.821  13.391  0.4133  0.4850  1.0977
  247ETHOX  H2118348  12.680  17.924  13.404  1.7201  1.3197 -0.8875
  247ETHOX  H2318349  12.802  17.817  13.316 -0.0119  0.6263  0.6178
  248ETHOX   O118350  12.623  17.728  13.343  0.6845 -0.9401  0.1552
  248ETHOX   C118351  12.590  17.746  13.208 -1.2917  0.8073 -0.1559
  248ETHOX  H1118352  12.571  17.852  13.184  3.7339  2.6144  2.4027
  248ETHOX  H1318353  12.680  17.718  13.149 -1.6004 -0.8594  0.1066
  248ETHOX   C218354  12.472  17.661  13.163  0.3282 -0.1756 -0.0757
  248ETHOX  H2118355  12.415  17.697  13.075 -1.0045 -0.6562  0.5711
  248ETHOX  H2318356  12.398  17.653  13.245  1.4233  0.3767  1.0066
  249ETHOX   O118357  12.535  17.528  13.137 -0.7496  0.2796 -0.4596
  249ETHOX   C118358  12.437  17.426  13.108 -0.2628 -0.0679 -0.7522
  249ETHOX  H1118359  12.477  17.332  13.152  1.4822  1.4698  1.0715
  249ETHOX  H1318360  12.348  17.454  13.168  0.3277  0.4691 -0.1212
  249ETHOX   C218361  12.423  17.410  12.959  0.2286  0.6452  0.2354
  249ETHOX  H2118362  12.416  17.511  12.913 -0.3049  0.4337 -0.1500
  249ETHOX  H2318363  12.327  17.357  12.942  0.5343  0.9723 -3.0512
  250ETHOX   O118364  12.536  17.338  12.915  0.1006 -0.2346 -0.0635
  250ETHOX   C118365  12.530  17.320  12.776  0.3170 -0.6811  0.0926
  250ETHOX  H1118366  12.462  17.235  12.753  0.2145 -0.0319 -2.3171
  250ETHOX  H1318367  12.487  17.403  12.715  1.3201 -0.9797 -1.0558
  250ETHOX   C218368  12.667  17.286  12.715  0.4526 -0.3781 -0.7652
  250ETHOX  H2118369  12.695  17.182  12.742 -2.6980 -0.8370  1.3228
  250ETHOX  H2318370  12.740  17.363  12.748 -2.6160  2.4284  0.0157
  251ETHOX   O118371  12.665  17.287  12.574  0.1997 -0.7859  0.4273
  251ETHOX   C118372  12.627  17.170  12.511  0.0586  0.1942 -0.1189
  251ETHOX  H1118373  12.559  17.105  12.570  2.1349 -1.3809  0.6988
  251ETHOX  H1318374  12.717  17.110  12.487  0.1464  0.4351 -0.4038
  251ETHOX   C218375  12.579  17.213  12.381  0.5633  0.5890  0.0009
  251ETHOX  H2118376  12.497  17.285  12.398 -0.1574 -0.2837  0.2923
  251ETHOX  H2318377  12.521  17.133  12.332 -1.6107  1.4923  0.9871
  252ETHOX   O118378  12.672  17.272  12.295 -0.5606  0.6077  0.0728
  252ETHOX   C118379  12.751  17.182  12.224  0.2819  1.1530 -0.2798
  252ETHOX  H1118380  12.822  17.138  12.298  0.0232 -0.7132 -1.0850
  252ETHOX  H1318381  12.685  17.100  12.189 -0.0371  0.3487  1.9677
  252ETHOX   C218382  12.840  17.236  12.111  0.6549 -0.3966  0.8094
  252ETHOX  H2118383  12.912  17.153  12.093  1.1190  0.3082 -0.7543
  252ETHOX  H2318384  12.899  17.324  12.144  1.9073 -0.7498 -0.3855
  253ETHOX   O118385  12.757  17.278  12.006  0.2253 -0.3255  0.3826
  253ETHOX   C118386  12.833  17.329  11.899 -0.2652  0.6035  0.5679
  253ETHOX  H1118387  12.913  17.259  11.869  0.1861  1.3595 -0.0442
  253ETHOX  H1318388  12.896  17.410  11.943  1.3068 -1.3090  2.0087
  253ETHOX   C218389  12.755  17.372  11.770  0.5065  0.9597 -0.6271
  253ETHOX  H2118390  12.822  17.424  11.699  0.3208  1.9320 -0.1035
  253ETHOX  H2318391  12.682  17.447  11.807  0.6522  0.3536  0.9718
  254ETHOX   O118392  12.682  17.267  11.709  0.0655 -0.1236 -0.4014
  254ETHOX   C118393  12.607  17.321  11.603 -0.4175 -0.0169 -0.8615
  254ETHOX  H1118394  12.539  17.397  11.646  1.6876  0.9916  0.9073
  254ETHOX  H1318395  12.681  17.365  11.533  0.9163  0.8119  0.9737
  254ETHOX   C218396  12.522  17.215  11.544  0.3619  0.3088 -0.7368
  254ETHOX  H2118397  12.562  17.116  11.576 -0.7128 -0.5666 -1.9928
  254ETHOX  H2318398  12.532  17.216  11.433 -1.5883  3.6670 -0.9821
  255ETHOX   O118399  12.390  17.215  11.600  0.7141  0.2836  0.0485
  255ETHOX   C118400  12.296  17.154  11.516  0.0024  0.0455  0.0325
  255ETHOX  H1118401  12.295  17.051  11.558 -1.5143  0.7192  1.7856
  255ETHOX  H1318402  12.332  17.143  11.412 -0.9666 -1.4383 -0.1645
  255ETHOX   C218403  12.164  17.220  11.531  0.6075  0.2841 -0.2577
  255ETHOX  H2118404  12.159  17.258  11.636  3.0028 -0.4853  0.1993
  255ETHOX  H2318405  12.084  17.148  11.503  1.8129 -0.7825 -1.0227
  256ETHOX   O118406  12.156  17.329  11.432 -0.2972 -0.1198 -0.2097
  256ETHOX   C118407  12.032  17.397  11.432 -0.1458 -0.2031 -0.2162
  256ETHOX  H1118408  11.959  17.319  11.401 -0.1127 -0.7653  1.0655
  256ETHOX  H1318409  11.990  17.423  11.531 -0.4293 -0.5596 -0.2408
  256ETHOX   C218410  12.040  17.531  11.351  0.8053 -1.1691  0.3344
  256ETHOX  H2118411  12.139  17.574  11.379  0.5734 -0.2763 -0.1787
  256ETHOX  H2318412  11.951  17.592  11.376 -0.7607 -1.2889 -4.1643
  257ETHOX   O118413  12.038  17.522  11.207 -0.4544  0.3998  0.4229
  257ETHOX   C118414  11.907  17.495  11.160  0.1944  0.6355  0.3571
  257ETHOX  H1118415  11.835  17.576  11.184 -1.4808 -0.7493  0.1759
  257ETHOX  H1318416  11.879  17.404  11.217 -0.3051 -0.3177 -1.3335
  257ETHOX   C218417  11.905  17.447  11.013  0.6107 -0.9293 -0.2739
  257ETHOX  H2118418  11.797  17.425  10.996  0.0170  1.4171  0.1511
  257ETHOX  H2318419  11.962  17.352  11.004  0.8315 -0.6018 -4.0996
  258ETHOX   O118420  11.950  17.542  10.914 -0.3652 -0.0171  0.1255
  258ETHOX   C118421  11.905  17.502  10.784  0.3009 -0.0983 -0.0602
  258ETHOX  H1118422  11.896  17.391  10.779 -0.1091 -0.0284 -1.4239
  258ETHOX  H1318423  11.798  17.531  10.783 -0.3689 -2.3833  0.3063
  258ETHOX   C218424  11.973  17.559  10.662 -0.1683  0.3724 -0.3846
  258ETHOX  H2118425  11.927  17.510  10.574 -1.6776  1.2988 -0.1425
  258ETHOX  H2318426  12.078  17.523  10.658  0.2904  1.3703  1.6138
  259ETHOX   O118427  11.962  17.700  10.661 -0.9685  0.3579  0.1632
  259ETHOX   C118428  12.003  17.747  10.535 -0.1081  0.2559 -0.1257
  259ETHOX  H1118429  12.089  17.684  10.501  0.4133  0.2866  1.0894
  259ETHOX  H1318430  11.925  17.724  10.460 -0.6296  0.9880  0.1849
  259ETHOX   C218431  12.033  17.895  10.556  0.6357 -0.0428  0.1094
  259ETHOX  H2118432  12.093  17.907  10.648  0.3005  1.4708  0.1592
  259ETHOX  H2318433  11.931  17.937  10.573  0.8944  0.6235  0.0425
  260ETHOX   O118434  12.084  17.957  10.437 -0.3810 -0.3521 -0.3159
  260ETHOX   C118435  12.220  17.996  10.465  0.7962 -0.0616 -0.2060
  260ETHOX  H1118436  12.224  18.075  10.543 -0.3377  1.4968 -1.6377
  260ETHOX  H1318437  12.285  17.912  10.497  0.6872  0.2275  0.8008
  260ETHOX   C218438  12.284  18.077  10.346  0.0197 -0.1955 -0.1077
  260ETHOX  H2118439  12.381  18.116  10.382 -0.3989  0.7694  0.0284
  260ETHOX  H2318440  12.221  18.166  10.323 -0.1196 -1.0139 -3.4087
  261ETHOX   O118441  12.302  17.992  10.242 -0.8537 -0.3052  0.6428
  261ETHOX   C118442  12.387  18.052  10.139  0.0240  0.1147  0.4276
  261ETHOX  H1118443  12.351  18.149  10.098  0.5281  0.1864  0.1513
  261ETHOX  H1318444  12.492  18.059  10.172  0.7915 -1.2413 -1.5392
  261ETHOX   C218445  12.384  17.951  10.021  0.4530 -0.2192  0.4279
  261ETHOX  H2118446  12.413  17.851  10.061 -2.7337 -1.4991 -0.0963
  261ETHOX  H2318447  12.440  17.988   9.933 -0.8042 -2.1517 -1.3030
  262ETHOX   O118448  12.252  17.944   9.963 -0.0752  0.2280 -0.7399
  262ETHOX   C118449  12.238  17.829   9.881  0.0613 -0.4457  0.3569
  262ETHOX  H1118450  12.243  17.740   9.947 -2.4901 -0.9271 -0.0281
  262ETHOX  H1318451  12.319  17.831   9.805  1.5078  0.4007  1.8384
  262ETHOX   C218452  12.091  17.839   9.828 -0.1247  0.2302  0.4002
  262ETHOX  H2118453  12.032  17.870   9.917 -0.6987 -0.2053  0.1721
  262ETHOX  H2318454  12.054  17.736   9.809  2.7723 -0.7281 -0.5314
  263ETHOX   O118455  12.084  17.911   9.714  0.4327  0.6581  0.1406
  263ETHOX   C118456  11.951  17.940   9.692 -0.3089 -0.7368 -0.4795
  263ETHOX  H1118457  11.908  18.005   9.771 -0.7934 -1.2494 -0.3179
  263ETHOX  H1318458  11.883  17.854   9.674 -0.8016 -0.6164  0.7674
  263ETHOX   C218459  11.946  18.016   9.558  0.8285  0.3097  0.0338
  263ETHOX  H2118460  11.845  18.060   9.545  0.1349 -1.5250 -1.1900
  263ETHOX  H2318461  11.954  17.945   9.473  0.9283 -0.2194  0.4855
  264ETHOX   O118462  12.037  18.123   9.559  0.2359 -0.2203  0.1520
  264ETHOX   C118463  12.018  18.185   9.442 -0.1118 -0.2548  0.2007
  264ETHOX  H1118464  11.917  18.233   9.442  0.5946  1.3039  0.3026
  264ETHOX  H1318465  12.018  18.110   9.360 -0.9383 -0.2918  0.2227
  264ETHOX   C218466  12.126  18.287   9.433 -0.2557 -0.1768 -0.4453
  264ETHOX  H2118467  12.225  18.255   9.473  0.5007 -0.2901 -2.3035
  264ETHOX  H2318468  12.095  18.368   9.502 -1.7310 -1.4646  0.5051
  265ETHOX   O118469  12.148  18.334   9.299  0.8600 -0.3423  0.0443
  265ETHOX   C118470  12.226  18.258   9.211  0.0437  0.0377 -0.0617
  265ETHOX  H1118471  12.335  18.253   9.234  0.0997  1.6361  0.0985
  265ETHOX  H1318472  12.192  18.153   9.227  0.1737  0.0085  0.0156
  265ETHOX   C218473  12.211  18.302   9.061  0.5110  0.4241  0.1860
  265ETHOX  H2118474  12.102  18.290   9.041  0.7478 -1.6794 -0.0768
  265ETHOX  H2318475  12.264  18.231   8.994 -0.9909 -0.2071 -0.3749
  265ETHOX   OZ18476  12.246  18.437   9.044 -0.0976  0.1951  0.7725
  265ETHOX  HZ118477  12.252  18.457   8.950 -0.8574 -0.9748  0.4572
    1ETHOX   O118478   8.467  14.015   7.641  0.5072  0.5237 -0.1133
    1ETHOX  HO118479   8.378  13.979   7.640 -0.2932  2.2476 -2.6102
    1ETHOX   C118480   8.473  14.086   7.765  0.1302  0.3269  0.9222
    1ETHOX  H1118481   8.493  14.022   7.852  1.0552 -0.1276  0.3849
    1ETHOX  H1318482   8.379  14.145   7.771 -0.4342 -0.4078 -0.2436
    1ETHOX   C218483   8.590  14.185   7.751  0.6394 -0.4387 -0.0382
    1ETHOX  H2118484   8.594  14.260   7.832 -1.2487  1.6685 -1.7655
    1ETHOX  H2318485   8.576  14.249   7.661  0.3524  2.9808  2.2390
    2ETHOX   O118486   8.711  14.115   7.753 -0.2826  0.2305 -0.5796
    2ETHOX   C118487   8.818  14.200   7.785 -0.3386  0.0747 -0.1160
    2ETHOX  H1118488   8.827  14.282   7.711  0.6125 -0.0103 -0.1082
    2ETHOX  H1318489   8.793  14.240   7.886 -2.0727  0.4033 -0.6498
    2ETHOX   C218490   8.958  14.139   7.784 -0.1374  0.1066  0.0896
    2ETHOX  H2118491   8.984  14.054   7.851  2.3205  1.1053  0.5289
    2ETHOX  H2318492   9.024  14.220   7.821 -1.6778  0.9292  1.1665
    3ETHOX   O118493   9.000  14.102   7.650  0.4781 -0.2795  0.2872
    3ETHOX   C118494   9.139  14.057   7.654  0.1533 -0.2623 -0.4997
    3ETHOX  H1118495   9.140  13.965   7.716  0.1053  1.3926  2.1102
    3ETHOX  H1318496   9.202  14.131   7.708  0.6563 -2.1894  1.6663
    3ETHOX   C218497   9.193  14.026   7.518 -0.6742 -0.3421  0.3083
    3ETHOX  H2118498   9.291  13.973   7.520 -1.2170 -1.4765 -1.2016
    3ETHOX  H2318499   9.202  14.124   7.468  0.6062  0.1398  1.4109
    4ETHOX   O118500   9.106  13.938   7.452 -0.0132 -0.2963 -0.8929
    4ETHOX   C118501   9.160  13.875   7.335  0.3348 -0.3210 -0.1000
    4ETHOX  H1118502   9.206  13.957   7.276 -2.2404  0.8867 -0.5361
    4ETHOX  H1318503   9.245  13.808   7.361  0.3724 -0.7423 -1.2807
    4ETHOX   C218504   9.053  13.800   7.257 -0.7092  0.2306 -0.5185
    4ETHOX  H2118505   9.087  13.773   7.155 -1.8122 -1.1743 -0.5440
    4ETHOX  H2318506   8.960  13.860   7.248 -0.8313 -0.0060 -0.8599
    5ETHOX   O118507   9.021  13.675   7.318  0.1698  0.5508 -0.3849
    5ETHOX   C118508   8.895  13.623   7.274 -0.9637  0.1032  0.3074
    5ETHOX  H1118509   8.815  13.685   7.321 -0.8308  0.0706  0.5797
    5ETHOX  H1318510   8.889  13.631   7.163  2.5357 -1.6506 -0.1702
    5ETHOX   C218511   8.874  13.477   7.319 -0.5660  0.7586 -0.9432
    5ETHOX  H2118512   8.766  13.464   7.342 -0.5978  1.5955 -0.6124
    5ETHOX  H2318513   8.928  13.462   7.415 -1.4342 -0.0391 -0.5618
    6ETHOX   O118514   8.910  13.384   7.222  0.1664 -0.0689 -0.7522
    6ETHOX   C118515   8.906  13.250   7.276 -0.0419  0.7199  0.1293
    6ETHOX  H1118516   8.976  13.244   7.362 -0.4277  1.2626  0.4883
    6ETHOX  H1318517   8.802  13.229   7.310 -0.7992  1.4337 -1.6354
    6ETHOX   C218518   8.936  13.154   7.161 -0.4427  0.0350 -0.1041
    6ETHOX  H2118519   8.874  13.185   7.073 -1.7054 -0.0489  0.7239
    6ETHOX  H2318520   8.904  13.057   7.205 -0.3634  0.2823  0.5023
    7ETHOX   O118521   9.080  13.149   7.139  0.3340  0.1124 -0.3890
    7ETHOX   C118522   9.109  13.132   7.002 -0.9287 -0.0907 -0.0552
    7ETHOX  H1118523   9.096  13.025   6.976  0.5724 -0.0491 -1.0780
    7ETHOX  H1318524   9.035  13.196   6.950 -0.6718 -1.2899 -1.9600
    7ETHOX   C218525   9.248  13.178   6.951  0.2634 -0.6736 -0.3699
    7ETHOX  H2118526   9.282  13.265   7.012 -0.8373  0.8720 -1.8361
    7ETHOX  H2318527   9.233  13.226   6.852  0.1267  0.3033  0.1020
    8ETHOX   O118528   9.335  13.070   6.946  0.3514  0.0728 -0.0173
    8ETHOX   C118529   9.462  13.114   6.893 -0.4769 -0.1499 -0.0867
    8ETHOX  H1118530   9.522  13.154   6.978 -2.5027  3.1682 -0.0281
    8ETHOX  H1318531   9.447  13.194   6.818 -0.0619  1.2322  1.2325
    8ETHOX   C218532   9.545  12.997   6.848  0.9128  0.3802  0.7849
    8ETHOX  H2118533   9.632  13.035   6.790 -0.2863  0.5502 -0.9526
    8ETHOX  H2318534   9.475  12.939   6.784 -0.3334 -0.2452  2.6198
    9ETHOX   O118535   9.592  12.908   6.949  0.0525  0.0935  0.2394
    9ETHOX   C118536   9.718  12.856   6.914  0.2780  0.0643 -0.0231
    9ETHOX  H1118537   9.692  12.790   6.829  1.0215  0.0771 -0.2649
    9ETHOX  H1318538   9.781  12.937   6.872  1.5983 -0.0624  1.5864
    9ETHOX   C218539   9.783  12.781   7.031  0.0558  0.0500 -0.1351
    9ETHOX  H2118540   9.786  12.844   7.123  0.1777  1.8519 -1.3330
    9ETHOX  H2318541   9.888  12.755   7.004 -0.7093 -3.3964 -0.2521
   10ETHOX   O118542   9.701  12.678   7.075 -0.0167 -0.0947  0.0743
   10ETHOX   C118543   9.771  12.597   7.170  0.2472  0.0434  0.1486
   10ETHOX  H1118544   9.789  12.658   7.261 -1.9826 -0.7767  1.2230
   10ETHOX  H1318545   9.869  12.554   7.138  1.1273  2.5491 -0.7115
   10ETHOX   C218546   9.682  12.479   7.219 -0.1180  0.2978 -0.2533
   10ETHOX  H2118547   9.594  12.517   7.276  1.7256  0.7742  2.4515
   10ETHOX  H2318548   9.731  12.407   7.289  0.9013  0.1700 -1.0873
   11ETHOX   O118549   9.647  12.397   7.103 -0.0908 -0.5104  0.8861
   11ETHOX   C118550   9.540  12.300   7.131 -0.3478  0.1015 -0.4757
   11ETHOX  H1118551   9.575  12.220   7.200  0.8248  1.2697  0.3321
   11ETHOX  H1318552   9.462  12.359   7.184  0.3838 -1.1264  2.1529
   11ETHOX   C218553   9.503  12.227   7.002 -0.5155  0.1456  0.6718
   11ETHOX  H2118554   9.399  12.190   6.996 -1.2614  1.6651  2.9785
   11ETHOX  H2318555   9.519  12.289   6.911 -1.5671  0.0921  0.4382
   12ETHOX   O118556   9.591  12.114   6.988  0.6082  0.7225  0.8116
   12ETHOX   C118557   9.570  12.052   6.864 -0.4173 -0.1021 -1.0205
   12ETHOX  H1118558   9.601  12.132   6.793 -0.1128  1.3966  0.7336
   12ETHOX  H1318559   9.468  12.017   6.838 -1.0900  0.9581  0.0357
   12ETHOX   C218560   9.659  11.933   6.849  0.4929  0.4110  0.1593
   12ETHOX  H2118561   9.759  11.980   6.860 -0.4113  2.5905 -0.6087
   12ETHOX  H2318562   9.649  11.891   6.747 -0.8264  0.8506  0.0884
   13ETHOX   O118563   9.626  11.843   6.959  0.3223  0.2391  0.5691
   13ETHOX   C118564   9.704  11.721   6.951  0.4658 -0.4779  0.0595
   13ETHOX  H1118565   9.687  11.673   6.853 -0.5033 -2.0213  0.9525
   13ETHOX  H1318566   9.811  11.749   6.968  0.1974  1.9610 -1.7022
   13ETHOX   C218567   9.678  11.614   7.054 -0.3225  0.3583 -0.5005
   13ETHOX  H2118568   9.670  11.670   7.150  0.1584 -2.8284  1.5708
   13ETHOX  H2318569   9.766  11.548   7.068 -0.6359  0.2265  1.0499
   14ETHOX   O118570   9.553  11.539   7.038  0.3419 -0.5774  0.1702
   14ETHOX   C118571   9.545  11.427   7.115  0.3662  0.7245 -0.3834
   14ETHOX  H1118572   9.594  11.452   7.211  2.0578  2.0772 -1.5416
   14ETHOX  H1318573   9.586  11.335   7.067 -2.6602 -2.0031  1.8286
   14ETHOX   C218574   9.389  11.382   7.132  0.1662  0.3445  0.6402
   14ETHOX  H2118575   9.394  11.280   7.176  0.0434 -0.5034 -1.1762
   14ETHOX  H2318576   9.347  11.362   7.031  1.8872 -2.7285  0.4201
   15ETHOX   O118577   9.312  11.470   7.210  0.2163 -0.5166  0.0707
   15ETHOX   C118578   9.172  11.451   7.196  0.4868 -0.1287  0.2350
   15ETHOX  H1118579   9.140  11.478   7.093 -2.7237 -1.7482  0.6981
   15ETHOX  H1318580   9.146  11.344   7.200  0.0033 -0.0813 -0.9690
   15ETHOX   C218581   9.082  11.532   7.295 -0.3652 -0.3934 -0.7170
   15ETHOX  H2118582   8.980  11.510   7.258 -0.3140  0.3987 -1.3487
   15ETHOX  H2318583   9.090  11.496   7.400  1.2701 -2.4186 -1.4603
   16ETHOX   O118584   9.094  11.670   7.294 -0.2595  0.3103 -0.1669
   16ETHOX   C118585   9.004  11.753   7.364  0.3729  1.0233  0.1590
   16ETHOX  H1118586   8.935  11.801   7.290  0.5947  2.3368  0.7667
   16ETHOX  H1318587   8.936  11.694   7.429  0.4413 -1.4029 -1.8245
   16ETHOX   C218588   9.083  11.862   7.447  0.2091 -0.2918 -0.0069
   16ETHOX  H2118589   9.171  11.900   7.391  1.5468  1.4425  3.0179
   16ETHOX  H2318590   9.129  11.807   7.532 -1.7356 -1.7790  0.1431
   17ETHOX   O118591   9.002  11.970   7.501 -0.1694 -0.0506  0.1027
   17ETHOX   C118592   8.987  12.075   7.405 -0.0390  0.2817 -0.0440
   17ETHOX  H1118593   9.076  12.110   7.349 -0.1832 -0.6596 -0.8873
   17ETHOX  H1318594   8.916  12.035   7.329  0.6281  1.6993 -1.4764
   17ETHOX   C218595   8.914  12.193   7.472 -0.8407  0.1736  0.6093
   17ETHOX  H2118596   8.835  12.158   7.542 -0.6219 -2.3293 -0.2940
   17ETHOX  H2318597   8.867  12.260   7.397 -1.4619 -1.2893 -0.3550
   18ETHOX   O118598   9.003  12.268   7.555 -0.0268  0.3131  0.0581
   18ETHOX   C118599   8.954  12.400   7.580 -0.1355  0.4581  1.0397
   18ETHOX  H1118600   8.948  12.457   7.484  3.3958 -0.6210  0.0263
   18ETHOX  H1318601   8.851  12.403   7.622 -0.8983 -0.0843 -0.6893
   18ETHOX   C218602   9.052  12.471   7.673  0.8234  0.4302 -0.1822
   18ETHOX  H2118603   9.032  12.580   7.679 -0.0304  0.2220  1.1037
   18ETHOX  H2318604   9.150  12.464   7.620  0.5199  0.5162 -0.7620
   19ETHOX   O118605   9.060  12.419   7.808 -0.6503  0.4823 -0.1419
   19ETHOX   C118606   9.153  12.498   7.887  0.0363 -0.1293  0.1162
   19ETHOX  H1118607   9.141  12.604   7.855 -0.0964  0.9901  3.4822
   19ETHOX  H1318608   9.255  12.464   7.860 -0.1756  0.0411 -0.9625
   19ETHOX   C218609   9.123  12.499   8.033  0.3230  0.0195  0.6756
   19ETHOX  H2118610   9.018  12.533   8.050  0.4539  1.3705 -0.9587
   19ETHOX  H2318611   9.193  12.573   8.079 -1.2169  1.6084  0.5742
   20ETHOX   O118612   9.137  12.371   8.102 -0.0060  0.4480  0.3369
   20ETHOX   C118613   9.272  12.352   8.133 -0.0075  0.4611 -0.5124
   20ETHOX  H1118614   9.332  12.330   8.042  0.8511  0.8379 -0.0482
   20ETHOX  H1318615   9.310  12.441   8.188 -2.6887  0.5920  1.3068
   20ETHOX   C218616   9.283  12.230   8.226 -0.1508 -0.0824  0.7640
   20ETHOX  H2118617   9.380  12.179   8.210 -0.6853 -1.5321  1.9538
   20ETHOX  H2318618   9.210  12.151   8.198  0.4845  0.4458 -2.9456
   21ETHOX   O118619   9.285  12.266   8.365 -0.2196 -0.7586 -1.0746
   21ETHOX   C118620   9.254  12.156   8.439  0.4911  1.3057 -0.3577
   21ETHOX  H1118621   9.331  12.079   8.419 -0.1702  0.6621 -0.5056
   21ETHOX  H1318622   9.151  12.122   8.412  0.1514  0.5142  1.7527
   21ETHOX   C218623   9.260  12.175   8.593 -0.9294 -0.0905 -0.8229
   21ETHOX  H2118624   9.353  12.227   8.623 -0.3794 -1.5508  0.0918
   21ETHOX  H2318625   9.258  12.072   8.632 -3.4308  0.1204 -0.1904
   22ETHOX   O118626   9.140  12.243   8.632 -0.2324  0.0182  0.1127
   22ETHOX   C118627   9.144  12.254   8.771 -0.2129  0.4770 -0.0374
   22ETHOX  H1118628   9.160  12.158   8.825  0.7725 -0.0333 -1.1987
   22ETHOX  H1318629   9.237  12.307   8.803  0.1511  0.4427 -1.0165
   22ETHOX   C218630   9.017  12.326   8.825  0.0254 -0.3434 -0.0879
   22ETHOX  H2118631   9.048  12.372   8.921 -0.8134 -0.7424  0.3841
   22ETHOX  H2318632   8.983  12.410   8.761 -0.6831  1.0539  2.0072
   23ETHOX   O118633   8.905  12.239   8.843 -0.6157  0.5694  0.4688
   23ETHOX   C118634   8.801  12.315   8.901  0.7799  0.2487 -0.4959
   23ETHOX  H1118635   8.767  12.389   8.825 -2.2932 -0.1675  0.3731
   23ETHOX  H1318636   8.829  12.356   9.000 -1.2792 -1.7666  1.0321
   23ETHOX   C218637   8.672  12.237   8.935 -1.0153  0.1815  0.2214
   23ETHOX  H2118638   8.636  12.188   8.842 -1.7565  0.4553  0.3620
   23ETHOX  H2318639   8.595  12.313   8.960  0.0054  1.2583  0.1503
   24ETHOX   O118640   8.689  12.149   9.043  0.2302  0.8217 -0.0167
   24ETHOX   C118641   8.563  12.076   9.062  0.6430 -0.0322  0.2293
   24ETHOX  H1118642   8.482  12.141   9.101 -1.0302 -0.1978 -2.7107
   24ETHOX  H1318643   8.531  12.033   8.965 -1.5681 -1.8677  1.6812
   24ETHOX   C218644   8.591  11.952   9.149  0.3778 -0.5031 -0.8390
   24ETHOX  H2118645   8.678  11.892   9.116 -0.1900 -1.6563 -0.2645
   24ETHOX  H2318646   8.506  11.882   9.142 -0.9579  0.9692 -0.0446
   25ETHOX   O118647   8.599  12.014   9.279 -0.0697  0.9981  0.2004
   25ETHOX   C118648   8.659  11.927   9.381 -0.0357 -0.0743 -0.3037
   25ETHOX  H1118649   8.675  11.988   9.472  1.0097 -1.2139  0.3139
   25ETHOX  H1318650   8.764  11.906   9.348  0.9242  1.0593  1.8185
   25ETHOX   C218651   8.587  11.796   9.421  0.2399 -0.1021  0.3160
   25ETHOX  H2118652   8.649  11.738   9.493  0.1246  1.9644  2.1941
   25ETHOX  H2318653   8.570  11.745   9.324  2.1544  0.6545 -0.4623
   26ETHOX   O118654   8.470  11.830   9.482  0.4986 -0.0135  0.2426
   26ETHOX   C118655   8.376  11.727   9.493 -0.2383 -0.6236 -0.0720
   26ETHOX  H1118656   8.346  11.695   9.390 -0.2181  0.7689 -0.5280
   26ETHOX  H1318657   8.424  11.641   9.544  1.5818 -1.2413 -2.5875
   26ETHOX   C218658   8.246  11.773   9.570  0.4476 -0.3176 -0.4519
   26ETHOX  H2118659   8.167  11.696   9.557 -1.3480  1.3051  0.4267
   26ETHOX  H2318660   8.205  11.865   9.523 -0.0925  0.4620  1.4600
   27ETHOX   O118661   8.260  11.798   9.711 -0.4129  0.1662  0.1748
   27ETHOX   C118662   8.150  11.849   9.786 -0.5563 -0.4116  0.4333
   27ETHOX  H1118663   8.080  11.766   9.809 -1.3326  0.1608  0.1738
   27ETHOX  H1318664   8.100  11.925   9.723 -1.6049 -1.0597  0.4654
   27ETHOX   C218665   8.204  11.929   9.907  0.1224  0.0483 -0.6142
   27ETHOX  H2118666   8.130  12.001   9.950  0.6255  2.0718 -2.8801
   27ETHOX  H2318667   8.288  11.995   9.876 -1.2513  1.4480 -1.5336
   28ETHOX   O118668   8.238  11.832  10.005  0.5143  0.0955 -0.6445
   28ETHOX   C118669   8.305  11.894  10.115  0.5889  0.1027  1.0555
   28ETHOX  H1118670   8.405  11.926  10.077  0.9893 -0.5357  1.5601
   28ETHOX  H1318671   8.250  11.985  10.148  0.2325  1.5866 -2.9753
   28ETHOX   C218672   8.316  11.791  10.221  0.2212  0.4239 -0.5582
   28ETHOX  H2118673   8.385  11.835  10.296  1.1415 -1.2017 -0.4200
   28ETHOX  H2318674   8.382  11.710  10.184 -0.2241  0.4545 -1.4419
   29ETHOX   O118675   8.195  11.749  10.277 -0.4363 -0.0473 -0.2689
   29ETHOX   C118676   8.204  11.621  10.340 -0.3256 -0.2639 -0.2116
   29ETHOX  H1118677   8.308  11.586  10.325 -0.1161  0.2917 -0.0745
   29ETHOX  H1318678   8.137  11.544  10.296 -1.1945 -0.4447  1.3433
   29ETHOX   C218679   8.174  11.631  10.489  0.5322  0.1463 -0.0219
   29ETHOX  H2118680   8.184  11.533  10.540 -3.2384 -0.6744 -0.5644
   29ETHOX  H2318681   8.072  11.672  10.507  0.5966  0.6584 -0.7883
   30ETHOX   O118682   8.264  11.715  10.554 -0.9083  0.2586  0.0739
   30ETHOX   C118683   8.256  11.708  10.689 -0.2138 -0.0216 -0.3715
   30ETHOX  H1118684   8.148  11.710  10.716  0.3473 -0.5172  2.2395
   30ETHOX  H1318685   8.284  11.614  10.741  0.0340  1.1943  1.8258
   30ETHOX   C218686   8.337  11.810  10.763  0.0762  0.4594  0.3682
   30ETHOX  H2118687   8.293  11.822  10.864 -2.9613 -0.9996 -0.6651
   30ETHOX  H2318688   8.341  11.906  10.709  1.4814  0.1214 -0.1771
   31ETHOX   O118689   8.473  11.771  10.772  0.1632  0.2855 -0.8008
   31ETHOX   C118690   8.546  11.774  10.651 -1.1126  0.0836  0.0044
   31ETHOX  H1118691   8.525  11.688  10.585 -0.7721  0.4816 -0.6315
   31ETHOX  H1318692   8.533  11.874  10.604  3.4973  1.8429  1.8267
   31ETHOX   C218693   8.695  11.756  10.684 -0.3676 -0.1021 -0.0092
   31ETHOX  H2118694   8.758  11.715  10.603 -0.8886  0.8488 -0.9218
   31ETHOX  H2318695   8.698  11.678  10.763  0.6491 -0.0463  0.0141
   32ETHOX   O118696   8.760  11.882  10.714 -0.3258  1.1014 -0.6120
   32ETHOX   C118697   8.756  11.913  10.855  0.3358 -0.1537  0.3422
   32ETHOX  H1118698   8.764  12.023  10.871  1.2514 -0.0678 -0.6265
   32ETHOX  H1318699   8.661  11.882  10.904  0.0966 -1.3150 -0.7946
   32ETHOX   C218700   8.869  11.851  10.934 -0.6214  0.5886  0.6012
   32ETHOX  H2118701   8.880  11.740  10.929 -0.2049  0.6348  0.4576
   32ETHOX  H2318702   8.864  11.882  11.041  0.9432 -2.0254  1.5257
   33ETHOX   O118703   8.986  11.912  10.899  0.2119 -0.0862  0.3960
   33ETHOX   C118704   9.090  11.901  10.994 -0.1791 -0.7955  0.1835
   33ETHOX  H1118705   9.067  11.971  11.076 -0.9885 -1.6238  0.6765
   33ETHOX  H1318706   9.094  11.795  11.027 -0.6899 -0.7106  0.5243
   33ETHOX   C218707   9.221  11.941  10.920 -0.4507  0.3378  0.3707
   33ETHOX  H2118708   9.219  11.901  10.817 -0.8706  2.7239 -0.6174
   33ETHOX  H2318709   9.297  11.875  10.966 -1.7799 -3.5471 -2.5308
   34ETHOX   O118710   9.243  12.081  10.936 -0.1902 -0.1801  0.8113
   34ETHOX   C118711   9.341  12.132  10.845 -0.0453 -0.0354  0.3817
   34ETHOX  H1118712   9.298  12.122  10.742 -0.9414  1.4577  0.5700
   34ETHOX  H1318713   9.435  12.075  10.856  0.3982  0.9766  2.2083
   34ETHOX   C218714   9.375  12.282  10.880  0.2093 -0.2368  0.1448
   34ETHOX  H2118715   9.467  12.313  10.826  0.3981  0.4926  0.8644
   34ETHOX  H2318716   9.390  12.269  10.989  0.6213  0.2922  0.1570
   35ETHOX   O118717   9.253  12.362  10.860 -0.2191  0.1595  0.0459
   35ETHOX   C118718   9.277  12.493  10.900 -0.4432 -0.1360 -0.4342
   35ETHOX  H1118719   9.292  12.490  11.010  0.8543 -2.9999 -0.6028
   35ETHOX  H1318720   9.370  12.529  10.851 -1.4984  2.6622 -0.5919
   35ETHOX   C218721   9.171  12.598  10.886 -0.4522 -0.0840 -0.1684
   35ETHOX  H2118722   9.142  12.598  10.778  0.1276 -2.0139 -0.3580
   35ETHOX  H2318723   9.207  12.701  10.904  0.1568 -0.4506  0.7381
   36ETHOX   O118724   9.055  12.570  10.967 -0.0610 -0.2113  0.5862
   36ETHOX   C118725   8.934  12.624  10.907  0.7298  0.2848 -0.1026
   36ETHOX  H1118726   8.855  12.553  10.939 -0.8878  1.2547 -1.7518
   36ETHOX  H1318727   8.947  12.628  10.797  1.5953  4.1448  0.0134
   36ETHOX   C218728   8.904  12.760  10.961  0.0859  0.1766 -0.0956
   36ETHOX  H2118729   9.004  12.809  10.965  1.4829 -2.4965  2.3008
   36ETHOX  H2318730   8.866  12.752  11.065 -0.7077 -0.1123 -0.4037
   37ETHOX   O118731   8.817  12.814  10.870  0.0032 -0.0381  0.3841
   37ETHOX   C118732   8.811  12.958  10.886  0.2243  0.0584  0.3455
   37ETHOX  H1118733   8.775  12.993  10.984 -0.9049  0.9716 -0.3655
   37ETHOX  H1318734   8.914  12.997  10.879  1.4599 -2.8489  1.0009
   37ETHOX   C218735   8.720  13.022  10.780 -0.6625 -1.5868  0.4303
   37ETHOX  H2118736   8.619  12.977  10.795 -0.9316 -0.9062  0.6878
   37ETHOX  H2318737   8.764  12.995  10.682 -1.3844  0.9368 -0.6656
   38ETHOX   O118738   8.732  13.165  10.797  0.0451  0.5464  0.4105
   38ETHOX   C118739   8.652  13.231  10.701  0.1654 -0.1730 -0.5500
   38ETHOX  H1118740   8.556  13.175  10.701 -0.8969  1.5113  0.8697
   38ETHOX  H1318741   8.695  13.222  10.599 -0.1763  0.1074 -0.7269
   38ETHOX   C218742   8.637  13.383  10.724 -0.1054 -0.5726  0.3422
   38ETHOX  H2118743   8.578  13.429  10.642 -0.1513 -0.4334  0.4541
   38ETHOX  H2318744   8.737  13.430  10.729 -0.8189  0.9130  4.2980
   39ETHOX   O118745   8.577  13.405  10.852 -0.4985 -0.4063 -0.1031
   39ETHOX   C118746   8.522  13.536  10.855 -0.2837  0.1750 -0.3550
   39ETHOX  H1118747   8.582  13.626  10.828 -0.0606  0.2839  0.4731
   39ETHOX  H1318748   8.437  13.550  10.784 -0.5777  1.9642  0.2762
   39ETHOX   C218749   8.478  13.557  10.999  0.0767  0.1314  0.2013
   39ETHOX  H2118750   8.435  13.660  11.009 -0.5882  0.0061 -1.1140
   39ETHOX  H2318751   8.565  13.546  11.066  1.6810  3.0602 -1.1784
   40ETHOX   O118752   8.364  13.468  11.022  0.0137  0.2428  0.4665
   40ETHOX   C118753   8.290  13.495  11.144 -1.0450 -0.4185 -0.0907
   40ETHOX  H1118754   8.219  13.578  11.124  0.3181  0.7627 -0.1629
   40ETHOX  H1318755   8.357  13.531  11.225  1.1581 -3.4103 -0.4014
   40ETHOX   C218756   8.236  13.362  11.198 -0.3443 -0.0229  0.3053
   40ETHOX  H2118757   8.238  13.363  11.309 -1.3819  1.8621  0.3555
   40ETHOX  H2318758   8.294  13.276  11.159  0.8751 -0.0002  1.9685
   41ETHOX   O118759   8.100  13.342  11.144 -0.0156  0.1039 -0.4140
   41ETHOX   C118760   8.042  13.225  11.194 -0.1287 -0.9072 -0.0657
   41ETHOX  H1118761   8.127  13.154  11.193  0.8752  0.2604 -0.3094
   41ETHOX  H1318762   8.023  13.259  11.299  0.0722 -1.0657  0.0224
   41ETHOX   C218763   7.919  13.195  11.111  0.2046 -0.9544 -0.0813
   41ETHOX  H2118764   7.876  13.094  11.126 -0.3586 -0.7610 -0.3849
   41ETHOX  H2318765   7.961  13.187  11.008  1.6637  1.9146  0.1891
   42ETHOX   O118766   7.826  13.301  11.117 -0.0324 -0.2002 -0.3386
   42ETHOX   C118767   7.755  13.322  10.994  0.1867 -0.4496  0.0484
   42ETHOX  H1118768   7.718  13.427  10.988 -0.6361 -0.7452 -0.1249
   42ETHOX  H1318769   7.822  13.314  10.906 -0.5871 -0.4304 -0.5431
   42ETHOX   C218770   7.633  13.228  10.980  0.2326 -0.0505 -0.0489
   42ETHOX  H2118771   7.568  13.253  10.893  0.8561 -0.0355 -0.5099
   42ETHOX  H2318772   7.569  13.233  11.071 -0.3823 -0.2243 -0.4584
   43ETHOX   O118773   7.675  13.098  10.943 -0.3854 -0.5442 -0.1668
   43ETHOX   C118774   7.636  12.987  11.026 -0.6045 -0.1286 -0.4082
   43ETHOX  H1118775   7.701  12.973  11.115 -1.2805  0.2288  0.1504
   43ETHOX  H1318776   7.538  13.010  11.072  0.2266  0.7983  0.9994
   43ETHOX   C218777   7.628  12.857  10.948  0.3642  0.1676 -0.0292
   43ETHOX  H2118778   7.575  12.869  10.851  0.1319  3.6216  0.3758
   43ETHOX  H2318779   7.561  12.793  11.008  1.4889 -0.9199  0.1047
   44ETHOX   O118780   7.754  12.787  10.937 -0.5821  0.3763  0.3658
   44ETHOX   C118781   7.732  12.647  10.907  0.2147 -0.1266 -0.1980
   44ETHOX  H1118782   7.676  12.600  10.992  0.8767  1.4782  1.1910
   44ETHOX  H1318783   7.666  12.633  10.819  0.3239 -1.7702 -0.0642
   44ETHOX   C218784   7.864  12.575  10.907 -1.1224 -0.1921 -0.3957
   44ETHOX  H2118785   7.851  12.466  10.923  2.0363 -0.4438  1.2495
   44ETHOX  H2318786   7.930  12.614  10.988 -2.2242  2.6502 -0.7426
   45ETHOX   O118787   7.931  12.591  10.783  0.0875 -0.0298 -0.0855
   45ETHOX   C118788   8.055  12.521  10.774 -0.4062  1.1603 -0.1600
   45ETHOX  H1118789   8.048  12.413  10.750  1.2602  0.9453  0.2077
   45ETHOX  H1318790   8.115  12.536  10.866  0.9836  1.6193 -1.1149
   45ETHOX   C218791   8.141  12.592  10.666 -0.6852 -0.3480 -0.4161
   45ETHOX  H2118792   8.077  12.608  10.577  0.6816  1.4450 -1.1317
   45ETHOX  H2318793   8.239  12.543  10.647 -0.1193  0.7967 -0.5730
   46ETHOX   O118794   8.184  12.716  10.722 -0.5038  0.4172  0.3338
   46ETHOX   C118795   8.262  12.787  10.627  0.0261  0.5823  0.1293
   46ETHOX  H1118796   8.356  12.728  10.614  0.4981  0.8778  1.9161
   46ETHOX  H1318797   8.217  12.799  10.527 -0.3867 -2.9270 -0.2541
   46ETHOX   C218798   8.309  12.929  10.672  0.0616 -0.9994  0.4838
   46ETHOX  H2118799   8.380  12.959  10.592  1.8782 -2.5626  1.4147
   46ETHOX  H2318800   8.371  12.914  10.763 -1.3786 -0.8849  1.5094
   47ETHOX   O118801   8.206  13.030  10.689  0.0775 -0.1839  1.2233
   47ETHOX   C118802   8.254  13.156  10.734 -0.1610  0.1220  0.0993
   47ETHOX  H1118803   8.358  13.139  10.769  0.1240  0.2279 -0.6633
   47ETHOX  H1318804   8.176  13.191  10.805 -1.7873  1.0335 -1.9968
   47ETHOX   C218805   8.254  13.263  10.619 -0.0159  0.3119  0.2676
   47ETHOX  H2118806   8.275  13.369  10.645  0.9658 -0.0298  0.9202
   47ETHOX  H2318807   8.158  13.257  10.564  0.1071 -1.4541  0.2017
   48ETHOX   O118808   8.342  13.222  10.522 -0.1051 -0.1040 -0.2092
   48ETHOX   C118809   8.321  13.292  10.397  0.2304 -0.0739 -0.6197
   48ETHOX  H1118810   8.217  13.294  10.358  0.0560  1.1190 -0.1355
   48ETHOX  H1318811   8.353  13.396  10.418 -0.0060 -0.2247  0.5310
   48ETHOX   C218812   8.422  13.243  10.295  0.1852  0.2146 -0.0980
   48ETHOX  H2118813   8.435  13.318  10.215 -0.5181  0.6107  0.1493
   48ETHOX  H2318814   8.517  13.236  10.352 -0.6713  2.3526  1.7432
   49ETHOX   O118815   8.378  13.123  10.231 -0.0711 -1.0958 -0.4086
   49ETHOX   C118816   8.491  13.045  10.197 -0.9456  0.0889 -0.7593
   49ETHOX  H1118817   8.562  13.039  10.282 -2.5286  3.3702  0.9899
   49ETHOX  H1318818   8.551  13.106  10.127 -0.4924  0.1147 -0.3481
   49ETHOX   C218819   8.454  12.904  10.155  0.1400  0.3611 -0.2737
   49ETHOX  H2118820   8.541  12.866  10.097  0.5011 -0.6112  0.8470
   49ETHOX  H2318821   8.360  12.902  10.095  0.1740 -0.8289 -0.3267
   50ETHOX   O118822   8.462  12.822  10.273  0.8813  0.6050  0.1379
   50ETHOX   C118823   8.489  12.688  10.237  0.5365 -0.0914 -0.5210
   50ETHOX  H1118824   8.414  12.657  10.161  1.7492 -0.9415 -1.4009
   50ETHOX  H1318825   8.593  12.668  10.204  1.0492 -0.2567  1.1121
   50ETHOX   C218826   8.476  12.591  10.363  0.4556  0.5743  0.2222
   50ETHOX  H2118827   8.493  12.486  10.330  1.4301  0.6589  0.4212
   50ETHOX  H2318828   8.370  12.588  10.397  0.0485 -0.5606 -1.0327
   51ETHOX   O118829   8.564  12.628  10.468  0.2446  0.4533 -0.6892
   51ETHOX   C118830   8.612  12.519  10.551  0.1849 -0.4698  0.3679
   51ETHOX  H1118831   8.708  12.480  10.510 -0.2840 -2.2860  0.9086
   51ETHOX  H1318832   8.547  12.429  10.544 -0.3674 -0.1336  1.0997
   51ETHOX   C218833   8.630  12.570  10.693  0.0691 -0.0369 -0.2289
   51ETHOX  H2118834   8.671  12.674  10.695 -0.4281  0.1762 -0.8681
   51ETHOX  H2318835   8.714  12.529  10.753 -0.6051 -0.0446  0.7263
   52ETHOX   O118836   8.515  12.547  10.775 -0.0949 -0.5073  0.1183
   52ETHOX   C118837   8.523  12.634  10.882 -0.3042  0.1243 -0.2729
   52ETHOX  H1118838   8.610  12.604  10.945  0.6267  2.0028 -0.5648
   52ETHOX  H1318839   8.542  12.741  10.855 -0.3759 -0.3057 -2.1492
   52ETHOX   C218840   8.406  12.626  10.980  0.6407  0.0168  0.2310
   52ETHOX  H2118841   8.316  12.620  10.915  0.3296 -0.1102  0.6739
   52ETHOX  H2318842   8.399  12.708  11.055 -1.2215 -1.6371  1.9796
   53ETHOX   O118843   8.411  12.506  11.056 -0.1694  0.2584  0.0952
   53ETHOX   C118844   8.288  12.502  11.131  0.1121  0.0062  0.2789
   53ETHOX  H1118845   8.267  12.601  11.175 -0.0230  0.8388 -1.5441
   53ETHOX  H1318846   8.210  12.471  11.057  1.4096 -0.1928 -1.0535
   53ETHOX   C218847   8.318  12.398  11.231  0.0599  0.0616  0.1416
   53ETHOX  H2118848   8.259  12.393  11.326 -0.3112 -0.0758 -0.0913
   53ETHOX  H2318849   8.421  12.401  11.273  0.2014 -1.0366 -0.0961
   54ETHOX   O118850   8.303  12.268  11.184 -0.5189  0.4508  0.3460
   54ETHOX   C118851   8.432  12.213  11.152  0.4232  0.5985  0.6164
   54ETHOX  H1118852   8.462  12.261  11.056 -0.9384 -4.0775 -2.5023
   54ETHOX  H1318853   8.514  12.230  11.226  0.6370 -0.9545  0.7802
   54ETHOX   C218854   8.416  12.067  11.119 -0.3355  0.7325 -0.0340
   54ETHOX  H2118855   8.505  12.037  11.060  1.4119  3.3979  1.0441
   54ETHOX  H2318856   8.323  12.048  11.062  0.5064  1.0970 -1.5803
   55ETHOX   O118857   8.409  11.977  11.235  0.7474 -0.8801 -0.1103
   55ETHOX   C118858   8.535  11.954  11.294  0.0172 -0.6598 -0.5056
   55ETHOX  H1118859   8.611  11.933  11.216 -0.0108 -0.5495 -0.5629
   55ETHOX  H1318860   8.569  12.047  11.344  0.8497 -1.0061 -0.4124
   55ETHOX   C218861   8.527  11.839  11.403  0.4146 -0.5820  0.0327
   55ETHOX  H2118862   8.628  11.821  11.445 -0.2976  0.5663  2.4176
   55ETHOX  H2318863   8.459  11.874  11.483  0.9490  0.3360  0.0964
   56ETHOX   O118864   8.467  11.721  11.348  0.4727  0.1395  1.0382
   56ETHOX   C118865   8.429  11.625  11.446 -0.7124 -0.5865  0.7457
   56ETHOX  H1118866   8.340  11.652  11.507  0.1702  0.7693  1.4573
   56ETHOX  H1318867   8.516  11.610  11.512 -1.5544  1.3493  2.3845
   56ETHOX   C218868   8.398  11.484  11.381  0.0214 -0.0335 -0.1775
   56ETHOX  H2118869   8.397  11.423  11.474 -0.2004  0.2335 -0.0028
   56ETHOX  H2318870   8.481  11.450  11.316  0.3567 -0.9263  0.6984
   57ETHOX   O118871   8.269  11.473  11.326 -0.1493  0.1400  0.9265
   57ETHOX   C118872   8.262  11.350  11.257  1.0393 -0.1731  0.0628
   57ETHOX  H1118873   8.292  11.364  11.152 -0.4742 -1.0169 -0.5141
   57ETHOX  H1318874   8.326  11.269  11.297  1.6298 -1.8802 -3.9075
   57ETHOX   C218875   8.116  11.294  11.258  0.4101  0.1778 -0.8758
   57ETHOX  H2118876   8.084  11.311  11.363  2.0412 -3.2326  0.3004
   57ETHOX  H2318877   8.111  11.186  11.232  0.5074 -0.6017  2.0196
   58ETHOX   O118878   8.026  11.376  11.186 -0.1539  0.4512  0.1752
   58ETHOX   C118879   7.906  11.308  11.165 -0.4359 -0.3103 -0.0247
   58ETHOX  H1118880   7.862  11.264  11.257 -1.0110 -1.4792 -0.8314
   58ETHOX  H1318881   7.936  11.218  11.106  0.4544  1.4849 -2.4774
   58ETHOX   C218882   7.790  11.391  11.102 -0.1104  0.2319 -0.3410
   58ETHOX  H2118883   7.806  11.406  10.993  0.1055 -0.6845 -0.4417
   58ETHOX  H2318884   7.794  11.497  11.135  1.9780 -0.0140  0.3559
   59ETHOX   O118885   7.659  11.323  11.113 -0.1519 -0.3423 -0.5360
   59ETHOX   C118886   7.567  11.398  11.192 -0.2392 -0.7153 -0.1735
   59ETHOX  H1118887   7.575  11.374  11.300  0.2013  0.5433  0.0902
   59ETHOX  H1318888   7.577  11.507  11.173  0.0458 -0.7874 -0.4409
   59ETHOX   C218889   7.416  11.368  11.166 -0.5810 -0.3203  0.1283
   59ETHOX  H2118890   7.411  11.397  11.059  0.0737 -2.2309 -0.4531
   59ETHOX  H2318891   7.350  11.429  11.232  0.7977  2.2564 -0.7423
   60ETHOX   O118892   7.374  11.229  11.177 -0.3122 -0.0476 -0.0320
   60ETHOX   C118893   7.240  11.216  11.140  0.5541 -0.2696 -0.2990
   60ETHOX  H1118894   7.227  11.202  11.030  1.0738  0.5837 -0.4774
   60ETHOX  H1318895   7.195  11.314  11.164  1.4225 -0.3086  1.7055
   60ETHOX   C218896   7.166  11.104  11.218  0.2618  0.9262 -0.4288
   60ETHOX  H2118897   7.219  11.010  11.191 -0.4187 -0.4332  2.4645
   60ETHOX  H2318898   7.064  11.091  11.177 -0.4146 -2.2119  1.8328
   61ETHOX   O118899   7.165  11.131  11.355 -0.6462  0.0163 -0.5373
   61ETHOX   C118900   7.088  11.031  11.421  0.4789 -0.2175 -0.2812
   61ETHOX  H1118901   6.982  11.035  11.390  0.6059  1.1802 -0.6239
   61ETHOX  H1318902   7.126  10.930  11.395 -2.0565 -1.0110 -1.1357
   61ETHOX   C218903   7.099  11.056  11.569  0.0788 -0.2309  0.3181
   61ETHOX  H2118904   7.036  10.985  11.626 -1.1496  1.0439  0.6028
   61ETHOX  H2318905   7.057  11.157  11.587 -1.5755 -0.8914  0.2965
   62ETHOX   O118906   7.234  11.062  11.608  0.2089  0.0655 -0.4752
   62ETHOX   C118907   7.251  11.101  11.742  0.4280 -0.1995  0.3756
   62ETHOX  H1118908   7.208  11.019  11.804 -0.8602  1.3808  1.6430
   62ETHOX  H1318909   7.203  11.196  11.774 -0.0255 -0.6588  1.0943
   62ETHOX   C218910   7.398  11.101  11.769 -0.0826  0.3162 -0.8383
   62ETHOX  H2118911   7.426  11.149  11.865 -0.6670  1.1522 -1.0718
   62ETHOX  H2318912   7.446  11.155  11.684  0.0139 -0.1702 -1.0936
   63ETHOX   O118913   7.450  10.969  11.770  0.7779  0.1684 -0.2171
   63ETHOX   C118914   7.591  10.967  11.763 -0.3058 -0.7688 -0.0161
   63ETHOX  H1118915   7.639  11.057  11.805  1.0444 -2.0277  1.2839
   63ETHOX  H1318916   7.623  10.886  11.832 -0.1690 -0.0180  0.8169
   63ETHOX   C218917   7.634  10.914  11.630  0.8663  0.4077 -0.0434
   63ETHOX  H2118918   7.744  10.904  11.644  0.9618 -1.9200 -1.8503
   63ETHOX  H2318919   7.623  10.973  11.537 -1.4539 -1.8990 -1.3350
   64ETHOX   O118920   7.581  10.786  11.604 -0.1786 -0.4283  0.4656
   64ETHOX   C118921   7.599  10.752  11.463 -0.3024  0.0733 -0.8566
   64ETHOX  H1118922   7.709  10.751  11.443  0.2279  2.3938  1.4666
   64ETHOX  H1318923   7.544  10.827  11.402 -1.2195  0.3449  0.2864
   64ETHOX   C218924   7.546  10.613  11.424  0.3026  0.1621  0.1122
   64ETHOX  H2118925   7.515  10.610  11.317 -2.3163  0.5775  0.7891
   64ETHOX  H2318926   7.457  10.596  11.487 -1.7883  1.0660 -2.4143
   65ETHOX   O118927   7.648  10.511  11.441  0.3021 -0.1082 -0.0709
   65ETHOX   C118928   7.605  10.396  11.377 -0.1141  0.0127 -0.2740
   65ETHOX  H1118929   7.653  10.308  11.425 -1.7280 -1.3655 -1.0584
   65ETHOX  H1318930   7.494  10.388  11.383 -0.7893  5.1270 -1.1616
   65ETHOX   C218931   7.638  10.374  11.228  0.9713  0.2349  0.1831
   65ETHOX  H2118932   7.591  10.276  11.205 -0.1708  1.1809 -1.8320
   65ETHOX  H2318933   7.743  10.352  11.200  0.8580 -1.0379  0.7076
   66ETHOX   O118934   7.573  10.462  11.135  0.1901  0.0683 -0.7158
   66ETHOX   C118935   7.523  10.394  11.017  0.1935 -0.2911  0.3380
   66ETHOX  H1118936   7.442  10.457  10.973  1.1811  2.1151  1.7433
   66ETHOX  H1318937   7.487  10.294  11.047  0.3989  0.1116  2.0297
   66ETHOX   C218938   7.643  10.370  10.932 -0.3207 -0.1777  1.3561
   66ETHOX  H2118939   7.624  10.295  10.853 -3.1527  1.5921  0.2041
   66ETHOX  H2318940   7.735  10.340  10.986 -0.6258 -0.6597  1.6213
   67ETHOX   O118941   7.657  10.491  10.855 -0.0590 -0.0122  0.1485
   67ETHOX   C118942   7.786  10.509  10.802 -0.1959 -0.2169 -0.3659
   67ETHOX  H1118943   7.852  10.511  10.892 -1.8677 -2.4580  1.0115
   67ETHOX  H1318944   7.813  10.428  10.731  0.5354 -0.6983  0.4366
   67ETHOX   C218945   7.795  10.642  10.724  0.3672  0.2774  0.2497
   67ETHOX  H2118946   7.903  10.654  10.701  0.6112  0.8297  1.6362
   67ETHOX  H2318947   7.770  10.729  10.787 -0.0514 -1.4998  2.6523
   68ETHOX   O118948   7.736  10.644  10.591 -0.0746 -0.0866  0.2146
   68ETHOX   C118949   7.732  10.774  10.546 -0.0198 -0.4499 -0.1201
   68ETHOX  H1118950   7.656  10.831  10.605 -0.0751  0.1526 -0.7530
   68ETHOX  H1318951   7.833  10.817  10.563 -0.6370  0.6574  1.0058
   68ETHOX   C218952   7.686  10.794  10.399  0.7454  0.1604 -1.0343
   68ETHOX  H2118953   7.681  10.899  10.365 -0.7217  0.5811  0.3478
   68ETHOX  H2318954   7.584  10.752  10.383  0.9602 -0.2363 -1.4010
   69ETHOX   O118955   7.773  10.726  10.313 -0.4615 -0.7043 -0.3611
   69ETHOX   C118956   7.742  10.756  10.175 -0.6666  0.7836 -0.6225
   69ETHOX  H1118957   7.633  10.734  10.167 -0.1217 -2.1606 -1.1551
   69ETHOX  H1318958   7.770  10.863  10.164  0.3804  0.6347  0.4057
   69ETHOX   C218959   7.832  10.663  10.094 -0.2571  0.0436  0.3380
   69ETHOX  H2118960   7.803  10.698   9.992  0.2323  1.1377  0.5506
   69ETHOX  H2318961   7.800  10.557  10.099  1.0209 -0.5624 -2.3188
   70ETHOX   O118962   7.974  10.675  10.122 -0.0545 -0.7670  0.0291
   70ETHOX   C118963   8.056  10.598  10.027  0.4718  0.0203  0.9739
   70ETHOX  H1118964   8.023  10.492  10.024 -3.7423  1.1767  0.4202
   70ETHOX  H1318965   8.028  10.632   9.925  0.8020 -0.1727  0.8147
   70ETHOX   C218966   8.212  10.599  10.042 -0.0430 -0.6581 -0.0856
   70ETHOX  H2118967   8.258  10.511   9.992  2.1038 -0.1863  0.9504
   70ETHOX  H2318968   8.242  10.592  10.149  1.2559  0.4633 -0.3565
   71ETHOX   O118969   8.266  10.717   9.975 -0.2239  0.3140 -0.1961
   71ETHOX   C118970   8.252  10.840  10.050 -0.0976 -0.1142  0.3090
   71ETHOX  H1118971   8.290  10.819  10.152  0.2696  1.2128  0.4600
   71ETHOX  H1318972   8.145  10.862  10.067 -0.0787 -1.3505  2.4238
   71ETHOX   C218973   8.314  10.972   9.981  1.1717  0.3869  0.3030
   71ETHOX  H2118974   8.252  10.999   9.892 -0.3503 -3.5037 -0.0402
   71ETHOX  H2318975   8.413  10.933   9.950  1.5702 -0.6081  2.6041
   72ETHOX   O118976   8.324  11.093  10.063  0.1376 -0.2121 -0.5783
   72ETHOX   C118977   8.194  11.121  10.116  0.0239 -0.4153 -0.0257
   72ETHOX  H1118978   8.113  11.106  10.042  1.7329  0.4924 -2.1779
   72ETHOX  H1318979   8.176  11.045  10.194  0.6372 -0.4032  0.1355
   72ETHOX   C218980   8.186  11.266  10.186  0.7026 -0.4050 -0.9422
   72ETHOX  H2118981   8.078  11.291  10.194  0.3479 -1.5294 -1.8299
   72ETHOX  H2318982   8.231  11.341  10.117  1.6268 -0.5767 -0.5509
   73ETHOX   O118983   8.248  11.285  10.316 -0.6044 -0.7208 -0.6814
   73ETHOX   C118984   8.170  11.216  10.413  0.7853 -0.2720  0.5027
   73ETHOX  H1118985   8.114  11.131  10.368 -0.0974 -0.3301  1.6726
   73ETHOX  H1318986   8.091  11.287  10.445  0.0504  0.4942 -2.6256
   73ETHOX   C218987   8.256  11.153  10.519  0.4752  0.0574 -0.3469
   73ETHOX  H2118988   8.347  11.094  10.496  1.3391  1.2660 -0.1148
   73ETHOX  H2318989   8.187  11.084  10.573  3.2867 -0.8849  2.3411
   74ETHOX   O118990   8.302  11.238  10.623  0.0611  0.2195  0.2867
   74ETHOX   C118991   8.416  11.310  10.566  0.3204  0.4259  0.3101
   74ETHOX  H1118992   8.468  11.250  10.488  0.4888  0.4981  0.3691
   74ETHOX  H1318993   8.374  11.404  10.523 -1.7402 -0.9282 -0.8540
   74ETHOX   C218994   8.506  11.366  10.673 -0.4474  0.4770  0.2867
   74ETHOX  H2118995   8.440  11.401  10.756 -0.0447 -1.8356  1.6624
   74ETHOX  H2318996   8.573  11.448  10.640  1.0446 -0.2717  1.3582
   75ETHOX   O118997   8.588  11.268  10.731  0.7895  0.2603 -0.2438
   75ETHOX   C118998   8.646  11.317  10.853  0.6941 -0.5447 -0.4761
   75ETHOX  H1118999   8.568  11.359  10.921  2.2557  1.5009  0.1609
   75ETHOX  H1319000   8.708  11.407  10.833  0.1118 -0.1804 -0.6496
   75ETHOX   C219001   8.719  11.207  10.924  0.0853 -0.2928  0.1165
   75ETHOX  H2119002   8.648  11.122  10.933 -3.6452  2.3352 -1.6459
   75ETHOX  H2319003   8.741  11.248  11.025 -0.3820 -1.7053  0.8130
   76ETHOX   O119004   8.841  11.168  10.871 -0.3898 -0.2343  0.3959
   76ETHOX   C119005   8.920  11.078  10.952 -0.3549  0.2266 -0.4675
   76ETHOX  H1119006   9.023  11.120  10.950 -0.0005 -0.6453 -1.3874
   76ETHOX  H1319007   8.888  11.093  11.057 -1.4091 -0.8214 -0.6110
   76ETHOX   C219008   8.917  10.931  10.916  0.0575 -0.2454  0.9971
   76ETHOX  H2119009   8.808  10.907  10.919 -0.4490  1.9489  1.6888
   76ETHOX  H2319010   8.972  10.872  10.992  2.8199  1.2498  0.2902
   77ETHOX   O119011   8.951  10.891  10.779 -0.0034  0.7980  0.1806
   77ETHOX   C119012   8.890  10.764  10.755 -0.6803 -0.2263 -0.1529
   77ETHOX  H1119013   8.787  10.771  10.712 -1.9873 -1.4589  2.5189
   77ETHOX  H1319014   8.862  10.705  10.845 -1.3710  0.3210 -0.0056
   77ETHOX   C219015   8.980  10.684  10.660 -0.4588 -0.4780 -0.2873
   77ETHOX  H2119016   9.016  10.748  10.577 -0.4787  1.4432  1.1202
   77ETHOX  H2319017   8.926  10.593  10.624  1.2696 -0.4609 -3.2298
   78ETHOX   O119018   9.098  10.648  10.730  0.1014  0.1688 -0.4676
   78ETHOX   C119019   9.181  10.585  10.631  0.6024  0.5633 -0.0775
   78ETHOX  H1119020   9.120  10.530  10.557 -0.1692  0.0388  0.9276
   78ETHOX  H1319021   9.231  10.668  10.575 -2.8242  2.2269 -0.9649
   78ETHOX   C219022   9.274  10.490  10.708  0.1386 -0.1667 -0.0450
   78ETHOX  H2119023   9.323  10.550  10.788 -3.4195  3.9659 -0.5805
   78ETHOX  H2319024   9.349  10.452  10.636  0.9096  1.5260 -0.1860
   79ETHOX   O119025   9.205  10.377  10.770  0.2603  0.4147  0.0008
   79ETHOX   C119026   9.291  10.270  10.808  0.6771 -0.0945 -0.0211
   79ETHOX  H1119027   9.368  10.243  10.733  1.5908  0.2052  0.7887
   79ETHOX  H1319028   9.334  10.299  10.906  1.8624 -1.3227 -0.1588
   79ETHOX   C219029   9.212  10.137  10.829 -0.2151 -0.5639 -0.0171
   79ETHOX  H2119030   9.108  10.162  10.861  0.2401  0.6520  0.5876
   79ETHOX  H2319031   9.255  10.083  10.916  0.4341 -0.6088 -0.3671
   80ETHOX   O119032   9.219  10.055  10.715 -0.0374 -0.8674  0.0485
   80ETHOX   C119033   9.125   9.954  10.733  0.0723  0.1569 -0.2794
   80ETHOX  H1119034   9.181   9.873  10.784  0.0070 -1.3589 -2.4986
   80ETHOX  H1319035   9.037   9.972  10.798  0.7159 -1.0132  0.9489
   80ETHOX   C219036   9.061   9.903  10.605  0.5744 -0.7362  0.7555
   80ETHOX  H2119037   9.013   9.804  10.622  0.5195 -0.3706  2.9806
   80ETHOX  H2319038   9.144   9.881  10.534 -1.4557 -3.1787 -1.0601
   81ETHOX   O119039   8.965   9.999  10.561 -0.1432  0.1275 -0.1090
   81ETHOX   C119040   8.929   9.985  10.424  0.2662 -0.3603  0.3434
   81ETHOX  H1119041   9.014   9.943  10.365 -0.1926  0.4903 -0.9792
   81ETHOX  H1319042   8.848   9.911  10.407 -1.5936  1.9268 -1.4517
   81ETHOX   C219043   8.849  10.108  10.373 -0.7505  0.3505  0.0116
   81ETHOX  H2119044   8.809  10.077  10.275 -0.3347 -0.1362 -0.0051
   81ETHOX  H2319045   8.772  10.119  10.453 -0.2678 -3.0150  1.1094
   82ETHOX   O119046   8.944  10.212  10.349 -0.3530  0.1477 -0.0383
   82ETHOX   C119047   8.877  10.336  10.320  0.2707 -0.2595  0.8749
   82ETHOX  H1119048   8.943  10.424  10.333 -1.2478  1.2174 -0.8519
   82ETHOX  H1319049   8.791  10.343  10.389 -1.4473  1.0975 -1.2617
   82ETHOX   C219050   8.828  10.346  10.174 -0.1243 -0.3808  0.2571
   82ETHOX  H2119051   8.747  10.277  10.144  1.6011 -1.7988 -1.4548
   82ETHOX  H2319052   8.910  10.326  10.101 -0.7696  0.4752 -0.7347
   83ETHOX   O119053   8.786  10.479  10.151 -0.6026 -0.0785 -0.2815
   83ETHOX   C119054   8.769  10.518  10.014 -0.2831  0.1193  0.1733
   83ETHOX  H1119055   8.865  10.515   9.959  0.0038 -1.5801  0.6975
   83ETHOX  H1319056   8.708  10.435   9.970  1.8132 -2.1512  1.3149
   83ETHOX   C219057   8.700  10.652   9.983  0.1096  0.8663  0.5583
   83ETHOX  H2119058   8.592  10.647  10.009 -1.0433 -1.9683 -3.7643
   83ETHOX  H2319059   8.702  10.671   9.874 -0.1430 -2.5799 -0.1453
   84ETHOX   O119060   8.763  10.760  10.049  0.5018  0.2704 -0.3001
   84ETHOX   C119061   8.715  10.886   9.989  0.9213  0.1941 -0.3232
   84ETHOX  H1119062   8.738  10.961  10.067  2.0968 -1.7341  1.2902
   84ETHOX  H1319063   8.606  10.892   9.972  0.7944  3.5062  1.0506
   84ETHOX   C219064   8.794  10.918   9.862  0.2130  0.6259  0.1369
   84ETHOX  H2119065   8.901  10.921   9.891 -0.1648  0.6697  1.5832
   84ETHOX  H2319066   8.766  11.022   9.834  0.9966  0.9493  0.5061
   85ETHOX   O119067   8.785  10.833   9.752 -0.0660  0.2212 -0.0285
   85ETHOX   C119068   8.688  10.866   9.661 -0.4324 -0.3265  0.2174
   85ETHOX  H1119069   8.595  10.890   9.717  0.2210 -0.9713  1.6157
   85ETHOX  H1319070   8.722  10.961   9.615  1.1874 -2.0888 -2.5387
   85ETHOX   C219071   8.664  10.746   9.561 -0.1518 -0.0870 -0.3236
   85ETHOX  H2119072   8.570  10.768   9.506 -0.2392  0.3656 -0.0011
   85ETHOX  H2319073   8.654  10.650   9.617 -0.3619  0.0364 -0.1491
   86ETHOX   O119074   8.770  10.742   9.471  0.0199 -0.2445  0.0415
   86ETHOX   C119075   8.751  10.648   9.377 -0.1298  0.1334 -0.5011
   86ETHOX  H1119076   8.665  10.682   9.315 -0.4995 -0.8387 -0.5370
   86ETHOX  H1319077   8.713  10.550   9.414 -0.3408  1.0678  1.9917
   86ETHOX   C219078   8.869  10.629   9.276 -0.1951 -0.7200  0.5942
   86ETHOX  H2119079   8.906  10.527   9.298 -1.3746 -1.5966 -1.2669
   86ETHOX  H2319080   8.958  10.694   9.272 -0.8929  0.2158 -0.2560
   87ETHOX   O119081   8.828  10.635   9.144  0.0733  0.6130 -1.0563
   87ETHOX   C119082   8.810  10.770   9.107 -0.2865  0.4358 -0.1789
   87ETHOX  H1119083   8.722  10.806   9.165  0.6359 -1.0266  2.2522
   87ETHOX  H1319084   8.892  10.843   9.121 -1.3281  1.5598  0.2416
   87ETHOX   C219085   8.772  10.773   8.961 -1.3313  0.9511  0.0646
   87ETHOX  H2119086   8.850  10.733   8.893  0.0448  1.7719  1.1114
   87ETHOX  H2319087   8.760  10.879   8.930  0.9854  1.1986 -0.1404
   88ETHOX   O119088   8.644  10.715   8.932 -0.1723 -0.6833 -0.0657
   88ETHOX   C119089   8.604  10.732   8.794 -0.4655 -0.7282 -0.1732
   88ETHOX  H1119090   8.688  10.709   8.724 -0.2490 -0.0730 -0.1344
   88ETHOX  H1319091   8.581  10.839   8.775 -0.5618 -0.6952  0.1342
   88ETHOX   C219092   8.487  10.646   8.761 -0.3967  0.4505 -0.5269
   88ETHOX  H2119093   8.409  10.676   8.834 -0.3840  1.0865 -0.7637
   88ETHOX  H2319094   8.519  10.545   8.795  1.1868  1.2713  0.5633
   89ETHOX   O119095   8.449  10.646   8.619  1.0510  0.6026 -0.1673
   89ETHOX   C119096   8.418  10.777   8.564 -0.0416  0.4344  0.3106
   89ETHOX  H1119097   8.382  10.841   8.647 -0.4804 -0.3436  0.7420
   89ETHOX  H1319098   8.500  10.836   8.519 -2.1573  2.9031 -0.5138
   89ETHOX   C219099   8.316  10.764   8.451 -0.1971  0.3899 -0.9558
   89ETHOX  H2119100   8.264  10.860   8.428 -0.8355  1.0222  2.5037
   89ETHOX  H2319101   8.233  10.703   8.493 -0.4502  1.4643  0.1698
   90ETHOX   O119102   8.361  10.690   8.338 -0.6900 -0.2931 -0.1353
   90ETHOX   C119103   8.267  10.705   8.235  0.1443  0.6834  0.2452
   90ETHOX  H1119104   8.170  10.692   8.287  0.3270 -2.5330 -0.0094
   90ETHOX  H1319105   8.265  10.808   8.193 -0.9206 -0.0360 -1.6435
   90ETHOX   C219106   8.278  10.596   8.129 -0.0553  0.3625 -0.3612
   90ETHOX  H2119107   8.192  10.607   8.060  0.2367  2.0134 -0.4924
   90ETHOX  H2319108   8.272  10.495   8.176  3.1689  0.8681  1.4431
   91ETHOX   O119109   8.397  10.605   8.047  0.4631 -0.7960  0.6067
   91ETHOX   C119110   8.400  10.502   7.948  0.4001 -0.2225 -0.6808
   91ETHOX  H1119111   8.394  10.402   7.996 -0.9148 -0.8921 -2.1484
   91ETHOX  H1319112   8.309  10.511   7.885 -0.8689  0.7261  1.1899
   91ETHOX   C219113   8.526  10.491   7.871 -0.4776  0.6633 -0.7620
   91ETHOX  H2119114   8.553  10.586   7.821  1.8854  0.2151 -0.4387
   91ETHOX  H2319115   8.520  10.420   7.786  1.6392 -1.0511  0.4166
   92ETHOX   O119116   8.629  10.458   7.966 -0.3635 -0.1421  0.0768
   92ETHOX   C119117   8.745  10.415   7.902 -0.5546 -0.3334  0.1041
   92ETHOX  H1119118   8.751  10.304   7.899 -0.8944 -0.3457 -0.1414
   92ETHOX  H1319119   8.754  10.446   7.796 -0.3092 -0.1701  0.1711
   92ETHOX   C219120   8.867  10.464   7.993  0.1590  0.2059  0.0266
   92ETHOX  H2119121   8.941  10.382   7.982  1.4904  1.4477 -0.7328
   92ETHOX  H2319122   8.825  10.490   8.092  0.1349 -0.1243  0.1039
   93ETHOX   O119123   8.925  10.575   7.927 -0.5323  0.4436  0.0141
   93ETHOX   C119124   9.021  10.639   8.009 -0.2214 -0.7330  0.0906
   93ETHOX  H1119125   9.057  10.567   8.085  1.7813  0.2820  0.1454
   93ETHOX  H1319126   8.967  10.722   8.059  0.8860  1.6966 -2.4639
   93ETHOX   C219127   9.140  10.686   7.934  0.0258 -0.5480  0.3760
   93ETHOX  H2119128   9.179  10.778   7.983 -0.7666 -0.5491  1.0237
   93ETHOX  H2319129   9.118  10.709   7.828 -0.2825  0.1938  0.5979
   94ETHOX   O119130   9.247  10.591   7.939 -0.1000  0.2520  0.1820
   94ETHOX   C119131   9.372  10.638   7.881  0.1484 -0.2045 -0.0503
   94ETHOX  H1119132   9.333  10.654   7.778  0.4576  0.6779 -0.0410
   94ETHOX  H1319133   9.397  10.733   7.932 -0.6429  0.7788 -1.4246
   94ETHOX   C219134   9.480  10.532   7.877  0.2479 -0.2580  0.5737
   94ETHOX  H2119135   9.559  10.570   7.808 -1.2368  1.6128 -0.1946
   94ETHOX  H2319136   9.443  10.433   7.843  2.1262 -0.4421 -1.1110
   95ETHOX   O119137   9.542  10.526   8.006 -0.2451  0.6690 -0.1954
   95ETHOX   C119138   9.634  10.412   8.017  0.1075  0.5618 -0.1691
   95ETHOX  H1119139   9.716  10.436   7.947  0.2546 -0.0768 -0.2195
   95ETHOX  H1319140   9.583  10.316   7.994  1.4944 -0.1940 -0.1538
   95ETHOX   C219141   9.680  10.421   8.168 -0.3682  0.1607 -0.5938
   95ETHOX  H2119142   9.747  10.334   8.186 -1.7966 -0.8244  0.1791
   95ETHOX  H2319143   9.581  10.401   8.215 -0.7397  0.9209 -1.0462
   96ETHOX   O119144   9.737  10.550   8.215  0.1202 -0.3874 -0.0920
   96ETHOX   C119145   9.778  10.544   8.351 -0.6367 -0.2589 -0.3875
   96ETHOX  H1119146   9.844  10.458   8.375  1.3697  1.0600 -1.0310
   96ETHOX  H1319147   9.824  10.643   8.371 -1.2804  0.4263 -2.0944
   96ETHOX   C219148   9.664  10.535   8.461  0.2134  1.0202  0.5362
   96ETHOX  H2119149   9.610  10.438   8.461  1.2809  0.3959 -0.5962
   96ETHOX  H2319150   9.586  10.612   8.440 -2.0182 -1.5395 -1.1746
   97ETHOX   O119151   9.724  10.566   8.586 -0.4690 -0.5157 -0.7373
   97ETHOX   C119152   9.628  10.575   8.693 -0.3068  0.0863  0.1604
   97ETHOX  H1119153   9.601  10.468   8.709  0.7455  0.1187  2.6449
   97ETHOX  H1319154   9.546  10.641   8.658  0.0392  0.6949  0.4772
   97ETHOX   C219155   9.691  10.644   8.814  0.0908 -0.8259  0.0515
   97ETHOX  H2119156   9.612  10.680   8.883  0.5088  1.2798 -0.4681
   97ETHOX  H2319157   9.745  10.733   8.775  1.7446 -0.9056  1.9785
   98ETHOX   O119158   9.788  10.559   8.888 -0.2150  0.1865 -0.1582
   98ETHOX   C119159   9.866  10.641   8.977  0.5888 -0.3608 -0.0055
   98ETHOX  H1119160   9.906  10.728   8.921  0.7326  0.0762  0.7688
   98ETHOX  H1319161   9.791  10.685   9.046  0.4484  1.1384 -1.0560
   98ETHOX   C219162   9.971  10.572   9.065  0.1385 -0.3473  0.5220
   98ETHOX  H2119163  10.056  10.561   8.995 -0.5521  1.0775 -0.5878
   98ETHOX  H2319164   9.928  10.473   9.093  2.7375 -1.0201  2.5713
   99ETHOX   O119165  10.005  10.653   9.176 -0.4385  0.2216  0.0838
   99ETHOX   C119166  10.133  10.627   9.243 -0.5195  1.0793  0.0614
   99ETHOX  H1119167  10.151  10.708   9.318 -1.9398  0.8953  0.6329
   99ETHOX  H1319168  10.208  10.624   9.161 -0.5519  1.5730  0.0071
   99ETHOX   C219169  10.127  10.495   9.317  0.4926 -0.3806  0.2956
   99ETHOX  H2119170  10.231  10.473   9.347  0.6782  0.2417  0.1269
   99ETHOX  H2319171  10.079  10.424   9.245 -4.0990  1.4479  1.1593
  100ETHOX   O119172  10.042  10.498   9.435 -0.0979 -0.6580 -0.9093
  100ETHOX   C119173  10.028  10.371   9.499 -0.2507  0.4632 -0.3864
  100ETHOX  H1119174   9.962  10.306   9.438 -0.5352  1.4495 -1.1489
  100ETHOX  H1319175  10.126  10.326   9.523 -0.5502  0.3152  0.6142
  100ETHOX   C219176   9.932  10.389   9.625 -0.2456  0.4765  0.3242
  100ETHOX  H2119177   9.865  10.301   9.630  2.7581 -2.0587 -0.6850
  100ETHOX  H2319178   9.869  10.479   9.612  0.1182  0.6422 -0.3274
  101PROXS   O119179   9.994  10.395   9.755 -0.5099 -0.4969  0.0059
  101PROXS   C119180  10.063  10.518   9.779  0.0463 -0.0652  0.3222
  101PROXS  H1119181  10.154  10.524   9.714  2.7030 -2.7992  3.4319
  101PROXS  H1319182   9.985  10.595   9.760  0.5359  0.0772 -1.3131
  101PROXS   C219183  10.113  10.534   9.918 -0.1846 -0.2579 -0.2343
  101PROXS  H2119184  10.192  10.456   9.929 -0.9019 -0.7693  2.0053
  101PROXS   C319185  10.008  10.508  10.023 -0.7415 -0.0487 -0.4212
  101PROXS  H3119186  10.054  10.521  10.123 -2.7865 -1.6363  0.7894
  101PROXS  H3219187   9.925  10.582  10.026  0.6039  1.5442 -1.0783
  101PROXS  H3319188   9.965  10.407  10.006 -1.1472  0.4997 -3.0954
  102PROXS   O119189  10.170  10.662   9.931  0.2562  0.1839  0.0185
  102PROXS   C119190  10.260  10.684  10.043  0.0956  0.1629 -0.4384
  102PROXS  H1119191  10.203  10.684  10.139  0.0541 -2.3858 -0.3980
  102PROXS  H1319192  10.331  10.598  10.046 -0.9839 -0.8053 -1.4319
  102PROXS   C219193  10.340  10.813  10.020 -0.1536  0.0177  0.2743
  102PROXS  H2119194  10.272  10.898   9.995  1.4445  0.2314 -4.5474
  102PROXS   C319195  10.428  10.813   9.890  0.9104  0.2066  0.2731
  102PROXS  H3119196  10.369  10.782   9.801 -1.0567  1.4611  1.0708
  102PROXS  H3219197  10.481  10.905   9.857 -1.6582  0.9976 -2.0177
  102PROXS  H3319198  10.507  10.735   9.893 -0.0490 -0.7610  1.2775
  103PROXR   O119199  10.410  10.838  10.141  0.3704 -0.7512  0.5559
  103PROXR   C119200  10.449  10.971  10.165  0.5891  0.4654  0.0234
  103PROXR  H1119201  10.449  11.028  10.069 -0.7136 -0.8429 -0.7880
  103PROXR  H1319202  10.367  11.012  10.228 -1.7343 -4.4452  0.6440
  103PROXR   C219203  10.585  10.976  10.253  0.9658 -0.3987  0.2171
  103PROXR  H2119204  10.657  10.929  10.182  0.7330 -0.2172 -0.1414
  103PROXR   C319205  10.570  10.889  10.377 -0.0256  0.7299 -0.1485
  103PROXR  H3119206  10.564  10.784  10.343 -2.9040  0.8054 -0.1286
  103PROXR  H3219207  10.654  10.898  10.449 -0.5781  0.6212  0.5269
  103PROXR  H3319208  10.478  10.922  10.430  1.1722  0.7887  1.9862
  104PROXS   O119209  10.621  11.115  10.277  0.1227 -0.0841 -0.4608
  104PROXS   C119210  10.749  11.113  10.342 -1.2314 -0.5907  0.4977
  104PROXS  H1119211  10.727  11.123  10.451  0.0612  0.7619  0.6743
  104PROXS  H1319212  10.812  11.025  10.315 -2.6592 -1.0691 -1.4645
  104PROXS   C219213  10.839  11.237  10.301  0.6100 -0.0614 -0.4706
  104PROXS  H2119214  10.843  11.255  10.191 -1.0047  2.0559 -0.2455
  104PROXS   C319215  10.991  11.222  10.334  0.5288 -0.2540  0.2870
  104PROXS  H3119216  11.011  11.198  10.440  1.4426  2.5293  0.8061
  104PROXS  H3219217  11.027  11.136  10.272  0.3090  0.9413 -1.5950
  104PROXS  H3319218  11.052  11.310  10.305  2.8143 -2.0036 -0.5408
  105PROXS   O119219  10.784  11.349  10.370  0.2812 -0.6484 -0.6514
  105PROXS   C119220  10.679  11.414  10.303  0.0980 -0.1554 -0.3903
  105PROXS  H1119221  10.701  11.454  10.202  1.1024  1.0014  0.2613
  105PROXS  H1319222  10.600  11.338  10.286 -0.0899  0.0768 -0.5668
  105PROXS   C219223  10.618  11.516  10.402  0.0291  0.2718 -0.4247
  105PROXS  H2119224  10.700  11.571  10.454  1.4150 -0.5033 -1.7113
  105PROXS   C319225  10.530  11.451  10.517  0.0162 -0.1281 -0.4065
  105PROXS  H3119226  10.449  11.389  10.471  0.4982 -0.1588 -1.2373
  105PROXS  H3219227  10.596  11.402  10.591 -0.0016  0.9421  0.3334
  105PROXS  H3319228  10.482  11.534  10.572 -0.7920 -0.6574 -0.2837
  106PROXS   O119229  10.531  11.598  10.332  0.0231  0.0569  1.0522
  106PROXS   C119230  10.529  11.733  10.385 -0.5806  0.4729  0.7979
  106PROXS  H1119231  10.477  11.730  10.483 -0.2205 -0.4275  0.9779
  106PROXS  H1319232  10.629  11.783  10.391 -0.6132  0.8213 -1.1329
  106PROXS   C219233  10.438  11.817  10.293  0.2128  0.0693 -0.2465
  106PROXS  H2119234  10.333  11.781  10.284  0.2945 -0.0190 -0.9021
  106PROXS   C319235  10.495  11.831  10.152  0.5872  0.3934 -0.7166
  106PROXS  H3119236  10.588  11.891  10.161 -0.8060  2.4309  1.1054
  106PROXS  H3219237  10.501  11.732  10.102 -1.8085 -0.5186  0.6097
  106PROXS  H3319238  10.429  11.896  10.090 -0.3210 -1.3553 -1.6440
  107PROXR   O119239  10.441  11.946  10.347  0.3344  0.4883  0.1832
  107PROXR   C119240  10.351  11.963  10.455  0.3149  0.0135 -0.1305
  107PROXR  H1119241  10.258  12.011  10.417  0.0686 -0.5381 -0.2445
  107PROXR  H1319242  10.317  11.869  10.504 -1.0708 -0.7468 -2.3551
  107PROXR   C219243  10.425  12.048  10.561  0.3674 -0.5191  0.3064
  107PROXR  H2119244  10.445  12.147  10.515  1.4581 -0.5514  0.6750
  107PROXR   C319245  10.563  11.990  10.596  0.2840  0.3851 -0.2230
  107PROXR  H3119246  10.637  11.999  10.514  0.8031  1.5931  0.3576
  107PROXR  H3219247  10.601  12.031  10.692 -1.0212  0.7918  0.1389
  107PROXR  H3319248  10.545  11.881  10.614 -0.8782  0.8891  2.0468
  108PROXS   O119249  10.341  12.067  10.677  0.1467  0.7429 -0.0761
  108PROXS   C119250  10.349  12.191  10.735 -0.0386 -0.5525  0.1418
  108PROXS  H1119251  10.457  12.219  10.745 -0.0090 -0.4172 -0.5307
  108PROXS  H1319252  10.304  12.270  10.671 -0.7179 -0.3689  0.8417
  108PROXS   C219253  10.283  12.191  10.879  0.6606 -0.4668  0.1050
  108PROXS  H2119254  10.332  12.106  10.930  0.8864 -1.8354 -2.2554
  108PROXS   C319255  10.131  12.171  10.869  0.9881 -0.9457  0.2574
  108PROXS  H3119256  10.103  12.079  10.814 -0.3565 -0.2841 -0.2150
  108PROXS  H3219257  10.078  12.188  10.965 -0.1967  0.8158 -0.6509
  108PROXS  H3319258  10.105  12.254  10.800  0.2124 -1.5198 -0.1549
  109PROXS   O119259  10.313  12.318  10.952  0.0518  0.8256  0.7506
  109PROXS   C119260  10.288  12.310  11.092  0.4846 -0.5441  0.0787
  109PROXS  H1119261  10.273  12.211  11.140  1.5415 -0.1344  1.3240
  109PROXS  H1319262  10.380  12.346  11.143  0.0293 -0.9666  1.2399
  109PROXS   C219263  10.183  12.414  11.134  0.4254  0.2216 -0.0050
  109PROXS  H2119264  10.088  12.401  11.077  1.8505  0.6021 -2.6091
  109PROXS   C319265  10.237  12.554  11.093  0.0917 -0.5769 -0.7663
  109PROXS  H3119266  10.180  12.638  11.138  0.0868 -1.5522  1.1114
  109PROXS  H3219267  10.342  12.561  11.128 -0.1671 -1.6908  0.2804
  109PROXS  H3319268  10.235  12.569  10.983  1.0102  1.0458 -0.6026
  110PROXR   O119269  10.164  12.405  11.272 -0.0438 -0.6478 -0.3887
  110PROXR   C119270  10.071  12.308  11.308  0.8183  0.6236  0.5823
  110PROXR  H1119271   9.966  12.344  11.297  0.9702  0.6833 -0.7190
  110PROXR  H1319272  10.093  12.218  11.248  0.2460  0.2902  0.8671
  110PROXR   C219273  10.093  12.260  11.452  0.4764  0.5867  0.1717
  110PROXR  H2119274  10.091  12.357  11.506 -1.2357  0.3889  0.5316
  110PROXR   C319275  10.235  12.204  11.475 -0.2710  0.3695 -0.5227
  110PROXR  H3119276  10.271  12.207  11.580  2.2083 -3.2253 -1.0930
  110PROXR  H3219277  10.239  12.096  11.450 -2.7721 -0.0246  0.4147
  110PROXR  H3319278  10.300  12.256  11.402 -0.6502  1.6958  0.0555
  111PROXS   O119279   9.989  12.164  11.487 -0.8089  0.5429  0.6428
  111PROXS   C119280   9.991  12.097  11.612 -0.1776 -0.4796  0.5042
  111PROXS  H1119281  10.089  12.048  11.632  1.0632  1.5087 -0.4103
  111PROXS  H1319282   9.970  12.171  11.692  2.3498  1.0751 -0.1411
  111PROXS   C219283   9.883  11.992  11.628 -0.2746  0.3588 -0.1375
  111PROXS  H2119284   9.900  11.919  11.545  2.7316  2.6228 -1.7001
  111PROXS   C319285   9.741  12.049  11.624 -0.2042 -0.2937 -0.0698
  111PROXS  H3119286   9.657  11.976  11.633 -0.7827 -0.7060 -5.4671
  111PROXS  H3219287   9.739  12.122  11.708  2.3084  0.8198 -0.9052
  111PROXS  H3319288   9.718  12.111  11.535 -0.6758  2.6527  1.9827
  112PROXR   O119289   9.907  11.929  11.755 -0.0725  0.7741  0.0510
  112PROXR   C119290   9.831  11.807  11.763  0.2126 -0.4245 -0.9455
  112PROXR  H1119291   9.724  11.821  11.788  0.7754 -0.8506  2.1753
  112PROXR  H1319292   9.823  11.749  11.668 -0.6403  0.6281 -1.5336
  112PROXR   C219293   9.889  11.712  11.874 -0.4527  0.1725  0.4612
  112PROXR  H2119294   9.824  11.623  11.883  1.5080 -1.6322 -1.9978
  112PROXR   C319295   9.901  11.766  12.010 -0.3901  0.6315 -0.0317
  112PROXR  H3119296   9.942  11.684  12.072 -1.0170 -0.8912 -1.5468
  112PROXR  H3219297   9.971  11.852  12.008 -0.9974  1.1966  1.5354
  112PROXR  H3319298   9.803  11.804  12.045 -0.9207 -1.0630  0.4188
  113PROXS   O119299  10.016  11.659  11.831  0.1870 -0.5358 -0.2335
  113PROXS   C119300  10.122  11.759  11.802  0.8301  0.6354 -0.0612
  113PROXS  H1119301  10.091  11.824  11.717 -3.7789 -0.1872  0.7286
  113PROXS  H1319302  10.146  11.817  11.894  0.8587  0.9243 -0.2493
  113PROXS   C219303  10.253  11.681  11.757  0.1985 -0.3346 -0.5145
  113PROXS  H2119304  10.227  11.632  11.660  1.1862 -0.6166 -0.6492
  113PROXS   C319305  10.289  11.588  11.874  0.0634  0.3538 -0.1487
  113PROXS  H3119306  10.302  11.651  11.965 -1.2072 -1.1984  1.1974
  113PROXS  H3219307  10.216  11.506  11.894  1.2136 -0.1766  2.3894
  113PROXS  H3319308  10.387  11.540  11.851  1.0991  2.3056  0.0004
  114PROXR   O119309  10.375  11.757  11.753  0.2806  0.2455  0.1878
  114PROXR   C119310  10.381  11.849  11.645  0.3882  0.1988  0.0858
  114PROXR  H1119311  10.348  11.798  11.552 -1.6385 -0.7462  1.2532
  114PROXR  H1319312  10.317  11.936  11.671  1.0890  0.0019  2.7206
  114PROXR   C219313  10.516  11.916  11.618 -0.5633 -0.1819 -0.1884
  114PROXR  H2119314  10.594  11.837  11.615  0.4716  0.7668  0.9083
  114PROXR   C319315  10.559  12.020  11.723 -0.1104 -0.6571 -0.3903
  114PROXR  H3119316  10.657  12.065  11.696  0.4998 -1.6682  0.0615
  114PROXR  H3219317  10.472  12.088  11.739  0.6483  0.4153 -0.7282
  114PROXR  H3319318  10.583  11.966  11.818 -3.4601  0.1606  1.0693
  115PROXR   O119319  10.504  11.979  11.493  0.0603 -0.5444 -0.3263
  115PROXR   C119320  10.626  12.042  11.449 -0.8438  0.0660 -0.6778
  115PROXR  H1119321  10.645  12.143  11.490  0.8589 -0.5707  0.1951
  115PROXR  H1319322  10.716  11.979  11.468 -0.2306  0.9763 -0.5045
  115PROXR   C219323  10.608  12.053  11.292 -0.1768  0.3188 -0.9197
  115PROXR  H2119324  10.523  12.123  11.281 -0.8619 -0.1727  0.8253
  115PROXR   C319325  10.585  11.918  11.221  0.5754 -0.0335 -0.1553
  115PROXR  H3119326  10.668  11.846  11.241 -0.6474 -1.3378  0.3423
  115PROXR  H3219327  10.491  11.868  11.253  0.9269 -1.2027 -0.8723
  115PROXR  H3319328  10.575  11.933  11.111  2.7049  0.7883 -0.2788
  116PROXS   O119329  10.726  12.115  11.237  0.7247 -0.4335 -0.0415
  116PROXS   C119330  10.724  12.137  11.087 -0.4546  0.9833 -0.4823
  116PROXS  H1119331  10.772  12.053  11.033 -3.7863 -0.2216 -1.8371
  116PROXS  H1319332  10.619  12.141  11.050 -1.2172  0.8501  1.5484
  116PROXS   C219333  10.780  12.277  11.063 -0.0057 -0.1032 -0.9677
  116PROXS  H2119334  10.882  12.275  11.109 -0.3174  0.7323 -0.2154
  116PROXS   C319335  10.705  12.382  11.141  0.1338 -0.5568  0.4439
  116PROXS  H3119336  10.602  12.400  11.103  0.1131  0.9868  1.1564
  116PROXS  H3219337  10.708  12.368  11.252  2.8782 -1.2598  0.3651
  116PROXS  H3319338  10.756  12.478  11.118 -1.0363 -0.4845 -2.1146
  117PROXS   O119339  10.797  12.300  10.927 -0.0785 -0.1130 -0.6135
  117PROXS   C119340  10.919  12.365  10.897  0.2238 -0.0876  0.2020
  117PROXS  H1119341  10.927  12.449  10.970 -1.6617  0.2532  0.0650
  117PROXS  H1319342  11.001  12.292  10.908  0.2159  0.1604  2.5846
  117PROXS   C219343  10.916  12.420  10.749 -1.0395  0.0652  0.4033
  117PROXS  H2119344  10.829  12.488  10.735 -0.2718  1.0829  0.5070
  117PROXS   C319345  10.917  12.318  10.635 -0.2977  0.8756  0.5806
  117PROXS  H3119346  10.819  12.276  10.605  0.8619 -0.5355 -1.4508
  117PROXS  H3219347  10.958  12.377  10.550  1.3277  0.4923  1.0587
  117PROXS  H3319348  10.989  12.235  10.649 -1.0194  0.3119  0.9557
  118PROXR   O119349  11.034  12.494  10.736 -0.4697 -0.7617 -0.5201
  118PROXR   C119350  11.013  12.629  10.688  0.3424 -0.4307 -0.3148
  118PROXR  H1119351  10.967  12.625  10.587  0.3486 -0.6312 -0.3098
  118PROXR  H1319352  10.944  12.673  10.763 -0.5671  0.4574 -1.6135
  118PROXR   C219353  11.140  12.711  10.693 -0.0487 -0.1435  0.1299
  118PROXR  H2119354  11.196  12.691  10.786 -1.6609 -1.7745  0.8129
  118PROXR   C319355  11.098  12.862  10.678 -0.7593 -0.1741 -0.3290
  118PROXR  H3119356  11.030  12.874  10.592 -2.4532  2.5446  1.2507
  118PROXR  H3219357  11.033  12.887  10.765 -0.8159 -2.4531  0.3647
  118PROXR  H3319358  11.185  12.929  10.659 -1.1125  0.0292 -1.2761
  119PROXR   O119359  11.225  12.676  10.579  0.6190 -0.1370 -0.0900
  119PROXR   C119360  11.271  12.540  10.567 -0.6525  0.2377  0.3732
  119PROXR  H1119361  11.179  12.478  10.553 -0.1773 -0.0528 -1.7963
  119PROXR  H1319362  11.322  12.536  10.469 -1.0268 -1.7913  0.2206
  119PROXR   C219363  11.360  12.485  10.683  0.0311 -0.1390  0.0109
  119PROXR  H2119364  11.311  12.507  10.781 -1.8013 -0.5179 -0.7757
  119PROXR   C319365  11.500  12.550  10.688  0.0222 -0.1326  0.2022
  119PROXR  H3119366  11.572  12.499  10.756 -0.2458 -2.2825 -1.0391
  119PROXR  H3219367  11.546  12.519  10.592  0.1747 -2.9849  1.0913
  119PROXR  H3319368  11.497  12.661  10.685 -0.3133 -0.1602 -0.8161
  120PROXS   O119369  11.386  12.346  10.660 -0.0854 -0.0664  0.0444
  120PROXS   C119370  11.280  12.259  10.685  0.0202 -0.0326 -0.4159
  120PROXS  H1119371  11.253  12.278  10.791 -0.0968  0.1412 -0.4764
  120PROXS  H1319372  11.195  12.284  10.618 -0.6730 -1.7818 -0.2476
  120PROXS   C219373  11.341  12.125  10.656  0.2440  0.1128  0.5492
  120PROXS  H2119374  11.447  12.116  10.688 -0.5441 -0.4814  3.1972
  120PROXS   C319375  11.349  12.093  10.501  0.7632  0.4063 -0.4654
  120PROXS  H3119376  11.247  12.112  10.460  0.7123 -0.6663 -0.8598
  120PROXS  H3219377  11.408  12.167  10.443  1.1776 -0.3765 -1.0642
  120PROXS  H3319378  11.375  11.986  10.487 -2.2461 -0.5683  0.4509
  121PROXS   O119379  11.261  12.030  10.720  0.1248  0.0065 -0.6702
  121PROXS   C119380  11.287  12.020  10.868  0.8842 -0.5689  0.0466
  121PROXS  H1119381  11.384  11.977  10.901  1.7746  3.0178  2.7471
  121PROXS  H1319382  11.291  12.119  10.919  1.1636 -0.1622 -0.7466
  121PROXS   C219383  11.169  11.951  10.950 -0.3883 -0.2977  0.4206
  121PROXS  H2119384  11.160  11.845  10.921 -1.8108  0.4180 -2.1134
  121PROXS   C319385  11.042  12.021  10.920  0.4086 -0.0965  0.6351
  121PROXS  H3119386  11.037  12.120  10.970 -1.3328 -0.3155  0.9708
  121PROXS  H3219387  11.022  12.032  10.811 -3.2189  0.8862  1.2545
  121PROXS  H3319388  10.956  11.971  10.969 -0.0954 -0.0974 -0.2351
  122PROXS   O119389  11.205  11.972  11.085 -0.1373  0.5556 -0.3416
  122PROXS   C119390  11.112  11.934  11.185 -0.6495  0.7089  0.7583
  122PROXS  H1119391  11.028  12.006  11.180 -1.9796 -0.7816  0.5406
  122PROXS  H1319392  11.077  11.830  11.166  0.1540  0.6652 -0.6895
  122PROXS   C219393  11.181  11.941  11.334  0.0024 -0.0724  1.3347
  122PROXS  H2119394  11.234  12.038  11.341  1.0455 -0.6644  2.0190
  122PROXS   C319395  11.284  11.834  11.371  0.1696  0.2168  0.1968
  122PROXS  H3119396  11.366  11.874  11.435  0.1882 -1.9645  1.6354
  122PROXS  H3219397  11.233  11.754  11.429 -0.2725 -0.5399 -1.1947
  122PROXS  H3319398  11.336  11.789  11.284 -0.1681 -0.3242  0.2673
  123PROXS   O119399  11.077  11.938  11.427  0.9494  0.0624 -0.0062
  123PROXS   C119400  11.115  11.959  11.561  0.2484  0.2148 -0.1558
  123PROXS  H1119401  11.137  11.861  11.609 -2.0223 -0.9979 -1.4408
  123PROXS  H1319402  11.202  12.029  11.556  1.4005 -1.0526  1.1763
  123PROXS   C219403  10.998  12.021  11.631  1.0479 -0.0892 -0.0602
  123PROXS  H2119404  10.915  11.956  11.596  1.2825 -0.3921 -0.0558
  123PROXS   C319405  10.957  12.157  11.577  0.4798 -0.0447 -0.9100
  123PROXS  H3119406  10.941  12.143  11.468 -0.0728  0.8371 -0.9534
  123PROXS  H3219407  10.868  12.191  11.633  1.9326 -0.5076  1.8646
  123PROXS  H3319408  11.034  12.236  11.589 -1.0864  1.5011 -0.6334
  124PROXR   O119409  11.019  12.025  11.772 -0.4942  0.1944  0.0094
  124PROXR   C119410  10.907  12.006  11.849  0.7485 -1.2179 -0.7567
  124PROXR  H1119411  10.841  12.095  11.848 -0.9568 -2.3341  1.8275
  124PROXR  H1319412  10.850  11.921  11.808  0.4088 -1.5493  0.3723
  124PROXR   C219413  10.951  11.973  12.002 -0.2438  0.0842  0.0747
  124PROXR  H2119414  11.011  12.060  12.038 -1.6728  1.1505 -0.0056
  124PROXR   C319415  11.026  11.845  12.013  0.4534 -0.0536  0.0879
  124PROXR  H3119416  11.121  11.860  11.956  1.8999 -1.0178  2.1131
  124PROXR  H3219417  11.056  11.813  12.115 -0.1314  0.6209  0.4800
  124PROXR  H3319418  10.968  11.764  11.964 -2.3540  0.2071  2.6906
  125PROXS   O119419  10.828  11.959  12.068 -0.0962 -0.6463 -0.4284
  125PROXS   C119420  10.830  11.970  12.216  0.4302 -0.4844  0.7327
  125PROXS  H1119421  10.904  11.903  12.266  3.6498  2.3648  0.1953
  125PROXS  H1319422  10.854  12.076  12.238  2.3438 -0.4567 -1.1201
  125PROXS   C219423  10.691  11.925  12.266 -0.1667  0.0312 -0.2106
  125PROXS  H2119424  10.620  11.956  12.186  1.7164  1.7100 -1.3374
  125PROXS   C319425  10.652  11.987  12.397 -0.4222 -0.1954 -0.5814
  125PROXS  H3119426  10.656  12.098  12.396 -2.0270 -0.1217 -0.6307
  125PROXS  H3219427  10.547  11.963  12.420 -0.2194  0.3383  1.0982
  125PROXS  H3319428  10.717  11.952  12.480 -2.0057 -0.6605  0.4991
  126PROXS   O119429  10.686  11.789  12.293  0.8715  0.9597 -0.4953
  126PROXS   C119430  10.694  11.709  12.170  0.1410 -0.3996 -0.2295
  126PROXS  H1119431  10.657  11.760  12.079 -1.6632  1.6209  1.5371
  126PROXS  H1319432  10.802  11.691  12.151  0.0519 -0.7401 -0.4223
  126PROXS   C219433  10.640  11.565  12.194  0.1105  0.4996 -0.8585
  126PROXS  H2119434  10.530  11.556  12.202  0.2174  0.1620  0.4822
  126PROXS   C319435  10.693  11.497  12.320 -0.2151 -0.1304 -0.6200
  126PROXS  H3119436  10.655  11.547  12.411 -0.0920  0.8425 -1.0905
  126PROXS  H3219437  10.667  11.390  12.334  2.4070 -0.9080 -1.2311
  126PROXS  H3319438  10.801  11.520  12.327 -0.0380 -0.6738 -1.3581
  127PROXR   O119439  10.680  11.471  12.094  0.6795 -0.5867 -0.1610
  127PROXR   C119440  10.609  11.492  11.972  0.7384  0.3081  0.1657
  127PROXR  H1119441  10.525  11.419  11.968  1.1070 -0.0673 -1.7710
  127PROXR  H1319442  10.567  11.592  11.952  0.5953  0.2557  0.2048
  127PROXR   C219443  10.698  11.457  11.849  0.3465 -0.4598  0.6896
  127PROXR  H2119444  10.738  11.354  11.861 -0.4703 -0.8900 -0.1085
  127PROXR   C319445  10.813  11.556  11.844 -0.9269 -0.4177  1.0447
  127PROXR  H3119446  10.868  11.556  11.941  0.3154  1.2577  0.3806
  127PROXR  H3219447  10.876  11.527  11.758 -0.8265  0.5330  0.7914
  127PROXR  H3319448  10.769  11.652  11.809 -0.3935 -0.9473 -1.2171
  128PROXR   O119449  10.622  11.466  11.733  0.4664  0.8280  0.5468
  128PROXR   C119450  10.684  11.411  11.610  0.2041  0.1048 -0.7238
  128PROXR  H1119451  10.791  11.386  11.623 -0.0734 -0.4101  0.7825
  128PROXR  H1319452  10.633  11.314  11.592  2.7798 -1.7571  1.2181
  128PROXR   C219453  10.662  11.519  11.497 -0.1838 -0.3549 -0.2561
  128PROXR  H2119454  10.691  11.619  11.536 -2.4432  0.0015  0.6596
  128PROXR   C319455  10.508  11.532  11.460 -0.3242  0.3878 -0.6228
  128PROXR  H3119456  10.473  11.628  11.415  1.0756  0.7761 -0.9339
  128PROXR  H3219457  10.483  11.447  11.393  0.5157  0.3843 -0.9376
  128PROXR  H3319458  10.444  11.520  11.550 -0.5098 -0.9769 -0.9186
  129PROXS   O119459  10.731  11.482  11.372 -0.3185 -0.4827  0.7776
  129PROXS   C119460  10.756  11.593  11.284  0.1652  0.8438  0.5179
  129PROXS  H1119461  10.673  11.611  11.213 -0.3286  0.2152  0.9191
  129PROXS  H1319462  10.762  11.684  11.346 -1.3300  0.9127  0.5981
  129PROXS   C219463  10.889  11.578  11.207  0.4043  0.0769  0.2092
  129PROXS  H2119464  10.893  11.478  11.161 -1.8509 -0.8838  1.9351
  129PROXS   C319465  11.020  11.590  11.295  0.6308 -0.2055 -0.0386
  129PROXS  H3119466  11.014  11.515  11.377 -3.1423 -2.2492 -1.8767
  129PROXS  H3219467  11.117  11.586  11.241  2.1221 -0.5067  2.4911
  129PROXS  H3319468  11.012  11.687  11.347 -3.7175 -0.1121 -0.5074
  130PROXS   O119469  10.901  11.680  11.104  0.5904 -0.5135  0.0956
  130PROXS   C119470  10.890  11.615  10.975  0.2613  0.6815  0.1140
  130PROXS  H1119471  10.982  11.562  10.945 -0.9431 -0.2251 -2.2298
  130PROXS  H1319472  10.808  11.541  10.988  0.6924  0.1941  0.0951
  130PROXS   C219473  10.848  11.708  10.860 -0.5668  0.3697  0.4815
  130PROXS  H2119474  10.914  11.797  10.862 -0.0364  0.0349 -0.8714
  130PROXS   C319475  10.703  11.755  10.853 -0.3877 -0.2553  0.0512
  130PROXS  H3119476  10.695  11.821  10.764  2.7660  0.8403  0.4717
  130PROXS  H3219477  10.635  11.668  10.839 -0.1346 -0.3215 -0.8635
  130PROXS  H3319478  10.680  11.811  10.946 -3.5534  0.8850 -1.2478
  131PROXS   O119479  10.879  11.639  10.742  0.3048 -0.1617 -0.0684
  131PROXS   C119480  10.892  11.727  10.631  0.2973  0.1314  0.0516
  131PROXS  H1119481  10.790  11.751  10.593  0.2603  1.2945  0.8211
  131PROXS  H1319482  10.943  11.820  10.662  0.9858 -0.4264  0.6153
  131PROXS   C219483  10.976  11.664  10.518 -0.2058 -0.7469 -0.4336
  131PROXS  H2119484  10.949  11.556  10.513  0.9170 -1.1139  0.8571
  131PROXS   C319485  11.122  11.682  10.551 -0.2344  0.4132 -0.3931
  131PROXS  H3119486  11.157  11.787  10.544  0.5678  0.2222  0.5550
  131PROXS  H3219487  11.140  11.645  10.654 -0.4402  0.9741 -0.1538
  131PROXS  H3319488  11.182  11.625  10.476 -0.7786 -1.6435  0.6388
  132PROXS   O119489  10.936  11.734  10.401  0.1785 -0.2778  0.4269
  132PROXS   C119490  10.962  11.653  10.286 -0.5267 -0.3716  0.1840
  132PROXS  H1119491  11.072  11.645  10.278 -0.1030  3.1244  1.1437
  132PROXS  H1319492  10.919  11.552  10.301 -0.3306 -0.1505  2.5157
  132PROXS   C219493  10.890  11.712  10.164  0.4193 -0.7396 -0.2800
  132PROXS  H2119494  10.787  11.747  10.187  1.0620  2.1244 -1.4043
  132PROXS   C319495  10.892  11.620  10.041 -0.0051  0.1257 -0.8889
  132PROXS  H3119496  10.805  11.659   9.983  0.4798  0.9567 -1.0774
  132PROXS  H3219497  10.990  11.631   9.990  0.0343  1.0049 -0.6418
  132PROXS  H3319498  10.876  11.512  10.064  1.2771  0.1365  0.1756
  133PROXS   O119499  10.963  11.823  10.112 -0.4017 -0.5847  0.2217
  133PROXS   C119500  10.917  11.952  10.154 -0.0840 -0.1267 -0.5419
  133PROXS  H1119501  10.809  11.965  10.131 -0.7676  0.2026  2.4364
  133PROXS  H1319502  10.910  11.949  10.265 -1.5099  0.6094 -0.5911
  133PROXS   C219503  11.006  12.063  10.092 -0.1327  0.7170 -0.4405
  133PROXS  H2119504  11.113  12.038  10.078 -0.6013 -1.0111 -1.2555
  133PROXS   C319505  10.999  12.178  10.193  0.2539 -0.0749  0.1278
  133PROXS  H3119506  11.096  12.232  10.189 -0.1010  0.5995  0.4772
  133PROXS  H3219507  10.916  12.240  10.155  1.8264  1.4202 -1.0148
  133PROXS  H3319508  10.987  12.134  10.294  0.2393 -0.2039  0.0707
  134PROXS   O119509  10.953  12.104   9.966 -0.1590 -0.3698 -0.0943
  134PROXS   C119510  11.037  12.204   9.898 -0.2678 -0.5210 -0.7100
  134PROXS  H1119511  11.038  12.296   9.960 -0.5806  0.0052 -1.4704
  134PROXS  H1319512  11.139  12.163   9.884 -1.4000 -3.0617 -2.2673
  134PROXS   C219513  10.977  12.244   9.764 -0.2505  0.1761  0.0072
  134PROXS  H2119514  10.868  12.254   9.785 -0.1537  1.1236  0.0930
  134PROXS   C319515  10.998  12.147   9.645  0.3370 -0.2220  0.3537
  134PROXS  H3119516  10.980  12.043   9.681 -1.6201 -0.6534 -1.6072
  134PROXS  H3219517  10.930  12.173   9.561 -0.5911 -3.0089  0.1136
  134PROXS  H3319518  11.104  12.138   9.615 -0.0462 -0.5472 -0.9711
  135PROXS   O119519  11.037  12.365   9.726 -0.6224  0.2919  0.1439
  135PROXS   C119520  10.972  12.441   9.627 -0.0143  0.5375  0.2829
  135PROXS  H1119521  11.003  12.401   9.528 -1.0392 -2.6864  1.1198
  135PROXS  H1319522  10.863  12.420   9.630  0.1547 -0.7286 -1.0768
  135PROXS   C219523  10.999  12.586   9.651 -0.0976 -0.7159  0.3512
  135PROXS  H2119524  11.107  12.607   9.671 -0.2515  1.7083 -0.9506
  135PROXS   C319525  10.911  12.624   9.772 -0.0265 -0.2907 -0.5045
  135PROXS  H3119526  10.915  12.554   9.858 -0.4218  0.0608 -0.1964
  135PROXS  H3219527  10.926  12.728   9.808  0.8378 -1.1314  1.7169
  135PROXS  H3319528  10.806  12.621   9.735  0.4955 -0.3089 -2.0899
  136PROXS   O119529  10.960  12.660   9.535  0.3452  0.3563  0.3155
  136PROXS   C119530  11.007  12.796   9.534 -0.1435  0.2091 -0.5300
  136PROXS  H1119531  10.973  12.848   9.626 -0.1849  0.3992 -0.6507
  136PROXS  H1319532  11.118  12.797   9.532 -0.1198 -1.0046 -0.4707
  136PROXS   C219533  10.946  12.879   9.416 -0.2163 -0.0074 -0.2411
  136PROXS  H2119534  10.843  12.840   9.405 -0.3886  0.4169 -0.1576
  136PROXS   C319535  11.029  12.857   9.294  0.1164  0.1521  0.3467
  136PROXS  H3119536  11.132  12.896   9.308  0.0313  1.6731 -2.5592
  136PROXS  H3219537  11.020  12.750   9.269 -1.3400  0.2580  0.3018
  136PROXS  H3319538  10.983  12.912   9.209  0.0385 -0.4655 -0.0151
  137PROXS   O119539  10.942  13.011   9.464 -0.3353  0.4456  0.0580
  137PROXS   C119540  10.877  13.100   9.374 -0.0734  0.0066 -0.1880
  137PROXS  H1119541  10.950  13.132   9.297  1.5023  1.2229  1.6983
  137PROXS  H1319542  10.787  13.053   9.330  0.1866 -0.5098 -0.1903
  137PROXS   C219543  10.820  13.217   9.452  0.7468  0.0115 -0.5877
  137PROXS  H2119544  10.748  13.179   9.527  0.4800  1.9288  0.1905
  137PROXS   C319545  10.736  13.305   9.353 -0.2348 -0.7263  0.0141
  137PROXS  H3119546  10.678  13.393   9.389 -0.3640 -0.5981 -0.4948
  137PROXS  H3219547  10.816  13.348   9.289 -1.9008  0.0079 -1.7116
  137PROXS  H3319548  10.667  13.249   9.285  0.0091  1.5454 -2.2943
  138PROXR   O119549  10.914  13.291   9.535  0.2959  0.4308  0.6650
  138PROXR   C119550  10.845  13.359   9.641  0.6388 -0.0651 -0.5588
  138PROXR  H1119551  10.792  13.438   9.582  0.7745  0.0297 -0.5543
  138PROXR  H1319552  10.776  13.288   9.692 -2.0246  1.3035 -1.9793
  138PROXR   C219553  10.955  13.416   9.728  0.1496  0.0287 -0.3740
  138PROXR  H2119554  11.021  13.480   9.666  0.8082  0.5814  0.8643
  138PROXR   C319555  11.030  13.308   9.798  0.4564 -0.0646  0.2652
  138PROXR  H3119556  11.076  13.237   9.726  0.4548  0.5543 -0.3522
  138PROXR  H3219557  11.112  13.350   9.861  0.7501  2.2948 -1.5656
  138PROXR  H3319558  10.967  13.260   9.876  2.2084  0.6048  2.2038
  139PROXS   O119559  10.900  13.496   9.831  0.3538  0.4209 -0.6097
  139PROXS   C119560  10.997  13.567   9.903  0.0704 -0.6565  0.0145
  139PROXS  H1119561  11.056  13.510   9.978  2.2633  1.0442 -0.3371
  139PROXS  H1319562  11.056  13.618   9.824 -1.3999 -1.3662 -1.6164
  139PROXS   C219563  10.927  13.677   9.997  0.1847 -0.5973 -0.2896
  139PROXS  H2119564  10.842  13.723   9.943  1.6801  1.1734 -1.2407
  139PROXS   C319565  11.032  13.789  10.030  0.0902  0.2922 -0.8473
  139PROXS  H3119566  11.124  13.729  10.050 -0.1760  0.3189  0.5949
  139PROXS  H3219567  11.055  13.847   9.938  2.6357 -1.1780 -1.2356
  139PROXS  H3319568  10.989  13.848  10.114  0.0353 -0.2414 -0.4961
  140PROXR   O119569  10.889  13.625  10.129  0.2791 -0.1500 -0.2579
  140PROXR   C119570  10.792  13.528  10.125  0.4366  0.0751  0.4271
  140PROXR  H1119571  10.818  13.429  10.084 -2.8785 -0.8027  0.1324
  140PROXR  H1319572  10.763  13.504  10.230  0.9237  0.3685  0.6351
  140PROXR   C219573  10.656  13.575  10.053  0.0160  0.5987  0.7510
  140PROXR  H2119574  10.681  13.587   9.946 -1.0610  2.0261  0.6361
  140PROXR   C319575  10.600  13.708  10.100 -0.4041 -0.0918  0.1722
  140PROXR  H3119576  10.618  13.727  10.208 -0.6445 -0.3944  0.2623
  140PROXR  H3219577  10.642  13.796  10.045  1.7573 -1.3109 -0.2413
  140PROXR  H3319578  10.490  13.705  10.088 -0.2258 -1.1581 -1.5151
  141PROXS   O119579  10.560  13.467  10.069  0.1510 -0.6598 -0.2350
  141PROXS   C119580  10.465  13.461   9.967  0.6995 -0.0760  0.5532
  141PROXS  H1119581  10.371  13.505  10.007  0.1496 -0.0117 -0.7529
  141PROXS  H1319582  10.486  13.533   9.884 -1.1110  0.9324  0.9196
  141PROXS   C219583  10.437  13.317   9.921  0.7588 -0.0088  1.0986
  141PROXS  H2119584  10.433  13.269  10.022 -1.0816  1.9106  2.0165
  141PROXS   C319585  10.543  13.251   9.829  0.0660 -0.0544  0.3954
  141PROXS  H3119586  10.567  13.327   9.751  2.6412 -2.3190 -1.1979
  141PROXS  H3219587  10.633  13.219   9.885  0.3870 -2.0485 -1.1760
  141PROXS  H3319588  10.496  13.166   9.776 -4.7727  1.9650  0.9141
  142PROXS   O119589  10.303  13.321   9.866  0.0011  0.2965 -0.1061
  142PROXS   C119590  10.228  13.210   9.908  0.2988 -0.0978  0.5691
  142PROXS  H1119591  10.294  13.121   9.904  2.0274  1.1561  0.5053
  142PROXS  H1319592  10.204  13.235  10.013 -1.8346 -1.2115  0.4113
  142PROXS   C219593  10.105  13.178   9.820  0.3385  0.3827  0.6927
  142PROXS  H2119594  10.137  13.145   9.719  2.4499 -0.8093  1.6805
  142PROXS   C319595  10.018  13.300   9.796  0.3226 -0.4951 -0.2418
  142PROXS  H3119596  10.071  13.369   9.727 -1.0076 -1.6537 -2.5459
  142PROXS  H3219597   9.921  13.279   9.747 -1.4191  0.3331  2.5666
  142PROXS  H3319598  10.002  13.348   9.895  0.0526  1.5090 -1.1877
  143PROXS   O119599  10.019  13.082   9.878 -0.1189 -0.4575  0.8301
  143PROXS   C119600  10.065  12.945   9.862  0.4236 -0.0167  0.1744
  143PROXS  H1119601  10.057  12.919   9.754 -2.2227 -1.9313  0.7298
  143PROXS  H1319602  10.172  12.942   9.892  0.0884  1.7874  1.7240
  143PROXS   C219603   9.980  12.845   9.936  0.0540  0.0308  0.1055
  143PROXS  H2119604   9.876  12.859   9.900  0.4418  2.0329 -0.3732
  143PROXS   C319605   9.985  12.857  10.083  0.1984  0.1020  0.2890
  143PROXS  H3119606  10.087  12.886  10.115  0.5893  1.5025 -1.9940
  143PROXS  H3219607   9.917  12.942  10.109 -0.2558 -0.2048  0.1161
  143PROXS  H3319608   9.952  12.766  10.136  3.6724 -2.4868 -1.6109
  144PROXS   O119609  10.025  12.723   9.886  0.4574  0.2299 -0.9702
  144PROXS   C119610   9.961  12.603   9.931  0.1235  0.5462  0.7765
  144PROXS  H1119611   9.974  12.591  10.040  2.0498 -0.0306  0.5412
  144PROXS  H1319612   9.851  12.607   9.921 -0.2510 -1.6202  3.1523
  144PROXS   C219613  10.036  12.475   9.866  0.3634 -0.3839  0.2268
  144PROXS  H2119614  10.140  12.473   9.904  0.8598  3.0878 -0.5557
  144PROXS   C319615  10.014  12.476   9.712 -0.2961 -0.0072  0.0330
  144PROXS  H3119616   9.910  12.456   9.678  0.0627 -0.2286 -0.9755
  144PROXS  H3219617  10.040  12.578   9.676 -3.0897  0.9803  0.5824
  144PROXS  H3319618  10.074  12.397   9.662  0.8607  1.2827 -0.6851
  145PROXR   O119619   9.972  12.368   9.927 -0.0149  0.0141  0.7315
  145PROXR   C119620  10.047  12.246   9.904  0.5978  0.2633 -0.8161
  145PROXR  H1119621  10.002  12.198   9.815  1.9458 -0.7934 -0.9568
  145PROXR  H1319622  10.156  12.261   9.890  0.5983  0.9575 -0.1227
  145PROXR   C219623  10.014  12.151  10.022  0.3017  0.7437  0.4761
  145PROXR  H2119624   9.909  12.156  10.056  0.1407  0.7364 -0.0154
  145PROXR   C319625  10.090  12.187  10.154 -0.1033  0.8114  0.1242
  145PROXR  H3119626  10.092  12.099  10.222 -1.2507  1.9305  1.6759
  145PROXR  H3219627  10.191  12.222  10.124 -0.2991  0.9512 -0.3700
  145PROXR  H3319628  10.036  12.272  10.201  1.2829  1.7781  0.0363
  146PROXS   O119629  10.040  12.018   9.986 -0.8301  0.2844 -0.4397
  146PROXS   C119630   9.929  11.947   9.948 -0.6122  0.0911  1.2253
  146PROXS  H1119631   9.852  11.970  10.025  0.7318  1.5110  2.2136
  146PROXS  H1319632   9.907  11.991   9.848  0.9822  1.6990  1.5165
  146PROXS   C219633   9.951  11.790   9.946  0.5799  0.4432 -0.0369
  146PROXS  H2119634  10.055  11.768   9.914 -0.3150 -0.3513 -2.6502
  146PROXS   C319635   9.860  11.724   9.853  0.2428  0.8295  0.0957
  146PROXS  H3119636   9.844  11.619   9.885 -3.9043  1.5632  1.0813
  146PROXS  H3219637   9.764  11.781   9.857 -0.2380  0.1899 -1.5234
  146PROXS  H3319638   9.900  11.729   9.749  0.4873 -0.7226  0.0986
  147PROXR   O119639   9.923  11.728  10.069  0.4929  0.1571  1.3396
  147PROXR   C119640  10.001  11.780  10.175 -0.3065 -0.4585  0.3455
  147PROXR  H1119641  10.109  11.783  10.149 -0.8325 -0.4433 -2.1188
  147PROXR  H1319642   9.957  11.869  10.225 -1.5462 -0.2353 -1.0502
  147PROXR   C219643   9.987  11.692  10.301 -0.0916  0.9403 -0.7163
  147PROXR  H2119644  10.025  11.592  10.272 -2.7882 -0.2256 -0.5322
  147PROXR   C319645   9.841  11.664  10.346 -0.2091  0.3133 -0.7173
  147PROXR  H3119646   9.790  11.758  10.375  0.0824 -0.0266  1.0577
  147PROXR  H3219647   9.786  11.625  10.258  0.2147  2.8045 -2.1717
  147PROXR  H3319648   9.839  11.581  10.421  1.0997  1.1001  0.2262
  148PROXR   O119649  10.079  11.728  10.407 -0.2028 -0.0444  0.2704
  148PROXR   C119650  10.162  11.624  10.464 -0.2469 -0.5083  0.2411
  148PROXR  H1119651  10.166  11.532  10.403 -2.1012 -0.7125  0.3584
  148PROXR  H1319652  10.270  11.650  10.470 -0.5318  0.8719 -0.1072
  148PROXR   C219653  10.125  11.594  10.612 -0.0669  0.5009 -0.0345
  148PROXR  H2119654  10.016  11.585  10.637 -0.0912 -0.8321 -0.5123
  148PROXR   C319655  10.187  11.691  10.714 -0.5816 -0.2347  0.5677
  148PROXR  H3119656  10.173  11.659  10.819 -0.8035  0.3041  0.7063
  148PROXR  H3219657  10.293  11.706  10.685 -0.9147  0.9794 -0.1003
  148PROXR  H3319658  10.124  11.780  10.692 -2.5093 -1.5762  0.3668
  149PROXR   O119659  10.179  11.470  10.643 -0.0995  0.1392  0.1940
  149PROXR   C119660  10.098  11.356  10.610 -0.0401 -0.2334  0.3175
  149PROXR  H1119661   9.999  11.384  10.653  0.5423  2.1607  0.2586
  149PROXR  H1319662  10.090  11.342  10.500 -1.9235  1.2751  0.2136
  149PROXR   C219663  10.147  11.225  10.682  0.2802  0.0731 -0.1559
  149PROXR  H2119664  10.178  11.254  10.784 -1.3723  2.6952 -0.2927
  149PROXR   C319665  10.268  11.168  10.603  0.2427 -0.0712 -0.2275
  149PROXR  H3119666  10.345  11.249  10.603 -0.4816  0.7661 -3.6446
  149PROXR  H3219667  10.304  11.073  10.649 -2.4072 -0.3965  1.4169
  149PROXR  H3319668  10.241  11.159  10.496 -2.1427  1.0427  0.2113
  150PROXS   O119669  10.046  11.121  10.673  0.0500 -0.0154 -0.4917
  150PROXS   C119670   9.937  11.148  10.765  0.1604 -0.0847  0.1278
  150PROXS  H1119671   9.977  11.190  10.860 -0.9456 -1.3920  1.2136
  150PROXS  H1319672   9.866  11.216  10.713  0.5719  0.6472  0.5097
  150PROXS   C219673   9.866  11.015  10.793 -0.4929  0.2737  0.6926
  150PROXS  H2119674   9.863  10.949  10.703 -0.2567 -0.6304  1.3311
  150PROXS   C319675   9.724  11.038  10.835  0.2457 -0.2592 -0.8946
  150PROXS  H3119676   9.657  11.098  10.770 -0.3573  1.4549  1.1937
  150PROXS  H3219677   9.672  10.942  10.856 -1.3527  0.9733  1.1303
  150PROXS  H3319678   9.728  11.096  10.929  0.3109 -0.4726 -0.7654
  151PROXR   O119679   9.940  10.956  10.903  0.4264 -0.1343  0.4908
  151PROXR   C119680  10.061  10.906  10.868 -0.4295 -0.2274  0.2380
  151PROXR  H1119681  10.065  10.868  10.763  1.1366  0.3808  0.0544
  151PROXR  H1319682  10.130  10.993  10.866 -1.3148  0.4879 -1.5500
  151PROXR   C219683  10.113  10.785  10.952  0.0454  0.1534  0.3030
  151PROXR  H2119684  10.059  10.695  10.915  0.6768 -0.2655  0.3806
  151PROXR   C319685  10.096  10.815  11.110 -0.5598  0.7653  0.3177
  151PROXR  H3119686  10.148  10.909  11.139  0.7829  0.7159 -1.7446
  151PROXR  H3219687   9.985  10.813  11.113 -0.6122  0.1958 -1.2245
  151PROXR  H3319688  10.129  10.729  11.171  0.3108 -0.5342 -1.8698
  152PROXR   O119689  10.252  10.764  10.929 -0.5275  0.1415  0.0945
  152PROXR   C119690  10.304  10.633  10.972 -0.5442 -0.2747 -0.1482
  152PROXR  H1119691  10.296  10.625  11.082 -1.9844 -0.5418 -0.2645
  152PROXR  H1319692  10.249  10.551  10.921  1.4164 -1.2261 -0.8458
  152PROXR   C219693  10.448  10.612  10.935 -0.5595 -0.2288 -0.4903
  152PROXR  H2119694  10.460  10.649  10.831 -4.9949  0.0394 -1.0678
  152PROXR   C319695  10.477  10.465  10.930 -0.3535  0.1002 -0.1533
  152PROXR  H3119696  10.585  10.447  10.914 -0.2481  1.0155 -0.5422
  152PROXR  H3219697  10.447  10.420  11.026 -1.3609 -0.6820 -0.8120
  152PROXR  H3319698  10.425  10.411  10.847  0.9125  0.2211 -1.0584
  153PROXR   O119699  10.537  10.683  11.019  0.2672 -0.2436  0.9824
  153PROXR   C119700  10.525  10.826  11.031 -0.0426  0.2155 -0.0091
  153PROXR  H1119701  10.432  10.844  11.089  0.9578  0.4118  1.5774
  153PROXR  H1319702  10.610  10.865  11.091  0.6190  1.3837 -1.6463
  153PROXR   C219703  10.533  10.898  10.896  0.0747  0.4754 -0.0908
  153PROXR  H2119704  10.440  10.875  10.840  0.0119 -2.4513  1.0483
  153PROXR   C319705  10.666  10.856  10.823  0.4088 -0.7225  0.4938
  153PROXR  H3119706  10.678  10.746  10.814  0.9262 -0.6076 -0.3576
  153PROXR  H3219707  10.668  10.915  10.729 -0.8386  1.7937  1.9349
  153PROXR  H3319708  10.754  10.890  10.881 -1.3066  2.1079  1.6668
  154PROXS   O119709  10.546  11.037  10.925 -0.2856 -0.0949  0.1475
  154PROXS   C119710  10.427  11.098  10.989 -0.0948 -0.2119  0.4879
  154PROXS  H1119711  10.339  11.047  10.945  0.8660 -2.0345  0.5343
  154PROXS  H1319712  10.441  11.073  11.096 -1.5453 -0.8394  0.5550
  154PROXS   C219713  10.432  11.252  10.975  0.4852  0.4018  0.2952
  154PROXS  H2119714  10.418  11.275  10.867  1.6567 -1.7072 -0.3693
  154PROXS   C319715  10.573  11.302  11.012  0.9769  0.1928 -0.4588
  154PROXS  H3119716  10.654  11.242  10.964  1.7377  2.8687 -2.7969
  154PROXS  H3219717  10.588  11.409  10.989  2.9303 -0.2759 -1.7107
  154PROXS  H3319718  10.586  11.293  11.122 -0.0446  1.0672 -0.2633
  155PROXR   O119719  10.323  11.295  11.053  0.1744  0.2046 -0.4136
  155PROXR   C119720  10.286  11.435  11.032 -0.8291  0.1069  0.3173
  155PROXR  H1119721  10.360  11.495  11.090  0.8230 -0.5223 -1.0566
  155PROXR  H1319722  10.290  11.458  10.923 -1.0243 -0.6349  0.1455
  155PROXR   C219723  10.152  11.467  11.087  0.2951  0.3251 -0.0654
  155PROXR  H2119724  10.152  11.447  11.197  1.3929  0.6349  0.0050
  155PROXR   C319725  10.043  11.384  11.019 -0.0751  0.4398 -0.4492
  155PROXR  H3119726  10.064  11.275  11.023  0.8920  0.6576  1.1827
  155PROXR  H3219727   9.947  11.392  11.074 -1.1705  0.4511 -2.2885
  155PROXR  H3319728  10.038  11.415  10.913  0.1821  0.3090 -0.5000
  156PROXS   O119729  10.123  11.605  11.060  0.0569  0.0151  0.2565
  156PROXS   C119730   9.998  11.641  11.120 -0.7066  0.2750  0.0639
  156PROXS  H1119731   9.913  11.615  11.053 -1.1665  3.1438 -0.5644
  156PROXS  H1319732   9.994  11.586  11.216 -1.4181  0.9156  0.4090
  156PROXS   C219733  10.001  11.795  11.147 -0.1725  0.1906 -0.4692
  156PROXS  H2119734  10.010  11.837  11.045 -1.3395 -0.1068 -0.7099
  156PROXS   C319735  10.120  11.844  11.231 -0.2400 -0.2398 -0.3520
  156PROXS  H3119736  10.217  11.828  11.179  0.6419  2.2358  0.3891
  156PROXS  H3219737  10.112  11.955  11.238 -0.2853 -0.1613 -1.5731
  156PROXS  H3319738  10.114  11.797  11.332 -0.4168  0.0683 -0.2176
  157PROXS   O119739   9.877  11.833  11.203  0.4253 -0.8907  0.6009
  157PROXS   C119740   9.870  11.974  11.205 -0.5469 -0.3955 -0.4092
  157PROXS  H1119741   9.910  12.009  11.302  1.2025  1.2454 -1.6318
  157PROXS  H1319742   9.931  12.028  11.129  1.3362 -0.6597  0.8458
  157PROXS   C219743   9.722  12.026  11.186  0.1681  0.4995 -0.8482
  157PROXS  H2119744   9.661  11.986  11.270  1.0345 -3.2469 -1.7789
  157PROXS   C319745   9.665  11.958  11.061 -0.2410 -0.4595 -0.3751
  157PROXS  H3119746   9.706  11.992  10.963 -2.3679  0.0444 -1.1541
  157PROXS  H3219747   9.657  11.848  11.067 -0.3273 -0.5680 -1.9229
  157PROXS  H3319748   9.559  11.993  11.052 -0.0995  0.5048  1.3783
  158PROXR   O119749   9.715  12.166  11.171  0.1059  0.4006 -0.0943
  158PROXR   C119750   9.589  12.222  11.206 -0.1586 -0.4444  0.5530
  158PROXR  H1119751   9.504  12.182  11.147 -0.6347 -0.0921  0.9990
  158PROXR  H1319752   9.556  12.197  11.309 -2.1863  1.1227  0.3295
  158PROXR   C219753   9.598  12.379  11.203 -0.1363 -0.0444  0.1483
  158PROXR  H2119754   9.678  12.410  11.273  0.8838 -1.2481 -0.4455
  158PROXR   C319755   9.472  12.444  11.266 -0.0452  0.9799 -0.3907
  158PROXR  H3119756   9.467  12.416  11.374  1.7339  1.0683 -0.2526
  158PROXR  H3219757   9.478  12.554  11.250 -1.2354  0.6998 -3.2461
  158PROXR  H3319758   9.379  12.416  11.213 -1.0594 -0.1344  1.8531
  159PROXR   O119759   9.618  12.426  11.074 -0.1250 -0.0484  0.4687
  159PROXR   C119760   9.755  12.454  11.040 -0.1183 -0.4021  0.0617
  159PROXR  H1119761   9.783  12.556  11.072  0.8288 -1.4333  2.7897
  159PROXR  H1319762   9.817  12.386  11.103 -0.9212  0.7785  2.2172
  159PROXR   C219763   9.774  12.418  10.889  0.1082 -0.2986  0.6634
  159PROXR  H2119764   9.696  12.474  10.832  0.6468  2.2674  2.2490
  159PROXR   C319765   9.755  12.269  10.862 -0.3394  0.0180 -0.6030
  159PROXR  H3119766   9.779  12.240  10.758  1.2197  0.1377 -0.3066
  159PROXR  H3219767   9.838  12.214  10.913  0.9101  1.5765 -0.8716
  159PROXR  H3319768   9.658  12.236  10.905  0.1596 -1.4441 -0.5446
  160PROXS   O119769   9.904  12.452  10.848 -0.5326  0.8095 -0.0134
  160PROXS   C119770   9.914  12.502  10.712  0.0866 -0.8130 -0.1787
  160PROXS  H1119771   9.953  12.419  10.649  0.7275 -0.3215 -0.4351
  160PROXS  H1319772   9.825  12.550  10.666  1.8088  1.3538 -1.4489
  160PROXS   C219773  10.030  12.610  10.712  0.0990 -0.0916  0.0399
  160PROXS  H2119774  10.117  12.556  10.754  2.3302  2.1491 -1.4298
  160PROXS   C319775  10.008  12.736  10.791 -0.1335  0.2080  0.0164
  160PROXS  H3119776  10.000  12.711  10.899 -0.0168 -1.4858 -0.3449
  160PROXS  H3219777  10.087  12.809  10.762  0.1461 -0.0999 -0.0005
  160PROXS  H3319778   9.909  12.778  10.765  0.3018 -0.1669 -2.5076
  161PROXR   O119779  10.049  12.627  10.573  0.1220 -0.0306  0.1707
  161PROXR   C119780  10.186  12.675  10.538 -0.1445 -0.2484  0.1675
  161PROXR  H1119781  10.215  12.775  10.576  1.7108  0.0605 -1.8436
  161PROXR  H1319782  10.252  12.597  10.579  0.0624 -0.9701 -1.4465
  161PROXR   C219783  10.191  12.658  10.380 -0.0585 -0.6495  0.0332
  161PROXR  H2119784  10.117  12.730  10.338  2.5358  1.2581 -1.5940
  161PROXR   C319785  10.154  12.513  10.336  0.1581  0.2365 -0.7601
  161PROXR  H3119786  10.068  12.480  10.398  2.0687 -2.8606  0.4738
  161PROXR  H3219787  10.131  12.506  10.227 -1.6228  2.2271 -0.5612
  161PROXR  H3319788  10.235  12.440  10.359  0.2317 -0.6204 -3.3603
  162PROXR   O119789  10.318  12.711  10.338 -0.5414 -0.4989  0.4081
  162PROXR   C119790  10.336  12.718  10.200  0.1038  0.8418 -0.3920
  162PROXR  H1119791  10.382  12.625  10.161 -0.5685  0.9984 -1.5991
  162PROXR  H1319792  10.238  12.728  10.150 -0.7790 -0.4220  0.9872
  162PROXR   C219793  10.429  12.831  10.156 -0.1801  0.0793 -0.6049
  162PROXR  H2119794  10.524  12.822  10.213  0.0780  1.6727 -0.7371
  162PROXR   C319795  10.370  12.973  10.194  0.6523  0.3493  0.8826
  162PROXR  H3119796  10.286  12.998  10.126  1.7799  0.3993 -0.5309
  162PROXR  H3219797  10.336  12.965  10.300 -0.4033  0.0543  0.5345
  162PROXR  H3319798  10.454  13.043  10.178  0.1962  0.6748 -0.1460
  163PROXS   O119799  10.462  12.810  10.019 -0.6911  0.1869  0.4122
  163PROXS   C119800  10.562  12.905   9.969  0.5230  0.1678  0.2114
  163PROXS  H1119801  10.512  13.004   9.970  0.4056  0.1466  2.5063
  163PROXS  H1319802  10.648  12.905  10.039  1.4290  0.1102 -0.8769
  163PROXS   C219803  10.610  12.875   9.830  0.8420  0.2259  0.3517
  163PROXS  H2119804  10.621  12.766   9.813 -0.3724  0.1695 -0.1572
  163PROXS   C319805  10.744  12.944   9.799  0.3726  0.2978 -0.8666
  163PROXS  H3119806  10.811  12.909   9.880  1.0833  1.6423 -0.8426
  163PROXS  H3219807  10.792  12.899   9.709  1.3561  2.4882 -1.5068
  163PROXS  H3319808  10.739  13.055   9.808  2.9009  0.3923  0.3013
  164PROXR   O119809  10.507  12.905   9.730 -0.0966 -0.0486 -0.8296
  164PROXR   C119810  10.529  12.853   9.600 -0.8617 -0.2674 -0.5963
  164PROXR  H1119811  10.612  12.914   9.560 -2.1974  3.8799  2.2073
  164PROXR  H1319812  10.536  12.742   9.590 -1.8379 -0.3610 -0.4145
  164PROXR   C219813  10.413  12.879   9.501  0.1866  0.7026  0.5113
  164PROXR  H2119814  10.403  12.990   9.496  0.2955  0.7294  0.8912
  164PROXR   C319815  10.284  12.814   9.555 -0.1906 -0.1688  0.4828
  164PROXR  H3119816  10.186  12.851   9.517  0.6628  3.2166  1.3325
  164PROXR  H3219817  10.283  12.704   9.536 -1.8818  0.1451 -1.6823
  164PROXR  H3319818  10.274  12.826   9.664  1.3765 -2.1293  0.9074
  165PROXR   O119819  10.439  12.829   9.369  0.4615  0.1907  0.3246
  165PROXR   C119820  10.341  12.876   9.274  0.2161  0.6979 -0.1484
  165PROXR  H1119821  10.251  12.816   9.298  0.2176  0.6471 -0.2662
  165PROXR  H1319822  10.312  12.981   9.294 -0.6417  0.6863 -1.2099
  165PROXR   C219823  10.392  12.874   9.130 -0.2806  0.7640 -0.2338
  165PROXR  H2119824  10.416  12.771   9.096  1.4202  0.6080  1.2733
  165PROXR   C319825  10.518  12.957   9.115 -0.0675  0.0647 -0.7289
  165PROXR  H3119826  10.596  12.916   9.183 -0.6874  1.2932  0.8020
  165PROXR  H3219827  10.564  12.961   9.014 -0.4276 -0.2913 -0.9051
  165PROXR  H3319828  10.506  13.063   9.147 -0.5585  0.2319 -1.4442
  166ETHOX   O119829  10.293  12.937   9.042  0.3409  0.2356 -0.1961
  166ETHOX   C119830  10.212  12.842   8.985  0.3510 -0.3841 -0.4391
  166ETHOX  H1119831  10.188  12.761   9.058 -2.2127 -0.0925 -0.8565
  166ETHOX  H1319832  10.262  12.793   8.899 -0.5524  0.4496 -1.4739
  166ETHOX   C219833  10.067  12.887   8.948  0.0558  0.1376 -0.7482
  166ETHOX  H2119834  10.030  12.954   9.030  1.5215 -0.1905  0.2185
  166ETHOX  H2319835   9.998  12.800   8.938 -2.6135  2.2691 -2.2714
  167ETHOX   O119836  10.058  12.951   8.825 -0.2574  0.1348 -0.3619
  167ETHOX   C119837   9.918  12.981   8.801  0.2765  0.4667  0.8698
  167ETHOX  H1119838   9.857  12.888   8.804  0.7761  0.0538 -0.8112
  167ETHOX  H1319839   9.871  13.045   8.879 -1.1440  0.0411  0.3874
  167ETHOX   C219840   9.896  13.054   8.668  0.1618 -0.2163 -0.3516
  167ETHOX  H2119841   9.984  13.121   8.654  1.4823 -2.0871 -1.3079
  167ETHOX  H2319842   9.801  13.112   8.674 -0.4235 -1.2548  0.5325
  168ETHOX   O119843   9.896  12.964   8.558  0.1152  0.6821 -0.5133
  168ETHOX   C119844   9.779  12.987   8.485  0.1406 -0.6505  0.7064
  168ETHOX  H1119845   9.777  13.092   8.450 -0.1148 -0.9926 -0.3322
  168ETHOX  H1319846   9.690  12.991   8.552 -0.6457  2.1214 -0.3696
  168ETHOX   C219847   9.769  12.876   8.375 -0.2299 -0.2365 -0.6168
  168ETHOX  H2119848   9.664  12.876   8.341 -0.6294 -3.0283  0.3354
  168ETHOX  H2319849   9.794  12.783   8.432 -0.5319  0.6226  0.9872
  169ETHOX   O119850   9.850  12.889   8.261  0.3746 -0.1636 -0.8174
  169ETHOX   C119851   9.825  13.007   8.194 -0.1687  0.2146 -0.4124
  169ETHOX  H1119852   9.726  13.013   8.146  0.0076  2.6496 -0.6006
  169ETHOX  H1319853   9.843  13.097   8.257 -0.5151  1.0671 -1.5034
  169ETHOX   C219854   9.923  13.016   8.069  0.2169 -0.4013 -0.0333
  169ETHOX  H2119855   9.886  12.929   8.012  2.6478 -2.4226  1.2794
  169ETHOX  H2319856  10.028  13.006   8.102  0.4674  3.2401  0.6902
  170ETHOX   O119857   9.904  13.134   7.987 -0.4331  0.6224 -0.3569
  170ETHOX   C119858   9.983  13.132   7.867  0.2019 -0.4305 -0.1246
  170ETHOX  H1119859   9.989  13.036   7.811  0.4028 -0.6635  0.2951
  170ETHOX  H1319860  10.088  13.147   7.898 -0.2488  1.1458  0.7308
  170ETHOX   C219861   9.945  13.246   7.778  0.2493 -0.1090  0.5684
  170ETHOX  H2119862   9.838  13.225   7.761  0.7111 -2.6518  0.4161
  170ETHOX  H2319863   9.996  13.232   7.680 -0.2954 -2.7987  0.6041
  171ETHOX   O119864   9.981  13.375   7.817  0.4375  0.0854  0.1466
  171ETHOX   C119865   9.937  13.472   7.717  0.0865 -0.1332 -0.4426
  171ETHOX  H1119866   9.973  13.448   7.615 -0.2516 -2.0300 -0.1496
  171ETHOX  H1319867   9.827  13.483   7.725  0.2256  0.2669  1.3430
  171ETHOX   C219868   9.981  13.611   7.763 -0.5912  0.6341  0.1991
  171ETHOX  H2119869   9.952  13.695   7.696  0.5495  0.9631  0.0908
  171ETHOX  H2319870  10.090  13.636   7.769 -0.3345 -0.6366  1.2108
  172ETHOX   O119871   9.917  13.664   7.877 -0.2665  0.2098  0.2300
  172ETHOX   C119872   9.981  13.647   8.004 -0.5516 -0.3040 -0.0789
  172ETHOX  H1119873  10.089  13.663   7.987 -0.6535 -0.1165 -0.5926
  172ETHOX  H1319874   9.965  13.541   8.033 -0.1173  0.1159  1.7872
  172ETHOX   C219875   9.918  13.730   8.121  0.0212  0.8510  1.1291
  172ETHOX  H2119876   9.983  13.720   8.210  3.5364 -0.3881 -1.3784
  172ETHOX  H2319877   9.814  13.692   8.139  0.8362 -2.6050 -0.5741
  173ETHOX   O119878   9.901  13.865   8.086  0.3044 -0.4531 -0.1519
  173ETHOX   C119879  10.021  13.943   8.099  0.7281 -0.3845 -0.2485
  173ETHOX  H1119880  10.048  13.942   8.206 -1.2348 -0.6543  0.2728
  173ETHOX  H1319881  10.101  13.893   8.040  0.5722  0.0136 -0.8024
  173ETHOX   C219882  10.002  14.089   8.065 -0.7258 -0.1452  0.0585
  173ETHOX  H2119883  10.098  14.144   8.055  0.3129 -1.6791  1.2343
  173ETHOX  H2319884   9.944  14.097   7.970 -1.7501 -2.1945  0.4573
  174ETHOX   O119885   9.925  14.145   8.168 -0.2446  0.3809  0.0589
  174ETHOX   C119886   9.864  14.257   8.123 -0.2977  0.8552 -0.3128
  174ETHOX  H1119887   9.941  14.318   8.071  1.2209  0.3367  1.2397
  174ETHOX  H1319888   9.790  14.219   8.049 -1.8596  0.0232  1.5889
  174ETHOX   C219889   9.789  14.330   8.226  0.2782 -0.3396  0.0263
  174ETHOX  H2119890   9.738  14.408   8.165 -0.2747 -1.2906 -0.7639
  174ETHOX  H2319891   9.857  14.376   8.300 -0.5097  0.6794  0.1257
  175ETHOX   O119892   9.689  14.252   8.286 -0.6361  0.3353 -0.0757
  175ETHOX   C119893   9.582  14.330   8.343 -0.2396 -0.0361 -0.7195
  175ETHOX  H1119894   9.626  14.431   8.361 -0.0318 -0.2281 -0.1052
  175ETHOX  H1319895   9.498  14.324   8.271 -1.5986 -0.4335  0.8454
  175ETHOX   C219896   9.522  14.271   8.479 -0.0882 -0.7857  0.8289
  175ETHOX  H2119897   9.489  14.165   8.476 -1.9960 -0.2011 -1.0669
  175ETHOX  H2319898   9.445  14.347   8.504  0.1126 -0.4572  0.4571
  176ETHOX   O119899   9.613  14.304   8.585 -0.5980 -0.3578 -0.1429
  176ETHOX   C119900   9.575  14.249   8.712 -0.2496 -0.0597  0.0161
  176ETHOX  H1119901   9.495  14.313   8.755  0.7783  0.5300  1.1271
  176ETHOX  H1319902   9.529  14.148   8.706 -0.7853  0.2197 -0.6344
  176ETHOX   C219903   9.681  14.255   8.822  0.1138  0.2429  0.3129
  176ETHOX  H2119904   9.640  14.257   8.925  0.9945  0.1559  0.6820
  176ETHOX  H2319905   9.738  14.351   8.823  0.5064  0.0117  0.4347
  177ETHOX   O119906   9.775  14.150   8.813 -0.1081  0.1189 -0.2802
  177ETHOX   C119907   9.840  14.151   8.688 -0.4521  0.4107  0.7216
  177ETHOX  H1119908   9.890  14.250   8.674  0.0390  0.2243  1.0943
  177ETHOX  H1319909   9.771  14.135   8.603 -0.3261 -1.2187  0.9058
  177ETHOX   C219910   9.948  14.042   8.687  0.3954  0.4022 -0.4990
  177ETHOX  H2119911   9.982  14.032   8.582 -2.8013 -2.3205 -1.4663
  177ETHOX  H2319912   9.915  13.938   8.706  2.3995 -0.1508  0.2079
  178ETHOX   O119913  10.051  14.083   8.778  0.5665  0.8430  0.1607
  178ETHOX   C119914  10.164  14.141   8.708 -1.0377  0.1847 -0.2233
  178ETHOX  H1119915  10.210  14.071   8.636  1.2643  0.2342  1.1180
  178ETHOX  H1319916  10.138  14.231   8.648 -0.7410 -0.0517 -0.7088
  178ETHOX   C219917  10.274  14.163   8.811 -0.2520  0.2154  0.0329
  178ETHOX  H2119918  10.247  14.211   8.907  0.5073 -0.7839  0.7746
  178ETHOX  H2319919  10.349  14.227   8.761  1.5463 -2.4642 -0.9198
  179ETHOX   O119920  10.340  14.042   8.830  0.2119 -0.2040 -0.4578
  179ETHOX   C119921  10.440  14.044   8.931  0.4827 -0.6717 -0.0433
  179ETHOX  H1119922  10.394  14.052   9.032 -1.6256 -0.1981 -0.9768
  179ETHOX  H1319923  10.512  14.127   8.918  1.2135 -0.9118  2.0143
  179ETHOX   C219924  10.527  13.915   8.925  0.3850  0.2058 -0.0919
  179ETHOX  H2119925  10.462  13.829   8.948 -0.1474  0.7680  0.5420
  179ETHOX  H2319926  10.606  13.927   9.002 -0.1889  2.0834  0.2775
  180ETHOX   O119927  10.587  13.908   8.794 -0.7837 -0.8099  0.5367
  180ETHOX   C119928  10.651  13.783   8.763 -0.3882 -0.2141 -0.1241
  180ETHOX  H1119929  10.726  13.763   8.842  1.1790 -0.2648 -1.5477
  180ETHOX  H1319930  10.577  13.700   8.752  1.4732 -1.8315 -1.1983
  180ETHOX   C219931  10.716  13.791   8.627 -0.5718 -0.2126 -0.0733
  180ETHOX  H2119932  10.770  13.695   8.613  1.9003  0.7133  2.2415
  180ETHOX  H2319933  10.793  13.871   8.627 -0.0331 -0.7233  0.4824
  181ETHOX   O119934  10.622  13.799   8.532 -0.2565  0.1552  0.1315
  181ETHOX   C119935  10.668  13.784   8.399  0.7140 -0.2688 -0.0516
  181ETHOX  H1119936  10.774  13.813   8.386  0.5317  0.4753  0.0274
  181ETHOX  H1319937  10.607  13.843   8.326 -1.6992  1.0535  2.7822
  181ETHOX   C219938  10.656  13.633   8.357  0.9025  0.1864  0.0893
  181ETHOX  H2119939  10.663  13.570   8.448  0.4714 -1.8629 -1.2062
  181ETHOX  H2319940  10.743  13.603   8.293  0.1019  0.9680 -1.4048
  182ETHOX   O119941  10.526  13.590   8.305 -0.1137  0.4957 -0.1065
  182ETHOX   C119942  10.548  13.492   8.206  0.2856  0.2092  0.7138
  182ETHOX  H1119943  10.608  13.537   8.124 -0.6522 -1.3774 -0.9195
  182ETHOX  H1319944  10.597  13.399   8.244 -0.3680 -0.3517  0.2283
  182ETHOX   C219945  10.416  13.446   8.144 -0.1391 -0.0603  0.0908
  182ETHOX  H2119946  10.447  13.389   8.054 -0.2493 -0.3384  0.2296
  182ETHOX  H2319947  10.347  13.530   8.118  1.4245  1.2306 -0.0000
  183ETHOX   O119948  10.350  13.349   8.226  0.2543  0.2015 -0.5137
  183ETHOX   C119949  10.261  13.260   8.162  0.3537 -0.5854 -0.1844
  183ETHOX  H1119950  10.327  13.190   8.107  2.3067  1.0824 -0.0516
  183ETHOX  H1319951  10.179  13.310   8.104 -2.1050 -3.9330  0.0886
  183ETHOX   C219952  10.168  13.199   8.273 -0.4239 -0.1705  0.5851
  183ETHOX  H2119953  10.082  13.155   8.219  1.5727 -1.7213 -1.5671
  183ETHOX  H2319954  10.141  13.274   8.351 -1.3299  0.6966 -0.5374
  184ETHOX   O119955  10.253  13.092   8.326  0.1235  0.3948 -0.1429
  184ETHOX   C119956  10.180  13.013   8.417 -0.0916 -0.4022  0.3074
  184ETHOX  H1119957  10.166  13.070   8.511 -3.6522  0.7741 -0.7583
  184ETHOX  H1319958  10.077  12.989   8.384 -0.2316 -1.0344  1.1463
  184ETHOX   C219959  10.268  12.888   8.432 -0.3978 -0.2125  0.0377
  184ETHOX  H2119960  10.282  12.848   8.330  2.7077 -1.1332  0.7323
  184ETHOX  H2319961  10.227  12.800   8.485  1.2988 -1.6127 -0.8816
  185ETHOX   O119962  10.406  12.906   8.469  0.6494  0.5699  0.1324
  185ETHOX   C119963  10.462  12.786   8.515 -0.0824  0.1270 -0.0599
  185ETHOX  H1119964  10.405  12.750   8.603  0.4619 -0.1001  0.2062
  185ETHOX  H1319965  10.472  12.706   8.439 -4.1785  0.8853 -1.6741
  185ETHOX   C219966  10.606  12.818   8.554 -0.4124 -0.0765  0.0033
  185ETHOX  H2119967  10.650  12.723   8.592  1.7842  0.9531  0.1392
  185ETHOX  H2319968  10.609  12.887   8.641  1.2877 -0.9172  0.6587
  186ETHOX   O119969  10.692  12.846   8.442  0.5821 -0.1016  0.2071
  186ETHOX   C119970  10.832  12.865   8.476  0.3953 -0.3365 -0.5763
  186ETHOX  H1119971  10.844  12.913   8.575  2.3922 -0.8818 -0.5009
  186ETHOX  H1319972  10.864  12.760   8.490 -1.0360 -0.8789 -1.1841
  186ETHOX   C219973  10.919  12.939   8.367  0.2876 -0.3310  0.3559
  186ETHOX  H2119974  11.023  12.920   8.404  0.6411 -1.1365 -0.9636
  186ETHOX  H2319975  10.898  13.047   8.356  0.2950 -0.5609 -2.9377
  187ETHOX   O119976  10.900  12.869   8.246 -0.2013 -0.5069  0.1666
  187ETHOX   C119977  10.889  12.952   8.128 -0.4797  0.1757 -0.4724
  187ETHOX  H1119978  10.979  13.017   8.115 -2.1104  2.3603 -1.4240
  187ETHOX  H1319979  10.898  12.883   8.042  0.2756  0.8783 -0.9787
  187ETHOX   C219980  10.756  13.024   8.107 -0.0295 -0.2430 -0.4278
  187ETHOX  H2119981  10.761  13.099   8.025 -0.2701  2.6540  2.0355
  187ETHOX  H2319982  10.735  13.067   8.208  1.1627 -1.2096  0.2632
  188ETHOX   O119983  10.662  12.919   8.085  0.0803 -0.1457 -0.5830
  188ETHOX   C119984  10.538  12.952   8.145 -0.4980  1.0601  0.0812
  188ETHOX  H1119985  10.501  13.056   8.129 -1.4474  1.1292  2.2816
  188ETHOX  H1319986  10.546  12.954   8.256 -1.0830  2.9048  0.1322
  188ETHOX   C219987  10.418  12.863   8.095  0.4473 -0.2691  0.3509
  188ETHOX  H2119988  10.424  12.851   7.985 -2.2906  1.7538 -0.1366
  188ETHOX  H2319989  10.321  12.916   8.108  1.1250  1.4519 -1.0962
  189ETHOX   O119990  10.417  12.732   8.153 -0.7575  0.7181 -0.2725
  189ETHOX   C119991  10.313  12.652   8.104 -0.0781 -0.4846 -0.2496
  189ETHOX  H1119992  10.225  12.695   8.156  0.5351 -0.5423  0.8671
  189ETHOX  H1319993  10.310  12.682   7.997  1.4329  1.2365  0.1416
  189ETHOX   C219994  10.359  12.508   8.115  0.1845 -0.1170  0.2455
  189ETHOX  H2119995  10.462  12.496   8.076  0.0683 -0.2052 -0.0338
  189ETHOX  H2319996  10.296  12.445   8.048  1.5065  0.2384 -1.4000
  190ETHOX   O119997  10.339  12.435   8.232  0.1976  0.0608  0.4514
  190ETHOX   C119998  10.202  12.392   8.259 -0.3193  0.0609  0.8117
  190ETHOX  H1119999  10.175  12.312   8.187 -2.3731  0.6289  0.8954
  190ETHOX  H1320000  10.133  12.478   8.248  1.5441  1.4088 -1.3627
  190ETHOX   C220001  10.200  12.327   8.395  0.1547  0.0493  0.3849
  190ETHOX  H2120002  10.243  12.393   8.473  1.5534 -0.0090 -0.3105
  190ETHOX  H2320003  10.268  12.241   8.378  0.0346 -0.4555  2.2462
  191ETHOX   O120004  10.065  12.288   8.423 -0.0371 -0.4349 -0.3672
  191ETHOX   C120005  10.060  12.223   8.549  0.4793  0.7831  0.0927
  191ETHOX  H1120006  10.126  12.134   8.552  1.7434  1.6084 -1.6936
  191ETHOX  H1320007  10.094  12.303   8.618  3.4920  2.7984 -3.3439
  191ETHOX   C220008   9.922  12.160   8.563 -0.2524  0.1938  0.0066
  191ETHOX  H2120009   9.941  12.095   8.651  4.3661  1.0513 -0.1045
  191ETHOX  H2320010   9.897  12.107   8.469 -1.5608 -1.8189  1.4033
  192ETHOX   O120011   9.812  12.243   8.580  0.3506  0.5272  0.1739
  192ETHOX   C120012   9.783  12.260   8.714  0.4411 -0.1899  0.3894
  192ETHOX  H1120013   9.880  12.273   8.767  0.0437  0.3971  0.9821
  192ETHOX  H1320014   9.729  12.169   8.747 -1.1094  0.1180 -1.1701
  192ETHOX   C220015   9.690  12.384   8.726 -0.3868 -0.1490  0.7064
  192ETHOX  H2120016   9.606  12.382   8.653  0.7625  2.8315 -0.8569
  192ETHOX  H2320017   9.750  12.473   8.698 -0.9707  0.6867  2.0223
  193ETHOX   O120018   9.641  12.411   8.854 -0.4991 -0.6965  0.4798
  193ETHOX   C120019   9.745  12.461   8.941  0.1135  0.3057 -0.4887
  193ETHOX  H1120020   9.821  12.380   8.952 -0.2511  0.1721  1.2532
  193ETHOX  H1320021   9.810  12.543   8.903  1.4272 -0.9018 -0.9563
  193ETHOX   C220022   9.691  12.506   9.082  0.1362 -0.0914  0.3363
  193ETHOX  H2120023   9.635  12.420   9.126  0.3627 -0.1675  0.4796
  193ETHOX  H2320024   9.613  12.577   9.050 -2.5319 -2.9316  0.0679
  194ETHOX   O120025   9.791  12.559   9.172 -0.8092  0.0988  0.0379
  194ETHOX   C120026   9.724  12.611   9.286 -0.0323  0.0190  0.3999
  194ETHOX  H1120027   9.794  12.619   9.372  1.6304 -0.2145 -0.8713
  194ETHOX  H1320028   9.634  12.558   9.323 -0.7462 -1.4631 -3.0711
  194ETHOX   C220029   9.670  12.759   9.265 -0.3449  0.1909 -0.3472
  194ETHOX  H2120030   9.638  12.807   9.359 -0.0393 -0.4980  0.1166
  194ETHOX  H2320031   9.574  12.738   9.214  0.0980 -0.8546 -0.7892
  195ETHOX   O120032   9.761  12.845   9.191 -0.0933  0.7630 -0.0267
  195ETHOX   C120033   9.700  12.972   9.172 -0.8443 -0.4535 -0.1541
  195ETHOX  H1120034   9.726  13.008   9.070 -1.3038 -0.4811 -0.2846
  195ETHOX  H1320035   9.591  12.961   9.190 -0.6873 -1.5585  0.1963
  195ETHOX   C220036   9.746  13.094   9.258  0.2667 -0.4293  0.2626
  195ETHOX  H2120037   9.714  13.182   9.199  1.0005  0.2652  0.8726
  195ETHOX  H2320038   9.857  13.090   9.268  0.5770 -0.5676 -2.5162
  196ETHOX   O120039   9.699  13.082   9.390  0.0979  0.0501  0.0763
  196ETHOX   C120040   9.711  13.199   9.458 -0.3096  0.0260 -0.3889
  196ETHOX  H1120041   9.794  13.264   9.422 -0.0853 -0.8902 -1.5736
  196ETHOX  H1320042   9.613  13.251   9.448 -0.6444 -0.3094  0.9263
  196ETHOX   C220043   9.716  13.175   9.607 -0.0253  0.1616 -0.7216
  196ETHOX  H2120044   9.699  13.274   9.654 -0.7139 -0.0965 -0.4225
  196ETHOX  H2320045   9.815  13.140   9.645  0.4477  2.0130 -0.1832
  197ETHOX   O120046   9.608  13.086   9.646 -0.6919 -0.3370 -0.4776
  197ETHOX   C120047   9.641  12.944   9.654 -0.1411  0.0686  0.2700
  197ETHOX  H1120048   9.700  12.921   9.562 -3.7262 -1.1853 -1.9219
  197ETHOX  H1320049   9.703  12.918   9.742 -0.5561 -1.4334  0.1485
  197ETHOX   C220050   9.514  12.859   9.649 -0.6701  0.3646 -0.1925
  197ETHOX  H2120051   9.459  12.903   9.563  1.3958  0.9437 -1.3002
  197ETHOX  H2320052   9.453  12.868   9.741 -0.0918 -1.0577  0.3758
  198ETHOX   O120053   9.553  12.729   9.627 -0.0937  0.6956  0.5714
  198ETHOX   C120054   9.579  12.654   9.747 -0.3004 -0.4209 -0.2332
  198ETHOX  H1120055   9.669  12.696   9.798 -1.6361  0.5673  1.4254
  198ETHOX  H1320056   9.508  12.660   9.832  1.9884 -0.0687  1.7758
  198ETHOX   C220057   9.612  12.507   9.713  0.1333 -0.0848  0.2203
  198ETHOX  H2120058   9.637  12.444   9.801 -0.3781 -0.2360  0.2582
  198ETHOX  H2320059   9.700  12.509   9.645 -0.5078 -2.6845 -0.8180
  199ETHOX   O120060   9.510  12.445   9.635  0.2117  0.2763 -0.3244
  199ETHOX   C120061   9.542  12.318   9.593 -0.0733  0.0173  0.2324
  199ETHOX  H1120062   9.545  12.247   9.678  0.9832  0.0584  0.2337
  199ETHOX  H1320063   9.646  12.321   9.556  0.1105 -1.4733  0.5709
  199ETHOX   C220064   9.420  12.270   9.503 -0.2550 -0.6103 -0.9272
  199ETHOX  H2120065   9.327  12.272   9.565  0.3841 -2.8859  0.2084
  199ETHOX  H2320066   9.429  12.161   9.482 -0.5825 -0.4248 -2.1450
  200ETHOX   O120067   9.410  12.363   9.397 -0.1803 -0.1500  0.2172
  200ETHOX   C120068   9.314  12.304   9.309  0.3640  0.8039  0.2541
  200ETHOX  H1120069   9.355  12.209   9.269 -2.1913 -0.2277 -0.1117
  200ETHOX  H1320070   9.223  12.275   9.366  1.4236 -2.2564  0.5896
  200ETHOX   C220071   9.293  12.403   9.196  0.2564  0.3962 -0.2828
  200ETHOX  H2120072   9.257  12.349   9.106 -0.1089  1.0879 -0.5582
  200ETHOX  H2320073   9.393  12.444   9.173  1.0688 -0.2913  1.8118
  201ETHOX   O120074   9.195  12.500   9.236  0.4081 -0.2189 -0.3089
  201ETHOX   C120075   9.181  12.599   9.136  0.0324 -0.2231 -0.1684
  201ETHOX  H1120076   9.163  12.552   9.037 -0.1906 -0.9944  0.2302
  201ETHOX  H1320077   9.282  12.645   9.132 -1.0665  2.5980  1.6226
  201ETHOX   C220078   9.059  12.688   9.165 -0.1717  1.0335 -0.9545
  201ETHOX  H2120079   9.064  12.767   9.087  1.5484  1.4938 -0.4149
  201ETHOX  H2320080   9.052  12.734   9.266 -3.8022  2.3195 -1.6493
  202ETHOX   O120081   8.937  12.609   9.149  0.8440 -0.8181  0.3081
  202ETHOX   C120082   8.826  12.675   9.220 -0.7692 -0.6760  0.1943
  202ETHOX  H1120083   8.850  12.681   9.328  0.9982  0.6536 -0.2117
  202ETHOX  H1320084   8.818  12.780   9.182 -0.5430 -0.8338 -0.3091
  202ETHOX   C220085   8.698  12.609   9.178 -0.2486  0.4253 -0.0729
  202ETHOX  H2120086   8.615  12.644   9.243 -0.0801  0.0531  0.3459
  202ETHOX  H2320087   8.689  12.499   9.171  1.7850  0.3020 -5.5921
  203ETHOX   O120088   8.660  12.654   9.053  0.0779 -0.0496  0.3303
  203ETHOX   C120089   8.527  12.617   9.010 -0.1597 -0.1583 -0.0616
  203ETHOX  H1120090   8.468  12.685   9.076  2.3097  2.5168 -0.4087
  203ETHOX  H1320091   8.503  12.511   9.033  1.4372 -0.4069  0.5804
  203ETHOX   C220092   8.490  12.660   8.862 -0.2995 -0.1165  0.0453
  203ETHOX  H2120093   8.531  12.760   8.835  0.6748  0.1149  2.1849
  203ETHOX  H2320094   8.379  12.666   8.870 -0.2951 -0.6715  0.5609
  204ETHOX   O120095   8.524  12.549   8.779  0.4779 -0.5969 -0.1811
  204ETHOX   C120096   8.436  12.548   8.665 -0.1912  0.1488 -0.9275
  204ETHOX  H1120097   8.334  12.551   8.708  1.2780  2.4197  2.8907
  204ETHOX  H1320098   8.450  12.640   8.604 -1.2032  1.0846  0.2001
  204ETHOX   C220099   8.460  12.424   8.576 -0.5166 -0.2162 -0.4467
  204ETHOX  H2120100   8.550  12.420   8.510  0.6655  0.6539  1.0273
  204ETHOX  H2320101   8.372  12.414   8.511 -1.1092 -0.2182  0.3387
  205ETHOX   O120102   8.462  12.309   8.654 -0.2774 -0.0330 -0.3120
  205ETHOX   C120103   8.465  12.187   8.583  0.2754  0.4161 -0.0946
  205ETHOX  H1120104   8.558  12.192   8.522  0.3950  0.2109  0.0656
  205ETHOX  H1320105   8.384  12.191   8.508  1.3536 -0.4107 -1.3548
  205ETHOX   C220106   8.442  12.057   8.658 -0.1534  0.0118  0.4725
  205ETHOX  H2120107   8.528  12.040   8.726 -0.1922 -0.8302  0.3221
  205ETHOX  H2320108   8.441  11.962   8.600  2.4613  0.2933 -0.1398
  206ETHOX   O120109   8.335  12.071   8.750  0.4516  0.2012  0.4964
  206ETHOX   C120110   8.298  11.953   8.814 -0.4714 -0.0354  0.1776
  206ETHOX  H1120111   8.250  11.894   8.733  0.6817  2.9714 -2.9500
  206ETHOX  H1320112   8.390  11.908   8.856 -2.0605 -2.1654  1.5316
  206ETHOX   C220113   8.199  11.974   8.925  0.1491 -0.2368  1.0674
  206ETHOX  H2120114   8.108  12.028   8.890  0.4563  0.8426  1.8818
  206ETHOX  H2320115   8.155  11.879   8.963  2.6643 -1.9993 -0.1484
  207ETHOX   O120116   8.264  12.051   9.027 -0.2498  0.0952 -0.4094
  207ETHOX   C120117   8.186  12.049   9.150 -0.5481  0.2835 -0.0182
  207ETHOX  H1120118   8.076  12.042   9.138 -0.5693  2.6439 -1.8321
  207ETHOX  H1320119   8.209  12.148   9.195  2.1446 -1.5604  3.1904
  207ETHOX   C220120   8.241  11.937   9.243  0.1742  0.8078  0.8191
  207ETHOX  H2120121   8.176  11.943   9.333  0.6133 -0.8499  1.2929
  207ETHOX  H2320122   8.343  11.960   9.279 -0.3436  0.5539  2.5198
  208ETHOX   O120123   8.241  11.800   9.192 -0.1448 -0.2664 -0.2798
  208ETHOX   C120124   8.121  11.725   9.223  0.0987  1.1265  0.2613
  208ETHOX  H1120125   8.100  11.715   9.331  0.0033 -2.0291  0.0440
  208ETHOX  H1320126   8.044  11.782   9.166 -0.6660  0.9262  1.0638
  208ETHOX   C220127   8.121  11.578   9.177  0.0792  0.6598 -0.7728
  208ETHOX  H2120128   8.178  11.567   9.082  0.9279 -1.1488 -0.1040
  208ETHOX  H2320129   8.016  11.545   9.166 -0.1747  0.4101  1.8516
  209ETHOX   O120130   8.188  11.495   9.270 -0.2676  0.2781 -0.2176
  209ETHOX   C120131   8.177  11.364   9.225 -0.6757 -0.0916 -0.3353
  209ETHOX  H1120132   8.241  11.353   9.135 -1.7977 -3.4998 -0.8452
  209ETHOX  H1320133   8.075  11.325   9.208  0.3624 -2.1610 -2.3122
  209ETHOX   C220134   8.223  11.280   9.345 -0.2920 -0.3339  0.2842
  209ETHOX  H2120135   8.197  11.175   9.320  3.1070 -0.8799 -1.6313
  209ETHOX  H2320136   8.167  11.316   9.434 -1.3270  1.5199 -1.0466
  210ETHOX   O120137   8.363  11.284   9.362 -0.4223  0.3986 -0.0819
  210ETHOX   C120138   8.400  11.194   9.470  0.0968  0.2120 -0.5454
  210ETHOX  H1120139   8.317  11.183   9.544  0.6965 -0.2525  0.0622
  210ETHOX  H1320140   8.415  11.097   9.420  3.0506  0.8737 -1.1046
  210ETHOX   C220141   8.529  11.234   9.538  0.6523 -0.5351  0.1643
  210ETHOX  H2120142   8.605  11.253   9.459 -1.0368 -0.7452 -1.6040
  210ETHOX  H2320143   8.575  11.158   9.604  0.4473 -1.2533 -0.5086
  211ETHOX   O120144   8.518  11.357   9.614 -0.5211  0.3886 -0.3916
  211ETHOX   C120145   8.412  11.352   9.712  0.2753  0.5567  0.0454
  211ETHOX  H1120146   8.307  11.358   9.675 -0.5195  2.5104  2.3535
  211ETHOX  H1320147   8.423  11.259   9.771  0.3227 -0.2248 -1.1623
  211ETHOX   C220148   8.420  11.470   9.811 -0.0246  0.2725  0.3426
  211ETHOX  H2120149   8.337  11.472   9.885 -0.4970  0.6179 -0.1952
  211ETHOX  H2320150   8.409  11.559   9.746  0.1391 -1.0528 -1.5747
  212ETHOX   O120151   8.535  11.483   9.890  0.0178 -0.2902  0.0105
  212ETHOX   C120152   8.545  11.608   9.961  0.2411  0.2282  0.0904
  212ETHOX  H1120153   8.524  11.687   9.887 -1.6696 -0.8689 -0.6379
  212ETHOX  H1320154   8.460  11.600  10.033 -0.1952 -2.1401 -0.5701
  212ETHOX   C220155   8.670  11.634  10.043  0.2297 -0.3523 -0.0449
  212ETHOX  H2120156   8.694  11.545  10.105 -0.7628 -1.0646 -0.6604
  212ETHOX  H2320157   8.656  11.723  10.109 -0.5996 -1.5192  1.4299
  213ETHOX   O120158   8.775  11.649   9.952  0.6729  0.0516  0.1837
  213ETHOX   C120159   8.893  11.620  10.020 -0.1731 -0.4319  0.5724
  213ETHOX  H1120160   8.889  11.611  10.130 -0.7397 -0.5285  0.5460
  213ETHOX  H1320161   8.938  11.526   9.979  2.6198  1.3015 -0.6488
  213ETHOX   C220162   9.004  11.718   9.978  0.2019 -0.5553 -0.3440
  213ETHOX  H2120163   8.984  11.735   9.870 -1.6388  1.5280  0.2524
  213ETHOX  H2320164   9.108  11.680   9.984  0.1314 -0.4844  1.8354
  214ETHOX   O120165   8.987  11.844  10.051 -0.2729 -1.0331  0.1342
  214ETHOX   C120166   8.917  11.941   9.973 -0.2941 -0.1344 -0.6302
  214ETHOX  H1120167   8.829  11.894   9.925 -1.0477  0.3319  0.2705
  214ETHOX  H1320168   8.986  11.976   9.893  3.6520 -1.7953  1.7643
  214ETHOX   C220169   8.880  12.056  10.058 -0.2323  0.1955 -0.4016
  214ETHOX  H2120170   8.815  12.021  10.141 -0.4248  1.8489  0.2007
  214ETHOX  H2320171   8.820  12.117   9.987 -0.5802  0.3781  0.0422
  215ETHOX   O120172   8.983  12.140  10.109  0.1690 -0.1275 -0.3871
  215ETHOX   C120173   9.071  12.073  10.199  0.7379 -0.0996  0.5422
  215ETHOX  H1120174   9.032  12.002  10.275 -0.8908  0.0225 -0.1342
  215ETHOX  H1320175   9.141  12.014  10.137  0.0554 -1.4322  1.0083
  215ETHOX   C220176   9.159  12.187  10.260 -0.4509  0.0337  0.2139
  215ETHOX  H2120177   9.174  12.270  10.188  0.8980  0.1206  0.5798
  215ETHOX  H2320178   9.251  12.145  10.306  1.1299 -1.3675 -3.8013
  216ETHOX   O120179   9.087  12.250  10.367 -0.4194  0.0817  0.3934
  216ETHOX   C120180   9.165  12.348  10.435  0.3560  0.5344  0.1752
  216ETHOX  H1120181   9.239  12.399  10.368  0.3543  0.5331  0.1726
  216ETHOX  H1320182   9.224  12.292  10.510 -1.0499 -1.8131 -0.3747
  216ETHOX   C220183   9.082  12.459  10.502  0.0456  0.8335  0.6334
  216ETHOX  H2120184   9.141  12.527  10.567 -0.4378 -0.0883  2.0526
  216ETHOX  H2320185   9.013  12.404  10.569 -0.5329 -0.6875 -1.1066
  217ETHOX   O120186   8.998  12.529  10.410  0.1849  0.2011 -0.3163
  217ETHOX   C120187   8.935  12.637  10.472  0.0146  0.6910  0.3985
  217ETHOX  H1120188   8.882  12.612  10.567 -1.1570  2.0536  0.1316
  217ETHOX  H1320189   9.020  12.701  10.502  0.6997 -0.1343  0.2604
  217ETHOX   C220190   8.844  12.711  10.374 -0.0722  0.0912 -0.2811
  217ETHOX  H2120191   8.792  12.784  10.440  1.3130 -0.3515  1.3672
  217ETHOX  H2320192   8.769  12.640  10.334 -2.0542  0.0294  3.1764
  218ETHOX   O120193   8.914  12.770  10.271 -0.5459 -0.2216  0.5842
  218ETHOX   C120194   8.836  12.803  10.156 -0.0464  0.1801  0.0008
  218ETHOX  H1120195   8.750  12.864  10.188  0.2443 -0.2863  1.7544
  218ETHOX  H1320196   8.801  12.707  10.110 -0.6137 -1.0438  2.8008
  218ETHOX   C220197   8.912  12.880  10.043 -0.3200  0.4845  0.5151
  218ETHOX  H2120198   8.975  12.955  10.095 -0.1285  0.1129  0.8217
  218ETHOX  H2320199   8.840  12.920   9.968 -0.2593 -1.7612 -0.8165
  219ETHOX   O120200   8.997  12.795   9.969  0.7076 -0.0213 -0.2400
  219ETHOX   C120201   9.082  12.871   9.885  0.0408  0.3694  0.2354
  219ETHOX  H1120202   9.100  12.800   9.801  0.5407  0.7836 -0.0115
  219ETHOX  H1320203   9.032  12.954   9.831 -2.4158 -1.0542  0.1552
  219ETHOX   C220204   9.230  12.899   9.936 -1.2228  0.2217 -0.4777
  219ETHOX  H2120205   9.295  12.935   9.853  0.8460  1.1948  1.4787
  219ETHOX  H2320206   9.265  12.806   9.985 -3.4673 -0.9019 -0.8736
  220ETHOX   O120207   9.222  13.009  10.025 -0.2126 -0.0246  0.7501
  220ETHOX   C120208   9.351  13.050  10.065 -0.3586  0.3683 -0.1440
  220ETHOX  H1120209   9.346  13.155  10.099 -1.1830 -0.5733  2.9567
  220ETHOX  H1320210   9.416  13.040   9.975 -0.1455 -1.7312  0.1843
  220ETHOX   C220211   9.404  12.977  10.191 -0.5364  0.1877  0.2872
  220ETHOX  H2120212   9.511  13.003  10.204 -0.1346 -1.1612 -0.1615
  220ETHOX  H2320213   9.386  12.868  10.174  1.3629  0.1439 -1.9375
  221ETHOX   O120214   9.333  13.021  10.307 -0.2416  0.3457 -0.3502
  221ETHOX   C120215   9.210  12.949  10.332  0.3350 -0.3421  0.1342
  221ETHOX  H1120216   9.139  12.978  10.251  1.4390 -1.1352 -1.1675
  221ETHOX  H1320217   9.234  12.841  10.344 -0.4733 -0.4417  1.0264
  221ETHOX   C220218   9.130  12.982  10.460 -0.4920  0.3973  0.2851
  221ETHOX  H2120219   9.022  12.962  10.444 -0.4859  1.1737 -0.8229
  221ETHOX  H2320220   9.129  13.093  10.461 -1.6228  0.3910  1.1970
  222ETHOX   O120221   9.191  12.939  10.581 -0.9003  0.2947  0.1667
  222ETHOX   C120222   9.117  12.959  10.698  0.4015  0.6269 -0.3175
  222ETHOX  H1120223   9.036  13.034  10.685 -0.1058  0.2739  0.7267
  222ETHOX  H1320224   9.066  12.861  10.714 -0.3111  0.7415 -1.6391
  222ETHOX   C220225   9.198  12.995  10.818 -0.2101  0.1000  0.4144
  222ETHOX  H2120226   9.269  12.911  10.834 -1.2589 -0.9435 -0.2202
  222ETHOX  H2320227   9.147  13.004  10.916  1.9880 -2.1245  1.8920
  223ETHOX   O120228   9.255  13.124  10.786  0.0589 -0.0171  0.1982
  223ETHOX   C120229   9.354  13.162  10.880  0.8883  0.0152  0.6247
  223ETHOX  H1120230   9.315  13.132  10.979  0.6447  0.7341  0.7495
  223ETHOX  H1320231   9.450  13.110  10.856  0.8785  0.5106 -0.5429
  223ETHOX   C220232   9.375  13.311  10.856 -0.1703 -0.0496 -0.5380
  223ETHOX  H2120233   9.418  13.368  10.941  0.8473  0.5701 -1.4582
  223ETHOX  H2320234   9.277  13.358  10.834  0.1638  0.2670 -1.4024
  224ETHOX   O120235   9.459  13.342  10.743  0.2897 -0.0690 -0.4214
  224ETHOX   C120236   9.479  13.480  10.721 -0.2966 -0.3752 -0.1121
  224ETHOX  H1120237   9.379  13.528  10.706  0.1681  0.3622 -0.9493
  224ETHOX  H1320238   9.533  13.516  10.811  0.8650 -1.1372 -0.4808
  224ETHOX   C220239   9.565  13.497  10.589 -0.4885 -0.3327 -0.4276
  224ETHOX  H2120240   9.553  13.602  10.552  0.3517 -0.4762 -1.1426
  224ETHOX  H2320241   9.542  13.423  10.510  1.2889 -0.7312 -0.6188
  225ETHOX   O120242   9.704  13.476  10.624 -0.2658  0.0406  0.0795
  225ETHOX   C120243   9.790  13.498  10.514 -1.0757 -0.3057 -0.2208
  225ETHOX  H1120244   9.800  13.609  10.513 -2.9444 -0.0886  0.3106
  225ETHOX  H1320245   9.737  13.478  10.419  0.1019  1.6392 -1.3440
  225ETHOX   C220246   9.924  13.420  10.527  0.4263 -0.1104  0.1881
  225ETHOX  H2120247   9.979  13.445  10.620 -0.5495 -0.1590  0.7875
  225ETHOX  H2320248   9.990  13.443  10.440  0.4712 -3.8999 -0.9765
  226ETHOX   O120249   9.894  13.277  10.527 -0.1533 -0.2225 -0.1532
  226ETHOX   C120250   9.967  13.212  10.424  0.0322  0.4908  0.1877
  226ETHOX  H1120251   9.925  13.110  10.410  0.5405 -0.0692  2.2892
  226ETHOX  H1320252   9.951  13.261  10.326  0.5757 -1.6405 -1.0057
  226ETHOX   C220253  10.113  13.196  10.451 -0.2380  0.1634  0.5235
  226ETHOX  H2120254  10.161  13.296  10.443  1.2130 -0.5422 -0.0133
  226ETHOX  H2320255  10.162  13.134  10.373 -2.2204 -0.4263 -0.3031
  227ETHOX   O120256  10.144  13.140  10.577  0.4154 -0.2671  0.2289
  227ETHOX   C120257  10.273  13.170  10.621 -0.5199 -0.5065 -0.5035
  227ETHOX  H1120258  10.277  13.280  10.634  2.5030 -0.4946 -0.8367
  227ETHOX  H1320259  10.340  13.148  10.535  0.0605  1.8253 -0.6946
  227ETHOX   C220260  10.301  13.092  10.752  0.6251  0.5175  0.2607
  227ETHOX  H2120261  10.221  13.079  10.828 -0.8282  2.0272 -0.9451
  227ETHOX  H2320262  10.385  13.141  10.807  0.3774  0.0646  1.0562
  228ETHOX   O120263  10.326  12.962  10.724 -0.4279  0.6377  0.1315
  228ETHOX   C120264  10.414  12.908  10.815  0.0027 -0.1738 -0.1084
  228ETHOX  H1120265  10.517  12.932  10.779 -1.0397  1.0946 -2.4715
  228ETHOX  H1320266  10.395  12.957  10.913 -0.9630 -0.6406 -0.0516
  228ETHOX   C220267  10.416  12.756  10.838 -0.3104 -0.1737  0.4325
  228ETHOX  H2120268  10.311  12.722  10.821  0.1979 -0.6908 -2.0187
  228ETHOX  H2320269  10.452  12.725  10.938  0.6150 -0.1404  0.1204
  229ETHOX   O120270  10.485  12.690  10.737 -1.0374 -0.4565  0.1623
  229ETHOX   C120271  10.484  12.555  10.754 -0.1472 -0.8677  0.2174
  229ETHOX  H1120272  10.379  12.522  10.746 -0.4121  0.0347 -0.2435
  229ETHOX  H1320273  10.521  12.536  10.857  0.0363  1.0082  0.5345
  229ETHOX   C220274  10.567  12.489  10.645  0.0352  0.8176 -0.0573
  229ETHOX  H2120275  10.609  12.398  10.693  0.4596  1.2683  0.4396
  229ETHOX  H2320276  10.655  12.553  10.623 -0.8965  2.5418  1.0343
  230ETHOX   O120277  10.491  12.451  10.531 -0.4317  0.2993  0.1314
  230ETHOX   C120278  10.554  12.473  10.411 -0.7426 -0.8963  0.2668
  230ETHOX  H1120279  10.509  12.566  10.369  2.2381  0.2600 -0.5931
  230ETHOX  H1320280  10.664  12.489  10.416 -0.7777  1.6889 -3.2407
  230ETHOX   C220281  10.537  12.360  10.307 -0.1649 -0.3884  0.4704
  230ETHOX  H2120282  10.437  12.352  10.260  0.4519 -2.7566 -0.5844
  230ETHOX  H2320283  10.553  12.261  10.356 -0.7789 -0.6521  0.1564
  231ETHOX   O120284  10.626  12.365  10.189  0.4088 -0.1056 -0.4649
  231ETHOX   C120285  10.597  12.255  10.100 -1.1202  0.8787  0.2051
  231ETHOX  H1120286  10.513  12.194  10.139  1.5296 -1.1263  3.2597
  231ETHOX  H1320287  10.689  12.194  10.087 -1.2714  0.8404 -0.7031
  231ETHOX   C220288  10.561  12.307   9.963 -0.0761  0.0785  0.0393
  231ETHOX  H2120289  10.537  12.239   9.878  0.0277  1.4993 -1.1782
  231ETHOX  H2320290  10.646  12.371   9.932  0.3446 -0.0976  0.8069
  232ETHOX   O120291  10.442  12.385   9.959 -0.1841 -0.6236  0.3046
  232ETHOX   C120292  10.456  12.493   9.866 -0.0209 -0.1061  0.3973
  232ETHOX  H1120293  10.381  12.571   9.888 -1.9527 -2.3756  2.4394
  232ETHOX  H1320294  10.557  12.539   9.867 -0.0954  0.0742 -0.2606
  232ETHOX   C220295  10.442  12.447   9.712  0.2793  0.1378 -0.1023
  232ETHOX  H2120296  10.421  12.536   9.649  1.6012 -0.8921 -2.1333
  232ETHOX  H2320297  10.356  12.377   9.706 -1.0515  1.7070  0.2101
  233ETHOX   O120298  10.563  12.375   9.677 -0.5115  0.2828  0.2935
  233ETHOX   C120299  10.584  12.383   9.532  0.1640  0.0845 -0.7859
  233ETHOX  H1120300  10.549  12.484   9.503 -0.7117  0.8042  2.3743
  233ETHOX  H1320301  10.690  12.354   9.516  0.9154  1.6690  0.8468
  233ETHOX   C220302  10.503  12.289   9.441  0.0006 -0.3742 -0.5103
  233ETHOX  H2120303  10.516  12.185   9.478 -0.6833  0.7128  3.2081
  233ETHOX  H2320304  10.545  12.290   9.338  0.7929  1.5447 -0.1990
  234ETHOX   O120305  10.365  12.317   9.442  0.4240 -0.3741  0.1603
  234ETHOX   C120306  10.331  12.400   9.328  0.1565  0.0819 -0.4946
  234ETHOX  H1120307  10.360  12.505   9.349 -1.8518  0.2721  1.8438
  234ETHOX  H1320308  10.385  12.360   9.240 -0.2375  0.0268 -0.7148
  234ETHOX   C220309  10.184  12.418   9.300 -0.0288 -0.2200  0.1598
  234ETHOX  H2120310  10.181  12.495   9.221 -1.3988  1.0313  1.3648
  234ETHOX  H2320311  10.137  12.454   9.395  1.1205  1.3042  0.1843
  235ETHOX   O120312  10.126  12.304   9.242  0.5403  0.3324 -0.4873
  235ETHOX   C120313   9.986  12.326   9.224 -0.7325 -0.5544 -0.3497
  235ETHOX  H1120314   9.943  12.336   9.326 -0.2281 -0.7701 -0.1114
  235ETHOX  H1320315   9.969  12.420   9.167 -1.1296 -0.1294  0.4515
  235ETHOX   C220316   9.902  12.217   9.160  0.4828  0.1314 -0.3134
  235ETHOX  H2120317   9.798  12.255   9.166  0.8487  0.9216  2.9035
  235ETHOX  H2320318   9.917  12.125   9.220  3.1506  2.1503  2.4782
  236ETHOX   O120319   9.930  12.196   9.024  0.1011  0.5819  0.1381
  236ETHOX   C120320   9.895  12.072   8.977  1.1220  0.7807 -0.1006
  236ETHOX  H1120321   9.870  12.078   8.869 -0.7548  2.9587  0.3789
  236ETHOX  H1320322   9.809  12.037   9.036  0.6443 -0.6697 -1.5868
  236ETHOX   C220323  10.007  11.964   8.989 -0.1427 -0.8533  0.7277
  236ETHOX  H2120324   9.952  11.867   8.986 -0.7391 -0.5338  1.1054
  236ETHOX  H2320325  10.054  11.969   9.090 -2.5945  1.3111  1.8859
  237ETHOX   O120326  10.105  11.975   8.891 -0.1309  0.5417 -0.1308
  237ETHOX   C120327  10.145  11.844   8.848  0.7334 -0.2892  0.1987
  237ETHOX  H1120328  10.200  11.789   8.928 -0.2133 -0.5842  0.6677
  237ETHOX  H1320329  10.061  11.778   8.817 -0.0527  0.3302  0.9514
  237ETHOX   C220330  10.241  11.860   8.725  0.8279  0.0212 -0.3531
  237ETHOX  H2120331  10.286  11.759   8.732 -3.7169 -2.5457 -3.1328
  237ETHOX  H2320332  10.312  11.944   8.742  0.8737  0.1415 -1.1148
  238ETHOX   O120333  10.163  11.873   8.606  0.5647 -0.4582 -0.3945
  238ETHOX   C120334  10.246  11.875   8.494  0.2755 -0.5614  0.1355
  238ETHOX  H1120335  10.286  11.775   8.466 -3.7368 -2.1271 -0.6734
  238ETHOX  H1320336  10.332  11.944   8.508  0.5739 -1.0633  0.8067
  238ETHOX   C220337  10.169  11.927   8.363 -0.2754  0.9083  0.0296
  238ETHOX  H2120338  10.091  11.998   8.399  1.4057  1.5505  2.6857
  238ETHOX  H2320339  10.128  11.840   8.307 -0.9730  0.4268  1.2565
  239ETHOX   O120340  10.248  12.009   8.271 -0.2462  0.0390  0.4196
  239ETHOX   C120341  10.340  11.939   8.189  0.5327  0.3420  0.5730
  239ETHOX  H1120342  10.406  11.875   8.251  1.7001  0.4428 -0.5279
  239ETHOX  H1320343  10.278  11.872   8.127 -0.1590  0.6449  0.9273
  239ETHOX   C220344  10.421  12.029   8.094  0.2422 -0.4689 -0.2131
  239ETHOX  H2120345  10.446  12.121   8.151 -1.1571  1.3194 -2.2975
  239ETHOX  H2320346  10.505  11.972   8.049  1.0712  0.8042 -0.3183
  240ETHOX   O120347  10.345  12.079   7.990  0.3398  0.3958  0.1813
  240ETHOX   C120348  10.423  12.186   7.929 -0.5319  0.3077 -0.0879
  240ETHOX  H1120349  10.527  12.154   7.905 -0.4757 -0.5670  1.2030
  240ETHOX  H1320350  10.438  12.269   8.001  1.4551  0.7699 -0.9657
  240ETHOX   C220351  10.354  12.225   7.798  0.6159 -0.2187  0.5434
  240ETHOX  H2120352  10.303  12.135   7.756 -2.7992 -0.5569  4.6962
  240ETHOX  H2320353  10.415  12.263   7.714 -1.6160 -0.1171 -1.1231
  241ETHOX   O120354  10.249  12.324   7.805  0.2448  0.1804  0.4903
  241ETHOX   C120355  10.201  12.351   7.676  0.1126  0.2092  0.1571
  241ETHOX  H1120356  10.271  12.424   7.630 -0.3229 -0.5215 -1.7549
  241ETHOX  H1320357  10.208  12.264   7.608 -1.2289 -0.8109  1.2713
  241ETHOX   C220358  10.055  12.395   7.663  0.3677  0.2994  0.1899
  241ETHOX  H2120359  10.045  12.417   7.554  3.6542 -2.6607 -0.8919
  241ETHOX  H2320360  10.040  12.489   7.720 -0.9134  0.1193  0.1656
  242ETHOX   O120361   9.971  12.302   7.713  0.0681 -0.0592  0.4593
  242ETHOX   C120362   9.834  12.321   7.670  0.4214 -0.2205  0.0861
  242ETHOX  H1120363   9.829  12.339   7.560  3.4623  0.7006  0.0183
  242ETHOX  H1320364   9.795  12.412   7.721 -0.9449 -0.4918 -0.4194
  242ETHOX   C220365   9.754  12.195   7.705  0.3932 -0.3420  0.0058
  242ETHOX  H2120366   9.647  12.224   7.702 -0.0121 -1.0089  3.3604
  242ETHOX  H2320367   9.771  12.161   7.810 -0.9099  0.6666  0.5683
  243ETHOX   O120368   9.769  12.086   7.623  0.0128  0.8626  0.1693
  243ETHOX   C120369   9.694  11.968   7.663 -0.0539 -0.1345  0.0441
  243ETHOX  H1120370   9.733  11.940   7.763  0.1359 -0.1774 -0.0419
  243ETHOX  H1320371   9.592  12.006   7.686 -0.2043 -1.3690  1.5400
  243ETHOX   C220372   9.707  11.860   7.553 -0.6601 -0.5431  0.3488
  243ETHOX  H2120373   9.678  11.913   7.460  0.5579  0.7626  0.6816
  243ETHOX  H2320374   9.638  11.775   7.570 -0.2748 -0.8733  0.2976
  244ETHOX   O120375   9.838  11.804   7.541  0.1165 -0.1743 -0.3241
  244ETHOX   C120376   9.857  11.705   7.450  0.0155  0.2156  0.0675
  244ETHOX  H1120377   9.819  11.743   7.353 -1.1464 -0.1230  0.3639
  244ETHOX  H1320378   9.801  11.612   7.476  1.0106 -0.0348  1.4040
  244ETHOX   C220379  10.004  11.671   7.418  0.0593 -0.3900 -0.3623
  244ETHOX  H2120380  10.054  11.768   7.397  2.9726 -1.7538 -0.2927
  244ETHOX  H2320381  10.003  11.616   7.321  0.2872  0.3482 -0.7922
  245ETHOX   O120382  10.082  11.610   7.516 -0.8401  0.7091  0.1975
  245ETHOX   C120383  10.069  11.465   7.513  0.3317 -0.2474 -0.5665
  245ETHOX  H1120384   9.962  11.438   7.519  0.9934 -2.8565  2.4811
  245ETHOX  H1320385  10.113  11.429   7.418 -0.0433  0.2715 -0.9400
  245ETHOX   C220386  10.158  11.393   7.621 -1.0180  0.0459  1.3648
  245ETHOX  H2120387  10.130  11.285   7.626 -1.0345 -0.1114 -0.9076
  245ETHOX  H2320388  10.152  11.440   7.722  0.0947 -0.7842  1.8303
  246ETHOX   O120389  10.293  11.408   7.579  0.5351 -0.5504  0.1461
  246ETHOX   C120390  10.377  11.397   7.691  0.2553  0.2013  0.4309
  246ETHOX  H1120391  10.374  11.308   7.758 -0.7752  0.3071  0.5384
  246ETHOX  H1320392  10.351  11.488   7.749 -1.5199 -0.5055  0.8217
  246ETHOX   C220393  10.526  11.406   7.654 -0.2234  0.9923  0.1202
  246ETHOX  H2120394  10.546  11.315   7.593 -2.2521  0.0165  0.8117
  246ETHOX  H2320395  10.579  11.390   7.750 -3.0508 -0.7495  1.5448
  247ETHOX   O120396  10.542  11.539   7.606 -0.3868  0.3828  0.4592
  247ETHOX   C120397  10.657  11.559   7.530  0.3655  0.1050 -0.6041
  247ETHOX  H1120398  10.738  11.510   7.588 -0.3551 -2.6028 -1.7379
  247ETHOX  H1320399  10.652  11.514   7.429  1.3763  0.3474 -0.7668
  247ETHOX   C220400  10.674  11.712   7.505  0.3044  0.0879  0.3092
  247ETHOX  H2120401  10.758  11.725   7.434 -0.2589 -0.2601 -0.4421
  247ETHOX  H2320402  10.581  11.755   7.462  0.8826  0.0258 -1.0552
  248ETHOX   O120403  10.710  11.784   7.621 -0.0642  0.0150  0.1916
  248ETHOX   C120404  10.745  11.916   7.601 -0.1303 -0.4266  0.4629
  248ETHOX  H1120405  10.845  11.919   7.553  1.1784 -0.8390  3.0041
  248ETHOX  H1320406  10.664  11.970   7.547 -0.2540 -0.0654  0.9921
  248ETHOX   C220407  10.766  11.987   7.733  0.1276  0.0586 -0.4481
  248ETHOX  H2120408  10.693  11.949   7.808  1.1086  0.3281  0.6805
  248ETHOX  H2320409  10.755  12.098   7.732 -0.3785  0.0589  1.4307
  249ETHOX   O120410  10.889  11.940   7.781 -0.3471 -0.0590 -0.0746
  249ETHOX   C120411  10.923  12.006   7.902 -0.2211 -0.7621 -0.2966
  249ETHOX  H1120412  10.919  12.117   7.897 -1.1226 -0.7129  0.9337
  249ETHOX  H1320413  10.848  11.974   7.978 -0.0916  3.4245  1.9002
  249ETHOX   C220414  11.061  11.972   7.947 -0.2366  0.2035 -0.1486
  249ETHOX  H2120415  11.109  12.039   8.022  0.3065 -0.3516  0.0081
  249ETHOX  H2320416  11.123  11.981   7.855 -0.8845 -0.5411 -0.6742
  250ETHOX   O120417  11.078  11.835   7.993 -0.0573 -0.0923 -0.4961
  250ETHOX   C120418  11.215  11.799   7.996 -0.6370 -1.0479 -0.3078
  250ETHOX  H1120419  11.247  11.808   7.890 -1.8138 -0.6162 -0.6430
  250ETHOX  H1320420  11.260  11.874   8.065 -2.1128  2.1365 -2.5127
  250ETHOX   C220421  11.253  11.663   8.050  0.1894  0.2650 -0.2418
  250ETHOX  H2120422  11.212  11.662   8.153  1.7532 -0.2185  0.4077
  250ETHOX  H2320423  11.363  11.647   8.050 -0.1517 -2.7382 -0.6148
  251ETHOX   O120424  11.187  11.563   7.978  0.6580  0.2396 -0.1570
  251ETHOX   C120425  11.223  11.432   8.022 -0.1116 -0.0257 -0.3851
  251ETHOX  H1120426  11.206  11.429   8.131 -2.3559  2.1332 -0.5976
  251ETHOX  H1320427  11.333  11.415   8.016 -0.3076 -1.3110 -0.7026
  251ETHOX   C220428  11.149  11.320   7.953  0.2807  0.0771  0.7795
  251ETHOX  H2120429  11.185  11.309   7.848  0.6876  0.0450  0.9226
  251ETHOX  H2320430  11.042  11.349   7.956  0.4159  0.6801  0.2187
  252ETHOX   O120431  11.169  11.207   8.036  0.2533  0.1581 -0.0548
  252ETHOX   C120432  11.077  11.109   7.995 -0.0865 -0.2526  0.1874
  252ETHOX  H1120433  10.974  11.149   8.010 -0.2989  0.8364 -3.2212
  252ETHOX  H1320434  11.086  11.086   7.886 -1.6713 -0.7502  0.1284
  252ETHOX   C220435  11.103  10.978   8.084  0.2759 -0.0869  0.5180
  252ETHOX  H2120436  11.115  11.010   8.190  0.9421 -1.3116  0.8304
  252ETHOX  H2320437  11.195  10.919   8.062 -0.6720 -1.0372 -1.0699
  253ETHOX   O120438  10.992  10.891   8.077  0.3175  0.0638  0.2597
  253ETHOX   C120439  10.984  10.832   7.950 -0.0143 -0.0901 -0.1046
  253ETHOX  H1120440  11.085  10.816   7.906 -0.3109 -1.2095 -0.4240
  253ETHOX  H1320441  10.925  10.907   7.894  1.5210  1.5164  0.3416
  253ETHOX   C220442  10.917  10.695   7.946 -0.4803 -0.4773  0.1264
  253ETHOX  H2120443  10.961  10.627   8.022  0.5628 -1.3544 -1.1980
  253ETHOX  H2320444  10.944  10.646   7.850 -0.2160 -0.7257  0.3252
  254ETHOX   O120445  10.776  10.689   7.946  0.1191 -0.2760 -0.8800
  254ETHOX   C120446  10.720  10.556   7.938 -0.2986 -0.3137  0.0516
  254ETHOX  H1120447  10.772  10.488   7.867 -0.2057 -0.5268  0.3224
  254ETHOX  H1320448  10.757  10.520   8.036  1.7187  0.0511 -0.5356
  254ETHOX   C220449  10.571  10.563   7.909  0.2356  0.3870  0.6218
  254ETHOX  H2120450  10.528  10.645   7.971  0.5760  0.5478  0.6431
  254ETHOX  H2320451  10.518  10.470   7.939  1.0408  0.2009  1.5071
  255ETHOX   O120452  10.547  10.592   7.766  0.3353  0.2065  0.4482
  255ETHOX   C120453  10.408  10.594   7.728  0.3195 -0.2579 -0.3170
  255ETHOX  H1120454  10.354  10.621   7.821  3.2206  0.2873  1.3354
  255ETHOX  H1320455  10.383  10.489   7.705  0.0030 -0.0876 -0.7718
  255ETHOX   C220456  10.384  10.692   7.605  0.1183  0.2540  0.1402
  255ETHOX  H2120457  10.279  10.684   7.572 -0.1778  1.4004  0.7589
  255ETHOX  H2320458  10.449  10.662   7.519  0.9803 -0.6997  1.0966
  256ETHOX   O120459  10.386  10.839   7.640 -0.5461  0.7952  0.2559
  256ETHOX   C120460  10.344  10.912   7.529 -0.5503 -0.2397 -0.6878
  256ETHOX  H1120461  10.387  10.875   7.434  0.8838  0.9521 -0.5375
  256ETHOX  H1320462  10.233  10.907   7.531 -0.6301  0.2106  2.7605
  256ETHOX   C220463  10.383  11.060   7.546 -0.2245  0.1025 -0.0876
  256ETHOX  H2120464  10.494  11.067   7.551 -0.3055  1.0441  0.8863
  256ETHOX  H2320465  10.347  11.097   7.644 -0.3610  0.3421 -0.2288
  257ETHOX   O120466  10.318  11.138   7.450 -0.2992 -0.0114  0.0038
  257ETHOX   C120467  10.395  11.166   7.333  0.1700 -0.5312  0.8942
  257ETHOX  H1120468  10.407  11.075   7.269 -1.6193 -0.1721  0.0020
  257ETHOX  H1320469  10.491  11.207   7.371 -0.6317 -0.1845  2.6582
  257ETHOX   C220470  10.328  11.275   7.251  0.6495  0.4128  0.9132
  257ETHOX  H2120471  10.395  11.309   7.169 -0.7687  1.2210  0.0564
  257ETHOX  H2320472  10.313  11.361   7.320  2.5733  1.9444 -0.4616
  258ETHOX   O120473  10.210  11.220   7.198  0.0974  0.4213  0.8700
  258ETHOX   C120474  10.134  11.317   7.124 -0.8001  0.3216 -0.1121
  258ETHOX  H1120475  10.044  11.343   7.183 -0.3337  0.6177  0.4839
  258ETHOX  H1320476  10.185  11.415   7.117 -0.2641  0.2206  1.8270
  258ETHOX   C220477  10.091  11.262   6.984 -1.1462 -0.4814  0.0488
  258ETHOX  H2120478  10.007  11.320   6.940  1.8394  2.0607 -2.8719
  258ETHOX  H2320479  10.064  11.155   6.992 -0.8159 -0.5225  0.6922
  259ETHOX   O120480  10.208  11.284   6.900 -0.3599  0.4164 -0.2741
  259ETHOX   C120481  10.191  11.212   6.778 -0.2516  0.3034  0.6640
  259ETHOX  H1120482  10.231  11.110   6.797  0.1134  0.4530  0.7076
  259ETHOX  H1320483  10.086  11.215   6.742  0.2412  2.2112 -0.7679
  259ETHOX   C220484  10.267  11.286   6.666 -0.2428  0.4442  0.8145
  259ETHOX  H2120485  10.251  11.395   6.680 -1.5520  0.2669  0.8788
  259ETHOX  H2320486  10.210  11.254   6.577  0.0394 -0.5673  0.9873
  260ETHOX   O120487  10.410  11.262   6.653  0.6846 -0.2717  0.1706
  260ETHOX   C120488  10.461  11.342   6.549  0.3263 -0.2822 -0.0156
  260ETHOX  H1120489  10.397  11.319   6.461 -0.0120 -0.4385  0.2708
  260ETHOX  H1320490  10.446  11.449   6.574  1.0823  0.1174 -1.1835
  260ETHOX   C220491  10.611  11.324   6.521 -0.1922 -0.4332  0.3396
  260ETHOX  H2120492  10.636  11.231   6.466 -0.7627  0.0162 -0.7058
  260ETHOX  H2320493  10.667  11.319   6.617  0.7951 -0.1216 -0.2026
  261ETHOX   O120494  10.655  11.435   6.441 -0.7611 -0.1753  0.0312
  261ETHOX   C120495  10.791  11.462   6.451 -0.3315 -0.2699  0.1360
  261ETHOX  H1120496  10.815  11.535   6.531 -0.3940 -0.5691  0.4296
  261ETHOX  H1320497  10.850  11.370   6.472  1.4375  0.6035 -0.8104
  261ETHOX   C220498  10.845  11.516   6.318  0.4468 -0.4452  0.1615
  261ETHOX  H2120499  10.826  11.437   6.242  1.6784  0.6498 -1.3310
  261ETHOX  H2320500  10.953  11.537   6.330  0.0984  1.3106  0.4340
  262ETHOX   O120501  10.786  11.641   6.276 -0.1691  0.2388 -0.0502
  262ETHOX   C120502  10.875  11.713   6.184  0.0891  0.2353  0.2532
  262ETHOX  H1120503  10.917  11.634   6.117 -1.4197  0.0021 -0.4647
  262ETHOX  H1320504  10.953  11.773   6.235  0.1948 -1.3680  2.0776
  262ETHOX   C220505  10.810  11.818   6.092  0.2433  0.4279  1.0218
  262ETHOX  H2120506  10.748  11.743   6.037  0.4381  0.3292  0.9359
  262ETHOX  H2320507  10.887  11.869   6.030  0.1208 -1.4035 -0.7442
  263ETHOX   O120508  10.724  11.912   6.156  0.1294 -0.3344  0.0139
  263ETHOX   C120509  10.632  11.974   6.062 -0.1209  0.6129  0.2561
  263ETHOX  H1120510  10.557  11.893   6.054 -0.6073  1.2570 -3.4124
  263ETHOX  H1320511  10.694  11.999   5.973  0.3965 -1.2307  0.0435
  263ETHOX   C220512  10.572  12.093   6.128  0.0623  0.4230  0.0319
  263ETHOX  H2120513  10.561  12.069   6.236 -1.1873 -2.3819 -0.6380
  263ETHOX  H2320514  10.474  12.121   6.086 -0.0224 -0.1909 -0.1856
  264ETHOX   O120515  10.652  12.217   6.117  0.4612  0.0743  0.4611
  264ETHOX   C120516  10.647  12.263   5.984  0.0491  0.3949  0.0928
  264ETHOX  H1120517  10.541  12.289   5.964 -0.3019 -0.2147  1.1145
  264ETHOX  H1320518  10.689  12.184   5.919  1.1085  0.7217  0.3605
  264ETHOX   C220519  10.732  12.381   5.956 -0.2308  0.2073 -0.2500
  264ETHOX  H2120520  10.697  12.461   6.026 -2.1477 -1.6302  1.0003
  264ETHOX  H2320521  10.726  12.411   5.849  0.4781 -1.4501 -0.7813
  265ETHOX   O120522  10.873  12.350   5.978  0.6031 -0.4784 -0.1517
  265ETHOX   C120523  10.941  12.475   5.974 -0.2366 -0.1933 -0.0040
  265ETHOX  H1120524  10.920  12.514   5.873  1.2762 -1.4396 -0.8321
  265ETHOX  H1320525  10.911  12.548   6.053 -1.5090  1.0657 -1.5954
  265ETHOX   C220526  11.091  12.447   5.988 -0.3769 -0.2558 -0.8994
  265ETHOX  H2120527  11.137  12.545   5.965 -1.2267  0.5408  0.6183
  265ETHOX  H2320528  11.137  12.372   5.920  1.5639  1.2136 -1.2859
  265ETHOX   OZ20529  11.135  12.403   6.118  0.5878  0.3270 -0.0037
  265ETHOX  HZ120530  11.225  12.371   6.120  0.3036 -0.4983  1.6641
    1ETHOX   O120531  16.828   9.608   9.844  0.3599  0.1982 -0.2606
    1ETHOX  HO120532  16.837   9.537   9.780 -0.0397  1.1904 -1.4830
    1ETHOX   C120533  16.950   9.646   9.910  0.2722 -0.3410  0.3559
    1ETHOX  H1120534  17.037   9.634   9.841  0.1753  0.0941  0.1542
    1ETHOX  H1320535  16.964   9.579   9.997 -0.4746  2.1960  2.5665
    1ETHOX   C220536  16.945   9.793   9.956 -0.6851 -0.3319  0.6895
    1ETHOX  H2120537  16.888   9.856   9.885 -1.0559 -0.9124  0.4673
    1ETHOX  H2320538  17.043   9.840   9.978  0.3453 -2.1399  0.1511
    2ETHOX   O120539  16.866   9.809  10.073  1.1679  0.2548 -0.2449
    2ETHOX   C120540  16.885   9.936  10.130  0.5755 -0.3909  0.1808
    2ETHOX  H1120541  16.837   9.913  10.228  0.6047 -1.1549  0.0206
    2ETHOX  H1320542  16.991   9.963  10.151  0.6598 -0.8247  0.3197
    2ETHOX   C220543  16.827  10.053  10.059  0.3436 -0.0104  0.7891
    2ETHOX  H2120544  16.803  10.125  10.140  0.4137  2.4698 -1.2505
    2ETHOX  H2320545  16.730  10.040  10.006  0.9848 -0.7380 -0.2478
    3ETHOX   O120546  16.917  10.107   9.959  0.3025  0.7753 -0.0019
    3ETHOX   C120547  16.859  10.197   9.865  0.7539 -0.3456  0.0037
    3ETHOX  H1120548  16.831  10.293   9.913 -0.9272  0.0592 -1.6910
    3ETHOX  H1320549  16.766  10.158   9.819 -0.2161  0.5635  1.1154
    3ETHOX   C220550  16.975  10.230   9.767 -0.0028 -0.4260  0.1990
    3ETHOX  H2120551  17.070  10.254   9.819  0.4497  0.0084 -0.8154
    3ETHOX  H2320552  16.958  10.326   9.713  0.0770  0.6278  1.9548
    4ETHOX   O120553  16.998  10.129   9.678 -0.2299 -0.3087 -0.3560
    4ETHOX   C120554  17.115  10.142   9.600 -0.2811  0.4039 -0.4493
    4ETHOX  H1120555  17.099  10.108   9.495 -2.1048  0.0101 -0.0845
    4ETHOX  H1320556  17.158  10.243   9.613  0.6792 -0.1227  0.5639
    4ETHOX   C220557  17.215  10.045   9.653 -0.2672  0.9251  0.4018
    4ETHOX  H2120558  17.226  10.036   9.763  1.7801 -2.3213  0.0827
    4ETHOX  H2320559  17.319  10.075   9.630 -0.3229  0.5698 -0.3418
    5ETHOX   O120560  17.216   9.917   9.593  0.2487  0.4510 -0.0843
    5ETHOX   C120561  17.275   9.816   9.682 -0.0174 -0.3649  0.0421
    5ETHOX  H1120562  17.370   9.861   9.718  0.6999  0.1918 -2.3714
    5ETHOX  H1320563  17.213   9.797   9.773  1.1749 -1.3608  0.6713
    5ETHOX   C220564  17.298   9.671   9.632  0.0506 -0.4041  0.0864
    5ETHOX  H2120565  17.351   9.691   9.537 -0.5205  1.1393  0.0486
    5ETHOX  H2320566  17.201   9.619   9.617 -0.1784 -1.1453  3.3138
    6ETHOX   O120567  17.384   9.596   9.716  0.1388  0.0271  0.5517
    6ETHOX   C120568  17.323   9.499   9.797  0.9431 -0.0607  0.3020
    6ETHOX  H1120569  17.217   9.522   9.820 -0.0986 -3.8068 -0.1448
    6ETHOX  H1320570  17.323   9.410   9.730  3.1539  0.0496  0.1051
    6ETHOX   C220571  17.406   9.465   9.927  0.6164  0.4243  0.1826
    6ETHOX  H2120572  17.514   9.464   9.902  0.6458 -0.5735  0.3262
    6ETHOX  H2320573  17.365   9.373   9.975 -0.5205  1.2420  0.8291
    7ETHOX   O120574  17.399   9.573  10.022 -0.0583 -0.5829  0.9972
    7ETHOX   C120575  17.524   9.590  10.090 -0.2837  0.2230  0.4938
    7ETHOX  H1120576  17.548   9.490  10.131 -3.4206 -0.6969  0.3633
    7ETHOX  H1320577  17.608   9.624  10.026 -0.4675  2.3453  1.2964
    7ETHOX   C220578  17.519   9.693  10.201 -0.3890  0.2502  0.6013
    7ETHOX  H2120579  17.507   9.795  10.159 -0.1738  0.0064 -0.0496
    7ETHOX  H2320580  17.622   9.687  10.243  0.0023 -1.0926 -0.4908
    8ETHOX   O120581  17.409   9.670  10.294 -0.4684 -0.2620  0.1971
    8ETHOX   C120582  17.416   9.758  10.406  0.3828 -0.5806 -1.3054
    8ETHOX  H1120583  17.379   9.859  10.380 -0.9490 -1.0263 -1.1852
    8ETHOX  H1320584  17.519   9.763  10.448  0.3333 -2.1157 -0.9256
    8ETHOX   C220585  17.317   9.700  10.508 -0.3265 -0.1688  0.1960
    8ETHOX  H2120586  17.231   9.666  10.446 -2.0740  3.4753  0.3655
    8ETHOX  H2320587  17.287   9.789  10.568 -0.6798  0.5753 -1.0498
    9ETHOX   O120588  17.373   9.601  10.597  0.1387  0.1075  0.2186
    9ETHOX   C120589  17.286   9.543  10.691  0.1551  0.0105 -0.0887
    9ETHOX  H1120590  17.274   9.621  10.769  0.3334  0.5151 -0.5619
    9ETHOX  H1320591  17.183   9.529  10.652  0.8538 -2.9680 -1.1591
    9ETHOX   C220592  17.356   9.426  10.754 -0.4546  0.2055  0.2450
    9ETHOX  H2120593  17.297   9.373  10.831  1.3974 -0.8793  0.9731
    9ETHOX  H2320594  17.454   9.462  10.790 -0.8477  1.1055  0.4461
   10ETHOX   O120595  17.383   9.335  10.646 -0.1433 -0.2062  0.2845
   10ETHOX   C120596  17.467   9.232  10.683  0.0178  0.1371  0.8222
   10ETHOX  H1120597  17.438   9.138  10.632 -1.4915 -0.3151  2.4108
   10ETHOX  H1320598  17.446   9.208  10.790 -2.7333 -0.7373  0.1622
   10ETHOX   C220599  17.610   9.262  10.643  1.2290  0.7439  0.1978
   10ETHOX  H2120600  17.626   9.361  10.596 -0.2660  0.9481  0.0745
   10ETHOX  H2320601  17.656   9.188  10.574  1.4080  0.0202  1.0803
   11ETHOX   O120602  17.674   9.274  10.765 -0.1642 -0.0977 -0.7063
   11ETHOX   C120603  17.813   9.311  10.759  0.2019 -0.0984 -0.4892
   11ETHOX  H1120604  17.854   9.275  10.662  0.7520  1.0230 -0.6901
   11ETHOX  H1320605  17.830   9.421  10.768 -2.3194  0.2478  1.4256
   11ETHOX   C220606  17.907   9.246  10.865 -0.4155  0.0181 -0.3129
   11ETHOX  H2120607  17.905   9.136  10.847  0.6897  0.0802 -0.8974
   11ETHOX  H2320608  18.012   9.276  10.843 -0.8313  1.7860 -0.0679
   12ETHOX   O120609  17.874   9.284  11.002 -0.6260 -0.7455  0.4270
   12ETHOX   C120610  17.993   9.337  11.059  0.3656 -0.3731  0.3141
   12ETHOX  H1120611  18.027   9.416  10.988  0.0601 -1.2605 -0.8492
   12ETHOX  H1320612  18.069   9.256  11.063  0.1321 -0.5679  0.9280
   12ETHOX   C220613  17.968   9.415  11.188 -0.1274  0.7529 -0.8294
   12ETHOX  H2120614  18.073   9.424  11.223  0.1608 -1.9343 -0.8023
   12ETHOX  H2320615  17.919   9.353  11.266 -1.1559 -0.7291 -2.5691
   13ETHOX   O120616  17.904   9.541  11.165 -0.4028 -0.1623 -0.0262
   13ETHOX   C120617  17.904   9.618  11.290  0.1959 -0.0757  0.2469
   13ETHOX  H1120618  17.830   9.699  11.274  0.3296  0.2518  1.2314
   13ETHOX  H1320619  17.865   9.556  11.374  0.5445 -1.3150 -0.4691
   13ETHOX   C220620  18.041   9.688  11.325  0.1026  0.4841  0.2166
   13ETHOX  H2120621  18.005   9.767  11.394  1.3078  0.7991  0.5021
   13ETHOX  H2320622  18.072   9.730  11.226 -2.5050 -0.0243 -0.9155
   14ETHOX   O120623  18.138   9.604  11.382 -0.2001  0.3160  0.1632
   14ETHOX   C120624  18.264   9.669  11.385  0.6040  0.3257 -0.5406
   14ETHOX  H1120625  18.246   9.770  11.426  1.0348  1.0821 -2.1538
   14ETHOX  H1320626  18.303   9.689  11.283  0.6597 -0.9587 -0.7965
   14ETHOX   C220627  18.362   9.591  11.470  1.1080  0.5594  0.7097
   14ETHOX  H2120628  18.322   9.566  11.570 -1.6777  0.3601 -0.3696
   14ETHOX  H2320629  18.449   9.660  11.474  1.9688 -0.5075  0.7860
   15ETHOX   O120630  18.405   9.478  11.394  1.0669  0.3697 -0.0188
   15ETHOX   C120631  18.528   9.431  11.462 -0.0924  0.3706  0.3204
   15ETHOX  H1120632  18.594   9.517  11.485  1.5841 -0.8052  0.1327
   15ETHOX  H1320633  18.502   9.395  11.563  2.0767 -2.3446  0.0395
   15ETHOX   C220634  18.601   9.316  11.387  0.4779 -0.5603  0.2130
   15ETHOX  H2120635  18.684   9.280  11.452  1.1515 -0.5952 -0.6507
   15ETHOX  H2320636  18.535   9.229  11.364  1.0101 -0.3837 -2.2309
   16ETHOX   O120637  18.651   9.368  11.263  0.3578 -0.5051  0.2598
   16ETHOX   C120638  18.738   9.279  11.211 -1.1461 -0.1584 -0.3988
   16ETHOX  H1120639  18.827   9.268  11.276 -0.9070  1.8781 -0.3293
   16ETHOX  H1320640  18.690   9.181  11.189  1.4514 -1.3971 -0.9634
   16ETHOX   C220641  18.766   9.329  11.065 -0.3105 -0.2373 -0.4838
   16ETHOX  H2120642  18.671   9.338  11.009 -1.0685  1.2844  0.9537
   16ETHOX  H2320643  18.827   9.248  11.019 -0.9541 -2.6009  2.5740
   17ETHOX   O120644  18.831   9.454  11.049  0.3258 -0.2295  0.3768
   17ETHOX   C120645  18.867   9.476  10.908  0.1490  0.2960  0.1063
   17ETHOX  H1120646  18.898   9.380  10.860  1.8775  1.2125 -0.7304
   17ETHOX  H1320647  18.786   9.516  10.843  0.0984  1.1098  0.6550
   17ETHOX   C220648  18.984   9.575  10.883  0.3415 -1.0082 -0.2066
   17ETHOX  H2120649  19.030   9.536  10.789 -0.2979  0.6677 -1.2548
   17ETHOX  H2320650  19.046   9.581  10.975  1.0789 -2.5402 -0.5635
   18ETHOX   O120651  18.948   9.702  10.829 -0.5107  0.6842 -0.3286
   18ETHOX   C120652  19.059   9.783  10.786  0.0288 -0.1986 -0.3406
   18ETHOX  H1120653  19.125   9.787  10.876 -0.0096  1.6789 -0.3543
   18ETHOX  H1320654  19.126   9.740  10.709  2.6964  1.0724  1.1083
   18ETHOX   C220655  19.017   9.924  10.734 -0.0670 -0.3210 -0.0984
   18ETHOX  H2120656  18.928   9.905  10.671 -0.7291 -0.3395  0.8147
   18ETHOX  H2320657  19.104   9.959  10.676 -0.3449 -0.1285 -0.3977
   19ETHOX   O120658  18.987  10.016  10.838 -0.1689 -0.3336  0.4553
   19ETHOX   C120659  18.950  10.150  10.794 -0.1950 -0.5913 -0.8641
   19ETHOX  H1120660  18.852  10.135  10.742  0.4700 -1.7729 -1.8355
   19ETHOX  H1320661  19.017  10.187  10.713 -1.3839  0.4894 -1.3998
   19ETHOX   C220662  18.938  10.261  10.901 -0.3445  0.1949 -0.3719
   19ETHOX  H2120663  18.866  10.234  10.981 -2.1119  2.3514 -1.1060
   19ETHOX  H2320664  18.906  10.357  10.854  2.6805  1.2664 -0.5000
   20ETHOX   O120665  19.062  10.297  10.961 -0.7737  0.3318 -0.0535
   20ETHOX   C120666  19.108  10.430  10.950 -0.1594  0.3088 -0.1427
   20ETHOX  H1120667  19.157  10.437  10.851  2.2264 -0.8956  0.8467
   20ETHOX  H1320668  19.025  10.502  10.966 -0.6247 -0.6430  2.0911
   20ETHOX   C220669  19.211  10.467  11.058  0.2602 -0.4700  0.0145
   20ETHOX  H2120670  19.286  10.536  11.015  0.1125 -2.7191 -4.4503
   20ETHOX  H2320671  19.263  10.374  11.089 -0.2171 -0.8033 -0.1671
   21ETHOX   O120672  19.142  10.522  11.170  0.2462  0.0628 -0.0005
   21ETHOX   C120673  19.229  10.536  11.284  0.1604 -0.2487  0.0859
   21ETHOX  H1120674  19.319  10.593  11.256  1.6167 -2.0719  0.8580
   21ETHOX  H1320675  19.265  10.435  11.313 -0.8162 -0.2647  1.3470
   21ETHOX   C220676  19.147  10.587  11.406  0.1540 -0.1560 -0.1586
   21ETHOX  H2120677  19.223  10.574  11.485  1.1918  1.1263 -0.8949
   21ETHOX  H2320678  19.054  10.528  11.419 -0.3285  1.1754  3.1124
   22ETHOX   O120679  19.117  10.723  11.387 -0.2076  0.3089  0.3866
   22ETHOX   C120680  19.001  10.767  11.459 -0.1631 -0.4245  0.7132
   22ETHOX  H1120681  18.909  10.733  11.407  1.4457 -1.3772 -1.6784
   22ETHOX  H1320682  19.010  10.705  11.551  1.5829 -1.8352 -0.3483
   22ETHOX   C220683  19.005  10.924  11.474  0.0591  0.3176  0.7419
   22ETHOX  H2120684  18.916  10.958  11.530  1.5683 -0.7747  4.0277
   22ETHOX  H2320685  19.093  10.967  11.527 -1.1725  2.0487  1.4583
   23ETHOX   O120686  18.997  10.988  11.342 -0.4792  0.1838 -0.6087
   23ETHOX   C120687  18.995  11.128  11.355 -0.9405 -0.0669  0.1198
   23ETHOX  H1120688  19.078  11.172  11.413 -0.4474 -0.9851  0.1215
   23ETHOX  H1320689  18.907  11.159  11.415 -0.8741 -1.6763  1.1000
   23ETHOX   C220690  19.006  11.199  11.217 -0.1731 -0.0095 -0.3564
   23ETHOX  H2120691  19.028  11.306  11.234  2.6222 -0.1076 -2.6521
   23ETHOX  H2320692  18.911  11.185  11.161 -0.4362 -0.3932  0.1776
   24ETHOX   O120693  19.112  11.139  11.137  0.3109  0.0621 -0.3763
   24ETHOX   C120694  19.114  11.192  11.009  0.0676 -0.7438  0.7820
   24ETHOX  H1120695  19.018  11.174  10.956 -0.2488  4.0192 -0.7593
   24ETHOX  H1320696  19.125  11.302  11.021  1.1668 -0.9624  2.0009
   24ETHOX   C220697  19.234  11.135  10.933  0.7238  0.3543 -0.1929
   24ETHOX  H2120698  19.227  11.153  10.824 -0.2502  1.3595  0.0226
   24ETHOX  H2320699  19.233  11.025  10.950  1.2876  0.6034  1.7111
   25ETHOX   O120700  19.353  11.206  10.968  0.0472 -0.1646 -1.0632
   25ETHOX   C120701  19.426  11.156  11.083 -0.1803 -0.2492 -0.0111
   25ETHOX  H1120702  19.428  11.045  11.089 -2.9917 -0.3697 -0.0104
   25ETHOX  H1320703  19.384  11.182  11.183  1.6179  1.4928  0.3670
   25ETHOX   C220704  19.568  11.220  11.083  0.6327  0.0287 -0.0817
   25ETHOX  H2120705  19.630  11.195  10.994  0.0643 -0.7589 -0.2693
   25ETHOX  H2320706  19.642  11.168  11.148 -0.2242  0.2065  1.0511
   26ETHOX   O120707  19.559  11.352  11.103 -0.0418  0.0212  0.0725
   26ETHOX   C120708  19.686  11.418  11.133 -0.1243  0.0780 -0.3280
   26ETHOX  H1120709  19.757  11.352  11.186 -0.7505  0.5035  1.0936
   26ETHOX  H1320710  19.736  11.444  11.038 -2.3971  0.0388 -1.6194
   26ETHOX   C220711  19.653  11.530  11.232 -0.3378  0.2311 -0.3542
   26ETHOX  H2120712  19.573  11.601  11.200 -2.5002 -0.8927  2.1322
   26ETHOX  H2320713  19.744  11.590  11.254 -0.6642  1.0064 -1.0366
   27ETHOX   O120714  19.614  11.485  11.362 -0.2198  0.3641  0.7875
   27ETHOX   C120715  19.599  11.596  11.447 -0.2650 -0.1530 -0.1122
   27ETHOX  H1120716  19.522  11.665  11.408 -0.2928  0.5078  1.0412
   27ETHOX  H1320717  19.698  11.645  11.458 -1.3300  1.5988  2.7972
   27ETHOX   C220718  19.559  11.572  11.595  0.0837  0.2466 -0.0005
   27ETHOX  H2120719  19.474  11.500  11.604  0.5915 -0.1224  2.6268
   27ETHOX  H2320720  19.535  11.669  11.644  3.5625  1.1392  0.2086
   28ETHOX   O120721  19.666  11.523  11.672 -0.1255  0.0653 -0.1581
   28ETHOX   C120722  19.633  11.518  11.817  0.0743  0.2990 -0.6564
   28ETHOX  H1120723  19.602  11.614  11.864  0.4393 -0.6961  1.7486
   28ETHOX  H1320724  19.548  11.450  11.835 -0.1245  0.1202 -2.1343
   28ETHOX   C220725  19.740  11.452  11.909 -0.7075  0.8618 -0.2853
   28ETHOX  H2120726  19.713  11.473  12.015 -1.7002  1.1866 -0.5955
   28ETHOX  H2320727  19.836  11.504  11.888 -1.8695  2.1033 -3.0907
   29ETHOX   O120728  19.766  11.314  11.881  0.1448  0.7401  0.2465
   29ETHOX   C120729  19.780  11.236  12.001 -0.0587 -0.2356  0.4225
   29ETHOX  H1120730  19.678  11.234  12.046 -1.4978  0.7194 -2.5130
   29ETHOX  H1320731  19.861  11.274  12.067 -0.8404  0.6025  0.9351
   29ETHOX   C220732  19.814  11.093  11.967  0.5199 -0.0642 -0.3860
   29ETHOX  H2120733  19.732  11.047  11.909  0.6124 -0.0803 -0.5066
   29ETHOX  H2320734  19.819  11.035  12.061 -1.7187  0.1179 -0.0997
   30ETHOX   O120735  19.944  11.085  11.907 -0.1493 -0.4390  0.0159
   30ETHOX   C120736  19.962  10.954  11.848  1.0145 -0.6283  0.3287
   30ETHOX  H1120737  19.968  10.884  11.935  2.1349  0.3729  1.0929
   30ETHOX  H1320738  19.875  10.918  11.790  0.9463  3.0932 -2.1521
   30ETHOX   C220739  20.090  10.945  11.759  0.4042 -0.3018  0.3710
   30ETHOX  H2120740  20.183  10.945  11.819  0.2369  2.2588  0.7124
   30ETHOX  H2320741  20.088  11.040  11.701  2.1947 -0.3491  0.1852
   31ETHOX   O120742  20.073  10.831  11.676  0.6757 -0.1117  0.4742
   31ETHOX   C120743  20.084  10.712  11.751 -0.5794  0.5152 -1.2037
   31ETHOX  H1120744  20.150  10.730  11.839 -2.0778  0.1625  0.0516
   31ETHOX  H1320745  19.983  10.682  11.788 -0.8358  0.4921 -1.9173
   31ETHOX   C220746  20.129  10.592  11.666  0.0390  0.2934  0.1395
   31ETHOX  H2120747  20.055  10.576  11.585 -0.8209  3.0223  0.3012
   31ETHOX  H2320748  20.139  10.499  11.725  0.1543  0.3225  0.1670
   32ETHOX   O120749  20.255  10.618  11.605  0.3796  0.1635 -0.0215
   32ETHOX   C120750  20.316  10.490  11.564 -0.5745 -0.0521 -0.4564
   32ETHOX  H1120751  20.322  10.417  11.647  0.7783 -1.2370 -1.5537
   32ETHOX  H1320752  20.250  10.459  11.480 -0.3812  0.1695 -0.6897
   32ETHOX   C220753  20.456  10.506  11.498 -0.1726  0.7480  0.1165
   32ETHOX  H2120754  20.501  10.407  11.474  1.6651  1.5822 -0.0766
   32ETHOX  H2320755  20.517  10.553  11.578 -1.4180  0.5105  1.2476
   33ETHOX   O120756  20.445  10.580  11.377  0.2353  0.1584  0.0997
   33ETHOX   C120757  20.569  10.615  11.326 -0.7568 -0.2204  0.0949
   33ETHOX  H1120758  20.628  10.672  11.401  0.8036 -1.6980  0.0449
   33ETHOX  H1320759  20.640  10.530  11.319  0.4122  0.7696 -0.4773
   33ETHOX   C220760  20.565  10.692  11.191  0.0553  0.2272 -0.1284
   33ETHOX  H2120761  20.660  10.748  11.192 -0.2033  0.6732  1.0768
   33ETHOX  H2320762  20.475  10.757  11.194 -0.7337 -0.8592  1.6063
   34ETHOX   O120763  20.568  10.609  11.073 -0.0097  0.0613 -0.0273
   34ETHOX   C120764  20.433  10.568  11.045 -0.2110  0.2166 -0.8691
   34ETHOX  H1120765  20.359  10.650  11.045 -1.8208 -1.1841 -0.7004
   34ETHOX  H1320766  20.397  10.509  11.132 -2.7977  0.5252 -1.6373
   34ETHOX   C220767  20.439  10.480  10.923  0.1843 -0.1547  0.3165
   34ETHOX  H2120768  20.344  10.422  10.927  0.5967 -0.8510  0.1672
   34ETHOX  H2320769  20.522  10.408  10.903 -1.9845 -2.2651 -1.6679
   35ETHOX   O120770  20.428  10.557  10.803 -0.4887  0.1140 -0.1825
   35ETHOX   C120771  20.553  10.617  10.765  0.1691  0.4308 -1.1009
   35ETHOX  H1120772  20.580  10.689  10.845 -0.0135  1.0659 -1.6097
   35ETHOX  H1320773  20.630  10.537  10.763 -0.9900 -0.8071  0.6261
   35ETHOX   C220774  20.545  10.689  10.632 -0.6972  0.5360 -0.2574
   35ETHOX  H2120775  20.640  10.743  10.615  0.0905 -0.3279  1.1852
   35ETHOX  H2320776  20.471  10.772  10.623 -0.0346  1.1051 -0.5024
   36ETHOX   O120777  20.533  10.606  10.522  0.1183  0.5426 -0.0073
   36ETHOX   C120778  20.586  10.662  10.400 -0.1966  0.3087  0.5678
   36ETHOX  H1120779  20.602  10.579  10.328 -3.0478  0.2811 -0.1480
   36ETHOX  H1320780  20.689  10.703  10.408  0.1736  0.0490 -2.1093
   36ETHOX   C220781  20.499  10.758  10.328 -0.5455 -0.4373 -0.8537
   36ETHOX  H2120782  20.397  10.720  10.306 -1.8586  2.1983  0.1886
   36ETHOX  H2320783  20.545  10.793  10.233 -1.7810  1.8761 -0.6773
   37ETHOX   O120784  20.487  10.877  10.402 -0.5256  0.0437  0.0103
   37ETHOX   C120785  20.348  10.916  10.418 -0.6832 -0.0883  0.4511
   37ETHOX  H1120786  20.302  10.929  10.318 -2.0204 -1.5967  0.8257
   37ETHOX  H1320787  20.297  10.829  10.466 -0.1012 -0.0264  1.1921
   37ETHOX   C220788  20.320  11.043  10.503 -0.0978 -0.6800  0.2779
   37ETHOX  H2120789  20.368  11.031  10.602  0.2283 -2.0732 -0.0320
   37ETHOX  H2320790  20.212  11.038  10.528  0.0764 -0.7582  1.0469
   38ETHOX   O120791  20.360  11.168  10.438  0.1050 -0.6211 -0.0749
   38ETHOX   C120792  20.286  11.280  10.496 -0.2402  0.0823  0.3040
   38ETHOX  H1120793  20.184  11.249  10.526  0.0837 -0.7969  0.5200
   38ETHOX  H1320794  20.282  11.332  10.398  3.4117 -0.9098 -0.5115
   38ETHOX   C220795  20.350  11.349  10.614  0.1980 -0.7115  0.5984
   38ETHOX  H2120796  20.328  11.304  10.713  1.2269 -1.6069  0.4521
   38ETHOX  H2320797  20.309  11.452  10.616  0.0253 -0.7827  1.8276
   39ETHOX   O120798  20.493  11.366  10.600  0.4244  0.0500 -0.2262
   39ETHOX   C120799  20.537  11.439  10.719  0.0710  0.4502  0.0599
   39ETHOX  H1120800  20.486  11.537  10.721 -1.0319 -0.1077  0.2372
   39ETHOX  H1320801  20.509  11.378  10.808 -0.8595 -0.5349 -0.8678
   39ETHOX   C220802  20.691  11.454  10.727 -0.0776 -1.1289  0.3900
   39ETHOX  H2120803  20.706  11.532  10.804  0.7834  0.4147 -1.2782
   39ETHOX  H2320804  20.733  11.486  10.630 -0.8295  0.7204  0.6354
   40ETHOX   O120805  20.754  11.336  10.776 -1.1149 -0.8509  0.8807
   40ETHOX   C120806  20.900  11.351  10.775  0.2554 -0.1675 -0.2105
   40ETHOX  H1120807  20.932  11.457  10.787  0.0633  0.0976 -1.8182
   40ETHOX  H1320808  20.929  11.322  10.672 -2.2930 -0.3742 -0.9442
   40ETHOX   C220809  20.982  11.257  10.870  0.1318 -0.6738 -0.8760
   40ETHOX  H2120810  21.089  11.245  10.842  0.4566 -0.6286  0.2937
   40ETHOX  H2320811  20.950  11.154  10.843 -1.3148  0.2788 -3.0568
   41ETHOX   O120812  20.972  11.273  11.008 -0.5028 -0.1789  0.2507
   41ETHOX   C120813  21.047  11.386  11.056 -0.4441  0.0433 -0.7506
   41ETHOX  H1120814  21.152  11.381  11.022  1.1771  0.3951  3.5635
   41ETHOX  H1320815  21.005  11.477  11.007 -2.4722 -1.5149 -2.0594
   41ETHOX   C220816  21.059  11.412  11.212  0.3134 -0.5328  0.1476
   41ETHOX  H2120817  20.958  11.422  11.256  1.0506 -0.8673  2.0221
   41ETHOX  H2320818  21.118  11.506  11.222 -0.5028  0.3348 -2.3521
   42ETHOX   O120819  21.122  11.304  11.288  0.0137 -0.3558  0.2333
   42ETHOX   C120820  21.167  11.355  11.415  0.0738 -0.3653 -0.2604
   42ETHOX  H1120821  21.251  11.422  11.389  0.4436 -1.0739 -0.9377
   42ETHOX  H1320822  21.087  11.409  11.470  0.0406  0.5295 -1.1706
   42ETHOX   C220823  21.235  11.237  11.500 -0.1745  0.2266 -0.2460
   42ETHOX  H2120824  21.289  11.280  11.586  0.3317 -0.5149 -0.1864
   42ETHOX  H2320825  21.316  11.201  11.433  0.2464  0.6405  0.0381
   43ETHOX   O120826  21.160  11.130  11.548 -0.1325  0.3111  0.2922
   43ETHOX   C120827  21.112  11.047  11.442  0.2434  0.4106  0.7720
   43ETHOX  H1120828  21.044  11.096  11.369  0.3171  1.4649  1.3904
   43ETHOX  H1320829  21.196  11.015  11.376 -0.4835 -0.5319  0.2790
   43ETHOX   C220830  21.034  10.923  11.490 -0.1351 -0.1821  0.3671
   43ETHOX  H2120831  21.101  10.868  11.560  0.0117 -2.2907 -1.3313
   43ETHOX  H2320832  21.023  10.856  11.402 -0.1704 -0.6252  0.7031
   44ETHOX   O120833  20.912  10.942  11.563 -0.1874 -0.2051 -0.0689
   44ETHOX   C120834  20.860  10.814  11.583 -0.5266 -0.1115  0.2960
   44ETHOX  H1120835  20.834  10.758  11.490 -0.6821 -0.3718  0.4931
   44ETHOX  H1320836  20.935  10.742  11.623 -1.7319 -1.9263 -0.5316
   44ETHOX   C220837  20.738  10.814  11.676  0.2930 -0.0241  0.3224
   44ETHOX  H2120838  20.745  10.900  11.745  0.9523  0.2316 -0.0531
   44ETHOX  H2320839  20.736  10.716  11.729 -1.0401  0.2427  0.7940
   45ETHOX   O120840  20.612  10.825  11.607 -0.2325 -0.3025 -0.3706
   45ETHOX   C120841  20.499  10.853  11.700 -0.1264 -0.0087  0.3399
   45ETHOX  H1120842  20.511  10.793  11.793 -0.5561  1.9014  1.7062
   45ETHOX  H1320843  20.415  10.815  11.639 -0.8420  1.1058  0.5979
   45ETHOX   C220844  20.483  11.000  11.743 -0.0806 -0.9396  0.1762
   45ETHOX  H2120845  20.567  11.034  11.807 -0.2958 -1.6430  0.8495
   45ETHOX  H2320846  20.394  11.005  11.809 -0.1680  0.6289 -0.0340
   46ETHOX   O120847  20.456  11.086  11.638  0.3716  0.4091 -0.3356
   46ETHOX   C120848  20.461  11.224  11.678  0.0663  0.4942  0.1334
   46ETHOX  H1120849  20.376  11.251  11.744 -1.8933 -2.7723 -0.8099
   46ETHOX  H1320850  20.564  11.240  11.715 -0.3502 -0.3619  1.7711
   46ETHOX   C220851  20.443  11.331  11.560  0.0154  0.5583  0.5971
   46ETHOX  H2120852  20.486  11.286  11.468 -0.7900  0.8318  0.0798
   46ETHOX  H2320853  20.504  11.420  11.586  4.2321 -2.1609  1.0336
   47ETHOX   O120854  20.305  11.362  11.541  0.3205  0.3773 -0.0880
   47ETHOX   C120855  20.256  11.298  11.424 -0.5320 -0.9582 -0.0258
   47ETHOX  H1120856  20.300  11.196  11.415 -1.0350 -1.1721 -0.0964
   47ETHOX  H1320857  20.301  11.344  11.333 -0.8671  0.8597  0.6910
   47ETHOX   C220858  20.106  11.302  11.394  0.5336  0.5987 -0.1121
   47ETHOX  H2120859  20.082  11.250  11.299  0.9653  1.4071 -0.6707
   47ETHOX  H2320860  20.074  11.407  11.384  0.5997  0.5743 -0.5817
   48ETHOX   O120861  20.028  11.236  11.493  0.7833  0.6217  0.4710
   48ETHOX   C120862  19.900  11.195  11.459 -0.2220 -0.0487 -0.0321
   48ETHOX  H1120863  19.853  11.291  11.428  1.5842  0.8787 -0.0680
   48ETHOX  H1320864  19.905  11.137  11.365 -3.4537  0.7359 -0.8065
   48ETHOX   C220865  19.811  11.131  11.564 -0.3430 -0.2869 -1.2035
   48ETHOX  H2120866  19.865  11.046  11.610  0.5576  2.1407  2.7921
   48ETHOX  H2320867  19.796  11.198  11.652 -0.7268 -1.1172 -0.6309
   49ETHOX   O120868  19.694  11.087  11.500  0.2296  0.0508 -0.4278
   49ETHOX   C120869  19.588  11.187  11.502  0.1696  0.3576 -0.2006
   49ETHOX  H1120870  19.598  11.249  11.411 -0.2753  0.9542  0.1490
   49ETHOX  H1320871  19.594  11.251  11.592  0.8999 -1.8032  1.3767
   49ETHOX   C220872  19.443  11.122  11.502  0.6391  0.4153  0.5597
   49ETHOX  H2120873  19.444  11.054  11.414  3.7247  1.3451 -0.2770
   49ETHOX  H2320874  19.364  11.199  11.489  0.4604  0.1420 -0.0016
   50ETHOX   O120875  19.423  11.041  11.623  0.6784  0.2355 -0.3843
   50ETHOX   C120876  19.408  11.115  11.742  0.4207 -0.3319 -0.0710
   50ETHOX  H1120877  19.504  11.152  11.784  0.2666  2.4959 -1.9168
   50ETHOX  H1320878  19.345  11.204  11.716 -2.2213 -1.9785  0.3581
   50ETHOX   C220879  19.338  11.034  11.852 -0.1287 -0.6013 -0.2864
   50ETHOX  H2120880  19.246  10.990  11.809 -0.8507  1.2633 -0.7329
   50ETHOX  H2320881  19.316  11.107  11.933  2.7894  1.8616 -1.4861
   51ETHOX   O120882  19.432  10.937  11.908  0.2772  0.0745  0.5873
   51ETHOX   C120883  19.380  10.859  12.017  0.1999 -0.1061  0.3210
   51ETHOX  H1120884  19.306  10.791  11.969 -0.6117 -0.3020  1.7896
   51ETHOX  H1320885  19.332  10.916  12.100 -0.5421 -3.0469  2.0867
   51ETHOX   C220886  19.490  10.768  12.066 -0.2706 -0.8185 -0.6656
   51ETHOX  H2120887  19.554  10.825  12.136 -0.8391 -1.8650  0.7697
   51ETHOX  H2320888  19.543  10.722  11.980 -0.4797 -0.1602 -1.1440
   52ETHOX   O120889  19.434  10.659  12.133  0.0593 -0.2106 -0.7508
   52ETHOX   C120890  19.531  10.597  12.220  0.2505 -0.1811 -0.3470
   52ETHOX  H1120891  19.507  10.489  12.232 -1.3064  0.3977  2.9004
   52ETHOX  H1320892  19.632  10.602  12.173  0.3895  2.4091  0.0638
   52ETHOX   C220893  19.525  10.643  12.365  0.2565 -0.0736 -0.5039
   52ETHOX  H2120894  19.511  10.753  12.376 -0.5101 -0.1037 -1.1257
   52ETHOX  H2320895  19.619  10.608  12.413  1.2796 -1.4258 -3.2590
   53ETHOX   O120896  19.405  10.582  12.417  1.1092  0.5137  0.0206
   53ETHOX   C120897  19.390  10.608  12.557  0.7079  0.4214  0.4364
   53ETHOX  H1120898  19.480  10.561  12.602 -0.0130 -2.2245 -0.7087
   53ETHOX  H1320899  19.384  10.719  12.559 -2.5364  0.3408  0.8893
   53ETHOX   C220900  19.256  10.533  12.611 -0.0852 -0.1287 -0.0514
   53ETHOX  H2120901  19.170  10.580  12.558  0.4374  0.0683 -0.7516
   53ETHOX  H2320902  19.240  10.573  12.713 -0.5227  1.0171 -0.5500
   54ETHOX   O120903  19.249  10.392  12.599 -0.4417 -0.3252 -0.0884
   54ETHOX   C120904  19.117  10.351  12.604  0.5894  0.4915 -0.6112
   54ETHOX  H1120905  19.088  10.387  12.705  2.5384  1.7828 -0.4454
   54ETHOX  H1320906  19.059  10.405  12.526  1.0917 -0.0172 -1.3512
   54ETHOX   C220907  19.120  10.194  12.606 -0.1739 -0.3217  0.4703
   54ETHOX  H2120908  19.018  10.158  12.631 -0.1000 -0.4594  0.5754
   54ETHOX  H2320909  19.191  10.168  12.688 -0.5377  1.5988  1.4319
   55ETHOX   O120910  19.158  10.139  12.483 -0.3239 -0.1576  0.5207
   55ETHOX   C120911  19.163  10.002  12.482 -0.2855  0.3887 -0.0841
   55ETHOX  H1120912  19.227   9.973  12.568  0.4156  1.5942 -0.1890
   55ETHOX  H1320913  19.063   9.954  12.484  0.1360 -0.5093  0.0969
   55ETHOX   C220914  19.243   9.951  12.359  0.5966 -0.2616  0.2882
   55ETHOX  H2120915  19.350   9.980  12.360  0.4024  0.5438  1.9627
   55ETHOX  H2320916  19.254   9.841  12.364 -1.5869 -0.7051 -2.1734
   56ETHOX   O120917  19.190   9.986  12.226 -0.2841  0.5377  0.5481
   56ETHOX   C120918  19.102   9.890  12.178  0.7851  0.1075  0.3119
   56ETHOX  H1120919  19.013   9.879  12.244  0.1709  2.4677 -0.0081
   56ETHOX  H1320920  19.159   9.795  12.171  1.2385  0.5149 -3.5875
   56ETHOX   C220921  19.062   9.929  12.029  0.1552  0.3815 -0.3002
   56ETHOX  H2120922  18.989   9.853  11.991  1.5811 -0.5932 -1.1928
   56ETHOX  H2320923  19.143   9.921  11.954  1.3492 -0.8134  1.0559
   57ETHOX   O120924  19.010  10.057  12.027  0.1481  0.6856  0.9035
   57ETHOX   C120925  18.959  10.097  11.902  0.7983 -0.3078 -0.0145
   57ETHOX  H1120926  18.919  10.013  11.841  2.1479 -1.4106  0.5806
   57ETHOX  H1320927  18.882  10.174  11.926  0.7669  0.0163 -1.1071
   57ETHOX   C220928  19.067  10.171  11.822 -0.2715  0.7512 -0.5164
   57ETHOX  H2120929  19.171  10.138  11.842  0.8171  2.3145 -3.0036
   57ETHOX  H2320930  19.064  10.277  11.857  0.6063  0.7912 -0.5422
   58ETHOX   O120931  19.035  10.132  11.685 -0.0540 -0.5956  0.6450
   58ETHOX   C120932  19.085  10.238  11.599 -0.1982 -0.3012  0.6936
   58ETHOX  H1120933  19.187  10.273  11.624 -0.4661  1.8969 -0.9653
   58ETHOX  H1320934  19.014  10.322  11.613  1.0603  0.8465  0.3922
   58ETHOX   C220935  19.091  10.194  11.454 -0.6930 -0.5507 -0.5761
   58ETHOX  H2120936  19.114  10.086  11.461  0.3998 -0.2129  2.2282
   58ETHOX  H2320937  19.156  10.259  11.392 -3.0096  1.0906 -1.4241
   59ETHOX   O120938  18.962  10.214  11.400  0.2291  0.1773 -0.6777
   59ETHOX   C120939  18.947  10.186  11.261  0.5601  0.7500  0.6843
   59ETHOX  H1120940  18.862  10.242  11.218  0.4159  0.9277  1.1835
   59ETHOX  H1320941  19.041  10.221  11.213  1.5765  0.7027  2.5270
   59ETHOX   C220942  18.921  10.038  11.233  0.6851  0.2462 -0.8698
   59ETHOX  H2120943  19.008   9.983  11.275  1.0422 -0.2810 -2.2384
   59ETHOX  H2320944  18.926  10.029  11.123 -0.9048 -1.2831 -0.8493
   60ETHOX   O120945  18.799   9.999  11.297 -0.4679  0.0303  0.8379
   60ETHOX   C120946  18.737   9.886  11.238  0.1831  0.3956 -0.5200
   60ETHOX  H1120947  18.812   9.807  11.217 -1.3145 -1.2049 -0.0037
   60ETHOX  H1320948  18.673   9.904  11.150 -0.5983 -2.9466 -0.7724
   60ETHOX   C220949  18.645   9.820  11.349 -0.4927 -0.1844  0.0371
   60ETHOX  H2120950  18.699   9.801  11.444 -0.8655  1.9546  0.7383
   60ETHOX  H2320951  18.622   9.718  11.311  3.0818 -0.8863 -0.6238
   61ETHOX   O120952  18.524   9.887  11.368 -0.0884  0.0949 -0.0116
   61ETHOX   C120953  18.529   9.987  11.467 -0.0973  0.5920 -0.1116
   61ETHOX  H1120954  18.572   9.960  11.566  2.3574  0.3227 -1.1727
   61ETHOX  H1320955  18.589  10.072  11.427  1.6593 -0.1572  0.8144
   61ETHOX   C220956  18.389  10.035  11.500  0.6969  0.6273  0.2075
   61ETHOX  H2120957  18.342  10.034  11.399  0.8696  2.9433  0.0574
   61ETHOX  H2320958  18.392  10.138  11.540  1.5433  0.1216  1.4924
   62ETHOX   O120959  18.318   9.943  11.583 -0.8072  0.1861 -0.0411
   62ETHOX   C120960  18.191  10.005  11.623  0.2445  0.0522 -0.7626
   62ETHOX  H1120961  18.144  10.053  11.534 -1.6715 -1.9758 -0.9285
   62ETHOX  H1320962  18.219  10.092  11.686  1.2386 -1.6320  1.2388
   62ETHOX   C220963  18.100   9.912  11.708 -0.1850 -0.5142  0.1018
   62ETHOX  H2120964  18.101   9.810  11.665  1.4702  0.0882 -1.4496
   62ETHOX  H2320965  17.995   9.945  11.723 -0.1026 -0.8253  1.4419
   63ETHOX   O120966  18.167   9.897  11.830 -0.0379  0.6742 -0.7126
   63ETHOX   C120967  18.124   9.777  11.888 -0.2652  0.3409  0.0089
   63ETHOX  H1120968  18.014   9.765  11.896  0.0227 -1.3543  4.0182
   63ETHOX  H1320969  18.148   9.684  11.833 -3.7862 -0.3988 -0.4714
   63ETHOX   C220970  18.181   9.764  12.028 -1.2065 -0.3967 -0.1516
   63ETHOX  H2120971  18.292   9.760  12.026 -1.1628 -1.0690  1.4681
   63ETHOX  H2320972  18.146   9.666  12.066  4.6521 -3.4230 -1.4846
   64ETHOX   O120973  18.126   9.878  12.100  0.0846 -0.2317  0.1832
   64ETHOX   C120974  18.167   9.882  12.236  0.6807 -0.1586 -0.1267
   64ETHOX  H1120975  18.278   9.877  12.230  0.7340  1.3681 -1.2330
   64ETHOX  H1320976  18.125   9.790  12.282  0.4477 -0.5859 -1.1640
   64ETHOX   C220977  18.115  10.001  12.311 -0.0924 -0.0877 -0.7212
   64ETHOX  H2120978  18.117   9.994  12.422 -0.4444 -1.4632 -0.7857
   64ETHOX  H2320979  18.004  10.000  12.302 -0.1099 -0.7458 -0.4889
   65ETHOX   O120980  18.169  10.122  12.268 -0.0552  0.0691 -0.3623
   65ETHOX   C120981  18.309  10.149  12.303 -0.1195  0.4533 -0.1927
   65ETHOX  H1120982  18.321  10.153  12.414 -4.4786 -1.0053  0.5136
   65ETHOX  H1320983  18.375  10.062  12.279  0.4932  0.8523  0.0161
   65ETHOX   C220984  18.356  10.276  12.233  0.3333  0.0789  0.4637
   65ETHOX  H2120985  18.377  10.259  12.126 -1.0003  1.0332  0.0165
   65ETHOX  H2320986  18.456  10.303  12.273 -0.1522 -3.1210  4.4847
   66ETHOX   O120987  18.260  10.383  12.251  0.2239  0.2274  0.5282
   66ETHOX   C120988  18.265  10.483  12.151 -0.1190  0.5061 -0.4003
   66ETHOX  H1120989  18.265  10.429  12.054 -1.8655 -2.0226  0.8952
   66ETHOX  H1320990  18.357  10.542  12.168 -0.7809  1.4731 -0.1159
   66ETHOX   C220991  18.146  10.567  12.132  0.8525 -0.3640  0.1042
   66ETHOX  H2120992  18.053  10.512  12.104 -2.1389  3.1603  2.1036
   66ETHOX  H2320993  18.167  10.644  12.055  2.1598  0.6712  1.4346
   67ETHOX   O120994  18.126  10.635  12.247  0.5784 -0.7289 -0.6640
   67ETHOX   C120995  18.043  10.757  12.233 -0.5518  0.1891 -0.9745
   67ETHOX  H1120996  18.098  10.831  12.171 -0.9278  0.2687 -1.2112
   67ETHOX  H1320997  17.955  10.722  12.174 -1.1039  0.6359 -0.4227
   67ETHOX   C220998  18.001  10.811  12.368 -0.0925  0.5971  0.3784
   67ETHOX  H2120999  17.933  10.744  12.425  0.0833 -0.8287 -1.0229
   67ETHOX  H2321000  17.943  10.904  12.355 -0.1457  0.9455  2.5981
   68ETHOX   O121001  18.118  10.849  12.431 -0.5255 -0.1604  0.4531
   68ETHOX   C121002  18.089  10.921  12.545 -0.3458 -0.0409  0.1640
   68ETHOX  H1121003  18.019  11.005  12.524  2.4110  3.2347  2.8272
   68ETHOX  H1321004  18.030  10.849  12.607  0.4426  0.9295  2.1542
   68ETHOX   C221005  18.210  10.986  12.609 -1.5090 -0.1775 -0.1943
   68ETHOX  H2121006  18.186  11.065  12.683  1.3059  2.0532 -1.4416
   68ETHOX  H2321007  18.262  11.049  12.533  0.6599 -1.5011  0.1151
   69ETHOX   O121008  18.291  10.886  12.666  0.3734  0.4176 -0.4516
   69ETHOX   C121009  18.421  10.935  12.710 -0.0405  0.6269  0.2356
   69ETHOX  H1121010  18.459  10.984  12.618 -0.9572  0.3990 -0.2826
   69ETHOX  H1321011  18.409  11.020  12.780  0.3567  1.6207 -0.8681
   69ETHOX   C221012  18.528  10.837  12.773 -0.1017 -0.2355 -0.4428
   69ETHOX  H2121013  18.624  10.893  12.776  1.7747 -3.2854 -0.2614
   69ETHOX  H2321014  18.548  10.747  12.711 -1.6965 -1.2852  0.4921
   70ETHOX   O121015  18.504  10.811  12.910  0.0251  0.0466  0.3356
   70ETHOX   C121016  18.596  10.710  12.956  0.1120  0.2636  0.4850
   70ETHOX  H1121017  18.553  10.608  12.947  0.9246  0.0155 -0.8496
   70ETHOX  H1321018  18.690  10.711  12.896  0.5151  1.5703  1.0993
   70ETHOX   C221019  18.633  10.740  13.104 -0.3336  0.3742 -0.4736
   70ETHOX  H2121020  18.702  10.655  13.123 -1.3465 -0.1184  1.2360
   70ETHOX  H2321021  18.545  10.731  13.172 -1.3917 -2.0763 -2.0371
   71ETHOX   O121022  18.698  10.871  13.134 -0.4830 -0.5579 -0.1251
   71ETHOX   C121023  18.748  10.896  13.266  0.3066 -0.0879 -0.1379
   71ETHOX  H1121024  18.791  10.806  13.315  1.5744  0.9823  0.8041
   71ETHOX  H1321025  18.673  10.937  13.336  0.5827  0.8236 -0.3589
   71ETHOX   C221026  18.870  10.993  13.262 -0.1157  0.2569 -0.0696
   71ETHOX  H2121027  18.929  10.966  13.173 -1.7771 -1.3436 -0.7650
   71ETHOX  H2321028  18.926  10.980  13.357  0.0718  1.2543 -0.0394
   72ETHOX   O121029  18.818  11.122  13.256  0.4167  0.2681  0.1885
   72ETHOX   C121030  18.859  11.202  13.366 -0.4137 -0.4049  0.9175
   72ETHOX  H1121031  18.832  11.149  13.460 -0.7998 -0.7881  0.5934
   72ETHOX  H1321032  18.968  11.219  13.365 -0.6011  1.0584  1.4916
   72ETHOX   C221033  18.794  11.339  13.362  0.4491  0.1718  0.2935
   72ETHOX  H2121034  18.802  11.375  13.257  0.1285 -2.1626 -0.5878
   72ETHOX  H2321035  18.851  11.407  13.429  0.5937 -0.3139  0.6679
   73ETHOX   O121036  18.661  11.325  13.410  0.5037 -0.0356  0.1243
   73ETHOX   C121037  18.606  11.452  13.442 -0.2391  0.6046 -0.7961
   73ETHOX  H1121038  18.674  11.515  13.504  1.0467  0.9143 -2.4403
   73ETHOX  H1321039  18.506  11.438  13.488  0.1551  0.0921 -0.0742
   73ETHOX   C221040  18.561  11.542  13.330  0.1491 -0.1811  0.2569
   73ETHOX  H2121041  18.647  11.564  13.262  1.4321 -0.2071  1.8206
   73ETHOX  H2321042  18.524  11.630  13.387  1.9834  0.6513  0.2527
   74ETHOX   O121043  18.448  11.491  13.255  0.1850  0.5087 -0.2351
   74ETHOX   C121044  18.398  11.594  13.162 -0.1852 -0.4426  0.7318
   74ETHOX  H1121045  18.381  11.693  13.209 -1.3227  1.4827 -3.3240
   74ETHOX  H1321046  18.489  11.600  13.098  0.0841 -1.6652  0.9834
   74ETHOX   C221047  18.273  11.540  13.093 -0.2819 -0.3352 -0.5574
   74ETHOX  H2121048  18.306  11.451  13.036 -1.9404 -1.1793 -0.2626
   74ETHOX  H2321049  18.235  11.620  13.026 -0.4063  1.8818  1.9800
   75ETHOX   O121050  18.173  11.505  13.185 -0.0382 -0.8205  0.1969
   75ETHOX   C121051  18.094  11.397  13.130  0.4960  0.1728 -0.0069
   75ETHOX  H1121052  18.157  11.307  13.115 -0.6373 -0.7499  0.6429
   75ETHOX  H1321053  18.068  11.434  13.028 -0.9428 -0.2484  0.1880
   75ETHOX   C221054  17.982  11.359  13.230  0.0095  0.4715 -0.0123
   75ETHOX  H2121055  18.032  11.354  13.329  0.2188 -0.2589 -0.1526
   75ETHOX  H2321056  17.937  11.260  13.208 -1.0176  0.6805  1.0506
   76ETHOX   O121057  17.872  11.451  13.222 -0.2402  0.0468  0.0098
   76ETHOX   C121058  17.775  11.414  13.327 -0.2541  0.2843 -0.7197
   76ETHOX  H1121059  17.723  11.320  13.298  0.9058 -0.7570  0.4241
   76ETHOX  H1321060  17.823  11.406  13.427 -0.2119  1.7585 -0.6061
   76ETHOX   C221061  17.648  11.508  13.331 -0.5158 -0.6449 -0.0811
   76ETHOX  H2121062  17.602  11.480  13.428  1.1517 -1.1738  0.5919
   76ETHOX  H2321063  17.578  11.491  13.246 -0.4781 -0.2657 -0.1913
   77ETHOX   O121064  17.672  11.644  13.344 -0.0550  0.3768  0.3052
   77ETHOX   C121065  17.709  11.697  13.214  0.4529  0.5296 -0.0759
   77ETHOX  H1121066  17.645  11.661  13.131  0.4980  2.5025 -1.0172
   77ETHOX  H1321067  17.817  11.675  13.201  0.2806 -0.4053 -0.0054
   77ETHOX   C221068  17.687  11.848  13.213  0.2253  0.1750 -0.6036
   77ETHOX  H2121069  17.740  11.917  13.143 -0.7104 -0.0256 -1.5398
   77ETHOX  H2321070  17.715  11.886  13.314 -1.4022 -1.0969  0.3533
   78ETHOX   O121071  17.544  11.874  13.210  0.8168  0.8439  0.4856
   78ETHOX   C121072  17.517  12.011  13.216 -0.5178  0.2571 -0.4896
   78ETHOX  H1121073  17.491  12.036  13.321 -1.8222 -0.1396 -0.7025
   78ETHOX  H1321074  17.609  12.064  13.184  1.0773  0.3490  3.5692
   78ETHOX   C221075  17.392  12.044  13.121 -0.5280  0.2309 -0.6951
   78ETHOX  H2121076  17.390  12.013  13.015 -1.8375  1.2657 -0.9995
   78ETHOX  H2321077  17.387  12.153  13.100 -1.1879  0.2404 -0.5137
   79ETHOX   O121078  17.279  12.001  13.193  0.7820  0.1906 -0.5775
   79ETHOX   C121079  17.158  12.035  13.127  0.4609 -0.2868  0.4470
   79ETHOX  H1121080  17.067  12.055  13.188  0.1737  1.9171 -0.5965
   79ETHOX  H1321081  17.173  12.131  13.073 -1.1702 -0.1594  0.1785
   79ETHOX   C221082  17.134  11.924  13.028  0.1790  0.5724 -0.0956
   79ETHOX  H2121083  17.207  11.918  12.945  1.0701  0.5279  0.6787
   79ETHOX  H2321084  17.040  11.945  12.973 -1.3399 -0.8361  1.8090
   80ETHOX   O121085  17.113  11.799  13.096 -0.2170  0.2973 -0.8030
   80ETHOX   C121086  17.033  11.706  13.024  0.8701 -0.5318  0.1987
   80ETHOX  H1121087  16.988  11.743  12.929 -0.3026  0.3553  1.0652
   80ETHOX  H1321088  17.092  11.615  13.000  1.3384  0.5041 -3.0225
   80ETHOX   C221089  16.919  11.652  13.119  0.0906  0.3113 -0.2957
   80ETHOX  H2121090  16.956  11.620  13.218 -2.3606  1.9251  1.2517
   80ETHOX  H2321091  16.869  11.564  13.072 -3.1078  0.6471  2.1219
   81ETHOX   O121092  16.812  11.752  13.112  0.3149 -0.0218 -0.0131
   81ETHOX   C121093  16.788  11.810  13.246  0.0912 -0.2828 -0.2492
   81ETHOX  H1121094  16.737  11.738  13.313 -1.1328  0.9243  0.1693
   81ETHOX  H1321095  16.887  11.834  13.291  0.1121 -4.1392  2.1721
   81ETHOX   C221096  16.709  11.945  13.243 -0.3001  0.2594 -0.4927
   81ETHOX  H2121097  16.607  11.943  13.200 -0.8766  1.0695  0.8015
   81ETHOX  H2321098  16.687  11.984  13.344 -0.9523  0.5658 -0.7452
   82ETHOX   O121099  16.790  12.052  13.184  0.4493  0.4496 -0.5148
   82ETHOX   C121100  16.758  12.068  13.047 -0.7078 -0.6184  0.0375
   82ETHOX  H1121101  16.652  12.097  13.038 -0.1525  1.6980  0.3140
   82ETHOX  H1321102  16.775  11.970  12.997  1.5770 -0.3880  0.2545
   82ETHOX   C221103  16.850  12.174  12.979 -0.6644  0.0017 -0.1305
   82ETHOX  H2121104  16.824  12.174  12.871 -1.6575 -0.2491  0.0908
   82ETHOX  H2321105  16.956  12.143  12.985 -0.7470 -0.5540 -1.2240
   83ETHOX   O121106  16.834  12.304  13.037  0.2824  0.8781 -0.3194
   83ETHOX   C121107  16.884  12.413  12.963 -0.3361 -0.1308 -0.1053
   83ETHOX  H1121108  16.991  12.390  12.949 -0.1260 -0.9274  2.3722
   83ETHOX  H1321109  16.826  12.430  12.870 -0.3460  0.6751  0.0378
   83ETHOX   C221110  16.870  12.534  13.053 -0.3965 -0.2548 -0.1060
   83ETHOX  H2121111  16.916  12.607  12.982  0.5209 -1.6922 -1.0439
   83ETHOX  H2321112  16.930  12.520  13.146 -1.4519 -2.6142  0.2797
   84ETHOX   O121113  16.737  12.564  13.086  0.4447  0.5146  0.6616
   84ETHOX   C121114  16.727  12.663  13.189  0.1394 -0.6167 -0.1759
   84ETHOX  H1121115  16.796  12.749  13.176 -0.0618 -0.4027  0.1767
   84ETHOX  H1321116  16.751  12.630  13.292  0.7472 -3.1614 -1.0617
   84ETHOX   C221117  16.588  12.720  13.183  0.0524  0.4651 -0.4636
   84ETHOX  H2121118  16.579  12.809  13.249  2.8976  3.4580 -3.7142
   84ETHOX  H2321119  16.511  12.644  13.209 -1.2210  2.1549  0.9884
   85ETHOX   O121120  16.568  12.766  13.053  0.1436 -0.2083 -0.0169
   85ETHOX   C121121  16.433  12.826  13.047 -0.5065 -0.2549 -0.3081
   85ETHOX  H1121122  16.363  12.740  13.040  0.2311 -1.0676  1.5949
   85ETHOX  H1321123  16.417  12.884  13.140  0.5986  0.7306 -0.7051
   85ETHOX   C221124  16.412  12.920  12.924  0.6426  0.1616  0.7926
   85ETHOX  H2121125  16.480  13.007  12.940  1.0893 -0.1084  0.3866
   85ETHOX  H2321126  16.305  12.947  12.935  0.4017 -0.6687  0.5552
   86ETHOX   O121127  16.429  12.855  12.800 -0.3378 -0.0567  0.1878
   86ETHOX   C121128  16.448  12.954  12.701 -0.2594  0.4021  0.0224
   86ETHOX  H1121129  16.546  13.005  12.714  0.0829  0.0478 -1.0358
   86ETHOX  H1321130  16.372  13.034  12.712 -0.6587  0.2781 -1.5224
   86ETHOX   C221131  16.432  12.889  12.559  0.7567 -0.3321  0.4061
   86ETHOX  H2121132  16.432  12.975  12.489  0.7575  0.5892  1.5021
   86ETHOX  H2321133  16.334  12.838  12.549  0.6297  0.0713 -0.4995
   87ETHOX   O121134  16.531  12.792  12.519  0.6046 -0.2426 -0.3118
   87ETHOX   C121135  16.493  12.734  12.390 -0.1102 -0.5296  0.0545
   87ETHOX  H1121136  16.470  12.823  12.326  0.4418  0.0298  0.6173
   87ETHOX  H1321137  16.584  12.684  12.351 -0.9263 -1.6119 -0.5227
   87ETHOX   C221138  16.384  12.623  12.388 -0.1028 -0.0915 -0.1156
   87ETHOX  H2121139  16.395  12.577  12.489  0.9379  1.5952  0.5843
   87ETHOX  H2321140  16.405  12.543  12.314 -0.7407 -0.1227 -0.2654
   88ETHOX   O121141  16.248  12.675  12.376  0.2524 -0.5677  0.0690
   88ETHOX   C121142  16.151  12.568  12.396 -0.0228 -0.3768 -0.6953
   88ETHOX  H1121143  16.070  12.615  12.457  1.9820 -0.2842  2.0845
   88ETHOX  H1321144  16.199  12.497  12.465  1.6848  1.4092  0.0397
   88ETHOX   C221145  16.107  12.508  12.262  0.3488  0.0915 -1.0941
   88ETHOX  H2121146  16.094  12.591  12.190  0.5658  1.3627  0.2897
   88ETHOX  H2321147  16.012  12.452  12.279  0.8495 -0.2564  0.7379
   89ETHOX   O121148  16.204  12.414  12.225 -0.2144 -0.2769  0.1416
   89ETHOX   C121149  16.182  12.370  12.088  0.1833  0.5272  0.0736
   89ETHOX  H1121150  16.079  12.335  12.067 -0.6143  3.1029 -0.7467
   89ETHOX  H1321151  16.215  12.448  12.015 -0.3630  0.2960 -0.4224
   89ETHOX   C221152  16.270  12.250  12.072 -0.0295  0.8346 -0.7185
   89ETHOX  H2121153  16.376  12.278  12.087  0.4651 -1.1446 -0.1957
   89ETHOX  H2321154  16.266  12.220  11.965  0.0701  0.9174 -0.7453
   90ETHOX   O121155  16.242  12.138  12.157 -0.2647  0.0969 -0.0574
   90ETHOX   C121156  16.341  12.038  12.152  0.2071 -0.1194  0.1481
   90ETHOX  H1121157  16.313  11.968  12.070 -0.7981  0.2101  0.2035
   90ETHOX  H1321158  16.444  12.077  12.138  1.1947 -1.9886  1.7483
   90ETHOX   C221159  16.334  11.946  12.275 -0.7499 -0.6077 -0.3878
   90ETHOX  H2121160  16.397  11.856  12.261  1.2450  0.3845  1.5305
   90ETHOX  H2321161  16.227  11.919  12.283 -1.6818  2.9446  1.0653
   91ETHOX   O121162  16.374  12.011  12.400 -0.0785  0.0840  0.5097
   91ETHOX   C121163  16.340  11.928  12.513  0.2894 -0.2583 -0.9313
   91ETHOX  H1121164  16.231  11.907  12.499  0.0330 -0.4743  1.0936
   91ETHOX  H1321165  16.394  11.831  12.506  2.1775  0.8012 -1.6288
   91ETHOX   C221166  16.354  11.997  12.648  0.8642 -0.2510  0.3165
   91ETHOX  H2121167  16.275  12.072  12.668  2.6877  1.9620 -0.3333
   91ETHOX  H2321168  16.454  12.044  12.655  1.5454 -1.8607  2.1465
   92ETHOX   O121169  16.350  11.908  12.759  0.3338  0.0246 -0.0278
   92ETHOX   C121170  16.387  11.964  12.884  0.1843  0.0808 -0.7677
   92ETHOX  H1121171  16.489  12.008  12.882  0.1416  0.1810 -0.7068
   92ETHOX  H1321172  16.317  12.049  12.902  0.2911 -0.2816  1.6404
   92ETHOX   C221173  16.373  11.861  12.992 -0.3559 -0.3711 -0.3265
   92ETHOX  H2121174  16.271  11.818  12.991  0.7459 -3.2215  0.9110
   92ETHOX  H2321175  16.398  11.911  13.088 -1.2015 -0.3874 -0.0868
   93ETHOX   O121176  16.467  11.751  12.971 -0.1235  0.1210  0.6372
   93ETHOX   C121177  16.475  11.663  13.084 -0.5300  0.1908 -0.3692
   93ETHOX  H1121178  16.384  11.653  13.147 -0.0279  0.3150  0.3886
   93ETHOX  H1321179  16.541  11.714  13.157 -0.7178  1.2040 -0.8905
   93ETHOX   C221180  16.539  11.516  13.069 -0.5979  0.5169 -0.5844
   93ETHOX  H2121181  16.581  11.488  13.168  0.1177 -0.3373 -1.1040
   93ETHOX  H2321182  16.626  11.523  13.000  0.9976 -0.7147  1.2009
   94ETHOX   O121183  16.436  11.416  13.038 -1.0873  0.2641 -1.2144
   94ETHOX   C121184  16.459  11.366  12.907  0.0069 -0.7202  0.6937
   94ETHOX  H1121185  16.458  11.446  12.831 -1.5833  0.2731  1.6949
   94ETHOX  H1321186  16.563  11.327  12.908 -0.2940 -1.5987  2.2409
   94ETHOX   C221187  16.347  11.262  12.865 -0.2916  0.3048  0.5167
   94ETHOX  H2121188  16.253  11.321  12.862 -2.1254 -2.4539 -0.8586
   94ETHOX  H2321189  16.342  11.178  12.937  0.0406  0.1258  0.3357
   95ETHOX   O121190  16.377  11.216  12.733 -0.2784 -0.2150  0.4493
   95ETHOX   C121191  16.254  11.162  12.676 -0.2762  0.0450  0.0544
   95ETHOX  H1121192  16.171  11.234  12.693 -1.3384 -0.7499 -1.5715
   95ETHOX  H1321193  16.238  11.068  12.733  1.0152 -0.8371 -0.9747
   95ETHOX   C221194  16.264  11.141  12.527  0.3100 -0.4566  0.4901
   95ETHOX  H2121195  16.166  11.114  12.482  0.9808 -0.2325 -1.1672
   95ETHOX  H2321196  16.342  11.066  12.504  0.3199 -0.0399 -0.8806
   96ETHOX   O121197  16.313  11.262  12.472  0.4174 -0.2421  0.3090
   96ETHOX   C121198  16.315  11.252  12.326 -0.3741  0.3856 -0.2709
   96ETHOX  H1121199  16.388  11.171  12.307 -2.7216 -1.8913 -0.1508
   96ETHOX  H1321200  16.213  11.222  12.295  0.5470 -1.6228 -1.5279
   96ETHOX   C221201  16.359  11.385  12.263 -0.1389  0.3197 -0.3835
   96ETHOX  H2121202  16.310  11.468  12.318  0.2298 -0.9348  2.0029
   96ETHOX  H2321203  16.342  11.380  12.153 -0.0540  1.6750 -0.4699
   97ETHOX   O121204  16.502  11.398  12.281  0.3009 -0.1142 -0.9215
   97ETHOX   C121205  16.546  11.530  12.256 -0.3028  0.6587 -0.0886
   97ETHOX  H1121206  16.532  11.592  12.347 -0.6923  0.0400  0.2808
   97ETHOX  H1321207  16.482  11.571  12.174  0.8837  0.3160 -1.2098
   97ETHOX   C221208  16.697  11.536  12.220  0.2817  0.2590  0.2728
   97ETHOX  H2121209  16.763  11.475  12.285  0.4434 -2.7797 -2.4557
   97ETHOX  H2321210  16.731  11.641  12.208 -0.9671  0.7264  0.6731
   98ETHOX   O121211  16.707  11.475  12.095 -0.5168 -0.0799  0.0190
   98ETHOX   C121212  16.843  11.458  12.059  0.1004  0.3416  0.3771
   98ETHOX  H1121213  16.902  11.421  12.146  2.1053 -0.8402 -1.4015
   98ETHOX  H1321214  16.850  11.368  11.996  1.3499  1.0715 -0.5564
   98ETHOX   C221215  16.919  11.572  11.995  0.9170  0.0904 -0.1617
   98ETHOX  H2121216  17.024  11.539  11.986  0.6542 -0.9866  0.5351
   98ETHOX  H2321217  16.896  11.660  12.060 -1.8871  0.5508 -1.5765
   99ETHOX   O121218  16.852  11.582  11.871  0.5785 -0.0667 -0.3563
   99ETHOX   C121219  16.859  11.710  11.805 -0.4531  0.1724  0.3793
   99ETHOX  H1121220  16.820  11.689  11.703 -5.1200  2.3480  1.4354
   99ETHOX  H1321221  16.962  11.753  11.806 -0.8018  1.1265 -1.4148
   99ETHOX   C221222  16.768  11.823  11.861  0.1650 -0.5593  0.1920
   99ETHOX  H2121223  16.803  11.924  11.831 -1.9750  0.2047  0.0764
   99ETHOX  H2321224  16.758  11.826  11.971  1.0588  1.0113  0.2562
  100ETHOX   O121225  16.635  11.825  11.803  0.4162  0.5985 -0.1116
  100ETHOX   C121226  16.568  11.946  11.838  0.2184  0.1596  0.0814
  100ETHOX  H1121227  16.553  11.941  11.948 -1.3671 -0.8111 -0.1391
  100ETHOX  H1321228  16.626  12.037  11.810  2.1668 -0.6567  1.2246
  100ETHOX   C221229  16.430  11.953  11.764 -0.1610 -0.3569  0.0406
  100ETHOX  H2121230  16.429  11.918  11.658 -1.0127 -1.3725  0.3666
  100ETHOX  H2321231  16.399  12.059  11.760  2.6302  0.5518  0.4246
  101PROXS   O121232  16.331  11.878  11.832  0.2424 -0.1669 -0.6336
  101PROXS   C121233  16.198  11.913  11.804 -0.9817 -0.0417  0.4277
  101PROXS  H1121234  16.189  12.024  11.796  0.8576  0.2753  2.0486
  101PROXS  H1321235  16.178  11.876  11.701  3.8059  0.8096 -1.0741
  101PROXS   C221236  16.101  11.861  11.909  0.7100 -0.5485  0.0022
  101PROXS  H2121237  16.119  11.920  12.002 -1.9184 -0.6214  0.6243
  101PROXS   C321238  16.118  11.712  11.952  0.2551 -0.0321 -0.6217
  101PROXS  H3121239  16.068  11.696  12.050 -0.3379 -0.8578 -1.0436
  101PROXS  H3221240  16.069  11.647  11.875  1.0585 -0.7263 -0.5558
  101PROXS  H3321241  16.225  11.683  11.950  0.6237  1.2580 -1.6823
  102PROXS   O121242  15.964  11.888  11.872 -0.6890 -0.5380  0.1408
  102PROXS   C121243  15.863  11.901  11.974 -0.4954 -0.5774 -0.7314
  102PROXS  H1121244  15.865  11.819  12.049 -1.4373 -0.1186 -0.1827
  102PROXS  H1321245  15.878  12.000  12.024 -1.1770 -0.6198 -0.4304
  102PROXS   C221246  15.729  11.901  11.903  0.2930 -0.8693  0.4228
  102PROXS  H2121247  15.736  11.897  11.792 -2.9958 -0.0697  0.0904
  102PROXS   C321248  15.660  12.041  11.939  0.1189 -0.3435 -0.0071
  102PROXS  H3121249  15.635  12.051  12.047 -1.9190 -1.4575 -0.3373
  102PROXS  H3221250  15.718  12.129  11.902 -0.3121 -0.1768 -0.2827
  102PROXS  H3321251  15.567  12.042  11.879 -0.2798  0.0831  0.5940
  103PROXR   O121252  15.657  11.787  11.942  0.2315  0.0045 -0.5168
  103PROXR   C121253  15.528  11.774  11.880 -0.3293  0.0550  0.1174
  103PROXR  H1121254  15.466  11.863  11.902 -2.4204 -1.5625  1.1365
  103PROXR  H1321255  15.555  11.751  11.774  1.7085 -0.0779  0.6256
  103PROXR   C221256  15.447  11.659  11.937  0.8235 -0.0125  0.4397
  103PROXR  H2121257  15.433  11.696  12.040 -0.0121  0.6754  0.0935
  103PROXR   C321258  15.516  11.522  11.938  0.6587 -0.3844 -0.8165
  103PROXR  H3121259  15.449  11.455  11.996  0.0290  1.7977  1.1533
  103PROXR  H3221260  15.520  11.483  11.835 -1.7853 -0.2453 -1.0137
  103PROXR  H3321261  15.620  11.529  11.978  0.7171 -0.5017 -0.9491
  104PROXS   O121262  15.326  11.649  11.865 -0.1280 -0.2767 -0.7671
  104PROXS   C121263  15.223  11.737  11.910  0.2779 -0.3535 -0.2645
  104PROXS  H1121264  15.177  11.701  12.005  1.7795  2.1544  1.5566
  104PROXS  H1321265  15.267  11.838  11.927  2.4100 -1.2553 -0.1321
  104PROXS   C221266  15.114  11.758  11.803 -0.2048 -0.1908 -0.5505
  104PROXS  H2121267  15.153  11.732  11.702 -0.1442 -2.3393 -0.0184
  104PROXS   C321268  15.053  11.898  11.802  0.2714  0.0018  0.0490
  104PROXS  H3121269  15.003  11.914  11.900  1.5141  0.5219  0.6342
  104PROXS  H3221270  15.131  11.977  11.797 -0.5737  0.8697  0.1918
  104PROXS  H3321271  14.988  11.918  11.714 -0.0598  1.5996  0.6223
  105PROXS   O121272  15.003  11.668  11.837 -0.3396  0.5354  0.6669
  105PROXS   C121273  15.040  11.531  11.811 -0.2328 -0.0811 -0.2179
  105PROXS  H1121274  15.099  11.537  11.717 -2.4511  1.1340 -1.6216
  105PROXS  H1321275  15.102  11.504  11.898  0.7609 -0.1746 -0.9383
  105PROXS   C221276  14.922  11.443  11.789  1.1206  0.0988  0.3685
  105PROXS  H2121277  14.864  11.471  11.699  2.6539 -1.0216 -1.0255
  105PROXS   C321278  14.823  11.433  11.907 -0.3976 -0.5007 -0.3485
  105PROXS  H3121279  14.720  11.409  11.876  0.5208 -1.3551 -3.0098
  105PROXS  H3221280  14.871  11.369  11.984  1.2310 -0.5148 -1.3155
  105PROXS  H3321281  14.821  11.537  11.945 -5.2776 -0.4697 -0.1803
  106PROXS   O121282  14.962  11.308  11.771 -0.7061 -0.0903  0.1799
  106PROXS   C121283  14.872  11.223  11.696  0.3295 -0.4974  0.3728
  106PROXS  H1121284  14.768  11.251  11.722  0.1901  3.9408 -3.4976
  106PROXS  H1321285  14.883  11.247  11.588 -2.0310  1.4209  0.4874
  106PROXS   C221286  14.895  11.074  11.705  0.3686  0.3254 -0.0475
  106PROXS  H2121287  14.899  11.038  11.810  1.1410 -1.0151 -0.5008
  106PROXS   C321288  15.033  11.043  11.631 -0.1258  0.0135 -0.1451
  106PROXS  H3121289  15.045  10.933  11.626 -2.0034 -0.2957  0.8774
  106PROXS  H3221290  15.048  11.089  11.531  1.2985 -0.5770 -0.2225
  106PROXS  H3321291  15.112  11.091  11.693  0.7948 -0.4708 -0.9172
  107PROXR   O121292  14.793  11.014  11.633 -0.0584  0.8698  0.0977
  107PROXR   C121293  14.777  10.872  11.663  0.5038  0.1329 -0.3036
  107PROXR  H1121294  14.843  10.815  11.594  1.5650  1.4711 -0.4290
  107PROXR  H1321295  14.800  10.848  11.769  0.5478 -3.6102 -1.0205
  107PROXR   C221296  14.629  10.820  11.649 -0.1340 -0.2723 -0.0317
  107PROXR  H2121297  14.596  10.864  11.552 -1.6710 -1.7342 -0.2312
  107PROXR   C321298  14.539  10.868  11.769  0.0189 -0.5481 -0.1045
  107PROXR  H3121299  14.569  10.808  11.857 -2.9986 -1.3215  0.5140
  107PROXR  H3221300  14.543  10.976  11.794 -0.5992 -0.2776 -1.0787
  107PROXR  H3321301  14.437  10.840  11.735 -0.3058  0.1107  0.3159
  108PROXS   O121302  14.619  10.681  11.653 -0.1244 -0.0455  0.6339
  108PROXS   C121303  14.537  10.638  11.542  0.4811  0.6187 -1.0472
  108PROXS  H1121304  14.439  10.690  11.554  1.2627  1.5671  3.3295
  108PROXS  H1321305  14.588  10.671  11.449  0.0184 -2.6710 -2.5900
  108PROXS   C221306  14.517  10.487  11.538  0.4786  0.5446  0.5974
  108PROXS  H2121307  14.610  10.444  11.580  1.1166  0.2725 -1.0092
  108PROXS   C321308  14.503  10.438  11.396  0.6289  0.7477 -0.1445
  108PROXS  H3121309  14.585  10.487  11.339  1.4168  1.1395  1.2773
  108PROXS  H3221310  14.515  10.328  11.389  0.5739  0.3456  3.6640
  108PROXS  H3321311  14.412  10.465  11.339  0.5299 -1.2701 -1.0143
  109PROXS   O121312  14.406  10.440  11.612  0.3695  0.3401 -0.1345
  109PROXS   C121313  14.407  10.467  11.748  0.2081  0.2113 -0.2191
  109PROXS  H1121314  14.442  10.569  11.774 -0.2046 -0.1368  1.9591
  109PROXS  H1321315  14.309  10.453  11.799  0.8670 -3.1381  0.3566
  109PROXS   C221316  14.492  10.372  11.830 -0.1141  0.1192 -0.4169
  109PROXS  H2121317  14.598  10.375  11.799  0.3480  2.6174  1.1538
  109PROXS   C321318  14.445  10.225  11.829 -0.0846 -0.3898 -0.4395
  109PROXS  H3121319  14.483  10.185  11.926 -1.4362  2.4392  1.4120
  109PROXS  H3221320  14.335  10.212  11.827  0.0308 -1.3553 -2.2258
  109PROXS  H3321321  14.485  10.168  11.743 -0.7137  0.1609 -1.1080
  110PROXR   O121322  14.487  10.419  11.964  0.2595  0.2998 -0.8967
  110PROXR   C121323  14.574  10.526  11.995 -0.2205  0.1776  0.4147
  110PROXR  H1121324  14.609  10.563  11.896  0.5142 -0.0006  0.6089
  110PROXR  H1321325  14.524  10.605  12.055 -0.8113  0.0055  0.1664
  110PROXR   C221326  14.697  10.466  12.072 -0.4620  0.1353  0.3757
  110PROXR  H2121327  14.743  10.390  12.006 -1.8870  0.9304 -1.6402
  110PROXR   C321328  14.659  10.403  12.206 -0.3782  0.0413  0.1599
  110PROXR  H3121329  14.754  10.381  12.259  0.0247 -0.5627 -0.7929
  110PROXR  H3221330  14.593  10.471  12.264  0.2143  3.3074 -2.6522
  110PROXR  H3321331  14.605  10.306  12.198 -0.4556  0.1535 -0.7198
  111PROXS   O121332  14.790  10.575  12.083 -0.4407 -0.2912  0.6954
  111PROXS   C121333  14.926  10.537  12.074  0.0996  0.3846  0.4641
  111PROXS  H1121334  14.950  10.450  12.139  1.0418 -0.7038 -1.2550
  111PROXS  H1321335  14.941  10.487  11.976  3.3398 -2.1847  2.0326
  111PROXS   C221336  15.022  10.654  12.090  0.1586  0.0638 -0.3967
  111PROXS  H2121337  14.978  10.701  12.181 -2.2118 -1.4178 -0.6910
  111PROXS   C321338  15.019  10.745  11.970  0.2967  0.3925 -0.6901
  111PROXS  H3121339  15.079  10.836  11.993 -0.5305  0.6639  0.4953
  111PROXS  H3221340  15.072  10.695  11.886 -1.0548 -0.3278 -1.1259
  111PROXS  H3321341  14.921  10.779  11.933 -0.3803  0.2581  0.9221
  112PROXR   O121342  15.153  10.603  12.129 -0.1519  0.8579  0.5765
  112PROXR   C121343  15.233  10.706  12.194 -0.1682 -0.1987 -0.9270
  112PROXR  H1121344  15.269  10.770  12.111  2.0089  1.5779  1.2390
  112PROXR  H1321345  15.161  10.755  12.263 -1.7405 -1.7349 -1.3848
  112PROXR   C221346  15.351  10.653  12.272 -0.1021  0.5205  0.1840
  112PROXR  H2121347  15.426  10.625  12.195  2.6708  0.7484  2.6383
  112PROXR   C321348  15.305  10.531  12.353  0.1914  0.5552  0.2964
  112PROXR  H3121349  15.399  10.477  12.381 -0.2451 -0.7002 -0.5432
  112PROXR  H3221350  15.246  10.567  12.440  2.8253 -1.1737  3.0153
  112PROXR  H3321351  15.246  10.451  12.303  1.6238 -2.3522  2.8850
  113PROXS   O121352  15.401  10.752  12.362  0.3250 -0.3191 -0.5000
  113PROXS   C121353  15.518  10.808  12.320 -0.3715  0.4220  0.2184
  113PROXS  H1121354  15.603  10.737  12.328 -0.2256  0.5177 -0.4166
  113PROXS  H1321355  15.506  10.845  12.215  0.5400  1.9765  0.6374
  113PROXS   C221356  15.536  10.926  12.411  0.1113  0.6390  0.4052
  113PROXS  H2121357  15.530  10.875  12.509 -1.4363 -2.1837 -1.0012
  113PROXS   C321358  15.422  11.026  12.386 -1.4786  0.5905 -0.3377
  113PROXS  H3121359  15.443  11.093  12.300 -1.3108 -0.6882 -1.3058
  113PROXS  H3221360  15.320  10.983  12.379 -1.5182  0.6572 -0.2031
  113PROXS  H3321361  15.410  11.102  12.467 -2.9018 -0.7939  0.8038
  114PROXR   O121362  15.667  10.983  12.387 -0.6610  0.1065 -0.4552
  114PROXR   C121363  15.693  11.086  12.487  0.1861  0.4120  0.8734
  114PROXR  H1121364  15.618  11.167  12.474 -1.2087  0.0577  5.3184
  114PROXR  H1321365  15.694  11.037  12.586  5.2391  0.6952  1.2120
  114PROXR   C221366  15.835  11.139  12.455 -0.5631  0.2396 -1.1383
  114PROXR  H2121367  15.905  11.053  12.458  0.2625  0.9226  0.7450
  114PROXR   C321368  15.880  11.239  12.575  0.5331 -0.5936  0.1652
  114PROXR  H3121369  15.847  11.205  12.675 -1.3077 -0.4964 -0.3774
  114PROXR  H3221370  15.991  11.250  12.570  0.4573 -0.0197 -0.3130
  114PROXR  H3321371  15.842  11.341  12.551  1.2292 -0.1409  0.9426
  115PROXR   O121372  15.826  11.196  12.330 -0.3307 -0.0676 -0.4813
  115PROXR   C121373  15.954  11.222  12.276 -0.1329 -0.1125  0.1007
  115PROXR  H1121374  16.006  11.299  12.338 -0.9589  2.2169 -1.9355
  115PROXR  H1321375  16.013  11.127  12.279 -1.4170 -0.9357 -0.2435
  115PROXR   C221376  15.953  11.293  12.143  0.5771 -0.0089  0.2531
  115PROXR  H2121377  16.056  11.312  12.107  0.5458 -0.8884 -0.3334
  115PROXR   C321378  15.882  11.429  12.132 -0.5686 -0.1283 -0.2741
  115PROXR  H3121379  15.925  11.486  12.047  0.9637 -0.1619  0.4507
  115PROXR  H3221380  15.771  11.432  12.123 -0.4638  3.1966 -1.8661
  115PROXR  H3321381  15.907  11.491  12.221  0.5801 -0.9878  0.0297
  116PROXS   O121382  15.890  11.219  12.038  0.0609 -0.1968 -0.1758
  116PROXS   C121383  15.984  11.132  11.967 -0.6768 -0.0660 -0.1254
  116PROXS  H1121384  16.064  11.191  11.917  0.8938  0.0956  2.4411
  116PROXS  H1321385  16.033  11.056  12.031 -0.2753  0.9309  0.7786
  116PROXS   C221386  15.904  11.047  11.866  0.3112  0.6219 -0.3888
  116PROXS  H2121387  15.809  11.011  11.911  1.1851  1.0271  1.8945
  116PROXS   C321388  15.993  10.917  11.833 -0.6404  0.0269 -0.1796
  116PROXS  H3121389  16.017  10.863  11.927 -2.4515  1.8995  1.4495
  116PROXS  H3221390  15.957  10.861  11.744  1.7681 -2.8378  0.4822
  116PROXS  H3321391  16.083  10.969  11.795 -2.4544  1.6020 -2.6099
  117PROXS   O121392  15.884  11.113  11.738 -0.0510 -0.0320  0.0284
  117PROXS   C121393  15.791  11.216  11.758  0.2137  0.1923  0.3795
  117PROXS  H1121394  15.698  11.181  11.807  0.9484 -0.1793  1.5511
  117PROXS  H1321395  15.832  11.296  11.824 -1.5831  3.7821 -2.4841
  117PROXS   C221396  15.768  11.278  11.625 -0.0092  0.2254  0.0466
  117PROXS  H2121397  15.767  11.196  11.550  0.3907  0.2730 -0.0095
  117PROXS   C321398  15.881  11.376  11.589  0.2437  0.1883  0.2903
  117PROXS  H3121399  15.856  11.410  11.486 -0.8928  1.0639  0.8343
  117PROXS  H3221400  15.881  11.461  11.660 -1.4027  0.1276  0.4093
  117PROXS  H3321401  15.982  11.331  11.589  0.7801  1.0014 -3.7566
  118PROXR   O121402  15.640  11.333  11.618 -0.2080  0.4247 -0.3533
  118PROXR   C121403  15.566  11.312  11.501 -0.7475  0.2777 -0.4076
  118PROXR  H1121404  15.611  11.366  11.415  1.4571 -1.0004 -0.1239
  118PROXR  H1321405  15.570  11.203  11.481  2.4855  0.0383  1.0034
  118PROXR   C221406  15.414  11.339  11.535  0.5830 -0.1494 -0.5377
  118PROXR  H2121407  15.407  11.444  11.572 -2.5507 -0.4875  0.0997
  118PROXR   C321408  15.360  11.238  11.641 -0.1979  0.0451 -0.0686
  118PROXR  H3121409  15.361  11.137  11.597  1.2851  0.6935 -1.6291
  118PROXR  H3221410  15.423  11.231  11.733 -1.1591 -0.1216  0.5903
  118PROXR  H3321411  15.255  11.260  11.669 -0.5341 -1.5346 -0.0018
  119PROXR   O121412  15.335  11.331  11.420  0.3905 -0.1250  0.2946
  119PROXR   C121413  15.317  11.457  11.357 -0.7813  0.3912  0.1759
  119PROXR  H1121414  15.414  11.510  11.352  0.6852 -2.1595 -0.0545
  119PROXR  H1321415  15.292  11.440  11.250  2.1105 -0.3244 -0.4717
  119PROXR   C221416  15.207  11.552  11.415 -0.2194  0.1186  0.2887
  119PROXR  H2121417  15.225  11.552  11.524  0.0891 -0.6819  0.2447
  119PROXR   C321418  15.064  11.481  11.416 -0.0723  0.3638 -0.1238
  119PROXR  H3121419  15.026  11.479  11.311 -0.8875  1.0459  0.1438
  119PROXR  H3221420  15.076  11.375  11.447  0.8010  0.2246 -0.8920
  119PROXR  H3321421  15.013  11.550  11.487 -1.0610  1.5658 -1.9091
  120PROXS   O121422  15.208  11.674  11.353 -0.2955 -0.4173  0.7032
  120PROXS   C121423  15.301  11.769  11.404 -0.0949  0.1669 -0.4955
  120PROXS  H1121424  15.318  11.748  11.512  1.8187 -2.5672 -1.1973
  120PROXS  H1321425  15.398  11.772  11.349  1.7203 -0.0986  2.4605
  120PROXS   C221426  15.244  11.912  11.385  0.3685  0.9093 -0.2655
  120PROXS  H2121427  15.139  11.919  11.420 -0.1533 -1.0923 -1.2948
  120PROXS   C321428  15.241  11.948  11.230 -0.8803  0.0445  0.4136
  120PROXS  H3121429  15.203  11.865  11.167  0.0100  0.3813 -0.5840
  120PROXS  H3221430  15.187  12.040  11.198 -3.0681 -2.3126 -3.5706
  120PROXS  H3321431  15.346  11.954  11.194 -0.9809  0.6113  0.2048
  121PROXS   O121432  15.334  12.002  11.446  0.4076  0.3499  0.4341
  121PROXS   C121433  15.309  12.032  11.579 -0.3929 -0.5552 -0.2350
  121PROXS  H1121434  15.201  12.048  11.600 -0.1253 -0.4112  1.0999
  121PROXS  H1321435  15.331  11.937  11.631 -3.6896 -1.7433 -0.7815
  121PROXS   C221436  15.405  12.140  11.632  0.1303 -0.2948 -0.9140
  121PROXS  H2121437  15.374  12.235  11.584 -0.8787  0.6503  1.4524
  121PROXS   C321438  15.554  12.105  11.609 -0.5010 -0.2206 -0.3953
  121PROXS  H3121439  15.589  12.015  11.664  3.2497  0.0440 -2.0458
  121PROXS  H3221440  15.560  12.076  11.502 -0.2764 -0.5585 -0.2910
  121PROXS  H3321441  15.621  12.192  11.625 -3.4299  2.0132  0.6757
  122PROXS   O121442  15.377  12.149  11.774  0.3836 -0.6632  0.7292
  122PROXS   C121443  15.418  12.276  11.831 -0.2961  0.8312  0.7400
  122PROXS  H1121444  15.528  12.278  11.848 -0.1705  2.3592 -0.0416
  122PROXS  H1321445  15.374  12.363  11.778 -2.0956  1.0193  2.4248
  122PROXS   C221446  15.353  12.286  11.970 -0.2879 -0.3186 -0.5976
  122PROXS  H2121447  15.364  12.187  12.018  1.1042 -0.7388 -1.7004
  122PROXS   C321448  15.203  12.314  11.968 -0.6003 -0.0680 -0.2147
  122PROXS  H3121449  15.166  12.266  12.061 -3.5383  2.4259  0.0530
  122PROXS  H3221450  15.183  12.421  11.992  1.0743  0.2644 -0.1257
  122PROXS  H3321451  15.153  12.260  11.885  0.0600 -0.5175 -0.3261
  123PROXS   O121452  15.430  12.384  12.048  0.0937 -0.1594  0.3923
  123PROXS   C121453  15.526  12.327  12.130  0.8565 -0.8829  0.6130
  123PROXS  H1121454  15.486  12.242  12.189  0.5742  0.3953  2.3644
  123PROXS  H1321455  15.606  12.286  12.064 -0.9198 -2.8133 -0.4422
  123PROXS   C221456  15.601  12.428  12.219 -0.6302 -0.4921 -0.3462
  123PROXS  H2121457  15.544  12.455  12.311  0.4660 -1.4958  0.6583
  123PROXS   C321458  15.635  12.558  12.142  0.0027  0.3004  0.1449
  123PROXS  H3121459  15.679  12.539  12.041 -1.2865 -2.1250 -0.0266
  123PROXS  H3221460  15.538  12.611  12.133 -0.5555 -0.7766 -0.3239
  123PROXS  H3321461  15.709  12.609  12.207 -1.0280  0.8880  0.8785
  124PROXR   O121462  15.727  12.375  12.256 -0.5076  0.3601  0.3010
  124PROXR   C121463  15.711  12.265  12.348  0.0783  0.0586  0.0889
  124PROXR  H1121464  15.634  12.286  12.426  2.0250 -1.3804  2.5546
  124PROXR  H1321465  15.667  12.173  12.305 -1.3922  0.5332  0.4965
  124PROXR   C221466  15.846  12.222  12.402 -0.2547  0.0638  0.0835
  124PROXR  H2121467  15.904  12.307  12.443 -1.8708  1.0593  0.4203
  124PROXR   C321468  15.927  12.162  12.286 -0.4574  0.5117 -0.2323
  124PROXR  H3121469  15.921  12.236  12.203 -0.5801 -0.5773 -1.2184
  124PROXR  H3221470  16.031  12.130  12.309 -0.9967 -2.6484 -1.6377
  124PROXR  H3321471  15.878  12.065  12.261  1.6670 -0.0859 -2.4635
  125PROXS   O121472  15.823  12.121  12.499  0.2121 -0.3799 -0.0094
  125PROXS   C121473  15.915  12.122  12.604 -0.3420  0.0086 -0.0640
  125PROXS  H1121474  16.017  12.141  12.564  0.2331  1.2220  1.8491
  125PROXS  H1321475  15.885  12.204  12.672  0.1678  0.7582 -0.7278
  125PROXS   C221476  15.903  11.997  12.691  0.2620  0.1358  0.2399
  125PROXS  H2121477  15.797  11.986  12.723  0.9274 -0.8558  2.3222
  125PROXS   C321478  15.981  12.007  12.828  0.3105 -0.1378 -0.1569
  125PROXS  H3121479  15.932  11.927  12.887 -0.8131 -0.2460 -1.1817
  125PROXS  H3221480  16.091  11.991  12.826  0.7939  2.6041 -0.7403
  125PROXS  H3321481  15.947  12.102  12.875 -2.5242 -1.4082  0.5676
  126PROXS   O121482  15.953  11.880  12.625 -0.5758 -0.2817 -0.1367
  126PROXS   C121483  15.861  11.832  12.529 -0.4216  0.2283  0.8778
  126PROXS  H1121484  15.755  11.825  12.563 -1.0064 -2.2817 -1.1633
  126PROXS  H1321485  15.852  11.899  12.441  1.3308 -2.1934 -1.3156
  126PROXS   C221486  15.895  11.692  12.485 -0.4044 -0.1227 -0.1682
  126PROXS  H2121487  15.867  11.627  12.570 -1.8178  0.2006 -0.3652
  126PROXS   C321488  16.049  11.670  12.447  0.2738  0.5838  0.4496
  126PROXS  H3121489  16.062  11.574  12.392  3.6381  1.5451 -0.6782
  126PROXS  H3221490  16.086  11.754  12.384  0.7788  0.4402  0.5556
  126PROXS  H3321491  16.114  11.689  12.534  1.5907  1.2841 -0.6452
  127PROXR   O121492  15.819  11.647  12.373 -0.1611 -0.0474 -0.2304
  127PROXR   C121493  15.684  11.617  12.404 -0.1739  0.2690  0.4674
  127PROXR  H1121494  15.680  11.509  12.431 -1.1047  1.1029  4.2740
  127PROXR  H1321495  15.644  11.662  12.497 -0.4602  1.5387 -0.2457
  127PROXR   C221496  15.596  11.666  12.295  0.2025 -0.0663 -0.0039
  127PROXR  H2121497  15.639  11.618  12.204  1.3700 -0.0455  0.5239
  127PROXR   C321498  15.600  11.815  12.275 -0.6111  0.3191  0.2496
  127PROXR  H3121499  15.547  11.839  12.181  0.8330 -1.0230 -0.9514
  127PROXR  H3221500  15.553  11.869  12.360  0.3190  1.6268 -0.0389
  127PROXR  H3321501  15.700  11.860  12.257 -1.5527  2.0915 -0.8785
  128PROXR   O121502  15.460  11.629  12.325  0.2633  0.5342 -0.2823
  128PROXR   C121503  15.438  11.486  12.316 -0.1352  0.2577 -0.0534
  128PROXR  H1121504  15.495  11.429  12.239  0.6884  0.1807  0.5940
  128PROXR  H1321505  15.464  11.435  12.412  0.2919 -1.1985 -0.9044
  128PROXR   C221506  15.285  11.446  12.297 -0.0570  0.6989  0.2569
  128PROXR  H2121507  15.251  11.490  12.201 -0.4874  0.2339  0.1882
  128PROXR   C321508  15.194  11.496  12.413 -0.7451  0.0867  0.1325
  128PROXR  H3121509  15.192  11.607  12.404  0.2351 -0.0404 -2.6844
  128PROXR  H3221510  15.092  11.454  12.402 -0.5041 -0.0868 -1.7848
  128PROXR  H3321511  15.230  11.454  12.510 -0.0195  1.2280  0.3729
  129PROXS   O121512  15.269  11.305  12.276  0.2193  0.1429  0.3136
  129PROXS   C121513  15.144  11.259  12.222 -0.1128  0.2858  0.0919
  129PROXS  H1121514  15.071  11.258  12.305  0.2173  0.0168  0.3792
  129PROXS  H1321515  15.112  11.327  12.140 -0.9076  1.5855  1.4332
  129PROXS   C221516  15.155  11.118  12.166  1.0225  0.2845 -0.7055
  129PROXS  H2121517  15.182  11.042  12.242  1.3569  0.8569 -0.2459
  129PROXS   C321518  15.245  11.105  12.055  0.3954 -0.8081 -0.6814
  129PROXS  H3121519  15.351  11.125  12.080  0.2289 -0.0777 -0.5084
  129PROXS  H3221520  15.232  11.003  12.014 -0.9060 -1.4380  1.1413
  129PROXS  H3321521  15.215  11.174  11.973 -1.9424 -3.8813 -2.6592
  130PROXS   O121522  15.025  11.083  12.121  0.7912  0.8767 -0.0786
  130PROXS   C121523  14.929  11.091  12.223  0.0253 -0.7378 -0.0929
  130PROXS  H1121524  14.975  11.045  12.314 -0.5031 -2.8605 -0.8457
  130PROXS  H1321525  14.896  11.192  12.256 -0.7715 -0.8727 -0.4706
  130PROXS   C221526  14.807  11.014  12.177 -0.4571 -0.2111  0.0433
  130PROXS  H2121527  14.843  10.911  12.156  2.6168  0.7506  0.1071
  130PROXS   C321528  14.738  11.097  12.065 -0.1953  0.2221  0.6629
  130PROXS  H3121529  14.711  11.194  12.112  1.1649  0.9409  0.0065
  130PROXS  H3221530  14.807  11.130  11.985 -0.9504 -1.7882 -0.9057
  130PROXS  H3321531  14.651  11.050  12.014  0.3540 -0.9422  0.7808
  131PROXS   O121532  14.718  11.005  12.285  0.3373  0.1219 -0.3226
  131PROXS   C121533  14.618  10.901  12.272  0.1481  0.0530  0.0343
  131PROXS  H1121534  14.563  10.909  12.176  0.0346 -0.9766  0.0044
  131PROXS  H1321535  14.672  10.804  12.267 -0.9543 -0.6473  1.1856
  131PROXS   C221536  14.517  10.893  12.390 -0.5697 -0.0081 -0.9040
  131PROXS  H2121537  14.449  10.977  12.365  1.1626  1.8433  0.3021
  131PROXS   C321538  14.595  10.910  12.525  0.3313  0.4031 -0.0779
  131PROXS  H3121539  14.660  10.823  12.550 -0.6764 -0.1044  0.8244
  131PROXS  H3221540  14.646  11.008  12.514 -2.1181  2.0055  1.7450
  131PROXS  H3321541  14.528  10.919  12.612  1.4813 -0.3672  0.9232
  132PROXS   O121542  14.454  10.766  12.394  0.5233 -0.2771  0.0330
  132PROXS   C121543  14.339  10.762  12.302  0.9124  0.4202 -0.2821
  132PROXS  H1121544  14.287  10.860  12.313 -0.8593 -0.6894  1.7792
  132PROXS  H1321545  14.391  10.756  12.204  0.0246 -2.1870 -0.6582
  132PROXS   C221546  14.248  10.636  12.313  0.0672 -0.6231  0.6934
  132PROXS  H2121547  14.164  10.647  12.384 -0.4382 -0.2327  0.0404
  132PROXS   C321548  14.320  10.507  12.344 -0.0150 -0.2186  0.6708
  132PROXS  H3121549  14.382  10.523  12.435 -0.7083  1.3341  0.9079
  132PROXS  H3221550  14.259  10.414  12.358 -1.7257  0.8784  0.8563
  132PROXS  H3321551  14.393  10.483  12.264  0.8155  0.5459  1.1806
  133PROXS   O121552  14.190  10.611  12.185  0.1640 -0.6491  0.2665
  133PROXS   C121553  14.075  10.706  12.173  0.0284  0.5247  0.4364
  133PROXS  H1121554  13.982  10.650  12.196 -1.2729  0.7634 -3.5367
  133PROXS  H1321555  14.090  10.787  12.248  4.0941  0.2474  0.1699
  133PROXS   C221556  14.065  10.742  12.019 -0.3945  0.0852  0.5079
  133PROXS  H2121557  14.057  10.652  11.955  0.7050  0.2740  0.0680
  133PROXS   C321558  14.186  10.822  11.968  0.3661  0.4339  1.0877
  133PROXS  H3121559  14.274  10.767  11.927  0.4760  0.9618  0.5964
  133PROXS  H3221560  14.155  10.888  11.884 -2.9112 -1.0918  0.9563
  133PROXS  H3321561  14.232  10.885  12.047  1.2125  1.2974 -0.0458
  134PROXS   O121562  13.951  10.827  11.988 -0.6591  0.1067  0.0055
  134PROXS   C121563  13.823  10.766  12.002 -0.9160 -0.0321  0.2988
  134PROXS  H1121564  13.806  10.703  11.912 -3.3479  0.0789  0.6125
  134PROXS  H1321565  13.827  10.702  12.092 -0.4576  1.0282  1.0474
  134PROXS   C221566  13.709  10.862  12.017  0.5225  0.0365  0.1268
  134PROXS  H2121567  13.718  10.933  12.101 -1.0514  0.7644 -0.2791
  134PROXS   C321568  13.571  10.786  12.029  0.5318  0.0672  0.3532
  134PROXS  H3121569  13.591  10.682  12.064 -0.8090 -0.6649 -0.9466
  134PROXS  H3221570  13.508  10.845  12.099 -1.2887 -0.1204 -1.0390
  134PROXS  H3321571  13.532  10.777  11.925  2.5903 -2.8500 -0.2954
  135PROXS   O121572  13.690  10.939  11.897  0.5923  0.2310  0.0852
  135PROXS   C121573  13.781  11.039  11.863 -0.5403 -0.3706 -0.0476
  135PROXS  H1121574  13.802  11.105  11.950 -0.1462  0.2046 -0.5703
  135PROXS  H1321575  13.877  10.991  11.832  2.2828  2.9832  2.6758
  135PROXS   C221576  13.733  11.113  11.740  0.2073  0.2391  0.7183
  135PROXS  H2121577  13.653  11.185  11.768  1.2377  1.5538  0.3909
  135PROXS   C321578  13.690  11.014  11.625  0.2120  0.1140 -0.2584
  135PROXS  H3121579  13.682  11.072  11.530 -3.1075 -1.1109 -0.8783
  135PROXS  H3221580  13.766  10.938  11.597  0.0413 -0.1202 -0.0876
  135PROXS  H3321581  13.594  10.969  11.658  0.5363 -1.9336 -1.9101
  136PROXS   O121582  13.842  11.193  11.689 -0.8673  0.2455  1.1779
  136PROXS   C121583  13.801  11.326  11.655  0.3044  0.4148  0.2306
  136PROXS  H1121584  13.710  11.326  11.591  0.8572 -3.0022 -0.7552
  136PROXS  H1321585  13.777  11.379  11.750  1.5398 -2.2581  2.1399
  136PROXS   C221586  13.910  11.411  11.599 -0.2501 -0.0170  0.7385
  136PROXS  H2121587  13.939  11.364  11.502 -0.5828  0.4396  0.4151
  136PROXS   C321588  14.034  11.407  11.700 -0.5150 -0.1329  0.1979
  136PROXS  H3121589  14.106  11.488  11.676  0.2115 -1.1725 -1.3338
  136PROXS  H3221590  14.001  11.408  11.806 -0.0783 -2.4781  0.4079
  136PROXS  H3321591  14.092  11.314  11.680 -0.9266 -0.4190  0.3450
  137PROXS   O121592  13.858  11.545  11.585 -0.7641  0.1872 -0.2556
  137PROXS   C121593  13.941  11.638  11.513 -0.8576 -0.3709 -0.5309
  137PROXS  H1121594  13.991  11.692  11.597 -2.2173 -0.8801  0.6380
  137PROXS  H1321595  14.022  11.594  11.451  0.1004  0.2956  0.2148
  137PROXS   C221596  13.863  11.739  11.434 -0.0300 -0.0706 -0.4607
  137PROXS  H2121597  13.808  11.799  11.510 -1.2044 -0.1701 -1.1933
  137PROXS   C321598  13.752  11.678  11.344 -0.5911 -1.0366 -0.6377
  137PROXS  H3121599  13.796  11.611  11.268 -1.1508 -1.9084 -0.2045
  137PROXS  H3221600  13.679  11.627  11.411  1.9213 -1.7728  1.7738
  137PROXS  H3321601  13.714  11.768  11.292  1.1649  0.6970  0.8834
  138PROXR   O121602  13.951  11.819  11.360 -1.0533  0.4759  0.2376
  138PROXR   C121603  14.037  11.894  11.443 -0.6048 -0.0132  0.1722
  138PROXR  H1121604  13.987  11.932  11.534  1.1098  0.4395  0.9615
  138PROXR  H1321605  14.115  11.823  11.478  1.3029  1.1320 -1.5292
  138PROXR   C221606  14.100  12.018  11.369  0.1194  0.2321 -0.0898
  138PROXR  H2121607  14.007  12.070  11.339  0.5693  1.7214  0.9852
  138PROXR   C321608  14.165  11.963  11.236  0.2193  0.1854 -0.0754
  138PROXR  H3121609  14.106  11.878  11.196  0.3391 -0.7940  1.7022
  138PROXR  H3221610  14.174  12.051  11.169 -0.5640  1.0933  0.9852
  138PROXR  H3321611  14.270  11.930  11.254 -0.0326  0.6895  2.9214
  139PROXS   O121612  14.174  12.095  11.462 -0.2023  0.6618  0.3033
  139PROXS   C121613  14.189  12.230  11.406  0.1099 -0.8046 -0.1970
  139PROXS  H1121614  14.257  12.219  11.319  2.1507  0.9641  1.0465
  139PROXS  H1321615  14.093  12.275  11.373 -0.3582 -1.5326  0.1635
  139PROXS   C221616  14.261  12.326  11.510  0.1798 -0.4907  0.1829
  139PROXS  H2121617  14.365  12.288  11.511  0.3967  0.0182 -1.0722
  139PROXS   C321618  14.187  12.326  11.645 -0.3034 -0.1716  0.7949
  139PROXS  H3121619  14.261  12.355  11.722  0.3247 -2.4172  1.0806
  139PROXS  H3221620  14.103  12.399  11.643 -1.1963 -1.1837  0.9234
  139PROXS  H3321621  14.138  12.231  11.671 -0.4203  0.1522  1.7846
  140PROXR   O121622  14.269  12.456  11.454 -0.3879  0.2170  0.3026
  140PROXR   C121623  14.327  12.551  11.539 -0.5515 -0.7942 -0.5990
  140PROXR  H1121624  14.256  12.572  11.622  0.2842 -1.2157  0.2391
  140PROXR  H1321625  14.418  12.512  11.588 -0.7542 -0.3912  0.1042
  140PROXR   C221626  14.379  12.680  11.462 -0.6992  0.2789  0.7036
  140PROXR  H2121627  14.292  12.722  11.408 -0.2816 -2.9153 -2.9358
  140PROXR   C321628  14.489  12.639  11.353 -0.4672 -0.2460 -0.8473
  140PROXR  H3121629  14.498  12.720  11.277 -0.3521  1.4829  0.9135
  140PROXR  H3221630  14.586  12.637  11.408 -1.4566 -1.2645  0.9521
  140PROXR  H3321631  14.471  12.541  11.304  0.2037  0.6350 -2.9983
  141PROXS   O121632  14.445  12.772  11.552 -0.0476 -0.8422 -0.5895
  141PROXS   C121633  14.470  12.904  11.497 -0.8612  0.2343 -0.9039
  141PROXS  H1121634  14.558  12.887  11.432 -0.2717 -1.2612  0.2111
  141PROXS  H1321635  14.379  12.939  11.444 -0.8817  0.0678 -0.9757
  141PROXS   C221636  14.501  13.004  11.606 -0.1423  0.0081 -0.5366
  141PROXS  H2121637  14.478  12.948  11.700 -0.0277  0.3500 -0.3033
  141PROXS   C321638  14.436  13.140  11.601 -0.4613 -0.3868 -0.0420
  141PROXS  H3121639  14.329  13.131  11.571 -0.3634  1.2307 -0.9451
  141PROXS  H3221640  14.440  13.184  11.703  0.5191 -0.7880  0.1027
  141PROXS  H3321641  14.480  13.216  11.534  0.4125  1.4793  2.4976
  142PROXS   O121642  14.640  13.037  11.610  0.4281 -0.8433 -0.0171
  142PROXS   C121643  14.724  12.925  11.642 -0.3461  0.0361  0.1111
  142PROXS  H1121644  14.717  12.900  11.750 -2.9974  1.9913  0.5019
  142PROXS  H1321645  14.696  12.835  11.584 -2.7760 -0.2182  1.5134
  142PROXS   C221646  14.870  12.955  11.593  0.5340  0.1774 -0.1506
  142PROXS  H2121647  14.910  13.047  11.643 -2.6829  0.5469  2.0565
  142PROXS   C321648  14.876  12.948  11.438 -0.5057  0.5741  0.1331
  142PROXS  H3121649  14.825  13.036  11.393  0.3433  1.3832  0.7242
  142PROXS  H3221650  14.985  12.947  11.420 -0.4800 -2.5697 -0.1864
  142PROXS  H3321651  14.823  12.860  11.395  3.2141 -0.8876 -1.9276
  143PROXS   O121652  14.950  12.843  11.632 -1.3074  0.1000 -0.0495
  143PROXS   C121653  15.081  12.881  11.670  0.5046  0.3016 -0.0922
  143PROXS  H1121654  15.124  12.952  11.596 -2.0326  0.7312 -1.2685
  143PROXS  H1321655  15.074  12.932  11.768 -1.7360 -1.8179  0.9495
  143PROXS   C221656  15.158  12.747  11.682  0.0668  0.0592 -0.2416
  143PROXS  H2121657  15.085  12.666  11.704 -1.7465  1.0506 -2.2453
  143PROXS   C321658  15.263  12.756  11.788 -0.5736 -0.0793 -0.0906
  143PROXS  H3121659  15.343  12.826  11.756 -0.9245  0.2955 -0.1579
  143PROXS  H3221660  15.228  12.780  11.891  1.6705  1.2554  0.4238
  143PROXS  H3321661  15.312  12.657  11.798 -2.2844 -1.2426 -2.2165
  144PROXS   O121662  15.236  12.724  11.565  0.9252 -0.0710 -0.4314
  144PROXS   C121663  15.162  12.660  11.462 -0.4123  0.6603  0.2480
  144PROXS  H1121664  15.055  12.661  11.488  0.1955  1.4150  3.0466
  144PROXS  H1321665  15.173  12.725  11.373  0.9682 -0.0938 -0.1736
  144PROXS   C221666  15.214  12.513  11.428  0.5027 -0.4944  0.0262
  144PROXS  H2121667  15.218  12.458  11.524  2.0327 -0.7581 -0.1628
  144PROXS   C321668  15.363  12.503  11.371 -0.2851  0.1143 -0.1514
  144PROXS  H3121669  15.436  12.554  11.438  0.3315  0.8826 -1.3604
  144PROXS  H3221670  15.403  12.400  11.363  0.6782  0.3971  0.7581
  144PROXS  H3321671  15.356  12.557  11.274  1.8157  1.7251  0.5208
  145PROXR   O121672  15.118  12.454  11.336 -0.4140  0.0690  0.4646
  145PROXR   C121673  15.011  12.381  11.390 -0.0565 -0.2154  0.4756
  145PROXR  H1121674  15.050  12.277  11.398  0.3654  0.0977  4.6571
  145PROXR  H1321675  14.984  12.417  11.492  1.1158  0.2369  0.6451
  145PROXR   C221676  14.892  12.394  11.295 -0.1402 -0.1012 -0.0302
  145PROXR  H2121677  14.914  12.329  11.207  0.8412  0.2394 -0.0487
  145PROXR   C321678  14.863  12.531  11.244  0.3084 -0.3856  0.3545
  145PROXR  H3121679  14.952  12.562  11.185 -1.1092  0.0430 -1.6934
  145PROXR  H3221680  14.771  12.519  11.182  0.3096 -1.8877  0.6145
  145PROXR  H3321681  14.832  12.598  11.328  1.4206 -1.2464  1.4861
  146PROXS   O121682  14.771  12.341  11.349 -0.5192  0.2677  0.0128
  146PROXS   C121683  14.781  12.197  11.369 -0.3834  0.3853 -0.6525
  146PROXS  H1121684  14.790  12.152  11.268  0.0480  1.1100 -0.9365
  146PROXS  H1321685  14.858  12.176  11.446 -0.6403  0.0901 -0.4711
  146PROXS   C221686  14.652  12.140  11.439 -0.6523 -0.5198 -0.0329
  146PROXS  H2121687  14.563  12.158  11.374 -0.3975 -1.4593 -0.6649
  146PROXS   C321688  14.620  12.212  11.566 -0.4628  0.4637  0.0816
  146PROXS  H3121689  14.541  12.167  11.630  0.8712 -1.0566  0.7242
  146PROXS  H3221690  14.713  12.217  11.626 -0.1839 -2.3518  0.0515
  146PROXS  H3321691  14.586  12.314  11.540 -0.1077  1.9000  4.4243
  147PROXR   O121692  14.669  12.005  11.473 -0.2805  0.0115 -0.1483
  147PROXR   C121693  14.585  11.910  11.399 -0.1152 -0.7318 -0.5724
  147PROXR  H1121694  14.484  11.931  11.439  0.1712 -0.8538  0.2306
  147PROXR  H1321695  14.597  11.943  11.293 -1.1501  4.8052  0.7043
  147PROXR   C221696  14.630  11.770  11.415 -0.2841  0.6462  0.0079
  147PROXR  H2121697  14.624  11.757  11.525 -0.2337  0.2471 -0.0348
  147PROXR   C321698  14.774  11.743  11.376 -0.9526 -0.9039  0.3788
  147PROXR  H3121699  14.809  11.641  11.405 -1.4469 -0.9483  0.8359
  147PROXR  H3221700  14.778  11.742  11.265 -1.6012  0.2062  0.3300
  147PROXR  H3321701  14.847  11.817  11.414 -0.5801 -0.6971 -0.6941
  148PROXR   O121702  14.536  11.687  11.347  0.6001 -0.3439 -0.1803
  148PROXR   C121703  14.525  11.560  11.419 -0.4178  0.0631 -0.0118
  148PROXR  H1121704  14.629  11.524  11.429 -0.5430 -0.8842 -1.7876
  148PROXR  H1321705  14.471  11.564  11.516  0.0211  1.9112  0.1982
  148PROXR   C221706  14.452  11.469  11.330  0.1562  0.7807  0.8520
  148PROXR  H2121707  14.500  11.469  11.229 -0.8714 -1.1586  0.3105
  148PROXR   C321708  14.298  11.491  11.310 -0.2589  0.3481 -0.4833
  148PROXR  H3121709  14.251  11.416  11.242 -0.0906  0.4244 -0.6835
  148PROXR  H3221710  14.254  11.486  11.413  3.1468 -0.3497  1.0631
  148PROXR  H3321711  14.279  11.595  11.277 -2.2257  0.3765  0.5177
  149PROXR   O121712  14.469  11.341  11.386 -0.4805 -0.7646  0.3852
  149PROXR   C121713  14.443  11.236  11.295 -0.4601  0.6335  0.7739
  149PROXR  H1121714  14.357  11.176  11.333  0.9676 -1.3157  1.1002
  149PROXR  H1321715  14.420  11.282  11.196  1.0277  1.2473  0.6831
  149PROXR   C221716  14.569  11.147  11.291  0.5043  0.1951 -0.5482
  149PROXR  H2121717  14.594  11.106  11.391  1.2405  0.8219 -0.4674
  149PROXR   C321718  14.692  11.228  11.235  0.2807  0.4209  0.1782
  149PROXR  H3121719  14.782  11.185  11.284  0.2379  1.4611  1.1906
  149PROXR  H3221720  14.701  11.225  11.124 -0.0309  0.9523  0.1405
  149PROXR  H3321721  14.694  11.337  11.255  0.9371  0.7741 -1.6064
  150PROXS   O121722  14.538  11.042  11.202  0.5102 -0.2765  0.4810
  150PROXS   C121723  14.615  10.931  11.236 -0.0253 -0.4168  1.0244
  150PROXS  H1121724  14.721  10.964  11.225 -0.6754  1.4367 -0.1552
  150PROXS  H1321725  14.589  10.901  11.340 -1.7982 -0.7479  0.5267
  150PROXS   C221726  14.573  10.824  11.135 -0.3673  0.9124 -0.8959
  150PROXS  H2121727  14.574  10.860  11.030 -2.1670  2.9260 -0.2911
  150PROXS   C321728  14.428  10.787  11.173  0.1032  0.1574 -0.4805
  150PROXS  H3121729  14.411  10.757  11.279  1.8526 -0.3070 -0.3071
  150PROXS  H3221730  14.358  10.871  11.155  0.7430  1.2355  1.6565
  150PROXS  H3321731  14.399  10.691  11.125  0.4099  0.4611 -1.2861
  151PROXR   O121732  14.653  10.706  11.150  0.1386  0.3703  0.4282
  151PROXR   C121733  14.783  10.737  11.119  0.1649 -0.9570  0.1668
  151PROXR  H1121734  14.786  10.780  11.016 -3.2132  2.4412  1.2154
  151PROXR  H1321735  14.838  10.809  11.184  0.5759 -1.5463  0.4808
  151PROXR   C221736  14.872  10.610  11.129  0.7385  0.7728  0.4783
  151PROXR  H2121737  14.828  10.546  11.049  2.0130  0.2628  0.1593
  151PROXR   C321738  14.869  10.556  11.273  0.1011 -0.0028  0.3748
  151PROXR  H3121739  14.918  10.629  11.341 -2.1759  0.7697  1.2613
  151PROXR  H3221740  14.767  10.542  11.313 -0.5160  2.7624  0.0008
  151PROXR  H3321741  14.919  10.458  11.286  0.8476  0.3911  0.5697
  152PROXR   O121742  15.004  10.642  11.088 -0.4543 -0.2774 -0.5539
  152PROXR   C121743  15.072  10.534  11.023 -0.2232  0.0150  0.6266
  152PROXR  H1121744  15.045  10.443  11.081 -0.5544  0.2151  0.7895
  152PROXR  H1321745  15.038  10.528  10.917 -0.7772  2.9016  0.5622
  152PROXR   C221746  15.225  10.545  11.028 -0.2027  0.4944 -0.0127
  152PROXR  H2121747  15.255  10.577  11.130  1.2393  1.1291 -0.6013
  152PROXR   C321748  15.274  10.659  10.938 -0.1770  0.0966 -0.2937
  152PROXR  H3121749  15.226  10.748  10.983  0.9027 -1.1130  3.6972
  152PROXR  H3221750  15.383  10.681  10.932 -0.1040 -0.1913 -0.0468
  152PROXR  H3321751  15.239  10.654  10.832 -1.4565 -0.1324  0.1262
  153PROXR   O121752  15.290  10.434  10.971 -0.2364  0.3230 -0.8899
  153PROXR   C121753  15.370  10.363  11.068 -0.2799  0.1913 -0.7991
  153PROXR  H1121754  15.424  10.278  11.022 -0.9837 -0.7582  0.0800
  153PROXR  H1321755  15.451  10.435  11.092 -0.0131 -0.8950  1.9460
  153PROXR   C221756  15.294  10.285  11.179 -0.7516  0.5027 -0.2314
  153PROXR  H2121757  15.246  10.355  11.251 -0.2136  0.9404 -0.2893
  153PROXR   C321758  15.393  10.199  11.260 -0.3025 -0.4556 -0.0063
  153PROXR  H3121759  15.467  10.277  11.288 -0.3966 -0.2477 -0.3401
  153PROXR  H3221760  15.340  10.154  11.347  0.4868 -4.7026 -1.4843
  153PROXR  H3321761  15.439  10.126  11.191 -1.2591 -0.5720 -0.5473
  154PROXS   O121762  15.194  10.213  11.110  0.2982 -0.4503  0.0875
  154PROXS   C121763  15.085  10.164  11.191  0.6522 -0.5420 -0.2403
  154PROXS  H1121764  15.124  10.092  11.266  1.7367 -0.5388 -0.7775
  154PROXS  H1321765  15.021  10.237  11.245  0.3658 -0.9850  0.0206
  154PROXS   C221766  14.987  10.085  11.102 -0.3160  0.0769  0.6390
  154PROXS  H2121767  15.039  10.008  11.041  0.2142  1.3211 -0.5343
  154PROXS   C321768  14.910  10.173  11.003  0.2662  0.0832  0.5117
  154PROXS  H3121769  14.853  10.113  10.929  0.0967  1.7548 -0.7869
  154PROXS  H3221770  14.847  10.241  11.063  0.1066  0.0439  0.3886
  154PROXS  H3321771  14.971  10.235  10.934  0.8312 -0.4129  0.5484
  155PROXR   O121772  14.897  10.023  11.196  0.4928  0.1263 -0.0449
  155PROXR   C121773  14.794   9.934  11.143  0.0886  0.8216  0.2541
  155PROXR  H1121774  14.699   9.989  11.130 -0.3977  0.1616  0.9422
  155PROXR  H1321775  14.821   9.888  11.045 -0.9620  1.3928 -0.3259
  155PROXR   C221776  14.772   9.808  11.237  0.6767 -0.6287 -0.0064
  155PROXR  H2121777  14.863   9.747  11.257 -0.4123 -1.7064  1.8674
  155PROXR   C321778  14.668   9.715  11.167  0.3272 -0.5904 -0.9916
  155PROXR  H3121779  14.648   9.622  11.225 -0.9928 -0.7747 -1.7015
  155PROXR  H3221780  14.571   9.767  11.157 -0.0754 -1.2217 -0.4568
  155PROXR  H3321781  14.701   9.689  11.064  0.3402 -0.7542 -0.9460
  156PROXS   O121782  14.715   9.852  11.360  0.2916 -0.4805 -0.3437
  156PROXS   C121783  14.817   9.875  11.454 -0.4036 -0.7281  0.0718
  156PROXS  H1121784  14.850   9.788  11.514  2.3515  1.8468  2.6711
  156PROXS  H1321785  14.905   9.923  11.407  1.3637 -1.6982  2.1879
  156PROXS   C221786  14.774   9.978  11.557 -0.2077 -0.6465  0.2391
  156PROXS  H2121787  14.681   9.942  11.606  0.4632 -0.2176  1.9024
  156PROXS   C321788  14.750  10.114  11.488 -0.3083 -0.1929  0.2980
  156PROXS  H3121789  14.703  10.177  11.566  1.0284 -1.3015  2.0635
  156PROXS  H3221790  14.848  10.159  11.461 -0.0766  0.3004  1.8865
  156PROXS  H3321791  14.697  10.109  11.391  1.6567  3.0142 -1.0977
  157PROXS   O121792  14.873   9.994  11.660  0.9185  0.4511 -0.1094
  157PROXS   C121793  14.819  10.040  11.783  0.4459 -0.1732 -0.0305
  157PROXS  H1121794  14.731  10.107  11.776  1.3094  1.0117  0.1295
  157PROXS  H1321795  14.773   9.948  11.824 -1.1723  0.4322 -0.3850
  157PROXS   C221796  14.924  10.104  11.865 -0.1201 -0.2934  0.0634
  157PROXS  H2121797  15.021  10.049  11.865  1.1203  1.7471  0.4625
  157PROXS   C321798  14.896  10.110  12.018 -0.8719 -0.7954 -0.2989
  157PROXS  H3121799  14.900  10.017  12.078  3.8801 -1.4912 -1.2603
  157PROXS  H3221800  14.972  10.174  12.068 -2.4077  0.2055  0.8405
  157PROXS  H3321801  14.798  10.162  12.022  0.3809  1.6621  1.0626
  158PROXR   O121802  14.933  10.242  11.824  0.2527 -0.7354  0.8801
  158PROXR   C121803  15.016  10.269  11.711  0.4854  1.1424  0.2352
  158PROXR  H1121804  15.117  10.228  11.731 -0.2919 -1.6103 -0.9891
  158PROXR  H1321805  14.978  10.217  11.621 -1.9795  1.5672  0.9491
  158PROXR   C221806  15.032  10.418  11.687 -0.4176  0.8213 -0.2642
  158PROXR  H2121807  15.063  10.460  11.785 -3.1766  0.1776  0.9715
  158PROXR   C321808  14.891  10.469  11.639 -0.3745 -0.3675  0.1245
  158PROXR  H3121809  14.894  10.581  11.638  3.2421 -0.3246 -0.1462
  158PROXR  H3221810  14.860  10.433  11.539 -2.6328  0.2943  0.5373
  158PROXR  H3321811  14.816  10.444  11.717 -0.7903 -2.2346 -0.8360
  159PROXR   O121812  15.135  10.439  11.586 -0.2434  0.3552 -0.3178
  159PROXR   C121813  15.155  10.577  11.556  0.1777 -0.3030 -0.6446
  159PROXR  H1121814  15.061  10.626  11.524  1.5173  2.7434 -0.3403
  159PROXR  H1321815  15.186  10.629  11.650  0.2415  1.5532 -1.6595
  159PROXR   C221816  15.241  10.620  11.435 -0.4714 -0.1581  0.1116
  159PROXR  H2121817  15.194  10.567  11.350  2.2964 -1.1395 -0.9252
  159PROXR   C321818  15.381  10.560  11.452 -0.2984 -0.0749 -0.0402
  159PROXR  H3121819  15.375  10.449  11.461  3.2677 -0.4320 -0.5861
  159PROXR  H3221820  15.437  10.575  11.357 -1.2823  0.6578 -0.5292
  159PROXR  H3321821  15.440  10.597  11.538 -1.2146 -0.2980  0.6973
  160PROXS   O121822  15.240  10.768  11.430 -0.1218 -0.1160 -0.3417
  160PROXS   C121823  15.306  10.822  11.319 -0.6900 -0.0491 -0.7083
  160PROXS  H1121824  15.414  10.799  11.324 -0.6517 -0.2795 -2.2071
  160PROXS  H1321825  15.266  10.770  11.229 -2.3775 -0.4367  0.2146
  160PROXS   C221826  15.299  10.971  11.303 -0.0429 -0.0107 -0.8245
  160PROXS  H2121827  15.352  11.014  11.391  0.5670  3.5066 -2.7374
  160PROXS   C321828  15.151  11.012  11.291 -0.2364 -0.5659 -0.7727
  160PROXS  H3121829  15.110  10.973  11.196  0.3136 -2.1265 -0.4070
  160PROXS  H3221830  15.090  10.965  11.371  1.8651  0.8453  1.8107
  160PROXS  H3321831  15.142  11.122  11.293  1.5175 -0.3496 -2.2709
  161PROXR   O121832  15.377  11.005  11.187 -0.1561  0.6445  0.3042
  161PROXR   C121833  15.411  11.147  11.185 -0.0777 -0.6699 -0.0857
  161PROXR  H1121834  15.325  11.214  11.205  1.5863  1.1535  1.4555
  161PROXR  H1321835  15.482  11.173  11.267 -0.3631 -1.3575  0.3941
  161PROXR   C221836  15.470  11.190  11.051 -0.5526  0.2247 -0.2723
  161PROXR  H2121837  15.394  11.163  10.975  0.5697 -2.9794 -0.4112
  161PROXR   C321838  15.609  11.124  11.034 -0.2045 -0.2282  0.2581
  161PROXR  H3121839  15.655  11.171  10.944  0.5309  0.6164  1.0477
  161PROXR  H3221840  15.681  11.163  11.109  0.1324  1.1818 -0.7421
  161PROXR  H3321841  15.603  11.014  11.023 -0.2374 -0.1275 -0.8400
  162PROXR   O121842  15.485  11.334  11.049  0.2709  0.1970 -0.5674
  162PROXR   C121843  15.470  11.378  10.922 -0.0764  0.4751 -0.1855
  162PROXR  H1121844  15.534  11.320  10.852  1.0536 -0.5185  1.6124
  162PROXR  H1321845  15.364  11.358  10.894 -0.3799  1.1376  0.4615
  162PROXR   C221846  15.486  11.531  10.905  0.7135 -0.4045 -0.2869
  162PROXR  H2121847  15.417  11.580  10.976 -0.6474 -1.5601 -0.7632
  162PROXR   C321848  15.476  11.586  10.765  0.3417 -0.7498  0.0153
  162PROXR  H3121849  15.565  11.553  10.707  1.2530 -0.3369  1.1392
  162PROXR  H3221850  15.379  11.550  10.723  0.0711  2.1914 -2.2167
  162PROXR  H3321851  15.474  11.697  10.769 -2.1023 -0.7196 -0.2139
  163PROXS   O121852  15.619  11.547  10.945  0.3027 -0.0898 -0.3294
  163PROXS   C121853  15.644  11.576  11.076  0.3665  0.4616  0.0608
  163PROXS  H1121854  15.603  11.675  11.108 -0.9871  0.0754 -0.4098
  163PROXS  H1321855  15.597  11.503  11.145 -0.2577  0.8187  0.0190
  163PROXS   C221856  15.795  11.578  11.110 -0.3784 -0.3385  0.3972
  163PROXS  H2121857  15.849  11.648  11.044 -0.5507 -0.6551 -0.0821
  163PROXS   C321858  15.862  11.438  11.093  0.2803 -0.1049 -0.0899
  163PROXS  H3121859  15.957  11.438  11.151 -0.3056 -1.9041  0.9439
  163PROXS  H3221860  15.808  11.359  11.150  0.8689 -2.4706 -2.6658
  163PROXS  H3321861  15.876  11.413  10.986 -0.4556  1.1195 -0.5017
  164PROXR   O121862  15.800  11.619  11.242  0.6350  0.1302  0.0196
  164PROXR   C121863  15.816  11.757  11.262 -0.7651 -0.3421  0.1964
  164PROXR  H1121864  15.912  11.791  11.218 -1.2806  2.1768  0.8040
  164PROXR  H1321865  15.742  11.828  11.220  0.4795  0.2360 -1.0912
  164PROXR   C221866  15.823  11.795  11.419 -0.3607 -0.3982 -0.4298
  164PROXR  H2121867  15.895  11.726  11.469 -2.9963 -1.4285  2.3039
  164PROXR   C321868  15.690  11.775  11.498  0.4128 -0.2887 -0.2764
  164PROXR  H3121869  15.667  11.667  11.507  0.1175 -0.2025  0.0387
  164PROXR  H3221870  15.691  11.816  11.602 -2.2076 -1.2400  0.2076
  164PROXR  H3321871  15.611  11.830  11.443  0.4948 -1.0232 -1.1465
  165PROXR   O121872  15.865  11.929  11.433 -0.3005 -0.4847 -0.7034
  165PROXR   C121873  16.005  11.942  11.424  0.0038  0.4876 -0.7114
  165PROXR  H1121874  16.056  11.878  11.500  2.0429  2.1805 -0.5711
  165PROXR  H1321875  16.048  11.918  11.325  2.9575 -2.4072  1.0787
  165PROXR   C221876  16.033  12.088  11.442  0.1373 -0.3061 -0.2403
  165PROXR  H2121877  15.960  12.153  11.390 -1.1604 -3.1168 -2.1670
  165PROXR   C321878  16.170  12.114  11.374  0.0078  0.2639 -0.1417
  165PROXR  H3121879  16.249  12.043  11.408  0.9207  0.8921 -0.9156
  165PROXR  H3221880  16.171  12.115  11.263  0.1956 -2.0572 -0.2117
  165PROXR  H3321881  16.197  12.217  11.407 -1.3480  0.7800 -0.5951
  166ETHOX   O121882  16.053  12.120  11.584  0.0660 -0.0222 -0.2581
  166ETHOX   C121883  15.937  12.159  11.652  0.5116  0.0343 -0.4350
  166ETHOX  H1121884  15.886  12.064  11.678 -0.9698  1.0622  0.5382
  166ETHOX  H1321885  15.870  12.221  11.589 -0.3488 -0.6355 -0.1895
  166ETHOX   C221886  15.985  12.234  11.782  0.6081  0.4241 -0.4889
  166ETHOX  H2121887  16.073  12.181  11.825  1.0627 -0.1564 -2.0746
  166ETHOX  H2321888  15.911  12.210  11.861 -0.4083 -0.8160 -1.7634
  167ETHOX   O121889  16.006  12.375  11.770  0.3529  0.0513  0.4836
  167ETHOX   C121890  16.111  12.401  11.679  0.5103 -0.1509 -0.1642
  167ETHOX  H1121891  16.208  12.354  11.703  1.3592  1.9783  0.8743
  167ETHOX  H1321892  16.083  12.368  11.577  1.3883  0.4954 -0.6267
  167ETHOX   C221893  16.141  12.552  11.678 -0.5047  0.1925 -0.2766
  167ETHOX  H2121894  16.050  12.612  11.661 -0.5587 -0.0664 -0.9507
  167ETHOX  H2321895  16.203  12.573  11.588 -0.7481 -0.4343 -0.5938
  168ETHOX   O121896  16.210  12.595  11.801  0.7520 -0.4591  0.3867
  168ETHOX   C121897  16.224  12.737  11.793 -0.0410 -0.1158  0.4016
  168ETHOX  H1121898  16.134  12.800  11.780 -1.2518 -1.5712  1.3720
  168ETHOX  H1321899  16.285  12.764  11.704  1.0881  1.0577  1.4889
  168ETHOX   C221900  16.286  12.788  11.922  0.0076  0.8555 -0.4472
  168ETHOX  H2121901  16.392  12.753  11.923 -0.4945 -1.1660  3.3522
  168ETHOX  H2321902  16.233  12.745  12.010  2.1815 -3.0500 -0.8235
  169ETHOX   O121903  16.287  12.931  11.938  0.8795  0.0234 -0.6398
  169ETHOX   C121904  16.364  12.969  12.051 -0.2366 -0.0138 -0.4964
  169ETHOX  H1121905  16.328  12.917  12.143 -0.0049  2.3392  0.9997
  169ETHOX  H1321906  16.469  12.934  12.042 -0.7789 -1.9458  0.0041
  169ETHOX   C221907  16.378  13.120  12.070  0.3238 -0.8128  0.2084
  169ETHOX  H2121908  16.414  13.147  12.171 -0.2924  0.0279  0.2132
  169ETHOX  H2321909  16.283  13.177  12.066  0.7594 -0.1270 -1.3535
  170ETHOX   O121910  16.464  13.169  11.973  0.2224 -0.1315 -0.0563
  170ETHOX   C121911  16.415  13.294  11.930 -0.2140  0.1599 -0.0888
  170ETHOX  H1121912  16.422  13.369  12.011 -1.8334 -0.7149  0.9117
  170ETHOX  H1321913  16.308  13.292  11.900 -0.6460 -1.0320  1.3829
  170ETHOX   C221914  16.499  13.331  11.807  0.7350 -0.2607 -0.0754
  170ETHOX  H2121915  16.606  13.309  11.827  0.7985 -0.3121 -0.4678
  170ETHOX  H2321916  16.486  13.437  11.776  1.3580 -0.0435  0.3928
  171ETHOX   O121917  16.456  13.252  11.698 -0.6796 -0.4443  0.3387
  171ETHOX   C121918  16.542  13.262  11.588  0.1961  0.1375  0.2972
  171ETHOX  H1121919  16.509  13.356  11.537 -0.9518  0.5565  1.7350
  171ETHOX  H1321920  16.651  13.272  11.607  0.2384 -0.4827  0.3809
  171ETHOX   C221921  16.515  13.151  11.484  0.1218 -0.0808  0.8293
  171ETHOX  H2121922  16.586  13.150  11.399  0.1832 -0.2591  0.8834
  171ETHOX  H2321923  16.413  13.165  11.441 -0.2948 -1.0312  1.4786
  172ETHOX   O121924  16.510  13.024  11.540 -0.1326 -0.3804  0.0528
  172ETHOX   C121925  16.631  12.987  11.607  1.0353  0.2394  0.0830
  172ETHOX  H1121926  16.645  13.052  11.695 -0.2113 -0.1655  0.5952
  172ETHOX  H1321927  16.715  13.018  11.541  0.9878  2.7036  1.0857
  172ETHOX   C221928  16.627  12.840  11.641 -0.2160 -0.0950 -0.2164
  172ETHOX  H2121929  16.544  12.813  11.709 -2.4340 -1.4774 -3.2573
  172ETHOX  H2321930  16.725  12.803  11.680  0.0943  0.5650 -0.3658
  173ETHOX   O121931  16.617  12.766  11.514  0.1192  0.2002 -0.2076
  173ETHOX   C121932  16.627  12.623  11.527  0.0936 -0.0926 -0.2062
  173ETHOX  H1121933  16.734  12.592  11.531  0.5881  1.6660  1.7271
  173ETHOX  H1321934  16.575  12.596  11.621 -0.3182  0.4669 -0.2680
  173ETHOX   C221935  16.552  12.550  11.416  0.6019  0.0837  0.1296
  173ETHOX  H2121936  16.447  12.583  11.429  0.6902  1.2103 -1.8046
  173ETHOX  H2321937  16.601  12.583  11.322 -1.0668  0.7531 -0.5383
  174ETHOX   O121938  16.555  12.408  11.448 -0.3751  0.2173 -0.0737
  174ETHOX   C121939  16.504  12.324  11.348 -0.2097 -0.0045 -0.2114
  174ETHOX  H1121940  16.397  12.351  11.340  0.0279  2.7320  3.3882
  174ETHOX  H1321941  16.551  12.352  11.251  1.4309  1.8812  1.0282
  174ETHOX   C221942  16.511  12.177  11.397 -0.0336 -0.3284  0.1573
  174ETHOX  H2121943  16.440  12.126  11.329 -1.0946  0.1542  0.8840
  174ETHOX  H2321944  16.478  12.175  11.503  2.4292  2.1659  1.1149
  175ETHOX   O121945  16.645  12.126  11.373  0.5087 -0.1210  0.3362
  175ETHOX   C121946  16.656  11.995  11.432  0.0265  0.0891  0.0457
  175ETHOX  H1121947  16.617  11.995  11.536 -0.6207  0.6999 -0.1890
  175ETHOX  H1321948  16.591  11.928  11.372 -1.0941  2.6225 -1.7429
  175ETHOX   C221949  16.800  11.946  11.422 -0.5646  0.0492 -0.0135
  175ETHOX  H2121950  16.838  11.943  11.318 -2.0343 -1.6840 -0.5543
  175ETHOX  H2321951  16.798  11.842  11.459  1.0664 -0.2585 -0.7106
  176ETHOX   O121952  16.892  12.017  11.502  0.0817 -0.1107  0.0788
  176ETHOX   C121953  17.022  11.960  11.492  0.2143  0.0341 -0.2784
  176ETHOX  H1121954  17.016  11.873  11.560  0.0316  0.3447  0.1026
  176ETHOX  H1321955  17.037  11.927  11.387  2.0264  1.0325 -0.3908
  176ETHOX   C221956  17.133  12.047  11.546  0.0697  0.3728  0.7724
  176ETHOX  H2121957  17.227  11.989  11.533 -2.1243 -3.2523 -0.6501
  176ETHOX  H2321958  17.132  12.049  11.657 -1.3520  1.6477  0.7559
  177ETHOX   O121959  17.147  12.178  11.502  0.0314  0.0455 -0.5218
  177ETHOX   C121960  17.182  12.204  11.361  0.1478  0.5579 -0.8730
  177ETHOX  H1121961  17.098  12.171  11.297 -0.8886 -0.5370  0.9677
  177ETHOX  H1321962  17.271  12.145  11.332  1.1789  2.4021 -1.6509
  177ETHOX   C221963  17.219  12.349  11.351 -0.0011 -0.6749 -0.6934
  177ETHOX  H2121964  17.144  12.414  11.401 -0.0406 -1.8670  0.8793
  177ETHOX  H2321965  17.222  12.384  11.246 -0.2707  2.3515  0.1991
  178ETHOX   O121966  17.335  12.384  11.421  0.2094 -0.2666 -0.3877
  178ETHOX   C121967  17.357  12.525  11.413  0.4656 -0.6500 -0.4332
  178ETHOX  H1121968  17.350  12.554  11.305  0.8327 -1.3671 -0.6526
  178ETHOX  H1321969  17.281  12.578  11.476  0.7508 -0.8216  0.0547
  178ETHOX   C221970  17.498  12.554  11.456 -0.1478 -0.4758 -0.4944
  178ETHOX  H2121971  17.529  12.484  11.537 -0.6981  0.7983  0.8590
  178ETHOX  H2321972  17.505  12.647  11.516 -0.2890 -1.0421  0.4306
  179ETHOX   O121973  17.590  12.552  11.351 -0.8132 -0.3965  0.0913
  179ETHOX   C121974  17.725  12.545  11.385 -0.4905 -0.4609  1.1825
  179ETHOX  H1121975  17.741  12.437  11.405  0.5314 -0.5205  0.1908
  179ETHOX  H1321976  17.749  12.615  11.468  1.4469  1.6867 -0.9918
  179ETHOX   C221977  17.818  12.592  11.268 -0.3631 -0.0558  0.1074
  179ETHOX  H2121978  17.915  12.615  11.318 -0.7199 -0.3680  0.9719
  179ETHOX  H2321979  17.784  12.695  11.242 -0.0514  0.0983  0.2926
  180ETHOX   O121980  17.826  12.511  11.155  0.1413 -0.0590  0.0040
  180ETHOX   C121981  17.920  12.555  11.063 -0.0681 -0.0858 -0.5240
  180ETHOX  H1121982  17.900  12.661  11.036  0.1388 -0.4475 -2.2630
  180ETHOX  H1321983  18.018  12.551  11.116 -1.1159  0.7128  1.5717
  180ETHOX   C221984  17.939  12.453  10.949  0.3606 -0.3900 -0.5380
  180ETHOX  H2121985  18.021  12.485  10.881 -0.3804  1.2885 -0.6975
  180ETHOX  H2321986  17.849  12.460  10.883  0.2060 -0.7235 -0.3695
  181ETHOX   O121987  17.962  12.318  10.988 -0.2062 -0.0608 -0.3439
  181ETHOX   C121988  17.930  12.224  10.890  1.2643  0.1903  0.8858
  181ETHOX  H1121989  17.997  12.244  10.804  0.8494  1.2918  0.7958
  181ETHOX  H1321990  17.826  12.218  10.851  2.4643 -0.1603 -2.6734
  181ETHOX   C221991  17.982  12.089  10.944  0.2861  0.4453  0.1865
  181ETHOX  H2121992  18.083  12.094  10.989  0.5012 -0.2336 -0.2033
  181ETHOX  H2321993  17.999  12.011  10.866 -1.4329 -0.4494  0.6600
  182ETHOX   O121994  17.899  12.030  11.045 -0.5434 -0.1674  0.1191
  182ETHOX   C121995  17.959  11.919  11.112 -0.2716  0.1216 -0.8898
  182ETHOX  H1121996  17.964  11.828  11.048  2.2336 -0.0357 -0.5695
  182ETHOX  H1321997  18.054  11.952  11.158 -1.3499 -0.0967  1.6763
  182ETHOX   C221998  17.878  11.899  11.243 -0.4167  0.4236  0.6163
  182ETHOX  H2121999  17.823  11.991  11.270 -0.5617  1.4422 -2.7278
  182ETHOX  H2322000  17.951  11.860  11.318  1.5111  1.6736 -0.5270
  183ETHOX   O122001  17.787  11.793  11.231 -0.0706  0.6125  0.0603
  183ETHOX   C122002  17.705  11.781  11.343  0.7020 -0.1004  0.2407
  183ETHOX  H1122003  17.677  11.881  11.385  1.5070 -0.2497  1.1728
  183ETHOX  H1322004  17.766  11.730  11.421 -0.1856 -0.9184  0.4262
  183ETHOX   C222005  17.569  11.695  11.336 -0.1903 -0.3972 -0.0702
  183ETHOX  H2122006  17.544  11.659  11.438 -3.1613 -2.7699 -1.4690
  183ETHOX  H2322007  17.593  11.609  11.269 -1.4431 -1.3947  0.7303
  184ETHOX   O122008  17.465  11.778  11.285 -0.7459 -0.2114 -0.3806
  184ETHOX   C122009  17.471  11.801  11.152  0.0142 -0.3570  0.9300
  184ETHOX  H1122010  17.574  11.831  11.124 -0.3554 -1.4721 -2.0085
  184ETHOX  H1322011  17.453  11.710  11.091  1.4746  0.1142 -0.2558
  184ETHOX   C222012  17.363  11.903  11.114 -0.0749 -0.1575  0.1044
  184ETHOX  H2122013  17.358  11.928  11.006 -3.6215 -0.3106  0.1393
  184ETHOX  H2322014  17.375  11.995  11.175 -0.7170 -0.5458  0.8335
  185ETHOX   O122015  17.236  11.842  11.134  0.0756  0.6524  0.0176
  185ETHOX   C122016  17.127  11.918  11.072  0.6370  0.1887  0.2856
  185ETHOX  H1122017  17.092  12.001  11.137 -0.4984  0.4770 -0.6468
  185ETHOX  H1322018  17.158  11.965  10.976  0.4068 -0.7474 -0.2572
  185ETHOX   C222019  17.005  11.831  11.044 -0.4296  0.1432 -0.5498
  185ETHOX  H2122020  17.027  11.753  10.967  1.1980  0.5885 -0.5630
  185ETHOX  H2322021  16.922  11.898  11.013 -0.1483  0.2997 -0.9691
  186ETHOX   O122022  16.966  11.759  11.160  0.4081 -0.2846  0.0151
  186ETHOX   C122023  16.859  11.678  11.131 -0.3595  0.4632  0.1926
  186ETHOX  H1122024  16.767  11.738  11.114 -1.9904 -1.9850 -0.1262
  186ETHOX  H1322025  16.877  11.622  11.037 -3.3880  1.2944 -1.0010
  186ETHOX   C222026  16.828  11.572  11.238  0.4033 -0.1216  0.0245
  186ETHOX  H2122027  16.923  11.521  11.266  0.5589 -0.1691 -0.5724
  186ETHOX  H2322028  16.769  11.494  11.186 -1.2982  0.3119  1.2270
  187ETHOX   O122029  16.747  11.614  11.352  0.5116  0.1574  0.7978
  187ETHOX   C122030  16.722  11.502  11.444 -0.5505  0.0443  0.1940
  187ETHOX  H1122031  16.670  11.414  11.402  0.1102 -1.5949  2.5918
  187ETHOX  H1322032  16.815  11.467  11.493 -0.4481  0.6581  0.4542
  187ETHOX   C222033  16.624  11.547  11.548 -0.4973  0.7234 -0.3699
  187ETHOX  H2122034  16.650  11.649  11.585  1.9744  0.0098  0.0410
  187ETHOX  H2322035  16.623  11.475  11.633 -1.4593  0.7197 -0.3772
  188ETHOX   O122036  16.498  11.557  11.486 -0.6803  0.2952 -0.2369
  188ETHOX   C122037  16.397  11.629  11.556  0.0136  0.1244 -0.0009
  188ETHOX  H1122038  16.436  11.727  11.591  2.9114 -0.7660 -0.4609
  188ETHOX  H1322039  16.377  11.573  11.649  0.7697 -2.3176 -1.2243
  188ETHOX   C222040  16.255  11.616  11.485 -0.2506 -0.2835  0.4808
  188ETHOX  H2122041  16.174  11.666  11.542  0.9183  4.5103 -1.5514
  188ETHOX  H2322042  16.241  11.506  11.484  1.3464 -0.5120 -0.3247
  189ETHOX   O122043  16.257  11.669  11.353 -0.0391 -0.0411  0.2736
  189ETHOX   C122044  16.172  11.601  11.263  0.0321  0.3178  0.4435
  189ETHOX  H1122045  16.197  11.493  11.260  0.6495  0.3550  2.3548
  189ETHOX  H1322046  16.066  11.600  11.296 -0.5691  0.7671 -1.3959
  189ETHOX   C222047  16.183  11.649  11.117 -0.3796  0.3884  0.2122
  189ETHOX  H2122048  16.106  11.600  11.053  0.7747 -1.3202  0.0724
  189ETHOX  H2322049  16.287  11.628  11.085 -0.7418  0.3170 -0.9732
  190ETHOX   O122050  16.165  11.790  11.106  0.6555  0.3395 -0.6093
  190ETHOX   C122051  16.194  11.834  10.972 -0.1524 -0.3403  0.7533
  190ETHOX  H1122052  16.126  11.772  10.910 -0.0977  0.0621  0.2988
  190ETHOX  H1322053  16.300  11.812  10.947 -0.4704 -1.9992  0.6928
  190ETHOX   C222054  16.170  11.980  10.961 -0.2150 -0.4094 -0.3577
  190ETHOX  H2122055  16.108  12.014  11.047 -1.7583  0.6622 -1.8263
  190ETHOX  H2322056  16.120  12.008  10.866 -2.1085 -0.1424  0.6650
  191ETHOX   O122057  16.302  12.042  10.962  0.1525  0.4183 -0.0628
  191ETHOX   C122058  16.287  12.180  10.979 -0.2927 -0.8482 -0.4943
  191ETHOX  H1122059  16.210  12.229  10.916  0.3662 -1.7148 -2.0273
  191ETHOX  H1322060  16.262  12.212  11.082  0.6162  0.4715 -0.6535
  191ETHOX   C222061  16.419  12.244  10.953 -0.0760 -0.1152 -0.2065
  191ETHOX  H2122062  16.497  12.209  11.024 -0.5466 -1.5837 -0.3760
  191ETHOX  H2322063  16.409  12.352  10.979  0.3751  0.0968 -0.8835
  192ETHOX   O122064  16.460  12.253  10.817 -0.2989  0.0861  0.4998
  192ETHOX   C122065  16.580  12.333  10.812  0.0801  0.0152  0.3460
  192ETHOX  H1122066  16.669  12.284  10.856  0.9286  1.8808  0.7933
  192ETHOX  H1322067  16.573  12.426  10.872  3.4504  0.7138 -0.1335
  192ETHOX   C222068  16.619  12.366  10.670  0.9057  0.3137 -0.1147
  192ETHOX  H2122069  16.681  12.458  10.669 -0.8547  1.5373 -0.0117
  192ETHOX  H2322070  16.530  12.394  10.610  1.3640  0.4012 -0.7744
  193ETHOX   O122071  16.695  12.270  10.595  1.1490  0.4420 -0.5787
  193ETHOX   C122072  16.740  12.327  10.472 -0.1716 -0.7773  0.6917
  193ETHOX  H1122073  16.661  12.388  10.424 -0.2764 -0.5655  1.1326
  193ETHOX  H1322074  16.826  12.394  10.491 -0.8653  1.3189 -2.7774
  193ETHOX   C222075  16.787  12.228  10.371  0.0957  0.4224  0.3485
  193ETHOX  H2122076  16.861  12.164  10.424  0.5837  0.1298 -0.6772
  193ETHOX  H2322077  16.843  12.274  10.288 -0.2608 -1.7523 -1.1719
  194ETHOX   O122078  16.685  12.143  10.313 -0.4971 -0.6362  0.0397
  194ETHOX   C122079  16.740  12.030  10.248  0.1364  0.5293 -0.3793
  194ETHOX  H1122080  16.780  11.953  10.317 -2.1105 -2.4561 -2.1619
  194ETHOX  H1322081  16.820  12.066  10.179 -0.6401  4.0744  0.3585
  194ETHOX   C222082  16.635  11.964  10.148  0.0595 -0.1311 -0.6446
  194ETHOX  H2122083  16.697  11.884  10.103 -0.8843 -0.3591 -1.5912
  194ETHOX  H2322084  16.610  12.046  10.077  0.6097  0.0550 -0.6198
  195ETHOX   O122085  16.517  11.897  10.200 -0.2905  0.3650  0.2887
  195ETHOX   C122086  16.464  11.805  10.104 -0.3022  1.1387 -0.9679
  195ETHOX  H1122087  16.429  11.855  10.011 -0.6287 -0.9108 -1.9885
  195ETHOX  H1322088  16.532  11.724  10.069 -0.1897  1.9378 -2.7241
  195ETHOX   C222089  16.338  11.735  10.168  0.2746 -0.0025 -0.1300
  195ETHOX  H2122090  16.253  11.753  10.099  0.0885  1.5325  0.4621
  195ETHOX  H2322091  16.318  11.774  10.270  0.3522  2.0763 -0.8682
  196ETHOX   O122092  16.351  11.591  10.185 -0.1729  0.3356  0.9670
  196ETHOX   C122093  16.232  11.533  10.232  0.1415 -0.5403 -0.1941
  196ETHOX  H1122094  16.191  11.589  10.319  0.4296 -0.2265 -0.2593
  196ETHOX  H1322095  16.162  11.540  10.146  0.2008 -0.2109 -0.2132
  196ETHOX   C222096  16.228  11.385  10.283 -0.2047  0.1043 -0.6470
  196ETHOX  H2122097  16.143  11.371  10.354 -0.6630 -2.9595 -1.6779
  196ETHOX  H2322098  16.327  11.365  10.329 -0.7238 -1.0552  0.0097
  197ETHOX   O122099  16.215  11.297  10.175  0.2174 -0.4960  0.0964
  197ETHOX   C122100  16.203  11.164  10.227  0.7353 -0.1461 -0.2219
  197ETHOX  H1122101  16.281  11.134  10.300 -0.2000 -1.6564  0.1885
  197ETHOX  H1322102  16.114  11.163  10.293  1.4212  1.0290  0.7714
  197ETHOX   C222103  16.195  11.064  10.121 -0.0113  0.4501 -0.1786
  197ETHOX  H2122104  16.107  11.081  10.055  0.8335  1.4831 -1.0769
  197ETHOX  H2322105  16.176  10.965  10.167  1.0278 -1.2896 -3.1673
  198ETHOX   O122106  16.304  11.061  10.019 -0.1856  0.0475  0.5942
  198ETHOX   C122107  16.418  10.998  10.078  0.2620 -0.3222 -0.0832
  198ETHOX  H1122108  16.475  11.059  10.151 -0.5902  0.7421 -0.2852
  198ETHOX  H1322109  16.385  10.902  10.125 -0.6838 -0.5285 -1.1320
  198ETHOX   C222110  16.518  10.960   9.965 -0.0399  0.0385 -0.0356
  198ETHOX  H2122111  16.612  10.916  10.003  0.0591  0.3510  0.0800
  198ETHOX  H2322112  16.545  11.048   9.904  0.4170  0.3852  0.6594
  199ETHOX   O122113  16.458  10.866   9.879  0.5120  0.6158  0.3035
  199ETHOX   C122114  16.537  10.833   9.768  0.1948  0.0176  0.2820
  199ETHOX  H1122115  16.644  10.816   9.793  0.5337  1.3378 -0.1949
  199ETHOX  H1322116  16.533  10.928   9.710 -1.4775 -1.0236 -1.4097
  199ETHOX   C222117  16.491  10.722   9.680  0.0249 -1.0069  0.2296
  199ETHOX  H2122118  16.532  10.730   9.578  0.8945  1.3331  0.6863
  199ETHOX  H2322119  16.380  10.730   9.676  0.1980  2.0161 -1.3883
  200ETHOX   O122120  16.526  10.599   9.732  0.3989 -0.6197 -0.3101
  200ETHOX   C122121  16.463  10.496   9.661 -0.0604  0.0396 -0.3181
  200ETHOX  H1122122  16.354  10.507   9.642 -0.3522 -1.1684  0.5579
  200ETHOX  H1322123  16.511  10.493   9.561 -0.2128  1.1242 -0.4381
  200ETHOX   C222124  16.495  10.372   9.747  0.3212 -0.0475  0.1684
  200ETHOX  H2122125  16.603  10.366   9.772 -0.1643 -1.2219  2.1725
  200ETHOX  H2322126  16.464  10.283   9.689 -1.4539  0.1180  0.8081
  201ETHOX   O122127  16.441  10.368   9.879  0.3063  0.4651  0.2375
  201ETHOX   C122128  16.487  10.251   9.947  0.3045 -0.6106 -0.2059
  201ETHOX  H1122129  16.598  10.251   9.943  0.4791 -1.2216  2.5236
  201ETHOX  H1322130  16.440  10.165   9.895 -2.5823  1.5195 -1.3608
  201ETHOX   C222131  16.435  10.246  10.095  0.0302 -0.3211  0.1957
  201ETHOX  H2122132  16.324  10.240  10.098  0.0391 -0.3905  2.5485
  201ETHOX  H2322133  16.481  10.331  10.150  1.1548 -0.4833 -0.4758
  202ETHOX   O122134  16.500  10.134  10.152 -0.5391  0.1501  0.1224
  202ETHOX   C122135  16.460  10.110  10.289 -0.3278  0.0596 -0.6582
  202ETHOX  H1122136  16.461  10.210  10.337  2.3386 -0.2931  0.1958
  202ETHOX  H1322137  16.358  10.068  10.300 -0.6352  1.0521  0.4549
  202ETHOX   C222138  16.554  10.015  10.369  0.0261  0.4482 -0.0785
  202ETHOX  H2122139  16.569   9.922  10.310  0.8663  0.9838 -0.7223
  202ETHOX  H2322140  16.504   9.983  10.463 -1.2950  0.5971 -0.7087
  203ETHOX   O122141  16.682  10.083  10.381  0.3591 -0.0957  0.0172
  203ETHOX   C122142  16.766  10.018  10.473 -0.7129 -0.0399  0.3446
  203ETHOX  H1122143  16.795   9.919  10.432 -2.1349  0.0829 -1.0433
  203ETHOX  H1322144  16.712   9.998  10.568 -0.9001  0.1984  0.2877
  203ETHOX   C222145  16.904  10.089  10.497 -0.2695  0.3393 -0.1888
  203ETHOX  H2122146  16.894  10.188  10.546 -0.5259 -0.1023  0.6782
  203ETHOX  H2322147  16.933  10.116  10.393 -1.8934 -0.4291 -0.8865
  204ETHOX   O122148  17.012  10.013  10.551 -0.4635  0.0088 -0.4057
  204ETHOX   C122149  17.129  10.098  10.563 -0.1509 -0.0244 -0.4532
  204ETHOX  H1122150  17.106  10.191  10.620 -1.3188 -1.0713  0.8756
  204ETHOX  H1322151  17.201  10.050  10.632  0.4334  0.3876 -0.7744
  204ETHOX   C222152  17.216  10.131  10.443 -0.0423  0.2341  0.4390
  204ETHOX  H2122153  17.235  10.046  10.375 -2.4486  0.2147 -0.2933
  204ETHOX  H2322154  17.308  10.175  10.488  0.5870 -1.8488  1.2844
  205ETHOX   O122155  17.148  10.230  10.368  0.0134 -0.3084 -0.1505
  205ETHOX   C122156  17.208  10.258  10.243 -0.0785  0.2683  0.5932
  205ETHOX  H1122157  17.231  10.162  10.193 -1.8937 -0.8726  1.8233
  205ETHOX  H1322158  17.300  10.320  10.248  1.2056 -1.5132 -0.2228
  205ETHOX   C222159  17.113  10.328  10.143 -0.1770 -0.4004 -0.2350
  205ETHOX  H2122160  17.008  10.294  10.150  0.0008 -0.5644  2.7908
  205ETHOX  H2322161  17.156  10.323  10.041 -2.3935  0.4425 -1.2738
  206ETHOX   O122162  17.115  10.465  10.193  0.3842 -0.2384  0.1784
  206ETHOX   C122163  17.021  10.546  10.125 -0.4241 -0.0137 -0.4426
  206ETHOX  H1122164  17.020  10.519  10.017 -2.1951 -0.9758 -0.2318
  206ETHOX  H1322165  16.921  10.510  10.158 -0.0198 -0.6991  0.0756
  206ETHOX   C222166  17.042  10.694  10.151  0.1509  0.2528  0.2445
  206ETHOX  H2122167  16.956  10.751  10.109 -0.3128 -0.2841  0.4503
  206ETHOX  H2322168  17.056  10.709  10.260  2.1881  1.8512 -0.1778
  207ETHOX   O122169  17.165  10.749  10.095 -0.3788 -0.0533 -0.5646
  207ETHOX   C122170  17.190  10.880  10.146 -0.0141  0.2049 -0.0798
  207ETHOX  H1122171  17.241  10.871  10.244 -3.4364  1.3016  1.9905
  207ETHOX  H1322172  17.097  10.937  10.169  0.1017  0.8577 -1.1854
  207ETHOX   C222173  17.268  10.956  10.043 -0.5416  0.7086 -0.3248
  207ETHOX  H2122174  17.207  10.964   9.950 -1.7676 -0.0710  0.3785
  207ETHOX  H2322175  17.357  10.898  10.010  0.0525  1.5124 -0.1454
  208ETHOX   O122176  17.312  11.081  10.100 -0.1548  0.5794  0.3633
  208ETHOX   C122177  17.406  11.140  10.014  0.4950 -0.2534 -0.1264
  208ETHOX  H1122178  17.464  11.069   9.952 -0.8854  0.1998 -2.0053
  208ETHOX  H1322179  17.353  11.210   9.946  1.0975 -0.3356 -0.6875
  208ETHOX   C222180  17.487  11.235  10.103 -0.2359  0.1493  0.6317
  208ETHOX  H2122181  17.443  11.307  10.175  1.3486  2.3269 -0.4705
  208ETHOX  H2322182  17.544  11.299  10.032 -0.8125  0.2049  0.2078
  209ETHOX   O122183  17.588  11.158  10.175  0.3641  0.3678 -0.1757
  209ETHOX   C122184  17.676  11.248  10.243  0.3556  0.0151  0.4613
  209ETHOX  H1122185  17.622  11.306  10.321 -0.1271 -0.9584  0.8627
  209ETHOX  H1322186  17.729  11.320  10.177  0.9799 -0.6202  0.2642
  209ETHOX   C222187  17.788  11.169  10.308 -1.2492  0.4480 -0.3991
  209ETHOX  H2122188  17.862  11.245  10.342 -1.0175 -0.4215  1.0790
  209ETHOX  H2322189  17.842  11.102  10.237 -0.1821  0.6400  0.2179
  210ETHOX   O122190  17.743  11.100  10.419 -0.2066 -0.5473 -0.4012
  210ETHOX   C122191  17.850  11.023  10.484 -0.5930 -0.2781  0.1978
  210ETHOX  H1122192  17.892  10.947  10.413 -0.3825  0.6471 -0.6906
  210ETHOX  H1322193  17.926  11.094  10.523  0.1653 -0.7359 -0.3887
  210ETHOX   C222194  17.812  10.931  10.603  0.8021  0.0263  0.4799
  210ETHOX  H2122195  17.908  10.899  10.649  2.3323  1.4350 -1.4811
  210ETHOX  H2322196  17.752  10.844  10.570  1.6245  0.9887 -4.3259
  211ETHOX   O122197  17.734  11.006  10.698  0.8618 -0.5001  0.4431
  211ETHOX   C122198  17.713  10.946  10.826 -0.3295  0.7929  0.6301
  211ETHOX  H1122199  17.677  10.844  10.803 -1.5188  1.3466 -0.0565
  211ETHOX  H1322200  17.807  10.945  10.885  0.6483 -2.2306 -0.7970
  211ETHOX   C222201  17.600  11.018  10.907 -0.1092 -0.1261 -0.2739
  211ETHOX  H2122202  17.581  10.947  10.990  1.3622 -0.2271  0.0148
  211ETHOX  H2322203  17.511  11.033  10.842  0.9564 -1.5478 -2.1908
  212ETHOX   O122204  17.658  11.133  10.968  0.4918  0.6871 -0.2576
  212ETHOX   C122205  17.565  11.241  10.988 -0.0836  1.0584  0.1763
  212ETHOX  H1122206  17.523  11.268  10.889  2.1254 -0.9122 -1.4193
  212ETHOX  H1322207  17.478  11.207  11.049  0.0693  0.0885 -0.1294
  212ETHOX   C222208  17.628  11.364  11.048  0.2846  0.1577  0.0479
  212ETHOX  H2122209  17.696  11.353  11.135 -0.6219  0.8886  0.8737
  212ETHOX  H2322210  17.546  11.434  11.074  0.0561 -0.5343  1.2957
  213ETHOX   O122211  17.699  11.420  10.938 -0.0343 -0.2061 -0.1168
  213ETHOX   C122212  17.816  11.486  10.988  0.7449  0.0936  0.6212
  213ETHOX  H1122213  17.779  11.548  11.072  0.1108 -1.3522  1.4479
  213ETHOX  H1322214  17.897  11.420  11.026  1.5915  0.7930  0.0989
  213ETHOX   C222215  17.874  11.592  10.887 -0.2707  0.3844  0.3647
  213ETHOX  H2122216  17.814  11.683  10.909  0.3858  0.8784  0.1376
  213ETHOX  H2322217  17.858  11.556  10.783  0.4661 -1.9519  0.9984
  214ETHOX   O122218  18.015  11.609  10.899  0.5578 -0.3610 -0.5374
  214ETHOX   C122219  18.056  11.673  10.778 -0.3568 -0.2384  0.1882
  214ETHOX  H1122220  17.987  11.756  10.753 -1.4932 -2.0741 -3.3694
  214ETHOX  H1322221  18.047  11.604  10.691 -1.0143 -0.5568  0.5021
  214ETHOX   C222222  18.199  11.734  10.801  0.6021  0.2018  0.6016
  214ETHOX  H2122223  18.182  11.799  10.889 -0.2922  0.7356  0.0483
  214ETHOX  H2322224  18.220  11.804  10.718 -0.3143  2.1539  1.9477
  215ETHOX   O122225  18.306  11.638  10.817 -0.2418 -0.4257 -0.1697
  215ETHOX   C122226  18.421  11.702  10.860  0.0210  0.2245  0.3353
  215ETHOX  H1122227  18.399  11.761  10.952 -1.4997  0.3197 -0.0622
  215ETHOX  H1322228  18.489  11.621  10.895  1.3493  1.1803  0.0541
  215ETHOX   C222229  18.508  11.768  10.755  0.2895 -0.9130 -0.3992
  215ETHOX  H2122230  18.490  11.710  10.661 -1.1933 -0.4692 -0.4152
  215ETHOX  H2322231  18.615  11.767  10.783 -0.3294 -0.4638  2.2035
  216ETHOX   O122232  18.458  11.897  10.739  0.3035 -0.1045  1.0242
  216ETHOX   C122233  18.511  11.976  10.639 -0.5565  0.0764  0.1821
  216ETHOX  H1122234  18.514  11.919  10.544 -0.6414 -1.0166  0.8157
  216ETHOX  H1322235  18.618  11.994  10.661  0.5255 -2.5495 -2.3015
  216ETHOX   C222236  18.430  12.105  10.628 -0.0898  0.0162 -0.1495
  216ETHOX  H2122237  18.326  12.083  10.595  0.0452 -0.9664  0.0492
  216ETHOX  H2322238  18.478  12.184  10.567 -1.0633  0.7102 -0.0471
  217ETHOX   O122239  18.425  12.175  10.755  1.0497 -0.0797  0.0564
  217ETHOX   C122240  18.336  12.288  10.752 -0.4759 -0.4836 -0.1169
  217ETHOX  H1122241  18.243  12.257  10.700 -0.2425  0.9239 -1.4458
  217ETHOX  H1322242  18.306  12.302  10.858 -0.0534  3.1550 -0.3610
  217ETHOX   C222243  18.395  12.423  10.703  0.1711  0.3749  0.2885
  217ETHOX  H2122244  18.504  12.435  10.720  0.1568  2.0537 -0.6391
  217ETHOX  H2322245  18.351  12.514  10.748  0.6429  0.5982  0.2986
  218ETHOX   O122246  18.383  12.417  10.565  0.1926 -0.1825 -0.1025
  218ETHOX   C122247  18.439  12.524  10.491  0.5815  0.3918  0.0898
  218ETHOX  H1122248  18.537  12.548  10.537 -0.0955  1.1376  1.1708
  218ETHOX  H1322249  18.377  12.616  10.493 -1.5469 -0.9075 -1.7274
  218ETHOX   C222250  18.457  12.486  10.346  0.5246 -0.1988 -0.1555
  218ETHOX  H2122251  18.402  12.565  10.289  0.7270  0.0742  0.0207
  218ETHOX  H2322252  18.409  12.388  10.327  1.1440 -0.9222  1.8318
  219ETHOX   O122253  18.595  12.491  10.300 -0.0133  0.3110  0.2390
  219ETHOX   C122254  18.599  12.491  10.158  0.4424  0.5097 -0.0705
  219ETHOX  H1122255  18.526  12.570  10.133 -0.2194  0.8729  2.6500
  219ETHOX  H1322256  18.702  12.523  10.130  1.6052  0.1090  3.2382
  219ETHOX   C222257  18.571  12.353  10.101 -0.0627  1.2440 -0.1501
  219ETHOX  H2122258  18.515  12.365  10.005 -1.6548 -0.2172  0.5449
  219ETHOX  H2322259  18.509  12.294  10.172  1.3187  2.7438  2.4541
  220ETHOX   O122260  18.691  12.280  10.071 -0.2158 -0.0284  0.3544
  220ETHOX   C122261  18.670  12.176   9.972 -0.0005  0.1315 -0.2346
  220ETHOX  H1122262  18.631  12.217   9.876 -1.0416 -0.0954  0.0693
  220ETHOX  H1322263  18.596  12.102  10.010  0.1941 -0.5056 -1.0907
  220ETHOX   C222264  18.791  12.082   9.961  0.9306  0.5101  0.2097
  220ETHOX  H2122265  18.757  11.990   9.909  1.6488  0.7009 -0.6223
  220ETHOX  H2322266  18.829  12.061  10.063 -1.6457  0.5341  1.2430
  221ETHOX   O122267  18.900  12.154   9.888 -0.2700  0.2157  0.3734
  221ETHOX   C122268  19.031  12.087   9.893  0.1740  0.8529 -0.4001
  221ETHOX  H1122269  19.077  12.107   9.992 -0.4748  0.5755 -0.0417
  221ETHOX  H1322270  19.016  11.977   9.883  0.0368  0.8167  0.1512
  221ETHOX   C222271  19.125  12.139   9.778  0.7305  0.3558  0.4727
  221ETHOX  H2122272  19.073  12.130   9.681 -2.2086 -1.4012  2.0569
  221ETHOX  H2322273  19.220  12.081   9.782  0.0023 -0.8374  0.6445
  222ETHOX   O122274  19.153  12.267   9.820 -0.0545 -0.1646  0.2275
  222ETHOX   C122275  19.230  12.336   9.717  0.9831 -0.2263 -0.6375
  222ETHOX  H1122276  19.330  12.288   9.708  1.4359  0.2482  1.3095
  222ETHOX  H1322277  19.184  12.322   9.617 -1.3072  1.8096  0.0353
  222ETHOX   C222278  19.246  12.486   9.741  0.2347 -0.0684  0.8383
  222ETHOX  H2122279  19.143  12.522   9.763 -0.2417 -1.2789  0.7115
  222ETHOX  H2322280  19.273  12.523   9.640  2.2356 -3.3295  0.0423
  223ETHOX   O122281  19.327  12.524   9.849 -0.0336 -0.2099  0.2841
  223ETHOX   C122282  19.357  12.662   9.844  0.4557  0.4226 -0.6191
  223ETHOX  H1122283  19.424  12.678   9.757  0.3344  0.3758 -0.7228
  223ETHOX  H1322284  19.267  12.721   9.814 -0.9139 -1.0080  0.4480
  223ETHOX   C222285  19.428  12.726   9.973  0.8150  0.0423  0.4036
  223ETHOX  H2122286  19.361  12.724  10.062  0.6789  1.8931  0.3878
  223ETHOX  H2322287  19.444  12.832   9.943 -0.8644  0.0672 -0.5118
  224ETHOX   O122288  19.548  12.660  10.018  0.1675 -0.3700 -0.0473
  224ETHOX   C122289  19.641  12.747  10.071 -0.1282 -0.8456 -0.0072
  224ETHOX  H1122290  19.669  12.813   9.986 -3.0248 -0.4152 -0.7669
  224ETHOX  H1322291  19.597  12.821  10.141 -0.2082 -0.7413 -0.1643
  224ETHOX   C222292  19.761  12.671  10.131  0.4617  0.6883 -0.4879
  224ETHOX  H2122293  19.856  12.729  10.135  1.2521 -0.5831 -0.2898
  224ETHOX  H2322294  19.766  12.582  10.065 -2.2482 -0.3640  0.5855
  225ETHOX   O122295  19.734  12.621  10.263 -0.3320 -0.0694 -0.4229
  225ETHOX   C122296  19.827  12.526  10.303  0.5075  0.3546 -0.0589
  225ETHOX  H1122297  19.927  12.574  10.299  0.7743 -0.2069 -0.3256
  225ETHOX  H1322298  19.811  12.450  10.223 -1.5601 -0.4280  1.0239
  225ETHOX   C222299  19.805  12.472  10.440  0.0813 -0.0725  0.0563
  225ETHOX  H2122300  19.855  12.373  10.434 -0.3118 -0.2159 -1.2345
  225ETHOX  H2322301  19.698  12.451  10.461  0.2271 -1.6866 -0.6447
  226ETHOX   O122302  19.863  12.551  10.539  0.2769 -0.2016 -0.9257
  226ETHOX   C122303  19.882  12.470  10.652  0.8377  0.1292 -0.5778
  226ETHOX  H1122304  19.923  12.370  10.626 -1.4091 -0.5609 -1.6551
  226ETHOX  H1322305  19.955  12.529  10.713 -1.0180  0.8782  1.0248
  226ETHOX   C222306  19.756  12.447  10.748  0.7862  0.1557 -0.1752
  226ETHOX  H2122307  19.721  12.546  10.784 -1.5626  0.0084 -1.8596
  226ETHOX  H2322308  19.802  12.390  10.832 -1.4899 -2.7791 -0.7877
  227ETHOX   O122309  19.644  12.370  10.689 -0.2963 -0.5819 -0.4773
  227ETHOX   C122310  19.672  12.231  10.683  0.1390  0.5529 -0.0137
  227ETHOX  H1122311  19.690  12.186  10.783  0.0282 -0.0396 -0.2578
  227ETHOX  H1322312  19.766  12.214  10.625 -1.1300 -0.5352 -1.8462
  227ETHOX   C222313  19.558  12.143  10.633  0.2530 -0.2633  0.0477
  227ETHOX  H2122314  19.610  12.046  10.612  0.9104 -0.1836  1.2067
  227ETHOX  H2322315  19.525  12.190  10.539  0.4119  0.3954  0.3190
  228ETHOX   O122316  19.454  12.128  10.733 -0.0302  0.2558  0.0505
  228ETHOX   C122317  19.341  12.071  10.683 -0.0820 -0.3730  0.1296
  228ETHOX  H1122318  19.254  12.137  10.704  0.8798  0.9647  0.0030
  228ETHOX  H1322319  19.340  12.057  10.573  1.5224  1.0739 -0.1081
  228ETHOX   C222320  19.297  11.942  10.758 -0.8623 -0.3127  0.4795
  228ETHOX  H2122321  19.189  11.932  10.733 -0.8669  0.6058  0.1045
  228ETHOX  H2322322  19.302  11.943  10.869 -0.3608 -0.3677  0.4579
  229ETHOX   O122323  19.373  11.827  10.728 -0.3027  0.2682 -0.0159
  229ETHOX   C122324  19.334  11.706  10.792  0.5745  0.0806  0.3920
  229ETHOX  H1122325  19.407  11.632  10.753  1.2249 -0.5048  2.5879
  229ETHOX  H1322326  19.233  11.677  10.757  1.4532 -2.6814 -0.0950
  229ETHOX   C222327  19.337  11.688  10.945  0.4253 -0.0150  1.1612
  229ETHOX  H2122328  19.442  11.712  10.974  1.2498 -1.6817 -0.2739
  229ETHOX  H2322329  19.323  11.579  10.962 -1.2410  0.1082  0.6765
  230ETHOX   O122330  19.240  11.764  11.013 -0.2821  0.2583 -0.4243
  230ETHOX   C122331  19.216  11.717  11.147 -0.0334 -0.2267  1.0169
  230ETHOX  H1122332  19.193  11.608  11.153 -1.7246  0.0908  0.7048
  230ETHOX  H1322333  19.310  11.724  11.206  0.2057 -0.9809  0.7321
  230ETHOX   C222334  19.101  11.783  11.215  0.0738 -0.1605 -0.2753
  230ETHOX  H2122335  19.103  11.894  11.202  1.3272  0.1569  2.0945
  230ETHOX  H2322336  19.096  11.758  11.323 -0.1064 -0.2912 -0.3142
  231ETHOX   O122337  18.984  11.734  11.152  0.3221 -0.3023 -0.9986
  231ETHOX   C122338  18.860  11.755  11.223 -0.7503  0.7001 -0.3758
  231ETHOX  H1122339  18.880  11.841  11.289  2.0029 -0.3074  0.2403
  231ETHOX  H1322340  18.836  11.666  11.285  1.4782  0.5302  0.3144
  231ETHOX   C222341  18.749  11.774  11.123  0.1191 -0.6209 -0.3043
  231ETHOX  H2122342  18.651  11.767  11.175  0.1339  2.6613  0.4048
  231ETHOX  H2322343  18.755  11.696  11.043 -1.6856  0.5799 -1.6889
  232ETHOX   O122344  18.765  11.903  11.068 -0.1265  0.4680  0.3919
  232ETHOX   C122345  18.648  11.968  11.014  0.0181 -0.0833 -0.3072
  232ETHOX  H1122346  18.677  12.031  10.928  2.3265  1.4075  1.4226
  232ETHOX  H1322347  18.571  11.889  10.997  0.0290 -0.8898  2.7661
  232ETHOX   C222348  18.584  12.050  11.122 -0.7163 -0.0475 -0.2518
  232ETHOX  H2122349  18.499  12.104  11.074 -0.4971  1.0889  0.5743
  232ETHOX  H2322350  18.668  12.119  11.142  0.5098 -0.9144 -2.1586
  233ETHOX   O122351  18.542  11.999  11.245 -0.0299 -0.4353  0.0993
  233ETHOX   C122352  18.419  11.925  11.243  0.2535  0.0794  0.0647
  233ETHOX  H1122353  18.383  11.907  11.139 -0.3851  1.1055  0.0907
  233ETHOX  H1322354  18.443  11.826  11.285 -1.9818 -1.5699 -2.1989
  233ETHOX   C222355  18.301  11.998  11.308  0.2180 -0.0191  0.8405
  233ETHOX  H2122356  18.322  12.015  11.416 -1.7886 -0.0833  1.2764
  233ETHOX  H2322357  18.220  11.921  11.308 -0.7863  1.0125  0.5486
  234ETHOX   O122358  18.263  12.108  11.223  0.2221 -0.0351  0.4647
  234ETHOX   C122359  18.192  12.201  11.303  0.3886 -0.7595  0.5016
  234ETHOX  H1122360  18.095  12.153  11.330 -0.8537  0.0207 -2.2060
  234ETHOX  H1322361  18.239  12.233  11.398  2.1528  1.3428 -0.9943
  234ETHOX   C222362  18.172  12.334  11.230  0.4346 -0.0624  0.1882
  234ETHOX  H2122363  18.087  12.392  11.272  0.4410 -0.0341  0.1611
  234ETHOX  H2322364  18.157  12.317  11.121  1.7008 -0.8745  0.1228
  235ETHOX   O122365  18.292  12.414  11.232  0.2515  0.1583  0.0559
  235ETHOX   C122366  18.357  12.412  11.108  0.5442  0.6131 -0.1527
  235ETHOX  H1122367  18.355  12.309  11.068 -0.8387  1.1639 -1.5889
  235ETHOX  H1322368  18.314  12.467  11.022  3.4040 -1.8124 -3.4412
  235ETHOX   C222369  18.502  12.456  11.127  0.3514  0.7871  0.0152
  235ETHOX  H2122370  18.544  12.445  11.025  3.0697  0.3707  1.0947
  235ETHOX  H2322371  18.555  12.391  11.200 -0.6449 -2.0601 -1.6306
  236ETHOX   O122372  18.505  12.589  11.169  0.0758  0.5661 -0.1213
  236ETHOX   C122373  18.641  12.638  11.189 -0.0257 -0.1843  0.4911
  236ETHOX  H1122374  18.704  12.576  11.257  0.1812 -0.7741 -0.2285
  236ETHOX  H1322375  18.629  12.738  11.236  1.8987  0.1369  0.3751
  236ETHOX   C222376  18.731  12.628  11.066 -0.0777  0.2485  0.4264
  236ETHOX  H2122377  18.813  12.703  11.068  0.2838 -0.1593  2.2340
  236ETHOX  H2322378  18.662  12.637  10.979 -2.0055  0.3747  1.9047
  237ETHOX   O122379  18.788  12.499  11.060  0.0366  0.6102 -0.9011
  237ETHOX   C122380  18.877  12.490  10.951 -0.0681  0.0291 -0.2190
  237ETHOX  H1122381  18.818  12.524  10.863  0.4842 -0.1518 -0.6657
  237ETHOX  H1322382  18.957  12.567  10.952  0.0803 -0.0874 -1.6191
  237ETHOX   C222383  18.939  12.352  10.924  0.3250 -0.1507 -0.4203
  237ETHOX  H2122384  18.994  12.348  10.828 -0.5291 -0.7941 -0.8940
  237ETHOX  H2322385  18.859  12.275  10.928  0.9743 -0.7898  0.8210
  238ETHOX   O122386  19.049  12.329  11.019  0.2415 -0.1497  0.0906
  238ETHOX   C122387  19.094  12.194  11.011  0.2162  0.2715 -0.1668
  238ETHOX  H1122388  19.133  12.173  10.909  0.9076  1.9342 -0.2933
  238ETHOX  H1322389  19.012  12.120  11.017 -1.5193  2.2166  2.5676
  238ETHOX   C222390  19.205  12.171  11.105 -1.1683  0.2150 -0.3257
  238ETHOX  H2122391  19.219  12.061  11.116 -1.0953 -0.0962 -3.0233
  238ETHOX  H2322392  19.167  12.210  11.202 -0.3171 -1.2205  0.6306
  239ETHOX   O122393  19.333  12.226  11.070 -0.0462 -0.2995  0.9309
  239ETHOX   C122394  19.433  12.209  11.171 -0.7901  0.5363  0.0295
  239ETHOX  H1122395  19.424  12.290  11.247  1.4831  0.4539  0.4591
  239ETHOX  H1322396  19.433  12.105  11.209 -0.1070 -0.1537 -1.7856
  239ETHOX   C222397  19.572  12.210  11.104  0.0117 -0.1750  0.4526
  239ETHOX  H2122398  19.649  12.171  11.174 -0.9093 -2.1491  0.4319
  239ETHOX  H2322399  19.570  12.150  11.011 -0.0399  1.5399 -0.6987
  240ETHOX   O122400  19.624  12.338  11.049  0.7030  0.0791  0.3184
  240ETHOX   C122401  19.639  12.443  11.148 -0.2085  0.0051 -0.0838
  240ETHOX  H1122402  19.548  12.465  11.208 -0.5998  1.1225 -1.0426
  240ETHOX  H1322403  19.677  12.537  11.103 -0.0505 -0.7234 -1.5395
  240ETHOX   C222404  19.752  12.433  11.253 -0.0871  0.7551 -0.2998
  240ETHOX  H2122405  19.722  12.342  11.311 -2.5075  1.1311 -0.8918
  240ETHOX  H2322406  19.756  12.527  11.312  2.1768 -1.4043  3.4152
  241ETHOX   O122407  19.884  12.421  11.199  0.1041 -0.0279  0.2684
  241ETHOX   C122408  19.978  12.379  11.301 -0.5732  0.3648  0.4398
  241ETHOX  H1122409  20.019  12.469  11.351 -0.4593 -0.4498  1.8833
  241ETHOX  H1322410  19.933  12.319  11.384  1.1372  2.7414  3.2846
  241ETHOX   C222411  20.103  12.300  11.239 -0.6318 -0.4670  0.3477
  241ETHOX  H2122412  20.193  12.309  11.302  1.7839  0.8780 -2.9926
  241ETHOX  H2322413  20.140  12.343  11.143  0.9582  0.9910  1.5722
  242ETHOX   O122414  20.088  12.164  11.212  1.0779 -0.3647 -0.0569
  242ETHOX   C122415  20.210  12.107  11.152  0.1208  0.6910  0.0463
  242ETHOX  H1122416  20.297  12.103  11.222 -1.2519 -1.3490  1.7538
  242ETHOX  H1322417  20.244  12.141  11.052 -0.2087 -1.0851 -0.7139
  242ETHOX   C222418  20.186  11.955  11.128 -0.2228  0.0518 -1.2287
  242ETHOX  H2122419  20.273  11.908  11.076  0.1889 -0.2874 -0.2471
  242ETHOX  H2322420  20.094  11.935  11.069 -0.4679 -1.2706 -0.4296
  243ETHOX   O122421  20.181  11.904  11.262 -0.0821 -0.3273 -0.1460
  243ETHOX   C122422  20.120  11.774  11.256  0.0753 -0.1301 -0.0483
  243ETHOX  H1122423  20.014  11.785  11.225 -0.6735  0.8939  2.6186
  243ETHOX  H1322424  20.183  11.702  11.199  0.2245 -0.4036  0.4540
  243ETHOX   C222425  20.108  11.710  11.389  0.5633  0.4131 -0.0865
  243ETHOX  H2122426  20.201  11.700  11.448 -1.2396  0.1224  2.9128
  243ETHOX  H2322427  20.065  11.609  11.373  1.7251 -0.2145  0.5973
  244ETHOX   O122428  20.029  11.777  11.481  0.5904 -0.1443  0.0836
  244ETHOX   C122429  19.984  11.694  11.585 -0.5043 -0.0647 -0.0731
  244ETHOX  H1122430  20.067  11.647  11.642  0.9229  2.3052 -0.0461
  244ETHOX  H1322431  19.924  11.616  11.534 -0.4199  2.0001 -3.6356
  244ETHOX   C222432  19.900  11.779  11.693  0.6420 -0.0982  0.5364
  244ETHOX  H2122433  19.871  11.708  11.774 -2.3794  1.4561  0.9711
  244ETHOX  H2322434  19.804  11.810  11.647 -0.9781 -2.9929  1.6820
  245ETHOX   O122435  19.973  11.881  11.767  0.3368  0.6597  0.3493
  245ETHOX   C122436  20.091  11.838  11.835 -0.4013 -0.1174  0.0657
  245ETHOX  H1122437  20.065  11.755  11.904 -1.7596  0.0856 -0.1591
  245ETHOX  H1322438  20.164  11.806  11.758  0.0571  0.1022  0.4029
  245ETHOX   C222439  20.136  11.957  11.922 -0.0488  0.3169 -0.4046
  245ETHOX  H2122440  20.173  12.038  11.855 -0.6867  1.8223  0.9875
  245ETHOX  H2322441  20.222  11.909  11.972 -0.6201 -0.1473  0.1537
  246ETHOX   O122442  20.046  11.990  12.034 -0.6380  0.1646  0.2814
  246ETHOX   C122443  19.938  12.069  11.995  0.6019 -0.5918  0.3659
  246ETHOX  H1122444  19.881  12.012  11.918  1.1416  0.0523 -0.5302
  246ETHOX  H1322445  19.982  12.154  11.938  0.6543  0.4663  1.9367
  246ETHOX   C222446  19.852  12.115  12.111  0.9199  0.8433  0.6246
  246ETHOX  H2122447  19.777  12.191  12.080  1.2998  1.4113  1.0638
  246ETHOX  H2322448  19.917  12.160  12.189  1.8271 -0.9401  0.9455
  247ETHOX   O122449  19.775  12.005  12.150  0.3672  0.1746  0.6394
  247ETHOX   C122450  19.704  12.025  12.268  0.2983  0.4227  0.1849
  247ETHOX  H1122451  19.774  11.987  12.345  1.5057  1.4650 -0.3557
  247ETHOX  H1322452  19.693  12.135  12.279  1.0248  0.3377  2.0125
  247ETHOX   C222453  19.573  11.948  12.275 -0.2899  0.8733 -0.1236
  247ETHOX  H2122454  19.521  11.951  12.373 -0.0314 -1.4816  0.1494
  247ETHOX  H2322455  19.501  11.990  12.201 -0.1359  0.0520 -0.7611
  248ETHOX   O122456  19.591  11.810  12.254  0.3771  0.9025  0.7397
  248ETHOX   C122457  19.474  11.738  12.252 -0.1248  0.2832 -0.6054
  248ETHOX  H1122458  19.406  11.782  12.328  0.8180  2.4267 -0.9266
  248ETHOX  H1322459  19.420  11.751  12.156  0.1096  3.6848 -0.4094
  248ETHOX   C222460  19.501  11.588  12.284  0.7286 -0.1694 -0.5104
  248ETHOX  H2122461  19.579  11.549  12.215  0.7236  0.5594 -0.9295
  248ETHOX  H2322462  19.407  11.533  12.262 -0.5410  1.7183 -0.0174
  249ETHOX   O122463  19.542  11.558  12.418  0.7760 -0.3639  0.1857
  249ETHOX   C122464  19.558  11.419  12.440 -0.4604 -0.3065  0.3633
  249ETHOX  H1122465  19.510  11.361  12.358  1.1247 -1.5756  0.2720
  249ETHOX  H1322466  19.666  11.394  12.429 -0.0449  1.7571 -0.7768
  249ETHOX   C222467  19.513  11.359  12.583  0.4388  0.7190  0.3833
  249ETHOX  H2122468  19.555  11.257  12.594 -0.1618  0.5222  0.8948
  249ETHOX  H2322469  19.403  11.351  12.585  0.3912  0.5651 -1.3160
  250ETHOX   O122470  19.553  11.452  12.684  0.1001 -0.3423 -0.2594
  250ETHOX   C122471  19.466  11.448  12.800  0.5122  0.3192  0.2759
  250ETHOX  H1122472  19.489  11.534  12.866 -0.3852 -0.7950  2.1724
  250ETHOX  H1322473  19.363  11.471  12.765  0.5625  0.8624  0.4790
  250ETHOX   C222474  19.481  11.321  12.882 -0.6053 -0.1693 -0.5699
  250ETHOX  H2122475  19.459  11.341  12.990  1.4590  1.0930 -0.3284
  250ETHOX  H2322476  19.586  11.286  12.893  0.1700  1.6144 -1.7914
  251ETHOX   O122477  19.404  11.213  12.846 -0.4182  0.2002  0.3863
  251ETHOX   C122478  19.422  11.105  12.934 -0.8065  0.3517 -0.3295
  251ETHOX  H1122479  19.412  11.136  13.040  1.1377 -0.8645  0.2517
  251ETHOX  H1322480  19.520  11.057  12.913 -0.7808  1.0212 -1.9015
  251ETHOX   C222481  19.319  10.998  12.901 -0.1819  0.1901 -0.2839
  251ETHOX  H2122482  19.348  10.903  12.951  1.0292  1.0890  0.7827
  251ETHOX  H2322483  19.310  10.972  12.793  0.0931  0.5716 -0.4017
  252ETHOX   O122484  19.187  11.041  12.935  0.2150 -0.8176  0.1967
  252ETHOX   C122485  19.085  10.938  12.913 -0.4744 -0.3061  0.0342
  252ETHOX  H1122486  19.094  10.895  12.811 -1.8635  0.1763 -0.3129
  252ETHOX  H1322487  19.089  10.858  12.990  0.3982 -1.8757 -1.5573
  252ETHOX   C222488  18.949  11.004  12.916  0.0127 -0.0258 -0.4975
  252ETHOX  H2122489  18.951  11.083  12.995  1.3677  0.7454 -1.2545
  252ETHOX  H2322490  18.884  10.923  12.954 -1.4014  0.8538 -0.9704
  253ETHOX   O122491  18.895  11.058  12.796 -0.7889  0.5467 -0.2677
  253ETHOX   C122492  18.783  11.145  12.817 -0.3692 -0.2635 -0.1927
  253ETHOX  H1122493  18.812  11.212  12.900  0.7202  0.0604 -0.8222
  253ETHOX  H1322494  18.697  11.085  12.855  0.6747 -2.1418 -0.6513
  253ETHOX   C222495  18.756  11.210  12.683  0.1180 -0.1911  0.1917
  253ETHOX  H2122496  18.852  11.244  12.639  0.2561 -1.1080 -0.2090
  253ETHOX  H2322497  18.703  11.307  12.700  0.0594 -0.0423 -0.8072
  254ETHOX   O122498  18.680  11.111  12.611  0.7020 -0.0391  0.0532
  254ETHOX   C122499  18.647  11.150  12.477 -0.4856  0.0858 -0.4258
  254ETHOX  H1122500  18.536  11.160  12.479 -0.5254 -0.3727  0.6467
  254ETHOX  H1322501  18.699  11.242  12.443 -0.9135  1.7048  2.8454
  254ETHOX   C222502  18.675  11.029  12.382  0.2665 -0.3307  0.3056
  254ETHOX  H2122503  18.602  11.040  12.299 -0.8991  1.2481  1.4684
  254ETHOX  H2322504  18.648  10.936  12.436  1.0495 -1.2263 -0.8128
  255ETHOX   O122505  18.809  11.022  12.338 -0.1391 -0.1486 -0.8651
  255ETHOX   C122506  18.841  10.909  12.260 -0.1049  0.1062  0.7123
  255ETHOX  H1122507  18.760  10.868  12.197 -0.1628 -2.0981  2.1279
  255ETHOX  H1322508  18.883  10.828  12.323 -0.8757 -0.6488  0.2761
  255ETHOX   C222509  18.962  10.950  12.174 -0.4107  0.0365  0.4318
  255ETHOX  H2122510  18.991  10.858  12.119 -4.5372 -1.5541  0.5001
  255ETHOX  H2322511  19.046  10.986  12.237 -0.3214 -2.0661  1.6386
  256ETHOX   O122512  18.942  11.048  12.070  0.2172  0.2621 -0.1029
  256ETHOX   C122513  19.066  11.067  11.999  0.1150  0.3022  0.5225
  256ETHOX  H1122514  19.147  11.086  12.073 -0.1300 -0.4067  0.9791
  256ETHOX  H1322515  19.092  10.982  11.932 -1.4163 -0.1637  0.4877
  256ETHOX   C222516  19.058  11.195  11.915 -0.4955 -0.1399  0.1993
  256ETHOX  H2122517  19.160  11.228  11.886  0.0453 -1.9104 -0.0887
  256ETHOX  H2322518  19.008  11.270  11.979 -1.6702 -0.5086 -0.2671
  257ETHOX   O122519  18.985  11.165  11.795 -0.0491 -0.2852 -0.4427
  257ETHOX   C122520  18.963  11.279  11.709  0.0237  0.4307  0.4957
  257ETHOX  H1122521  19.006  11.264  11.607 -0.0182  0.9560  0.3980
  257ETHOX  H1322522  19.020  11.361  11.758  0.2159  0.4240  0.2852
  257ETHOX   C222523  18.818  11.302  11.690 -0.5453  0.3111 -0.3320
  257ETHOX  H2122524  18.801  11.402  11.643  0.3128  0.5158 -0.2378
  257ETHOX  H2322525  18.759  11.311  11.783  0.3830  1.0986  0.2106
  258ETHOX   O122526  18.759  11.200  11.610  0.0551 -0.1798  0.1894
  258ETHOX   C122527  18.631  11.228  11.566  0.2593 -0.0411 -0.3766
  258ETHOX  H1122528  18.557  11.231  11.649 -0.6779  1.6768 -1.2095
  258ETHOX  H1322529  18.624  11.322  11.508 -4.1070  0.2606  0.2884
  258ETHOX   C222530  18.583  11.115  11.467 -0.0690  0.4024 -0.0758
  258ETHOX  H2122531  18.673  11.111  11.403  0.9532  0.0404  1.3298
  258ETHOX  H2322532  18.486  11.140  11.419  0.7882  1.5973 -1.2623
  259ETHOX   O122533  18.559  10.995  11.524 -0.2486  0.3990  0.0397
  259ETHOX   C122534  18.575  10.880  11.443 -0.0077 -0.3721 -0.2735
  259ETHOX  H1122535  18.503  10.896  11.361 -1.2763 -1.2938  0.6198
  259ETHOX  H1322536  18.676  10.872  11.397  0.0390 -0.5862 -0.1391
  259ETHOX   C222537  18.554  10.749  11.517 -1.6468 -0.2624 -0.9827
  259ETHOX  H2122538  18.541  10.660  11.451  0.6015 -1.5105  0.1307
  259ETHOX  H2322539  18.460  10.753  11.576 -1.0022  1.6413  0.0070
  260ETHOX   O122540  18.663  10.701  11.601  0.0209  0.1045 -0.1070
  260ETHOX   C122541  18.681  10.777  11.723  0.6328 -0.2212  0.4350
  260ETHOX  H1122542  18.693  10.886  11.703 -1.6790  0.1833  0.9430
  260ETHOX  H1322543  18.587  10.775  11.782  0.1468  1.8330 -0.1890
  260ETHOX   C222544  18.796  10.737  11.813 -0.7825  0.3087  0.1939
  260ETHOX  H2122545  18.829  10.805  11.893 -0.0407  0.5359 -0.2945
  260ETHOX  H2322546  18.879  10.726  11.740  1.4210 -0.8712  2.6993
  261ETHOX   O122547  18.765  10.609  11.872 -0.2818 -0.1648 -0.1207
  261ETHOX   C122548  18.825  10.496  11.809  0.3560  0.0832 -0.1654
  261ETHOX  H1122549  18.914  10.531  11.753  1.7014  0.7688  2.2361
  261ETHOX  H1322550  18.866  10.437  11.895  2.1016 -1.5652 -1.9977
  261ETHOX   C222551  18.741  10.395  11.717  0.0460 -0.5863 -1.0431
  261ETHOX  H2122552  18.810  10.326  11.663 -0.9469 -2.4559 -0.0483
  261ETHOX  H2322553  18.679  10.456  11.649  0.2247  0.1885 -0.5249
  262ETHOX   O122554  18.650  10.320  11.804  0.1403  0.8207  0.0298
  262ETHOX   C122555  18.583  10.216  11.733 -0.6374  0.3571  0.3967
  262ETHOX  H1122556  18.663  10.151  11.693  0.2847  2.5612 -1.6002
  262ETHOX  H1322557  18.538  10.268  11.646 -1.2530  1.6301  1.4320
  262ETHOX   C222558  18.496  10.131  11.829  0.3402 -0.8265  0.0120
  262ETHOX  H2122559  18.434  10.065  11.765  0.0140 -0.4339 -0.0832
  262ETHOX  H2322560  18.434  10.200  11.891  1.7347  1.4541 -0.9720
  263ETHOX   O122561  18.572  10.049  11.912 -0.5242  0.3035  0.6554
  263ETHOX   C122562  18.501   9.939  11.971 -0.1993 -0.0629 -0.4516
  263ETHOX  H1122563  18.474   9.855  11.903  0.0732 -2.0829  1.8260
  263ETHOX  H1322564  18.411   9.989  12.013 -0.0279  0.1460 -0.3293
  263ETHOX   C222565  18.593   9.885  12.084  0.4609 -0.3152 -0.1625
  263ETHOX  H2122566  18.692   9.865  12.037 -0.1710  0.2559 -1.8044
  263ETHOX  H2322567  18.559   9.799  12.146 -0.8389  0.4889  0.2836
  264ETHOX   O122568  18.620   9.986  12.190  0.2233  0.0992 -0.0311
  264ETHOX   C122569  18.718   9.936  12.269  0.3675 -0.2593  0.2367
  264ETHOX  H1122570  18.812   9.938  12.209 -0.2689  0.2078 -0.7695
  264ETHOX  H1322571  18.711   9.831  12.305  4.2983 -0.6646  0.2258
  264ETHOX   C222572  18.739  10.014  12.402  0.1972  0.1484 -0.1499
  264ETHOX  H2122573  18.720  10.119  12.372  1.2485  0.1644 -0.8124
  264ETHOX  H2322574  18.840   9.987  12.440  0.5024  0.0546 -1.0099
  265ETHOX   O122575  18.653   9.994  12.513  0.1528  0.3933 -0.6393
  265ETHOX   C122576  18.693  10.070  12.630  0.8931  0.8232 -0.3428
  265ETHOX  H1122577  18.799  10.048  12.659  1.3297  2.8450 -0.2452
  265ETHOX  H1322578  18.691  10.177  12.598  1.2641  0.5606 -1.2812
  265ETHOX   C222579  18.613  10.073  12.763  0.3835 -0.0241  0.0123
  265ETHOX  H2122580  18.513  10.112  12.735  1.6535  1.1068 -3.4435
  265ETHOX  H2322581  18.653  10.145  12.838  0.6447  1.1673 -1.2314
  265ETHOX   OZ22582  18.612   9.947  12.830  0.3333  0.1889  0.1186
  265ETHOX  HZ122583  18.580   9.959  12.920 -2.6364 -1.1553 -0.6370
    1ETHOX   O122584  13.037  16.451  17.820 -0.1933 -0.5720 -0.3348
    1ETHOX  HO122585  13.112  16.473  17.876 -1.5034 -0.6951  1.5706
    1ETHOX   C122586  12.975  16.336  17.873 -0.3689 -0.0021 -0.6082
    1ETHOX  H1122587  12.865  16.351  17.879 -0.2229  0.4758  2.5707
    1ETHOX  H1322588  13.011  16.314  17.976 -0.5441 -0.6182 -0.6782
    1ETHOX   C222589  13.002  16.215  17.776  0.3595  0.0470 -0.8136
    1ETHOX  H2122590  12.969  16.125  17.832 -2.5994  2.2574  1.3003
    1ETHOX  H2322591  13.112  16.202  17.769  0.6015  1.5311 -0.1561
    2ETHOX   O122592  12.927  16.205  17.651  0.3756 -0.6418 -0.4628
    2ETHOX   C122593  12.893  16.069  17.612  0.5554 -0.4409  1.1092
    2ETHOX  H1122594  12.979  16.001  17.633  0.5319 -0.7048  0.3784
    2ETHOX  H1322595  12.803  16.033  17.666 -2.8643  3.6044 -1.2054
    2ETHOX   C222596  12.869  16.080  17.462  0.2717  0.3126 -0.0504
    2ETHOX  H2122597  12.838  15.978  17.431  0.5720  0.3239 -0.3893
    2ETHOX  H2322598  12.955  16.120  17.404 -1.3971  2.1142 -1.4174
    3ETHOX   O122599  12.763  16.172  17.435  0.0567  0.6950  0.2684
    3ETHOX   C122600  12.729  16.167  17.297 -0.0196 -0.2562 -0.2349
    3ETHOX  H1122601  12.723  16.061  17.265  1.3202 -0.0954 -1.0976
    3ETHOX  H1322602  12.797  16.220  17.226 -0.8101  0.0103 -0.8113
    3ETHOX   C222603  12.588  16.223  17.267 -0.0522 -0.8963  0.0831
    3ETHOX  H2122604  12.583  16.216  17.156  0.1834  1.4258 -0.1172
    3ETHOX  H2322605  12.564  16.324  17.305  0.7865 -1.2999  1.7594
    4ETHOX   O122606  12.486  16.139  17.322  0.3713  0.0199  0.8642
    4ETHOX   C122607  12.354  16.152  17.262  0.0692  0.2581 -0.3925
    4ETHOX  H1122608  12.320  16.256  17.283  0.2002  0.6461 -1.9631
    4ETHOX  H1322609  12.365  16.150  17.151 -1.1644  0.0579 -0.5287
    4ETHOX   C222610  12.262  16.037  17.301 -0.2395 -0.5077 -0.2896
    4ETHOX  H2122611  12.316  15.944  17.327 -0.4253 -0.2567  1.0480
    4ETHOX  H2322612  12.192  16.022  17.216  0.4058 -1.2982 -0.6950
    5ETHOX   O122613  12.189  16.088  17.418  0.5968  0.1040 -0.1624
    5ETHOX   C122614  12.125  15.989  17.488  0.0102 -0.0596  0.2029
    5ETHOX  H1122615  12.194  15.903  17.501 -1.0564 -0.5141  4.4059
    5ETHOX  H1322616  12.108  16.027  17.591 -1.9512 -0.2097 -0.0255
    5ETHOX   C222617  11.995  15.940  17.417 -0.1505 -0.0880  0.1142
    5ETHOX  H2122618  11.919  16.020  17.407  1.3232  1.1184 -2.1830
    5ETHOX  H2322619  11.954  15.861  17.484  0.1113 -0.8522 -0.6101
    6ETHOX   O122620  12.010  15.881  17.289 -0.1878 -0.4590  0.0855
    6ETHOX   C122621  11.895  15.801  17.264  0.1882  0.6050 -0.2465
    6ETHOX  H1122622  11.900  15.708  17.326 -0.2125 -0.4131 -1.6869
    6ETHOX  H1322623  11.809  15.868  17.283  0.8377  1.4376 -0.1741
    6ETHOX   C222624  11.910  15.757  17.119  0.7651  0.3221 -0.7159
    6ETHOX  H2122625  11.961  15.840  17.066  1.3391 -0.0519 -0.7610
    6ETHOX  H2322626  11.810  15.730  17.081  1.1520 -2.9383  0.2979
    7ETHOX   O122627  12.002  15.650  17.098  0.4323 -0.0261  0.0667
    7ETHOX   C122628  12.014  15.624  16.958  0.0323 -0.1811  0.1768
    7ETHOX  H1122629  11.910  15.616  16.920  0.4763 -0.9376 -0.9311
    7ETHOX  H1322630  12.061  15.711  16.908 -2.3845 -0.0736 -2.1483
    7ETHOX   C222631  12.102  15.499  16.941  0.4893 -0.2315 -0.0235
    7ETHOX  H2122632  12.204  15.525  16.976  0.8938 -0.3258 -1.0808
    7ETHOX  H2322633  12.117  15.467  16.835  1.1911  1.3091 -0.4104
    8ETHOX   O122634  12.032  15.406  17.017  0.2580 -0.2263  0.1604
    8ETHOX   C122635  12.112  15.289  17.045 -0.5229 -0.2511  0.2647
    8ETHOX  H1122636  12.197  15.321  17.110 -0.4805 -1.5541  0.8823
    8ETHOX  H1322637  12.155  15.243  16.954 -0.1070 -1.4356  1.0423
    8ETHOX   C222638  12.036  15.196  17.130 -0.2187  0.3235  0.5469
    8ETHOX  H2122639  11.953  15.232  17.195 -1.0895 -3.0329  1.5278
    8ETHOX  H2322640  12.110  15.144  17.194  1.8164 -0.3260 -2.1762
    9ETHOX   O122641  11.993  15.093  17.037 -0.6160 -0.4558  0.1632
    9ETHOX   C122642  11.883  15.139  16.960  0.4993  0.4972  0.1905
    9ETHOX  H1122643  11.820  15.215  17.012  0.3651  0.6880 -0.2438
    9ETHOX  H1322644  11.907  15.195  16.867 -1.1689  0.0730 -0.5216
    9ETHOX   C222645  11.790  15.025  16.924 -0.4741  0.5946  0.3906
    9ETHOX  H2122646  11.850  14.955  16.862 -1.0588 -0.5809  1.1156
    9ETHOX  H2322647  11.707  15.050  16.854 -1.3199 -2.3780  0.2006
   10ETHOX   O122648  11.744  14.938  17.029  0.1476 -0.3002 -0.4515
   10ETHOX   C122649  11.672  14.830  16.981 -0.1162  0.2318 -0.2792
   10ETHOX  H1122650  11.711  14.787  16.886  0.2150  0.3915 -0.2174
   10ETHOX  H1322651  11.577  14.877  16.947 -0.1102  2.2535  2.2235
   10ETHOX   C222652  11.644  14.712  17.075 -0.1168 -0.2195 -0.0816
   10ETHOX  H2122653  11.566  14.642  17.039 -4.2501  2.9583  1.8504
   10ETHOX  H2322654  11.608  14.767  17.165  2.5973  0.8074  0.4792
   11ETHOX   O122655  11.768  14.649  17.085  0.1812  0.0236  0.6227
   11ETHOX   C122656  11.753  14.527  17.148  0.5172 -0.8082 -0.0153
   11ETHOX  H1122657  11.674  14.541  17.225 -1.2178 -0.4942 -1.7615
   11ETHOX  H1322658  11.712  14.462  17.067  0.1017  0.8845 -1.2038
   11ETHOX   C222659  11.878  14.457  17.205  1.5146 -0.5266 -0.1864
   11ETHOX  H2122660  11.863  14.347  17.216  0.2192 -0.2248  1.3545
   11ETHOX  H2322661  11.957  14.462  17.127  2.6805 -1.4841  0.8721
   12ETHOX   O122662  11.927  14.519  17.321  0.1762  0.5844  0.1744
   12ETHOX   C122663  12.034  14.441  17.376 -0.0095  0.3137 -0.0745
   12ETHOX  H1122664  12.003  14.334  17.382  2.7043 -0.5247  0.4469
   12ETHOX  H1322665  12.049  14.486  17.476  1.3986 -0.0268 -0.1025
   12ETHOX   C222666  12.171  14.447  17.303  0.3037 -0.3474  0.4780
   12ETHOX  H2122667  12.246  14.414  17.378 -0.9686  1.2499  2.5730
   12ETHOX  H2322668  12.195  14.556  17.292  3.1329 -1.0284 -1.3253
   13ETHOX   O122669  12.183  14.382  17.176 -0.0405 -0.1739 -0.0920
   13ETHOX   C122670  12.318  14.370  17.122  0.3247 -0.1959 -0.0830
   13ETHOX  H1122671  12.359  14.471  17.107 -0.5916  0.1151 -0.5741
   13ETHOX  H1322672  12.382  14.323  17.200 -0.6926 -0.7080  0.4641
   13ETHOX   C222673  12.322  14.286  16.992  0.0887  0.1360  0.3160
   13ETHOX  H2122674  12.273  14.186  17.000  0.2926 -0.2843 -2.5362
   13ETHOX  H2322675  12.425  14.271  16.954 -1.1691 -1.9260 -2.6881
   14ETHOX   O122676  12.257  14.367  16.895  0.2964 -0.9082 -0.3508
   14ETHOX   C122677  12.298  14.344  16.759 -0.1589 -0.3607 -0.3166
   14ETHOX  H1122678  12.407  14.366  16.751 -0.5027  1.4816 -0.4486
   14ETHOX  H1322679  12.244  14.408  16.687 -1.5338 -0.6587  0.4072
   14ETHOX   C222680  12.257  14.205  16.718  0.0596 -0.4543  0.1785
   14ETHOX  H2122681  12.277  14.132  16.800 -1.3503 -2.5318 -1.2408
   14ETHOX  H2322682  12.326  14.183  16.634  0.0757  0.9805 -0.2089
   15ETHOX   O122683  12.122  14.194  16.679 -0.4150 -0.7763 -0.0126
   15ETHOX   C122684  12.090  14.057  16.645 -0.6153 -0.2137 -0.1017
   15ETHOX  H1122685  12.177  14.003  16.604 -0.6361  0.2811 -0.8143
   15ETHOX  H1322686  12.060  14.008  16.741  0.7640  0.4719  0.7045
   15ETHOX   C222687  11.970  14.043  16.559 -0.5758  0.7189 -0.5642
   15ETHOX  H2122688  11.933  13.938  16.557 -0.0765  0.4651  1.4284
   15ETHOX  H2322689  11.892  14.106  16.607 -1.0254  1.6203 -2.3656
   16ETHOX   O122690  11.999  14.088  16.424  0.0419  0.0483  0.3082
   16ETHOX   C122691  11.879  14.095  16.355 -0.1557  0.2634 -0.5923
   16ETHOX  H1122692  11.842  13.994  16.327 -0.0120  0.7336 -2.6377
   16ETHOX  H1322693  11.797  14.139  16.416 -0.0118  0.3947 -0.4924
   16ETHOX   C222694  11.892  14.170  16.224  0.4310  0.2011 -0.2482
   16ETHOX  H2122695  11.800  14.175  16.160  1.1350  2.3306 -1.2150
   16ETHOX  H2322696  11.964  14.119  16.157  0.0375  1.8914 -2.0975
   17ETHOX   O122697  11.934  14.306  16.232  0.1762  0.0190  0.1971
   17ETHOX   C122698  11.899  14.378  16.115 -0.1106  0.3527  0.3016
   17ETHOX  H1122699  11.905  14.326  16.017 -2.4510  2.0063 -0.8185
   17ETHOX  H1322700  11.793  14.410  16.126  0.2063  1.1569  1.1378
   17ETHOX   C222701  11.967  14.512  16.107 -0.3368  0.5086 -0.2164
   17ETHOX  H2122702  11.967  14.571  16.200  2.0187 -0.3832  0.4341
   17ETHOX  H2322703  11.916  14.568  16.025 -1.1290 -1.3115 -1.0349
   18ETHOX   O122704  12.104  14.500  16.068  0.6291  0.0640  0.3436
   18ETHOX   C122705  12.161  14.625  16.031 -0.0321 -0.4520 -0.3089
   18ETHOX  H1122706  12.114  14.707  16.091 -3.4717 -1.9376 -0.7692
   18ETHOX  H1322707  12.271  14.624  16.042 -0.0545 -1.3197 -0.0635
   18ETHOX   C222708  12.135  14.643  15.885  0.0397  0.6893 -0.8850
   18ETHOX  H2122709  12.157  14.747  15.852  0.6614 -0.0406 -2.9655
   18ETHOX  H2322710  12.028  14.625  15.862  0.5486 -1.8934 -1.5269
   19ETHOX   O122711  12.216  14.553  15.808  0.4823  0.3945 -0.2098
   19ETHOX   C122712  12.194  14.563  15.667  0.6142  0.7620 -0.3402
   19ETHOX  H1122713  12.138  14.657  15.647 -2.6709 -0.8175  0.7952
   19ETHOX  H1322714  12.116  14.490  15.638  0.0622  1.0995  0.2625
   19ETHOX   C222715  12.315  14.543  15.569 -0.5882 -0.3749 -0.1743
   19ETHOX  H2122716  12.278  14.560  15.466 -1.3311 -0.9697 -0.0161
   19ETHOX  H2322717  12.354  14.442  15.593 -0.4472 -0.1744  0.4734
   20ETHOX   O122718  12.401  14.652  15.603  0.1773  0.2174  1.1727
   20ETHOX   C122719  12.517  14.644  15.528  0.0387  0.5393  0.4510
   20ETHOX  H1122720  12.578  14.557  15.559 -1.4039 -0.7596 -0.2340
   20ETHOX  H1322721  12.481  14.643  15.423 -2.0958  1.8583  1.1021
   20ETHOX   C222722  12.612  14.766  15.564 -0.1351 -0.2078  0.1621
   20ETHOX  H2122723  12.706  14.752  15.507 -0.6739  0.6324 -0.9734
   20ETHOX  H2322724  12.646  14.769  15.670  0.4232 -0.3071 -0.0104
   21ETHOX   O122725  12.554  14.891  15.522  0.3828 -0.0214  0.4112
   21ETHOX   C122726  12.613  15.000  15.590 -0.3228 -0.6019 -0.1887
   21ETHOX  H1122727  12.720  15.015  15.562 -0.3708  0.5060  0.1482
   21ETHOX  H1322728  12.584  14.996  15.697 -0.0334  2.3431  0.0898
   21ETHOX   C222729  12.547  15.133  15.562 -0.0242  0.1734  0.4388
   21ETHOX  H2122730  12.552  15.164  15.456  2.7883 -0.1907  0.3988
   21ETHOX  H2322731  12.610  15.202  15.623  1.3275 -0.2240 -0.4680
   22ETHOX   O122732  12.408  15.136  15.588 -0.2943  0.4736  0.5318
   22ETHOX   C122733  12.367  15.249  15.669 -0.0090 -0.2852  0.7203
   22ETHOX  H1122734  12.426  15.234  15.762 -1.2770  0.6445  1.7108
   22ETHOX  H1322735  12.386  15.348  15.622 -2.3715  0.4553  1.2132
   22ETHOX   C222736  12.221  15.245  15.707  0.0601 -0.2170 -0.9329
   22ETHOX  H2122737  12.198  15.144  15.745 -0.3585  0.0038 -0.5906
   22ETHOX  H2322738  12.207  15.319  15.789  0.3578 -0.5229 -0.6036
   23ETHOX   O122739  12.147  15.281  15.592 -0.0290  0.2377 -0.2591
   23ETHOX   C122740  12.006  15.281  15.601  0.7196 -0.9376 -0.1480
   23ETHOX  H1122741  11.972  15.203  15.672  0.5245  0.2861  1.1505
   23ETHOX  H1322742  11.956  15.260  15.504  1.7985  3.2402 -1.7987
   23ETHOX   C222743  11.947  15.411  15.676 -0.2176  1.2419  0.3908
   23ETHOX  H2122744  11.837  15.412  15.660  0.0301  3.0823 -1.6846
   23ETHOX  H2322745  11.995  15.498  15.627 -1.6975  2.1003  0.4057
   24ETHOX   O122746  11.976  15.411  15.815  0.1733  0.0628 -0.1721
   24ETHOX   C122747  11.947  15.531  15.875 -0.3499 -0.8505 -0.1611
   24ETHOX  H1122748  11.947  15.620  15.808 -3.5214  0.2367  1.1145
   24ETHOX  H1322749  11.847  15.519  15.921  0.3705 -0.5175  1.5893
   24ETHOX   C222750  12.039  15.573  15.996 -0.2842  0.0420 -0.2253
   24ETHOX  H2122751  12.009  15.670  16.042 -0.0493 -0.9582  2.1562
   24ETHOX  H2322752  12.143  15.573  15.959 -0.0958  0.3107  0.3071
   25ETHOX   O122753  12.030  15.475  16.101 -0.2210 -0.1841 -0.3640
   25ETHOX   C122754  12.082  15.534  16.221  0.0085  0.1145 -0.2959
   25ETHOX  H1122755  12.004  15.603  16.259  2.0504  3.7478 -2.1959
   25ETHOX  H1322756  12.166  15.600  16.189 -0.5346  1.3333  0.7243
   25ETHOX   C222757  12.114  15.428  16.326  0.6674  0.5894  0.5134
   25ETHOX  H2122758  12.143  15.473  16.424  1.9734  1.5849 -0.3011
   25ETHOX  H2322759  12.202  15.372  16.289  1.6347  2.0075  0.5998
   26ETHOX   O122760  12.008  15.340  16.355  0.2274 -0.2229  0.4658
   26ETHOX   C122761  12.047  15.240  16.444  0.2829  0.6159 -0.8657
   26ETHOX  H1122762  12.139  15.190  16.407 -0.0250 -0.4781 -0.1972
   26ETHOX  H1322763  12.065  15.287  16.543 -0.2889 -0.1773 -0.3705
   26ETHOX   C222764  11.942  15.124  16.463 -0.0973  0.0730  0.7874
   26ETHOX  H2122765  11.987  15.034  16.511  1.2971  1.1650  1.5897
   26ETHOX  H2322766  11.913  15.086  16.363  1.7954  0.3210  0.1043
   27ETHOX   O122767  11.828  15.151  16.545 -0.0967  0.6404  0.4610
   27ETHOX   C122768  11.727  15.049  16.527 -0.5483 -0.2692 -1.1067
   27ETHOX  H1122769  11.758  14.979  16.607 -0.6012 -1.8661 -2.4375
   27ETHOX  H1322770  11.713  15.003  16.427 -2.3493  0.2771 -1.1470
   27ETHOX   C222771  11.591  15.116  16.568 -0.2893  0.0619  0.2736
   27ETHOX  H2122772  11.598  15.162  16.669  2.5247  1.4778 -0.4398
   27ETHOX  H2322773  11.507  15.043  16.568  1.2741 -1.8748 -1.2726
   28ETHOX   O122774  11.560  15.223  16.479  0.3328 -0.0571  0.2301
   28ETHOX   C122775  11.527  15.188  16.343 -0.1108 -0.2580 -0.1313
   28ETHOX  H1122776  11.514  15.079  16.326 -0.8875 -0.0064 -1.2864
   28ETHOX  H1322777  11.429  15.239  16.331  0.6552  1.5330  0.8743
   28ETHOX   C222778  11.627  15.247  16.257 -0.0568  0.2962  0.7759
   28ETHOX  H2122779  11.640  15.188  16.164 -0.4046  0.8319  0.3832
   28ETHOX  H2322780  11.727  15.251  16.305  0.6772  0.7065 -0.7597
   29ETHOX   O122781  11.592  15.386  16.236 -0.2529  0.0490  0.4750
   29ETHOX   C122782  11.686  15.446  16.160 -0.4785  0.1532 -0.2672
   29ETHOX  H1122783  11.714  15.381  16.075 -0.7848 -1.4463  0.8200
   29ETHOX  H1322784  11.777  15.444  16.223  0.0990  1.3629 -1.0222
   29ETHOX   C222785  11.643  15.590  16.133  0.2403 -0.3506 -0.2453
   29ETHOX  H2122786  11.539  15.599  16.095 -1.4409 -0.3030  3.8748
   29ETHOX  H2322787  11.711  15.639  16.060  0.6512  1.3353  1.1938
   30ETHOX   O122788  11.653  15.664  16.257  0.5521 -0.2497  0.0775
   30ETHOX   C122789  11.613  15.801  16.247  0.1401  0.0497  0.1480
   30ETHOX  H1122790  11.663  15.845  16.158  0.5634  0.9320  0.8051
   30ETHOX  H1322791  11.504  15.821  16.246  0.5029  2.5254  1.7434
   30ETHOX   C222792  11.667  15.882  16.369  0.7835 -0.3775 -0.3231
   30ETHOX  H2122793  11.767  15.834  16.385  0.3539 -1.2642 -0.2332
   30ETHOX  H2322794  11.608  15.883  16.463  0.4205  2.1653 -0.5276
   31ETHOX   O122795  11.699  16.009  16.317  0.2257  0.0269  0.5112
   31ETHOX   C122796  11.604  16.102  16.363  0.1713 -0.8606  0.5021
   31ETHOX  H1122797  11.502  16.076  16.327  0.7299 -1.7789 -0.4847
   31ETHOX  H1322798  11.606  16.104  16.474 -0.0125  0.1610  0.4899
   31ETHOX   C222799  11.627  16.244  16.310  0.5917  0.0791  0.2586
   31ETHOX  H2122800  11.538  16.305  16.337  1.0533  1.0041 -0.2840
   31ETHOX  H2322801  11.623  16.254  16.200  3.4466  0.5278  0.1448
   32ETHOX   O122802  11.732  16.307  16.372  0.0253 -0.6464  0.7273
   32ETHOX   C122803  11.743  16.440  16.326  0.4279 -0.4037  0.4668
   32ETHOX  H1122804  11.811  16.435  16.238  0.0352  0.5143  0.1020
   32ETHOX  H1322805  11.650  16.484  16.283  1.6218  0.7757 -1.0525
   32ETHOX   C222806  11.808  16.544  16.418 -0.1529  0.1791 -1.2423
   32ETHOX  H2122807  11.824  16.635  16.355  0.1312 -0.2523 -1.8008
   32ETHOX  H2322808  11.899  16.503  16.467 -0.7169  0.2898 -0.0741
   33ETHOX   O122809  11.717  16.571  16.523 -0.0967 -0.3525  0.1421
   33ETHOX   C122810  11.731  16.705  16.570  0.2016  0.4454  0.8136
   33ETHOX  H1122811  11.707  16.776  16.489 -2.1621  1.3646  2.2092
   33ETHOX  H1322812  11.656  16.726  16.650  0.5910  0.6122  1.1375
   33ETHOX   C222813  11.859  16.741  16.643  0.0024  0.2509  0.4382
   33ETHOX  H2122814  11.891  16.847  16.658  1.8312 -0.1895 -0.0726
   33ETHOX  H2322815  11.946  16.702  16.585  0.3475 -1.8457  2.2774
   34ETHOX   O122816  11.880  16.666  16.767 -0.0198  0.4252  0.2483
   34ETHOX   C122817  11.805  16.711  16.880 -0.0206  0.4096 -0.2680
   34ETHOX  H1122818  11.804  16.642  16.966 -0.1267  1.0856  0.2825
   34ETHOX  H1322819  11.698  16.728  16.857 -0.5018  0.2426  1.6996
   34ETHOX   C222820  11.866  16.838  16.936  0.2921 -0.1967 -0.2780
   34ETHOX  H2122821  11.881  16.909  16.852  1.4548  0.3881  0.4072
   34ETHOX  H2322822  11.966  16.821  16.980  1.2818 -1.3403 -2.7995
   35ETHOX   O122823  11.773  16.895  17.026 -0.6152 -0.2609 -0.1326
   35ETHOX   C122824  11.834  17.007  17.097 -0.5971 -0.5746  0.4671
   35ETHOX  H1122825  11.921  16.964  17.153  2.1635  2.4811 -1.1600
   35ETHOX  H1322826  11.883  17.070  17.020 -0.5724  0.4267  1.2774
   35ETHOX   C222827  11.726  17.089  17.163 -0.4646 -0.1435 -0.0682
   35ETHOX  H2122828  11.773  17.174  17.217  1.8261 -0.3711 -1.5513
   35ETHOX  H2322829  11.686  17.012  17.232 -0.2833 -0.8530 -0.7508
   36ETHOX   O122830  11.645  17.148  17.060  0.7752 -0.2690  0.2861
   36ETHOX   C122831  11.528  17.206  17.109  0.2184 -0.4833 -0.1324
   36ETHOX  H1122832  11.556  17.293  17.171  0.7590 -1.7749  1.4764
   36ETHOX  H1322833  11.467  17.129  17.160 -1.3144  0.5694 -0.2931
   36ETHOX   C222834  11.452  17.248  16.984 -0.0074  0.4828 -0.5483
   36ETHOX  H2122835  11.363  17.294  17.032  1.0645  0.9996  0.9950
   36ETHOX  H2322836  11.411  17.156  16.937  1.1417 -0.0286 -0.5870
   37ETHOX   O122837  11.531  17.332  16.896  1.0126 -0.5552  0.5863
   37ETHOX   C122838  11.458  17.373  16.780 -0.2344 -0.2902 -0.6407
   37ETHOX  H1122839  11.423  17.282  16.728  1.9998 -0.8788 -1.2263
   37ETHOX  H1322840  11.374  17.433  16.821  0.3526  0.3195 -0.3001
   37ETHOX   C222841  11.532  17.473  16.683  0.3077  0.7376 -0.4333
   37ETHOX  H2122842  11.578  17.564  16.726 -0.4460  1.0272 -0.2268
   37ETHOX  H2322843  11.452  17.503  16.612 -0.6968 -1.9787 -0.5620
   38ETHOX   O122844  11.635  17.401  16.604  0.2806 -0.0772 -0.1966
   38ETHOX   C122845  11.746  17.487  16.591  0.0888  0.1612  1.4413
   38ETHOX  H1122846  11.783  17.514  16.692 -0.8284  1.8485  1.3761
   38ETHOX  H1322847  11.719  17.584  16.544  2.7456  0.1942 -0.2004
   38ETHOX   C222848  11.856  17.427  16.501  0.0336  0.5488 -0.2549
   38ETHOX  H2122849  11.928  17.508  16.477  1.3048  0.3292  2.4919
   38ETHOX  H2322850  11.817  17.373  16.411 -0.4595  1.0806 -0.3688
   39ETHOX   O122851  11.937  17.320  16.568 -0.5026 -0.3287 -0.6208
   39ETHOX   C122852  12.075  17.339  16.561  0.1129  0.1710 -0.1727
   39ETHOX  H1122853  12.113  17.235  16.552 -2.6149 -0.8867 -0.1798
   39ETHOX  H1322854  12.114  17.383  16.466  1.0686  1.9548  0.9884
   39ETHOX   C222855  12.130  17.405  16.686 -1.1148 -0.2225  0.0227
   39ETHOX  H2122856  12.091  17.344  16.770  1.2405 -0.6142  0.9202
   39ETHOX  H2322857  12.074  17.501  16.697 -1.9058 -0.7740  1.0131
   40ETHOX   O122858  12.272  17.418  16.677 -0.1951 -0.0829  0.1040
   40ETHOX   C122859  12.332  17.458  16.802  0.1642  0.5772 -0.2084
   40ETHOX  H1122860  12.264  17.526  16.858  0.5822  1.0287 -0.2344
   40ETHOX  H1322861  12.426  17.516  16.786  0.5695  0.3856  1.3740
   40ETHOX   C222862  12.369  17.335  16.899 -0.2398  0.6386  0.2619
   40ETHOX  H2122863  12.403  17.379  16.995 -1.3982 -0.2227  1.0802
   40ETHOX  H2322864  12.457  17.278  16.861  1.8274  2.1082  2.5579
   41ETHOX   O122865  12.256  17.258  16.932  0.0423 -0.1611  0.4959
   41ETHOX   C122866  12.293  17.161  17.029 -0.1203  0.0904  0.0666
   41ETHOX  H1122867  12.402  17.141  17.035 -0.1130  0.5848  2.8759
   41ETHOX  H1322868  12.282  17.208  17.129 -1.4575 -1.8885  0.9063
   41ETHOX   C222869  12.210  17.034  17.028 -0.2067 -0.6376 -0.3648
   41ETHOX  H2122870  12.104  17.066  17.019  0.5872  2.6075  0.5061
   41ETHOX  H2322871  12.222  16.972  17.120  2.1327 -0.4492 -0.4887
   42ETHOX   O122872  12.240  16.946  16.916 -0.3394  0.0582 -0.2630
   42ETHOX   C122873  12.207  17.010  16.792 -0.2398 -0.3607  0.3342
   42ETHOX  H1122874  12.111  17.066  16.797 -0.0361  0.0634 -0.3860
   42ETHOX  H1322875  12.288  17.083  16.772  0.5922 -1.4061 -0.2256
   42ETHOX   C222876  12.207  16.906  16.683 -0.0032 -0.1667  0.2314
   42ETHOX  H2122877  12.138  16.944  16.606 -2.2327  0.3878  2.3801
   42ETHOX  H2322878  12.159  16.811  16.718 -0.3779  0.3632  1.2052
   43ETHOX   O122879  12.334  16.879  16.637 -0.4882 -0.4036 -0.0154
   43ETHOX   C122880  12.341  16.748  16.573  0.7328  0.1285 -0.6670
   43ETHOX  H1122881  12.380  16.675  16.647 -0.6986  0.5751  0.5945
   43ETHOX  H1322882  12.242  16.710  16.539  0.9024  0.4781 -1.5923
   43ETHOX   C222883  12.440  16.751  16.461  0.0451 -0.0361 -0.4074
   43ETHOX  H2122884  12.473  16.645  16.451  0.8340 -0.2126  2.8077
   43ETHOX  H2322885  12.525  16.820  16.481 -1.0167  1.6868 -1.5486
   44ETHOX   O122886  12.370  16.797  16.348  0.5470  0.4252  0.3123
   44ETHOX   C122887  12.431  16.766  16.222  0.7271 -0.7480  0.2330
   44ETHOX  H1122888  12.506  16.840  16.188 -0.6012  0.4206 -0.2967
   44ETHOX  H1322889  12.481  16.667  16.220  2.0987 -0.0632  0.0784
   44ETHOX   C222890  12.334  16.766  16.102 -0.4850 -0.2918 -0.3033
   44ETHOX  H2122891  12.393  16.735  16.014 -0.8259 -3.6522  0.4937
   44ETHOX  H2322892  12.278  16.862  16.100  0.7905  0.5294  1.0891
   45ETHOX   O122893  12.238  16.664  16.110 -0.1617  0.3424 -0.0253
   45ETHOX   C122894  12.178  16.636  15.981  0.3155  0.0536 -0.0711
   45ETHOX  H1122895  12.258  16.604  15.911  0.1026  0.4782 -0.5151
   45ETHOX  H1322896  12.123  16.723  15.940  0.3656  0.9076  1.5880
   45ETHOX   C222897  12.083  16.518  16.014 -0.5294 -0.6260 -0.3296
   45ETHOX  H2122898  11.998  16.555  16.075  1.0220  1.2552  0.8066
   45ETHOX  H2322899  12.137  16.438  16.068  1.7426 -0.3822 -2.1036
   46ETHOX   O122900  12.021  16.460  15.895  0.0737  0.0430 -0.0328
   46ETHOX   C122901  11.908  16.374  15.934 -0.1965  0.1438  0.9784
   46ETHOX  H1122902  11.935  16.306  16.017 -0.2699 -2.4647 -1.0221
   46ETHOX  H1322903  11.830  16.448  15.964  0.1135  1.2756 -0.8421
   46ETHOX   C222904  11.854  16.298  15.814 -0.3120  1.4313  0.5591
   46ETHOX  H2122905  11.773  16.231  15.851 -1.1306  1.0597 -1.7285
   46ETHOX  H2322906  11.941  16.252  15.762 -0.1422  2.1941  0.1508
   47ETHOX   O122907  11.780  16.377  15.720  0.0759  0.1156 -0.2135
   47ETHOX   C122908  11.837  16.384  15.592  0.3647 -0.0506 -0.0698
   47ETHOX  H1122909  11.828  16.283  15.546  0.7675  0.3596 -1.0565
   47ETHOX  H1322910  11.946  16.400  15.606  0.1540  0.5163  1.1187
   47ETHOX   C222911  11.780  16.483  15.491  0.3990 -0.2483 -0.3190
   47ETHOX  H2122912  11.669  16.479  15.496  0.4129 -0.5788 -0.3037
   47ETHOX  H2322913  11.831  16.460  15.395 -1.3710 -1.3904 -1.0414
   48ETHOX   O122914  11.820  16.615  15.530 -0.9098  0.2604 -0.1652
   48ETHOX   C122915  11.791  16.709  15.429 -0.6081  0.2016 -0.1654
   48ETHOX  H1122916  11.865  16.682  15.351  0.0818 -2.7096  1.3374
   48ETHOX  H1322917  11.685  16.701  15.400 -1.0448  1.8524  0.8173
   48ETHOX   C222918  11.802  16.859  15.478  1.0159  0.3519 -0.4085
   48ETHOX  H2122919  11.732  16.886  15.560 -0.1343  1.3604 -1.6742
   48ETHOX  H2322920  11.905  16.855  15.519  1.4926 -3.4060 -1.5286
   49ETHOX   O122921  11.779  16.943  15.359 -0.0164  0.1682 -0.1923
   49ETHOX   C122922  11.836  17.074  15.371  0.2819 -0.2901  0.0419
   49ETHOX  H1122923  11.946  17.063  15.363  0.6826  2.2951  1.0837
   49ETHOX  H1322924  11.799  17.112  15.469 -0.9813  1.3318 -1.0155
   49ETHOX   C222925  11.777  17.157  15.263 -0.1899  0.3301  0.4303
   49ETHOX  H2122926  11.667  17.141  15.256 -0.8743  2.7464  3.2110
   49ETHOX  H2322927  11.812  17.133  15.161 -1.0681 -1.0588  0.4238
   50ETHOX   O122928  11.788  17.294  15.300 -0.1880  0.1344  0.6246
   50ETHOX   C122929  11.798  17.377  15.187 -0.5043 -0.6208 -0.1736
   50ETHOX  H1122930  11.866  17.332  15.112 -1.0097  0.3605 -1.2392
   50ETHOX  H1322931  11.699  17.396  15.142 -1.5085 -1.2583  1.6712
   50ETHOX   C222932  11.846  17.517  15.231 -0.0093 -0.3419  0.3069
   50ETHOX  H2122933  11.806  17.542  15.332  0.4392  2.6052 -0.1637
   50ETHOX  H2322934  11.805  17.600  15.170 -1.3161  1.9473  3.9989
   51ETHOX   O122935  11.986  17.510  15.231 -0.1415 -0.1851 -0.1026
   51ETHOX   C122936  12.036  17.618  15.308 -0.4663  0.5853 -0.4664
   51ETHOX  H1122937  12.005  17.592  15.411 -0.1562 -1.3380 -0.8105
   51ETHOX  H1322938  11.994  17.714  15.271 -1.3124 -0.0749 -1.3105
   51ETHOX   C222939  12.189  17.608  15.302  0.3949 -0.0989  0.3887
   51ETHOX  H2122940  12.221  17.505  15.275  0.0264  0.1877 -1.2503
   51ETHOX  H2322941  12.230  17.636  15.401  0.6948 -2.9501  1.1618
   52ETHOX   O122942  12.245  17.696  15.201  0.3132  0.7976  0.2952
   52ETHOX   C122943  12.383  17.670  15.190  0.7084 -0.0944  0.4780
   52ETHOX  H1122944  12.422  17.654  15.293 -1.4103 -1.5435  1.1409
   52ETHOX  H1322945  12.399  17.572  15.139 -3.5812 -1.1823  0.8292
   52ETHOX   C222946  12.458  17.785  15.118 -0.1203  0.2098  0.2070
   52ETHOX  H2122947  12.441  17.881  15.172 -0.1035  0.1211  0.3709
   52ETHOX  H2322948  12.415  17.795  15.016 -1.9695 -1.9667  0.7105
   53ETHOX   O122949  12.602  17.789  15.119  0.6301 -0.4517 -0.1668
   53ETHOX   C122950  12.671  17.702  15.035  0.0183 -0.1189 -0.2779
   53ETHOX  H1122951  12.630  17.600  15.051  0.6485 -0.5517 -1.3352
   53ETHOX  H1322952  12.648  17.726  14.929  0.2293 -1.1979 -0.5771
   53ETHOX   C222953  12.826  17.702  15.057 -1.0297 -0.0192 -0.0197
   53ETHOX  H2122954  12.871  17.789  15.005  0.2112 -0.7518 -0.2170
   53ETHOX  H2322955  12.874  17.619  15.002  2.5487  1.8499  0.0057
   54ETHOX   O122956  12.863  17.700  15.196  0.3989 -1.0549  0.3230
   54ETHOX   C122957  13.004  17.686  15.214  0.6866  0.4923 -0.1530
   54ETHOX  H1122958  13.045  17.587  15.184  0.8147  0.8605 -1.2280
   54ETHOX  H1322959  13.055  17.771  15.163 -0.1910  1.5591  0.6946
   54ETHOX   C222960  13.036  17.699  15.366  0.1437 -0.5482 -0.1411
   54ETHOX  H2122961  12.983  17.784  15.414  0.2685 -0.8293  0.5050
   54ETHOX  H2322962  13.146  17.711  15.373  0.3091 -0.2096 -2.5419
   55ETHOX   O122963  12.989  17.579  15.432 -0.3643 -0.6656 -0.0807
   55ETHOX   C122964  12.992  17.598  15.573 -0.2559 -0.5077 -0.3265
   55ETHOX  H1122965  13.100  17.595  15.599 -0.4772  0.6483  0.8379
   55ETHOX  H1322966  12.949  17.694  15.607 -2.8104 -1.1332 -1.5349
   55ETHOX   C222967  12.935  17.482  15.654  0.1218 -0.1945  0.2652
   55ETHOX  H2122968  12.944  17.379  15.613 -0.4749 -0.6157  1.1414
   55ETHOX  H2322969  12.995  17.483  15.748  0.9995  0.9259 -0.2808
   56ETHOX   O122970  12.799  17.508  15.685  0.1302  0.1925  0.3265
   56ETHOX   C122971  12.751  17.424  15.794 -0.4960 -0.2547 -0.0144
   56ETHOX  H1122972  12.793  17.462  15.889  1.3507  0.0141 -0.8928
   56ETHOX  H1322973  12.788  17.321  15.772  0.7936  0.5341 -1.7538
   56ETHOX   C222974  12.604  17.406  15.812  0.0442  0.3573  0.2494
   56ETHOX  H2122975  12.572  17.330  15.886  1.3957  0.2379  0.7326
   56ETHOX  H2322976  12.565  17.367  15.715 -0.2840  0.5505  0.3001
   57ETHOX   O122977  12.521  17.522  15.842  0.0367  0.3525  0.1543
   57ETHOX   C122978  12.504  17.537  15.981 -0.1413  0.6589 -0.3363
   57ETHOX  H1122979  12.434  17.462  16.025 -0.6641 -0.4455 -2.8878
   57ETHOX  H1322980  12.603  17.534  16.031  0.1335 -1.2852 -0.9169
   57ETHOX   C222981  12.452  17.676  15.994 -0.6849 -0.0722  0.1772
   57ETHOX  H2122982  12.525  17.746  15.948  0.6897  0.1690  2.5384
   57ETHOX  H2322983  12.459  17.708  16.100 -1.3323 -1.6104  0.7059
   58ETHOX   O122984  12.329  17.688  15.941  0.9984  0.0223  0.2692
   58ETHOX   C122985  12.280  17.825  15.949 -0.0825  0.5895 -0.0873
   58ETHOX  H1122986  12.353  17.903  15.919 -1.0505  1.6190  0.1695
   58ETHOX  H1322987  12.266  17.852  16.055 -2.0595 -1.2744  0.1949
   58ETHOX   C222988  12.144  17.845  15.877  0.0373 -0.0587  0.4595
   58ETHOX  H2122989  12.078  17.756  15.891 -0.0512  0.1682  1.4993
   58ETHOX  H2322990  12.164  17.853  15.768  1.7238 -1.9191  0.5733
   59ETHOX   O122991  12.080  17.966  15.919 -0.1905  0.5853 -0.4399
   59ETHOX   C122992  11.954  17.990  15.855 -0.1636  0.3387  0.3090
   59ETHOX  H1122993  11.977  18.025  15.752 -0.4601  0.6368  0.3431
   59ETHOX  H1322994  11.894  17.896  15.849 -0.6901  0.6112  1.1102
   59ETHOX   C222995  11.859  18.097  15.915  0.1759  0.2083 -0.2338
   59ETHOX  H2122996  11.784  18.127  15.838  1.8660 -0.3379 -2.1659
   59ETHOX  H2322997  11.922  18.188  15.925  0.4259 -0.0671  0.7430
   60ETHOX   O122998  11.789  18.062  16.035  0.1651  0.2117  0.4999
   60ETHOX   C122999  11.683  18.152  16.069 -0.0190 -0.3773 -0.2003
   60ETHOX  H1123000  11.610  18.166  15.986  0.2925  1.5200 -0.2043
   60ETHOX  H1323001  11.727  18.253  16.081 -0.1267 -0.3460 -0.0821
   60ETHOX   C223002  11.599  18.102  16.189 -0.2003  0.1867  0.6724
   60ETHOX  H2123003  11.616  18.186  16.260 -1.3124  0.0124  1.1555
   60ETHOX  H2323004  11.639  18.008  16.232 -0.5997 -0.7965 -1.0308
   61ETHOX   O123005  11.466  18.082  16.164  0.4662 -0.2527 -0.3758
   61ETHOX   C123006  11.395  18.200  16.152  0.0873 -0.4992  0.0159
   61ETHOX  H1123007  11.415  18.275  16.230 -0.5915  0.0981 -0.3719
   61ETHOX  H1323008  11.422  18.241  16.052  0.1663 -2.1147 -0.6680
   61ETHOX   C223009  11.241  18.161  16.135  0.0812  0.7004  0.0520
   61ETHOX  H2123010  11.176  18.249  16.154 -0.5250  0.1953  0.3416
   61ETHOX  H2323011  11.215  18.083  16.209  1.4655 -0.6131 -0.7922
   62ETHOX   O123012  11.212  18.121  16.003  0.1031  0.2614  0.3708
   62ETHOX   C123013  11.078  18.076  15.992 -0.9205 -0.3312  0.4596
   62ETHOX  H1123014  11.029  18.085  16.091 -0.1727  1.4227  0.7004
   62ETHOX  H1323015  11.080  17.968  15.965 -3.1661 -1.0056  2.6512
   62ETHOX   C223016  10.992  18.162  15.895 -0.1989  0.0609  0.4483
   62ETHOX  H2123017  11.007  18.268  15.924  1.0610  0.2532 -0.8480
   62ETHOX  H2323018  10.889  18.129  15.920  0.8202 -2.9799  1.0921
   63ETHOX   O123019  11.010  18.150  15.753  0.4191 -0.1355  0.9221
   63ETHOX   C123020  10.903  18.198  15.676 -0.2679 -0.7348  0.3315
   63ETHOX  H1123021  10.824  18.120  15.679  1.0144 -2.2449 -2.3039
   63ETHOX  H1323022  10.859  18.289  15.723  0.0969  0.3206 -1.2764
   63ETHOX   C223023  10.946  18.230  15.532 -0.4091  0.3215  0.5516
   63ETHOX  H2123024  11.046  18.278  15.536  0.1445 -0.8682  2.6397
   63ETHOX  H2323025  10.883  18.311  15.488 -0.1305  1.2729  1.8566
   64ETHOX   O123026  10.942  18.121  15.445  0.2613  0.1293 -0.8966
   64ETHOX   C123027  10.983  18.163  15.315 -0.4241  0.0613  0.6858
   64ETHOX  H1123028  11.094  18.165  15.310 -0.4479 -0.7679 -0.7088
   64ETHOX  H1323029  10.941  18.258  15.276 -1.6682 -2.1266 -4.0153
   64ETHOX   C223030  10.939  18.063  15.204 -0.3083  0.3415  0.8327
   64ETHOX  H2123031  10.959  18.116  15.108 -0.6579 -1.2414 -0.1399
   64ETHOX  H2323032  10.829  18.050  15.206 -0.5129  1.5141 -0.4583
   65ETHOX   O123033  10.999  17.935  15.198 -0.0660  0.0533  0.1898
   65ETHOX   C123034  10.951  17.864  15.084  0.2874  0.3854 -0.5655
   65ETHOX  H1123035  10.843  17.851  15.105  0.4863  1.5628  1.5160
   65ETHOX  H1323036  10.979  17.917  14.991  2.3385  2.4830  1.1198
   65ETHOX   C223037  11.011  17.717  15.084 -0.2415 -0.2483  0.6981
   65ETHOX  H2123038  10.935  17.660  15.027 -0.4466  2.6511 -2.2253
   65ETHOX  H2323039  11.035  17.677  15.185  2.5931  1.8452  0.9831
   66ETHOX   O123040  11.130  17.711  15.008 -0.2442  0.1859  0.2997
   66ETHOX   C123041  11.146  17.579  14.971 -0.0811  0.1118  1.0952
   66ETHOX  H1123042  11.097  17.567  14.872  0.8897  1.0209  0.4808
   66ETHOX  H1323043  11.095  17.517  15.049 -0.5636  0.7682  1.3144
   66ETHOX   C223044  11.289  17.532  14.958 -0.5625  0.0212 -0.0307
   66ETHOX  H2123045  11.281  17.423  14.941  1.2155 -0.5231  2.1780
   66ETHOX  H2323046  11.349  17.552  15.050 -1.3251  1.3784  0.2086
   67ETHOX   O123047  11.365  17.596  14.853 -0.1618  0.0672 -0.0962
   67ETHOX   C123048  11.391  17.511  14.748 -0.0318 -0.6422  0.0086
   67ETHOX  H1123049  11.300  17.464  14.706  0.1145  1.3996 -2.9026
   67ETHOX  H1323050  11.419  17.582  14.668 -0.5134 -0.6350 -0.1583
   67ETHOX   C223051  11.506  17.420  14.760  0.3642  0.0428 -0.2457
   67ETHOX  H2123052  11.504  17.359  14.667 -2.5029  1.7603 -1.4726
   67ETHOX  H2323053  11.499  17.352  14.847  0.5395 -1.2020 -1.1744
   68ETHOX   O123054  11.634  17.488  14.756  1.0282 -0.4468  0.3466
   68ETHOX   C123055  11.734  17.395  14.777 -0.8651  0.5207  0.3403
   68ETHOX  H1123056  11.722  17.358  14.881 -1.0292 -4.5290 -1.2224
   68ETHOX  H1323057  11.723  17.310  14.707  1.8691  1.2362 -1.0865
   68ETHOX   C223058  11.869  17.465  14.745 -0.5695  0.0183  0.4247
   68ETHOX  H2123059  11.942  17.383  14.729  0.3623  0.6320  1.3736
   68ETHOX  H2323060  11.907  17.524  14.831  2.6746  0.4606 -1.1674
   69ETHOX   O123061  11.864  17.543  14.622 -0.0562 -0.2449 -0.2542
   69ETHOX   C123062  11.995  17.583  14.586 -0.2270  0.6642 -0.0789
   69ETHOX  H1123063  12.034  17.624  14.682  1.1309 -0.3327 -0.1790
   69ETHOX  H1323064  12.055  17.493  14.562  0.2168  1.0070 -0.2521
   69ETHOX   C223065  12.008  17.689  14.475  0.2048  0.4704 -0.6490
   69ETHOX  H2123066  11.957  17.650  14.384  1.2716 -0.6006 -0.8141
   69ETHOX  H2323067  12.112  17.711  14.443 -0.9150  6.2880 -1.3257
   70ETHOX   O123068  11.955  17.819  14.511 -0.1314  0.1067  0.3263
   70ETHOX   C123069  11.957  17.905  14.399 -0.1088  0.1530 -0.4044
   70ETHOX  H1123070  12.061  17.906  14.359  0.9163 -1.5789  2.0040
   70ETHOX  H1323071  11.878  17.870  14.330 -0.9407  2.0299 -0.4591
   70ETHOX   C223072  11.910  18.046  14.448 -0.3748 -0.1962  0.3612
   70ETHOX  H2123073  11.825  18.025  14.516 -2.1467  1.9691 -1.0669
   70ETHOX  H2323074  11.877  18.101  14.358  2.0676  1.0834  0.1688
   71ETHOX   O123075  12.011  18.110  14.519  0.2156 -0.3689 -0.5272
   71ETHOX   C123076  11.956  18.235  14.574 -1.0413  0.6508  0.5099
   71ETHOX  H1123077  11.898  18.209  14.666 -2.2282  1.4047 -0.0061
   71ETHOX  H1323078  11.905  18.292  14.494  0.5776  2.7169  0.8659
   71ETHOX   C223079  12.075  18.315  14.621  0.4566 -0.0744  0.4101
   71ETHOX  H2123080  12.141  18.251  14.684  0.6595 -2.5152 -2.0805
   71ETHOX  H2323081  12.028  18.397  14.678  0.5072  0.8789 -0.8687
   72ETHOX   O123082  12.145  18.368  14.511 -0.2731 -0.6760  0.2909
   72ETHOX   C123083  12.085  18.485  14.455 -0.1832 -0.2947 -0.6496
   72ETHOX  H1123084  11.974  18.486  14.453 -0.2218  2.8155 -0.4730
   72ETHOX  H1323085  12.108  18.559  14.534  1.3120 -1.9192  0.5145
   72ETHOX   C223086  12.142  18.537  14.320  0.6166  0.2229  0.8808
   72ETHOX  H2123087  12.249  18.507  14.317  0.1111 -2.0341  2.5879
   72ETHOX  H2323088  12.132  18.646  14.300  2.7929  0.4786  0.9093
   73ETHOX   O123089  12.067  18.461  14.220 -0.4838 -0.4045  0.0235
   73ETHOX   C123090  12.145  18.443  14.104  0.5581  0.3708 -0.0994
   73ETHOX  H1123091  12.230  18.373  14.121 -0.3814 -0.5789  0.8775
   73ETHOX  H1323092  12.197  18.537  14.076  2.1580  0.0824  1.6476
   73ETHOX   C223093  12.060  18.386  13.996 -0.0679  0.5951 -0.4440
   73ETHOX  H2123094  12.115  18.384  13.900 -0.3813 -2.9883 -0.6832
   73ETHOX  H2323095  11.966  18.443  13.977 -0.3924  0.3673  0.4473
   74ETHOX   O123096  12.035  18.248  14.026  0.2446  0.3090 -0.1212
   74ETHOX   C123097  11.937  18.177  13.941 -0.1163 -0.0476  0.0993
   74ETHOX  H1123098  11.841  18.233  13.939 -1.0151 -1.5365 -1.8291
   74ETHOX  H1323099  11.970  18.163  13.835  0.4766 -2.0445  0.4962
   74ETHOX   C223100  11.923  18.038  14.000  0.0105  0.3889  0.6586
   74ETHOX  H2123101  12.019  17.994  14.033 -0.8150 -0.6669  1.7726
   74ETHOX  H2323102  11.887  17.982  13.911  1.0456 -1.9247  1.6112
   75ETHOX   O123103  11.833  18.028  14.107  0.2795  0.0419  0.3673
   75ETHOX   C123104  11.693  17.990  14.079 -0.0233  0.9991  0.0325
   75ETHOX  H1123105  11.647  17.981  14.180  0.6034 -1.0014  0.1798
   75ETHOX  H1323106  11.696  17.885  14.042 -1.5641  0.5260  1.1136
   75ETHOX   C223107  11.616  18.082  13.988 -1.0698 -0.8848 -0.4970
   75ETHOX  H2123108  11.511  18.048  13.973 -1.3222  0.3367 -1.7408
   75ETHOX  H2323109  11.655  18.081  13.884 -2.5335  2.1419 -1.1888
   76ETHOX   O123110  11.619  18.213  14.038  0.3525 -0.2393  0.2457
   76ETHOX   C123111  11.542  18.297  13.952  0.5578 -0.0070  0.3935
   76ETHOX  H1123112  11.582  18.278  13.850 -0.4931 -3.1179  0.4323
   76ETHOX  H1323113  11.439  18.254  13.950  0.4053  0.3274 -1.8757
   76ETHOX   C223114  11.556  18.445  13.989 -0.0004  0.3139 -0.5148
   76ETHOX  H2123115  11.531  18.446  14.097 -0.7105 -2.2652 -0.6019
   76ETHOX  H2323116  11.477  18.503  13.937 -0.5817  1.5034  1.5691
   77ETHOX   O123117  11.685  18.501  13.971 -0.4114 -0.4348 -0.1066
   77ETHOX   C123118  11.681  18.644  13.980 -0.3488  0.3844 -0.3927
   77ETHOX  H1123119  11.632  18.674  14.075  0.7260  1.0526 -0.0408
   77ETHOX  H1323120  11.620  18.682  13.894 -2.5571  0.0828  0.9619
   77ETHOX   C223121  11.819  18.709  13.970 -0.3716 -0.3441  0.3959
   77ETHOX  H2123122  11.887  18.666  14.047  0.4022  0.6534  0.2900
   77ETHOX  H2323123  11.818  18.818  13.989  1.0753  0.1148 -1.7611
   78ETHOX   O123124  11.864  18.690  13.836  0.5827 -0.4190 -0.6803
   78ETHOX   C123125  12.002  18.737  13.824  0.2317 -0.3325 -0.0803
   78ETHOX  H1123126  12.012  18.840  13.865  2.0247  0.4205 -2.1720
   78ETHOX  H1323127  12.073  18.666  13.871 -0.4471 -0.3650  0.9204
   78ETHOX   C223128  12.040  18.735  13.674 -0.1457 -0.3178  0.2569
   78ETHOX  H2123129  12.149  18.756  13.664 -0.0172 -0.8694  0.4972
   78ETHOX  H2323130  11.974  18.816  13.634  0.9457  0.6061  0.2660
   79ETHOX   O123131  12.001  18.611  13.615  0.4943  0.1391 -0.3569
   79ETHOX   C123132  12.080  18.588  13.498  0.5265 -0.1128  0.1536
   79ETHOX  H1123133  12.034  18.636  13.410  0.3076  0.1390  0.4038
   79ETHOX  H1323134  12.185  18.622  13.510  0.5246 -0.2295  0.5395
   79ETHOX   C223135  12.097  18.437  13.469  0.2579  0.0413 -0.1811
   79ETHOX  H2123136  12.149  18.418  13.373 -2.0350  1.6283 -1.8312
   79ETHOX  H2323137  11.994  18.395  13.468  0.8818 -1.5611 -0.4343
   80ETHOX   O123138  12.166  18.378  13.580  0.2394 -0.2568 -0.4358
   80ETHOX   C123139  12.217  18.249  13.542 -0.3531  0.0485 -0.5942
   80ETHOX  H1123140  12.132  18.196  13.495 -1.2395  1.3306 -0.4818
   80ETHOX  H1323141  12.297  18.260  13.466  0.3270  3.9707  0.4845
   80ETHOX   C223142  12.241  18.166  13.666  0.0304  0.5309 -0.1679
   80ETHOX  H2123143  12.239  18.063  13.624 -0.0341  0.9787 -1.2934
   80ETHOX  H2323144  12.160  18.189  13.739  0.1284  1.4494 -0.3388
   81ETHOX   O123145  12.373  18.191  13.725 -0.1445 -0.4665  0.2436
   81ETHOX   C123146  12.400  18.133  13.851  0.5909 -0.3419 -0.1271
   81ETHOX  H1123147  12.322  18.177  13.916  0.5755  1.6614 -1.4041
   81ETHOX  H1323148  12.388  18.023  13.839 -1.2168 -0.0822 -0.9649
   81ETHOX   C223149  12.539  18.166  13.902 -0.6983  0.2131  0.9349
   81ETHOX  H2123150  12.566  18.095  13.983  0.6623  0.6418  0.8781
   81ETHOX  H2323151  12.617  18.143  13.826  0.2567  0.7550  1.7360
   82ETHOX   O123152  12.555  18.303  13.938  0.5107 -0.1544 -0.0456
   82ETHOX   C123153  12.537  18.322  14.075  0.1053 -0.1668  0.2879
   82ETHOX  H1123154  12.447  18.270  14.114  0.8647  0.4258  3.0782
   82ETHOX  H1323155  12.516  18.427  14.102  1.6616  0.2983 -0.2325
   82ETHOX   C223156  12.658  18.277  14.163 -0.2363 -0.7360 -0.3140
   82ETHOX  H2123157  12.690  18.177  14.125 -0.6442 -1.1033  0.2983
   82ETHOX  H2323158  12.624  18.266  14.269  1.3763  1.6614  0.5388
   83ETHOX   O123159  12.766  18.371  14.170  0.1355  0.4299  0.2602
   83ETHOX   C123160  12.883  18.306  14.211 -0.0676  0.7550  0.8534
   83ETHOX  H1123161  12.862  18.249  14.304  0.8500 -1.3935 -0.1878
   83ETHOX  H1323162  12.900  18.230  14.132 -2.8629  0.2200  0.6507
   83ETHOX   C223163  12.999  18.401  14.239 -0.2890 -0.2155 -0.0277
   83ETHOX  H2123164  13.071  18.337  14.294 -0.8860 -1.0728 -0.2163
   83ETHOX  H2323165  12.967  18.486  14.304  1.6075 -0.1612  0.8923
   84ETHOX   O123166  13.067  18.444  14.118  0.4142 -0.2990 -0.2884
   84ETHOX   C123167  12.989  18.524  14.031 -0.0456  0.1076  0.3878
   84ETHOX  H1123168  12.951  18.610  14.090 -0.3162 -0.1540  0.5921
   84ETHOX  H1323169  12.916  18.456  13.983  1.0817 -0.7215 -0.2047
   84ETHOX   C223170  13.063  18.599  13.916 -0.2169 -0.4641  0.5124
   84ETHOX  H2123171  13.163  18.636  13.949  1.6809  0.3751 -5.1985
   84ETHOX  H2323172  13.007  18.691  13.887  1.2493  0.6449  1.0535
   85ETHOX   O123173  13.092  18.507  13.810 -0.9579  0.3854 -0.3211
   85ETHOX   C123174  13.203  18.550  13.731  0.0440  0.5335  0.5331
   85ETHOX  H1123175  13.177  18.653  13.698 -2.9098  0.4126  2.1146
   85ETHOX  H1323176  13.295  18.556  13.792  0.1872  0.4739  0.3211
   85ETHOX   C223177  13.219  18.477  13.603  0.6179  0.0813  0.3127
   85ETHOX  H2123178  13.229  18.368  13.621  0.0485 -0.7880 -3.6935
   85ETHOX  H2323179  13.311  18.518  13.556  0.9687 -1.2818 -0.2678
   86ETHOX   O123180  13.104  18.512  13.520 -0.3667  0.7119  0.2839
   86ETHOX   C123181  13.073  18.405  13.438  0.8921  0.2772 -0.4360
   86ETHOX  H1123182  13.171  18.356  13.417 -0.0723 -2.4062  0.9042
   86ETHOX  H1323183  13.037  18.444  13.340 -0.1324 -0.7018 -0.4669
   86ETHOX   C223184  12.993  18.290  13.510  0.2776 -0.1072 -0.1631
   86ETHOX  H2123185  13.021  18.274  13.616 -0.2208 -0.1254 -0.0291
   86ETHOX  H2323186  13.025  18.198  13.458  0.3770 -0.2083  0.0762
   87ETHOX   O123187  12.858  18.308  13.486 -0.7270 -0.1103  0.2980
   87ETHOX   C123188  12.773  18.207  13.539 -0.1666  0.1882 -0.0815
   87ETHOX  H1123189  12.776  18.127  13.462  0.8398 -1.0040  1.1434
   87ETHOX  H1323190  12.798  18.162  13.638  0.0930  0.0205 -0.2229
   87ETHOX   C223191  12.628  18.248  13.556 -0.3248 -0.4504 -0.6730
   87ETHOX  H2123192  12.620  18.343  13.612  2.9405 -0.5288  0.1419
   87ETHOX  H2323193  12.583  18.158  13.604  1.7798 -0.9201  0.5513
   88ETHOX   O123194  12.558  18.263  13.427  0.2430 -0.5681  0.1698
   88ETHOX   C123195  12.569  18.393  13.365  0.6272 -0.2227  0.2041
   88ETHOX  H1123196  12.669  18.441  13.377 -0.0143  1.1402  0.3838
   88ETHOX  H1323197  12.500  18.460  13.421  1.7871  1.6532 -0.5127
   88ETHOX   C223198  12.513  18.407  13.226  0.6693 -0.3514  0.2652
   88ETHOX  H2123199  12.572  18.336  13.165 -0.2774 -1.4606  0.6117
   88ETHOX  H2323200  12.525  18.509  13.182  0.1230 -1.3052 -2.2843
   89ETHOX   O123201  12.373  18.387  13.203 -0.0540 -0.0450  0.1251
   89ETHOX   C123202  12.333  18.380  13.069 -0.3325 -0.7550  0.5806
   89ETHOX  H1123203  12.387  18.455  13.007  0.0290 -1.8306 -0.4218
   89ETHOX  H1323204  12.373  18.281  13.038 -1.0124 -0.7391 -0.3992
   89ETHOX   C223205  12.180  18.382  13.048 -0.5884 -0.1438 -0.5173
   89ETHOX  H2123206  12.133  18.307  13.116  0.0791  1.2376  1.5671
   89ETHOX  H2323207  12.146  18.360  12.944 -2.2879 -2.1681  0.3974
   90ETHOX   O123208  12.125  18.506  13.091  0.5523  0.3791  0.1838
   90ETHOX   C123209  11.986  18.509  13.093 -0.1908  0.4019  0.3143
   90ETHOX  H1123210  11.954  18.464  12.997 -2.6036  1.5078  0.5203
   90ETHOX  H1323211  11.950  18.441  13.173 -3.2574  1.2385 -0.2544
   90ETHOX   C223212  11.919  18.637  13.116  0.1400 -0.5083 -0.2186
   90ETHOX  H2123213  11.957  18.678  13.212  1.9837 -1.0823 -0.6639
   90ETHOX  H2323214  11.809  18.630  13.131  0.0811  0.4399 -0.1826
   91ETHOX   O123215  11.961  18.722  13.006  0.7019  0.2080 -0.2068
   91ETHOX   C123216  11.915  18.858  13.023 -0.7117  0.2896 -0.7479
   91ETHOX  H1123217  11.829  18.872  13.092  0.6142  0.1013  1.0363
   91ETHOX  H1323218  12.004  18.911  13.065  0.1496 -2.0017  0.5135
   91ETHOX   C223219  11.878  18.913  12.890  0.5101 -0.2874  0.0797
   91ETHOX  H2123220  11.962  18.912  12.817 -0.6160  0.1465 -1.2543
   91ETHOX  H2323221  11.845  19.018  12.906  0.2617 -0.0704 -1.6311
   92ETHOX   O123222  11.758  18.851  12.842 -0.1487 -0.0322  0.5309
   92ETHOX   C123223  11.735  18.894  12.709 -0.1029 -0.7935  0.6277
   92ETHOX  H1123224  11.701  19.000  12.705 -1.9777 -1.3754 -2.6100
   92ETHOX  H1323225  11.826  18.896  12.646 -1.1279  1.7111 -0.9138
   92ETHOX   C223226  11.645  18.801  12.624 -0.0301  1.0459  0.0360
   92ETHOX  H2123227  11.614  18.869  12.541 -1.7332  2.7305  1.9477
   92ETHOX  H2323228  11.554  18.785  12.686 -0.0325 -1.5883 -0.5485
   93ETHOX   O123229  11.697  18.676  12.575  0.6781  0.0774  0.5553
   93ETHOX   C123230  11.767  18.595  12.674  0.4347  0.2644  0.0083
   93ETHOX  H1123231  11.705  18.580  12.765  1.7989 -1.2949  0.7364
   93ETHOX  H1323232  11.869  18.638  12.691  0.5335  0.9429 -1.9818
   93ETHOX   C223233  11.787  18.444  12.635  0.6009 -0.2781 -0.1826
   93ETHOX  H2123234  11.685  18.417  12.602  0.2435  0.7913 -0.0089
   93ETHOX  H2323235  11.801  18.382  12.726  0.3933 -1.9983 -1.2854
   94ETHOX   O123236  11.899  18.410  12.554  0.4715  0.1335  0.1396
   94ETHOX   C123237  12.004  18.338  12.620 -0.1873  0.4416 -0.6115
   94ETHOX  H1123238  12.086  18.366  12.551 -0.1487 -1.6862 -1.5206
   94ETHOX  H1323239  12.023  18.370  12.724 -2.7732  2.5915 -0.6891
   94ETHOX   C223240  11.972  18.192  12.605 -0.1547 -0.3124 -0.1669
   94ETHOX  H2123241  12.058  18.129  12.636 -0.0145  0.1075  0.3025
   94ETHOX  H2323242  11.955  18.171  12.497  1.4358 -0.1934 -0.4660
   95ETHOX   O123243  11.866  18.143  12.682 -0.2644 -0.5334  0.0966
   95ETHOX   C123244  11.815  18.025  12.627 -0.3563  0.1719  0.0359
   95ETHOX  H1123245  11.893  17.952  12.597 -1.2786  0.0833 -2.3885
   95ETHOX  H1323246  11.771  18.042  12.527 -0.0379 -1.0879 -0.3383
   95ETHOX   C223247  11.728  17.956  12.727 -0.4323 -0.6378  0.1266
   95ETHOX  H2123248  11.788  17.928  12.816  1.8070 -0.1692 -1.1564
   95ETHOX  H2323249  11.694  17.859  12.685  0.3141 -1.0077  0.3442
   96ETHOX   O123250  11.616  18.029  12.774 -0.0994  0.1087  0.5538
   96ETHOX   C123251  11.559  17.967  12.889  1.1188 -0.4901  0.0487
   96ETHOX  H1123252  11.632  17.961  12.973  1.3184  1.9395  0.1151
   96ETHOX  H1323253  11.471  18.021  12.930 -0.8426 -2.4705 -1.2937
   96ETHOX   C223254  11.515  17.816  12.881  0.9560  0.2203  0.5926
   96ETHOX  H2123255  11.489  17.772  12.980 -2.0466 -0.8596 -0.5545
   96ETHOX  H2323256  11.597  17.750  12.847  2.6442  1.0887  2.7264
   97ETHOX   O123257  11.399  17.794  12.800 -0.3908 -0.6638  0.1526
   97ETHOX   C123258  11.423  17.773  12.664  0.0157 -0.2213 -0.9171
   97ETHOX  H1123259  11.512  17.708  12.653  0.7706  0.7296 -0.5667
   97ETHOX  H1323260  11.457  17.869  12.620 -0.5705  0.0085 -0.8832
   97ETHOX   C223261  11.300  17.727  12.584 -0.2349 -0.4812 -0.2808
   97ETHOX  H2123262  11.329  17.716  12.477 -0.6457 -1.3020 -0.3169
   97ETHOX  H2323263  11.217  17.800  12.594  0.2682  0.2936 -1.5820
   98ETHOX   O123264  11.247  17.602  12.623  0.1352  0.3503  0.4662
   98ETHOX   C123265  11.135  17.563  12.543 -0.7269  0.3447 -0.3381
   98ETHOX  H1123266  11.061  17.645  12.559  0.5919  1.7201 -1.0117
   98ETHOX  H1323267  11.156  17.566  12.434 -1.6823 -1.4408 -0.6172
   98ETHOX   C223268  11.074  17.422  12.576 -0.2284 -0.2351  0.1162
   98ETHOX  H2123269  10.969  17.410  12.542 -0.5595  1.4712  0.4559
   98ETHOX  H2323270  11.086  17.406  12.686  2.8811  2.5455  0.3166
   99ETHOX   O123271  11.146  17.323  12.520 -0.6156 -0.1920  0.4283
   99ETHOX   C123272  11.093  17.197  12.557 -0.3981 -0.2733  0.3142
   99ETHOX  H1123273  10.985  17.198  12.530 -0.0682  0.3211 -1.1048
   99ETHOX  H1323274  11.117  17.195  12.665  3.7820  4.3349 -0.1231
   99ETHOX   C223275  11.168  17.077  12.503  0.4268 -0.2101  0.2122
   99ETHOX  H2123276  11.168  16.999  12.582  1.1863  0.4643  0.8944
   99ETHOX  H2323277  11.271  17.114  12.481  0.6825 -0.5803  0.7437
  100ETHOX   O123278  11.111  17.024  12.382 -0.6261 -0.1549 -0.2688
  100ETHOX   C123279  11.159  16.899  12.351  0.0599  0.5413 -0.1441
  100ETHOX  H1123280  11.268  16.896  12.330  0.2628  1.3443  0.7419
  100ETHOX  H1323281  11.148  16.830  12.438  1.8312 -2.7381 -2.3075
  100ETHOX   C223282  11.069  16.834  12.238 -0.1833  0.4822  0.3951
  100ETHOX  H2123283  11.104  16.877  12.142  2.9059  0.6442  1.4986
  100ETHOX  H2323284  10.961  16.861  12.248 -0.7080 -1.7177  1.1744
  101PROXS   O123285  11.080  16.689  12.240  0.0192  0.6412  0.3569
  101PROXS   C123286  11.041  16.623  12.117  0.2538  0.0208  0.5723
  101PROXS  H1123287  10.932  16.643  12.102  0.0384 -0.5601  1.3014
  101PROXS  H1323288  11.094  16.667  12.030  4.3100 -0.3287  2.6506
  101PROXS   C223289  11.047  16.469  12.118  0.0229 -0.3186 -0.4215
  101PROXS  H2123290  11.002  16.428  12.210 -0.5875  1.0167 -0.1093
  101PROXS   C323291  11.192  16.417  12.120  0.6689  0.0273 -0.3000
  101PROXS  H3123292  11.239  16.444  12.217  0.0218  0.5285 -0.1214
  101PROXS  H3223293  11.202  16.308  12.102 -1.2287 -0.0721 -0.9522
  101PROXS  H3323294  11.250  16.464  12.037  0.3266 -1.2707 -1.3224
  102PROXS   O123295  10.987  16.414  11.997 -0.0776  0.3509 -0.2204
  102PROXS   C123296  10.853  16.385  12.009  0.0659 -0.1977  0.1246
  102PROXS  H1123297  10.842  16.281  12.047 -2.6888  0.1632  0.5148
  102PROXS  H1323298  10.809  16.450  12.087  1.7864  1.3243 -0.1185
  102PROXS   C223299  10.784  16.407  11.873  0.2442  0.2255  0.0766
  102PROXS  H2123300  10.850  16.356  11.800  0.5469  0.7781 -0.0388
  102PROXS   C323301  10.765  16.556  11.843  0.0448  0.9036  0.4817
  102PROXS  H3123302  10.719  16.570  11.743  0.9214  0.4219  0.0022
  102PROXS  H3223303  10.693  16.598  11.918  0.7816  0.8427  1.2338
  102PROXS  H3323304  10.867  16.600  11.842  1.0149 -1.2129 -0.6316
  103PROXR   O123305  10.660  16.337  11.884 -0.3002  0.2330 -0.1436
  103PROXR   C123306  10.595  16.311  11.752 -0.1204  0.3040 -0.4152
  103PROXR  H1123307  10.526  16.394  11.726  0.8129  1.5618  0.9715
  103PROXR  H1323308  10.676  16.306  11.677  0.9325  4.3266  0.2686
  103PROXR   C223309  10.522  16.180  11.741  0.2730 -0.4334 -0.4899
  103PROXR  H2123310  10.432  16.175  11.806  0.6800 -1.4782  0.0201
  103PROXR   C323311  10.626  16.073  11.780 -0.1494 -0.3469 -0.0056
  103PROXR  H3123312  10.711  16.072  11.708 -1.1024 -2.5252 -1.2047
  103PROXR  H3223313  10.652  16.080  11.888  3.1666 -1.2935 -0.6388
  103PROXR  H3323314  10.580  15.972  11.767 -1.1377 -0.1969  1.9788
  104PROXS   O123315  10.485  16.159  11.600  0.0470 -0.6172  0.7740
  104PROXS   C123316  10.356  16.102  11.593 -0.4275  0.8633 -0.7594
  104PROXS  H1123317  10.368  16.001  11.638  2.2214  1.0817 -0.8157
  104PROXS  H1323318  10.275  16.159  11.644 -1.5765 -1.3507  0.0203
  104PROXS   C223319  10.312  16.082  11.447  0.0886 -0.3430 -0.0603
  104PROXS  H2123320  10.390  16.017  11.401  1.1582 -0.4745  1.8040
  104PROXS   C323321  10.300  16.213  11.375  0.0998 -0.6596  0.0295
  104PROXS  H3123322  10.215  16.264  11.425 -1.5752 -0.3514 -2.8920
  104PROXS  H3223323  10.385  16.281  11.396 -2.2707  3.3995 -2.3360
  104PROXS  H3323324  10.286  16.214  11.265  0.0670 -0.9857  0.0278
  105PROXS   O123325  10.181  16.022  11.458 -0.3859  0.5416 -0.2820
  105PROXS   C123326  10.189  15.881  11.471 -0.1319 -0.0348 -0.4997
  105PROXS  H1123327  10.234  15.832  11.382  2.1637  2.4250 -0.8351
  105PROXS  H1323328  10.258  15.840  11.548 -1.7255 -0.4299  0.7693
  105PROXS   C223329  10.049  15.825  11.500  0.1601  0.2141  0.2939
  105PROXS  H2123330   9.975  15.863  11.427 -0.7247  0.9299  1.5235
  105PROXS   C323331  10.001  15.870  11.639  0.3609 -0.0796  0.4280
  105PROXS  H3123332   9.894  15.844  11.653 -0.0500  1.9068  1.3311
  105PROXS  H3223333  10.063  15.828  11.722  2.7796  0.6566 -0.9013
  105PROXS  H3323334  10.003  15.980  11.650 -2.9839 -0.0201  1.6065
  106PROXS   O123335  10.059  15.684  11.495 -0.4482  0.1446  0.2785
  106PROXS   C123336   9.944  15.606  11.461  0.3054  0.3589 -0.5057
  106PROXS  H1123337   9.861  15.655  11.517 -0.2475  0.1446 -1.1119
  106PROXS  H1323338   9.921  15.607  11.352 -3.9296 -0.9283  0.1854
  106PROXS   C223339   9.946  15.463  11.509 -0.3780 -0.6489  0.1200
  106PROXS  H2123340   9.932  15.467  11.619  0.3354  1.0530  0.1892
  106PROXS   C323341  10.083  15.386  11.487  0.1205 -0.5133  0.0664
  106PROXS  H3123342  10.063  15.278  11.499 -1.0434 -0.4330 -0.9535
  106PROXS  H3223343  10.127  15.419  11.390  1.2741 -0.9430  0.4320
  106PROXS  H3323344  10.145  15.425  11.571  0.8843  4.0750 -2.2799
  107PROXR   O123345   9.842  15.386  11.448 -0.5791 -0.0108  0.1272
  107PROXR   C123346   9.783  15.290  11.538  0.0031 -0.1142  0.1717
  107PROXR  H1123347   9.827  15.189  11.526  0.0330 -0.4126  2.3397
  107PROXR  H1323348   9.802  15.319  11.643  2.1378 -3.4561  0.8511
  107PROXR   C223349   9.630  15.278  11.514  0.3846 -0.7917  0.0006
  107PROXR  H2123350   9.618  15.202  11.434  0.4329 -2.2198  1.3223
  107PROXR   C323351   9.565  15.412  11.472  0.2194 -0.0743 -0.1407
  107PROXR  H3123352   9.609  15.451  11.377  1.6373 -1.6548 -0.1691
  107PROXR  H3223353   9.457  15.394  11.452 -0.2302  1.4513  0.6883
  107PROXR  H3323354   9.580  15.483  11.557  0.8554  2.3093 -2.1042
  108PROXS   O123355   9.573  15.216  11.625 -0.2574  0.0968 -0.7632
  108PROXS   C123356   9.452  15.150  11.597  0.3478 -0.0829  0.7706
  108PROXS  H1123357   9.409  15.208  11.512  0.3284 -1.4884 -0.2250
  108PROXS  H1323358   9.471  15.044  11.566  0.4497 -0.1166  0.9512
  108PROXS   C223359   9.353  15.150  11.719  0.7581 -0.0059  0.4050
  108PROXS  H2123360   9.412  15.129  11.810  1.7746  0.1763 -0.1984
  108PROXS   C323361   9.256  15.038  11.696  0.3590  0.7455 -0.0477
  108PROXS  H3123362   9.191  15.024  11.785  0.3321  1.7781  0.1085
  108PROXS  H3223363   9.202  15.058  11.601  2.5626  0.8850 -1.3295
  108PROXS  H3323364   9.322  14.951  11.675 -0.4086 -0.0379  0.7008
  109PROXS   O123365   9.289  15.277  11.731  0.1912  0.3080 -0.2457
  109PROXS   C123366   9.380  15.374  11.785 -0.4137 -0.3884  0.1857
  109PROXS  H1123367   9.465  15.332  11.843  1.7153 -1.4994 -3.4290
  109PROXS  H1323368   9.420  15.445  11.709  1.6025 -0.9234  0.6713
  109PROXS   C223369   9.296  15.458  11.881 -0.1657  0.0574  0.0563
  109PROXS  H2123370   9.239  15.384  11.941  2.2211 -1.8155  0.2108
  109PROXS   C323371   9.217  15.560  11.811  0.3294  0.0777  0.1751
  109PROXS  H3123372   9.180  15.520  11.714  0.8267 -1.0084  0.4203
  109PROXS  H3223373   9.138  15.609  11.872 -0.6799 -1.5347  0.2295
  109PROXS  H3323374   9.283  15.643  11.777  1.3209 -0.3128  1.0783
  110PROXR   O123375   9.389  15.517  11.973 -0.1014 -0.0679 -0.2577
  110PROXR   C123376   9.328  15.549  12.098 -0.5674 -0.4281  0.3665
  110PROXR  H1123377   9.221  15.571  12.079 -0.7297  1.9007  3.2980
  110PROXR  H1323378   9.323  15.460  12.165  0.8953  0.9497  2.4262
  110PROXR   C223379   9.406  15.680  12.152 -0.1739  0.1498 -0.8120
  110PROXR  H2123380   9.512  15.646  12.153  0.2497  1.1071  3.4461
  110PROXR   C323381   9.373  15.700  12.298 -0.5025 -0.0695 -0.7495
  110PROXR  H3123382   9.415  15.794  12.341 -0.8895 -0.3879  0.3614
  110PROXR  H3223383   9.264  15.709  12.318 -0.1750 -0.1614  1.2794
  110PROXR  H3323384   9.410  15.625  12.371  1.4239  2.5703  1.1945
  111PROXS   O123385   9.378  15.799  12.082 -0.5718  0.1342 -0.1208
  111PROXS   C123386   9.484  15.843  11.989 -0.0038  0.3051  0.1593
  111PROXS  H1123387   9.581  15.788  11.998  0.6921  0.8827 -2.7358
  111PROXS  H1323388   9.444  15.813  11.890  0.4099  0.1063  0.0503
  111PROXS   C223389   9.504  15.994  11.998  0.0453  0.2510  0.5737
  111PROXS  H2123390   9.511  16.028  12.104  1.4855  1.7113  0.0558
  111PROXS   C323391   9.386  16.086  11.941  0.3078  0.1153 -0.0232
  111PROXS  H3123392   9.418  16.192  11.950  0.8045 -0.1459  1.5276
  111PROXS  H3223393   9.362  16.060  11.835  1.2645 -1.3150  0.0957
  111PROXS  H3323394   9.303  16.061  12.011  0.6734 -0.4604  0.2063
  112PROXR   O123395   9.626  16.018  11.929  0.1523  0.2108  0.0912
  112PROXR   C123396   9.677  16.151  11.951 -0.2600  0.7678  0.3495
  112PROXR  H1123397   9.610  16.221  11.896  0.2901  0.3123 -0.9512
  112PROXR  H1323398   9.684  16.181  12.058  1.0645  0.5253  0.3491
  112PROXR   C223399   9.811  16.169  11.884  0.3141  0.3163  0.2870
  112PROXR  H2123400   9.806  16.111  11.789 -0.8837 -2.1630  1.7380
  112PROXR   C323401   9.936  16.119  11.964 -0.3934 -0.8115 -0.0730
  112PROXR  H3123402   9.935  16.180  12.056  1.9576 -0.1416 -0.4353
  112PROXR  H3223403   9.932  16.008  11.977 -1.7215 -0.8079 -0.3153
  112PROXR  H3323404  10.027  16.138  11.904 -2.1646  1.1061 -2.3344
  113PROXS   O123405   9.829  16.308  11.856 -0.1997 -0.0175  0.0760
  113PROXS   C123406   9.929  16.334  11.753  0.1726  0.0600 -0.9735
  113PROXS  H1123407   9.977  16.243  11.710 -0.9512 -0.2030 -1.7014
  113PROXS  H1323408   9.870  16.385  11.675 -0.6030 -0.4430 -0.7270
  113PROXS   C223409  10.031  16.431  11.805  0.2211 -0.2528 -0.2352
  113PROXS  H2123410   9.976  16.517  11.848 -0.6135 -1.3134  0.8883
  113PROXS   C323411  10.118  16.476  11.681  0.5546  0.0813  0.0008
  113PROXS  H3123412  10.192  16.547  11.723 -0.0804  0.6832  0.1277
  113PROXS  H3223413  10.162  16.390  11.627  2.6606  0.8689  0.3801
  113PROXS  H3323414  10.049  16.535  11.616  0.3837  0.4763  0.5373
  114PROXR   O123415  10.127  16.364  11.895 -0.1198  0.2286  0.0002
  114PROXR   C123416  10.207  16.451  11.982 -0.2495 -0.9299  0.6056
  114PROXR  H1123417  10.279  16.507  11.918 -0.1413 -1.2785  0.4168
  114PROXR  H1323418  10.148  16.529  12.035  0.1555 -1.1250  1.3548
  114PROXR   C223419  10.284  16.378  12.086  0.6139  0.5639 -0.4536
  114PROXR  H2123420  10.341  16.300  12.030  0.1201  0.0034 -0.1825
  114PROXR   C323421  10.185  16.306  12.188  0.3527 -0.6594 -0.3523
  114PROXR  H3123422  10.112  16.231  12.150 -1.1633 -0.3361  1.6889
  114PROXR  H3223423  10.244  16.257  12.269  3.4977  3.4097  0.1023
  114PROXR  H3323424  10.117  16.382  12.231  0.8383 -0.0743 -0.6172
  115PROXR   O123425  10.367  16.465  12.154 -0.3887 -0.1088  0.1457
  115PROXR   C123426  10.492  16.400  12.197 -0.0810  0.1557 -0.5220
  115PROXR  H1123427  10.461  16.310  12.255 -1.3322  0.5982 -0.4703
  115PROXR  H1323428  10.545  16.370  12.104  0.2201 -0.0712 -0.2781
  115PROXR   C223429  10.571  16.498  12.283 -0.1254  0.2593 -0.4900
  115PROXR  H2123430  10.506  16.514  12.372  0.5763 -0.4055  0.1607
  115PROXR   C323431  10.616  16.635  12.228  1.2489 -0.4087  0.1540
  115PROXR  H3123432  10.529  16.693  12.191  1.9953 -0.3402 -1.6116
  115PROXR  H3223433  10.669  16.703  12.299  0.8552 -0.3301  0.3702
  115PROXR  H3323434  10.685  16.625  12.141 -0.0951  1.9495 -1.3125
  116PROXS   O123435  10.688  16.432  12.317 -0.2912 -0.1247 -0.7710
  116PROXS   C123436  10.769  16.496  12.415  0.0668  0.0536  0.0121
  116PROXS  H1123437  10.844  16.566  12.372 -1.1238  0.8251 -0.8741
  116PROXS  H1323438  10.700  16.542  12.489  1.0697 -0.7582  1.5235
  116PROXS   C223439  10.848  16.391  12.499  0.3806 -0.1592  0.5669
  116PROXS  H2123440  10.902  16.327  12.427  2.2061  1.5066  0.3706
  116PROXS   C323441  10.745  16.309  12.581  0.1272 -0.6665 -0.8493
  116PROXS  H3123442  10.705  16.377  12.660  1.2243  0.0647 -0.9066
  116PROXS  H3223443  10.656  16.277  12.524 -1.1200  0.0599  0.5982
  116PROXS  H3323444  10.797  16.220  12.622  1.0005 -0.0868 -0.6596
  117PROXS   O123445  10.933  16.464  12.585  0.1960 -0.1448  0.7100
  117PROXS   C123446  11.029  16.382  12.636 -0.1349  0.1582  0.1748
  117PROXS  H1123447  10.987  16.324  12.721  0.2993  1.2216  1.1464
  117PROXS  H1323448  11.075  16.317  12.559  1.1057 -0.3213  1.2920
  117PROXS   C223449  11.153  16.460  12.689  0.1673 -0.3858 -0.1108
  117PROXS  H2123450  11.108  16.511  12.777  0.2899 -0.3136 -0.0897
  117PROXS   C323451  11.211  16.572  12.602  0.8140  0.5258 -0.4588
  117PROXS  H3123452  11.282  16.635  12.661 -0.4402  0.3270  1.3592
  117PROXS  H3223453  11.261  16.529  12.513  1.4570  0.1271  0.0908
  117PROXS  H3323454  11.130  16.637  12.562 -1.1714 -0.9881  0.9050
  118PROXR   O123455  11.249  16.366  12.732 -0.7841  0.4182 -0.5447
  118PROXR   C123456  11.358  16.422  12.806 -0.2116 -0.4260 -0.9448
  118PROXR  H1123457  11.433  16.451  12.729  0.0226 -2.1819 -1.4183
  118PROXR  H1323458  11.323  16.511  12.863 -2.4733 -1.0171 -1.3093
  118PROXR   C223459  11.423  16.325  12.916  0.2605  0.3324  0.3137
  118PROXR  H2123460  11.493  16.259  12.860  0.0747  1.6351 -1.5629
  118PROXR   C323461  11.322  16.228  12.981 -0.3968  0.4759  0.1895
  118PROXR  H3123462  11.246  16.191  12.908  0.2693  1.9766 -1.3446
  118PROXR  H3223463  11.367  16.141  13.033 -0.4061  1.1516  1.3515
  118PROXR  H3323464  11.257  16.289  13.048 -0.6083  1.9070 -1.2524
  119PROXR   O123465  11.487  16.399  13.014 -0.0790 -0.1937 -0.0986
  119PROXR   C123466  11.600  16.484  12.967  0.0834 -0.7462 -0.2567
  119PROXR  H1123467  11.694  16.425  12.963 -0.6522 -1.9456 -0.2729
  119PROXR  H1323468  11.590  16.527  12.865  0.2633 -0.7344 -0.2697
  119PROXR   C223469  11.623  16.600  13.067  0.2044 -0.4775 -0.0266
  119PROXR  H2123470  11.648  16.556  13.166 -0.3257 -0.0777  0.2871
  119PROXR   C323471  11.486  16.682  13.091 -0.0628 -0.1113 -0.6224
  119PROXR  H3123472  11.403  16.620  13.129  0.3500 -1.9914 -2.5686
  119PROXR  H3223473  11.516  16.763  13.161  0.2995 -0.0725 -0.8187
  119PROXR  H3323474  11.445  16.725  12.997 -2.1102  0.3280  0.4133
  120PROXS   O123475  11.735  16.680  13.023 -0.1056 -0.2232 -0.1680
  120PROXS   C123476  11.789  16.767  13.125 -0.0983  0.9325 -0.3991
  120PROXS  H1123477  11.711  16.841  13.149  0.0301  0.9457 -0.0117
  120PROXS  H1323478  11.817  16.710  13.216  0.5244  0.5926 -0.7921
  120PROXS   C223479  11.917  16.845  13.082  0.1281 -0.2133 -0.3352
  120PROXS  H2123480  11.995  16.773  13.051  1.9178  0.0050  3.2026
  120PROXS   C323481  11.984  16.924  13.192 -0.0897  0.0704  0.1353
  120PROXS  H3123482  12.024  16.843  13.258  0.9734  0.6901  0.2580
  120PROXS  H3223483  12.071  16.980  13.152  0.5135  0.6085  2.1025
  120PROXS  H3323484  11.914  16.991  13.246  0.1288 -1.3117  2.2558
  121PROXS   O123485  11.880  16.942  12.983  0.7822 -0.1405  0.5369
  121PROXS   C123486  11.863  16.891  12.850  0.6039 -0.3564  0.0518
  121PROXS  H1123487  11.959  16.839  12.830  1.1051  0.1358  1.1013
  121PROXS  H1323488  11.784  16.814  12.844  0.2968  0.0508 -4.4918
  121PROXS   C223489  11.832  17.005  12.749  0.3114 -0.2455 -0.0638
  121PROXS  H2123490  11.924  17.068  12.758  1.1291 -1.5620  1.2945
  121PROXS   C323491  11.702  17.077  12.798 -0.1841  0.3096 -0.7655
  121PROXS  H3123492  11.611  17.015  12.786 -2.6994  3.8958 -1.7050
  121PROXS  H3223493  11.697  17.122  12.900 -1.3307  0.5742 -0.9353
  121PROXS  H3323494  11.690  17.165  12.732 -1.2483 -1.1931 -2.7035
  122PROXS   O123495  11.827  16.939  12.626 -0.2843  0.3231  0.8497
  122PROXS   C123496  11.776  17.025  12.518 -0.1958 -0.2799  0.0131
  122PROXS  H1123497  11.667  17.039  12.532  0.1752  0.4310  2.6177
  122PROXS  H1323498  11.826  17.124  12.522  1.3515 -0.9822 -0.8535
  122PROXS   C223499  11.803  16.963  12.380  0.1099  0.2174 -0.1496
  122PROXS  H2123500  11.901  16.913  12.367 -1.4538 -3.0788 -0.2081
  122PROXS   C323501  11.783  17.084  12.281 -0.4586  0.0169  0.7502
  122PROXS  H3123502  11.871  17.151  12.282  0.8172 -1.5509 -0.9238
  122PROXS  H3223503  11.773  17.040  12.180 -0.6676  0.5914  0.5124
  122PROXS  H3323504  11.681  17.128  12.289 -0.0562  0.8397  1.5298
  123PROXS   O123505  11.700  16.865  12.345 -0.3909  0.2444 -0.1559
  123PROXS   C123506  11.694  16.747  12.427  0.0200 -0.0713  0.2795
  123PROXS  H1123507  11.795  16.704  12.447 -0.2764 -0.4177  1.1028
  123PROXS  H1323508  11.650  16.783  12.522 -2.3713  4.2341 -2.1738
  123PROXS   C223509  11.597  16.645  12.366 -0.6160 -0.1196  0.2970
  123PROXS  H2123510  11.624  16.617  12.262 -2.1788 -1.4400  0.2015
  123PROXS   C323511  11.456  16.702  12.355  0.1621 -0.0943  1.1138
  123PROXS  H3123512  11.386  16.640  12.295  0.8251  0.2324 -0.0234
  123PROXS  H3223513  11.409  16.731  12.452 -2.1736 -2.7271  0.8841
  123PROXS  H3323514  11.457  16.798  12.299  0.6740 -1.5774 -1.5998
  124PROXR   O123515  11.601  16.533  12.450  0.0992 -0.3563 -0.0563
  124PROXR   C123516  11.567  16.420  12.380  0.3319 -0.1620  0.3986
  124PROXR  H1123517  11.466  16.442  12.340  0.6106 -2.8114 -2.0946
  124PROXR  H1323518  11.638  16.395  12.299  0.4823 -0.4224  0.6088
  124PROXR   C223519  11.571  16.297  12.468 -0.9742  0.4869  0.5817
  124PROXR  H2123520  11.504  16.319  12.554  1.3391  1.5289  2.2327
  124PROXR   C323521  11.707  16.275  12.530  0.1234 -0.3523 -0.1097
  124PROXR  H3123522  11.783  16.249  12.453 -0.4629  0.2499 -0.9159
  124PROXR  H3223523  11.748  16.368  12.576 -1.4444  0.1753  0.2829
  124PROXR  H3323524  11.706  16.191  12.602  0.2366 -1.7756 -1.7181
  125PROXS   O123525  11.526  16.175  12.395  0.4962 -0.0039 -0.3237
  125PROXS   C123526  11.480  16.074  12.479  0.2209  0.5817 -0.1329
  125PROXS  H1123527  11.565  16.009  12.511 -0.0130  1.1299  1.7490
  125PROXS  H1323528  11.437  16.115  12.573 -2.5608 -0.9748 -0.6397
  125PROXS   C223529  11.382  15.972  12.412  0.3057 -0.4821  0.1014
  125PROXS  H2123530  11.435  15.922  12.329 -1.0898 -0.3363 -0.9203
  125PROXS   C323531  11.267  16.055  12.359  0.0416 -0.5222  0.0611
  125PROXS  H3123532  11.235  16.125  12.440  0.5333  1.0223 -1.0307
  125PROXS  H3223533  11.298  16.120  12.275 -0.8160 -0.9546 -0.5936
  125PROXS  H3323534  11.186  15.994  12.314 -1.3355  0.4399  1.1379
  126PROXS   O123535  11.350  15.875  12.502 -0.1836  0.3569 -0.4843
  126PROXS   C123536  11.251  15.783  12.460  0.3095 -0.8510 -1.0591
  126PROXS  H1123537  11.158  15.843  12.476  2.9491  3.1288  1.1135
  126PROXS  H1323538  11.266  15.767  12.351 -0.8053  0.2699 -1.4036
  126PROXS   C223539  11.257  15.657  12.547 -0.2101  0.2569  0.9012
  126PROXS  H2123540  11.276  15.685  12.653 -0.2530 -0.8189  1.2047
  126PROXS   C323541  11.385  15.575  12.513 -0.0941  0.2981 -0.3978
  126PROXS  H3123542  11.387  15.481  12.571 -0.3159  0.0942 -0.7197
  126PROXS  H3223543  11.397  15.554  12.404 -0.8114  2.1284 -0.8744
  126PROXS  H3323544  11.478  15.627  12.545  0.8745 -0.3252 -2.0416
  127PROXR   O123545  11.138  15.589  12.530 -0.2841 -0.1062  0.1219
  127PROXR   C123546  11.103  15.519  12.650 -0.4246  0.5242 -0.4672
  127PROXR  H1123547  11.189  15.473  12.703  0.0827  1.0463 -0.8376
  127PROXR  H1323548  11.048  15.585  12.720 -0.7844 -1.5339  1.3167
  127PROXR   C223549  11.001  15.400  12.625  0.4295 -0.2361  0.0208
  127PROXR  H2123550  11.071  15.320  12.593  0.6606  0.1084 -0.3398
  127PROXR   C323551  10.891  15.435  12.519  0.2923  0.4499  0.0685
  127PROXR  H3123552  10.932  15.462  12.419  1.1911  0.9377  0.5544
  127PROXR  H3223553  10.831  15.343  12.501  0.7924  0.1634 -0.1548
  127PROXR  H3323554  10.828  15.520  12.554 -2.3392 -0.9879 -0.9449
  128PROXR   O123555  10.942  15.374  12.755  0.0512 -0.4428 -0.4782
  128PROXR   C123556  11.024  15.283  12.829 -0.0040 -0.0353  0.0187
  128PROXR  H1123557  11.045  15.193  12.767  1.8111  0.3932 -0.0554
  128PROXR  H1323558  11.123  15.327  12.853  1.2060 -1.9888 -1.0446
  128PROXR   C223559  10.952  15.230  12.959 -0.6259  0.1423  0.0063
  128PROXR  H2123560  10.857  15.187  12.922  0.3286  0.4962 -3.1827
  128PROXR   C323561  10.931  15.340  13.064  0.2241 -0.7208 -0.3340
  128PROXR  H3123562  10.895  15.430  13.010  2.0941  0.0100 -0.4058
  128PROXR  H3223563  10.856  15.315  13.142  0.1058 -0.4301 -0.3549
  128PROXR  H3323564  11.028  15.369  13.109 -0.0436 -0.0334 -0.1895
  129PROXS   O123565  11.033  15.124  13.014 -0.2205 -0.3417 -0.2797
  129PROXS   C123566  10.961  14.995  13.017  0.0978  0.7134 -0.7842
  129PROXS  H1123567  10.884  14.991  13.097 -0.2219 -0.6971 -1.1450
  129PROXS  H1323568  10.917  14.970  12.918  0.8868 -0.2574 -0.9041
  129PROXS   C223569  11.060  14.877  13.053  0.1715  0.1496 -0.0391
  129PROXS  H2123570  11.075  14.864  13.163 -2.1136 -0.1516  0.3041
  129PROXS   C323571  11.195  14.885  12.969  0.5837 -0.4408  0.5436
  129PROXS  H3123572  11.241  14.790  13.002 -0.3583 -1.1951 -0.2613
  129PROXS  H3223573  11.172  14.885  12.860 -1.4457  1.9590  0.8795
  129PROXS  H3323574  11.260  14.973  12.990 -2.3495  1.6859  1.4388
  130PROXS   O123575  11.004  14.754  13.005 -0.2756  0.2475  0.3538
  130PROXS   C123576  10.881  14.715  13.063  0.3801 -0.0954  0.7738
  130PROXS  H1123577  10.886  14.695  13.172 -1.8706 -1.0444  0.7671
  130PROXS  H1323578  10.802  14.793  13.051 -1.0666 -1.3424  1.7546
  130PROXS   C223579  10.833  14.584  12.996  0.1397 -0.0150 -0.0802
  130PROXS  H2123580  10.900  14.498  13.016  1.4714  0.0887 -3.4663
  130PROXS   C323581  10.821  14.592  12.841 -0.1156 -0.2580 -0.1345
  130PROXS  H3123582  10.799  14.490  12.801  4.2568 -2.6268  2.6507
  130PROXS  H3223583  10.744  14.670  12.823 -0.3070  0.3812  2.9908
  130PROXS  H3323584  10.909  14.630  12.785 -1.5009  0.9773 -1.5719
  131PROXS   O123585  10.698  14.553  13.045 -0.2074 -0.4938  0.2224
  131PROXS   C123586  10.662  14.419  13.036 -0.3143 -0.0806 -0.8630
  131PROXS  H1123587  10.671  14.380  12.932 -0.4824 -1.7863 -0.2792
  131PROXS  H1323588  10.727  14.366  13.109 -1.2933  0.2861  0.3088
  131PROXS   C223589  10.511  14.393  13.079  0.0770  1.0576 -0.6605
  131PROXS  H2123590  10.500  14.418  13.187 -0.0185 -1.8651  0.1119
  131PROXS   C323591  10.490  14.239  13.064 -0.4974  0.1272  0.0282
  131PROXS  H3123592  10.385  14.208  13.086 -0.7955 -0.9082 -2.5613
  131PROXS  H3223593  10.515  14.201  12.963 -0.2527  0.9964 -0.2495
  131PROXS  H3323594  10.567  14.190  13.127  0.8759  3.6020  1.3173
  132PROXS   O123595  10.415  14.450  12.985  0.3847 -0.6034 -0.4424
  132PROXS   C123596  10.354  14.573  13.035 -0.9889 -0.0530  0.1817
  132PROXS  H1123597  10.429  14.630  13.093 -1.5768 -1.4622  2.4551
  132PROXS  H1323598  10.311  14.630  12.950  1.3842  2.6727  0.6677
  132PROXS   C223599  10.245  14.531  13.137  0.5941  0.2785 -0.3101
  132PROXS  H2123600  10.272  14.455  13.214 -1.2623 -1.6319 -1.4525
  132PROXS   C323601  10.132  14.458  13.065  0.1832  0.6556 -0.3519
  132PROXS  H3123602  10.091  14.532  12.993 -2.0750 -0.1548  0.0375
  132PROXS  H3223603  10.172  14.367  13.015 -0.9660 -0.3705  0.5274
  132PROXS  H3323604  10.048  14.427  13.130  1.2025  1.2711  1.3319
  133PROXS   O123605  10.190  14.644  13.204  0.0117  0.7566  0.2724
  133PROXS   C123606  10.267  14.690  13.313 -0.3736 -0.3117 -0.1525
  133PROXS  H1123607  10.292  14.609  13.384  0.3800 -0.5950 -0.7234
  133PROXS  H1323608  10.364  14.722  13.269 -0.9317 -1.4813 -2.3854
  133PROXS   C223609  10.193  14.801  13.396 -0.2884  1.3053  0.0723
  133PROXS  H2123610  10.093  14.754  13.414 -0.1653  0.0874 -2.1644
  133PROXS   C323611  10.176  14.931  13.310 -0.4302  0.6276 -0.2872
  133PROXS  H3123612  10.122  14.919  13.214  0.0521  3.1741 -0.9467
  133PROXS  H3223613  10.126  15.003  13.378 -0.3879 -2.1905  3.0127
  133PROXS  H3323614  10.274  14.977  13.287 -1.8808  3.3060 -1.5182
  134PROXS   O123615  10.275  14.838  13.506 -0.1672 -0.1431  0.6656
  134PROXS   C123616  10.201  14.876  13.618 -0.4066 -0.2626 -0.6776
  134PROXS  H1123617  10.107  14.932  13.598 -0.8538 -0.4043  0.8728
  134PROXS  H1323618  10.169  14.784  13.672 -0.5150  1.3268  2.1464
  134PROXS   C223619  10.297  14.958  13.713 -0.7370 -0.5639  0.1853
  134PROXS  H2123620  10.395  14.906  13.720 -0.5432 -0.0686  1.4924
  134PROXS   C323621  10.242  14.980  13.848 -0.4494 -0.2352 -0.1660
  134PROXS  H3123622  10.144  15.031  13.855  0.1559  1.0827 -1.0416
  134PROXS  H3223623  10.221  14.881  13.896  0.1363 -0.3050 -0.0453
  134PROXS  H3323624  10.318  15.034  13.909  1.5338 -0.6715 -2.1346
  135PROXS   O123625  10.313  15.087  13.664  0.3698  0.7214 -0.4858
  135PROXS   C123626  10.430  15.108  13.571  0.6462 -0.6863 -0.2604
  135PROXS  H1123627  10.526  15.081  13.620  0.4653 -1.1875 -0.1809
  135PROXS  H1323628  10.419  15.030  13.493  0.7988 -1.4819  0.4988
  135PROXS   C223629  10.431  15.249  13.517  0.0020  0.9784 -0.0620
  135PROXS  H2123630  10.406  15.315  13.602  2.1360  0.8394  0.7503
  135PROXS   C323631  10.320  15.269  13.410 -0.2486  0.2363 -0.0785
  135PROXS  H3123632  10.223  15.217  13.425  1.0764 -3.0852 -1.9209
  135PROXS  H3223633  10.308  15.377  13.388  0.1665  0.1343 -0.8458
  135PROXS  H3323634  10.357  15.217  13.319 -2.3683 -0.9131 -0.3529
  136PROXS   O123635  10.559  15.283  13.458  0.4747 -0.0517  0.1718
  136PROXS   C123636  10.658  15.309  13.547  0.4959 -0.2841 -0.6427
  136PROXS  H1123637  10.634  15.399  13.608 -1.3001 -1.4141  0.4059
  136PROXS  H1323638  10.671  15.236  13.630 -1.7996  1.7362  1.6899
  136PROXS   C223639  10.791  15.317  13.465  0.5344 -0.4491 -0.3621
  136PROXS  H2123640  10.770  15.389  13.383 -1.3036  0.8495  1.1695
  136PROXS   C323641  10.834  15.181  13.402  0.0069 -0.1994 -0.3663
  136PROXS  H3123642  10.915  15.203  13.329  0.3964 -0.0913  0.0915
  136PROXS  H3223643  10.882  15.113  13.475 -0.6463 -0.2048  0.0612
  136PROXS  H3323644  10.753  15.130  13.346  1.6629 -1.2872 -1.9031
  137PROXS   O123645  10.897  15.362  13.544  0.3253  0.4297 -0.6173
  137PROXS   C123646  10.923  15.498  13.527 -0.5535 -0.5359 -0.3021
  137PROXS  H1123647  10.823  15.546  13.532 -0.5005 -0.4983  0.4843
  137PROXS  H1323648  10.972  15.533  13.620  0.9183 -3.1626  0.0066
  137PROXS   C223649  11.014  15.528  13.409 -0.4746  0.0310 -0.2335
  137PROXS  H2123650  10.977  15.481  13.315  1.2487 -0.9601 -0.4599
  137PROXS   C323651  11.160  15.474  13.424  0.2782  0.3029 -0.4573
  137PROXS  H3123652  11.204  15.500  13.522 -0.8783  0.4201  0.0511
  137PROXS  H3223653  11.155  15.363  13.420  0.0302  0.2750  0.5289
  137PROXS  H3323654  11.225  15.516  13.344  0.1678  1.8376  0.2190
  138PROXR   O123655  11.019  15.673  13.389 -0.7332  0.1349  0.3301
  138PROXR   C123656  10.896  15.724  13.366  0.0361 -0.6185 -0.4791
  138PROXR  H1123657  10.845  15.640  13.312  1.4062 -1.7014 -0.1468
  138PROXR  H1323658  10.855  15.748  13.466 -0.8781 -0.1308 -0.9525
  138PROXR   C223659  10.888  15.857  13.283  0.2171 -0.0060 -0.5424
  138PROXR  H2123660  10.934  15.833  13.184  1.5147  1.6650 -0.4026
  138PROXR   C323661  10.958  15.982  13.349  0.3043 -0.1270 -0.3536
  138PROXR  H3123662  10.941  16.073  13.288 -1.4142 -0.3440 -0.2432
  138PROXR  H3223663  10.905  15.998  13.445 -1.0699 -0.2980 -1.0612
  138PROXR  H3323664  11.064  15.950  13.363  0.0187 -0.7068  0.6689
  139PROXS   O123665  10.750  15.886  13.265 -0.2504 -0.3812 -0.1928
  139PROXS   C123666  10.715  15.938  13.132 -0.6178  0.0240 -0.2123
  139PROXS  H1123667  10.766  16.036  13.119 -0.9210  0.3970  1.2500
  139PROXS  H1323668  10.740  15.870  13.048 -0.1368  0.9350 -0.8225
  139PROXS   C223669  10.567  15.960  13.123  0.5554  0.3801 -0.5435
  139PROXS  H2123670  10.534  16.045  13.187  2.9586  1.4113 -0.5368
  139PROXS   C323671  10.490  15.827  13.162  0.2751  0.0659  0.5503
  139PROXS  H3123672  10.504  15.788  13.265 -1.2613 -1.6049  0.1928
  139PROXS  H3223673  10.379  15.833  13.151 -0.0793 -5.0214 -1.4032
  139PROXS  H3323674  10.513  15.751  13.084  0.1596 -0.7278  1.2684
  140PROXR   O123675  10.535  15.999  12.988 -0.5877  0.0877 -0.2007
  140PROXR   C123676  10.417  16.073  12.963  0.2340  0.2606  0.1840
  140PROXR  H1123677  10.338  16.028  13.027  0.3184  1.1922  0.9771
  140PROXR  H1323678  10.424  16.178  12.998  0.0920  0.2775  0.1608
  140PROXR   C223679  10.380  16.078  12.815  0.2552 -0.0877 -0.0585
  140PROXR  H2123680  10.372  15.975  12.776  0.3224  0.1943 -0.8476
  140PROXR   C323681  10.487  16.171  12.737  0.0568  0.2207  0.2336
  140PROXR  H3123682  10.466  16.272  12.777 -0.5864  0.2221 -0.0958
  140PROXR  H3223683  10.586  16.128  12.764  0.6638 -0.7736 -3.0455
  140PROXR  H3323684  10.479  16.185  12.627 -0.7351  1.4237  0.4263
  141PROXS   O123685  10.254  16.149  12.810 -0.9881 -0.0008  0.1826
  141PROXS   C123686  10.194  16.151  12.679 -0.8871  0.3462 -0.0866
  141PROXS  H1123687  10.237  16.227  12.610  0.5943 -1.0490 -0.7704
  141PROXS  H1323688  10.215  16.060  12.619 -2.9689  1.3103 -2.4788
  141PROXS   C223689  10.036  16.185  12.676 -0.4144 -0.2935 -0.4831
  141PROXS  H2123690   9.984  16.109  12.737 -1.9358  2.7634  2.2773
  141PROXS   C323691   9.975  16.193  12.541  0.0091  0.1950  0.9592
  141PROXS  H3123692   9.867  16.172  12.560  0.3357 -1.1625  1.4820
  141PROXS  H3223693   9.985  16.286  12.481 -2.0123 -0.1706 -0.0228
  141PROXS  H3323694  10.025  16.110  12.486  1.9493  2.7945 -1.5153
  142PROXS   O123695  10.019  16.306  12.742  0.1117  0.0352 -0.2694
  142PROXS   C123696   9.884  16.334  12.791  0.3135  0.0189 -0.1320
  142PROXS  H1123697   9.805  16.271  12.745 -2.0416  2.9182 -0.3479
  142PROXS  H1323698   9.878  16.307  12.899 -0.6385  1.1929  0.1247
  142PROXS   C223699   9.834  16.486  12.789  0.6360  0.6045  0.2429
  142PROXS  H2123700   9.875  16.535  12.698  3.1758 -1.6926  0.0125
  142PROXS   C323701   9.887  16.569  12.911  0.2932 -0.1723  0.4096
  142PROXS  H3123702   9.839  16.670  12.913 -2.8815 -1.5808  0.4855
  142PROXS  H3223703   9.872  16.514  13.006  0.0301  0.3478  0.6749
  142PROXS  H3323704   9.996  16.585  12.892 -0.2562  0.5067 -2.6347
  143PROXS   O123705   9.693  16.487  12.801 -0.1821  0.2294  0.5534
  143PROXS   C123706   9.632  16.599  12.734 -0.1532 -0.3712 -0.4222
  143PROXS  H1123707   9.659  16.691  12.789  1.0495 -1.1325  0.2929
  143PROXS  H1323708   9.678  16.608  12.633  3.3631  0.8580  1.1493
  143PROXS   C223709   9.478  16.583  12.717 -0.3414 -0.4050  0.0253
  143PROXS  H2123710   9.460  16.495  12.653  0.5457 -2.2866  2.2238
  143PROXS   C323711   9.422  16.706  12.647 -0.1234  0.3966 -0.5528
  143PROXS  H3123712   9.466  16.718  12.546  1.0206 -2.3654 -0.4848
  143PROXS  H3223713   9.312  16.690  12.640 -0.3765  1.8820 -0.2776
  143PROXS  H3323714   9.441  16.797  12.707  1.3529  0.1252 -0.5814
  144PROXS   O123715   9.405  16.582  12.844  0.2115  0.5029  0.3716
  144PROXS   C123716   9.413  16.467  12.919  0.5939 -0.1486 -0.3480
  144PROXS  H1123717   9.516  16.431  12.939 -0.0901 -2.9421 -1.3562
  144PROXS  H1323718   9.374  16.498  13.018  1.3900 -0.5839  0.1112
  144PROXS   C223719   9.312  16.366  12.862 -0.4779  0.3080  0.2941
  144PROXS  H2123720   9.329  16.330  12.759 -0.9796  0.2125  0.2421
  144PROXS   C323721   9.164  16.410  12.857  0.2929  0.4367 -0.1881
  144PROXS  H3123722   9.091  16.334  12.823  2.4442 -0.4770 -3.1586
  144PROXS  H3223723   9.151  16.439  12.963  0.9332 -1.7087  0.5235
  144PROXS  H3323724   9.156  16.504  12.798  1.3323  1.7537  1.6597
  145PROXR   O123725   9.312  16.245  12.941 -0.1803 -0.2133 -0.5599
  145PROXR   C123726   9.420  16.160  12.921 -0.0876  0.4069  0.1309
  145PROXR  H1123727   9.430  16.140  12.813 -1.9903  0.2461 -0.0383
  145PROXR  H1323728   9.518  16.202  12.956  0.8488  0.7454 -2.6429
  145PROXR   C223729   9.399  16.025  12.999 -0.2204 -0.5209  0.3580
  145PROXR  H2123730   9.293  16.002  12.977 -0.6332  1.9708 -0.6608
  145PROXR   C323731   9.432  16.038  13.147  0.3102  0.3488 -0.3140
  145PROXR  H3123732   9.375  16.127  13.181 -0.6391 -1.2206  2.4992
  145PROXR  H3223733   9.405  15.952  13.212  1.1030  0.1827 -0.1866
  145PROXR  H3323734   9.542  16.052  13.155  0.5824 -1.7332  0.2477
  146PROXS   O123735   9.484  15.928  12.934 -0.7101  0.1168 -0.5076
  146PROXS   C123736   9.410  15.815  12.888 -0.4212 -0.0773  0.1286
  146PROXS  H1123737   9.373  15.763  12.979  1.0114  0.3231  0.9662
  146PROXS  H1323738   9.326  15.851  12.825  0.4640 -1.1617 -1.7657
  146PROXS   C223739   9.501  15.732  12.796  0.1148 -0.0015 -0.3088
  146PROXS  H2123740   9.590  15.699  12.853  1.5510  0.8310 -1.9891
  146PROXS   C323741   9.551  15.816  12.683  0.0945 -0.0906 -0.3641
  146PROXS  H3123742   9.581  15.921  12.705 -2.0604  0.7199 -0.9296
  146PROXS  H3223743   9.625  15.758  12.624 -1.5406 -1.4998 -1.1383
  146PROXS  H3323744   9.466  15.837  12.614  1.3056 -1.2971 -2.3587
  147PROXR   O123745   9.433  15.622  12.747  0.2441  0.6075 -0.0776
  147PROXR   C123746   9.403  15.530  12.855 -0.2114  0.0716  0.2163
  147PROXR  H1123747   9.490  15.527  12.924 -0.9880 -0.4721  1.1975
  147PROXR  H1323748   9.312  15.564  12.908 -1.6161  0.3831 -2.2201
  147PROXR   C223749   9.373  15.387  12.801  0.0536  0.2762  0.3710
  147PROXR  H2123750   9.329  15.385  12.699 -1.4288 -0.5074  0.9953
  147PROXR   C323751   9.281  15.304  12.888 -0.1388 -0.0400 -0.5803
  147PROXR  H3123752   9.332  15.302  12.987  0.4071 -2.0415 -0.8618
  147PROXR  H3223753   9.184  15.355  12.902  0.5677  0.7952  1.6798
  147PROXR  H3323754   9.269  15.199  12.852 -1.0368 -0.5642  1.1558
  148PROXR   O123755   9.492  15.314  12.792 -0.3059 -0.9083 -0.3473
  148PROXR   C123756   9.567  15.336  12.674 -0.1982  0.5641 -0.1400
  148PROXR  H1123757   9.526  15.281  12.587  1.1264  0.5096 -0.7517
  148PROXR  H1323758   9.578  15.446  12.664  3.2038  0.2855 -0.6851
  148PROXR   C223759   9.709  15.289  12.717 -0.1587 -0.6704  0.1077
  148PROXR  H2123760   9.713  15.179  12.736  2.6933 -1.3482 -3.2159
  148PROXR   C323761   9.749  15.368  12.839 -0.2113  0.4147 -0.0643
  148PROXR  H3123762   9.857  15.348  12.856  0.3703  1.2080 -2.4670
  148PROXR  H3223763   9.724  15.476  12.833 -0.0707  0.4029 -1.1189
  148PROXR  H3323764   9.692  15.330  12.926  0.9716 -1.1893  0.0598
  149PROXR   O123765   9.779  15.324  12.602  0.1451  1.0207 -0.3426
  149PROXR   C123766   9.824  15.206  12.526 -0.2741 -0.3175  0.7236
  149PROXR  H1123767   9.910  15.157  12.576 -0.0307  0.8757  1.5146
  149PROXR  H1323768   9.744  15.129  12.519  0.9191 -1.6990  1.7652
  149PROXR   C223769   9.868  15.250  12.383  0.1488 -0.7788  0.4983
  149PROXR  H2123770   9.954  15.321  12.385 -0.5686  0.1023  1.1167
  149PROXR   C323771   9.755  15.313  12.302  0.0052 -0.7814 -1.0202
  149PROXR  H3123772   9.673  15.238  12.303 -0.7028 -0.0152 -1.1566
  149PROXR  H3223773   9.717  15.412  12.333  1.0761 -1.1914  1.9075
  149PROXR  H3323774   9.788  15.333  12.197  0.3189  1.5175 -0.5252
  150PROXS   O123775   9.904  15.131  12.321 -0.4601  0.0956  0.7387
  150PROXS   C123776  10.041  15.095  12.338 -0.1162 -0.3674  0.3841
  150PROXS  H1123777  10.108  15.178  12.306  0.0777 -1.5892 -2.8221
  150PROXS  H1323778  10.053  15.070  12.445  0.2013 -2.5701 -0.1133
  150PROXS   C223779  10.074  14.974  12.245  0.3316  0.9091  0.4936
  150PROXS  H2123780  10.077  15.010  12.140 -0.4550  1.0001  0.4970
  150PROXS   C323781   9.972  14.862  12.251  0.9614 -0.0740  0.4353
  150PROXS  H3123782   9.877  14.913  12.224  0.4757 -1.2026 -0.0516
  150PROXS  H3223783   9.990  14.781  12.177  0.6843  0.3566 -0.1174
  150PROXS  H3323784   9.962  14.837  12.358 -2.3583  1.1580  0.5300
  151PROXR   O123785  10.194  14.918  12.286  0.1310 -0.9141 -0.7289
  151PROXR   C123786  10.265  14.855  12.187 -0.4983  0.6191 -0.4175
  151PROXR  H1123787  10.209  14.760  12.171  1.0780 -0.3838 -0.1392
  151PROXR  H1323788  10.273  14.915  12.094  0.3308 -0.8733 -1.3436
  151PROXR   C223789  10.406  14.813  12.235  0.1272  0.5429 -0.3577
  151PROXR  H2123790  10.387  14.762  12.332 -2.0208  1.3558 -0.2879
  151PROXR   C323791  10.502  14.928  12.257  0.1732 -0.3258  0.0002
  151PROXR  H3123792  10.594  14.906  12.314  0.9588  0.4161 -0.9568
  151PROXR  H3223793  10.533  14.949  12.152 -2.4878 -2.1126 -1.2725
  151PROXR  H3323794  10.454  15.017  12.302  1.7046 -0.2505  1.6089
  152PROXR   O123795  10.454  14.722  12.138 -0.1484  0.0755  0.1384
  152PROXR   C123796  10.542  14.633  12.196  0.1169  0.5357 -0.1685
  152PROXR  H1123797  10.606  14.682  12.273 -0.4671 -1.0094  1.3440
  152PROXR  H1323798  10.486  14.546  12.235 -0.3577  0.8672 -0.0900
  152PROXR   C223799  10.645  14.583  12.096 -0.5937  0.1450  0.3596
  152PROXR  H2123800  10.695  14.673  12.055 -1.4820 -0.1075 -1.3620
  152PROXR   C323801  10.585  14.495  11.989  0.3050 -0.1934  0.0824
  152PROXR  H3123802  10.651  14.498  11.900  0.2111  1.3355  0.0357
  152PROXR  H3223803  10.574  14.391  12.026  0.1615 -0.6366 -1.1717
  152PROXR  H3323804  10.478  14.518  11.969  0.0838  0.8186  2.0902
  153PROXR   O123805  10.745  14.496  12.160  0.2964  0.1249  0.4789
  153PROXR   C123806  10.876  14.527  12.119  0.3855 -0.7655 -0.2130
  153PROXR  H1123807  10.883  14.537  12.009  1.9971  2.6788  0.0873
  153PROXR  H1323808  10.919  14.621  12.160  3.0051 -2.8746  2.3242
  153PROXR   C223809  10.960  14.413  12.161 -0.9909  0.1846  0.0953
  153PROXR  H2123810  10.928  14.316  12.117  0.2697  0.3692 -1.3305
  153PROXR   C323811  10.949  14.386  12.311  0.3463  0.6232 -0.0040
  153PROXR  H3123812  10.981  14.471  12.375 -0.8155  1.1891 -0.1590
  153PROXR  H3223813  10.843  14.367  12.338 -0.2578  0.6216 -2.1849
  153PROXR  H3323814  11.002  14.289  12.325 -0.2554 -0.2458 -3.0748
  154PROXS   O123815  11.095  14.431  12.114  0.4800 -0.1710  0.2487
  154PROXS   C123816  11.125  14.413  11.976 -0.8200  1.0143  0.5057
  154PROXS  H1123817  11.116  14.305  11.956 -0.6511  1.1030 -0.1024
  154PROXS  H1323818  11.059  14.473  11.909 -1.6077 -0.1783  0.1997
  154PROXS   C223819  11.268  14.436  11.945 -0.0248  0.1307 -0.3067
  154PROXS  H2123820  11.324  14.380  12.023  0.5651 -0.4104 -1.1092
  154PROXS   C323821  11.301  14.591  11.969 -0.0918  0.0744  0.2710
  154PROXS  H3123822  11.251  14.654  11.893 -0.4751  0.5336  0.9020
  154PROXS  H3223823  11.266  14.621  12.069  0.8091 -0.1272  0.6557
  154PROXS  H3323824  11.410  14.610  11.960  0.0667 -1.1263 -0.8049
  155PROXR   O123825  11.282  14.394  11.810 -0.0851 -0.2381  0.7612
  155PROXR   C123826  11.419  14.407  11.766 -0.7412 -0.5570 -0.3750
  155PROXR  H1123827  11.433  14.515  11.745 -3.3372  0.2956  1.7696
  155PROXR  H1323828  11.482  14.379  11.852 -0.9725  0.1568  0.0335
  155PROXR   C223829  11.444  14.332  11.634 -0.4700  0.1208 -0.0219
  155PROXR  H2123830  11.383  14.240  11.646 -0.9181  0.5355  0.9288
  155PROXR   C323831  11.595  14.298  11.617  0.6509  0.4559 -0.1355
  155PROXR  H3123832  11.657  14.389  11.624 -1.0284  1.7084 -0.8727
  155PROXR  H3223833  11.624  14.243  11.710 -1.8927  0.1989  0.5976
  155PROXR  H3323834  11.620  14.231  11.532  2.1107 -0.9512  1.3304
  156PROXS   O123835  11.394  14.391  11.517  0.1062 -0.1478  0.3367
  156PROXS   C123836  11.253  14.398  11.508  0.1829  0.2532  0.1600
  156PROXS  H1123837  11.214  14.295  11.495 -0.1216 -0.1355  3.2629
  156PROXS  H1323838  11.210  14.445  11.599 -3.1658  3.4436 -2.7244
  156PROXS   C223839  11.207  14.493  11.389 -0.4804 -0.0828 -0.2894
  156PROXS  H2123840  11.255  14.457  11.296 -1.4825 -1.4328 -0.3039
  156PROXS   C323841  11.241  14.638  11.416 -0.5220 -0.6771  0.0500
  156PROXS  H3123842  11.224  14.713  11.334 -1.2888 -1.1156 -0.2030
  156PROXS  H3223843  11.187  14.681  11.503  2.1549 -0.7667  1.8729
  156PROXS  H3323844  11.350  14.637  11.437 -0.3481  0.8372 -0.6231
  157PROXS   O123845  11.070  14.488  11.372 -0.2812  0.3695  0.6460
  157PROXS   C123846  11.027  14.526  11.243  0.6153 -0.5879  0.1782
  157PROXS  H1123847  11.037  14.636  11.229 -1.1132 -0.5691 -1.1206
  157PROXS  H1323848  11.095  14.475  11.172  0.5384 -1.7121  0.8917
  157PROXS   C223849  10.878  14.497  11.215  0.0432 -0.7854  0.2706
  157PROXS  H2123850  10.853  14.398  11.259  1.4207 -0.6555  1.4509
  157PROXS   C323851  10.835  14.499  11.066 -0.0673 -0.4848  0.4399
  157PROXS  H3123852  10.725  14.501  11.051  0.0169 -0.6345 -0.2171
  157PROXS  H3223853  10.877  14.590  11.017 -2.7413  0.4088 -0.3528
  157PROXS  H3323854  10.887  14.418  11.010  1.6176  0.1737  0.9892
  158PROXR   O123855  10.799  14.594  11.288 -0.1107 -0.4369 -0.5870
  158PROXR   C123856  10.667  14.536  11.307  0.2252 -0.4003 -1.0070
  158PROXR  H1123857  10.593  14.612  11.273 -1.3974 -1.7157 -0.5621
  158PROXR  H1323858  10.652  14.444  11.247  1.1607 -2.8749  2.2179
  158PROXR   C223859  10.634  14.504  11.465 -0.3196 -0.2088  0.5402
  158PROXR  H2123860  10.651  14.602  11.515  0.6872 -0.5603  0.9072
  158PROXR   C323861  10.732  14.403  11.525 -0.4405  0.3238 -0.7603
  158PROXR  H3123862  10.834  14.431  11.491 -0.9439  0.7453 -1.9472
  158PROXR  H3223863  10.727  14.401  11.636 -2.0428  0.4101 -0.8196
  158PROXR  H3323864  10.714  14.297  11.498  1.1987 -0.5509  1.2543
  159PROXR   O123865  10.498  14.455  11.477  0.1582 -0.6927 -0.0703
  159PROXR   C123866  10.422  14.511  11.584  0.0798 -0.2089 -0.5155
  159PROXR  H1123867  10.470  14.500  11.684  1.6533  0.8742 -1.1129
  159PROXR  H1323868  10.418  14.620  11.566  2.6781  0.1706  0.6584
  159PROXR   C223869  10.288  14.442  11.595 -0.0957  0.9336 -0.5342
  159PROXR  H2123870  10.302  14.337  11.628  0.1796  0.6707 -1.4375
  159PROXR   C323871  10.203  14.433  11.463 -0.4092 -0.5470 -0.1680
  159PROXR  H3123872  10.176  14.532  11.422  0.9769 -0.5729 -1.2209
  159PROXR  H3223873  10.258  14.381  11.382 -0.5144  0.0323 -0.6114
  159PROXR  H3323874  10.105  14.383  11.479 -1.6743  1.5277 -1.1104
  160PROXS   O123875  10.207  14.507  11.690  0.3460 -0.5048  0.0790
  160PROXS   C123876  10.101  14.428  11.741  0.3514 -0.3023 -0.4825
  160PROXS  H1123877  10.018  14.425  11.668  0.8617 -0.5216 -1.0661
  160PROXS  H1323878  10.128  14.322  11.761  0.8570 -0.1411 -0.2816
  160PROXS   C223879  10.054  14.504  11.872  0.4846  0.5605  0.8094
  160PROXS  H2123880  10.061  14.611  11.845 -0.1146  0.3873 -0.0720
  160PROXS   C323881  10.138  14.490  11.993 -0.1440 -0.6153 -0.3214
  160PROXS  H3123882  10.244  14.520  11.976 -0.1350 -0.6667 -0.3512
  160PROXS  H3223883  10.087  14.543  12.076 -1.0991 -1.0220 -0.6310
  160PROXS  H3323884  10.143  14.383  12.024  0.5471 -0.2671  0.8236
  161PROXR   O123885   9.917  14.464  11.888 -0.1483 -0.5243 -0.0687
  161PROXR   C123886   9.831  14.569  11.860 -0.5886  0.1253  0.4969
  161PROXR  H1123887   9.861  14.668  11.901 -1.4422  1.0759 -1.0763
  161PROXR  H1323888   9.814  14.581  11.751 -5.1359  2.2106  1.2070
  161PROXR   C223889   9.688  14.531  11.909  0.4978  0.5914  0.0231
  161PROXR  H2123890   9.692  14.478  12.006 -2.1187  1.6769  0.8391
  161PROXR   C323891   9.618  14.436  11.816 -0.8156 -0.1900 -0.3957
  161PROXR  H3123892   9.521  14.394  11.851 -0.6118  0.8739  1.5936
  161PROXR  H3223893   9.598  14.493  11.723 -2.9876  2.1701  1.3540
  161PROXR  H3323894   9.682  14.348  11.796 -0.2322 -0.3081  1.7248
  162PROXR   O123895   9.615  14.645  11.937  0.2215 -0.0704 -0.0480
  162PROXR   C123896   9.490  14.623  12.002  0.3377 -0.2232  0.8060
  162PROXR  H1123897   9.421  14.569  11.934 -0.2321  3.6987 -2.0478
  162PROXR  H1323898   9.500  14.553  12.088  1.6203  0.6436  1.3878
  162PROXR   C223899   9.415  14.757  12.036  0.1620  0.8691  0.2320
  162PROXR  H2123900   9.438  14.828  11.954  1.3644 -0.2978 -0.4919
  162PROXR   C323901   9.476  14.807  12.164 -0.5064 -0.0390  0.5720
  162PROXR  H3123902   9.441  14.909  12.189  2.2314  1.5816 -1.6713
  162PROXR  H3223903   9.467  14.744  12.256 -0.8772 -0.3821  0.3052
  162PROXR  H3323904   9.585  14.825  12.155 -0.5430  0.7087  1.4341
  163PROXS   O123905   9.272  14.730  12.052 -0.2758 -0.0119  0.1012
  163PROXS   C123906   9.193  14.838  12.025 -0.4461 -0.1687 -0.0853
  163PROXS  H1123907   9.218  14.922  12.093 -2.9678  1.0218 -0.4981
  163PROXS  H1323908   9.197  14.856  11.915  2.0669 -0.1836 -0.0590
  163PROXS   C223909   9.043  14.810  12.040  0.1332 -0.0758 -0.9203
  163PROXS  H2123910   9.013  14.775  12.141 -0.4598 -0.1111 -1.1049
  163PROXS   C323911   8.989  14.707  11.943 -0.1774 -0.4749 -0.7438
  163PROXS  H3123912   9.031  14.605  11.951 -0.0321 -0.2970  1.7174
  163PROXS  H3223913   8.879  14.716  11.943 -0.0250  2.7707 -0.0437
  163PROXS  H3323914   9.020  14.737  11.841  0.3946  3.5218  0.4237
  164PROXR   O123915   8.971  14.933  12.015 -0.3475  0.7585 -0.2177
  164PROXR   C123916   8.978  15.025  12.120  0.3364 -0.1632 -0.3042
  164PROXR  H1123917   8.919  14.982  12.204 -0.0272 -0.5323 -0.7457
  164PROXR  H1323918   9.081  15.046  12.157  0.2681 -0.9611  0.3664
  164PROXR   C223919   8.906  15.165  12.082 -0.0125 -0.5220  0.2746
  164PROXR  H2123920   8.797  15.148  12.068 -0.0900  1.0456 -1.5111
  164PROXR   C323921   8.967  15.217  11.955  0.3445  0.0610  0.1904
  164PROXR  H3123922   9.071  15.253  11.971 -1.1607  4.1639  2.2364
  164PROXR  H3223923   8.970  15.146  11.869 -0.6883 -0.1683  0.3311
  164PROXR  H3323924   8.903  15.303  11.925  0.2279  0.4223  1.4534
  165PROXR   O123925   8.932  15.253  12.188 -0.3986  0.4045 -0.3307
  165PROXR   C123926   8.853  15.369  12.184  0.0757  1.3002 -0.4064
  165PROXR  H1123927   8.825  15.396  12.080 -0.4752 -3.2170 -1.6461
  165PROXR  H1323928   8.768  15.363  12.255 -1.0173  0.6063 -1.7384
  165PROXR   C223929   8.940  15.485  12.228 -0.1213 -0.3767 -0.6049
  165PROXR  H2123930   9.015  15.496  12.147  0.9780  1.7482  0.5995
  165PROXR   C323931   9.018  15.467  12.361  0.8302 -0.2208 -0.3988
  165PROXR  H3123932   9.052  15.363  12.375  3.7061  0.4967 -1.2640
  165PROXR  H3223933   9.105  15.536  12.353  0.9823 -0.5681 -2.5303
  165PROXR  H3323934   8.964  15.489  12.455  0.3929 -1.0527 -0.4521
  166ETHOX   O123935   8.866  15.608  12.224 -0.4233 -0.7028 -0.6745
  166ETHOX   C123936   8.949  15.723  12.251  0.0613 -1.3873  0.3246
  166ETHOX  H1123937   9.008  15.746  12.160 -0.0047  0.1150  0.6432
  166ETHOX  H1323938   9.017  15.719  12.339 -0.0235 -1.0318  0.4084
  166ETHOX   C223939   8.863  15.850  12.277  0.2677 -0.4720  0.5203
  166ETHOX  H2123940   8.798  15.880  12.192  0.4967  1.6479  1.0333
  166ETHOX  H2323941   8.939  15.929  12.293  0.1954 -0.2853 -0.0172
  167ETHOX   O123942   8.779  15.838  12.395  0.0994  0.1126  0.1708
  167ETHOX   C123943   8.720  15.969  12.431  0.2637  0.6543  0.8792
  167ETHOX  H1123944   8.791  16.037  12.481 -1.4525  2.1884  1.3228
  167ETHOX  H1323945   8.681  16.018  12.340 -0.0180 -1.5146 -0.2529
  167ETHOX   C223946   8.616  15.937  12.537 -0.7703 -0.6252 -0.2365
  167ETHOX  H2123947   8.666  15.871  12.610 -0.7193 -0.8993 -0.5166
  167ETHOX  H2323948   8.535  15.879  12.486  0.2635 -0.3396 -2.3287
  168ETHOX   O123949   8.569  16.057  12.597 -0.3278 -0.5617  0.2224
  168ETHOX   C123950   8.518  16.029  12.722  0.1231  0.3016  0.5690
  168ETHOX  H1123951   8.602  16.007  12.791  0.2275 -0.9272  0.0816
  168ETHOX  H1323952   8.450  15.942  12.713  1.0807 -0.4477  0.4023
  168ETHOX   C223953   8.424  16.147  12.770  0.7770 -0.4437 -0.2675
  168ETHOX  H2123954   8.376  16.118  12.866  1.5284  1.4632  0.7362
  168ETHOX  H2323955   8.345  16.144  12.692 -0.8079  0.0723  1.2498
  169ETHOX   O123956   8.492  16.274  12.779  0.5054 -0.2546  0.8625
  169ETHOX   C123957   8.430  16.368  12.870 -0.0331 -0.4546 -0.0648
  169ETHOX  H1123958   8.319  16.363  12.877 -0.0320  0.7923  1.2820
  169ETHOX  H1323959   8.471  16.338  12.968 -1.5664 -0.1593  0.6961
  169ETHOX   C223960   8.475  16.516  12.844  0.2447  0.0429 -0.4810
  169ETHOX  H2123961   8.421  16.586  12.912 -1.5176  1.1259 -2.8615
  169ETHOX  H2323962   8.453  16.554  12.742 -0.2864 -0.3109 -0.5053
  170ETHOX   O123963   8.610  16.532  12.874 -0.0667 -0.8836  0.3575
  170ETHOX   C123964   8.696  16.454  12.792 -0.4900  0.7147  0.5734
  170ETHOX  H1123965   8.659  16.447  12.688 -0.3875  2.1534  0.4209
  170ETHOX  H1323966   8.700  16.349  12.829 -0.0846  0.2650 -0.6971
  170ETHOX   C223967   8.838  16.522  12.777  0.9525  1.2702 -0.0016
  170ETHOX  H2123968   8.903  16.455  12.718  1.0203  0.8111  0.5877
  170ETHOX  H2323969   8.890  16.550  12.871  1.7219 -0.5824  0.1682
  171ETHOX   O123970   8.822  16.634  12.695 -0.6844 -0.3478  0.2987
  171ETHOX   C123971   8.957  16.671  12.639 -0.2767  0.3221  0.4858
  171ETHOX  H1123972   9.016  16.689  12.731 -2.5934  0.7290  1.9764
  171ETHOX  H1323973   8.989  16.580  12.583 -1.0385 -1.1559  2.3300
  171ETHOX   C223974   8.957  16.797  12.553  0.3304  0.3935  0.0822
  171ETHOX  H2123975   8.852  16.816  12.521 -0.9197  1.3376  4.2428
  171ETHOX  H2323976   9.006  16.772  12.456  0.8067 -0.6707  0.5864
  172ETHOX   O123977   9.011  16.912  12.616  0.2517  0.2457  0.0540
  172ETHOX   C123978   8.909  16.982  12.686  0.0554  0.3023 -0.5032
  172ETHOX  H1123979   8.834  16.906  12.718 -1.6988  1.6502 -1.2797
  172ETHOX  H1323980   8.852  17.049  12.619  0.0222  1.9861  1.1252
  172ETHOX   C223981   8.982  17.048  12.810  0.6052  0.3414  0.8560
  172ETHOX  H2123982   8.904  17.112  12.856  0.0418  1.4508 -1.5162
  172ETHOX  H2323983   9.067  17.110  12.776 -1.0590  1.3338 -1.7840
  173ETHOX   O123984   9.018  16.962  12.920  0.2888 -0.3456  0.1225
  173ETHOX   C123985   9.147  16.905  12.901  0.0603 -0.3166  0.4788
  173ETHOX  H1123986   9.161  16.852  12.805  1.5517  1.5952 -0.4226
  173ETHOX  H1323987   9.221  16.986  12.915  0.1833 -0.1622 -0.9097
  173ETHOX   C223988   9.166  16.792  13.011  0.5550 -0.1305 -0.2881
  173ETHOX  H2123989   9.066  16.747  13.026 -0.5208  1.4591 -2.1446
  173ETHOX  H2323990   9.246  16.721  12.982  0.5831 -0.4552  0.5499
  174ETHOX   O123991   9.224  16.854  13.128  0.0680 -0.1298  0.3629
  174ETHOX   C123992   9.238  16.762  13.236 -0.4564 -0.1503  0.7593
  174ETHOX  H1123993   9.138  16.726  13.270 -1.0285  0.0127 -0.7036
  174ETHOX  H1323994   9.309  16.679  13.217  2.4725  2.2963  0.2425
  174ETHOX   C223995   9.295  16.837  13.363 -0.1860 -0.0067  0.1119
  174ETHOX  H2123996   9.258  16.775  13.448 -1.5049  1.1278  0.3997
  174ETHOX  H2323997   9.247  16.937  13.364 -2.8465 -1.1927  0.4793
  175ETHOX   O123998   9.439  16.832  13.364 -0.4866 -0.3591 -0.0291
  175ETHOX   C123999   9.490  16.920  13.467 -0.6366 -0.0208  0.1821
  175ETHOX  H1124000   9.565  16.984  13.415 -1.7965  1.0627 -0.1904
  175ETHOX  H1324001   9.410  16.992  13.490 -1.6842 -0.9194 -0.5562
  175ETHOX   C224002   9.554  16.847  13.588 -0.4603 -0.0796  0.0156
  175ETHOX  H2124003   9.472  16.790  13.639 -0.0146 -2.6711 -1.9526
  175ETHOX  H2324004   9.589  16.930  13.653  1.5136 -1.5567  0.9305
  176ETHOX   O124005   9.646  16.751  13.545  0.1096  0.2911 -0.0477
  176ETHOX   C124006   9.700  16.687  13.655 -0.0765  0.1360 -0.2808
  176ETHOX  H1124007   9.746  16.748  13.735  0.6903 -1.2266  0.3602
  176ETHOX  H1324008   9.617  16.637  13.710  1.0344 -0.9738  0.4155
  176ETHOX   C224009   9.794  16.575  13.622  0.2178  0.1213  0.0889
  176ETHOX  H2124010   9.747  16.512  13.543  0.6554 -0.0287 -0.0560
  176ETHOX  H2324011   9.806  16.512  13.713  1.3679 -0.3342 -0.3622
  177ETHOX   O124012   9.918  16.632  13.595 -0.2186  0.2489  0.2667
  177ETHOX   C124013  10.006  16.535  13.528  0.0457 -0.2198 -1.0380
  177ETHOX  H1124014   9.963  16.509  13.429  1.0548 -0.7529 -1.3609
  177ETHOX  H1324015  10.014  16.447  13.596 -0.5099 -2.6888 -3.9449
  177ETHOX   C224016  10.150  16.587  13.507 -0.2785 -0.0182  0.5053
  177ETHOX  H2124017  10.147  16.685  13.454  1.8294  0.8975  1.9283
  177ETHOX  H2324018  10.206  16.526  13.433  1.3314  2.0894 -0.1169
  178ETHOX   O124019  10.230  16.597  13.621 -0.3659 -0.0095 -0.7927
  178ETHOX   C124020  10.354  16.647  13.587 -0.2057 -0.3842  0.4581
  178ETHOX  H1124021  10.398  16.591  13.502 -1.8117  1.2570 -1.5607
  178ETHOX  H1324022  10.336  16.751  13.552  0.3240 -0.7007 -0.8312
  178ETHOX   C224023  10.446  16.646  13.714  0.3449 -0.2898  0.1219
  178ETHOX  H2124024  10.442  16.547  13.763 -1.8007 -1.0716 -1.4854
  178ETHOX  H2324025  10.399  16.720  13.782 -1.8020 -2.3049  0.9704
  179ETHOX   O124026  10.582  16.667  13.687  0.2769  1.1848 -0.2318
  179ETHOX   C124027  10.619  16.784  13.629  0.1880 -0.1055  0.5674
  179ETHOX  H1124028  10.586  16.868  13.695  0.4006  0.6010 -0.2076
  179ETHOX  H1324029  10.555  16.793  13.540 -1.7543 -2.8242  1.5732
  179ETHOX   C224030  10.769  16.784  13.593  0.9771  0.2086  0.2212
  179ETHOX  H2124031  10.833  16.752  13.678  3.0152 -2.1294 -2.0373
  179ETHOX  H2324032  10.807  16.883  13.560  2.5667 -1.3578 -3.1912
  180ETHOX   O124033  10.805  16.699  13.490 -0.2886 -0.0312 -0.5967
  180ETHOX   C124034  10.802  16.755  13.357 -0.0675 -0.8848  0.0715
  180ETHOX  H1124035  10.739  16.695  13.287 -0.1465  0.8359 -1.3895
  180ETHOX  H1324036  10.758  16.856  13.360 -2.0781 -1.6085 -1.9487
  180ETHOX   C224037  10.941  16.764  13.293  0.0009  0.3515 -0.8752
  180ETHOX  H2124038  11.030  16.786  13.355  0.4184  0.9149 -1.6443
  180ETHOX  H2324039  10.934  16.866  13.248 -0.1088  0.7382  0.0030
  181ETHOX   O124040  10.961  16.662  13.199 -0.2782 -0.2541 -0.1554
  181ETHOX   C124041  11.091  16.680  13.134  0.1636 -0.5564 -0.2567
  181ETHOX  H1124042  11.118  16.582  13.089  1.1458 -1.5656  2.2908
  181ETHOX  H1324043  11.171  16.718  13.202 -0.9081  0.0909  0.6809
  181ETHOX   C224044  11.084  16.781  13.019 -0.0190  0.3716 -0.9214
  181ETHOX  H2124045  10.988  16.788  12.963  0.9709  2.3961 -2.4954
  181ETHOX  H2324046  11.164  16.751  12.949 -0.4734  0.8393 -1.6557
  182ETHOX   O124047  11.113  16.913  13.073  0.2181 -0.3094 -0.2646
  182ETHOX   C124048  11.122  17.010  12.968  0.2876  0.8823  0.7694
  182ETHOX  H1124049  11.195  16.979  12.891  0.1432  0.7130  0.6996
  182ETHOX  H1324050  11.024  17.016  12.916  1.0078  0.5183 -0.6828
  182ETHOX   C224051  11.186  17.149  13.019 -0.7748  0.5380  0.0006
  182ETHOX  H2124052  11.154  17.167  13.124  0.1952  3.4939 -0.1194
  182ETHOX  H2324053  11.158  17.225  12.943  1.3832 -0.5609 -2.0365
  183ETHOX   O124054  11.330  17.145  13.010  0.9538  0.6709 -0.2342
  183ETHOX   C124055  11.394  17.249  13.090 -0.0952 -0.4977  0.1056
  183ETHOX  H1124056  11.504  17.235  13.095 -0.1935 -1.2258  0.2984
  183ETHOX  H1324057  11.357  17.238  13.194  0.1215  1.6136  0.4551
  183ETHOX   C224058  11.363  17.388  13.027  0.1684  0.1262 -0.5125
  183ETHOX  H2124059  11.380  17.371  12.919  1.0894 -0.2130 -0.3227
  183ETHOX  H2324060  11.440  17.459  13.063  2.1711 -1.7871 -0.8281
  184ETHOX   O124061  11.228  17.431  13.045 -0.3305 -0.1771  0.2757
  184ETHOX   C124062  11.194  17.521  12.945  0.2313  0.0553  0.1638
  184ETHOX  H1124063  11.269  17.603  12.951  0.7729 -0.5347  2.1251
  184ETHOX  H1324064  11.208  17.465  12.850 -2.1424 -0.7997  0.2694
  184ETHOX   C224065  11.045  17.555  12.944 -0.2239  0.5131  0.3736
  184ETHOX  H2124066  10.970  17.478  12.973 -2.0522  1.9966 -0.2113
  184ETHOX  H2324067  11.030  17.573  12.836 -1.0718  1.9033  0.7092
  185ETHOX   O124068  11.027  17.671  13.022  0.4471 -0.5342 -0.2058
  185ETHOX   C124069  11.023  17.645  13.162  0.0622 -0.3518 -0.2691
  185ETHOX  H1124070  10.940  17.575  13.185 -1.2636  1.2695  0.0170
  185ETHOX  H1324071  11.123  17.615  13.201  0.0946 -0.3275 -0.3314
  185ETHOX   C224072  10.988  17.771  13.240 -0.5320  0.5339 -0.9805
  185ETHOX  H2124073  11.050  17.861  13.218  2.1024 -0.2220  2.4867
  185ETHOX  H2324074  10.993  17.751  13.349 -0.2251  1.2937 -0.8455
  186ETHOX   O124075  10.845  17.809  13.227  0.1341  0.0345 -0.3100
  186ETHOX   C124076  10.812  17.924  13.309  0.1242 -0.7128 -0.2328
  186ETHOX  H1124077  10.899  17.992  13.314 -0.1509 -0.4103  0.5750
  186ETHOX  H1324078  10.724  17.964  13.254  0.3291 -1.6624 -1.2800
  186ETHOX   C224079  10.761  17.887  13.453  0.5985 -0.0084  0.0391
  186ETHOX  H2124080  10.670  17.825  13.439  1.6686 -1.7865  0.5230
  186ETHOX  H2324081  10.720  17.981  13.496 -0.7560 -0.5689  0.0195
  187ETHOX   O124082  10.858  17.828  13.544  0.7100 -0.6301 -0.4947
  187ETHOX   C124083  10.924  17.941  13.612  0.1311  0.9201  0.3118
  187ETHOX  H1124084  10.970  18.010  13.538  2.5028 -1.0668 -0.1963
  187ETHOX  H1324085  10.845  18.002  13.661  0.5002  1.4009  0.3127
  187ETHOX   C224086  11.028  17.886  13.709  0.0354 -0.2144 -0.5030
  187ETHOX  H2124087  11.092  17.972  13.738  0.3158  1.0364 -4.3004
  187ETHOX  H2324088  11.107  17.828  13.656  2.4890  2.7116 -0.3224
  188ETHOX   O124089  10.979  17.826  13.826 -0.0331 -0.2267 -0.6799
  188ETHOX   C124090  11.087  17.783  13.915  0.4774 -0.5184 -0.0014
  188ETHOX  H1124091  11.138  17.877  13.946  0.1951 -0.0641 -0.8780
  188ETHOX  H1324092  11.149  17.709  13.861 -1.7985 -0.6756 -2.6240
  188ETHOX   C224093  11.025  17.711  14.039 -0.0625  0.4950  0.0873
  188ETHOX  H2124094  10.964  17.792  14.085  0.4284  1.0632 -0.2594
  188ETHOX  H2324095  11.107  17.677  14.106 -0.3721 -1.9690 -0.6782
  189ETHOX   O124096  10.944  17.599  14.017  0.3112  1.0058 -0.5648
  189ETHOX   C124097  11.022  17.483  13.976  0.2038 -0.0414  0.3443
  189ETHOX  H1124098  11.034  17.509  13.868  0.9603  1.1880  0.7078
  189ETHOX  H1324099  11.121  17.474  14.025  1.0668  1.2399 -1.0763
  189ETHOX   C224100  10.951  17.346  13.993 -0.2197 -0.3634  0.3770
  189ETHOX  H2124101  10.981  17.276  13.912 -0.7160 -0.3540  0.1744
  189ETHOX  H2324102  10.843  17.367  13.973 -0.3939 -0.4554  1.1645
  190ETHOX   O124103  10.956  17.302  14.125  0.1732  0.9908 -0.0665
  190ETHOX   C124104  10.874  17.186  14.136 -0.8245  0.5535 -0.4485
  190ETHOX  H1124105  10.865  17.118  14.049  0.2214 -2.1236  1.4089
  190ETHOX  H1324106  10.771  17.220  14.161 -0.9865 -1.4726  2.1285
  190ETHOX   C224107  10.932  17.095  14.246 -0.2202 -0.5252  0.1402
  190ETHOX  H2124108  10.842  17.033  14.267 -2.1018  1.1326 -2.4040
  190ETHOX  H2324109  10.959  17.153  14.337 -0.6680  0.9494 -0.6305
  191ETHOX   O124110  11.044  17.014  14.217  0.0938 -0.1859  0.5262
  191ETHOX   C124111  11.168  17.077  14.228 -0.3180 -0.4791  0.0049
  191ETHOX  H1124112  11.146  17.184  14.204  0.1894 -0.8599 -2.4763
  191ETHOX  H1324113  11.190  17.066  14.336 -0.4284  1.9867  0.3314
  191ETHOX   C224114  11.283  17.019  14.141  0.2636 -0.2713  0.3757
  191ETHOX  H2124115  11.265  16.910  14.152  0.8352 -0.3404  0.6951
  191ETHOX  H2324116  11.383  17.038  14.186  0.0202 -0.4733  1.0055
  192ETHOX   O124117  11.280  17.050  13.998 -0.7817 -0.4012 -0.6196
  192ETHOX   C124118  11.164  16.997  13.936 -0.1616  0.3336 -0.3451
  192ETHOX  H1124119  11.074  17.014  13.999  1.2179  2.0297  1.2748
  192ETHOX  H1324120  11.195  16.892  13.923  1.0948  0.6611 -0.1252
  192ETHOX   C224121  11.144  17.059  13.796 -0.0645 -0.5303  0.0308
  192ETHOX  H2124122  11.146  17.168  13.816 -1.4241 -0.6067  0.6368
  192ETHOX  H2324123  11.049  17.038  13.743 -0.5659  0.7849  0.3775
  193ETHOX   O124124  11.245  17.021  13.693  0.0376 -0.0994 -0.3445
  193ETHOX   C124125  11.236  17.097  13.569  0.4123  0.1377 -0.6082
  193ETHOX  H1124126  11.132  17.079  13.533  0.3318  0.2567 -0.4376
  193ETHOX  H1324127  11.250  17.206  13.588  0.7211 -0.2031  1.3147
  193ETHOX   C224128  11.336  17.063  13.453  0.7960 -0.8018 -0.2345
  193ETHOX  H2124129  11.298  17.116  13.362  0.0636  3.4395  2.2680
  193ETHOX  H2324130  11.332  16.953  13.444 -0.9758 -0.8484  0.7067
  194ETHOX   O124131  11.461  17.112  13.495  0.3743 -0.2174 -0.2576
  194ETHOX   C124132  11.566  17.085  13.405 -0.3920  0.3392  0.3771
  194ETHOX  H1124133  11.554  17.120  13.300  2.0921 -1.9747 -0.7933
  194ETHOX  H1324134  11.556  16.975  13.411  0.3208  0.2308 -0.2466
  194ETHOX   C224135  11.708  17.120  13.464 -0.2405  0.4467  0.4866
  194ETHOX  H2124136  11.777  17.064  13.398  0.3921  0.7577  0.8799
  194ETHOX  H2324137  11.722  17.073  13.563  0.0615 -2.2371 -0.7566
  195ETHOX   O124138  11.741  17.253  13.463  0.3331 -0.7954  0.1527
  195ETHOX   C124139  11.887  17.265  13.481 -0.2889 -0.2245  0.5781
  195ETHOX  H1124140  11.941  17.209  13.402 -0.4901 -1.3480  1.2042
  195ETHOX  H1324141  11.918  17.372  13.480 -1.2608  0.0638  0.1021
  195ETHOX   C224142  11.945  17.215  13.618  0.6582 -0.4540  0.1809
  195ETHOX  H2124143  11.888  17.271  13.695  2.1107  0.1688  0.8524
  195ETHOX  H2324144  12.047  17.258  13.630  0.6026 -0.4544  0.6782
  196ETHOX   O124145  11.944  17.073  13.635 -0.1374 -0.1207 -0.2672
  196ETHOX   C124146  11.985  17.040  13.767  0.7919  0.6183 -0.0931
  196ETHOX  H1124147  12.013  16.932  13.763 -0.1653  0.2633  1.6734
  196ETHOX  H1324148  12.072  17.104  13.794  1.0114  1.2170 -2.0507
  196ETHOX   C224149  11.875  17.041  13.864 -0.1097  0.5016  0.5005
  196ETHOX  H2124150  11.893  16.979  13.954 -1.3979 -4.7303 -2.3975
  196ETHOX  H2324151  11.793  16.980  13.820  1.1098 -1.8463  1.3432
  197ETHOX   O124152  11.845  17.168  13.916  0.3084  0.0656  0.4468
  197ETHOX   C124153  11.756  17.157  14.021 -0.2447  0.6762 -0.8116
  197ETHOX  H1124154  11.674  17.081  14.018 -0.2227  0.6685 -1.9313
  197ETHOX  H1324155  11.820  17.122  14.104  0.2062 -1.1997 -1.8767
  197ETHOX   C224156  11.701  17.293  14.068  0.4358 -0.0383  1.2898
  197ETHOX  H2124157  11.656  17.341  13.978  1.4200  0.9398  1.2985
  197ETHOX  H2324158  11.785  17.361  14.095  2.1259 -1.9010  0.9802
  198ETHOX   O124159  11.587  17.269  14.159 -0.4847 -0.8601  0.1971
  198ETHOX   C124160  11.634  17.241  14.292 -0.4800  0.0236  0.6686
  198ETHOX  H1124161  11.688  17.144  14.296 -1.2096 -0.3753  1.2382
  198ETHOX  H1324162  11.714  17.315  14.315 -1.2755  0.6552  1.4861
  198ETHOX   C224163  11.527  17.245  14.406 -0.8943 -0.0864  0.7608
  198ETHOX  H2124164  11.559  17.207  14.505  1.1615  1.3872  0.7272
  198ETHOX  H2324165  11.445  17.175  14.378 -0.8182  0.4037 -0.7670
  199ETHOX   O124166  11.471  17.373  14.415 -0.1077 -0.0741  0.2367
  199ETHOX   C124167  11.368  17.401  14.314 -0.5165 -0.3828 -0.2889
  199ETHOX  H1124168  11.303  17.314  14.290 -0.3557 -0.7893  0.7035
  199ETHOX  H1324169  11.425  17.436  14.225  0.2193 -1.5490 -0.2979
  199ETHOX   C224170  11.265  17.502  14.369  0.0627 -0.6120 -0.0763
  199ETHOX  H2124171  11.208  17.548  14.286 -1.7112  0.1667  1.5089
  199ETHOX  H2324172  11.325  17.582  14.419  0.0015 -0.9026  0.4609
  200ETHOX   O124173  11.168  17.464  14.467 -0.7184 -0.0151  0.2138
  200ETHOX   C124174  11.098  17.573  14.526 -0.2786  0.5000 -0.2654
  200ETHOX  H1124175  11.056  17.531  14.620 -0.9902 -1.2660 -1.3148
  200ETHOX  H1324176  11.170  17.654  14.548 -0.5941  0.4955  0.8576
  200ETHOX   C224177  10.979  17.609  14.435 -0.5170  0.0173  0.1730
  200ETHOX  H2124178  11.014  17.623  14.331 -1.2103 -1.2920 -0.2469
  200ETHOX  H2324179  10.924  17.700  14.469 -3.8476 -1.9274  0.4564
  201ETHOX   O124180  10.883  17.506  14.442  0.8471 -0.0559  0.2536
  201ETHOX   C124181  10.765  17.543  14.367 -0.2879  0.1278  0.1474
  201ETHOX  H1124182  10.792  17.538  14.260  0.4331 -0.6927  0.3579
  201ETHOX  H1324183  10.728  17.647  14.381  0.1435  1.1038 -4.4854
  201ETHOX   C224184  10.641  17.450  14.387 -0.2530  0.3024 -0.2083
  201ETHOX  H2124185  10.686  17.349  14.401  0.9785  0.8595 -0.0156
  201ETHOX  H2324186  10.578  17.439  14.296 -0.8707 -3.0952  0.4684
  202ETHOX   O124187  10.567  17.480  14.504  0.8553  0.1498  0.2003
  202ETHOX   C124188  10.456  17.396  14.511 -0.2835 -0.3459 -0.8711
  202ETHOX  H1124189  10.396  17.406  14.418  0.8063 -1.4602 -1.7319
  202ETHOX  H1324190  10.496  17.293  14.524  1.2161  0.2441 -0.6256
  202ETHOX   C224191  10.354  17.437  14.623 -0.0160  0.9227  0.2503
  202ETHOX  H2124192  10.415  17.430  14.715  0.6155  0.6587 -0.1855
  202ETHOX  H2324193  10.278  17.357  14.619  1.0667 -0.1298  0.3105
  203ETHOX   O124194  10.304  17.568  14.593  0.6221 -0.3148 -0.3836
  203ETHOX   C124195  10.212  17.617  14.693 -0.5401  0.7775  0.1536
  203ETHOX  H1124196  10.257  17.597  14.793 -1.4070 -1.0120  0.2362
  203ETHOX  H1324197  10.125  17.548  14.686  0.3774 -0.3345 -0.6545
  203ETHOX   C224198  10.165  17.759  14.686 -0.2349  0.5160  0.3376
  203ETHOX  H2124199  10.075  17.777  14.748 -1.2735  2.9173 -1.6626
  203ETHOX  H2324200  10.153  17.774  14.576 -0.0522  0.5089  0.3163
  204ETHOX   O124201  10.269  17.840  14.733  0.0023  0.3392 -0.3595
  204ETHOX   C124202  10.210  17.966  14.779  0.2856 -0.4433 -0.3202
  204ETHOX  H1124203  10.149  18.009  14.697  0.2957 -1.2489 -0.7638
  204ETHOX  H1324204  10.142  17.949  14.865 -1.4085  1.2309 -1.2666
  204ETHOX   C224205  10.324  18.067  14.813  0.3701 -0.6647  0.2117
  204ETHOX  H2124206  10.270  18.162  14.832 -0.8597 -1.0810 -1.0220
  204ETHOX  H2324207  10.390  18.086  14.726 -2.5616  2.1687 -1.5887
  205ETHOX   O124208  10.394  18.043  14.931 -0.9445  0.3886 -0.5273
  205ETHOX   C124209  10.519  18.123  14.924  0.1627  0.2593  0.2416
  205ETHOX  H1124210  10.493  18.207  14.857 -1.2277 -0.3048  0.0361
  205ETHOX  H1324211  10.610  18.081  14.876  0.1128  1.9940 -1.4638
  205ETHOX   C224212  10.554  18.170  15.066 -0.3672 -0.8423 -0.1062
  205ETHOX  H2124213  10.468  18.232  15.098  1.1860  1.4044 -0.0024
  205ETHOX  H2324214  10.646  18.233  15.067 -0.6516 -0.4192 -0.3513
  206ETHOX   O124215  10.574  18.063  15.151 -0.4275 -0.2530  0.1042
  206ETHOX   C124216  10.562  18.096  15.291  0.6095 -0.5274  0.5228
  206ETHOX  H1124217  10.634  18.179  15.306 -0.1602  0.6796 -2.0129
  206ETHOX  H1324218  10.454  18.118  15.308 -0.2545 -2.1012 -2.3008
  206ETHOX   C224219  10.589  17.982  15.395  0.0723 -0.0883  0.4823
  206ETHOX  H2124220  10.681  17.928  15.363  1.7895  2.6615  0.3817
  206ETHOX  H2324221  10.616  18.025  15.494 -1.4782 -0.3834  1.0583
  207ETHOX   O124222  10.474  17.900  15.405  0.2026  0.7700  0.4935
  207ETHOX   C124223  10.376  17.957  15.495 -0.2604 -0.0392 -0.4687
  207ETHOX  H1124224  10.340  18.055  15.456 -1.0478 -0.1202  0.0175
  207ETHOX  H1324225  10.410  17.947  15.600  0.9088  4.0600 -0.2499
  207ETHOX   C224226  10.240  17.879  15.488 -0.4302  0.5584  0.1506
  207ETHOX  H2124227  10.217  17.872  15.379  1.5691  2.6785 -0.4848
  207ETHOX  H2324228  10.164  17.944  15.535 -0.6651  0.4394 -0.0659
  208ETHOX   O124229  10.258  17.753  15.557 -0.0264  0.5041 -0.4494
  208ETHOX   C124230  10.160  17.653  15.526  0.1260 -0.3067  0.1143
  208ETHOX  H1124231  10.063  17.678  15.575 -0.6298  0.1820 -1.5574
  208ETHOX  H1324232  10.145  17.639  15.417 -0.4104  1.7577 -0.1235
  208ETHOX   C224233  10.198  17.523  15.586 -0.4410 -0.3715 -0.6131
  208ETHOX  H2124234  10.107  17.460  15.598 -0.3941 -0.3602 -0.1908
  208ETHOX  H2324235  10.244  17.543  15.685  1.4782  1.4040 -1.7985
  209ETHOX   O124236  10.299  17.450  15.520 -0.0785 -0.0598  0.2496
  209ETHOX   C124237  10.289  17.314  15.552 -0.7198 -0.0890  0.6326
  209ETHOX  H1124238  10.185  17.297  15.518 -0.9495  1.2029  0.6402
  209ETHOX  H1324239  10.291  17.302  15.663 -0.0526 -0.3823  0.5922
  209ETHOX   C224240  10.385  17.218  15.466  0.3313  0.2575  0.8254
  209ETHOX  H2124241  10.381  17.256  15.361 -0.8476 -1.4757  0.1968
  209ETHOX  H2324242  10.324  17.125  15.467 -2.4938  1.7979 -2.6315
  210ETHOX   O124243  10.514  17.217  15.520 -0.2709 -0.3263  0.0967
  210ETHOX   C124244  10.519  17.119  15.625 -0.7047 -0.1029 -0.4351
  210ETHOX  H1124245  10.482  17.160  15.722  3.1187 -0.5584  1.3909
  210ETHOX  H1324246  10.462  17.027  15.601  1.2509 -1.5137  0.0507
  210ETHOX   C224247  10.664  17.077  15.648 -0.4840  0.0466 -0.0129
  210ETHOX  H2124248  10.671  17.031  15.749  0.7279  0.0144 -0.1010
  210ETHOX  H2324249  10.731  17.165  15.644  0.3370 -0.6036 -0.7445
  211ETHOX   O124250  10.709  16.977  15.555  0.0708 -0.4175 -0.1731
  211ETHOX   C124251  10.848  16.950  15.570 -0.1865  0.1575 -0.4169
  211ETHOX  H1124252  10.885  16.915  15.472 -1.3525 -2.1796 -0.0897
  211ETHOX  H1324253  10.900  17.043  15.603  2.0329 -1.3267  0.5461
  211ETHOX   C224254  10.882  16.845  15.674  0.3110  0.9070  0.5321
  211ETHOX  H2124255  10.834  16.863  15.772 -0.3093  2.0666  0.0308
  211ETHOX  H2324256  10.994  16.847  15.678  0.5049  0.5027 -2.5816
  212ETHOX   O124257  10.839  16.715  15.624  0.8157  0.1688 -0.3533
  212ETHOX   C124258  10.907  16.616  15.704 -0.0513  0.4164  0.5119
  212ETHOX  H1124259  11.012  16.653  15.712 -0.7128  2.6615 -0.5115
  212ETHOX  H1324260  10.867  16.623  15.807  2.0136 -0.5823  1.4563
  212ETHOX   C224261  10.907  16.471  15.650 -0.7816  0.2110  0.1762
  212ETHOX  H2124262  10.962  16.407  15.722 -1.9208 -2.3894 -1.1350
  212ETHOX  H2324263  10.967  16.468  15.557  1.8139 -0.8753  1.7581
  213ETHOX   O124264  10.774  16.409  15.641  0.3348 -0.1112  0.1574
  213ETHOX   C124265  10.787  16.275  15.587 -0.2502 -0.4334  0.2709
  213ETHOX  H1124266  10.813  16.271  15.479  0.3616 -0.2175  0.4073
  213ETHOX  H1324267  10.869  16.221  15.638 -0.5477 -2.0856 -0.8989
  213ETHOX   C224268  10.652  16.202  15.604 -0.1396  0.2838 -0.1227
  213ETHOX  H2124269  10.631  16.199  15.712 -0.4921  2.0834 -0.1040
  213ETHOX  H2324270  10.657  16.100  15.560 -0.5932 -0.2045  0.9436
  214ETHOX   O124271  10.546  16.267  15.541  0.4343 -0.4238 -0.5728
  214ETHOX   C124272  10.425  16.228  15.606 -0.1048  0.3664  0.0221
  214ETHOX  H1124273  10.423  16.244  15.716  1.4190 -1.3172  0.3384
  214ETHOX  H1324274  10.421  16.117  15.597  0.8577  0.3025  0.2269
  214ETHOX   C224275  10.297  16.292  15.545 -0.0298  0.2576 -0.1113
  214ETHOX  H2124276  10.209  16.243  15.592  0.9704 -1.0486  0.4398
  214ETHOX  H2324277  10.301  16.282  15.434  0.6431  0.1198 -0.0793
  215ETHOX   O124278  10.298  16.431  15.576  0.0441  0.1025  0.1450
  215ETHOX   C124279  10.167  16.487  15.561  0.1747 -0.2615  0.3838
  215ETHOX  H1124280  10.121  16.450  15.467 -2.9071  2.5973  0.5578
  215ETHOX  H1324281  10.104  16.457  15.648 -1.6309  2.1113 -0.0134
  215ETHOX   C224282  10.172  16.638  15.543 -0.1267  0.2753  0.3884
  215ETHOX  H2124283  10.079  16.674  15.493  0.4523  0.7225 -0.3986
  215ETHOX  H2324284  10.248  16.670  15.468 -1.2757  0.3386 -0.7814
  216ETHOX   O124285  10.185  16.709  15.661 -0.1171 -1.2901 -0.1465
  216ETHOX   C124286  10.171  16.855  15.633 -0.0843  0.4795 -0.5285
  216ETHOX  H1124287  10.221  16.877  15.536 -0.7011  2.6350 -0.4142
  216ETHOX  H1324288  10.236  16.893  15.714  0.6861  1.3437 -1.5253
  216ETHOX   C224289  10.021  16.889  15.645 -0.7377 -0.7312 -0.2836
  216ETHOX  H2124290   9.972  16.855  15.551 -0.2365  2.1219 -1.6800
  216ETHOX  H2324291  10.001  16.998  15.653 -1.0724 -0.7310 -1.0241
  217ETHOX   O124292   9.964  16.824  15.763 -0.4861  0.2306 -0.0162
  217ETHOX   C124293   9.841  16.884  15.788  0.1303 -0.8401 -0.2568
  217ETHOX  H1124294   9.859  16.991  15.810  1.0736 -0.3231 -3.1054
  217ETHOX  H1324295   9.771  16.875  15.701 -0.4889 -0.4454  0.1961
  217ETHOX   C224296   9.788  16.807  15.903 -0.6704  0.7280  0.4093
  217ETHOX  H2124297   9.697  16.852  15.949 -1.6528 -1.5184  0.7987
  217ETHOX  H2324298   9.867  16.787  15.978  1.4139 -0.1553 -1.8842
  218ETHOX   O124299   9.738  16.679  15.849 -0.1518  0.4798  0.0421
  218ETHOX   C124300   9.648  16.623  15.942  0.5930  0.0818  0.0285
  218ETHOX  H1124301   9.592  16.706  15.990 -0.1358  1.1568 -2.5111
  218ETHOX  H1324302   9.707  16.571  16.020 -0.0191  0.2406  0.6077
  218ETHOX   C224303   9.547  16.527  15.876  0.6490 -0.0677  0.4264
  218ETHOX  H2124304   9.523  16.571  15.776 -0.3781  1.1643  1.1946
  218ETHOX  H2324305   9.456  16.516  15.938 -0.9862 -2.0219 -2.0726
  219ETHOX   O124306   9.592  16.392  15.871  0.0132  0.1326 -0.1530
  219ETHOX   C124307   9.492  16.296  15.848 -0.2275  0.0059 -0.3425
  219ETHOX  H1124308   9.545  16.199  15.838 -1.8226 -0.9170 -0.2569
  219ETHOX  H1324309   9.429  16.290  15.939  0.4106  1.9084  0.2692
  219ETHOX   C224310   9.407  16.321  15.726  0.3803 -0.0511  0.2847
  219ETHOX  H2124311   9.363  16.422  15.737  0.8503  0.1449  0.3990
  219ETHOX  H2324312   9.328  16.243  15.736 -0.6510  0.7133 -1.4490
  220ETHOX   O124313   9.475  16.298  15.606 -0.4538  0.1151  0.3716
  220ETHOX   C124314   9.436  16.383  15.500 -0.1599  0.2960  0.4815
  220ETHOX  H1124315   9.512  16.380  15.419 -1.1762  1.6113 -0.5689
  220ETHOX  H1324316   9.433  16.489  15.534  1.5823  0.5801 -0.1763
  220ETHOX   C224317   9.306  16.363  15.427  0.9193 -0.0407  0.0445
  220ETHOX  H2124318   9.265  16.448  15.368 -1.1362 -0.4546  0.7784
  220ETHOX  H2324319   9.222  16.346  15.498 -0.7702  1.3712 -1.5134
  221ETHOX   O124320   9.332  16.253  15.341  0.5691  0.3660 -0.0218
  221ETHOX   C124321   9.222  16.224  15.261  0.3622  0.2942  0.3942
  221ETHOX  H1124322   9.137  16.291  15.285  1.5322  1.1191  2.5345
  221ETHOX  H1324323   9.247  16.233  15.153 -1.2713 -0.3669 -0.0632
  221ETHOX   C224324   9.183  16.082  15.283  0.3593 -0.0970  0.4599
  221ETHOX  H2124325   9.163  16.068  15.392  0.9612 -0.3628  0.5370
  221ETHOX  H2324326   9.270  16.017  15.260  2.6555  1.8163  3.0004
  222ETHOX   O124327   9.073  16.023  15.208 -0.1550  0.3142  0.4009
  222ETHOX   C124328   9.043  15.890  15.247  0.7775 -0.0182 -0.9941
  222ETHOX  H1124329   9.130  15.824  15.230  0.4519 -0.9074  0.5699
  222ETHOX  H1324330   9.043  15.889  15.358 -0.3068  0.0261 -0.9857
  222ETHOX   C224331   8.908  15.837  15.205 -0.4699 -0.4538 -0.1336
  222ETHOX  H2124332   8.831  15.910  15.236  0.3218  0.2145  0.2929
  222ETHOX  H2324333   8.885  15.745  15.264  0.9176  0.1521  1.4194
  223ETHOX   O124334   8.901  15.821  15.067 -0.2876  0.2089  0.1410
  223ETHOX   C124335   8.769  15.816  15.022 -0.1597 -0.2107 -0.5117
  223ETHOX  H1124336   8.707  15.756  15.092  1.0555 -0.8587  0.0527
  223ETHOX  H1324337   8.723  15.916  15.038 -2.5868 -1.2257 -0.7349
  223ETHOX   C224338   8.759  15.764  14.876 -0.6606  0.9770  0.4237
  223ETHOX  H2124339   8.654  15.733  14.862 -0.8069  0.6880  1.9695
  223ETHOX  H2324340   8.817  15.670  14.867 -0.6940  1.1136 -1.5212
  224ETHOX   O124341   8.795  15.869  14.790  0.1778  0.3568  0.5280
  224ETHOX   C124342   8.783  15.838  14.650 -0.6727 -0.3094 -0.1593
  224ETHOX  H1124343   8.710  15.754  14.648  1.3595 -2.2138  0.7861
  224ETHOX  H1324344   8.746  15.930  14.601  0.2237  0.8356  1.2137
  224ETHOX   C224345   8.912  15.792  14.578 -0.9539 -0.4199  0.4365
  224ETHOX  H2124346   8.880  15.727  14.493 -1.2058 -0.2153  0.3726
  224ETHOX  H2324347   8.966  15.727  14.650  0.2806  0.7526  0.6015
  225ETHOX   O124348   8.980  15.904  14.534 -0.2490 -0.2663 -0.3869
  225ETHOX   C124349   9.080  15.947  14.622  0.2401  1.6207  0.2516
  225ETHOX  H1124350   9.073  15.898  14.721  1.2013  1.0904  0.0789
  225ETHOX  H1324351   9.083  16.058  14.630  0.3131  1.6508 -0.1429
  225ETHOX   C224352   9.218  15.905  14.556 -0.4391 -0.0691 -0.0864
  225ETHOX  H2124353   9.226  15.797  14.528  1.4519  0.2349 -0.8371
  225ETHOX  H2324354   9.305  15.933  14.618  1.8231 -0.8296 -2.7554
  226ETHOX   O124355   9.248  15.993  14.444 -0.1136  0.1462  0.0917
  226ETHOX   C124356   9.370  15.959  14.382  0.2251  0.5682 -0.7048
  226ETHOX  H1124357   9.448  15.952  14.461  0.7522  0.7002 -1.2121
  226ETHOX  H1324358   9.367  15.867  14.320 -1.9561 -1.5459  2.2412
  226ETHOX   C224359   9.400  16.076  14.296  0.7023  0.1134 -0.0103
  226ETHOX  H2124360   9.362  16.169  14.343 -1.8631 -0.2928 -1.1004
  226ETHOX  H2324361   9.332  16.069  14.208  2.8514 -1.8619 -1.6313
  227ETHOX   O124362   9.536  16.075  14.264 -0.2047 -0.2001 -0.0365
  227ETHOX   C124363   9.571  16.188  14.180 -0.5130  0.2022 -0.3368
  227ETHOX  H1124364   9.511  16.188  14.086  2.0734 -0.5557 -2.1117
  227ETHOX  H1324365   9.672  16.165  14.140 -0.1830 -0.3199  0.7659
  227ETHOX   C224366   9.580  16.323  14.262  0.1570 -0.3145 -0.9054
  227ETHOX  H2124367   9.650  16.384  14.201  0.8984  1.0153  1.1709
  227ETHOX  H2324368   9.627  16.324  14.362 -2.1804  1.9648  0.2858
  228ETHOX   O124369   9.448  16.379  14.278 -0.5015 -0.1197  0.0449
  228ETHOX   C124370   9.452  16.506  14.334  0.7496 -0.6811  0.2329
  228ETHOX  H1124371   9.497  16.491  14.434 -0.9361 -1.3210  0.9309
  228ETHOX  H1324372   9.522  16.567  14.272  1.9348 -1.7720  0.4457
  228ETHOX   C224373   9.315  16.581  14.350  0.5631  0.0785  0.2222
  228ETHOX  H2124374   9.339  16.670  14.412 -0.3857 -0.3516  1.2270
  228ETHOX  H2324375   9.264  16.499  14.405  1.6912 -0.2192  0.8615
  229ETHOX   O124376   9.269  16.613  14.219 -0.5276  0.3037 -0.0287
  229ETHOX   C124377   9.148  16.693  14.221  0.4558  0.5278 -0.7575
  229ETHOX  H1124378   9.175  16.774  14.149  2.3037  0.9288  0.3303
  229ETHOX  H1324379   9.142  16.742  14.320 -0.8741 -2.6854  0.8824
  229ETHOX   C224380   9.024  16.616  14.192  0.1505 -0.1308 -0.2224
  229ETHOX  H2124381   9.038  16.547  14.105  1.8568 -0.9018  0.6135
  229ETHOX  H2324382   8.942  16.689  14.176  0.2781  1.0982  3.8070
  230ETHOX   O124383   8.989  16.546  14.308  0.3501 -0.2530 -0.2554
  230ETHOX   C124384   8.877  16.460  14.296 -0.1566 -0.1103  0.1630
  230ETHOX  H1124385   8.785  16.511  14.259  2.1702  2.4561 -2.5085
  230ETHOX  H1324386   8.898  16.387  14.215  0.5092  1.4394 -1.1181
  230ETHOX   C224387   8.862  16.391  14.428 -0.7990  0.2090 -0.1702
  230ETHOX  H2124388   8.863  16.461  14.514  4.5338 -1.8640  1.8774
  230ETHOX  H2324389   8.950  16.326  14.446 -1.8802 -0.9508  1.0598
  231ETHOX   O124390   8.737  16.318  14.430 -0.1272 -0.0290 -0.4282
  231ETHOX   C124391   8.734  16.230  14.543 -0.2026  0.4927 -0.1093
  231ETHOX  H1124392   8.758  16.290  14.634  2.5496  1.4569 -1.3569
  231ETHOX  H1324393   8.803  16.143  14.531  0.3914  0.9944 -0.4262
  231ETHOX   C224394   8.595  16.168  14.560  0.6135  0.1838  0.1596
  231ETHOX  H2124395   8.600  16.084  14.633 -3.7195  0.4693  1.0764
  231ETHOX  H2324396   8.564  16.121  14.465  0.7166 -0.1338  0.2818
  232ETHOX   O124397   8.490  16.253  14.610  0.0033 -0.0732  0.4536
  232ETHOX   C124398   8.390  16.279  14.502 -0.7110 -0.7351 -0.7860
  232ETHOX  H1124399   8.431  16.336  14.416  1.9130  0.6618  1.2483
  232ETHOX  H1324400   8.351  16.182  14.463  0.3815 -0.9436 -1.3928
  232ETHOX   C224401   8.270  16.364  14.560 -0.1979  0.3909  0.4091
  232ETHOX  H2124402   8.203  16.383  14.473 -0.9312 -0.3212  0.8014
  232ETHOX  H2324403   8.313  16.457  14.601 -1.3809  1.2726 -0.2847
  233ETHOX   O124404   8.195  16.307  14.665  0.4639  0.4665  1.1288
  233ETHOX   C124405   8.070  16.374  14.690  0.2021  0.1149 -0.2365
  233ETHOX  H1124406   8.088  16.477  14.728 -2.4789  0.5955 -0.0861
  233ETHOX  H1324407   8.019  16.393  14.593  0.6814  2.4642 -0.0718
  233ETHOX   C224408   7.989  16.297  14.786  0.5823  0.5558  0.0061
  233ETHOX  H2124409   7.911  16.355  14.841 -0.5314  0.8762 -1.8238
  233ETHOX  H2324410   8.054  16.263  14.869  0.3329  2.3074  0.9592
  234ETHOX   O124411   7.920  16.191  14.722 -0.2039 -0.3094 -0.0477
  234ETHOX   C124412   7.863  16.107  14.825 -0.9079 -0.0637 -0.4472
  234ETHOX  H1124413   7.858  16.011  14.769  0.6979  0.2825 -1.2526
  234ETHOX  H1324414   7.929  16.085  14.911 -1.4934  0.7869  0.2382
  234ETHOX   C224415   7.726  16.148  14.879  0.5531 -0.2788 -0.6733
  234ETHOX  H2124416   7.706  16.066  14.951  1.1488 -1.4257 -1.7704
  234ETHOX  H2324417   7.648  16.149  14.800 -2.6787  0.7568  2.2703
  235ETHOX   O124418   7.719  16.279  14.934  0.2636  0.3063  0.6273
  235ETHOX   C124419   7.593  16.320  14.975  0.5243  0.4531 -0.2305
  235ETHOX  H1124420   7.517  16.300  14.896  1.0833  0.0613 -0.6784
  235ETHOX  H1324421   7.564  16.261  15.065  0.7719  1.9184  0.8560
  235ETHOX   C224422   7.588  16.465  15.012  0.0570 -0.1303 -0.0867
  235ETHOX  H2124423   7.622  16.529  14.928  1.6347 -0.5662  0.1837
  235ETHOX  H2324424   7.655  16.471  15.101 -1.5225 -0.9968  1.2313
  236ETHOX   O124425   7.471  16.505  15.073  0.1628 -0.2260 -0.4832
  236ETHOX   C124426   7.359  16.528  14.985 -0.2186 -0.2626  0.3612
  236ETHOX  H1124427   7.352  16.442  14.916 -0.0006 -1.8594  2.2412
  236ETHOX  H1324428   7.376  16.620  14.925  1.7680  0.0664  1.3449
  236ETHOX   C224429   7.220  16.547  15.058 -0.3901 -0.3922  0.5661
  236ETHOX  H2124430   7.151  16.604  14.993  0.9776  1.1323  0.3942
  236ETHOX  H2324431   7.241  16.616  15.142 -1.4870  1.0536 -0.3094
  237ETHOX   O124432   7.152  16.430  15.104 -0.4307 -0.0521  0.3424
  237ETHOX   C124433   7.019  16.461  15.147 -0.1800 -0.2187 -0.5628
  237ETHOX  H1124434   7.021  16.546  15.219  1.5560 -0.7378  0.0628
  237ETHOX  H1324435   6.962  16.498  15.060 -2.6392 -0.8210  0.7012
  237ETHOX   C224436   6.961  16.330  15.193  0.2738  0.1474 -0.5071
  237ETHOX  H2124437   6.950  16.257  15.110  1.0218 -1.4049  0.7101
  237ETHOX  H2324438   6.855  16.353  15.218  1.4898  2.6542  3.1539
  238ETHOX   O124439   7.022  16.269  15.308 -0.5698  0.1815  0.7023
  238ETHOX   C124440   6.965  16.136  15.316  0.9174 -0.5483 -0.2200
  238ETHOX  H1124441   7.023  16.080  15.240  1.3696 -1.3487  0.6921
  238ETHOX  H1324442   6.857  16.143  15.289  0.5271 -1.9610  0.8353
  238ETHOX   C224443   6.991  16.071  15.454  0.2585  0.0489 -0.2437
  238ETHOX  H2124444   6.926  15.981  15.463  0.8604 -0.3444  0.2016
  238ETHOX  H2324445   6.960  16.131  15.542  1.8169 -1.1621  1.2075
  239ETHOX   O124446   7.122  16.018  15.469 -0.5034  0.4726  0.3403
  239ETHOX   C124447   7.143  15.955  15.595  0.6708  0.0085 -0.3356
  239ETHOX  H1124448   7.116  16.034  15.668  2.0326  1.1335 -0.9897
  239ETHOX  H1324449   7.084  15.861  15.607 -1.3730  1.2707  0.0429
  239ETHOX   C224450   7.292  15.918  15.621  0.1420  0.4158  0.4069
  239ETHOX  H2124451   7.291  15.863  15.718 -0.2637  1.0368  0.7617
  239ETHOX  H2324452   7.313  15.839  15.546  1.7887  0.3202  0.9263
  240ETHOX   O124453   7.387  16.022  15.625 -0.7760  0.0130 -0.3774
  240ETHOX   C124454   7.501  15.976  15.690  0.7238  0.0797  0.2044
  240ETHOX  H1124455   7.545  15.901  15.620 -1.0445 -0.8791  0.0567
  240ETHOX  H1324456   7.475  15.928  15.787 -3.0912  2.0256  0.3324
  240ETHOX   C224457   7.608  16.081  15.711  0.5349  0.2810 -0.2182
  240ETHOX  H2124458   7.698  16.021  15.737 -0.2828 -1.3412 -0.9478
  240ETHOX  H2324459   7.588  16.150  15.796  0.9547  0.3537 -0.1778
  241ETHOX   O124460   7.632  16.142  15.588 -0.2454  0.2811  0.2398
  241ETHOX   C124461   7.740  16.234  15.604 -0.4445  0.2079  0.8194
  241ETHOX  H1124462   7.714  16.303  15.687  0.0204  0.7765  0.4997
  241ETHOX  H1324463   7.832  16.180  15.631  0.9337  1.7620 -0.5087
  241ETHOX   C224464   7.780  16.300  15.463  0.1470  0.0359 -0.1069
  241ETHOX  H2124465   7.877  16.352  15.469  1.1303 -1.4473 -1.9928
  241ETHOX  H2324466   7.705  16.375  15.430  0.6356  0.1346 -1.0113
  242ETHOX   O124467   7.801  16.200  15.360 -0.0912  0.0211  0.1992
  242ETHOX   C124468   7.837  16.266  15.239  0.3928  0.2716 -0.3310
  242ETHOX  H1124469   7.797  16.370  15.231  0.3228  0.2185 -0.6749
  242ETHOX  H1324470   7.795  16.208  15.153  0.6179  0.4932 -0.5905
  242ETHOX   C224471   7.984  16.285  15.220 -0.0576 -0.4644 -0.3385
  242ETHOX  H2124472   8.033  16.331  15.308  0.9960  0.4221 -1.3643
  242ETHOX  H2324473   7.998  16.366  15.145  0.8194  1.2538  1.5783
  243ETHOX   O124474   8.038  16.163  15.182  0.0078  0.0886  0.5092
  243ETHOX   C124475   8.176  16.154  15.206 -0.0857  0.5922  0.0157
  243ETHOX  H1124476   8.243  16.223  15.151  4.5773 -2.4697  1.2576
  243ETHOX  H1324477   8.191  16.174  15.314 -1.2800  2.2648 -0.1014
  243ETHOX   C224478   8.223  16.010  15.169 -0.3960 -0.2204  0.1760
  243ETHOX  H2124479   8.137  15.941  15.156  0.1095 -0.9906  0.8263
  243ETHOX  H2324480   8.294  15.977  15.248  0.5401 -0.0940 -0.5889
  244ETHOX   O124481   8.304  16.006  15.045 -0.1681  0.3011 -0.0978
  244ETHOX   C124482   8.216  16.038  14.939 -0.4242  0.2494 -0.1419
  244ETHOX  H1124483   8.190  16.146  14.941 -0.2385  0.4608 -3.4013
  244ETHOX  H1324484   8.127  15.971  14.949 -0.1039  0.0135  1.3355
  244ETHOX   C224485   8.284  16.015  14.796  0.5818 -0.2506 -0.4313
  244ETHOX  H2124486   8.376  16.077  14.787  1.2813 -1.2240 -0.1914
  244ETHOX  H2324487   8.206  16.044  14.723  0.3129 -0.1145 -0.0918
  245ETHOX   O124488   8.300  15.877  14.781  0.5381  0.3628 -0.2760
  245ETHOX   C124489   8.401  15.841  14.692  0.0426 -0.3629  0.5709
  245ETHOX  H1124490   8.381  15.885  14.592  2.6500 -0.2799  0.0008
  245ETHOX  H1324491   8.503  15.878  14.718  0.2440 -0.3106 -0.2597
  245ETHOX   C224492   8.404  15.687  14.674 -0.1509 -0.1086  0.7688
  245ETHOX  H2124493   8.465  15.675  14.582 -1.6874  0.1951 -0.3372
  245ETHOX  H2324494   8.308  15.641  14.643  0.7604 -2.2768  0.9885
  246ETHOX   O124495   8.460  15.628  14.787  0.0201 -0.1846 -0.3091
  246ETHOX   C124496   8.529  15.509  14.751 -0.9972 -0.0686 -0.0317
  246ETHOX  H1124497   8.608  15.512  14.830  0.6937 -0.5387 -1.6431
  246ETHOX  H1324498   8.583  15.531  14.656 -1.0430  1.1052  0.1886
  246ETHOX   C224499   8.428  15.395  14.763 -1.5563  0.7141  0.3145
  246ETHOX  H2124500   8.473  15.299  14.729 -3.4244 -0.4605  1.0285
  246ETHOX  H2324501   8.337  15.401  14.700 -0.5575 -0.1837 -1.2957
  247ETHOX   O124502   8.406  15.364  14.898 -0.6628 -0.2953 -0.4988
  247ETHOX   C124503   8.282  15.425  14.950  0.3211  0.0926  0.2547
  247ETHOX  H1124504   8.290  15.431  15.061 -1.6021 -0.5795  0.4603
  247ETHOX  H1324505   8.278  15.531  14.919  0.5687 -0.8607 -3.5419
  247ETHOX   C224506   8.155  15.340  14.936 -0.3566  0.0497  0.4987
  247ETHOX  H2124507   8.172  15.237  14.975 -1.4523 -0.1123  0.5772
  247ETHOX  H2324508   8.069  15.382  14.992 -0.3534 -1.2394  1.5272
  248ETHOX   O124509   8.122  15.330  14.800  0.0946  0.7724  0.3883
  248ETHOX   C124510   8.032  15.432  14.753  0.0843 -0.2553 -0.0951
  248ETHOX  H1124511   7.936  15.416  14.808 -0.1723 -0.0137 -0.4720
  248ETHOX  H1324512   8.078  15.529  14.780 -2.4245  0.6623  1.2430
  248ETHOX   C224513   8.020  15.417  14.597 -0.1230 -0.4565 -0.2971
  248ETHOX  H2124514   8.120  15.390  14.557  0.7930 -0.0145  1.5486
  248ETHOX  H2324515   7.991  15.516  14.556 -1.4267 -0.7050 -0.0216
  249ETHOX   O124516   7.916  15.322  14.558 -0.6786 -0.2994 -0.3994
  249ETHOX   C124517   7.915  15.301  14.413  0.3835  0.2257  0.0469
  249ETHOX  H1124518   7.910  15.397  14.358  1.4838  1.4743  1.9852
  249ETHOX  H1324519   8.010  15.264  14.368  0.6488  1.6539 -0.6426
  249ETHOX   C224520   7.800  15.211  14.359  0.3243 -0.3291 -0.0605
  249ETHOX  H2124521   7.793  15.123  14.426  0.1900  0.6634  1.2583
  249ETHOX  H2324522   7.820  15.176  14.255 -0.5500  0.0979 -0.3830
  250ETHOX   O124523   7.670  15.261  14.366  0.3759 -0.1655  0.1321
  250ETHOX   C124524   7.569  15.157  14.349  0.2547 -1.1231  0.4162
  250ETHOX  H1124525   7.598  15.079  14.275 -1.2398 -2.5691  1.2819
  250ETHOX  H1324526   7.555  15.109  14.448  0.1313  0.3825  1.1531
  250ETHOX   C224527   7.433  15.216  14.303 -0.1340 -0.2175  0.0844
  250ETHOX  H2124528   7.440  15.326  14.315  0.1191 -0.2811  0.5479
  250ETHOX  H2324529   7.351  15.168  14.360  0.2987  0.5496  1.3788
  251ETHOX   O124530   7.406  15.194  14.164 -0.6340 -0.4998  0.2303
  251ETHOX   C124531   7.282  15.251  14.129 -0.4882  0.2810  0.2377
  251ETHOX  H1124532   7.277  15.362  14.140 -0.2761  0.4509 -1.1768
  251ETHOX  H1324533   7.204  15.210  14.196 -0.9397  1.0714  0.2154
  251ETHOX   C224534   7.261  15.197  13.985 -0.4050 -0.0568 -0.5252
  251ETHOX  H2124535   7.285  15.089  13.993  0.7126  0.2328  0.3044
  251ETHOX  H2324536   7.335  15.245  13.916 -0.5760 -1.1233 -1.4815
  252ETHOX   O124537   7.130  15.212  13.935  0.4563 -0.5251 -0.2657
  252ETHOX   C124538   7.102  15.149  13.814 -0.2314 -0.5145  0.4262
  252ETHOX  H1124539   7.047  15.217  13.746 -0.0504 -0.7009  0.0900
  252ETHOX  H1324540   7.204  15.138  13.771 -0.2486 -0.3026  0.3307
  252ETHOX   C224541   7.030  15.020  13.843 -0.5546  0.6969 -0.9943
  252ETHOX  H2124542   7.009  14.983  13.740  1.9281  2.4642 -2.2260
  252ETHOX  H2324543   6.929  15.030  13.890  0.4469  0.8809  1.2328
  253ETHOX   O124544   7.110  14.922  13.909 -0.1258 -0.3666 -0.6682
  253ETHOX   C124545   7.100  14.791  13.857 -0.6545  0.4179 -0.1642
  253ETHOX  H1124546   7.176  14.718  13.893 -1.4702 -1.3411 -1.8490
  253ETHOX  H1324547   7.125  14.793  13.749 -0.7190 -0.1755 -0.1953
  253ETHOX   C224548   6.961  14.731  13.882 -0.3581 -0.3864 -0.2403
  253ETHOX  H2124549   6.924  14.777  13.976  0.4062 -1.6650  0.7115
  253ETHOX  H2324550   6.988  14.629  13.914  0.8156 -0.3248 -0.9484
  254ETHOX   O124551   6.867  14.759  13.773 -0.1300 -0.0880 -0.4272
  254ETHOX   C124552   6.866  14.644  13.694 -0.1349 -0.7493  0.6953
  254ETHOX  H1124553   6.853  14.663  13.586 -1.3381 -1.1386  0.7494
  254ETHOX  H1324554   6.960  14.586  13.700 -0.3115 -1.2526 -1.0346
  254ETHOX   C224555   6.733  14.561  13.729 -0.6680 -0.5579  0.8870
  254ETHOX  H2124556   6.715  14.497  13.640  0.7228 -0.1883  0.3053
  254ETHOX  H2324557   6.646  14.627  13.747 -0.8802 -0.8401  0.9062
  255ETHOX   O124558   6.780  14.473  13.835  0.0740 -0.6116  0.0767
  255ETHOX   C124559   6.715  14.501  13.962 -1.2340  0.1084 -0.2872
  255ETHOX  H1124560   6.605  14.502  13.942 -1.6239  0.2078  1.6906
  255ETHOX  H1324561   6.753  14.599  13.998 -1.8069 -0.0074  0.6644
  255ETHOX   C224562   6.752  14.397  14.073  0.4269 -0.2033 -0.3893
  255ETHOX  H2124563   6.725  14.440  14.171 -2.7936 -1.1782 -0.7480
  255ETHOX  H2324564   6.862  14.388  14.059  0.1226 -1.8480 -2.2147
  256ETHOX   O124565   6.704  14.264  14.064 -0.0305 -0.1374 -0.2364
  256ETHOX   C124566   6.770  14.189  14.153  0.1300  0.3701 -0.3254
  256ETHOX  H1124567   6.878  14.183  14.130 -0.1110  0.5493 -1.5809
  256ETHOX  H1324568   6.750  14.230  14.254 -1.2272 -0.0618 -0.3901
  256ETHOX   C224569   6.715  14.043  14.162  0.0342  0.3019  0.3348
  256ETHOX  H2124570   6.739  13.993  14.258  0.6159  1.4339  0.7970
  256ETHOX  H2324571   6.768  13.981  14.087 -1.5936  1.2980 -1.7772
  257ETHOX   O124572   6.570  14.038  14.145  0.4146  0.7896 -1.0282
  257ETHOX   C124573   6.525  13.902  14.129 -0.1558  0.4816  0.1812
  257ETHOX  H1124574   6.577  13.843  14.208  0.0540  1.6135  0.9125
  257ETHOX  H1324575   6.542  13.847  14.034  0.3057  0.0964  0.4798
  257ETHOX   C224576   6.376  13.877  14.166 -0.0182 -0.0828 -0.0239
  257ETHOX  H2124577   6.306  13.930  14.097  0.6641 -0.8062 -1.3156
  257ETHOX  H2324578   6.358  13.914  14.269  0.1728 -1.6762  0.6105
  258ETHOX   O124579   6.351  13.741  14.191 -0.2293  1.0091 -0.1508
  258ETHOX   C124580   6.228  13.704  14.249  0.0143 -0.2854  0.4856
  258ETHOX  H1124581   6.184  13.780  14.317 -1.5743 -0.5866 -0.1639
  258ETHOX  H1324582   6.146  13.689  14.176 -0.8006  1.7689  0.9321
  258ETHOX   C224583   6.243  13.578  14.336 -0.7992  0.2248 -0.0374
  258ETHOX  H2124584   6.319  13.514  14.285 -0.1810  1.1622 -0.3211
  258ETHOX  H2324585   6.140  13.537  14.334 -2.4160  3.8908  0.3766
  259ETHOX   O124586   6.278  13.603  14.470  0.1089 -0.3596 -0.6825
  259ETHOX   C124587   6.301  13.492  14.552  0.3387 -1.1378 -0.5216
  259ETHOX  H1124588   6.334  13.406  14.490  0.3976 -1.0826 -0.5671
  259ETHOX  H1324589   6.376  13.515  14.630 -0.0293 -0.3262 -0.3968
  259ETHOX   C224590   6.174  13.451  14.621  0.2290 -0.1230  0.0973
  259ETHOX  H2124591   6.179  13.346  14.655 -2.4475 -0.8109 -1.3630
  259ETHOX  H2324592   6.099  13.458  14.540 -1.6896  1.1632  1.8906
  260ETHOX   O124593   6.124  13.522  14.734  0.3383  0.1195 -0.1916
  260ETHOX   C124594   5.991  13.466  14.769 -0.7552 -0.6835  0.0901
  260ETHOX  H1124595   5.943  13.450  14.670  0.0298  2.0230 -0.8075
  260ETHOX  H1324596   6.007  13.371  14.825  0.6417  0.1964  1.2366
  260ETHOX   C224597   5.916  13.566  14.859  0.4020 -0.0035 -0.1083
  260ETHOX  H2124598   5.824  13.510  14.887  0.8010  0.3510  2.1403
  260ETHOX  H2324599   5.891  13.660  14.805  2.3995 -1.1245 -3.2723
  261ETHOX   O124600   5.983  13.588  14.986 -0.3658 -0.2524 -0.4117
  261ETHOX   C124601   5.888  13.653  15.081 -0.4633 -0.2102  0.4371
  261ETHOX  H1124602   5.850  13.745  15.032  0.0640 -0.1772  0.0917
  261ETHOX  H1324603   5.806  13.580  15.104  0.6912 -1.7292 -0.1194
  261ETHOX   C224604   5.957  13.684  15.214  0.3416 -0.1013 -1.0410
  261ETHOX  H2124605   6.019  13.602  15.256 -0.7715  0.7075  2.6242
  261ETHOX  H2324606   5.868  13.705  15.277  0.2700 -2.7365 -0.1089
  262ETHOX   O124607   6.027  13.812  15.224 -0.2987  0.1162  0.1245
  262ETHOX   C124608   6.153  13.815  15.148  0.6239  0.1798 -0.1683
  262ETHOX  H1124609   6.157  13.732  15.074 -1.8323 -0.1715 -0.0102
  262ETHOX  H1324610   6.235  13.797  15.219 -1.0318 -1.4658  1.4380
  262ETHOX   C224611   6.185  13.947  15.077 -0.5753 -0.0331 -0.1067
  262ETHOX  H2124612   6.083  13.975  15.042 -0.7324  1.3366  1.2891
  262ETHOX  H2324613   6.269  13.937  15.006  0.7600 -1.1069  1.5373
  263ETHOX   O124614   6.236  14.040  15.179  0.0724  0.0679 -0.5867
  263ETHOX   C124615   6.220  14.172  15.130 -0.4221 -0.3750  0.9660
  263ETHOX  H1124616   6.114  14.203  15.132 -0.5032 -0.6842  2.0987
  263ETHOX  H1324617   6.269  14.186  15.032 -1.5152  0.8157  0.5700
  263ETHOX   C224618   6.290  14.261  15.232  0.6971 -0.4071 -0.1547
  263ETHOX  H2124619   6.287  14.361  15.184  4.9979 -1.1779 -2.5641
  263ETHOX  H2324620   6.396  14.237  15.254  1.2064  2.0073  0.2965
  264ETHOX   O124621   6.216  14.258  15.355  0.0286  0.7172 -0.8119
  264ETHOX   C124622   6.294  14.310  15.464 -0.1091  0.2698 -0.0830
  264ETHOX  H1124623   6.403  14.293  15.457  0.0999  1.8804 -1.3446
  264ETHOX  H1324624   6.265  14.249  15.552 -1.5210  2.3967  1.0192
  264ETHOX   C224625   6.262  14.459  15.480 -0.0439 -0.3141  0.9870
  264ETHOX  H2124626   6.295  14.497  15.580  1.1096  0.0998  0.4689
  264ETHOX  H2324627   6.152  14.475  15.474 -0.2027 -1.9967 -2.2262
  265ETHOX   O124628   6.338  14.530  15.382 -0.0883  0.2627 -0.3343
  265ETHOX   C124629   6.285  14.669  15.368  0.4531  0.0991 -0.1770
  265ETHOX  H1124630   6.177  14.678  15.341  0.2114 -0.7069  0.4728
  265ETHOX  H1324631   6.306  14.718  15.466  0.9233 -0.0760 -0.1870
  265ETHOX   C224632   6.367  14.748  15.259 -0.7070  0.8717 -0.2718
  265ETHOX  H2124633   6.357  14.690  15.164 -1.7401  0.5021  0.0500
  265ETHOX  H2324634   6.473  14.753  15.291 -1.0268  2.4042  0.6662
  265ETHOX   OZ24635   6.315  14.877  15.236 -0.2263  0.4647 -0.4121
  265ETHOX  HZ124636   6.372  14.913  15.169 -1.2248  2.9771 -0.0180
    1ETHOX   O124637  11.643  10.469   5.370  0.1833 -0.0774 -0.5485
    1ETHOX  HO124638  11.680  10.524   5.439 -0.9020  0.2718 -0.2161
    1ETHOX   C124639  11.754  10.442   5.290 -0.1440  0.2567  0.2370
    1ETHOX  H1124640  11.842  10.466   5.354  0.3070  0.1196 -0.3171
    1ETHOX  H1324641  11.753  10.512   5.204  0.4186  0.0316  0.0425
    1ETHOX   C224642  11.751  10.295   5.230  0.2748  0.0302 -0.3756
    1ETHOX  H2124643  11.743  10.209   5.300  1.1317 -1.4754 -2.0444
    1ETHOX  H2324644  11.850  10.288   5.180 -0.3294  1.1571 -1.8014
    2ETHOX   O124645  11.643  10.293   5.135 -0.2157 -0.2567  0.6266
    2ETHOX   C124646  11.612  10.159   5.098 -0.2763  0.8880  0.1578
    2ETHOX  H1124647  11.710  10.118   5.065  0.5744  1.1376  2.1701
    2ETHOX  H1324648  11.584  10.089   5.180 -1.0838  0.5596 -0.3902
    2ETHOX   C224649  11.498  10.158   4.997  0.9156 -0.5212 -0.4172
    2ETHOX  H2124650  11.500  10.066   4.935 -1.4854 -0.3000 -0.9290
    2ETHOX  H2324651  11.498  10.244   4.926  0.4251 -1.0445 -1.0663
    3ETHOX   O124652  11.365  10.164   5.064 -0.7442 -0.1213  0.3934
    3ETHOX   C124653  11.263  10.151   4.967  0.4718 -0.2314  0.7868
    3ETHOX  H1124654  11.272  10.057   4.909  0.4744 -1.6433  2.9796
    3ETHOX  H1324655  11.278  10.241   4.903  1.2335 -0.8962  0.0073
    3ETHOX   C224656  11.116  10.148   5.010  0.2027 -0.9231 -0.1843
    3ETHOX  H2124657  11.065  10.146   4.912  2.5562  1.8752 -1.6570
    3ETHOX  H2324658  11.091  10.238   5.070 -0.5384 -0.2510 -1.4605
    4ETHOX   O124659  11.080  10.023   5.074 -0.1264 -0.1010 -0.0130
    4ETHOX   C124660  11.107  10.025   5.215 -0.4551  0.2915 -0.5991
    4ETHOX  H1124661  11.209  10.062   5.241 -0.4382  1.6080 -2.3724
    4ETHOX  H1324662  11.032  10.095   5.258 -3.3256 -2.3114 -1.0443
    4ETHOX   C224663  11.078   9.885   5.274 -0.3560  0.7505 -0.5084
    4ETHOX  H2124664  10.979   9.848   5.240  0.6808 -1.7574 -1.0199
    4ETHOX  H2324665  11.069   9.893   5.384 -2.0909  1.1255 -0.6527
    5ETHOX   O124666  11.173   9.785   5.241  0.5399  0.8697  0.4610
    5ETHOX   C124667  11.297   9.815   5.294 -0.4859 -0.3011 -0.1859
    5ETHOX  H1124668  11.347   9.876   5.216 -2.2714 -0.8592 -1.8657
    5ETHOX  H1324669  11.292   9.870   5.390  0.3509 -3.1570  1.6276
    5ETHOX   C224670  11.367   9.680   5.317  0.0148  0.0120 -0.4688
    5ETHOX  H2124671  11.477   9.688   5.328 -0.0718 -1.0685  1.8811
    5ETHOX  H2324672  11.354   9.615   5.228  0.0368 -2.9479  1.5563
    6ETHOX   O124673  11.320   9.628   5.443 -0.6186  0.3930 -0.1356
    6ETHOX   C124674  11.194   9.569   5.430 -0.0216 -0.4254 -0.1487
    6ETHOX  H1124675  11.102   9.625   5.401  0.6239  1.2628  0.9333
    6ETHOX  H1324676  11.207   9.482   5.361  2.7483  0.1359 -0.4346
    6ETHOX   C224677  11.162   9.512   5.574 -0.1093 -0.0965  0.2092
    6ETHOX  H2124678  11.251   9.472   5.626 -1.1065  0.4402  2.4317
    6ETHOX  H2324679  11.094   9.424   5.573  1.2978 -1.3763  3.4004
    7ETHOX   O124680  11.088   9.613   5.641  0.0284  0.5774  0.2450
    7ETHOX   C124681  11.177   9.722   5.674 -0.2972 -0.0043 -0.1521
    7ETHOX  H1124682  11.278   9.683   5.702  0.1170  0.5615 -0.8270
    7ETHOX  H1324683  11.195   9.784   5.583 -0.8158 -0.4100 -0.5387
    7ETHOX   C224684  11.124   9.813   5.788  1.1077 -0.0383  0.2806
    7ETHOX  H2124685  11.194   9.899   5.795 -0.4729  1.2492  0.8561
    7ETHOX  H2324686  11.123   9.755   5.882 -3.2281  1.0056  1.0615
    8ETHOX   O124687  10.995   9.869   5.770 -0.0045  0.6479  1.0921
    8ETHOX   C124688  10.949   9.952   5.876  0.0348  0.1356 -0.3685
    8ETHOX  H1124689  11.025  10.016   5.926  1.7048 -1.4931 -0.7252
    8ETHOX  H1324690  10.895   9.892   5.953 -1.4739  2.4957  0.5054
    8ETHOX   C224691  10.840  10.052   5.826  0.3502  0.2179 -0.0428
    8ETHOX  H2124692  10.754  10.000   5.777  0.3874  0.1676 -0.0546
    8ETHOX  H2324693  10.903  10.113   5.757  2.1248 -2.0772 -0.5708
    9ETHOX   O124694  10.782  10.132   5.931  0.2755 -0.1553 -0.2279
    9ETHOX   C124695  10.681  10.218   5.879 -0.0075  0.0267 -0.4583
    9ETHOX  H1124696  10.718  10.292   5.804  1.8850 -0.9735 -0.5771
    9ETHOX  H1324697  10.608  10.152   5.827 -0.3220 -0.4373  0.5490
    9ETHOX   C224698  10.620  10.307   5.983 -0.2622 -0.1273 -0.5905
    9ETHOX  H2124699  10.681  10.399   5.971 -0.7923  0.0171 -2.5279
    9ETHOX  H2324700  10.621  10.272   6.089  0.1077 -0.8714 -0.8353
   10ETHOX   O124701  10.482  10.327   5.944  0.2344  0.6837  0.1742
   10ETHOX   C124702  10.451  10.457   5.881 -0.0503 -0.1688 -0.4608
   10ETHOX  H1124703  10.517  10.459   5.792  3.0145  0.3919  1.6617
   10ETHOX  H1324704  10.488  10.539   5.946 -3.1825  0.1517  1.1078
   10ETHOX   C224705  10.303  10.479   5.868  0.1863 -0.1586 -0.4579
   10ETHOX  H2124706  10.268  10.382   5.827 -2.7103  0.5508  0.1342
   10ETHOX  H2324707  10.290  10.552   5.785  2.3683  0.6363 -0.1634
   11ETHOX   O124708  10.240  10.518   5.990 -0.3216 -0.1151  0.1144
   11ETHOX   C124709  10.227  10.651   6.011 -1.1736 -0.4584  0.4504
   11ETHOX  H1124710  10.323  10.706   6.005 -2.0893  1.4210  1.9805
   11ETHOX  H1324711  10.152  10.695   5.942 -2.5891 -2.7181  0.4287
   11ETHOX   C224712  10.152  10.672   6.141 -0.2637  0.0304  0.0119
   11ETHOX  H2124713  10.134  10.781   6.152 -3.4545 -0.3220 -0.5257
   11ETHOX  H2324714  10.058  10.613   6.128  0.2118 -0.8597  0.4626
   12ETHOX   O124715  10.227  10.625   6.251  0.6154  0.0009  0.4378
   12ETHOX   C124716  10.162  10.661   6.367  0.8189  0.6236 -0.0549
   12ETHOX  H1124717  10.059  10.696   6.346  1.3064  1.7406 -0.6757
   12ETHOX  H1324718  10.215  10.757   6.390  0.4028  2.0337 -4.1528
   12ETHOX   C224719  10.175  10.560   6.478  0.1466  0.1496  0.2426
   12ETHOX  H2124720  10.131  10.605   6.569 -1.5310  1.1272 -0.9978
   12ETHOX  H2324721  10.282  10.537   6.493  0.9196  1.2108 -2.8908
   13ETHOX   O124722  10.095  10.439   6.453 -0.6912  0.5683 -0.6763
   13ETHOX   C124723  10.141  10.330   6.540  0.3916  0.2937  0.3552
   13ETHOX  H1124724  10.249  10.308   6.529 -0.0183 -0.9982 -1.7005
   13ETHOX  H1324725  10.118  10.351   6.647 -3.3469  0.2065 -0.2809
   13ETHOX   C224726  10.056  10.209   6.507 -0.2592  0.8678 -0.3883
   13ETHOX  H2124727  10.116  10.133   6.561  0.8933  1.9842 -0.0467
   13ETHOX  H2324728  10.058  10.183   6.399  1.5364  1.8287 -0.6284
   14ETHOX   O124729   9.928  10.203   6.564 -0.1000 -0.2894 -0.0291
   14ETHOX   C124730   9.856  10.074   6.552 -0.3483 -0.2123  0.2114
   14ETHOX  H1124731   9.919  10.016   6.481 -0.8807  0.8001 -1.1551
   14ETHOX  H1324732   9.758  10.079   6.499 -1.4367  0.1022  2.1864
   14ETHOX   C224733   9.831   9.993   6.685 -0.8901  1.1383 -0.1392
   14ETHOX  H2124734   9.905  10.026   6.761  1.1782  0.2494 -1.6671
   14ETHOX  H2324735   9.821   9.884   6.663 -3.7173  1.1741  0.6137
   15ETHOX   O124736   9.700  10.023   6.734  0.3627 -0.1579 -0.6212
   15ETHOX   C124737   9.662   9.943   6.849  0.2481  0.4528 -0.0502
   15ETHOX  H1124738   9.552   9.934   6.859  0.2557  1.8970  2.2072
   15ETHOX  H1324739   9.719   9.848   6.855  1.6490  1.3123  0.8802
   15ETHOX   C224740   9.685  10.024   6.980 -0.3899  0.3837  0.2868
   15ETHOX  H2124741   9.633  10.121   6.964  0.7691  1.1818  1.1967
   15ETHOX  H2324742   9.645   9.964   7.065 -0.5408 -1.1526 -0.8210
   16ETHOX   O124743   9.823  10.044   7.012  0.2361 -0.2614 -0.4354
   16ETHOX   C124744   9.847  10.099   7.144 -0.0596 -0.5497 -0.0204
   16ETHOX  H1124745   9.763  10.076   7.212 -1.0965 -0.1684 -1.1302
   16ETHOX  H1324746   9.946  10.062   7.178 -0.9288 -2.1473  0.8817
   16ETHOX   C224747   9.857  10.253   7.149  0.2494  0.0243  0.0633
   16ETHOX  H2124748   9.833  10.286   7.252 -0.7279 -2.1882  0.6103
   16ETHOX  H2324749   9.770  10.274   7.082 -0.8292 -2.3170  0.6103
   17ETHOX   O124750   9.980  10.314   7.103  0.4225  0.1967 -0.2834
   17ETHOX   C124751   9.992  10.318   6.959  0.4544 -0.1118 -0.9838
   17ETHOX  H1124752  10.098  10.306   6.929  1.2433  0.0281  1.5511
   17ETHOX  H1324753   9.947  10.229   6.911 -0.8963 -1.5916  2.6803
   17ETHOX   C224754   9.926  10.439   6.897  0.3587  0.5889  0.8288
   17ETHOX  H2124755   9.946  10.426   6.788 -2.8026  0.8818  0.1137
   17ETHOX  H2324756   9.978  10.533   6.925 -0.0405  0.1413  3.3491
   18ETHOX   O124757   9.786  10.457   6.913  0.1917 -0.1405 -0.2251
   18ETHOX   C124758   9.703  10.385   6.825 -0.4903  0.0065 -0.0139
   18ETHOX  H1124759   9.750  10.409   6.727 -1.3797  2.4846  0.1053
   18ETHOX  H1324760   9.693  10.276   6.844 -1.4189  0.0698 -0.1002
   18ETHOX   C224761   9.575  10.457   6.827 -0.2161  0.3889 -0.6013
   18ETHOX  H2124762   9.510  10.420   6.745  0.5666  1.7676 -1.8821
   18ETHOX  H2324763   9.595  10.565   6.813 -0.6692  0.6991  0.9178
   19ETHOX   O124764   9.500  10.446   6.956  0.5521 -0.4208  0.4087
   19ETHOX   C124765   9.407  10.554   6.967  0.9354 -0.0279  0.6230
   19ETHOX  H1124766   9.324  10.534   6.896  1.0049  0.1576  0.4884
   19ETHOX  H1324767   9.457  10.648   6.936 -0.9971  1.0014  0.5055
   19ETHOX   C224768   9.332  10.568   7.099  0.1065 -0.1985 -0.0232
   19ETHOX  H2124769   9.293  10.672   7.100  1.3014  0.2708  0.3016
   19ETHOX  H2324770   9.399  10.537   7.183 -2.0181 -2.9227  0.8000
   20ETHOX   O124771   9.212  10.480   7.101 -0.2880 -0.1175 -0.4848
   20ETHOX   C124772   9.139  10.491   7.227 -0.6340 -0.7619  0.8513
   20ETHOX  H1124773   9.110  10.391   7.266  0.0782 -1.9287 -1.4308
   20ETHOX  H1324774   9.207  10.546   7.296 -1.7276  0.1378  1.2507
   20ETHOX   C224775   9.005  10.555   7.188 -0.0638  0.1210  0.7781
   20ETHOX  H2124776   8.933  10.551   7.273 -1.3963 -2.8100 -0.3451
   20ETHOX  H2324777   8.956  10.496   7.107  1.1523 -1.3256  1.0409
   21ETHOX   O124778   9.023  10.691   7.142 -0.2886 -0.4574 -0.4900
   21ETHOX   C124779   8.917  10.733   7.054  0.5803  0.4943  0.0666
   21ETHOX  H1124780   8.826  10.707   7.112  1.8742 -0.4586  1.7579
   21ETHOX  H1324781   8.924  10.675   6.960  1.6099  0.0483  0.4138
   21ETHOX   C224782   8.917  10.887   7.023 -0.2165 -0.5068  0.3141
   21ETHOX  H2124783   8.832  10.905   6.954 -0.5546 -2.5504  0.1254
   21ETHOX  H2324784   9.009  10.924   6.973 -0.7216  0.2678 -0.0579
   22ETHOX   O124785   8.897  10.965   7.136  0.0187 -0.9563 -0.0041
   22ETHOX   C124786   8.940  11.103   7.124 -0.8797 -0.4389  0.3103
   22ETHOX  H1124787   9.049  11.119   7.118 -0.6543 -1.9860 -0.0480
   22ETHOX  H1324788   8.912  11.144   7.024  1.6354  0.4473 -0.0917
   22ETHOX   C224789   8.873  11.187   7.227 -0.1130  0.2146 -0.5094
   22ETHOX  H2124790   8.882  11.289   7.185 -1.7870  0.6670  0.1477
   22ETHOX  H2324791   8.766  11.164   7.243 -0.2025  2.3052  2.7666
   23ETHOX   O124792   8.937  11.189   7.353 -0.2147 -0.2873 -0.2923
   23ETHOX   C124793   8.871  11.269   7.451  0.3299  0.1971 -0.4833
   23ETHOX  H1124794   8.768  11.234   7.475  0.2092  0.9148  0.1020
   23ETHOX  H1324795   8.850  11.368   7.406 -1.9853 -0.3331 -0.7186
   23ETHOX   C224796   8.961  11.284   7.577  0.9752 -0.0599  0.8714
   23ETHOX  H2124797   8.914  11.361   7.641  0.6574  0.0578  0.5027
   23ETHOX  H2324798   9.060  11.313   7.536  0.7978 -0.9381 -0.2495
   24ETHOX   O124799   8.965  11.159   7.650  0.3906  0.1482  0.2743
   24ETHOX   C124800   9.037  11.167   7.777 -0.0678  0.5220 -0.3566
   24ETHOX  H1124801   9.136  11.215   7.768  1.3814 -1.7703  1.9334
   24ETHOX  H1324802   8.960  11.219   7.839 -0.7097  0.9826 -1.5095
   24ETHOX   C224803   9.056  11.019   7.821  0.0810  0.2056  0.3012
   24ETHOX  H2124804   9.131  11.027   7.903 -0.7000 -0.5180  1.0914
   24ETHOX  H2324805   9.104  10.968   7.735 -0.3701  1.4757 -0.7380
   25ETHOX   O124806   8.948  10.958   7.888  0.1236  0.3680  0.0780
   25ETHOX   C124807   8.860  10.894   7.793 -0.1033 -0.1808 -0.2192
   25ETHOX  H1124808   8.915  10.811   7.743  0.4481  0.2670 -0.3539
   25ETHOX  H1324809   8.832  10.963   7.711 -1.2512  1.3528  1.3856
   25ETHOX   C224810   8.733  10.839   7.854 -0.4221 -0.3438  0.0308
   25ETHOX  H2124811   8.751  10.765   7.934  0.3288  1.0890  1.2326
   25ETHOX  H2324812   8.697  10.783   7.764  2.4429 -2.3421  0.0105
   26ETHOX   O124813   8.640  10.944   7.898  0.2420 -0.1284 -0.7498
   26ETHOX   C124814   8.509  10.899   7.911  0.4480 -0.2826 -0.4005
   26ETHOX  H1124815   8.468  10.825   7.839  1.0252  0.4143 -1.4616
   26ETHOX  H1324816   8.495  10.851   8.011  2.0601  1.1639  0.5734
   26ETHOX   C224817   8.404  11.013   7.912  0.4549 -0.8976  0.8144
   26ETHOX  H2124818   8.443  11.097   7.974 -0.7157  0.9373 -0.7980
   26ETHOX  H2324819   8.305  10.985   7.954 -0.7139 -0.3847 -1.4588
   27ETHOX   O124820   8.380  11.059   7.781 -0.7426  0.6586 -0.3621
   27ETHOX   C124821   8.286  11.160   7.778 -0.0676 -0.0054  0.3654
   27ETHOX  H1124822   8.322  11.264   7.793 -2.0190  0.6421  0.8467
   27ETHOX  H1324823   8.209  11.145   7.856  1.7361 -1.7364  1.8996
   27ETHOX   C224824   8.206  11.180   7.647  0.4954  0.0271  0.1137
   27ETHOX  H2124825   8.126  11.256   7.664  0.6118  0.2659 -0.3737
   27ETHOX  H2324826   8.157  11.081   7.631 -1.2736  0.6282  1.4935
   28ETHOX   O124827   8.279  11.218   7.531  0.2670  0.0396  0.3693
   28ETHOX   C124828   8.201  11.220   7.416 -0.2639 -0.2929  0.0507
   28ETHOX  H1124829   8.135  11.130   7.414  1.4761 -1.6379  0.0116
   28ETHOX  H1324830   8.143  11.314   7.412  1.2516  0.6535 -0.8459
   28ETHOX   C224831   8.286  11.217   7.287 -0.1415  0.0554  0.1068
   28ETHOX  H2124832   8.365  11.296   7.288  1.7647 -1.7437  1.0569
   28ETHOX  H2324833   8.210  11.221   7.207 -0.4282 -1.2435  0.2968
   29ETHOX   O124834   8.345  11.091   7.267 -0.0455  0.0793  0.4322
   29ETHOX   C124835   8.380  11.079   7.132  0.4403 -0.3407  0.0197
   29ETHOX  H1124836   8.413  11.178   7.095 -0.6161 -0.6492 -1.8956
   29ETHOX  H1324837   8.289  11.048   7.076 -1.6860  2.4152  1.6508
   29ETHOX   C224838   8.488  10.975   7.104  0.5409 -0.6001 -0.3855
   29ETHOX  H2124839   8.570  11.000   7.175 -0.9306  0.4413  0.9927
   29ETHOX  H2324840   8.505  10.996   6.996  0.2277  0.2322 -0.2767
   30ETHOX   O124841   8.453  10.836   7.098  0.2822  0.3059 -0.0411
   30ETHOX   C124842   8.528  10.764   7.190 -0.5343  0.4685 -0.1280
   30ETHOX  H1124843   8.633  10.797   7.203 -0.6641  0.5491  0.8122
   30ETHOX  H1324844   8.481  10.786   7.288  0.7243  0.2383  0.5459
   30ETHOX   C224845   8.506  10.611   7.155  0.1596  0.4763 -0.1624
   30ETHOX  H2124846   8.397  10.595   7.138 -0.5877  2.6108  2.1018
   30ETHOX  H2324847   8.543  10.547   7.237 -0.1329  0.7009  0.1442
   31ETHOX   O124848   8.595  10.577   7.041  0.2159 -0.3226 -0.4310
   31ETHOX   C124849   8.567  10.442   7.002 -0.0706  0.3622 -0.5983
   31ETHOX  H1124850   8.578  10.372   7.087 -0.7032  1.2163  0.2072
   31ETHOX  H1324851   8.459  10.434   6.976 -0.0975 -1.0556 -0.1077
   31ETHOX   C224852   8.652  10.404   6.881  0.1989 -0.0083 -0.1111
   31ETHOX  H2124853   8.626  10.296   6.869  0.5904 -0.7711  4.3793
   31ETHOX  H2324854   8.759  10.417   6.907  0.4152  0.3460 -1.1141
   32ETHOX   O124855   8.621  10.490   6.768  0.0055 -0.1310 -0.0225
   32ETHOX   C124856   8.726  10.513   6.669 -0.2230  0.1024 -0.7327
   32ETHOX  H1124857   8.723  10.616   6.628 -0.3429  0.6679  0.6581
   32ETHOX  H1324858   8.823  10.504   6.723 -1.4271 -2.0881  1.2477
   32ETHOX   C224859   8.727  10.403   6.560  0.3931  0.1519 -0.3166
   32ETHOX  H2124860   8.809  10.418   6.487  1.1589 -1.3977  0.1894
   32ETHOX  H2324861   8.629  10.404   6.506  0.8103  2.9180 -1.1927
   33ETHOX   O124862   8.739  10.272   6.610 -0.2262  0.5561 -0.8054
   33ETHOX   C124863   8.684  10.179   6.520 -0.2873  0.6622  0.4299
   33ETHOX  H1124864   8.581  10.204   6.486 -0.6733 -1.6952 -0.2975
   33ETHOX  H1324865   8.745  10.171   6.428 -0.8365 -0.5045  0.1535
   33ETHOX   C224866   8.661  10.028   6.566  0.2129  0.4626 -0.0303
   33ETHOX  H2124867   8.601   9.979   6.486  1.3996 -1.1973  0.0548
   33ETHOX  H2324868   8.624  10.015   6.670  0.1146 -1.4134 -0.2586
   34ETHOX   O124869   8.780   9.951   6.577  0.0373  0.3435 -0.3974
   34ETHOX   C124870   8.772   9.822   6.514  0.2104 -0.7861 -0.1586
   34ETHOX  H1124871   8.774   9.827   6.403  1.3841  2.5983 -0.0912
   34ETHOX  H1324872   8.683   9.768   6.554  1.2445 -1.6580  1.0740
   34ETHOX   C224873   8.899   9.743   6.554 -0.2474  0.1720  0.4953
   34ETHOX  H2124874   8.902   9.644   6.504  1.0058  0.0693  0.7367
   34ETHOX  H2324875   8.892   9.720   6.663  0.8247 -1.7946  0.1955
   35ETHOX   O124876   9.018   9.813   6.508 -0.5758 -0.1846 -0.5159
   35ETHOX   C124877   9.134   9.769   6.579  0.4595 -0.0133 -0.6996
   35ETHOX  H1124878   9.124   9.794   6.687 -0.0284 -0.2279 -0.6919
   35ETHOX  H1324879   9.141   9.659   6.565  1.1133  0.0633 -0.9856
   35ETHOX   C224880   9.270   9.830   6.540  0.0974 -0.1379 -0.8135
   35ETHOX  H2124881   9.280   9.928   6.592  0.5088 -0.0436 -1.0590
   35ETHOX  H2324882   9.282   9.841   6.430  1.1606  0.2784 -0.6766
   36ETHOX   O124883   9.374   9.747   6.587 -0.5057  0.2594 -1.0006
   36ETHOX   C124884   9.504   9.793   6.551  0.9405  0.6564  0.3091
   36ETHOX  H1124885   9.519   9.879   6.619 -2.3948  0.2808  1.7302
   36ETHOX  H1324886   9.513   9.803   6.440 -0.2081  0.7058  0.2015
   36ETHOX   C224887   9.603   9.681   6.594 -0.3053  0.7189 -0.2779
   36ETHOX  H2124888   9.586   9.663   6.702 -0.5410  1.0452 -0.2576
   36ETHOX  H2324889   9.708   9.717   6.580  0.4229 -0.1463  2.4054
   37ETHOX   O124890   9.599   9.559   6.515 -0.2333  0.5544 -0.2936
   37ETHOX   C124891   9.681   9.458   6.572  0.4325 -0.1586  0.6794
   37ETHOX  H1124892   9.790   9.473   6.555  0.7640 -1.3969  1.5549
   37ETHOX  H1324893   9.670   9.465   6.682  0.6211  0.4975  0.6625
   37ETHOX   C224894   9.646   9.310   6.532 -0.5897 -0.1470 -0.6829
   37ETHOX  H2124895   9.690   9.296   6.431 -1.0227 -1.6240 -0.6847
   37ETHOX  H2324896   9.536   9.297   6.530 -1.1396  2.7959  2.2649
   38ETHOX   O124897   9.717   9.226   6.622 -0.2905 -0.5208 -0.1476
   38ETHOX   C124898   9.656   9.098   6.616 -0.9685 -0.6331 -0.0466
   38ETHOX  H1124899   9.624   9.075   6.512  2.9714  1.9825 -2.0709
   38ETHOX  H1324900   9.571   9.099   6.688 -0.1971 -1.0101  0.8928
   38ETHOX   C224901   9.768   8.998   6.655  0.3394 -0.1529 -0.4911
   38ETHOX  H2124902   9.865   8.993   6.600  2.2067  1.5772  2.3978
   38ETHOX  H2324903   9.719   8.899   6.641 -0.5361  0.2081 -0.0408
   39ETHOX   O124904   9.802   9.029   6.787 -0.1615  0.5519  0.1273
   39ETHOX   C124905   9.827   8.913   6.869  0.0049 -0.3096  0.6190
   39ETHOX  H1124906   9.732   8.892   6.923  0.0037 -0.0932  0.7033
   39ETHOX  H1324907   9.852   8.826   6.804 -0.0617 -1.3954  2.0096
   39ETHOX   C224908   9.940   8.937   6.975 -0.2793 -0.0874 -0.2763
   39ETHOX  H2124909  10.029   8.948   6.910 -0.1902 -1.8519 -0.4965
   39ETHOX  H2324910   9.951   8.844   7.035 -1.3856  0.5086  0.9140
   40ETHOX   O124911   9.923   9.050   7.067  0.3642 -0.1345  0.0986
   40ETHOX   C124912  10.011   9.051   7.182 -0.2991  0.0531  0.6907
   40ETHOX  H1124913  10.112   9.086   7.153  0.0896 -0.4333  1.4348
   40ETHOX  H1324914  10.029   8.950   7.226  0.0222  0.3477  1.2459
   40ETHOX   C224915   9.965   9.131   7.299  0.3399 -0.3973  0.4589
   40ETHOX  H2124916  10.041   9.126   7.380  2.2461  2.5584 -0.9773
   40ETHOX  H2324917   9.874   9.080   7.338  0.7808 -0.6563  1.1701
   41ETHOX   O124918   9.948   9.265   7.253  0.4428 -0.1630  0.3248
   41ETHOX   C124919   9.901   9.347   7.359 -1.2003 -0.2218 -0.5335
   41ETHOX  H1124920   9.803   9.310   7.395 -2.1503  2.2767 -0.3086
   41ETHOX  H1324921   9.972   9.357   7.445 -0.6098  0.9847 -1.1329
   41ETHOX   C224922   9.888   9.493   7.311 -0.3017  0.0000  0.2674
   41ETHOX  H2124923   9.798   9.498   7.245 -0.8910 -2.4263  0.7942
   41ETHOX  H2324924   9.980   9.521   7.255  0.2475  2.3291  2.1707
   42ETHOX   O124925   9.879   9.600   7.411 -0.0962 -0.4395 -0.0213
   42ETHOX   C124926   9.855   9.734   7.359  0.3209 -0.1158  0.0316
   42ETHOX  H1124927   9.954   9.759   7.317 -0.0994 -0.0891 -0.9698
   42ETHOX  H1324928   9.780   9.720   7.278 -1.8517 -0.8039  2.0287
   42ETHOX   C224929   9.810   9.835   7.469 -0.3641 -0.4731 -0.1172
   42ETHOX  H2124930   9.733   9.779   7.527 -0.3179 -3.1390 -2.4146
   42ETHOX  H2324931   9.760   9.926   7.430  1.9091  0.1966 -1.6344
   43ETHOX   O124932   9.923   9.875   7.542  0.2121 -0.1895  0.0198
   43ETHOX   C124933   9.877   9.934   7.664 -0.9210  0.3699  0.0621
   43ETHOX  H1124934   9.796  10.009   7.657 -2.5212 -0.7306  3.8898
   43ETHOX  H1324935   9.824   9.857   7.724 -1.0537 -0.5907 -1.2363
   43ETHOX   C224936   9.991   9.973   7.741  0.0306  0.5010 -1.1158
   43ETHOX  H2124937   9.957  10.033   7.829  0.0493 -0.2948 -0.5560
   43ETHOX  H2324938  10.050  10.042   7.676  1.3660 -0.1632 -0.6582
   44ETHOX   O124939  10.073   9.870   7.793 -0.1975 -0.6005 -0.6844
   44ETHOX   C124940  10.200   9.913   7.831  0.7363 -0.2732 -0.0509
   44ETHOX  H1124941  10.230   9.989   7.756 -0.3564 -1.0699 -1.3437
   44ETHOX  H1324942  10.187   9.960   7.931  1.7220 -1.7301  0.7941
   44ETHOX   C224943  10.304   9.802   7.851  0.2496 -0.3162 -0.3083
   44ETHOX  H2124944  10.244   9.708   7.852 -1.4605  0.7316 -1.0158
   44ETHOX  H2324945  10.355   9.811   7.949  0.2473 -0.0776 -0.3286
   45ETHOX   O124946  10.387   9.794   7.733  0.3256 -0.5746 -0.9885
   45ETHOX   C124947  10.430   9.659   7.716 -0.0667  0.6930  0.0157
   45ETHOX  H1124948  10.351   9.581   7.726  0.1311  0.6333  1.2984
   45ETHOX  H1324949  10.483   9.632   7.810 -1.5322 -2.3104  0.1059
   45ETHOX   C224950  10.515   9.645   7.589 -0.5860  0.1369 -0.6244
   45ETHOX  H2124951  10.584   9.558   7.599  1.3987  1.8192  1.2085
   45ETHOX  H2324952  10.579   9.734   7.578  1.0500 -0.8503  0.4686
   46ETHOX   O124953  10.433   9.631   7.472 -0.3607 -0.4461  0.2537
   46ETHOX   C124954  10.522   9.633   7.364 -0.3199 -0.1068  1.1750
   46ETHOX  H1124955  10.608   9.702   7.376 -1.6612  1.4096  2.5951
   46ETHOX  H1324956  10.559   9.530   7.344 -0.7850 -0.0428 -0.0999
   46ETHOX   C224957  10.432   9.675   7.245 -0.2274  0.0227  0.8415
   46ETHOX  H2124958  10.342   9.610   7.248  0.8977 -1.7201 -0.6750
   46ETHOX  H2324959  10.496   9.652   7.157 -0.0945 -1.5939  1.3335
   47ETHOX   O124960  10.402   9.818   7.231  0.0232 -0.2696 -0.2679
   47ETHOX   C124961  10.301   9.836   7.125  0.2850  0.3954  0.6859
   47ETHOX  H1124962  10.205   9.788   7.155  0.9214 -0.9603  0.6141
   47ETHOX  H1324963  10.339   9.786   7.033 -0.6028  1.1003 -0.0875
   47ETHOX   C224964  10.278   9.987   7.090  0.2372  0.3408 -0.0349
   47ETHOX  H2124965  10.283  10.040   7.187  3.3034  1.4127 -0.6593
   47ETHOX  H2324966  10.179  10.003   7.043  0.1071 -2.2300 -0.8032
   48ETHOX   O124967  10.386  10.030   7.007 -0.2264 -0.2652  0.4573
   48ETHOX   C124968  10.385  10.162   6.978 -0.3491 -0.2034 -0.4548
   48ETHOX  H1124969  10.302  10.172   6.905 -0.6147 -0.1168 -0.1421
   48ETHOX  H1324970  10.380  10.228   7.067 -2.3916  1.0427 -1.4104
   48ETHOX   C224971  10.523  10.183   6.907 -0.4201  0.3440 -0.4342
   48ETHOX  H2124972  10.612  10.149   6.964 -0.7839  1.3749  0.7795
   48ETHOX  H2324973  10.515  10.136   6.806 -2.2111  1.0947 -0.6844
   49ETHOX   O124974  10.554  10.323   6.891 -0.2133 -0.2152 -0.0293
   49ETHOX   C124975  10.680  10.338   6.820 -0.0067  0.3395 -0.1441
   49ETHOX  H1124976  10.658  10.299   6.718 -1.8469  0.2095  0.2773
   49ETHOX  H1324977  10.761  10.272   6.856 -1.4911 -1.2508  0.3996
   49ETHOX   C224978  10.718  10.485   6.803 -0.0785 -0.9834  0.3289
   49ETHOX  H2124979  10.622  10.536   6.780 -0.4532 -1.9068 -0.2206
   49ETHOX  H2324980  10.789  10.509   6.721 -1.3286  0.5219 -0.3530
   50ETHOX   O124981  10.769  10.535   6.930 -0.3470  0.3347  0.2157
   50ETHOX   C124982  10.903  10.506   6.962 -0.2387 -0.4736  0.4039
   50ETHOX  H1124983  10.918  10.396   6.960  0.7739 -0.3469  0.5970
   50ETHOX  H1324984  10.975  10.556   6.894 -0.3450 -1.6264 -0.5812
   50ETHOX   C224985  10.930  10.515   7.121  0.0227  0.2486 -0.2949
   50ETHOX  H2124986  11.032  10.479   7.144 -0.3037 -0.4927  0.0088
   50ETHOX  H2324987  10.858  10.448   7.172 -0.6839  2.8766  2.4739
   51ETHOX   O124988  10.908  10.646   7.174 -0.3922  0.1292  0.1788
   51ETHOX   C124989  11.035  10.710   7.205  0.7315  0.0700 -0.6199
   51ETHOX  H1124990  11.121  10.682   7.141  0.1127 -0.0035 -1.4296
   51ETHOX  H1324991  11.053  10.670   7.307  0.6270 -1.6825 -1.2527
   51ETHOX   C224992  11.020  10.866   7.208 -0.5530  0.7576 -0.3073
   51ETHOX  H2124993  10.920  10.882   7.252 -0.7803 -0.6441 -0.2536
   51ETHOX  H2324994  11.026  10.909   7.106 -1.6521 -1.2309 -1.2782
   52ETHOX   O124995  11.118  10.928   7.289  0.0744 -0.5377  0.5833
   52ETHOX   C124996  11.072  10.954   7.421  0.4122 -0.4461 -0.1918
   52ETHOX  H1124997  10.989  11.027   7.415  0.9616  0.1978 -0.0740
   52ETHOX  H1324998  11.032  10.865   7.474 -1.3862 -0.8604 -2.0960
   52ETHOX   C224999  11.187  11.009   7.505 -0.3151  0.6946 -0.0424
   52ETHOX  H2125000  11.147  11.068   7.591 -1.8453  3.1007 -2.2389
   52ETHOX  H2325001  11.235  11.081   7.435 -1.2539  1.4407  0.0630
   53ETHOX   O125002  11.292  10.914   7.543 -0.4198 -0.0772 -0.0308
   53ETHOX   C125003  11.381  10.980   7.631  0.3864 -0.3225 -0.1971
   53ETHOX  H1125004  11.430  11.066   7.580 -0.4945  0.4507  0.2409
   53ETHOX  H1325005  11.332  11.015   7.724  1.6237 -2.3598  1.3030
   53ETHOX   C225006  11.482  10.871   7.676  0.4979 -1.2717  0.2939
   53ETHOX  H2125007  11.565  10.923   7.729  0.3473 -1.4712  0.7318
   53ETHOX  H2325008  11.528  10.812   7.594  0.2859 -1.4094  0.2725
   54ETHOX   O125009  11.422  10.787   7.776 -0.3172  0.1524  0.1006
   54ETHOX   C125010  11.519  10.689   7.830 -0.2760 -0.5758 -0.1129
   54ETHOX  H1125011  11.569  10.633   7.748 -0.9092 -0.1421 -0.8019
   54ETHOX  H1325012  11.605  10.742   7.877 -0.7294  1.1566 -1.1554
   54ETHOX   C225013  11.435  10.606   7.930 -0.1596  0.6536  0.5703
   54ETHOX  H2125014  11.402  10.677   8.009  2.4564  1.5509  0.9502
   54ETHOX  H2325015  11.510  10.536   7.973 -1.4522 -0.9274  0.3519
   55ETHOX   O125016  11.330  10.529   7.876  0.1732  0.5747  0.3014
   55ETHOX   C125017  11.264  10.457   7.980 -0.0159  0.0938 -0.6613
   55ETHOX  H1125018  11.336  10.388   8.028  0.1349 -0.3888 -1.5629
   55ETHOX  H1325019  11.235  10.529   8.059  0.2927 -1.5980  1.0706
   55ETHOX   C225020  11.146  10.373   7.916 -0.6470  0.5122 -0.8191
   55ETHOX  H2125021  11.077  10.342   7.997 -1.5744 -0.4165 -1.9411
   55ETHOX  H2325022  11.086  10.448   7.860 -1.0843 -0.7740 -2.1207
   56ETHOX   O125023  11.175  10.252   7.839 -0.0009 -0.0414  0.1029
   56ETHOX   C125024  11.086  10.143   7.879 -0.3125 -1.0560  0.1935
   56ETHOX  H1125025  11.070  10.136   7.988 -2.2754 -0.6618 -0.0252
   56ETHOX  H1325026  11.129  10.045   7.848  1.2903 -0.3395  0.0970
   56ETHOX   C225027  10.935  10.156   7.836  0.2143 -0.3063 -0.9423
   56ETHOX  H2125028  10.906  10.262   7.853 -1.5307 -0.8550 -0.2138
   56ETHOX  H2325029  10.876  10.101   7.912  0.1099  0.7554 -0.2249
   57ETHOX   O125030  10.914  10.108   7.703 -0.0812  0.3979  0.0777
   57ETHOX   C125031  10.925  10.209   7.608  0.3652  0.5271  0.0566
   57ETHOX  H1125032  10.850  10.285   7.635 -1.0268 -1.0861  0.8742
   57ETHOX  H1325033  11.032  10.241   7.607  0.2642  0.9081  0.8055
   57ETHOX   C225034  10.887  10.151   7.464  0.4878  0.1431  0.1923
   57ETHOX  H2125035  10.949  10.065   7.431 -0.5503 -0.2146 -0.9009
   57ETHOX  H2325036  10.905  10.238   7.397  1.3268 -0.4980 -0.4432
   58ETHOX   O125037  10.749  10.117   7.459  0.1393  0.2533  0.0035
   58ETHOX   C125038  10.718   9.987   7.409  0.2327 -0.2486  0.0974
   58ETHOX  H1125039  10.618   9.958   7.449  0.0897 -0.0410 -0.1115
   58ETHOX  H1325040  10.790   9.910   7.444  1.1714  0.7309  0.3706
   58ETHOX   C225041  10.696   9.982   7.256 -0.5402 -0.5907  0.0778
   58ETHOX  H2125042  10.651  10.077   7.219  0.0296  0.2267  1.4220
   58ETHOX  H2325043  10.635   9.896   7.221 -0.9669 -0.5071  0.5948
   59ETHOX   O125044  10.825   9.981   7.191  0.3973  0.2839 -0.3265
   59ETHOX   C125045  10.820   9.947   7.056  0.0488  0.1840  0.0056
   59ETHOX  H1125046  10.740   9.870   7.045  0.6996 -0.4451 -0.4904
   59ETHOX  H1325047  10.805  10.038   6.995 -2.2998  0.0751  0.3205
   59ETHOX   C225048  10.952   9.876   7.028 -0.1632 -0.2359  0.4705
   59ETHOX  H2125049  10.950   9.820   6.932 -1.2108 -2.2162  1.5680
   59ETHOX  H2325050  10.974   9.796   7.103 -1.8997  0.1878  1.5171
   60ETHOX   O125051  11.061   9.967   7.024  0.9059  0.2097  0.0339
   60ETHOX   C125052  11.190   9.905   7.014  0.0091  0.1377  0.2267
   60ETHOX  H1125053  11.211   9.891   6.906  0.7904  0.9891  0.2568
   60ETHOX  H1325054  11.191   9.810   7.071  0.1072 -0.9850 -1.5640
   60ETHOX   C225055  11.302  10.002   7.059  0.2685 -0.1782  0.3919
   60ETHOX  H2125056  11.280  10.045   7.159  0.9621 -2.6349  1.6870
   60ETHOX  H2325057  11.322  10.075   6.977  1.0392 -1.9736 -1.0742
   61ETHOX   O125058  11.432   9.941   7.065  0.6814 -0.4215 -0.2021
   61ETHOX   C125059  11.521  10.014   7.148 -0.2555  0.1425 -0.0593
   61ETHOX  H1125060  11.548  10.108   7.096 -1.5749 -0.3165 -1.6827
   61ETHOX  H1325061  11.484  10.035   7.250  0.4505  0.9099  0.0503
   61ETHOX   C225062  11.647   9.926   7.181  0.1726  0.5220 -0.5285
   61ETHOX  H2125063  11.613   9.821   7.197  2.5493 -0.2468 -0.0576
   61ETHOX  H2325064  11.709   9.949   7.270  0.6827  0.0785 -0.7574
   62ETHOX   O125065  11.737   9.924   7.063  0.3567  0.1275 -0.1443
   62ETHOX   C125066  11.772   9.787   7.034 -0.5461  0.3774  0.4033
   62ETHOX  H1125067  11.678   9.727   7.027 -0.6418  0.6086 -0.3809
   62ETHOX  H1325068  11.837   9.759   7.120 -0.6567  2.3075  1.1634
   62ETHOX   C225069  11.847   9.785   6.903 -1.2745  0.0393  0.2319
   62ETHOX  H2125070  11.794   9.812   6.809  0.6934 -0.3083 -1.0545
   62ETHOX  H2325071  11.893   9.685   6.885 -1.4299  0.1723 -0.9860
   63ETHOX   O125072  11.962   9.881   6.922 -0.2254  0.0672 -0.4943
   63ETHOX   C125073  12.068   9.859   6.831 -0.2751 -0.1120 -0.4711
   63ETHOX  H1125074  12.155   9.921   6.862 -0.0849 -0.4710 -0.2781
   63ETHOX  H1325075  12.104   9.754   6.838 -1.8592 -0.6701 -0.2635
   63ETHOX   C225076  12.038   9.889   6.689 -0.4135 -0.5465 -0.7230
   63ETHOX  H2125077  11.990   9.989   6.682 -0.8511 -0.5086  1.7769
   63ETHOX  H2325078  11.976   9.805   6.650  1.5194 -1.9749 -0.8451
   64ETHOX   O125079  12.149   9.888   6.615 -0.0093  0.0566  0.0493
   64ETHOX   C125080  12.127   9.933   6.480 -0.5278 -0.0040 -0.6571
   64ETHOX  H1125081  12.226   9.969   6.445 -0.8388  1.5867  0.0131
   64ETHOX  H1325082  12.056  10.018   6.487 -0.9787 -0.5261  2.3776
   64ETHOX   C225083  12.077   9.823   6.391 -0.3665 -0.6271  0.2522
   64ETHOX  H2125084  12.088   9.856   6.286  2.3615 -2.2536 -0.0643
   64ETHOX  H2325085  11.972   9.808   6.424 -0.6314  1.4967  0.4834
   65ETHOX   O125086  12.155   9.709   6.427 -0.5350  0.2004 -0.4762
   65ETHOX   C125087  12.088   9.585   6.404 -0.2924  0.0334  0.0684
   65ETHOX  H1125088  11.989   9.597   6.453 -0.6843  2.4202 -1.1357
   65ETHOX  H1325089  12.070   9.578   6.294  2.2470  0.6319 -0.4508
   65ETHOX   C225090  12.180   9.471   6.462  0.0868 -0.1573 -0.4061
   65ETHOX  H2125091  12.120   9.377   6.461  3.3507 -2.4944  2.1403
   65ETHOX  H2325092  12.212   9.502   6.564 -0.0416  2.0223 -0.9785
   66ETHOX   O125093  12.287   9.444   6.376 -0.2353  0.6652  0.3964
   66ETHOX   C125094  12.365   9.327   6.418  0.6542 -0.1356 -0.4183
   66ETHOX  H1125095  12.306   9.236   6.439 -0.1181  0.3486 -0.4418
   66ETHOX  H1325096  12.431   9.345   6.505 -0.8783  0.6671  0.6238
   66ETHOX   C225097  12.459   9.286   6.302  0.4985  0.4823 -0.0717
   66ETHOX  H2125098  12.512   9.383   6.290 -0.3394  0.8785 -0.6562
   66ETHOX  H2325099  12.398   9.274   6.210  0.0631  0.3147  0.2362
   67ETHOX   O125100  12.543   9.168   6.319 -0.1612 -0.0757 -0.6815
   67ETHOX   C125101  12.653   9.150   6.222  0.2078 -0.6746 -0.5245
   67ETHOX  H1125102  12.706   9.246   6.205  2.6779 -2.0158 -0.8820
   67ETHOX  H1325103  12.726   9.073   6.255  0.3844 -0.8470 -1.3000
   67ETHOX   C225104  12.618   9.094   6.077 -0.3806  0.3403  0.1348
   67ETHOX  H2125105  12.713   9.077   6.021  0.4203 -0.2623  1.6248
   67ETHOX  H2325106  12.567   9.169   6.012  2.5603  1.0522 -1.5498
   68ETHOX   O125107  12.549   8.972   6.079  0.4337  0.1611  0.0540
   68ETHOX   C125108  12.410   8.984   6.082  0.6209  0.3676  0.0364
   68ETHOX  H1125109  12.364   9.042   6.165 -0.8533  2.1866 -1.9384
   68ETHOX  H1325110  12.377   9.021   5.982  1.6615 -1.0113 -0.8498
   68ETHOX   C225111  12.350   8.845   6.087  0.3302 -0.3710  0.1130
   68ETHOX  H2125112  12.370   8.784   5.997 -0.6805  1.3245 -1.3282
   68ETHOX  H2325113  12.239   8.843   6.084  0.2525 -3.3180  1.4911
   69ETHOX   O125114  12.383   8.781   6.212 -0.7238  0.5444  0.2713
   69ETHOX   C125115  12.347   8.641   6.211 -0.0555  0.4863 -0.0050
   69ETHOX  H1125116  12.236   8.638   6.207 -0.0542  0.8170 -0.5371
   69ETHOX  H1325117  12.393   8.587   6.126 -3.5061 -1.0892 -1.0330
   69ETHOX   C225118  12.400   8.565   6.342  0.0568 -0.6177  0.1240
   69ETHOX  H2125119  12.368   8.459   6.346 -1.2437 -0.3856 -2.2779
   69ETHOX  H2325120  12.356   8.614   6.431  1.6311  0.8039  0.1699
   70ETHOX   O125121  12.538   8.561   6.361  0.7006 -0.4299  0.8182
   70ETHOX   C125122  12.574   8.488   6.474 -0.0779 -0.0091  0.3999
   70ETHOX  H1125123  12.550   8.543   6.567 -2.3319 -3.5218  2.1369
   70ETHOX  H1325124  12.507   8.399   6.475 -0.5038  0.3066  1.2832
   70ETHOX   C225125  12.721   8.440   6.473  0.3306 -0.0816 -0.1953
   70ETHOX  H2125126  12.753   8.411   6.371 -1.3786 -0.4852 -0.6482
   70ETHOX  H2325127  12.713   8.354   6.544 -2.0120  1.0271  0.9903
   71ETHOX   O125128  12.819   8.529   6.520 -0.1735 -0.2419  0.0077
   71ETHOX   C125129  12.951   8.487   6.507 -0.2449  0.4714 -0.1707
   71ETHOX  H1125130  12.960   8.430   6.412  1.2623  2.0032 -1.0078
   71ETHOX  H1325131  12.971   8.418   6.591  1.8244 -0.4022 -1.3155
   71ETHOX   C225132  13.058   8.596   6.507 -0.0821  0.0561  0.9872
   71ETHOX  H2125133  13.032   8.667   6.426 -0.5762 -0.5396  0.6167
   71ETHOX  H2325134  13.157   8.554   6.480 -1.5914 -4.6660  1.8484
   72ETHOX   O125135  13.064   8.669   6.628 -0.2120 -0.0319  0.1483
   72ETHOX   C125136  13.183   8.640   6.706 -0.0232  0.6541 -0.0346
   72ETHOX  H1125137  13.187   8.530   6.715  0.2593  0.3373 -2.9223
   72ETHOX  H1325138  13.274   8.671   6.651  0.3036  1.0333  0.7117
   72ETHOX   C225139  13.177   8.710   6.843 -0.8057 -0.1360  0.1095
   72ETHOX  H2125140  13.236   8.663   6.924  0.2480  1.6681  0.4404
   72ETHOX  H2325141  13.070   8.717   6.875 -0.7906 -0.4944  0.2348
   73ETHOX   O125142  13.211   8.853   6.839  0.4023  0.0384 -0.5076
   73ETHOX   C125143  13.345   8.882   6.803 -0.1983  0.1666 -0.2773
   73ETHOX  H1125144  13.394   8.821   6.723  1.5802 -0.2188  1.0360
   73ETHOX  H1325145  13.415   8.877   6.889  0.2630 -2.5854 -0.7156
   73ETHOX   C225146  13.354   9.023   6.746  0.3566  0.0112  0.0216
   73ETHOX  H2125147  13.265   9.056   6.689 -1.9200 -0.4216  3.0591
   73ETHOX  H2325148  13.441   9.024   6.676  0.2450  0.3139 -0.1129
   74ETHOX   O125149  13.370   9.118   6.853  0.1683  0.2078  0.5094
   74ETHOX   C125150  13.370   9.245   6.794  0.1239  0.4913 -0.0293
   74ETHOX  H1125151  13.465   9.255   6.736  0.5277 -1.3841  0.2471
   74ETHOX  H1325152  13.287   9.257   6.721 -0.1679 -2.1378 -0.2265
   74ETHOX   C225153  13.373   9.344   6.911  0.0828 -0.8357 -0.2343
   74ETHOX  H2125154  13.381   9.448   6.872 -0.3201  0.3204  2.5276
   74ETHOX  H2325155  13.466   9.332   6.972  1.3109  0.1173 -1.8512
   75ETHOX   O125156  13.254   9.349   6.996  0.1326 -0.1357  0.0590
   75ETHOX   C125157  13.171   9.455   6.954  0.2458  0.4480  0.0317
   75ETHOX  H1125158  13.150   9.431   6.848  0.9706  0.9264 -0.2310
   75ETHOX  H1325159  13.229   9.550   6.960 -0.3264  0.7072  3.3886
   75ETHOX   C225160  13.052   9.477   7.047 -1.0857  0.3590 -0.8027
   75ETHOX  H2125161  12.992   9.559   7.004 -2.0817 -0.3539 -0.8044
   75ETHOX  H2325162  13.086   9.503   7.150  1.5220  1.2785 -1.7971
   76ETHOX   O125163  12.966   9.362   7.054  0.6860 -0.2012 -0.1748
   76ETHOX   C125164  12.866   9.364   6.952 -0.5791  0.1904  0.4041
   76ETHOX  H1125165  12.809   9.459   6.951 -2.4005 -0.8167 -2.7586
   76ETHOX  H1325166  12.910   9.354   6.851  1.1235 -2.1958  1.2684
   76ETHOX   C225167  12.780   9.242   6.965 -0.3358  0.4195 -0.5650
   76ETHOX  H2125168  12.840   9.149   6.980 -2.3641 -1.1653 -1.6385
   76ETHOX  H2325169  12.728   9.233   6.867  2.1761  0.6206 -1.9855
   77ETHOX   O125170  12.679   9.266   7.060  0.1848 -0.0634 -0.0681
   77ETHOX   C125171  12.588   9.159   7.057  0.1774 -0.8086 -0.2467
   77ETHOX  H1125172  12.641   9.066   7.088  1.5234  0.0359  0.0357
   77ETHOX  H1325173  12.539   9.133   6.961 -1.0951  1.8231 -0.3872
   77ETHOX   C225174  12.483   9.195   7.165  0.0304  0.3566  0.3392
   77ETHOX  H2125175  12.546   9.206   7.256 -1.3018 -1.1868  1.5098
   77ETHOX  H2325176  12.422   9.103   7.177  0.4294  0.2121  1.3277
   78ETHOX   O125177  12.406   9.306   7.137  0.4603 -0.5322 -0.2872
   78ETHOX   C125178  12.324   9.328   7.251  0.0147 -0.4738  0.7876
   78ETHOX  H1125179  12.228   9.364   7.208 -0.0885 -2.0543 -0.3644
   78ETHOX  H1325180  12.292   9.233   7.299 -1.2223 -0.8084 -0.6483
   78ETHOX   C225181  12.380   9.431   7.349  0.5517  0.4124  0.5139
   78ETHOX  H2125182  12.482   9.393   7.369  0.9867  0.4497 -1.4427
   78ETHOX  H2325183  12.309   9.414   7.433  0.8302 -2.3548  0.3046
   79ETHOX   O125184  12.374   9.569   7.318 -0.1725  0.0327 -0.8152
   79ETHOX   C125185  12.440   9.655   7.410  0.4239 -0.5752  0.4373
   79ETHOX  H1125186  12.420   9.643   7.518  2.2997  2.0539  1.1702
   79ETHOX  H1325187  12.549   9.643   7.396  0.6347  1.7925 -0.3394
   79ETHOX   C225188  12.421   9.802   7.382 -0.2843  0.1167  0.6857
   79ETHOX  H2125189  12.467   9.840   7.289 -1.9130  1.0169  0.2187
   79ETHOX  H2325190  12.472   9.862   7.460 -1.3934  2.8993 -0.6131
   80ETHOX   O125191  12.282   9.840   7.394  0.2145  0.3210 -0.2059
   80ETHOX   C125192  12.264   9.961   7.468 -0.3218 -0.3987 -0.2864
   80ETHOX  H1125193  12.302   9.945   7.571 -0.3371 -1.2527 -0.4077
   80ETHOX  H1325194  12.332  10.028   7.411  0.7275 -0.4540  0.8556
   80ETHOX   C225195  12.116  10.012   7.471  0.6723 -0.2540  0.0759
   80ETHOX  H2125196  12.071  10.025   7.370 -0.1095  0.8333  0.5393
   80ETHOX  H2325197  12.126  10.115   7.510 -1.1760  0.6900 -1.7261
   81ETHOX   O125198  12.028   9.943   7.563  0.3101  0.7736 -0.2217
   81ETHOX   C125199  11.991   9.811   7.509 -0.6769 -0.7916 -0.4884
   81ETHOX  H1125200  11.972   9.819   7.400 -2.6572 -1.5305 -0.2310
   81ETHOX  H1325201  12.076   9.746   7.538  0.0805  0.3903  0.0095
   81ETHOX   C225202  11.861   9.754   7.562 -0.0469  0.0230 -0.4413
   81ETHOX  H2125203  11.849   9.653   7.517  0.2168  1.1435 -3.1871
   81ETHOX  H2325204  11.859   9.751   7.673  2.2644  1.2096 -0.3054
   82ETHOX   O125205  11.746   9.825   7.529  0.3042 -0.0408 -0.0919
   82ETHOX   C125206  11.628   9.752   7.557  0.0446 -0.1773  0.0893
   82ETHOX  H1125207  11.650   9.684   7.642 -0.2656 -3.0711 -1.9723
   82ETHOX  H1325208  11.612   9.682   7.472 -1.7863 -0.3405  0.5327
   82ETHOX   C225209  11.507   9.838   7.586  0.2524 -0.3521 -0.1497
   82ETHOX  H2125210  11.537   9.910   7.665 -3.2954  0.3786  0.6761
   82ETHOX  H2325211  11.421   9.786   7.632  1.2632 -1.2018  0.8414
   83ETHOX   O125212  11.469   9.921   7.474 -0.3516  0.9226  1.0056
   83ETHOX   C125213  11.353   9.998   7.498  0.0715  0.3578  0.0129
   83ETHOX  H1125214  11.333  10.059   7.408  0.1470  2.3012  1.2466
   83ETHOX  H1325215  11.265   9.930   7.502  0.7055 -0.4235  1.7452
   83ETHOX   C225216  11.361  10.106   7.613 -0.6416  0.3120 -0.5444
   83ETHOX  H2125217  11.370  10.048   7.707  1.0287 -1.1947 -1.5800
   83ETHOX  H2325218  11.275  10.176   7.607  0.4429  1.7861  0.5132
   84ETHOX   O125219  11.479  10.183   7.592 -0.2801  0.0773 -0.1649
   84ETHOX   C125220  11.471  10.312   7.649  0.1128  0.1520 -1.4433
   84ETHOX  H1125221  11.378  10.329   7.707  0.8270 -0.9045  0.0757
   84ETHOX  H1325222  11.477  10.381   7.562 -2.8879  0.4590 -1.5034
   84ETHOX   C225223  11.601  10.344   7.743  0.2587 -0.0168 -0.3815
   84ETHOX  H2125224  11.626  10.451   7.727 -0.8895  0.0275 -2.1686
   84ETHOX  H2325225  11.693  10.295   7.706  0.2455  0.2213 -0.7369
   85ETHOX   O125226  11.588  10.312   7.880 -0.1098  0.3820 -0.1137
   85ETHOX   C125227  11.597  10.172   7.901  0.2878  0.1406  0.1249
   85ETHOX  H1125228  11.557  10.112   7.817  1.7027 -1.2623  0.3909
   85ETHOX  H1325229  11.705  10.146   7.906 -0.3022 -2.7373 -0.3542
   85ETHOX   C225230  11.522  10.144   8.026 -0.0978  0.0564  0.3693
   85ETHOX  H2125231  11.419  10.184   8.018 -0.0126  0.7051  2.0581
   85ETHOX  H2325232  11.569  10.207   8.105  1.5634 -0.7476  0.0687
   86ETHOX   O125233  11.528  10.005   8.062  0.5810  0.6736  0.2318
   86ETHOX   C125234  11.441   9.972   8.169 -0.7819  0.0902  0.4674
   86ETHOX  H1125235  11.333   9.982   8.145 -0.7981 -0.0381  0.4902
   86ETHOX  H1325236  11.477  10.037   8.252 -0.6359  0.8265 -0.1687
   86ETHOX   C225237  11.479   9.836   8.223 -0.2914  0.3584  0.0864
   86ETHOX  H2125238  11.471   9.768   8.135  0.3915 -2.4116  2.0392
   86ETHOX  H2325239  11.420   9.803   8.310 -0.3262 -0.3453 -0.2010
   87ETHOX   O125240  11.613   9.838   8.267  0.0161  0.0558  0.4279
   87ETHOX   C125241  11.613   9.864   8.403  0.0434 -0.1109 -0.7692
   87ETHOX  H1125242  11.543   9.948   8.426 -1.3318 -1.1228 -1.1459
   87ETHOX  H1325243  11.566   9.783   8.462 -0.1352 -0.3099 -1.1821
   87ETHOX   C225244  11.753   9.880   8.459 -0.2724  0.5455  0.5597
   87ETHOX  H2125245  11.752   9.902   8.568 -1.6478 -1.1282  0.9368
   87ETHOX  H2325246  11.804   9.957   8.398 -0.7931 -0.1760 -0.8306
   88ETHOX   O125247  11.821   9.748   8.455 -0.2358  0.3281 -0.0456
   88ETHOX   C125248  11.953   9.760   8.410 -0.3275  0.2449  0.5756
   88ETHOX  H1125249  12.002   9.844   8.464 -0.6267  1.5926 -1.1257
   88ETHOX  H1325250  11.946   9.793   8.304 -0.7444 -3.0367 -0.5335
   88ETHOX   C225251  12.050   9.638   8.397 -0.2850  0.1261 -0.3242
   88ETHOX  H2125252  12.133   9.664   8.329 -0.4429  0.4034 -0.4127
   88ETHOX  H2325253  12.002   9.553   8.344 -1.0157 -0.0689  0.6152
   89ETHOX   O125254  12.096   9.599   8.529 -0.6640 -0.3185  0.5833
   89ETHOX   C125255  12.183   9.486   8.525 -0.0841  1.3104  0.6719
   89ETHOX  H1125256  12.130   9.399   8.480 -1.0374  1.5811  1.2316
   89ETHOX  H1325257  12.275   9.516   8.471  0.3741 -1.8595 -0.5398
   89ETHOX   C225258  12.222   9.445   8.670  0.2059 -0.0782 -0.2579
   89ETHOX  H2125259  12.252   9.531   8.732  1.8702  0.2437 -1.4410
   89ETHOX  H2325260  12.304   9.371   8.677  1.6129  1.4974  0.5412
   90ETHOX   O125261  12.108   9.385   8.738 -0.2358 -0.0567  0.0932
   90ETHOX   C125262  12.097   9.242   8.718 -0.2137  0.1270  0.3111
   90ETHOX  H1125263  12.096   9.223   8.608 -2.3148 -1.0544  0.4816
   90ETHOX  H1325264  12.190   9.191   8.752 -0.8805 -1.0652  0.4114
   90ETHOX   C225265  11.966   9.179   8.762  0.2221  0.2925 -0.4555
   90ETHOX  H2125266  11.955   9.073   8.730 -0.3971  0.3206 -0.3362
   90ETHOX  H2325267  11.881   9.236   8.720 -1.6867 -2.0059  0.0756
   91ETHOX   O125268  11.968   9.194   8.905 -0.4419 -0.1835  0.3661
   91ETHOX   C125269  11.847   9.162   8.972  0.9024  0.4098  0.0593
   91ETHOX  H1125270  11.756   9.213   8.933 -0.4921  0.3752  2.9934
   91ETHOX  H1325271  11.838   9.051   8.983 -0.6131  0.3463 -1.3735
   91ETHOX   C225272  11.857   9.226   9.119 -0.0860  0.0756  0.2525
   91ETHOX  H2125273  11.761   9.201   9.169 -0.4029 -0.2224 -0.4861
   91ETHOX  H2325274  11.850   9.336   9.105 -0.1217  0.1122  0.5455
   92ETHOX   O125275  11.961   9.186   9.212 -0.0210  0.4425 -1.1397
   92ETHOX   C125276  11.953   9.260   9.334 -0.3573  0.5738 -0.0234
   92ETHOX  H1125277  12.052   9.258   9.385 -2.5902  0.8444  4.8658
   92ETHOX  H1325278  11.935   9.365   9.303  1.8188  0.6646 -1.1917
   92ETHOX   C225279  11.850   9.205   9.434  0.2166 -0.4357  0.1845
   92ETHOX  H2125280  11.748   9.204   9.389 -0.0469  0.4558  0.7282
   92ETHOX  H2325281  11.850   9.276   9.519 -0.2031 -0.5978  0.3188
   93ETHOX   O125282  11.889   9.081   9.485  0.5684 -0.3825  0.0089
   93ETHOX   C125283  11.823   9.058   9.607 -0.0162 -0.5412 -0.7862
   93ETHOX  H1125284  11.712   9.062   9.595 -0.0298  0.1476 -0.4525
   93ETHOX  H1325285  11.863   9.129   9.682 -0.0622 -0.3177 -0.9719
   93ETHOX   C225286  11.863   8.917   9.655  0.9770  0.1505 -0.3583
   93ETHOX  H2125287  11.813   8.899   9.752  0.3894 -1.1905 -0.8968
   93ETHOX  H2325288  11.972   8.905   9.675  0.7506 -1.7354 -0.0691
   94ETHOX   O125289  11.806   8.825   9.563 -0.1715  0.0634  0.3232
   94ETHOX   C125290  11.864   8.698   9.594  0.2233  0.0475 -0.0088
   94ETHOX  H1125291  11.973   8.707   9.579  0.1609  1.1399  0.0915
   94ETHOX  H1325292  11.853   8.667   9.700 -0.9866  2.8024  0.7527
   94ETHOX   C225293  11.815   8.587   9.494  0.0465 -0.3145 -0.1611
   94ETHOX  H2125294  11.873   8.492   9.492  0.7122  0.0912 -0.3893
   94ETHOX  H2325295  11.830   8.625   9.391  1.2005 -0.2020  0.0361
   95ETHOX   O125296  11.677   8.558   9.520 -0.1457 -0.4238  0.0330
   95ETHOX   C125297  11.614   8.497   9.411  0.3645  0.0226  0.0837
   95ETHOX  H1125298  11.538   8.432   9.461 -0.1164  1.3120  1.0942
   95ETHOX  H1325299  11.685   8.430   9.357  0.4886 -1.1948  1.6620
   95ETHOX   C225300  11.539   8.598   9.326 -0.1165 -0.2810 -0.2963
   95ETHOX  H2125301  11.492   8.547   9.239 -1.3226 -2.5640  1.5501
   95ETHOX  H2325302  11.614   8.673   9.295 -0.8342  1.5501  2.1212
   96ETHOX   O125303  11.440   8.665   9.409 -0.5530 -0.9938  0.0700
   96ETHOX   C125304  11.352   8.725   9.320  0.0098 -0.7967 -0.3837
   96ETHOX  H1125305  11.402   8.795   9.249 -1.0330 -0.8822 -1.2274
   96ETHOX  H1325306  11.313   8.639   9.261 -1.6429 -0.0664 -0.3914
   96ETHOX   C225307  11.238   8.796   9.397  0.3008  0.1350 -0.1476
   96ETHOX  H2125308  11.220   8.744   9.494  0.0740 -1.1757 -0.8673
   96ETHOX  H2325309  11.143   8.793   9.341 -1.4938 -0.0882  2.7373
   97ETHOX   O125310  11.263   8.931   9.432  0.4575  0.0380 -0.0983
   97ETHOX   C125311  11.141   8.993   9.461 -0.0803 -0.0459 -0.8804
   97ETHOX  H1125312  11.080   8.929   9.529  0.6113  1.1837  0.9798
   97ETHOX  H1325313  11.074   9.005   9.373 -2.7245 -2.7906  0.5591
   97ETHOX   C225314  11.166   9.137   9.522 -0.2035 -0.3916  0.0134
   97ETHOX  H2125315  11.198   9.200   9.436  0.2150 -0.9874 -0.2776
   97ETHOX  H2325316  11.253   9.127   9.590  0.0528 -0.6768 -0.3491
   98ETHOX   O125317  11.048   9.193   9.584 -0.2670 -0.2850 -0.1579
   98ETHOX   C125318  11.078   9.290   9.681  0.6248  0.6819  1.5917
   98ETHOX  H1125319  11.188   9.298   9.694  0.5734  1.5496  1.5386
   98ETHOX  H1325320  11.028   9.384   9.650 -2.4534 -1.0349  0.9738
   98ETHOX   C225321  11.018   9.261   9.819  0.1942  0.4059 -0.2477
   98ETHOX  H2125322  11.060   9.165   9.856 -0.2365 -0.0446 -0.9079
   98ETHOX  H2325323  10.907   9.258   9.826  0.1683  1.0700 -0.3597
   99ETHOX   O125324  11.056   9.363   9.904 -0.1441 -0.1222 -0.1564
   99ETHOX   C125325  11.029   9.352  10.041  0.2233  0.0285 -0.1106
   99ETHOX  H1125326  10.919   9.350  10.057  0.2078  2.3648  0.5240
   99ETHOX  H1325327  11.071   9.446  10.082 -0.9267  0.0276  1.1475
   99ETHOX   C225328  11.094   9.237  10.119 -0.5530  0.1580 -0.0786
   99ETHOX  H2125329  11.063   9.144  10.067 -2.4359  0.3756  0.5836
   99ETHOX  H2325330  11.051   9.242  10.222 -0.4015 -0.4522  0.0148
  100ETHOX   O125331  11.235   9.255  10.122  0.0391 -0.1311 -0.2076
  100ETHOX   C125332  11.316   9.135  10.116 -0.0042  0.3628 -0.4124
  100ETHOX  H1125333  11.293   9.082  10.021  0.3379 -0.2671 -0.1517
  100ETHOX  H1325334  11.425   9.153  10.124  0.1322  0.0299 -1.4007
  100ETHOX   C225335  11.286   9.042  10.237 -0.1069  0.2631 -0.5992
  100ETHOX  H2125336  11.190   8.990  10.220  0.0149 -0.7123  1.4418
  100ETHOX  H2325337  11.278   9.103  10.330 -2.3896  0.1981 -0.7022
  101PROXS   O125338  11.393   8.946  10.242  0.1701 -0.1233 -0.4190
  101PROXS   C125339  11.393   8.887  10.368 -0.2123  0.6823 -0.4827
  101PROXS  H1125340  11.394   8.964  10.448 -1.3386  1.6270 -1.3392
  101PROXS  H1325341  11.291   8.844  10.380  0.7851 -1.3846  1.3382
  101PROXS   C225342  11.502   8.774  10.374  0.1069 -0.0900 -0.3923
  101PROXS  H2125343  11.524   8.730  10.275  1.8877  1.1423 -0.5780
  101PROXS   C325344  11.448   8.672  10.483 -0.5505  0.0464  0.0142
  101PROXS  H3125345  11.462   8.715  10.584  4.3972 -0.0784 -0.3442
  101PROXS  H3225346  11.339   8.662  10.467 -0.5721 -0.0538  0.2219
  101PROXS  H3325347  11.513   8.581  10.482 -1.3413 -0.5713  1.3644
  102PROXS   O125348  11.625   8.834  10.423 -0.3647  0.2084 -0.0365
  102PROXS   C125349  11.686   8.923  10.335 -0.5317  0.8258  0.1342
  102PROXS  H1125350  11.690   8.872  10.236 -2.8040  0.1891  0.3074
  102PROXS  H1325351  11.621   9.012  10.322 -1.6049  0.2578  1.3297
  102PROXS   C225352  11.824   8.964  10.391  0.4693  0.0641 -0.5578
  102PROXS  H2125353  11.890   8.875  10.389  0.1477 -0.3429  2.4019
  102PROXS   C325354  11.810   9.023  10.532 -0.1135  0.6518  0.5160
  102PROXS  H3125355  11.915   9.033  10.569 -0.0660  2.0606  0.0582
  102PROXS  H3225356  11.773   9.128  10.528  0.1202  0.7076 -2.2703
  102PROXS  H3325357  11.756   8.958  10.604 -1.6101  1.9694  0.6312
  103PROXR   O125358  11.876   9.059  10.295  0.2550 -0.8662 -0.6838
  103PROXR   C125359  11.943   9.007  10.183 -0.6993  1.0725 -0.2485
  103PROXR  H1125360  12.044   8.970  10.209 -0.7904  0.4201 -0.7907
  103PROXR  H1325361  11.891   8.925  10.129 -0.4810  0.5460  0.3387
  103PROXR   C225362  11.955   9.111  10.071 -0.1138 -0.0175  0.3568
  103PROXR  H2125363  12.035   9.182  10.103  0.0242  0.6984 -1.4592
  103PROXR   C325364  11.824   9.178  10.041  0.0373  0.7821 -0.1062
  103PROXR  H3125365  11.759   9.112   9.979  3.4867 -0.8029 -2.3219
  103PROXR  H3225366  11.772   9.203  10.137  2.2366  0.4774  1.2331
  103PROXR  H3325367  11.836   9.266   9.975  2.1822  1.0230  0.5341
  104PROXS   O125368  12.019   9.046   9.959  0.3758  0.3880 -1.0880
  104PROXS   C125369  12.088   9.146   9.881 -0.3834  0.5683  0.3513
  104PROXS  H1125370  12.011   9.194   9.816 -0.7548 -0.5715 -0.0816
  104PROXS  H1325371  12.138   9.221   9.946  1.6602  1.6279 -2.2733
  104PROXS   C225372  12.199   9.082   9.802  0.1311  0.2583  0.8133
  104PROXS  H2125373  12.149   9.013   9.732  1.8164  1.9944 -2.3171
  104PROXS   C325374  12.305   9.008   9.893  0.0304 -0.1782  0.6209
  104PROXS  H3125375  12.370   8.941   9.833 -1.5114 -2.2391  1.1368
  104PROXS  H3225376  12.368   9.082   9.947  1.5150 -2.5016  2.2506
  104PROXS  H3325377  12.257   8.935   9.961 -1.4436  1.0279  0.9289
  105PROXS   O125378  12.280   9.183   9.734 -0.2590 -0.0920  0.1544
  105PROXS   C125379  12.345   9.129   9.617 -0.3797  0.2450  0.2009
  105PROXS  H1125380  12.405   9.038   9.638 -0.1854  0.2155 -0.4744
  105PROXS  H1325381  12.263   9.092   9.551  0.0959  0.1237 -0.3274
  105PROXS   C225382  12.431   9.235   9.549 -0.3930  0.2622 -0.0711
  105PROXS  H2125383  12.484   9.293   9.628 -2.1387  0.0394  1.3316
  105PROXS   C325384  12.340   9.328   9.472 -0.6664 -1.0493  0.0197
  105PROXS  H3125385  12.277   9.284   9.392 -1.9679  2.5316 -1.1519
  105PROXS  H3225386  12.280   9.398   9.533  0.0843  0.8500 -1.3191
  105PROXS  H3325387  12.397   9.395   9.404 -2.8466 -0.7717 -1.6513
  106PROXS   O125388  12.516   9.178   9.451 -0.0175  0.1451 -0.1006
  106PROXS   C125389  12.634   9.261   9.443  0.2024 -0.0858 -0.1048
  106PROXS  H1125390  12.601   9.366   9.428  0.5846  0.2462  1.2583
  106PROXS  H1325391  12.693   9.260   9.537 -1.2662  1.6968  0.9088
  106PROXS   C225392  12.722   9.216   9.317 -0.1058 -0.0914  0.6095
  106PROXS  H2125393  12.658   9.229   9.227  1.0391  1.0417 -0.0891
  106PROXS   C325394  12.771   9.065   9.325 -0.4913  0.2656 -0.1924
  106PROXS  H3125395  12.688   9.004   9.368 -0.8045  0.2690 -0.7786
  106PROXS  H3225396  12.796   9.025   9.224 -0.6471  1.5628 -0.7686
  106PROXS  H3325397  12.867   9.062   9.381  0.4103 -2.7135 -1.6381
  107PROXR   O125398  12.840   9.298   9.309 -0.8111 -0.1404 -0.4074
  107PROXR   C125399  12.864   9.325   9.173  0.3427 -0.4154  0.6586
  107PROXR  H1125400  12.877   9.230   9.117  0.3535  0.3589 -0.6870
  107PROXR  H1325401  12.777   9.383   9.136  0.2112 -0.6805  0.5442
  107PROXR   C225402  12.993   9.410   9.154  0.1054  0.9291 -0.2701
  107PROXR  H2125403  13.077   9.357   9.205 -2.7693 -2.3998  1.4389
  107PROXR   C325404  12.970   9.551   9.204 -0.4200  0.6932 -0.0982
  107PROXR  H3125405  12.913   9.611   9.129 -1.0789  0.2136  0.0124
  107PROXR  H3225406  12.916   9.555   9.301  2.2964  2.2333  1.4628
  107PROXR  H3325407  13.066   9.605   9.219  0.5593 -1.0166 -0.0775
  108PROXS   O125408  13.019   9.409   9.014  0.8616 -0.7846 -0.2959
  108PROXS   C125409  13.100   9.303   8.961  0.5524  0.0638 -0.3827
  108PROXS  H1125410  13.200   9.286   9.008 -0.3617  0.4882  1.8401
  108PROXS  H1325411  13.049   9.210   8.992  3.5219 -1.2420  1.0363
  108PROXS   C225412  13.117   9.305   8.806 -0.2393 -0.0724  0.0784
  108PROXS  H2125413  13.028   9.350   8.759 -0.4266  0.6959  1.1214
  108PROXS   C325414  13.125   9.155   8.766  0.5869  0.2052 -0.1075
  108PROXS  H3125415  13.024   9.115   8.789  1.0555 -0.2576  1.2044
  108PROXS  H3225416  13.139   9.153   8.655  1.1837  1.3198 -0.0662
  108PROXS  H3325417  13.200   9.094   8.820 -0.5858 -0.7517  0.4912
  109PROXS   O125418  13.241   9.367   8.777 -0.0161 -0.3016 -0.1339
  109PROXS   C125419  13.251   9.506   8.813  0.2395  0.2719  0.0051
  109PROXS  H1125420  13.233   9.557   8.716 -1.1393 -0.1346  0.0322
  109PROXS  H1325421  13.170   9.533   8.883 -0.1149 -0.1574 -0.2371
  109PROXS   C225422  13.397   9.530   8.857  0.0441  0.3063  0.6641
  109PROXS  H2125423  13.453   9.502   8.765 -2.0172  1.2153 -0.9638
  109PROXS   C325424  13.448   9.455   8.977  0.5848  0.3043  0.5626
  109PROXS  H3125425  13.458   9.346   8.955 -1.2646 -0.3682  2.7376
  109PROXS  H3225426  13.551   9.482   9.009  0.2473  2.3226  0.0977
  109PROXS  H3325427  13.378   9.457   9.063 -1.0976  0.2303 -0.7654
  110PROXR   O125428  13.403   9.669   8.877  0.4107 -0.4812  0.0484
  110PROXR   C125429  13.511   9.734   8.811  0.1307  0.0634 -0.1450
  110PROXR  H1125430  13.607   9.697   8.852  0.1796 -0.0517 -0.3608
  110PROXR  H1325431  13.511   9.718   8.701  0.7706 -1.0017 -0.0089
  110PROXR   C225432  13.500   9.882   8.857 -0.1198  0.5453  0.4036
  110PROXR  H2125433  13.489   9.893   8.967 -1.2394  0.4329  0.3093
  110PROXR   C325434  13.374   9.934   8.785 -0.1118  0.7184 -0.3189
  110PROXR  H3125435  13.292   9.863   8.809  0.6079  0.3456  1.1466
  110PROXR  H3225436  13.353  10.035   8.826  1.9105  0.0197  2.7308
  110PROXR  H3325437  13.397   9.926   8.676  0.5121 -1.2586 -0.0843
  111PROXS   O125438  13.607   9.958   8.812 -0.8213 -0.1595 -0.2486
  111PROXS   C125439  13.600  10.088   8.860 -0.7810 -0.3676 -0.1886
  111PROXS  H1125440  13.526  10.147   8.802  0.4888  1.0069 -0.5050
  111PROXS  H1325441  13.582  10.095   8.969  0.2096  3.0024 -0.1327
  111PROXS   C225442  13.740  10.152   8.843  0.2800 -0.2088 -0.2520
  111PROXS  H2125443  13.775  10.125   8.741 -2.0327 -2.1874 -0.5999
  111PROXS   C325444  13.822  10.101   8.962  0.3949 -1.2460  0.1912
  111PROXS  H3125445  13.922  10.150   8.964 -0.6003  1.2447 -2.7795
  111PROXS  H3225446  13.766  10.134   9.052  0.2294  4.0808 -1.4681
  111PROXS  H3325447  13.831   9.991   8.960 -1.4299 -1.4153  0.2260
  112PROXR   O125448  13.725  10.296   8.847 -0.1100  0.0610 -0.5834
  112PROXR   C125449  13.830  10.361   8.788 -0.3446 -0.3156 -0.7716
  112PROXR  H1125450  13.930  10.321   8.817 -0.1188  0.9597  0.3509
  112PROXR  H1325451  13.820  10.353   8.677 -0.6723  1.0358 -0.8585
  112PROXR   C225452  13.845  10.513   8.825 -0.2901 -0.0984 -0.3960
  112PROXR  H2125453  13.749  10.561   8.796 -0.8374 -0.9309 -0.0401
  112PROXR   C325454  13.958  10.582   8.744  1.3896  0.3414  0.1236
  112PROXR  H3125455  14.054  10.540   8.780  0.1763 -1.5235  1.3361
  112PROXR  H3225456  13.938  10.565   8.636  1.5662 -2.1632  0.4247
  112PROXR  H3325457  13.959  10.689   8.776 -1.7670  0.1137  1.2666
  113PROXS   O125458  13.857  10.517   8.964  0.0511 -0.8362  0.6258
  113PROXS   C125459  13.729  10.523   9.021  0.0114  0.6616 -0.2865
  113PROXS  H1125460  13.700  10.629   9.003  0.9776  0.5596 -2.7297
  113PROXS  H1325461  13.654  10.451   8.982 -0.4976 -0.5927  2.6627
  113PROXS   C225462  13.735  10.502   9.176  0.1533 -0.6616 -0.2126
  113PROXS  H2125463  13.769  10.603   9.206 -0.3735 -0.1916 -1.1743
  113PROXS   C325464  13.831  10.393   9.234 -0.2323  0.3189 -0.0768
  113PROXS  H3125465  13.847  10.404   9.344 -0.4044 -1.9502  0.2289
  113PROXS  H3225466  13.791  10.292   9.212  0.7785 -0.2021  0.3913
  113PROXS  H3325467  13.933  10.409   9.194  0.3086  1.5092  1.6269
  114PROXR   O125468  13.605  10.478   9.219  0.1268  0.1894  0.7464
  114PROXR   C125469  13.591  10.455   9.358 -0.6553 -0.1306 -0.8809
  114PROXR  H1125470  13.613  10.348   9.379 -0.3938  0.1604  0.4005
  114PROXR  H1325471  13.653  10.519   9.425 -2.1641  0.8070 -0.3388
  114PROXR   C225472  13.443  10.466   9.389  0.5165  0.7455  0.6470
  114PROXR  H2125473  13.399  10.382   9.332  2.1603 -0.2255  0.7380
  114PROXR   C325474  13.379  10.600   9.354  0.7582 -0.3217  0.0072
  114PROXR  H3125475  13.367  10.615   9.245 -1.2757 -0.8713  0.1115
  114PROXR  H3225476  13.278  10.614   9.398  1.0712 -1.9155  1.3364
  114PROXR  H3325477  13.445  10.681   9.391 -0.5208 -0.6030  3.2356
  115PROXR   O125478  13.433  10.443   9.527  0.1428 -0.4627 -0.3604
  115PROXR   C125479  13.405  10.302   9.547 -0.2456  0.1400  0.1511
  115PROXR  H1125480  13.314  10.274   9.490 -0.7867 -1.6364  1.7830
  115PROXR  H1325481  13.491  10.236   9.523 -0.4204  0.5380 -1.7361
  115PROXR   C225482  13.364  10.281   9.696 -0.0045 -0.9155  0.1353
  115PROXR  H2125483  13.263  10.322   9.715  1.1823  1.5340  1.6650
  115PROXR   C325484  13.454  10.354   9.794 -0.0910 -0.0769 -0.0368
  115PROXR  H3125485  13.557  10.317   9.772 -0.7382 -2.2173  0.3152
  115PROXR  H3225486  13.450  10.464   9.783 -1.9659 -0.0983  0.1376
  115PROXR  H3325487  13.428  10.320   9.897  0.2616 -3.9526 -1.0727
  116PROXS   O125488  13.367  10.141   9.728  0.0053  0.0697 -0.1528
  116PROXS   C125489  13.287  10.059   9.642 -0.3931 -0.4817 -0.3129
  116PROXS  H1125490  13.184  10.101   9.637 -0.2459  0.1838  1.4780
  116PROXS  H1325491  13.333  10.045   9.541 -1.9387 -3.1546 -0.7134
  116PROXS   C225492  13.285   9.908   9.699 -0.0557 -0.1648  0.7069
  116PROXS  H2125493  13.256   9.908   9.806  0.4027  2.5190  0.9182
  116PROXS   C325494  13.423   9.847   9.686  0.0449  0.5621  0.5725
  116PROXS  H3125495  13.442   9.747   9.731  2.7171  0.7296  0.0153
  116PROXS  H3225496  13.454   9.834   9.580 -2.4007  0.3823 -0.1791
  116PROXS  H3325497  13.498   9.909   9.740 -0.8737  0.5046  1.9715
  117PROXS   O125498  13.191   9.830   9.623  0.1256  0.4416 -0.3643
  117PROXS   C125499  13.175   9.697   9.671 -0.3439  0.2921 -0.3012
  117PROXS  H1125500  13.270   9.641   9.655 -2.4391 -3.2365 -1.4051
  117PROXS  H1325501  13.156   9.703   9.781 -1.8892  1.5096 -0.6116
  117PROXS   C225502  13.060   9.632   9.597  0.3943  0.3078 -0.1983
  117PROXS  H2125503  13.062   9.659   9.489 -0.1591  0.0478 -0.2762
  117PROXS   C325504  12.917   9.672   9.647  0.7771 -0.4590  0.9145
  117PROXS  H3125505  12.898   9.779   9.627 -0.3683 -1.0462 -1.6333
  117PROXS  H3225506  12.841   9.622   9.583 -1.0444 -0.5792  3.0762
  117PROXS  H3325507  12.923   9.657   9.757  0.5825  1.5178  1.2237
  118PROXR   O125508  13.077   9.490   9.589 -0.4421 -0.1254 -0.3641
  118PROXR   C125509  13.048   9.418   9.711 -0.1306 -0.5398  0.5258
  118PROXR  H1125510  13.112   9.455   9.794  1.4216 -2.5060  0.2782
  118PROXR  H1325511  12.940   9.427   9.732 -0.0731 -1.1665  1.1283
  118PROXR   C225512  13.086   9.271   9.701  0.1466  0.8702  0.3966
  118PROXR  H2125513  13.195   9.267   9.678  0.0296 -0.8013  0.0520
  118PROXR   C325514  13.016   9.205   9.585  0.0314  0.8092 -0.1096
  118PROXR  H3125515  13.064   9.106   9.571 -1.8433 -0.2159  0.4300
  118PROXR  H3225516  12.908   9.188   9.604  0.1586  1.0483  0.9197
  118PROXR  H3325517  13.015   9.270   9.495  0.4654  2.9903  1.3774
  119PROXR   O125518  13.068   9.213   9.830  0.3944 -0.2425  0.4741
  119PROXR   C125519  13.142   9.089   9.854  0.0534  0.1868 -0.4637
  119PROXR  H1125520  13.088   9.012   9.795 -1.3538 -0.4336  1.5455
  119PROXR  H1325521  13.247   9.104   9.821  0.2811  1.2609  0.6648
  119PROXR   C225522  13.135   9.059  10.006 -0.0960 -0.0415  0.0518
  119PROXR  H2125523  13.029   9.064  10.039 -0.4818  2.9541 -1.3249
  119PROXR   C325524  13.217   9.150  10.101  0.0153 -0.1104 -0.1883
  119PROXR  H3125525  13.259   9.099  10.190 -2.6648  0.5061  1.5651
  119PROXR  H3225526  13.298   9.189  10.037 -0.1972 -1.0313 -1.0391
  119PROXR  H3325527  13.157   9.230  10.150 -0.1660 -1.1407  1.3359
  120PROXS   O125528  13.196   8.936  10.032  0.1511  0.5749  0.4154
  120PROXS   C125529  13.129   8.822   9.991 -0.7610 -0.3847 -0.0635
  120PROXS  H1125530  13.107   8.770  10.086 -1.1199  1.0068  0.6493
  120PROXS  H1325531  13.032   8.836   9.939 -0.0199  2.2140 -0.9226
  120PROXS   C225532  13.220   8.725   9.906  0.5367  0.3276 -0.2549
  120PROXS  H2125533  13.245   8.763   9.805  2.9055 -1.4385 -0.4232
  120PROXS   C325534  13.134   8.599   9.876 -0.3501 -0.3130 -0.3387
  120PROXS  H3125535  13.102   8.539   9.964  1.4905  0.6887  1.0664
  120PROXS  H3225536  13.055   8.640   9.809 -0.5497 -1.5296 -0.8786
  120PROXS  H3325537  13.193   8.535   9.807  1.8582 -0.3490  1.4785
  121PROXS   O125538  13.338   8.669   9.975  0.2227  0.4115 -0.3564
  121PROXS   C125539  13.442   8.762   9.988  0.2822 -0.4116 -0.7172
  121PROXS  H1125540  13.426   8.866  10.021  1.6562 -0.7291  1.1154
  121PROXS  H1325541  13.514   8.722  10.062 -0.3762 -1.8719 -0.8129
  121PROXS   C225542  13.518   8.772   9.856 -0.2352 -0.2051 -0.1786
  121PROXS  H2125543  13.449   8.796   9.772  0.1059  0.7394 -0.2123
  121PROXS   C325544  13.599   8.646   9.827  0.6254 -0.1079 -0.4505
  121PROXS  H3125545  13.668   8.616   9.909 -0.5340  0.5731  0.8342
  121PROXS  H3225546  13.527   8.564   9.807 -0.2959  0.4940  0.2593
  121PROXS  H3325547  13.660   8.661   9.736 -0.6157 -1.4546 -1.5446
  122PROXS   O125548  13.622   8.871   9.864  0.7825 -1.2582  0.1563
  122PROXS   C125549  13.572   9.007   9.844 -0.0338  0.2905 -0.5719
  122PROXS  H1125550  13.606   9.025   9.740 -0.1527 -2.4213 -1.1666
  122PROXS  H1325551  13.464   9.019   9.868  0.5080 -0.7271  3.1166
  122PROXS   C225552  13.642   9.098   9.948  0.2410 -0.1371 -0.4268
  122PROXS  H2125553  13.751   9.082   9.933 -0.0358 -1.9806 -0.7105
  122PROXS   C325554  13.606   9.056  10.091  0.7947  0.1159  0.0731
  122PROXS  H3125555  13.630   8.948  10.100  0.2700 -0.2274 -1.9758
  122PROXS  H3225556  13.669   9.108  10.166  1.1498  0.8504 -0.7111
  122PROXS  H3325557  13.500   9.075  10.118  0.9786 -0.8558  1.6106
  123PROXS   O125558  13.597   9.229   9.945  0.8498  0.2517  0.2199
  123PROXS   C125559  13.646   9.304   9.838 -0.7528  0.3736 -0.2941
  123PROXS  H1125560  13.750   9.326   9.870 -0.9277 -0.5521  1.0015
  123PROXS  H1325561  13.650   9.259   9.737 -0.5248  1.3512 -0.7261
  123PROXS   C225562  13.567   9.433   9.828 -0.5461 -0.6378 -1.1285
  123PROXS  H2125563  13.587   9.496   9.916  1.4989 -0.5322 -1.6306
  123PROXS   C325564  13.419   9.415   9.805  0.1607 -0.1630 -0.0507
  123PROXS  H3125565  13.371   9.362   9.890 -1.1066 -0.9708 -1.2330
  123PROXS  H3225566  13.377   9.516   9.789  0.9743  0.1442 -0.2653
  123PROXS  H3325567  13.411   9.360   9.709 -2.0115 -1.0469  0.5743
  124PROXR   O125568  13.609   9.516   9.726  0.2625 -0.3045 -0.3392
  124PROXR   C125569  13.733   9.580   9.756 -0.7369  0.4655 -0.2191
  124PROXR  H1125570  13.733   9.634   9.852  1.7166  1.7030 -0.8421
  124PROXR  H1325571  13.818   9.509   9.762  1.4537  2.9915  0.0203
  124PROXR   C225572  13.767   9.691   9.656 -0.4282 -0.5115  0.2746
  124PROXR  H2125573  13.667   9.724   9.620 -1.3347 -1.5759  1.6866
  124PROXR   C325574  13.851   9.638   9.540 -0.4209  0.0701  0.3345
  124PROXR  H3125575  13.954   9.622   9.580 -0.7836 -0.0515  1.2430
  124PROXR  H3225576  13.809   9.555   9.480  1.5116 -0.3653 -0.5041
  124PROXR  H3325577  13.852   9.718   9.463  2.7109  1.1201  1.2800
  125PROXS   O125578  13.841   9.790   9.732  0.0489 -0.4962 -0.3496
  125PROXS   C125579  13.824   9.915   9.668  0.3630  0.7675 -0.2476
  125PROXS  H1125580  13.889   9.921   9.579 -1.8900  1.3391 -1.9544
  125PROXS  H1325581  13.718   9.925   9.636  0.3889 -0.6859 -0.8135
  125PROXS   C225582  13.863  10.024   9.773 -0.7669 -0.6943 -0.2207
  125PROXS  H2125583  13.960  10.022   9.826 -1.4597  0.1104  1.1138
  125PROXS   C325584  13.762  10.030   9.880  0.1722  0.3736  0.0516
  125PROXS  H3125585  13.660  10.034   9.836  0.0587  0.6638  0.3327
  125PROXS  H3225586  13.762   9.939   9.943 -0.3876  0.9616  0.9269
  125PROXS  H3325587  13.784  10.106   9.958  1.1131 -1.4096  1.6052
  126PROXS   O125588  13.862  10.148   9.699  0.5239 -0.0671 -0.2958
  126PROXS   C125589  13.905  10.255   9.785 -0.2739  0.0207  0.4045
  126PROXS  H1125590  13.844  10.293   9.869 -2.1671  2.7512 -1.9957
  126PROXS  H1325591  13.998  10.218   9.834 -2.7058 -1.5461  4.2762
  126PROXS   C225592  13.947  10.370   9.691  0.0975 -0.4439 -0.1380
  126PROXS  H2125593  13.866  10.378   9.615  0.0121  1.2967  0.1001
  126PROXS   C325594  14.078  10.335   9.618 -0.4539 -0.6307  0.2092
  126PROXS  H3125595  14.060  10.251   9.549  0.2484 -1.0105  0.4823
  126PROXS  H3225596  14.105  10.426   9.559  2.5784 -0.6863  1.3292
  126PROXS  H3325597  14.159  10.313   9.691  1.6757 -1.6546 -2.3036
  127PROXR   O125598  13.965  10.486   9.766 -0.2894 -0.0779 -0.0007
  127PROXR   C125599  13.846  10.549   9.797 -0.8849  0.4536  0.4728
  127PROXR  H1125600  13.761  10.478   9.792 -0.3850 -0.0779 -0.8896
  127PROXR  H1325601  13.850  10.593   9.899 -0.4470 -2.3154  1.7471
  127PROXR   C225602  13.821  10.659   9.698  0.1353  0.3487 -0.0715
  127PROXR  H2125603  13.791  10.619   9.598 -0.6258  0.0225  0.2808
  127PROXR   C325604  13.940  10.754   9.678  0.1837 -0.3501  0.0397
  127PROXR  H3125605  14.018  10.710   9.612  0.0066 -0.3137 -0.1979
  127PROXR  H3225606  13.914  10.835   9.607  1.0860 -1.4292 -1.5971
  127PROXR  H3325607  13.980  10.796   9.772  1.0641 -0.6700 -0.1839
  128PROXR   O125608  13.716  10.748   9.739  0.2526 -0.2177 -0.0377
  128PROXR   C125609  13.599  10.746   9.659  0.1426  0.1443 -0.2367
  128PROXR  H1125610  13.623  10.778   9.555  0.6407 -0.6100 -0.3652
  128PROXR  H1325611  13.568  10.640   9.649  0.1017  0.2079 -0.8511
  128PROXR   C225612  13.480  10.823   9.716 -0.8775  0.5324  0.0499
  128PROXR  H2125613  13.516  10.912   9.773  1.7040 -2.6851  4.0190
  128PROXR   C325614  13.426  10.744   9.844  0.2541  0.5877  0.4615
  128PROXR  H3125615  13.505  10.725   9.919 -1.2761  1.0540  2.2625
  128PROXR  H3225616  13.355  10.819   9.886 -1.0711  0.5719 -1.6203
  128PROXR  H3325617  13.375  10.657   9.798 -0.7565  0.7683  1.1918
  129PROXS   O125618  13.379  10.836   9.617  0.3085  0.5689  0.1211
  129PROXS   C125619  13.286  10.941   9.646 -0.0893  0.0358  0.2018
  129PROXS  H1125620  13.244  10.938   9.749  0.9967  0.5123  0.6714
  129PROXS  H1325621  13.349  11.032   9.639  1.3832 -0.9769  0.0420
  129PROXS   C225622  13.174  10.948   9.533 -0.5100  0.2547  0.0339
  129PROXS  H2125623  13.138  10.844   9.522  0.6226 -0.1980  0.4407
  129PROXS   C325624  13.242  10.993   9.408  0.6043  0.6327 -0.0796
  129PROXS  H3125625  13.188  10.974   9.313 -0.8934  0.8207  0.7006
  129PROXS  H3225626  13.290  11.094   9.404 -0.0440  0.9375 -0.2254
  129PROXS  H3325627  13.336  10.935   9.396  0.9027  1.1461 -0.2483
  130PROXS   O125628  13.068  11.034   9.569  0.0354  0.5625  0.2573
  130PROXS   C125629  12.936  10.980   9.538  0.0115  0.0990 -0.0374
  130PROXS  H1125630  12.942  10.929   9.439  0.3295 -0.3258  0.1975
  130PROXS  H1325631  12.909  10.901   9.611  0.0748  1.0064  0.9750
  130PROXS   C225632  12.826  11.087   9.533 -0.0543 -0.3803 -0.2039
  130PROXS  H2125633  12.852  11.179   9.476 -1.3007  0.1972  0.1256
  130PROXS   C325634  12.786  11.144   9.670  0.1203 -0.3793 -1.0712
  130PROXS  H3125635  12.861  11.224   9.687 -1.0118  0.3327  0.9733
  130PROXS  H3225636  12.685  11.190   9.677  0.5161  0.5184 -1.0415
  130PROXS  H3325637  12.803  11.074   9.755  0.2395  1.8010  0.8063
  131PROXS   O125638  12.711  11.020   9.491  0.1053 -0.0889 -0.5454
  131PROXS   C125639  12.631  11.087   9.395 -0.1957  0.6715 -0.3238
  131PROXS  H1125640  12.633  11.198   9.409 -0.7429  0.7326 -0.6923
  131PROXS  H1325641  12.674  11.077   9.293  0.1988  3.1215 -0.4793
  131PROXS   C225642  12.489  11.045   9.388  0.8187  0.5756 -0.5754
  131PROXS  H2125643  12.444  11.068   9.487  2.6047  1.0756  0.1592
  131PROXS   C325644  12.468  10.889   9.372 -0.2519 -0.1468  0.1550
  131PROXS  H3125645  12.485  10.871   9.264  0.4600 -0.8161  0.3717
  131PROXS  H3225646  12.551  10.841   9.428  0.4996  2.1162  1.0559
  131PROXS  H3325647  12.370  10.857   9.414  0.1655 -0.4552  0.9040
  132PROXS   O125648  12.425  11.123   9.299 -0.3578  0.1183 -0.1405
  132PROXS   C125649  12.282  11.096   9.279  0.2264  0.1235  0.8923
  132PROXS  H1125650  12.274  11.004   9.218  1.8921  0.2808  0.3750
  132PROXS  H1325651  12.234  11.081   9.379 -0.2966 -0.9192  0.5000
  132PROXS   C225652  12.221  11.207   9.198  0.1549  0.8052 -0.1308
  132PROXS  H2125653  12.277  11.231   9.105 -1.1593  0.9288 -0.9112
  132PROXS   C325654  12.208  11.340   9.268  0.3152 -0.4993 -1.0888
  132PROXS  H3125655  12.298  11.394   9.301  0.4043  0.2424 -2.4624
  132PROXS  H3225656  12.136  11.398   9.206 -2.0873 -2.4769 -0.3188
  132PROXS  H3325657  12.149  11.310   9.357 -1.0744 -0.9267 -2.1170
  133PROXS   O125658  12.085  11.177   9.162 -0.0529 -0.3908 -0.9127
  133PROXS   C125659  12.044  11.215   9.032 -0.1475 -0.3420 -0.7606
  133PROXS  H1125660  12.020  11.324   9.033 -0.0944 -0.2008  3.5491
  133PROXS  H1325661  12.118  11.183   8.955  0.3818  0.9349 -0.8187
  133PROXS   C225662  11.902  11.153   9.013 -0.8959  0.1963  0.0356
  133PROXS  H2125663  11.834  11.198   9.089 -2.6341 -1.2271 -0.5850
  133PROXS   C325664  11.894  10.999   9.036  0.3736 -0.4642  0.3518
  133PROXS  H3125665  11.786  10.987   9.012  0.3214 -1.3782  1.0210
  133PROXS  H3225666  11.970  10.947   8.974 -0.1160 -0.1395 -0.5490
  133PROXS  H3325667  11.918  10.971   9.141  0.9286 -1.8290 -0.1145
  134PROXS   O125668  11.855  11.176   8.883 -0.1996  0.5849 -0.2769
  134PROXS   C125669  11.753  11.276   8.879 -0.4773 -0.1384  0.4592
  134PROXS  H1125670  11.669  11.234   8.938 -1.4148  0.9033 -0.1105
  134PROXS  H1325671  11.777  11.372   8.930 -0.9852  0.2122  0.0473
  134PROXS   C225672  11.711  11.303   8.728 -0.0175 -0.1127  0.4060
  134PROXS  H2125673  11.651  11.396   8.714  1.3869  0.7997  0.2148
  134PROXS   C325674  11.622  11.193   8.681 -0.4246 -0.6274  0.5154
  134PROXS  H3125675  11.674  11.095   8.681 -0.8950 -0.8822  0.2101
  134PROXS  H3225676  11.531  11.185   8.744 -0.7722  0.1820  0.1298
  134PROXS  H3325677  11.587  11.216   8.578 -0.1890 -0.0647  0.5565
  135PROXS   O125678  11.818  11.318   8.639 -0.2923 -0.1940  0.1282
  135PROXS   C125679  11.887  11.438   8.665  0.5571  0.0469 -0.8097
  135PROXS  H1125680  11.814  11.521   8.650  0.1652 -0.6449 -3.3100
  135PROXS  H1325681  11.928  11.439   8.768  1.0538 -0.1597 -0.9991
  135PROXS   C225682  12.005  11.465   8.567 -0.0644  0.0828  0.3602
  135PROXS  H2125683  11.960  11.475   8.465 -3.5297 -1.9121  1.5469
  135PROXS   C325684  12.107  11.345   8.561 -0.1755 -0.7110 -0.3185
  135PROXS  H3125685  12.179  11.359   8.644 -0.8960  1.2724  0.0361
  135PROXS  H3225686  12.044  11.254   8.572 -0.0259 -0.6317  1.4616
  135PROXS  H3325687  12.162  11.357   8.465  0.0037 -1.2791 -0.2903
  136PROXS   O125688  12.068  11.590   8.608  0.2519  0.5202 -0.3579
  136PROXS   C125689  12.166  11.629   8.508 -0.2991 -0.3769  0.1675
  136PROXS  H1125690  12.163  11.545   8.436 -1.8222  1.0313 -1.4798
  136PROXS  H1325691  12.120  11.727   8.484  1.0165  0.7049  1.8049
  136PROXS   C225692  12.307  11.661   8.574  0.8253  1.1774 -0.1595
  136PROXS  H2125693  12.289  11.744   8.645 -0.5696  0.3111  0.5440
  136PROXS   C325694  12.401  11.701   8.466 -0.4343  0.6339 -0.0605
  136PROXS  H3125695  12.354  11.759   8.383 -1.4054 -0.6759 -0.4527
  136PROXS  H3225696  12.482  11.770   8.500 -1.5074  1.0802  1.6857
  136PROXS  H3325697  12.439  11.609   8.416 -2.3058  0.5354 -1.3967
  137PROXS   O125698  12.354  11.545   8.642  0.2066 -0.3747 -0.2598
  137PROXS   C125699  12.460  11.570   8.732  0.0323  0.1503 -0.0475
  137PROXS  H1125700  12.551  11.594   8.673 -0.3114 -1.4732 -1.3291
  137PROXS  H1325701  12.457  11.668   8.783  0.9461  0.8630 -1.3295
  137PROXS   C225702  12.471  11.457   8.837 -0.1389 -0.9510  0.1637
  137PROXS  H2125703  12.440  11.370   8.775 -0.1489 -1.3040  0.6631
  137PROXS   C325704  12.380  11.479   8.960  0.3996  0.2699 -0.5205
  137PROXS  H3125705  12.402  11.399   9.034 -1.5670  1.1834  1.1731
  137PROXS  H3225706  12.406  11.576   9.009  0.9805 -0.6083  0.9610
  137PROXS  H3325707  12.271  11.466   8.945  0.3898  0.1524 -0.3378
  138PROXR   O125708  12.607  11.439   8.879 -0.4655  0.0284 -0.0097
  138PROXR   C125709  12.655  11.302   8.873 -0.6757 -0.1510 -0.2182
  138PROXR  H1125710  12.567  11.237   8.892 -1.7313  0.6459 -2.1214
  138PROXR  H1325711  12.673  11.284   8.765 -0.3689  0.2310 -0.2329
  138PROXR   C225712  12.775  11.278   8.957 -0.5594  0.2177  0.0620
  138PROXR  H2125713  12.744  11.263   9.063 -3.4234  1.5029 -0.4992
  138PROXR   C325714  12.871  11.391   8.961  0.3698 -0.4438 -0.0515
  138PROXR  H3125715  12.910  11.419   8.861 -0.5907 -1.8582 -0.8549
  138PROXR  H3225716  12.829  11.486   9.002  2.0618  0.0554  0.6044
  138PROXR  H3325717  12.962  11.365   9.019 -0.8263 -0.1160  2.1142
  139PROXS   O125718  12.838  11.160   8.905 -0.0039  0.0805 -0.6209
  139PROXS   C125719  12.940  11.113   8.989 -0.4727  0.0224 -0.4839
  139PROXS  H1125720  13.036  11.160   8.959  0.3082  0.3032  2.2144
  139PROXS  H1325721  12.920  11.144   9.093 -4.3343  0.6222 -1.2397
  139PROXS   C225722  12.959  10.958   8.980  0.0646  0.3356  0.1410
  139PROXS  H2125723  12.953  10.934   8.871  0.7198  1.2062 -0.1002
  139PROXS   C325724  12.860  10.873   9.063 -0.2044 -0.1750  0.0702
  139PROXS  H3125725  12.898  10.769   9.074  1.3984  0.3858  0.1321
  139PROXS  H3225726  12.848  10.909   9.167  0.4875  0.8485 -0.1924
  139PROXS  H3325727  12.766  10.880   9.005 -0.5700  0.0428  0.6815
  140PROXR   O125728  13.088  10.929   9.028  0.3789 -0.6718 -0.1805
  140PROXR   C125729  13.150  10.837   8.935 -0.0005  0.1949  0.9138
  140PROXR  H1125730  13.082  10.755   8.902  1.1364 -1.9131  3.4404
  140PROXR  H1325731  13.190  10.890   8.846  0.2331 -0.8259  0.3850
  140PROXR   C225732  13.258  10.761   9.014 -0.3990  0.1110  0.1231
  140PROXR  H2125733  13.216  10.705   9.101 -1.1592  0.8323  0.2318
  140PROXR   C325734  13.366  10.853   9.071 -0.2744  0.3435  0.2754
  140PROXR  H3125735  13.330  10.932   9.140  1.4592  2.6506 -1.3356
  140PROXR  H3225736  13.447  10.799   9.124 -0.4274 -0.5381 -0.3635
  140PROXR  H3325737  13.401  10.913   8.985 -0.5046  0.1916  0.0753
  141PROXS   O125738  13.331  10.668   8.936  0.2119  0.4120  0.3544
  141PROXS   C125739  13.256  10.570   8.865  0.0085  0.2053  0.5127
  141PROXS  H1125740  13.190  10.524   8.941 -2.0952 -0.8743 -1.8183
  141PROXS  H1325741  13.200  10.617   8.781 -0.3986  1.4003  1.4216
  141PROXS   C225742  13.353  10.460   8.817  0.0765  0.4218 -0.1501
  141PROXS  H2125743  13.390  10.400   8.902 -0.7415 -0.9186 -0.7023
  141PROXS   C325744  13.468  10.528   8.741 -0.0139 -0.0677  0.7407
  141PROXS  H3125745  13.512  10.608   8.804  1.5390 -0.3813  0.1101
  141PROXS  H3225746  13.550  10.462   8.705 -0.7580  0.9624 -3.3187
  141PROXS  H3325747  13.440  10.581   8.647  3.6030  1.3750  0.3203
  142PROXS   O125748  13.283  10.373   8.730  0.0609  0.5112 -0.0255
  142PROXS   C125749  13.193  10.281   8.796 -0.2051 -0.1835  0.1328
  142PROXS  H1125750  13.254  10.205   8.851  0.3579  1.1790  1.4666
  142PROXS  H1325751  13.134  10.337   8.872  0.4139  1.5656 -0.6262
  142PROXS   C225752  13.099  10.222   8.686  0.5697  0.3560 -0.1382
  142PROXS  H2125753  13.165  10.161   8.621  2.5999  0.3418  1.8288
  142PROXS   C325754  13.017  10.319   8.606 -0.1636 -0.2538 -0.4232
  142PROXS  H3125755  13.087  10.393   8.562 -1.1837  0.0387 -1.5977
  142PROXS  H3225756  12.980  10.260   8.520  1.4926 -4.0141  1.2095
  142PROXS  H3325757  12.934  10.374   8.655 -0.5893 -0.9669 -0.3364
  143PROXS   O125758  13.010  10.120   8.744 -0.3059 -0.0273  0.7495
  143PROXS   C125759  12.983  10.011   8.651 -0.6919  0.0367 -0.3109
  143PROXS  H1125760  12.953  10.049   8.551 -2.5626  0.9345  0.5337
  143PROXS  H1325761  13.080   9.960   8.634  0.5515  2.2148 -0.1603
  143PROXS   C225762  12.870   9.921   8.702  0.3526  0.9371 -0.5583
  143PROXS  H2125763  12.781   9.978   8.737 -0.4567 -0.8790  0.4651
  143PROXS   C325764  12.913   9.834   8.819  0.4545 -0.3111 -0.1128
  143PROXS  H3125765  12.958   9.906   8.890 -1.8832  0.5881  0.5614
  143PROXS  H3225766  12.818   9.794   8.860  1.7510 -1.2991  2.0535
  143PROXS  H3325767  12.980   9.749   8.794  1.6904  0.0691  1.7439
  144PROXS   O125768  12.823   9.835   8.604  0.1995 -0.0914  0.9979
  144PROXS   C125769  12.740   9.905   8.515 -0.2614 -0.9952  0.1599
  144PROXS  H1125770  12.752  10.015   8.524 -0.0331 -0.9629 -0.4788
  144PROXS  H1325771  12.782   9.881   8.415  0.0366  0.1425 -0.0073
  144PROXS   C225772  12.595   9.875   8.528 -0.1617  0.5849  0.7750
  144PROXS  H2125773  12.574   9.767   8.517  1.1619  0.3940 -0.0623
  144PROXS   C325774  12.515   9.927   8.412  0.1713 -0.8951  0.7207
  144PROXS  H3125775  12.543   9.873   8.319 -1.0449 -2.6859  1.3219
  144PROXS  H3225776  12.416   9.877   8.422 -0.0991 -0.4793  0.1594
  144PROXS  H3325777  12.507  10.037   8.403 -0.2454 -0.7205  2.8038
  145PROXR   O125778  12.542   9.928   8.650 -0.4981  0.3915 -0.2175
  145PROXR   C125779  12.432   9.844   8.705 -0.1304 -0.5956 -0.0741
  145PROXR  H1125780  12.343   9.864   8.641 -1.4281 -1.0214  1.5351
  145PROXR  H1325781  12.474   9.742   8.708  1.5594  0.0911  1.4933
  145PROXR   C225782  12.404   9.883   8.850  1.0325  0.5727  0.2413
  145PROXR  H2125783  12.369   9.989   8.854 -2.4537 -0.4758  1.5538
  145PROXR   C325784  12.534   9.879   8.937 -0.0663  0.4691  0.1242
  145PROXR  H3125785  12.523   9.918   9.040 -0.5168  0.8272 -0.0602
  145PROXR  H3225786  12.575   9.775   8.928  1.2416  0.9801 -0.0628
  145PROXR  H3325787  12.600   9.957   8.895  1.4405 -0.0289  1.4637
  146PROXS   O125788  12.290   9.803   8.897  0.1038 -0.1465  0.5115
  146PROXS   C125789  12.230   9.848   9.024 -0.1554  0.0517 -0.1734
  146PROXS  H1125790  12.309   9.831   9.101  1.5455 -0.1485 -1.8748
  146PROXS  H1325791  12.217   9.958   9.008 -1.5170 -0.4501 -3.2877
  146PROXS   C225792  12.107   9.759   9.048  0.2181 -0.5911 -0.2104
  146PROXS  H2125793  12.124   9.650   9.061 -3.0809 -1.1531  0.2653
  146PROXS   C325794  12.001   9.781   8.941 -0.4798  0.0503 -0.0598
  146PROXS  H3125795  11.913   9.721   8.974  0.2433 -0.7104  0.5221
  146PROXS  H3225796  11.970   9.888   8.944 -0.3824  0.0841 -0.2747
  146PROXS  H3325797  12.030   9.741   8.842  1.0692  2.7130 -0.7618
  147PROXR   O125798  12.044   9.811   9.159 -0.2132  0.2893  0.8107
  147PROXR   C125799  12.094   9.770   9.283 -0.2850  0.0115 -0.4587
  147PROXR  H1125800  12.087   9.660   9.288  0.4355 -0.0054  3.4832
  147PROXR  H1325801  12.198   9.804   9.302  0.8920 -2.5839 -1.8490
  147PROXR   C225802  12.003   9.815   9.400 -0.5959 -0.9486  1.0004
  147PROXR  H2125803  11.896   9.803   9.374 -0.2111  0.5142 -1.6690
  147PROXR   C325804  12.023   9.962   9.435 -0.9880  0.2090 -0.1401
  147PROXR  H3125805  12.114   9.963   9.499 -2.0602 -1.0428  1.4773
  147PROXR  H3225806  12.041  10.035   9.353  2.2218 -0.5082 -0.1945
  147PROXR  H3325807  11.939   9.999   9.498  0.7477 -0.2171  2.5804
  148PROXR   O125808  12.039   9.741   9.513  0.4097 -0.0119 -0.0480
  148PROXR   C125809  11.939   9.747   9.605  0.4979  0.4407 -0.6233
  148PROXR  H1125810  11.946   9.844   9.659  0.8199 -1.3310  2.7675
  148PROXR  H1325811  11.839   9.735   9.557  0.1243 -2.3636  0.6586
  148PROXR   C225812  11.942   9.623   9.704  0.1411 -0.4886  0.3587
  148PROXR  H2125813  12.040   9.624   9.755 -0.1160  0.3751  0.8616
  148PROXR   C325814  11.939   9.493   9.636  0.0950  0.5936  0.6902
  148PROXR  H3125815  11.907   9.410   9.702  2.6715 -0.5681  0.5713
  148PROXR  H3225816  11.862   9.485   9.557 -1.0154  0.3781  1.7642
  148PROXR  H3325817  12.035   9.466   9.588 -1.4402 -1.5113 -1.4077
  149PROXR   O125818  11.831   9.650   9.793 -0.0458 -0.0303  0.0178
  149PROXR   C125819  11.830   9.554   9.896 -0.1225 -0.2646 -0.3874
  149PROXR  H1125820  11.772   9.468   9.857 -1.1908  0.4876 -0.4755
  149PROXR  H1325821  11.931   9.512   9.919  1.3378  1.3670 -3.2516
  149PROXR   C225822  11.747   9.607  10.018 -0.2373  0.0230  0.5565
  149PROXR  H2125823  11.646   9.637   9.983 -0.7434 -2.0755  0.0605
  149PROXR   C325824  11.819   9.732  10.065  0.1872  0.5290  0.0743
  149PROXR  H3125825  11.847   9.800   9.981  0.0774 -1.4686 -1.6533
  149PROXR  H3225826  11.768   9.781  10.151  1.2702 -2.0983  2.3494
  149PROXR  H3325827  11.908   9.692  10.119 -1.9664 -4.6724  0.2969
  150PROXS   O125828  11.735   9.505  10.118 -0.0680 -0.0382 -0.3555
  150PROXS   C125829  11.623   9.510  10.208  0.0889  0.3599  0.0063
  150PROXS  H1125830  11.605   9.613  10.243  0.9215  0.9742 -1.2964
  150PROXS  H1325831  11.530   9.478  10.157 -2.6085  2.7990  2.9267
  150PROXS   C225832  11.643   9.421  10.331 -0.2216 -0.4056  0.8944
  150PROXS  H2125833  11.677   9.322  10.294 -2.4321 -0.3172 -1.6134
  150PROXS   C325834  11.509   9.396  10.397 -0.5524  0.2218 -0.7359
  150PROXS  H3125835  11.519   9.334  10.489 -0.6876 -1.4543 -1.8128
  150PROXS  H3225836  11.470   9.494  10.433 -1.4289  0.6560 -2.7188
  150PROXS  H3325837  11.432   9.345  10.335 -0.7494  0.6652 -0.8607
  151PROXR   O125838  11.732   9.484  10.418 -0.0933 -0.7084 -0.7217
  151PROXR   C125839  11.870   9.449  10.395  0.2711  0.3717 -0.1564
  151PROXR  H1125840  11.876   9.339  10.414  0.4003  0.4929  0.5244
  151PROXR  H1325841  11.883   9.484  10.291 -0.9535 -0.4604 -0.6099
  151PROXR   C225842  11.970   9.528  10.483  0.3019 -0.1591  0.3885
  151PROXR  H2125843  11.955   9.498  10.589  1.0594 -1.2977  0.1919
  151PROXR   C325844  11.935   9.674  10.467  0.5623  0.3694 -0.2587
  151PROXR  H3125845  11.844   9.700  10.526  1.2706  1.3264  0.4292
  151PROXR  H3225846  12.020   9.736  10.502 -0.2645  0.6700  1.3380
  151PROXR  H3325847  11.915   9.696  10.360 -1.5200  2.3039  0.4433
  152PROXR   O125848  12.103   9.503  10.440 -0.7274  0.0646 -0.9533
  152PROXR   C125849  12.146   9.366  10.453  0.5372 -0.0149 -0.6472
  152PROXR  H1125850  12.110   9.328  10.551 -1.3211 -0.1293 -1.3310
  152PROXR  H1325851  12.104   9.302  10.372 -5.1811  0.4506  1.4575
  152PROXR   C225852  12.298   9.350  10.466 -1.4876 -0.5703  0.6026
  152PROXR  H2125853  12.326   9.427  10.541 -0.2378  0.0023 -0.4300
  152PROXR   C325854  12.385   9.371  10.339 -0.2635  0.5310 -0.4049
  152PROXR  H3125855  12.354   9.462  10.284  1.0805 -0.0027 -2.1298
  152PROXR  H3225856  12.493   9.390  10.357 -0.1653 -2.1224  2.6845
  152PROXR  H3325857  12.370   9.286  10.268 -0.0570 -1.0981  1.4142
  153PROXR   O125858  12.332   9.223  10.525 -0.2011 -0.1558 -0.1037
  153PROXR   C125859  12.453   9.225  10.606  0.0812  0.7052 -0.9046
  153PROXR  H1125860  12.532   9.271  10.544  0.5804 -0.0615 -0.8379
  153PROXR  H1325861  12.443   9.302  10.686 -1.3292  1.8859 -2.1482
  153PROXR   C225862  12.499   9.085  10.658  0.2534 -0.3813  0.4848
  153PROXR  H2125863  12.555   9.036  10.575 -0.6531 -0.0343 -0.3546
  153PROXR   C325864  12.381   8.997  10.705  0.6214 -0.3798 -0.4277
  153PROXR  H3125865  12.413   8.893  10.729 -1.0750 -0.3343  2.5549
  153PROXR  H3225866  12.339   9.046  10.796 -0.2892  0.1837 -1.1359
  153PROXR  H3325867  12.301   8.986  10.629 -2.8887 -0.8710  2.9917
  154PROXS   O125868  12.574   9.107  10.773 -0.4245 -0.1487 -0.1659
  154PROXS   C125869  12.678   9.007  10.797 -0.7548 -0.0606  0.5583
  154PROXS  H1125870  12.629   8.910  10.823 -0.6126  0.0298  1.1607
  154PROXS  H1325871  12.720   8.999  10.694 -1.2718  2.9996  0.0320
  154PROXS   C225872  12.784   9.045  10.908  0.1990  0.0485  0.5735
  154PROXS  H2125873  12.718   9.084  10.988 -0.4008  1.2168 -0.4556
  154PROXS   C325874  12.881   9.153  10.863 -0.2017 -0.4013 -0.2671
  154PROXS  H3125875  12.931   9.203  10.948 -1.0030  0.2594 -0.1727
  154PROXS  H3225876  12.960   9.113  10.796 -0.7789  0.5173 -1.5502
  154PROXS  H3325877  12.816   9.221  10.803 -0.5154 -1.0382 -0.6651
  155PROXR   O125878  12.838   8.918  10.949  0.1523 -0.4170  0.1951
  155PROXR   C125879  12.923   8.928  11.063  0.0895 -1.2966  0.4790
  155PROXR  H1125880  12.991   9.015  11.050  0.4006 -1.7544 -1.2353
  155PROXR  H1325881  12.855   8.942  11.149  0.1563 -0.2598  0.3738
  155PROXR   C225882  13.007   8.802  11.083 -0.9110  0.2724 -0.1529
  155PROXR  H2125883  12.946   8.712  11.062  0.7787 -1.5295  2.1673
  155PROXR   C325884  13.042   8.790  11.229  0.1770 -0.8192 -0.9922
  155PROXR  H3125885  13.076   8.884  11.275  1.7484 -0.8104 -2.0868
  155PROXR  H3225886  12.952   8.753  11.283  1.7488 -0.9734  1.7023
  155PROXR  H3325887  13.121   8.714  11.246  0.5765  0.0147  1.1402
  156PROXS   O125888  13.131   8.797  11.016 -0.3043 -0.1262 -0.0758
  156PROXS   C125889  13.120   8.825  10.878 -0.4851  1.0179 -0.8583
  156PROXS  H1125890  13.052   8.753  10.826 -0.2357 -0.9929  1.4391
  156PROXS  H1325891  13.092   8.930  10.856  0.0094  1.1350 -0.9252
  156PROXS   C225892  13.254   8.786  10.808 -0.7478 -0.3615  0.3101
  156PROXS  H2125893  13.268   8.678  10.832 -0.6587 -0.6982 -1.1706
  156PROXS   C325894  13.383   8.856  10.851 -0.2523  1.1928 -0.7606
  156PROXS  H3125895  13.368   8.965  10.832  4.9892  2.1489 -1.0387
  156PROXS  H3225896  13.380   8.839  10.960 -2.9553 -1.6199 -1.1408
  156PROXS  H3325897  13.476   8.828  10.797 -0.2806  0.6992 -0.5496
  157PROXS   O125898  13.237   8.807  10.666 -0.6553 -0.4585 -0.7594
  157PROXS   C125899  13.217   8.943  10.628 -0.3235  0.2629 -0.2967
  157PROXS  H1125900  13.134   8.991  10.684  0.1417 -2.0457  2.6424
  157PROXS  H1325901  13.312   8.998  10.643 -0.8085  1.1828 -0.4854
  157PROXS   C225902  13.178   8.958  10.478  0.1673 -0.1035  0.2610
  157PROXS  H2125903  13.113   8.874  10.446  0.7605 -0.2960 -0.4639
  157PROXS   C325904  13.305   8.935  10.393  0.0147 -0.6756  0.1786
  157PROXS  H3125905  13.380   9.015  10.409 -0.1890 -0.3872 -0.2707
  157PROXS  H3225906  13.345   8.836  10.425  2.0815  0.4294  1.1961
  157PROXS  H3325907  13.276   8.923  10.286  0.9527  0.6111 -0.2390
  158PROXR   O125908  13.126   9.095  10.455  0.3351  0.8717 -0.1672
  158PROXR   C125909  13.009   9.094  10.376  0.5097  0.0752 -0.1335
  158PROXR  H1125910  13.050   9.071  10.275  2.2858  0.4512  0.4673
  158PROXR  H1325911  12.938   9.017  10.414 -0.6013  1.8516  1.5784
  158PROXR   C225912  12.933   9.226  10.387  0.1300  0.0842 -0.1815
  158PROXR  H2125913  13.001   9.314  10.392  0.2306  0.0463 -0.7245
  158PROXR   C325914  12.834   9.228  10.503 -0.2959  0.2388 -0.0701
  158PROXR  H3125915  12.882   9.167  10.583  1.9685 -1.1068 -2.3070
  158PROXR  H3225916  12.809   9.333  10.527  1.4908  0.5601  0.5413
  158PROXR  H3325917  12.756   9.162  10.458  0.1749  0.5318 -1.3571
  159PROXR   O125918  12.852   9.240  10.267 -0.3020 -0.1315  0.0165
  159PROXR   C125919  12.829   9.380  10.238 -0.6937 -0.4686 -0.3438
  159PROXR  H1125920  12.788   9.435  10.325 -1.4683 -0.8761 -0.4498
  159PROXR  H1325921  12.920   9.437  10.206 -0.4946 -1.2098 -1.1476
  159PROXR   C225922  12.729   9.381  10.121  0.3151 -0.5843  0.3329
  159PROXR  H2125923  12.639   9.324  10.152  0.4842 -0.4049  1.1924
  159PROXR   C325924  12.795   9.294  10.002  0.7755 -0.7687  0.1417
  159PROXR  H3125925  12.890   9.342   9.969 -0.3509  2.0290  0.7121
  159PROXR  H3225926  12.816   9.189  10.032  0.0836 -1.1998 -0.8316
  159PROXR  H3325927  12.718   9.299   9.922 -0.3045 -1.2845  1.1181
  160PROXS   O125928  12.703   9.512  10.066 -0.2504  0.1581  0.3215
  160PROXS   C125929  12.615   9.590  10.146  0.5635 -0.1719 -0.1289
  160PROXS  H1125930  12.514   9.544  10.140 -0.0256  1.2876 -4.1173
  160PROXS  H1325931  12.654   9.599  10.250  0.4134  2.9386 -0.2496
  160PROXS   C225932  12.600   9.727  10.086  0.4053  0.0088  0.3037
  160PROXS  H2125933  12.699   9.762  10.049  0.0635  1.1517  0.4179
  160PROXS   C325934  12.528   9.822  10.173  0.3234  0.3180 -0.6760
  160PROXS  H3125935  12.429   9.781  10.201 -0.0945  0.6401 -1.6433
  160PROXS  H3225936  12.592   9.827  10.264  0.6870 -2.6694 -0.6544
  160PROXS  H3325937  12.505   9.917  10.121 -0.5660  0.8455  0.6271
  161PROXR   O125938  12.516   9.728   9.971  0.0909  0.0073 -0.0970
  161PROXR   C125939  12.577   9.697   9.851  0.0142  0.3033 -0.6992
  161PROXR  H1125940  12.650   9.777   9.827  0.4834 -0.3707 -1.5398
  161PROXR  H1325941  12.625   9.597   9.854 -0.3035  0.1651  0.3640
  161PROXR   C225942  12.465   9.697   9.745 -1.1951  0.4084 -1.0577
  161PROXR  H2125943  12.434   9.804   9.740  1.7073  1.5218  1.6311
  161PROXR   C325944  12.348   9.606   9.777 -0.0135  0.9065 -0.0058
  161PROXR  H3125945  12.266   9.622   9.704  0.1736  3.1734  0.2120
  161PROXR  H3225946  12.367   9.496   9.782 -3.0470  0.2617 -0.6624
  161PROXR  H3325947  12.320   9.643   9.878  2.3618  1.1209  0.6321
  162PROXR   O125948  12.527   9.657   9.620 -0.7792  0.0858  0.1900
  162PROXR   C125949  12.456   9.685   9.498 -0.4024 -0.3915  0.8275
  162PROXR  H1125950  12.374   9.610   9.492  0.7027 -1.5847 -0.2137
  162PROXR  H1325951  12.409   9.785   9.503 -0.5199 -0.4283  0.4866
  162PROXR   C225952  12.548   9.678   9.373 -0.6122  0.1094  0.1295
  162PROXR  H2125953  12.602   9.582   9.387 -3.1968 -1.2963  1.1608
  162PROXR   C325954  12.633   9.800   9.342 -0.9096  0.6571  0.6098
  162PROXR  H3125955  12.574   9.882   9.297 -1.7830 -1.0602 -1.5802
  162PROXR  H3225956  12.690   9.823   9.434  1.3305 -0.3683 -0.4429
  162PROXR  H3325957  12.709   9.759   9.272 -1.0514 -1.5071  1.6264
  163PROXS   O125958  12.459   9.647   9.262  0.1338 -0.0482  0.1693
  163PROXS   C125959  12.529   9.584   9.157 -0.1397  0.3623  0.8987
  163PROXS  H1125960  12.596   9.652   9.101  1.0477 -1.5396 -0.0870
  163PROXS  H1325961  12.589   9.506   9.209  0.5996  1.0465  1.0900
  163PROXS   C225962  12.428   9.519   9.065 -0.2801 -0.0452  0.0785
  163PROXS  H2125963  12.374   9.596   9.007 -0.3177  0.4605  0.7647
  163PROXS   C325964  12.325   9.433   9.133 -0.3802 -0.5666 -0.2868
  163PROXS  H3125965  12.288   9.487   9.223  1.5627  2.2567 -1.0584
  163PROXS  H3225966  12.235   9.421   9.068  0.2042 -3.0624 -0.7479
  163PROXS  H3325967  12.368   9.334   9.161 -1.3345 -0.2740  2.5676
  164PROXR   O125968  12.498   9.423   8.987 -0.4844  0.0565 -0.1283
  164PROXR   C125969  12.570   9.478   8.881  0.4824 -0.2363  0.0725
  164PROXR  H1125970  12.519   9.560   8.827  1.9808  0.6026 -0.1311
  164PROXR  H1325971  12.662   9.524   8.924 -0.2469  1.3668 -0.0422
  164PROXR   C225972  12.616   9.371   8.778  0.0882 -0.1585  0.3292
  164PROXR  H2125973  12.524   9.321   8.739  0.3939  0.0717 -0.7216
  164PROXR   C325974  12.707   9.258   8.852 -0.6708  0.3902 -0.0603
  164PROXR  H3125975  12.797   9.316   8.879 -0.1739 -1.0813  1.6594
  164PROXR  H3225976  12.671   9.223   8.951  0.6489 -2.9854 -0.6128
  164PROXR  H3325977  12.736   9.169   8.791 -2.3058 -0.6418  0.5855
  165PROXR   O125978  12.694   9.440   8.680 -0.2006 -0.2380 -0.1596
  165PROXR   C125979  12.714   9.356   8.569  0.5286 -0.1770 -0.2744
  165PROXR  H1125980  12.767   9.267   8.609  1.5437  1.0470  1.2193
  165PROXR  H1325981  12.615   9.338   8.521  0.3114 -0.3960  0.2450
  165PROXR   C225982  12.810   9.416   8.462 -0.4849  0.4322  0.5471
  165PROXR  H2125983  12.900   9.422   8.528  0.2223  2.5728 -0.5524
  165PROXR   C325984  12.766   9.551   8.412 -0.4769 -0.9032  0.2536
  165PROXR  H3125985  12.678   9.539   8.346 -2.2647  0.6090  2.2166
  165PROXR  H3225986  12.726   9.618   8.491 -0.7379 -1.2811  0.4460
  165PROXR  H3325987  12.853   9.596   8.360 -2.3118  2.0215 -0.5055
  166ETHOX   O125988  12.832   9.322   8.354  0.2480 -0.7011  0.4115
  166ETHOX   C125989  12.948   9.335   8.287 -0.3364 -0.1060  0.2923
  166ETHOX  H1125990  13.033   9.314   8.354 -0.0138 -1.3183 -0.4675
  166ETHOX  H1325991  12.964   9.439   8.251  2.4000 -0.6438 -0.2879
  166ETHOX   C225992  12.939   9.236   8.168  0.2848 -0.1891  0.4043
  166ETHOX  H2125993  13.028   9.252   8.104 -1.3004 -0.3195 -1.9774
  166ETHOX  H2325994  12.850   9.263   8.107  0.9653  0.8147 -0.1748
  167ETHOX   O125995  12.928   9.098   8.196 -0.3014  0.5530 -0.8094
  167ETHOX   C125996  12.894   9.012   8.084 -0.1333  0.3115 -0.8709
  167ETHOX  H1125997  12.794   9.041   8.046 -0.2823  1.2464  0.1654
  167ETHOX  H1325998  12.975   9.032   8.010  1.5403  0.2076  0.8414
  167ETHOX   C225999  12.906   8.867   8.142  0.1436  1.2693  0.0401
  167ETHOX  H2126000  12.992   8.858   8.211 -0.6829 -1.5123  0.8102
  167ETHOX  H2326001  12.928   8.791   8.064 -2.1391 -0.2209  0.7439
  168ETHOX   O126002  12.789   8.826   8.209  0.2727  0.1396 -0.3593
  168ETHOX   C126003  12.795   8.686   8.244 -0.9369  0.6993 -0.0784
  168ETHOX  H1126004  12.882   8.678   8.312 -1.9635 -0.3939  1.1681
  168ETHOX  H1326005  12.818   8.636   8.147 -0.4232  0.0996  0.3447
  168ETHOX   C226006  12.675   8.627   8.309 -0.1695  0.1847 -0.2186
  168ETHOX  H2126007  12.640   8.675   8.403 -0.3625  2.4333 -1.3779
  168ETHOX  H2326008  12.695   8.521   8.339  1.3156  0.1934 -1.0770
  169ETHOX   O126009  12.567   8.624   8.219  0.2786 -0.0637 -0.4451
  169ETHOX   C126010  12.587   8.548   8.106 -0.1897 -0.0742 -0.3611
  169ETHOX  H1126011  12.669   8.589   8.044  0.3870  0.6739  0.8569
  169ETHOX  H1326012  12.594   8.441   8.134  1.1041 -0.1192 -0.7680
  169ETHOX   C226013  12.452   8.550   8.029  0.3370  0.0397 -0.2357
  169ETHOX  H2126014  12.469   8.520   7.923 -1.0243  0.9930 -0.7410
  169ETHOX  H2326015  12.418   8.656   8.034 -0.7053 -0.3194  0.6910
  170ETHOX   O126016  12.344   8.474   8.085  0.4127 -0.0123  0.0373
  170ETHOX   C126017  12.283   8.386   8.000  0.0950  0.6167  0.0533
  170ETHOX  H1126018  12.354   8.304   7.976  0.8982  1.5632 -0.9259
  170ETHOX  H1326019  12.272   8.437   7.902 -0.2381  0.9432  0.2554
  170ETHOX   C226020  12.150   8.336   8.054  0.6560  0.2268 -0.2902
  170ETHOX  H2126021  12.163   8.297   8.157  0.7862  0.5620 -0.1771
  170ETHOX  H2326022  12.118   8.247   7.996  0.4672  1.4433 -2.1323
  171ETHOX   O126023  12.040   8.419   8.042 -0.0882  0.8814  0.4554
  171ETHOX   C126024  12.030   8.497   8.161  0.2441 -0.1158  0.3604
  171ETHOX  H1126025  12.007   8.435   8.250  0.1330 -0.4449  0.1017
  171ETHOX  H1326026  12.123   8.555   8.181 -0.3375  0.7719  0.5540
  171ETHOX   C226027  11.922   8.609   8.144  0.2797 -0.2213  0.9526
  171ETHOX  H2126028  11.898   8.651   8.244 -0.9277  3.3669 -0.6773
  171ETHOX  H2326029  11.831   8.560   8.105 -0.3071  0.0174  1.9904
  172ETHOX   O126030  11.954   8.725   8.071  0.0830  0.2065 -0.0502
  172ETHOX   C126031  11.979   8.698   7.937 -0.0176 -0.4151  0.3523
  172ETHOX  H1126032  11.909   8.621   7.898  0.3837  0.3268 -2.0521
  172ETHOX  H1326033  12.078   8.648   7.926  0.2131 -0.0492  0.7500
  172ETHOX   C226034  11.965   8.821   7.846 -0.6093  0.1824 -0.5564
  172ETHOX  H2126035  11.867   8.871   7.861 -0.6839  0.6045 -2.2794
  172ETHOX  H2326036  11.978   8.789   7.740 -0.8269  1.5964 -1.0291
  173ETHOX   O126037  12.077   8.905   7.872  0.2819 -1.1498 -0.4779
  173ETHOX   C126038  12.066   9.025   7.788  0.0460  0.2812  0.2143
  173ETHOX  H1126039  12.090   8.986   7.687 -0.0195  0.2471  0.2115
  173ETHOX  H1326040  11.963   9.065   7.797 -0.2715 -0.7937  1.7540
  173ETHOX   C226041  12.169   9.121   7.828  0.2877  0.2259  0.1347
  173ETHOX  H2126042  12.269   9.095   7.869  1.3777  1.8879 -1.2727
  173ETHOX  H2326043  12.173   9.205   7.755 -0.2616 -0.3392 -0.5559
  174ETHOX   O126044  12.106   9.185   7.938  0.0827  0.3543  0.1350
  174ETHOX   C126045  12.178   9.303   7.975  0.4092  0.2287 -0.4094
  174ETHOX  H1126046  12.286   9.277   7.983 -0.0229 -2.5399 -2.3054
  174ETHOX  H1326047  12.186   9.377   7.892  1.3968 -1.2763 -1.6996
  174ETHOX   C226048  12.121   9.369   8.106  0.1865 -0.2237  0.5645
  174ETHOX  H2126049  12.193   9.449   8.135 -0.6395  0.1935  1.5328
  174ETHOX  H2326050  12.118   9.291   8.184  0.4219 -0.8273 -0.0239
  175ETHOX   O126051  11.986   9.419   8.092 -0.5624  0.3468 -0.3293
  175ETHOX   C126052  11.982   9.547   8.031  0.6274 -0.3488  0.4076
  175ETHOX  H1126053  12.040   9.624   8.087 -0.4299  2.3621 -1.9599
  175ETHOX  H1326054  12.020   9.537   7.927 -3.5718 -1.3740 -1.2339
  175ETHOX   C226055  11.838   9.600   8.012 -0.3120  0.1784  0.1466
  175ETHOX  H2126056  11.832   9.697   7.959 -2.3347  0.4362  0.7394
  175ETHOX  H2326057  11.792   9.613   8.113 -0.7458 -0.3110  0.0140
  176ETHOX   O126058  11.753   9.505   7.944  0.1182 -0.2702  0.1382
  176ETHOX   C126059  11.616   9.546   7.928  0.5526  0.5385  0.2008
  176ETHOX  H1126060  11.575   9.564   8.030 -0.5655 -3.9622  0.7473
  176ETHOX  H1326061  11.618   9.646   7.879  0.7320  0.4307 -0.0134
  176ETHOX   C226062  11.533   9.448   7.843 -0.1059 -0.3975 -1.1887
  176ETHOX  H2126063  11.425   9.477   7.844  0.0506  0.2048 -1.5163
  176ETHOX  H2326064  11.532   9.347   7.890 -1.3303 -0.1278 -0.5869
  177ETHOX   O126065  11.575   9.443   7.706  0.6642 -0.2969  0.4123
  177ETHOX   C126066  11.510   9.333   7.645 -1.4718  0.4818  0.7541
  177ETHOX  H1126067  11.400   9.351   7.644 -1.4027  1.6543 -3.1038
  177ETHOX  H1326068  11.534   9.241   7.702  0.8222  0.9559  0.6505
  177ETHOX   C226069  11.557   9.318   7.498  1.0323  0.1457  0.0564
  177ETHOX  H2126070  11.561   9.210   7.471 -0.7335 -0.4972  2.0260
  177ETHOX  H2326071  11.655   9.367   7.484 -0.2943  2.7679 -0.6443
  178ETHOX   O126072  11.476   9.396   7.408  0.6436  0.0440 -0.1470
  178ETHOX   C126073  11.511   9.399   7.271  0.1954 -0.7827 -0.2530
  178ETHOX  H1126074  11.616   9.434   7.261 -0.0229 -0.3765 -1.3363
  178ETHOX  H1326075  11.500   9.295   7.235 -0.7078 -0.8072  0.0578
  178ETHOX   C226076  11.422   9.499   7.195  0.2159  0.1057 -0.1192
  178ETHOX  H2126077  11.458   9.597   7.233  2.9095 -1.4104  1.5918
  178ETHOX  H2326078  11.315   9.481   7.220  1.0819 -3.3304  1.7639
  179ETHOX   O126079  11.444   9.478   7.057 -0.0078 -0.2267  0.5529
  179ETHOX   C126080  11.362   9.566   6.973 -0.1470  0.0682 -0.7603
  179ETHOX  H1126081  11.411   9.569   6.873  0.1721 -0.0401 -0.6080
  179ETHOX  H1326082  11.371   9.673   7.002 -1.7846  0.4946 -1.6818
  179ETHOX   C226083  11.214   9.530   6.977 -0.5336  0.9579 -0.1945
  179ETHOX  H2126084  11.206   9.421   6.992 -1.2265  0.9822 -0.3877
  179ETHOX  H2326085  11.173   9.546   6.875 -1.8883  1.7074  0.4490
  180ETHOX   O126086  11.145   9.586   7.084 -0.5246  0.7887  0.8150
  180ETHOX   C126087  11.019   9.524   7.115 -0.4705 -0.1317  0.0292
  180ETHOX  H1126088  10.947   9.554   7.036 -1.1714  0.6535  0.9362
  180ETHOX  H1326089  11.033   9.415   7.100  0.4607 -0.1244  0.7391
  180ETHOX   C226090  10.942   9.568   7.245 -1.0217  0.3377 -0.4130
  180ETHOX  H2126091  10.849   9.510   7.257  0.4107 -1.5066  3.1933
  180ETHOX  H2326092  10.921   9.677   7.252  1.5824  0.9179 -0.4193
  181ETHOX   O126093  11.017   9.531   7.361 -0.2664  0.3571 -0.0176
  181ETHOX   C126094  11.115   9.635   7.386  0.1865  1.0128  0.1033
  181ETHOX  H1126095  11.062   9.731   7.406 -2.4218 -0.4389  0.6920
  181ETHOX  H1326096  11.188   9.629   7.303 -1.0280  0.9649 -0.9946
  181ETHOX   C226097  11.198   9.607   7.509 -0.9086  0.3262  0.1865
  181ETHOX  H2126098  11.291   9.667   7.507 -0.1046 -0.8839 -0.1133
  181ETHOX  H2326099  11.237   9.502   7.506  3.0109  1.5767 -3.1540
  182ETHOX   O126100  11.118   9.626   7.627  0.0644 -1.1639  0.2119
  182ETHOX   C126101  11.182   9.581   7.743 -0.6568 -0.0548 -0.8985
  182ETHOX  H1126102  11.242   9.489   7.727 -0.4425  0.5497 -4.2571
  182ETHOX  H1326103  11.249   9.664   7.775 -1.9269  0.2104  1.3124
  182ETHOX   C226104  11.073   9.551   7.850  0.1734  0.2904 -0.4027
  182ETHOX  H2126105  11.140   9.512   7.929 -0.4284  1.4528  0.7326
  182ETHOX  H2326106  11.008   9.468   7.814  1.1549 -0.1577 -1.2025
  183ETHOX   O126107  10.994   9.665   7.899 -0.1181 -0.1135  0.1343
  183ETHOX   C126108  10.956   9.655   8.036  0.8261  0.4237 -0.2669
  183ETHOX  H1126109  10.917   9.554   8.059 -1.2970  1.0271 -0.9938
  183ETHOX  H1326110  10.873   9.728   8.045  0.0540 -0.5021  0.1481
  183ETHOX   C226111  11.078   9.677   8.118  0.1093 -0.8084 -0.6570
  183ETHOX  H2126112  11.060   9.750   8.201  0.4928  0.6603 -1.8139
  183ETHOX  H2326113  11.162   9.715   8.057  0.2450 -0.2361 -0.1267
  184ETHOX   O126114  11.123   9.554   8.178  0.0916 -0.0480 -1.1690
  184ETHOX   C126115  11.196   9.572   8.300 -0.5166  0.1831  0.5295
  184ETHOX  H1126116  11.263   9.661   8.304  2.3799 -1.8536  0.5783
  184ETHOX  H1326117  11.125   9.576   8.385 -0.3808 -0.4394  0.6706
  184ETHOX   C226118  11.285   9.446   8.317  0.4247 -0.3993 -0.2505
  184ETHOX  H2126119  11.227   9.356   8.287 -0.7413  1.0025 -2.5633
  184ETHOX  H2326120  11.307   9.431   8.424  2.2286 -1.1930 -0.6995
  185ETHOX   O126121  11.403   9.453   8.239 -0.9166  0.3489 -0.0282
  185ETHOX   C126122  11.511   9.513   8.313  0.2944 -0.2008 -0.1181
  185ETHOX  H1126123  11.575   9.562   8.237 -1.3203 -0.0349 -1.4405
  185ETHOX  H1326124  11.471   9.599   8.371  0.0266  0.3816 -1.1404
  185ETHOX   C226125  11.616   9.431   8.394 -0.0085  0.8720 -0.1080
  185ETHOX  H2126126  11.573   9.397   8.491 -0.2761  0.0839 -0.5006
  185ETHOX  H2326127  11.705   9.496   8.410 -0.5194  1.6490 -0.3268
  186ETHOX   O126128  11.680   9.324   8.328  0.2282  0.1691  0.0970
  186ETHOX   C126129  11.790   9.266   8.401  0.2768 -0.7780 -0.4230
  186ETHOX  H1126130  11.878   9.332   8.413  0.6056 -0.6529 -2.9547
  186ETHOX  H1326131  11.750   9.237   8.500 -1.7876 -0.1160 -0.9882
  186ETHOX   C226132  11.829   9.140   8.321 -0.0454  0.1146 -0.9356
  186ETHOX  H2126133  11.911   9.089   8.377 -0.0068 -1.5507 -2.4242
  186ETHOX  H2326134  11.869   9.175   8.224 -0.0298 -0.1568 -1.0281
  187ETHOX   O126135  11.718   9.047   8.314  0.1460  0.1165  1.0347
  187ETHOX   C126136  11.753   8.939   8.227 -0.4607  0.4924  0.0668
  187ETHOX  H1126137  11.760   8.973   8.121 -3.5478 -2.1273 -1.1419
  187ETHOX  H1326138  11.853   8.906   8.261  0.2429  1.5355 -0.8976
  187ETHOX   C226139  11.650   8.822   8.241 -1.0391 -0.1269 -0.2747
  187ETHOX  H2126140  11.660   8.737   8.170  0.3099 -1.2236  1.1552
  187ETHOX  H2326141  11.551   8.871   8.232 -2.2034 -1.7630  2.3438
  188ETHOX   O126142  11.660   8.755   8.368 -0.0681 -0.3405  0.1809
  188ETHOX   C126143  11.558   8.662   8.387 -0.1213  0.0092 -0.3008
  188ETHOX  H1126144  11.580   8.579   8.317 -0.8973 -0.7397  0.3339
  188ETHOX  H1326145  11.458   8.707   8.365 -0.3004  0.9431  2.1640
  188ETHOX   C226146  11.560   8.613   8.534  0.4588  0.0733  0.9544
  188ETHOX  H2126147  11.558   8.698   8.606  0.0104  1.6519 -0.8553
  188ETHOX  H2326148  11.654   8.555   8.542  0.5666  0.3866  2.1062
  189ETHOX   O126149  11.450   8.528   8.557 -0.9526  0.4937 -0.1326
  189ETHOX   C126150  11.479   8.461   8.685 -0.3093  0.6780  0.1901
  189ETHOX  H1126151  11.576   8.409   8.671 -1.5888 -1.3196 -1.9636
  189ETHOX  H1326152  11.486   8.537   8.765 -0.9921 -1.7288  2.6632
  189ETHOX   C226153  11.386   8.353   8.733  0.0947  1.0935 -0.2895
  189ETHOX  H2126154  11.443   8.274   8.786  1.0943  1.0419 -1.3934
  189ETHOX  H2326155  11.338   8.297   8.650 -0.3141 -0.6285  1.0673
  190ETHOX   O126156  11.286   8.413   8.817  0.6175  0.1254 -0.1848
  190ETHOX   C126157  11.315   8.393   8.951 -0.1796  0.2023 -0.9445
  190ETHOX  H1126158  11.422   8.415   8.972 -0.6957  1.4915  0.4745
  190ETHOX  H1326159  11.293   8.290   8.987  1.1838  0.6300  1.2852
  190ETHOX   C226160  11.247   8.499   9.038 -0.3308  0.4871  0.0313
  190ETHOX  H2126161  11.266   8.462   9.141  0.3550 -1.3413 -0.7103
  190ETHOX  H2326162  11.140   8.487   9.011 -0.6219  0.9155  0.9900
  191ETHOX   O126163  11.283   8.637   9.018  0.1926  0.4221  0.1851
  191ETHOX   C126164  11.167   8.732   9.008 -0.3879 -0.7856  0.0359
  191ETHOX  H1126165  11.084   8.686   8.951 -0.2282 -1.8398  0.6245
  191ETHOX  H1326166  11.122   8.752   9.108 -0.9978  0.1253 -0.4179
  191ETHOX   C226167  11.213   8.869   8.946  0.1812  0.5122 -0.3245
  191ETHOX  H2126168  11.306   8.906   8.995  0.7334  0.1061 -1.0333
  191ETHOX  H2326169  11.137   8.948   8.964 -1.6724 -1.1158 -0.6794
  192ETHOX   O126170  11.220   8.848   8.799  0.4543  0.3648 -0.1524
  192ETHOX   C126171  11.257   8.965   8.741 -0.2982  0.3447  0.1104
  192ETHOX  H1126172  11.359   8.991   8.776 -0.4026  1.1591 -0.1632
  192ETHOX  H1326173  11.181   9.037   8.780 -0.3837  0.6441 -0.5894
  192ETHOX   C226174  11.240   8.958   8.585  0.5701 -0.0413  0.1408
  192ETHOX  H2126175  11.159   8.889   8.554  1.2977  0.2058 -2.6491
  192ETHOX  H2326176  11.326   8.916   8.527  0.9354  0.3401  0.3963
  193ETHOX   O126177  11.215   9.083   8.530 -0.2558 -0.0915  0.1971
  193ETHOX   C126178  11.161   9.065   8.399  0.6332  0.1525  0.6189
  193ETHOX  H1126179  11.078   8.992   8.398  0.1401  0.7080 -0.5135
  193ETHOX  H1326180  11.117   9.165   8.378  0.7035 -0.1067 -0.8020
  193ETHOX   C226181  11.270   9.038   8.295  0.4611  0.5646 -0.1042
  193ETHOX  H2126182  11.359   9.090   8.338  1.6833 -1.5855  0.0865
  193ETHOX  H2326183  11.244   9.089   8.200 -0.5600  0.7254  0.2387
  194ETHOX   O126184  11.300   8.898   8.269 -0.0774 -0.3004  0.2252
  194ETHOX   C126185  11.212   8.840   8.171  1.0243  0.3623 -0.6580
  194ETHOX  H1126186  11.235   8.891   8.075 -1.6913  0.8317 -1.1363
  194ETHOX  H1326187  11.108   8.859   8.203  0.8363  2.2171 -2.1588
  194ETHOX   C226188  11.251   8.686   8.168  0.3699 -1.0255  0.8583
  194ETHOX  H2126189  11.181   8.629   8.103  0.4743  0.4067 -0.5714
  194ETHOX  H2326190  11.253   8.650   8.273 -1.3666 -0.4078  1.1344
  195ETHOX   O126191  11.384   8.679   8.118  0.1489  0.1691  0.0373
  195ETHOX   C126192  11.415   8.541   8.093 -0.7843  0.1362  0.1282
  195ETHOX  H1126193  11.443   8.485   8.185 -0.1621 -0.8084 -0.6170
  195ETHOX  H1326194  11.328   8.488   8.049 -1.2313  1.1855 -0.2871
  195ETHOX   C226195  11.542   8.521   8.008 -0.1906 -0.2567 -0.4265
  195ETHOX  H2126196  11.559   8.411   8.011 -2.3601 -0.6104  2.0247
  195ETHOX  H2326197  11.626   8.579   8.052  0.0016 -1.5435  0.9651
  196ETHOX   O126198  11.539   8.559   7.868 -0.0667  0.3667  0.1040
  196ETHOX   C126199  11.577   8.699   7.850 -0.0816 -0.1059  0.5065
  196ETHOX  H1126200  11.506   8.764   7.907 -0.7425  0.9952 -1.5020
  196ETHOX  H1326201  11.684   8.714   7.876  0.8065 -1.8210 -1.8081
  196ETHOX   C226202  11.572   8.738   7.701 -0.6843  0.0762  0.7855
  196ETHOX  H2126203  11.578   8.847   7.681  0.8191 -0.2074 -0.5761
  196ETHOX  H2326204  11.482   8.690   7.656 -0.2018  0.0422 -0.1794
  197ETHOX   O126205  11.685   8.685   7.633 -0.0204 -0.3554 -0.0347
  197ETHOX   C126206  11.668   8.692   7.493  0.8217 -0.0280  0.3656
  197ETHOX  H1126207  11.603   8.605   7.470  0.2117  0.0539  1.7237
  197ETHOX  H1326208  11.615   8.782   7.454 -2.2372 -1.6004  0.6030
  197ETHOX   C226209  11.804   8.671   7.421 -0.1698  0.3407  0.6853
  197ETHOX  H2126210  11.770   8.673   7.315 -1.0602 -0.0519  0.9517
  197ETHOX  H2326211  11.847   8.571   7.445 -2.1716 -0.0245  3.1286
  198ETHOX   O126212  11.881   8.790   7.444 -0.5659  0.0438 -0.2066
  198ETHOX   C126213  11.959   8.826   7.330  0.3768 -0.1629  0.5959
  198ETHOX  H1126214  12.011   8.740   7.282  3.6839  0.8120  2.1357
  198ETHOX  H1326215  11.907   8.881   7.248  0.8423 -1.2381 -0.4557
  198ETHOX   C226216  12.071   8.920   7.371 -1.1684 -0.2653  0.6893
  198ETHOX  H2126217  12.032   8.997   7.441  1.0056  0.1414  1.5469
  198ETHOX  H2326218  12.113   8.972   7.282  1.1894 -0.2155  1.7398
  199ETHOX   O126219  12.167   8.852   7.446 -0.6039 -0.3152 -0.7746
  199ETHOX   C126220  12.299   8.903   7.428 -0.3710  0.6928 -0.3963
  199ETHOX  H1126221  12.311   8.930   7.321  0.6343 -0.8876 -0.7186
  199ETHOX  H1326222  12.371   8.824   7.458 -0.9339  0.2334 -0.2132
  199ETHOX   C226223  12.336   9.026   7.522 -0.6963  0.3006  0.0674
  199ETHOX  H2126224  12.340   8.986   7.626 -0.3823 -0.6922 -0.3146
  199ETHOX  H2326225  12.250   9.096   7.516 -0.5947  0.4242  0.0555
  200ETHOX   O126226  12.454   9.090   7.476  0.1144 -0.2784 -0.2314
  200ETHOX   C126227  12.571   9.060   7.541 -0.1046 -0.2149 -0.7421
  200ETHOX  H1126228  12.560   9.069   7.651 -0.7106  1.1988 -0.8992
  200ETHOX  H1326229  12.593   8.952   7.528 -1.7282 -0.6093 -0.4672
  200ETHOX   C226230  12.695   9.139   7.496 -0.4166  0.5376  0.0884
  200ETHOX  H2126231  12.706   9.113   7.388 -0.8100  1.3181 -0.1469
  200ETHOX  H2326232  12.780   9.094   7.552 -0.1203  1.5227  0.4591
  201ETHOX   O126233  12.679   9.282   7.515 -0.0687  0.0270  0.1355
  201ETHOX   C126234  12.795   9.348   7.458  0.0379 -0.4002  0.4370
  201ETHOX  H1126235  12.805   9.372   7.350  0.8806 -0.0844  0.5755
  201ETHOX  H1326236  12.887   9.297   7.492  1.9292  2.0147 -0.7462
  201ETHOX   C226237  12.784   9.488   7.518  0.1175  0.1652 -0.1329
  201ETHOX  H2126238  12.677   9.517   7.511  0.0264  0.7543  2.6509
  201ETHOX  H2326239  12.837   9.559   7.451  3.9642  0.1061  2.5304
  202ETHOX   O126240  12.837   9.486   7.648  0.7025 -0.2219  0.6021
  202ETHOX   C126241  12.829   9.611   7.709  0.0036  0.0161  0.4975
  202ETHOX  H1126242  12.857   9.689   7.634  2.1842 -0.5083  0.6851
  202ETHOX  H1326243  12.726   9.635   7.742  0.1770  1.9665 -0.2520
  202ETHOX   C226244  12.923   9.622   7.822 -0.6249 -0.5949 -0.3728
  202ETHOX  H2126245  12.921   9.539   7.896  0.0442 -0.3331 -0.0507
  202ETHOX  H2326246  12.914   9.716   7.880  2.7838  0.5924 -1.5473
  203ETHOX   O126247  13.059   9.629   7.770 -0.4152 -0.9332  0.5917
  203ETHOX   C126248  13.118   9.753   7.777 -0.0175 -0.2512 -0.6851
  203ETHOX  H1126249  13.090   9.806   7.870 -2.8165 -0.8433 -1.0982
  203ETHOX  H1326250  13.079   9.823   7.700  0.9159  1.1524  0.0782
  203ETHOX   C226251  13.276   9.747   7.764 -0.5636  0.1920 -0.6568
  203ETHOX  H2126252  13.316   9.833   7.706 -1.0032  0.0435 -1.1861
  203ETHOX  H2326253  13.303   9.661   7.699  1.2126  0.1443  0.0755
  204ETHOX   O126254  13.341   9.734   7.891 -0.0624 -0.8109 -0.1237
  204ETHOX   C126255  13.480   9.756   7.887  0.1474 -0.4399  0.2888
  204ETHOX  H1126256  13.528   9.702   7.803  0.2071  0.6896 -0.4189
  204ETHOX  H1326257  13.493   9.865   7.868  0.5557 -0.4336  0.5917
  204ETHOX   C226258  13.555   9.713   8.017  0.0603 -0.4880  0.6887
  204ETHOX  H2126259  13.664   9.732   8.014  0.1168 -0.6185  1.5463
  204ETHOX  H2326260  13.529   9.605   8.026 -3.0022  0.0614 -0.2162
  205ETHOX   O126261  13.500   9.778   8.125 -0.6911 -0.0967  0.0489
  205ETHOX   C126262  13.556   9.728   8.243 -0.2178 -0.8254 -0.6294
  205ETHOX  H1126263  13.666   9.731   8.257 -0.2483 -2.1694  0.0470
  205ETHOX  H1326264  13.539   9.619   8.229  0.9824 -0.9402 -1.3829
  205ETHOX   C226265  13.465   9.777   8.361  0.3459 -0.6047  0.0583
  205ETHOX  H2126266  13.496   9.741   8.461  2.2443  1.5226  0.3093
  205ETHOX  H2326267  13.363   9.751   8.326 -0.6539  0.9036  1.6649
  206ETHOX   O126268  13.457   9.924   8.367 -0.2288 -0.0769 -0.7558
  206ETHOX   C126269  13.577   9.988   8.426  0.9329 -0.1053  0.3258
  206ETHOX  H1126270  13.604   9.923   8.512 -1.2989  1.0805  2.0111
  206ETHOX  H1326271  13.658   9.989   8.350  0.9211 -1.4172  0.2782
  206ETHOX   C226272  13.535  10.130   8.465 -0.2228  0.5366 -0.5746
  206ETHOX  H2126273  13.443  10.120   8.526 -0.9031 -0.4686 -1.7288
  206ETHOX  H2326274  13.615  10.190   8.513 -2.4682  2.7062  0.7161
  207ETHOX   O126275  13.481  10.191   8.350  0.0633  0.1104 -0.1060
  207ETHOX   C126276  13.421  10.315   8.382 -0.3112  0.5947 -0.3628
  207ETHOX  H1126277  13.497  10.394   8.402  0.6551 -0.3358 -0.2566
  207ETHOX  H1326278  13.363  10.311   8.477  1.1895  1.4996  0.6253
  207ETHOX   C226279  13.333  10.349   8.264  0.0761  0.0264 -0.0588
  207ETHOX  H2126280  13.402  10.322   8.182  1.1788  3.1838 -0.2982
  207ETHOX  H2326281  13.313  10.458   8.272 -0.9706 -0.2733  2.7338
  208ETHOX   O126282  13.224  10.258   8.257  0.4191 -0.6646  0.0226
  208ETHOX   C126283  13.173  10.260   8.123  0.5730 -0.2598 -0.3602
  208ETHOX  H1126284  13.178  10.366   8.090  0.7654 -0.7511 -2.0055
  208ETHOX  H1326285  13.245  10.192   8.073  0.6749 -0.1324 -0.3895
  208ETHOX   C226286  13.032  10.195   8.126  0.0079 -0.3951  0.1974
  208ETHOX  H2126287  13.032  10.101   8.185  3.5364 -1.2963 -1.0042
  208ETHOX  H2326288  13.016  10.159   8.022  0.9003  0.1959 -0.1578
  209ETHOX   O126289  12.926  10.285   8.162 -0.3188  0.3548 -0.0597
  209ETHOX   C126290  12.802  10.218   8.182  0.1879  0.0675  0.2476
  209ETHOX  H1126291  12.819  10.124   8.240 -0.4777  0.8341  1.7385
  209ETHOX  H1326292  12.755  10.188   8.086 -0.8916  1.0411  0.4487
  209ETHOX   C226293  12.701  10.307   8.254 -0.0635 -0.0436  0.6807
  209ETHOX  H2126294  12.765  10.353   8.332  1.8585 -1.4349 -0.0055
  209ETHOX  H2326295  12.624  10.251   8.312  0.4499 -1.1308  0.3252
  210ETHOX   O126296  12.647  10.397   8.160  0.2709  0.0514  0.0646
  210ETHOX   C126297  12.576  10.497   8.231  0.5113 -0.1770  0.0721
  210ETHOX  H1126298  12.519  10.447   8.312  1.3570 -1.5152 -0.1333
  210ETHOX  H1326299  12.640  10.576   8.274  1.3564 -1.7285  1.7917
  210ETHOX   C226300  12.462  10.559   8.148  0.0114 -0.6751  0.7879
  210ETHOX  H2126301  12.497  10.591   8.047 -0.6987  1.3008  1.1148
  210ETHOX  H2326302  12.411  10.641   8.203 -1.3593  1.3824 -3.0966
  211ETHOX   O126303  12.355  10.462   8.139 -0.9316 -0.8067  0.0772
  211ETHOX   C126304  12.241  10.509   8.076  0.8122 -0.2510 -0.1934
  211ETHOX  H1126305  12.204  10.599   8.130 -0.5609 -1.6548  1.3396
  211ETHOX  H1326306  12.272  10.532   7.972  1.2503 -2.0188 -0.4752
  211ETHOX   C226307  12.132  10.404   8.076  0.2421  0.2336 -0.0909
  211ETHOX  H2126308  12.173  10.317   8.020 -0.9821 -0.4787  0.0723
  211ETHOX  H2326309  12.045  10.445   8.021 -1.5446 -0.8903  1.7281
  212ETHOX   O126310  12.096  10.367   8.207 -0.0922 -0.2961 -0.3364
  212ETHOX   C126311  11.992  10.269   8.207 -0.4275 -0.2589  0.5030
  212ETHOX  H1126312  11.900  10.300   8.152  0.1429  0.7450  0.0702
  212ETHOX  H1326313  12.025  10.173   8.161 -0.2890 -0.1055  0.2767
  212ETHOX   C226314  11.973  10.231   8.357 -0.0934  0.8327 -0.3638
  212ETHOX  H2126315  11.887  10.161   8.355 -0.2923  1.0064  1.2413
  212ETHOX  H2326316  11.949  10.330   8.400  3.7522  3.5270 -3.6235
  213ETHOX   O126317  12.090  10.167   8.415 -0.1374 -0.2718 -0.0515
  213ETHOX   C126318  12.070  10.157   8.557  0.3175  0.6010  0.0940
  213ETHOX  H1126319  12.024  10.253   8.591 -0.3838  0.6722 -1.0068
  213ETHOX  H1326320  11.991  10.083   8.579  0.4047  0.7952  1.0829
  213ETHOX   C226321  12.204  10.138   8.636 -0.1851  0.9333  0.0433
  213ETHOX  H2126322  12.266  10.068   8.577 -1.9498  0.5213 -1.4175
  213ETHOX  H2326323  12.170  10.097   8.734  0.0586  0.7234  0.0424
  214ETHOX   O126324  12.266  10.266   8.647  0.4990  0.6785 -0.0549
  214ETHOX   C126325  12.397  10.258   8.710 -0.5416 -0.1054 -0.1363
  214ETHOX  H1126326  12.471  10.235   8.630 -1.7120 -2.5445 -0.6091
  214ETHOX  H1326327  12.403  10.186   8.794  0.4276  0.3016  0.1551
  214ETHOX   C226328  12.443  10.395   8.760  1.3178 -0.4684 -0.4158
  214ETHOX  H2126329  12.376  10.417   8.846 -2.5023 -0.5703 -3.1263
  214ETHOX  H2326330  12.423  10.464   8.676 -0.5130 -0.6953 -0.2010
  215ETHOX   O126331  12.581  10.400   8.792 -0.1742  0.3603 -0.0009
  215ETHOX   C126332  12.626  10.536   8.799 -0.1210  0.5373 -0.7140
  215ETHOX  H1126333  12.635  10.567   8.693 -0.1226  2.4383 -0.1870
  215ETHOX  H1326334  12.555  10.602   8.853  0.9269 -0.1646  1.7094
  215ETHOX   C226335  12.766  10.562   8.848 -0.7695  0.4514 -0.1471
  215ETHOX  H2126336  12.794  10.656   8.795  1.2847 -0.5417 -0.9390
  215ETHOX  H2326337  12.831  10.480   8.813 -2.7778 -1.0920 -0.4434
  216ETHOX   O126338  12.765  10.585   8.985  0.1036  0.1869  0.1865
  216ETHOX   C126339  12.848  10.489   9.062  0.3011 -0.7211  0.4357
  216ETHOX  H1126340  12.857  10.520   9.168 -0.1328 -0.5198  0.4173
  216ETHOX  H1326341  12.949  10.472   9.019  0.6057 -1.9842  1.5913
  216ETHOX   C226342  12.783  10.349   9.056  0.3725 -0.4952  0.2682
  216ETHOX  H2126343  12.781  10.319   8.949  0.3324 -0.1286  0.1638
  216ETHOX  H2326344  12.677  10.365   9.084  0.9572 -0.2581  2.5119
  217ETHOX   O126345  12.851  10.261   9.140 -0.0383  0.0398 -0.0192
  217ETHOX   C126346  12.824  10.127   9.092  0.2866  0.8236 -0.1134
  217ETHOX  H1126347  12.715  10.104   9.097  0.4667  0.0310  0.3013
  217ETHOX  H1326348  12.867  10.101   8.993 -0.6825 -1.0167 -0.0884
  217ETHOX   C226349  12.905  10.036   9.190  0.0062  0.0189  0.2667
  217ETHOX  H2126350  12.873   9.933   9.163 -2.6465  0.0380  2.8317
  217ETHOX  H2326351  12.865  10.063   9.290 -2.4816 -1.1620 -0.3253
  218ETHOX   O126352  13.044  10.056   9.168  0.3092 -0.3138 -0.0551
  218ETHOX   C126353  13.122   9.985   9.263  0.0814  0.3886  0.0481
  218ETHOX  H1126354  13.090   9.879   9.268 -0.5811  0.6432  2.0874
  218ETHOX  H1326355  13.118  10.019   9.368  2.4491 -0.5324  0.4861
  218ETHOX   C226356  13.275   9.987   9.226  0.8779  0.6113  0.2127
  218ETHOX  H2126357  13.285   9.990   9.115  2.5980  0.3619  0.3284
  218ETHOX  H2326358  13.322   9.901   9.278 -1.1260  0.3450  1.6972
  219ETHOX   O126359  13.336  10.105   9.277 -0.0327 -0.2426  0.5044
  219ETHOX   C126360  13.469  10.121   9.236 -0.2387 -0.1215  0.4567
  219ETHOX  H1126361  13.455  10.105   9.127 -2.1629 -0.4851  0.7178
  219ETHOX  H1326362  13.504  10.225   9.253 -1.3242  0.0511  1.7151
  219ETHOX   C226363  13.583  10.026   9.284  0.4364 -0.4992  0.7190
  219ETHOX  H2126364  13.581  10.007   9.393  3.0617  0.4760  1.0213
  219ETHOX  H2326365  13.674  10.085   9.258 -0.4267  0.4035 -0.3797
  220ETHOX   O126366  13.580   9.898   9.221  0.2586  0.6742  0.1071
  220ETHOX   C126367  13.696   9.818   9.247 -1.0795 -0.3989  1.0260
  220ETHOX  H1126368  13.720   9.829   9.355 -1.5514  1.7285  0.9650
  220ETHOX  H1326369  13.788   9.860   9.200 -0.9127 -2.0849 -0.2414
  220ETHOX   C226370  13.676   9.672   9.197 -0.4870  0.2357  0.0379
  220ETHOX  H2126371  13.779   9.638   9.176 -0.3931  0.1782  0.5690
  220ETHOX  H2326372  13.612   9.677   9.106 -1.3191  0.5786  0.6246
  221ETHOX   O126373  13.624   9.582   9.288 -0.3984 -0.6391 -0.7546
  221ETHOX   C126374  13.495   9.612   9.327  0.3657 -0.0030 -0.2635
  221ETHOX  H1126375  13.495   9.705   9.388 -0.4600 -0.5737  0.6290
  221ETHOX  H1326376  13.427   9.643   9.245 -2.2794  1.6457  2.3534
  221ETHOX   C226377  13.435   9.508   9.415  0.8215 -0.1617  0.0690
  221ETHOX  H2126378  13.339   9.551   9.453  0.0808  0.1231 -2.0011
  221ETHOX  H2326379  13.513   9.496   9.493  3.7295  3.8500 -1.8301
  222ETHOX   O126380  13.411   9.384   9.343  0.5638  0.4285 -0.2878
  222ETHOX   C126381  13.308   9.307   9.405  0.1401 -0.3750  0.0624
  222ETHOX  H1126382  13.333   9.281   9.510  3.0964 -0.9312 -0.6847
  222ETHOX  H1326383  13.211   9.362   9.404 -0.7010 -1.7665  1.4745
  222ETHOX   C226384  13.269   9.177   9.331 -0.3707 -0.1566 -0.3011
  222ETHOX  H2126385  13.260   9.188   9.221  0.9324 -0.0969 -0.4115
  222ETHOX  H2326386  13.172   9.148   9.376 -0.3889  1.6883  0.9774
  223ETHOX   O126387  13.371   9.077   9.366  0.2041 -0.2499 -0.2387
  223ETHOX   C126388  13.351   8.968   9.281 -0.4760  0.4376  0.3511
  223ETHOX  H1126389  13.399   8.984   9.183  0.2306  1.8381  0.8995
  223ETHOX  H1326390  13.420   8.891   9.321  2.2076  1.6959 -1.5720
  223ETHOX   C226391  13.215   8.893   9.275  0.0848  0.0092 -0.2760
  223ETHOX  H2126392  13.151   8.892   9.366 -0.6749  0.2557 -0.8000
  223ETHOX  H2326393  13.233   8.785   9.255 -1.6173 -1.1202  3.3976
  224ETHOX   O126394  13.130   8.966   9.184  0.5281  0.4293  0.6036
  224ETHOX   C126395  13.130   8.915   9.050 -0.0692 -0.4101 -0.5383
  224ETHOX  H1126396  13.099   8.997   8.982 -1.1701  0.1328  0.5710
  224ETHOX  H1326397  13.233   8.900   9.011  0.8686  1.3002  1.0986
  224ETHOX   C226398  13.032   8.794   9.025 -0.0232  0.5438  0.3080
  224ETHOX  H2126399  13.052   8.712   9.098 -0.5901  0.6114  0.5481
  224ETHOX  H2326400  13.043   8.754   8.922 -3.3063 -0.3661  0.2133
  225ETHOX   O126401  12.906   8.838   9.038 -0.0585  0.0700 -0.2161
  225ETHOX   C126402  12.810   8.737   9.032 -0.3662 -0.0973 -0.2520
  225ETHOX  H1126403  12.863   8.640   9.019  0.7904  0.3289  1.0304
  225ETHOX  H1326404  12.752   8.747   8.938 -1.5514  0.1509  0.4997
  225ETHOX   C226405  12.715   8.736   9.151 -0.6599 -0.5797 -0.3900
  225ETHOX  H2126406  12.654   8.829   9.149  1.0033  0.5839  0.5740
  225ETHOX  H2326407  12.765   8.736   9.250 -0.0156 -0.0887 -0.7060
  226ETHOX   O126408  12.623   8.624   9.143  0.2135 -0.2045  0.4615
  226ETHOX   C126409  12.521   8.649   9.046  0.0410  0.4033 -0.2817
  226ETHOX  H1126410  12.485   8.752   9.069 -0.2238  0.8686 -2.5883
  226ETHOX  H1326411  12.559   8.652   8.942  1.6042 -0.3761  0.2300
  226ETHOX   C226412  12.403   8.561   9.060  0.0472  0.0462 -0.0697
  226ETHOX  H2126413  12.317   8.615   9.015  0.0351  1.9084  2.0645
  226ETHOX  H2326414  12.384   8.548   9.168  1.1297  0.3301  0.1653
  227ETHOX   O126415  12.432   8.442   8.988  0.5071  0.0013 -0.1469
  227ETHOX   C126416  12.393   8.440   8.847 -0.1089  0.1745 -0.1482
  227ETHOX  H1126417  12.486   8.475   8.796  0.6258 -0.6121  0.6163
  227ETHOX  H1326418  12.305   8.505   8.828  0.5707  1.3079  0.4559
  227ETHOX   C226419  12.360   8.299   8.818 -0.0143 -0.0093 -0.1584
  227ETHOX  H2126420  12.454   8.241   8.824 -1.0756 -1.6401  2.3493
  227ETHOX  H2326421  12.316   8.293   8.716 -2.9365  0.0339  1.0184
  228ETHOX   O126422  12.277   8.244   8.918 -0.1831  0.3329 -0.6873
  228ETHOX   C126423  12.281   8.103   8.913 -0.1358 -0.1030 -0.5936
  228ETHOX  H1126424  12.223   8.078   8.822  1.2095  1.9557 -2.1018
  228ETHOX  H1326425  12.384   8.064   8.902 -0.3686 -0.6274 -0.9526
  228ETHOX   C226426  12.203   8.037   9.034  0.9255  0.0257  0.2051
  228ETHOX  H2126427  12.164   7.936   9.008 -0.4158  0.8101 -0.9529
  228ETHOX  H2326428  12.120   8.108   9.055  1.0855  0.6861 -1.2702
  229ETHOX   O126429  12.292   8.031   9.144  0.4583  0.5703  0.2733
  229ETHOX   C126430  12.215   7.996   9.260  0.7022  0.0443 -0.4513
  229ETHOX  H1126431  12.164   7.902   9.229  1.0046 -0.3878  0.3337
  229ETHOX  H1326432  12.151   8.086   9.277 -1.1443 -1.4185  0.7877
  229ETHOX   C226433  12.297   7.985   9.387  0.5965  0.2486 -0.3961
  229ETHOX  H2126434  12.229   7.972   9.474  0.9674 -0.8628 -0.2593
  229ETHOX  H2326435  12.368   8.068   9.404 -0.2334  0.4937  2.2137
  230ETHOX   O126436  12.374   7.870   9.389 -0.0347 -0.0603  0.8427
  230ETHOX   C126437  12.467   7.876   9.499 -0.1697  0.4707 -0.0789
  230ETHOX  H1126438  12.557   7.931   9.462  1.0543 -1.5581 -0.2324
  230ETHOX  H1326439  12.408   7.928   9.578 -0.7812  1.3074 -1.0490
  230ETHOX   C226440  12.511   7.741   9.548  0.3157  0.5612  0.0838
  230ETHOX  H2126441  12.429   7.669   9.570  1.0132 -0.2680  0.0725
  230ETHOX  H2326442  12.567   7.746   9.643  2.0682 -3.5233 -0.4958
  231ETHOX   O126443  12.604   7.682   9.460 -0.2729  0.2230  0.2541
  231ETHOX   C126444  12.623   7.548   9.487 -0.7301  0.1472 -0.8369
  231ETHOX  H1126445  12.529   7.496   9.514 -0.5013  1.2323  2.5404
  231ETHOX  H1326446  12.688   7.547   9.577 -0.1150 -2.7782 -1.2364
  231ETHOX   C226447  12.695   7.478   9.377  0.0489  0.0421  0.0130
  231ETHOX  H2126448  12.719   7.375   9.408  2.2060 -0.2343 -2.2848
  231ETHOX  H2326449  12.792   7.530   9.364  0.1816 -0.2758 -0.2660
  232ETHOX   O126450  12.623   7.472   9.246  0.4210  0.1159 -0.0504
  232ETHOX   C126451  12.679   7.380   9.147 -0.0184 -0.4364  0.0929
  232ETHOX  H1126452  12.787   7.362   9.164 -0.1965 -1.0130  0.6713
  232ETHOX  H1326453  12.634   7.280   9.162  1.6085 -1.4566 -1.4412
  232ETHOX   C226454  12.664   7.420   8.998  0.0866 -0.4581  0.2385
  232ETHOX  H2126455  12.559   7.453   8.983  0.5212  0.8144 -0.1551
  232ETHOX  H2326456  12.684   7.338   8.926  2.8851 -1.2309  1.7306
  233ETHOX   O126457  12.756   7.529   8.975  0.5941  0.3830 -0.4323
  233ETHOX   C126458  12.790   7.528   8.835 -0.2015 -0.1830  0.9031
  233ETHOX  H1126459  12.835   7.429   8.813 -1.3917 -1.2693  2.9506
  233ETHOX  H1326460  12.700   7.547   8.772 -0.8730  2.4422  2.4654
  233ETHOX   C226461  12.891   7.629   8.801 -0.2648 -0.1061 -0.3234
  233ETHOX  H2126462  12.941   7.605   8.705 -1.5999 -2.0030 -0.6008
  233ETHOX  H2326463  12.963   7.636   8.886 -1.0803  0.2542  0.3516
  234ETHOX   O126464  12.828   7.763   8.783  0.1265  0.0030 -0.2812
  234ETHOX   C126465  12.915   7.874   8.772 -0.1095  0.1975  0.4354
  234ETHOX  H1126466  12.971   7.876   8.868  0.0809  0.8856  0.3127
  234ETHOX  H1326467  12.976   7.860   8.680 -2.2205  2.5722 -1.4725
  234ETHOX   C226468  12.841   8.012   8.753  0.5647 -0.8908 -0.2631
  234ETHOX  H2126469  12.925   8.084   8.739 -1.3329  1.7254  1.0530
  234ETHOX  H2326470  12.767   8.036   8.832  1.4302  1.2875 -0.0401
  235ETHOX   O126471  12.770   8.008   8.623 -0.5202 -0.0233  0.7101
  235ETHOX   C126472  12.659   8.097   8.626 -0.1979  0.1663  0.2130
  235ETHOX  H1126473  12.582   8.068   8.700 -1.1519 -0.4114 -0.9645
  235ETHOX  H1326474  12.703   8.198   8.638  0.8827  0.0208 -1.9357
  235ETHOX   C226475  12.564   8.092   8.496 -0.1585 -0.3457 -0.3055
  235ETHOX  H2126476  12.517   7.992   8.491 -0.7668 -0.0119 -3.0785
  235ETHOX  H2326477  12.610   8.115   8.397  0.3119  1.1193  0.2212
  236ETHOX   O126478  12.454   8.184   8.509 -0.1091  0.1426 -1.0056
  236ETHOX   C126479  12.480   8.314   8.450  0.7388  0.7320  0.1371
  236ETHOX  H1126480  12.543   8.312   8.358  1.0010  0.3751  0.3167
  236ETHOX  H1326481  12.534   8.363   8.533  0.0702  1.2662  0.2591
  236ETHOX   C226482  12.348   8.386   8.418 -0.4549 -0.3516 -0.5274
  236ETHOX  H2126483  12.288   8.318   8.354  0.2597 -0.2949 -1.2752
  236ETHOX  H2326484  12.376   8.478   8.363  1.2956 -1.2240 -1.1586
  237ETHOX   O126485  12.268   8.417   8.532 -0.0773 -0.1249  0.0947
  237ETHOX   C126486  12.145   8.480   8.495  0.0505 -0.8520 -0.0278
  237ETHOX  H1126487  12.173   8.553   8.416 -0.8503 -1.6768 -1.1479
  237ETHOX  H1326488  12.073   8.406   8.453 -1.2736  0.6732 -0.5639
  237ETHOX   C226489  12.080   8.544   8.621  0.6616 -0.5369 -0.2044
  237ETHOX  H2126490  12.063   8.475   8.707 -0.9299 -0.0193 -0.0785
  237ETHOX  H2326491  11.979   8.583   8.597 -0.2344 -2.5806  0.0197
  238ETHOX   O126492  12.160   8.650   8.675  0.1324  0.1938  0.1449
  238ETHOX   C126493  12.102   8.689   8.795  0.4190  0.0085  0.0722
  238ETHOX  H1126494  12.109   8.619   8.881 -1.8215  1.5852  1.6580
  238ETHOX  H1326495  11.994   8.708   8.778  1.1710  4.2783 -1.2414
  238ETHOX   C226496  12.155   8.832   8.829  0.0513  0.0357 -0.2427
  238ETHOX  H2126497  12.070   8.873   8.889 -0.3972  0.4259 -1.1252
  238ETHOX  H2326498  12.172   8.882   8.731  1.5027 -1.4449 -0.7917
  239ETHOX   O126499  12.279   8.817   8.898 -0.3293 -0.1335 -0.3351
  239ETHOX   C126500  12.323   8.950   8.932  0.6259 -0.4335 -0.0929
  239ETHOX  H1126501  12.433   8.945   8.946  0.5098 -1.3487  0.6219
  239ETHOX  H1326502  12.319   9.018   8.845  0.6740  2.7389  2.1861
  239ETHOX   C226503  12.256   9.002   9.071 -0.2491 -0.1180 -0.6615
  239ETHOX  H2126504  12.296   9.102   9.097  0.7202 -1.2845  2.7782
  239ETHOX  H2326505  12.145   9.002   9.078 -0.2664  0.4634 -0.8286
  240ETHOX   O126506  12.296   8.914   9.171 -0.0527  0.7904 -0.0325
  240ETHOX   C126507  12.401   8.971   9.253  0.0456  0.3292 -0.5157
  240ETHOX  H1126508  12.365   9.069   9.291 -0.8260 -0.6745  1.3987
  240ETHOX  H1326509  12.493   8.992   9.195  0.6763  1.3032  0.7926
  240ETHOX   C226510  12.443   8.870   9.369 -0.4093 -0.0532  0.0915
  240ETHOX  H2126511  12.521   8.911   9.436 -0.5797 -0.4779  0.5627
  240ETHOX  H2326512  12.483   8.775   9.326  0.7493  0.2981  0.3639
  241ETHOX   O126513  12.327   8.842   9.445  0.1324  0.2563 -0.2093
  241ETHOX   C126514  12.366   8.748   9.544  0.6490  0.2764 -0.2143
  241ETHOX  H1126515  12.423   8.663   9.502  1.2036 -0.0645  1.1606
  241ETHOX  H1326516  12.431   8.798   9.619  0.7957 -1.0811  0.6087
  241ETHOX   C226517  12.244   8.688   9.611  0.1551 -0.2782 -0.4044
  241ETHOX  H2126518  12.171   8.769   9.630 -0.6148 -1.1240  0.3988
  241ETHOX  H2326519  12.274   8.637   9.705  1.4337 -1.6239 -1.4847
  242ETHOX   O126520  12.177   8.591   9.536 -0.0583 -0.2010  0.4434
  242ETHOX   C126521  12.229   8.460   9.543  0.5469 -0.8942  0.4248
  242ETHOX  H1126522  12.337   8.447   9.564  0.9985 -2.2285 -2.2224
  242ETHOX  H1326523  12.222   8.418   9.440  0.6256  0.0554  0.0179
  242ETHOX   C226524  12.143   8.366   9.631 -0.4797 -0.3251 -0.4906
  242ETHOX  H2126525  12.164   8.265   9.591 -1.5270 -0.7777  0.0468
  242ETHOX  H2326526  12.034   8.390   9.627 -0.7226 -0.8237  1.8046
  243ETHOX   O126527  12.186   8.381   9.763 -0.4228 -0.8477 -0.0259
  243ETHOX   C126528  12.147   8.271   9.843 -0.3797 -0.3383  0.2605
  243ETHOX  H1126529  12.176   8.174   9.798  5.1214  1.4361 -0.7541
  243ETHOX  H1326530  12.223   8.270   9.923  0.0552 -2.9814 -0.0936
  243ETHOX   C226531  12.002   8.278   9.906  0.1318 -0.2451 -0.6178
  243ETHOX  H2126532  11.976   8.377   9.951 -3.0270 -0.1815 -2.2539
  243ETHOX  H2326533  12.001   8.203   9.987  0.1941 -0.1171 -0.4972
  244ETHOX   O126534  11.905   8.242   9.812 -0.4509  0.6976 -0.3293
  244ETHOX   C126535  11.787   8.280   9.864 -0.1744  0.6904 -0.4818
  244ETHOX  H1126536  11.780   8.382   9.907 -1.3903  1.2430 -1.8912
  244ETHOX  H1326537  11.781   8.215   9.953 -0.3376 -0.3001 -1.1908
  244ETHOX   C226538  11.670   8.281   9.767 -0.1816 -0.4628  0.1354
  244ETHOX  H2126539  11.712   8.344   9.685  0.1562 -0.0304  0.6325
  244ETHOX  H2326540  11.572   8.321   9.799 -0.6128 -1.8929  0.6427
  245ETHOX   O126541  11.641   8.149   9.722 -0.6110  0.4163  0.0667
  245ETHOX   C126542  11.573   8.145   9.606  0.5116  0.0437  0.2747
  245ETHOX  H1126543  11.616   8.218   9.534  0.3001 -0.1906 -0.0966
  245ETHOX  H1326544  11.590   8.048   9.553  0.3952 -0.2354  0.7466
  245ETHOX   C226545  11.418   8.159   9.630 -0.7681  0.0723  0.2927
  245ETHOX  H2126546  11.370   8.154   9.530  0.3458  1.5935 -0.3657
  245ETHOX  H2326547  11.398   8.256   9.681 -1.6116  0.5668 -0.9047
  246ETHOX   O126548  11.376   8.054   9.708 -0.1656 -0.2528 -0.1428
  246ETHOX   C126549  11.230   8.056   9.735  0.3910  0.2770  0.3282
  246ETHOX  H1126550  11.178   8.027   9.641  0.2303  0.8118  0.2528
  246ETHOX  H1326551  11.211   8.162   9.761  1.7903  0.5706  0.2343
  246ETHOX   C226552  11.199   7.966   9.854 -0.2868 -0.4701 -0.1712
  246ETHOX  H2126553  11.249   7.869   9.834  0.0476 -0.4177  0.3982
  246ETHOX  H2326554  11.088   7.958   9.849 -0.3775 -0.0155 -6.3204
  247ETHOX   O126555  11.228   8.012   9.987  0.0835  0.5384  0.0892
  247ETHOX   C126556  11.203   7.914  10.090 -0.2871  0.1725 -0.2031
  247ETHOX  H1126557  11.093   7.896  10.093 -0.4795  1.2865  0.2326
  247ETHOX  H1326558  11.262   7.821  10.082  0.8496  0.6763  1.6217
  247ETHOX   C226559  11.226   7.980  10.224 -0.3631  0.4886 -0.8554
  247ETHOX  H2126560  11.191   8.085  10.217 -2.2718  0.0301  0.8677
  247ETHOX  H2326561  11.162   7.922  10.293  1.3042  1.7952  1.9951
  248ETHOX   O126562  11.363   7.973  10.255 -0.6342 -0.1202  0.7195
  248ETHOX   C126563  11.378   8.006  10.392  0.3151 -0.1456 -0.3168
  248ETHOX  H1126564  11.290   7.964  10.444 -0.5715  0.7437 -1.0580
  248ETHOX  H1326565  11.475   7.965  10.428  0.1848  0.9909  1.4224
  248ETHOX   C226566  11.373   8.161  10.413 -0.3097 -0.5039 -0.4691
  248ETHOX  H2126567  11.403   8.218  10.323 -3.2640  0.6584 -0.8196
  248ETHOX  H2326568  11.444   8.181  10.496 -0.5767 -1.9392  0.1395
  249ETHOX   O126569  11.237   8.201  10.433 -0.7972  0.0411  0.2144
  249ETHOX   C126570  11.228   8.347  10.438 -0.3167  0.7282  0.8015
  249ETHOX  H1126571  11.310   8.389  10.500 -0.1075  0.6007  0.6120
  249ETHOX  H1326572  11.254   8.381  10.336  1.0732  2.0573  1.5526
  249ETHOX   C226573  11.090   8.398  10.476  0.5791  0.5306  0.4593
  249ETHOX  H2126574  11.009   8.359  10.411  1.4375  0.3549 -0.5491
  249ETHOX  H2326575  11.101   8.508  10.465  0.5548  0.3284 -2.3044
  250ETHOX   O126576  11.048   8.381  10.607 -0.0497  0.8701 -0.7932
  250ETHOX   C126577  10.911   8.396  10.636  0.1875 -0.5381 -0.4302
  250ETHOX  H1126578  10.873   8.477  10.570  0.5100 -0.3312 -0.3620
  250ETHOX  H1326579  10.868   8.298  10.605  0.1887 -1.0856  1.1916
  250ETHOX   C226580  10.868   8.419  10.789  0.6172  0.7038 -0.5227
  250ETHOX  H2126581  10.769   8.468  10.796 -0.5383 -1.4170 -1.0191
  250ETHOX  H2326582  10.941   8.476  10.850  1.3676  0.9810 -1.6476
  251ETHOX   O126583  10.847   8.295  10.858  0.8503  0.2613  0.3943
  251ETHOX   C126584  10.964   8.244  10.923  0.0343  0.2224  0.6396
  251ETHOX  H1126585  11.003   8.323  10.989  0.6290  2.2845 -2.0202
  251ETHOX  H1326586  11.040   8.212  10.848 -0.4902 -2.7789  1.2403
  251ETHOX   C226587  10.932   8.119  11.001 -0.3271  0.0085 -0.3190
  251ETHOX  H2126588  10.850   8.136  11.075 -0.5099  0.2857 -0.5849
  251ETHOX  H2326589  11.026   8.104  11.060  0.4422 -0.3462 -1.6031
  252ETHOX   O126590  10.913   8.001  10.924 -0.4011  0.0672  0.2565
  252ETHOX   C126591  10.956   7.897  11.006  0.3331  0.3220 -0.5737
  252ETHOX  H1126592  11.067   7.893  10.996  0.2922 -2.0573 -0.5238
  252ETHOX  H1326593  10.937   7.910  11.114  1.5086 -1.5310 -0.1065
  252ETHOX   C226594  10.906   7.759  10.964 -0.3922 -0.1047 -0.1698
  252ETHOX  H2126595  10.974   7.680  11.003  1.2324  0.1740 -2.2667
  252ETHOX  H2326596  10.914   7.746  10.854  1.2406  1.2370 -0.2458
  253ETHOX   O126597  10.773   7.740  11.021 -0.1111  0.4167 -0.0604
  253ETHOX   C126598  10.689   7.661  10.934  0.4307 -0.4888 -0.0245
  253ETHOX  H1126599  10.750   7.568  10.920  0.8060 -0.2491  0.0093
  253ETHOX  H1326600  10.681   7.712  10.836 -0.7053 -1.5853 -0.5334
  253ETHOX   C226601  10.548   7.630  10.988 -0.5252  0.1361 -0.2055
  253ETHOX  H2126602  10.478   7.716  10.988 -1.3152 -0.4922 -1.2992
  253ETHOX  H2326603  10.563   7.602  11.095  1.6290  0.0553 -0.4711
  254ETHOX   O126604  10.494   7.513  10.924  0.3097 -0.0491 -0.5287
  254ETHOX   C126605  10.433   7.553  10.801  0.0284  0.0497 -0.2298
  254ETHOX  H1126606  10.351   7.628  10.810  0.4688  0.7030 -1.4279
  254ETHOX  H1326607  10.502   7.608  10.733  0.6194  1.0877  1.1493
  254ETHOX   C226608  10.380   7.429  10.734 -0.2225 -0.1931  0.3973
  254ETHOX  H2126609  10.464   7.357  10.743 -0.9530 -1.7287 -3.0444
  254ETHOX  H2326610  10.365   7.455  10.627 -0.1971 -1.6068  0.0273
  255ETHOX   O126611  10.268   7.367  10.792 -0.1978  0.7274  0.6076
  255ETHOX   C126612  10.228   7.244  10.726 -0.1731  0.0860  0.3875
  255ETHOX  H1126613  10.305   7.164  10.729 -0.0880  0.1744  0.5847
  255ETHOX  H1326614  10.217   7.244  10.616  1.4112 -2.0387  0.1744
  255ETHOX   C226615  10.107   7.171  10.793 -0.8464  0.0175 -0.7500
  255ETHOX  H2126616  10.117   7.188  10.903  1.6122  0.1754 -0.9266
  255ETHOX  H2326617  10.096   7.065  10.761 -0.0743 -0.7471  1.3267
  256ETHOX   O126618   9.986   7.234  10.751 -0.1578  0.2436  0.1131
  256ETHOX   C126619   9.934   7.331  10.846 -0.0705  0.7666 -0.0592
  256ETHOX  H1126620   9.906   7.273  10.937 -1.6647 -1.4120 -1.8164
  256ETHOX  H1326621  10.021   7.389  10.884 -0.0455 -0.7957  2.5414
  256ETHOX   C226622   9.823   7.430  10.800 -0.4959 -0.6349 -0.5903
  256ETHOX  H2126623   9.852   7.489  10.711 -2.2005  2.1541  0.5729
  256ETHOX  H2326624   9.818   7.512  10.874  1.6064  0.6270 -1.7504
  257ETHOX   O126625   9.698   7.364  10.805 -0.6465  0.5499  0.5090
  257ETHOX   C126626   9.639   7.356  10.673  0.2876  0.1257 -0.0016
  257ETHOX  H1126627   9.682   7.265  10.626 -2.9211 -1.3775 -0.2544
  257ETHOX  H1326628   9.665   7.447  10.614 -2.0526 -0.2820 -1.8154
  257ETHOX   C226629   9.482   7.347  10.672  0.4525  0.5530 -0.5025
  257ETHOX  H2126630   9.442   7.330  10.570  1.7555  0.5033 -1.0298
  257ETHOX  H2326631   9.438   7.445  10.700  1.0571  0.9317 -0.8564
  258ETHOX   O126632   9.439   7.239  10.763 -0.4810 -0.4204  0.9994
  258ETHOX   C126633   9.304   7.195  10.730 -0.5540  0.3291 -0.3456
  258ETHOX  H1126634   9.247   7.290  10.726  0.6149  1.2917  2.7097
  258ETHOX  H1326635   9.290   7.150  10.629  0.4361 -1.1504  0.1337
  258ETHOX   C226636   9.244   7.095  10.837  0.2098  0.3078  0.2145
  258ETHOX  H2126637   9.320   7.015  10.840  0.6123  0.7152  1.4625
  258ETHOX  H2326638   9.146   7.057  10.800 -1.9388  2.5997  2.9900
  259ETHOX   O126639   9.226   7.147  10.967 -0.1068 -0.8299 -0.0392
  259ETHOX   C126640   9.124   7.255  10.973 -0.1468 -0.3784  0.2862
  259ETHOX  H1126641   9.172   7.351  10.943 -4.1677  1.2968 -1.4106
  259ETHOX  H1326642   9.047   7.244  10.894 -0.5281 -0.5867  0.6788
  259ETHOX   C226643   9.066   7.299  11.113 -0.1778  0.6597  0.5472
  259ETHOX  H2126644   9.015   7.209  11.154  2.9908 -1.3245  0.4895
  259ETHOX  H2326645   8.985   7.371  11.090  2.0850  2.5247 -2.2381
  260ETHOX   O126646   9.161   7.355  11.196 -0.4026 -1.1817  0.3468
  260ETHOX   C126647   9.109   7.377  11.329 -0.1083 -0.2122  0.1074
  260ETHOX  H1126648   9.009   7.421  11.308 -0.2350 -1.7979 -3.3388
  260ETHOX  H1326649   9.096   7.287  11.392 -0.9694  0.1849  0.5135
  260ETHOX   C226650   9.187   7.489  11.408  1.5654 -0.2229  0.0547
  260ETHOX  H2126651   9.131   7.517  11.500  0.7919 -0.4272 -0.3408
  260ETHOX  H2326652   9.178   7.577  11.341  1.7545 -0.7993 -0.7451
  261ETHOX   O126653   9.317   7.471  11.446 -0.0458  0.1602  0.3037
  261ETHOX   C126654   9.411   7.490  11.335  0.1154  0.0841  0.0806
  261ETHOX  H1126655   9.504   7.434  11.359  0.5360  0.3677 -0.8894
  261ETHOX  H1326656   9.381   7.432  11.246  0.5429 -0.0824  0.0436
  261ETHOX   C226657   9.445   7.635  11.312  0.0734  0.5512  0.1062
  261ETHOX  H2126658   9.354   7.698  11.312 -0.6457 -0.4521  0.9339
  261ETHOX  H2326659   9.483   7.648  11.209 -1.0634  2.7965 -0.0646
  262ETHOX   O126660   9.533   7.694  11.405 -0.1613 -0.5805  0.3547
  262ETHOX   C126661   9.561   7.823  11.363  0.2596  0.2885 -0.2635
  262ETHOX  H1126662   9.531   7.885  11.450  1.4220 -0.1185  0.4393
  262ETHOX  H1326663   9.497   7.851  11.276 -1.7576 -0.5413  0.8752
  262ETHOX   C226664   9.710   7.846  11.336  0.0231  0.0782 -0.5039
  262ETHOX  H2126665   9.717   7.944  11.284  0.0241  0.7125  0.6584
  262ETHOX  H2326666   9.744   7.759  11.275 -2.2897 -1.3676  0.1135
  263ETHOX   O126667   9.794   7.854  11.451  0.0525  0.3093  0.5815
  263ETHOX   C126668   9.926   7.860  11.417 -0.1254 -0.1428 -0.3580
  263ETHOX  H1126669   9.947   7.937  11.340 -1.1837 -1.9402 -2.5665
  263ETHOX  H1326670   9.967   7.765  11.377  2.5372  0.0751  1.5570
  263ETHOX   C226671  10.020   7.875  11.545  0.3539 -0.9413  0.2809
  263ETHOX  H2126672   9.997   7.964  11.607 -0.2671 -2.4316  2.2784
  263ETHOX  H2326673  10.125   7.886  11.509 -0.5680 -0.1092 -2.3713
  264ETHOX   O126674  10.026   7.765  11.627  0.1230  0.5893 -0.2019
  264ETHOX   C126675  10.080   7.788  11.756 -0.0730  0.1412 -0.2375
  264ETHOX  H1126676  10.021   7.855  11.822  1.0472  1.3997 -0.4679
  264ETHOX  H1326677  10.185   7.822  11.747 -0.1343  0.1942 -0.7427
  264ETHOX   C226678  10.085   7.654  11.835  0.7899  0.0748 -0.2112
  264ETHOX  H2126679  10.149   7.660  11.926 -0.8063  0.6334  0.9074
  264ETHOX  H2326680  10.107   7.572  11.763 -2.9042 -0.8233 -0.5185
  265ETHOX   O126681   9.951   7.625  11.859 -0.1766 -0.1408 -0.0408
  265ETHOX   C126682   9.931   7.504  11.932  0.1295 -0.0504  0.2877
  265ETHOX  H1126683   9.999   7.427  11.890  0.0556  0.4958 -0.8914
  265ETHOX  H1326684   9.966   7.519  12.036  0.3614  0.1488  0.1811
  265ETHOX   C226685   9.787   7.456  11.927  0.0633  0.4109 -0.5513
  265ETHOX  H2126686   9.713   7.539  11.923  1.2973  1.5606 -0.3381
  265ETHOX  H2326687   9.752   7.406  12.020  0.9253 -1.6170 -1.2760
  265ETHOX   OZ26688   9.765   7.367  11.817  0.1018  0.3239 -0.0529
  265ETHOX  HZ126689   9.672   7.379  11.796 -0.3474 -0.1120  1.5435
    1ETHOX   O126690  14.681  19.097  16.199  0.8643 -0.7384  0.0458
    1ETHOX  HO126691  14.709  19.138  16.282 -0.8173 -0.0209  0.3071
    1ETHOX   C126692  14.743  18.970  16.192  0.3452  0.8265 -0.6005
    1ETHOX  H1126693  14.683  18.904  16.126 -1.1134  0.3722  1.0837
    1ETHOX  H1326694  14.728  18.919  16.290 -2.2587  0.3969 -1.1490
    1ETHOX   C226695  14.892  18.974  16.154 -0.3798 -0.0610  0.8319
    1ETHOX  H2126696  14.903  19.018  16.053 -0.0826 -0.7146  0.5768
    1ETHOX  H2326697  14.937  18.872  16.160 -2.1131 -1.1728 -2.3849
    2ETHOX   O126698  14.972  19.055  16.231 -0.4277 -0.5104  0.4061
    2ETHOX   C126699  15.117  19.017  16.227  0.1888 -0.0741 -0.9984
    2ETHOX  H1126700  15.141  18.913  16.258  0.6423  0.7621  1.6634
    2ETHOX  H1326701  15.161  19.031  16.125  1.6952 -2.2536 -0.7326
    2ETHOX   C226702  15.185  19.110  16.334  0.0613  0.9206 -0.6015
    2ETHOX  H2126703  15.291  19.084  16.355 -0.7301 -0.3415  2.4555
    2ETHOX  H2326704  15.135  19.091  16.432 -0.1199  1.6858 -0.5417
    3ETHOX   O126705  15.159  19.247  16.298 -0.8104  0.4136 -0.1662
    3ETHOX   C126706  15.240  19.330  16.379  0.9298  0.3733 -0.2108
    3ETHOX  H1126707  15.348  19.317  16.354  0.6922 -1.6226 -0.3723
    3ETHOX  H1326708  15.215  19.322  16.487  2.4384  1.7669  0.2809
    3ETHOX   C226709  15.189  19.477  16.357 -0.1085  0.1887  0.2299
    3ETHOX  H2126710  15.230  19.540  16.439  1.0104  0.4460 -0.5103
    3ETHOX  H2326711  15.078  19.472  16.367 -0.0544 -2.1327  0.2390
    4ETHOX   O126712  15.218  19.534  16.233 -0.3698  0.0432  1.0246
    4ETHOX   C126713  15.125  19.642  16.203 -0.2848 -0.1150  0.2415
    4ETHOX  H1126714  15.025  19.597  16.218  0.4347 -1.1651  2.1975
    4ETHOX  H1326715  15.133  19.726  16.275  1.4366  1.8318 -2.0355
    4ETHOX   C226716  15.141  19.697  16.057  0.0871 -0.0650 -0.1058
    4ETHOX  H2126717  15.082  19.786  16.026  1.4907  1.7096  1.9708
    4ETHOX  H2326718  15.103  19.604  16.012  1.1488 -0.2195 -0.7102
    5ETHOX   O126719  15.276  19.714  16.019 -0.3429  0.3680 -0.4079
    5ETHOX   C126720  15.329  19.848  16.028  0.0128 -0.3338 -0.0693
    5ETHOX  H1126721  15.272  19.914  15.959 -0.1313 -0.7589 -0.3601
    5ETHOX  H1326722  15.302  19.883  16.130  1.1542 -0.2245  0.2058
    5ETHOX   C226723  15.478  19.861  16.016  0.3344 -0.6769  0.7521
    5ETHOX  H2126724  15.522  19.777  16.073 -0.9727  0.5384  3.7623
    5ETHOX  H2326725  15.522  19.955  16.057 -0.4061 -0.1164  0.2838
    6ETHOX   O126726  15.512  19.856  15.878 -0.0617  0.5369 -0.1335
    6ETHOX   C126727  15.660  19.855  15.862  0.3036  0.1680 -0.5088
    6ETHOX  H1126728  15.701  19.953  15.894 -0.7955  1.0107 -1.5837
    6ETHOX  H1326729  15.704  19.777  15.928  0.9564  0.5159 -0.5227
    6ETHOX   C226730  15.695  19.822  15.719  0.3898  0.1651  0.1542
    6ETHOX  H2126731  15.801  19.848  15.702  1.2199 -1.8522  1.8377
    6ETHOX  H2326732  15.626  19.876  15.650  1.4513 -0.0181 -1.0996
    7ETHOX   O126733  15.692  19.687  15.693  0.3210  0.7421  0.3906
    7ETHOX   C126734  15.753  19.659  15.567 -0.5696  0.7129  0.7399
    7ETHOX  H1126735  15.712  19.723  15.486  0.4291 -0.1250 -0.4715
    7ETHOX  H1326736  15.864  19.667  15.566 -0.4096 -1.0885 -0.6348
    7ETHOX   C226737  15.721  19.506  15.534  0.1080 -0.4779 -0.1025
    7ETHOX  H2126738  15.774  19.438  15.605 -1.4091 -0.9340  0.6448
    7ETHOX  H2326739  15.764  19.483  15.435  0.8325 -0.1530  0.1293
    8ETHOX   O126740  15.579  19.485  15.536  0.8948  0.0669  0.3229
    8ETHOX   C126741  15.547  19.373  15.613  0.3124  0.0140 -0.1083
    8ETHOX  H1126742  15.593  19.385  15.714 -2.7628  1.5883  1.2392
    8ETHOX  H1326743  15.598  19.286  15.567 -0.5297 -0.6803  0.2488
    8ETHOX   C226744  15.400  19.340  15.623  0.0466  0.2393 -0.7177
    8ETHOX  H2126745  15.338  19.430  15.646  0.7612  0.8458 -1.1001
    8ETHOX  H2326746  15.388  19.272  15.710 -1.4243 -0.0052 -1.0849
    9ETHOX   O126747  15.334  19.250  15.532 -0.6610  0.3144  0.8376
    9ETHOX   C126748  15.308  19.316  15.411  0.4621  0.3806  0.0089
    9ETHOX  H1126749  15.223  19.387  15.418 -0.2755 -0.2175 -2.1929
    9ETHOX  H1326750  15.402  19.368  15.382  1.0871 -0.8712 -0.2720
    9ETHOX   C226751  15.256  19.224  15.300  0.3621  0.4299  0.2023
    9ETHOX  H2126752  15.206  19.278  15.217 -1.9699 -2.1791 -0.2280
    9ETHOX  H2326753  15.176  19.160  15.343  0.5312 -0.5990 -0.9701
   10ETHOX   O126754  15.352  19.142  15.235  0.1623 -0.1775 -0.3944
   10ETHOX   C126755  15.348  19.010  15.278  0.4091 -0.0990 -0.0299
   10ETHOX  H1126756  15.251  18.966  15.247  0.5229  1.1725 -2.4375
   10ETHOX  H1326757  15.350  18.996  15.388  1.0564  3.5198  0.5628
   10ETHOX   C226758  15.460  18.936  15.221 -0.5407  0.3858  0.3140
   10ETHOX  H2126759  15.468  18.961  15.113  0.4619  3.9716  1.0725
   10ETHOX  H2326760  15.434  18.829  15.232 -0.8329  0.2764 -1.2753
   11ETHOX   O126761  15.577  18.979  15.294  0.0399 -0.3404  0.5466
   11ETHOX   C126762  15.699  18.908  15.254  0.5369 -0.6306 -0.3909
   11ETHOX  H1126763  15.784  18.945  15.317 -0.5092 -1.2307  1.4469
   11ETHOX  H1326764  15.687  18.801  15.281  0.7802 -0.2337  1.4355
   11ETHOX   C226765  15.738  18.935  15.104  0.4623  0.1728  0.5556
   11ETHOX  H2126766  15.723  19.042  15.077  1.2408 -0.0939 -1.0901
   11ETHOX  H2326767  15.848  18.927  15.091  1.5484  2.4739  5.7206
   12ETHOX   O126768  15.656  18.849  15.020 -0.3545  0.0625 -0.3898
   12ETHOX   C126769  15.649  18.891  14.880 -0.2524  0.8459  0.4079
   12ETHOX  H1126770  15.626  19.000  14.876  0.2823  0.9926  0.9549
   12ETHOX  H1326771  15.570  18.829  14.835 -1.3835  0.0198  3.3241
   12ETHOX   C226772  15.770  18.855  14.797  0.0547  0.0434  1.1246
   12ETHOX  H2126773  15.861  18.903  14.839 -0.1328 -1.1207  2.9329
   12ETHOX  H2326774  15.755  18.892  14.693  0.8271  0.2262  1.0700
   13ETHOX   O126775  15.780  18.710  14.788  0.1811 -0.1904  0.4335
   13ETHOX   C126776  15.885  18.658  14.705 -0.1675  0.1050  0.3311
   13ETHOX  H1126777  15.857  18.554  14.677 -2.0715  0.1533  1.8305
   13ETHOX  H1326778  15.887  18.712  14.608 -0.1794 -0.8514 -0.2216
   13ETHOX   C226779  16.019  18.661  14.781 -0.2404 -0.1800  0.0058
   13ETHOX  H2126780  16.045  18.762  14.819 -2.3249  0.8005 -0.9767
   13ETHOX  H2326781  16.087  18.622  14.702 -1.7671 -0.8176 -1.0468
   14ETHOX   O126782  16.019  18.564  14.883  0.4348 -0.0321  0.3059
   14ETHOX   C126783  16.128  18.566  14.980  0.0458  0.1494 -0.4035
   14ETHOX  H1126784  16.093  18.504  15.065 -0.1324  2.2381  1.1024
   14ETHOX  H1326785  16.149  18.671  15.009 -1.0241  0.3859 -0.4208
   14ETHOX   C226786  16.249  18.499  14.918  0.7454 -0.0941 -0.3679
   14ETHOX  H2126787  16.233  18.404  14.863 -2.5171  0.3683 -0.3861
   14ETHOX  H2326788  16.323  18.487  15.000 -0.4199  0.6590  0.8167
   15ETHOX   O126789  16.306  18.593  14.825 -0.1337  0.0010 -0.3829
   15ETHOX   C126790  16.436  18.553  14.771  0.0123 -0.4171 -0.9534
   15ETHOX  H1126791  16.485  18.651  14.750 -0.2129 -0.1980 -0.4881
   15ETHOX  H1326792  16.495  18.512  14.856  0.1050 -1.1730 -1.3748
   15ETHOX   C226793  16.435  18.470  14.639 -0.5767 -0.1067  0.1240
   15ETHOX  H2126794  16.377  18.538  14.572 -0.2024  0.1170  0.0237
   15ETHOX  H2326795  16.538  18.470  14.598 -0.9938 -1.8403 -1.0427
   16ETHOX   O126796  16.378  18.340  14.656  0.3730  0.0955  0.4914
   16ETHOX   C126797  16.470  18.245  14.696  0.2671  0.1976  0.6457
   16ETHOX  H1126798  16.541  18.284  14.772  0.9015 -0.4748  0.4063
   16ETHOX  H1326799  16.398  18.168  14.731 -1.7297  1.1517 -1.1434
   16ETHOX   C226800  16.554  18.180  14.585  0.5889 -0.0051  0.3675
   16ETHOX  H2126801  16.629  18.259  14.563  1.0281 -0.2871  0.8221
   16ETHOX  H2326802  16.488  18.158  14.498 -0.3639  2.1739  0.4743
   17ETHOX   O126803  16.617  18.064  14.644 -0.7974  0.0630  0.0162
   17ETHOX   C126804  16.655  17.976  14.541 -0.1229 -0.9205  0.0414
   17ETHOX  H1126805  16.562  17.927  14.505 -0.0658 -1.0260  0.0375
   17ETHOX  H1326806  16.706  18.040  14.466 -0.3816  0.0462  0.6695
   17ETHOX   C226807  16.753  17.866  14.603 -1.1744 -0.3167 -0.1605
   17ETHOX  H2126808  16.692  17.824  14.686 -0.7912 -0.4624  0.0544
   17ETHOX  H2326809  16.840  17.921  14.646 -0.1937 -3.6787  2.6307
   18ETHOX   O126810  16.784  17.763  14.505  0.4042 -0.1060 -0.7546
   18ETHOX   C126811  16.872  17.666  14.566  0.1497 -0.6030  0.1484
   18ETHOX  H1126812  16.974  17.706  14.585  0.8634 -1.5406 -1.4667
   18ETHOX  H1326813  16.826  17.634  14.661 -1.6261  1.3870  0.0173
   18ETHOX   C226814  16.886  17.535  14.481  1.1206 -0.2866 -0.6887
   18ETHOX  H2126815  16.970  17.481  14.530  0.9467  0.7061  0.7405
   18ETHOX  H2326816  16.902  17.560  14.374 -2.9266 -1.2435 -1.6955
   19ETHOX   O126817  16.770  17.449  14.489  0.2368 -0.1033 -0.4420
   19ETHOX   C126818  16.799  17.318  14.455  0.1582  0.4885 -0.5799
   19ETHOX  H1126819  16.890  17.278  14.506  1.0213  0.1599 -2.2993
   19ETHOX  H1326820  16.821  17.312  14.347  0.1960  1.9485 -0.6713
   19ETHOX   C226821  16.687  17.221  14.483  0.7452 -0.0547  0.2327
   19ETHOX  H2126822  16.702  17.115  14.452 -0.9757 -0.6156  1.1638
   19ETHOX  H2326823  16.599  17.259  14.427  0.2041 -0.7708  0.5863
   20ETHOX   O126824  16.666  17.210  14.625  0.2070  0.0909  0.4088
   20ETHOX   C126825  16.554  17.118  14.639  0.0060 -0.6435 -0.0104
   20ETHOX  H1126826  16.482  17.167  14.707 -2.7783 -1.1224 -2.4220
   20ETHOX  H1326827  16.499  17.097  14.545 -0.8886 -1.9666  0.7783
   20ETHOX   C226828  16.608  16.992  14.698  0.6548 -0.8560 -0.2264
   20ETHOX  H2126829  16.519  16.936  14.734  0.0035 -0.0772 -0.5802
   20ETHOX  H2326830  16.660  17.028  14.789 -0.6654 -0.3972  0.3776
   21ETHOX   O126831  16.684  16.911  14.616 -0.4843 -0.3610 -0.2228
   21ETHOX   C126832  16.620  16.800  14.557  0.3424 -0.6990  0.4882
   21ETHOX  H1126833  16.522  16.825  14.511 -0.7585 -2.9840  1.4508
   21ETHOX  H1326834  16.597  16.735  14.644  0.0501  0.4792  1.3133
   21ETHOX   C226835  16.708  16.708  14.478 -0.1990  0.7071  0.3668
   21ETHOX  H2126836  16.658  16.609  14.470  2.4171 -0.5941 -1.9730
   21ETHOX  H2326837  16.809  16.692  14.523 -0.7425 -1.3503  0.9425
   22ETHOX   O126838  16.724  16.763  14.349  0.3293  0.2072 -0.2041
   22ETHOX   C126839  16.807  16.690  14.262  0.7811  0.3495 -0.0421
   22ETHOX  H1126840  16.783  16.583  14.280  0.3705  0.1457 -1.6102
   22ETHOX  H1326841  16.778  16.711  14.157  1.8539 -0.5843 -0.5517
   22ETHOX   C226842  16.949  16.742  14.278 -0.5389 -0.0944 -0.5019
   22ETHOX  H2126843  16.990  16.736  14.381 -1.1901  0.4967 -0.1967
   22ETHOX  H2326844  17.012  16.676  14.214 -0.5895  0.2761 -0.9447
   23ETHOX   O126845  16.949  16.872  14.225 -0.6844 -0.1818 -0.3299
   23ETHOX   C126846  17.085  16.917  14.197  0.2562  0.9013 -0.0901
   23ETHOX  H1126847  17.137  16.854  14.122  0.1447  0.3301  0.3093
   23ETHOX  H1326848  17.140  16.896  14.290 -1.3220 -0.1215  0.6519
   23ETHOX   C226849  17.086  17.065  14.157 -0.0423  0.1987 -0.6892
   23ETHOX  H2126850  17.195  17.086  14.168 -0.0680 -0.0816  0.1690
   23ETHOX  H2326851  17.030  17.140  14.217 -0.1019  0.5659 -1.2041
   24ETHOX   O126852  17.027  17.073  14.031 -0.0105  0.1879 -0.2553
   24ETHOX   C126853  17.036  17.209  13.980  0.3922 -0.9898  0.7235
   24ETHOX  H1126854  17.003  17.292  14.046  0.6451  0.6365 -1.0700
   24ETHOX  H1326855  17.139  17.235  13.945 -0.5398  0.9227 -0.8223
   24ETHOX   C226856  16.964  17.226  13.840 -0.0058 -0.2656  0.1851
   24ETHOX  H2126857  17.008  17.144  13.780 -0.8845 -0.1100 -0.7107
   24ETHOX  H2326858  16.978  17.329  13.800 -2.4830 -0.0275 -0.2315
   25ETHOX   O126859  16.822  17.209  13.860 -0.2212  0.3084  0.1825
   25ETHOX   C126860  16.740  17.271  13.761 -0.4537  0.3598  0.4155
   25ETHOX  H1126861  16.775  17.228  13.665 -0.4856 -0.0209  0.5719
   25ETHOX  H1326862  16.763  17.380  13.769 -1.6334  0.8407 -1.9334
   25ETHOX   C226863  16.589  17.239  13.766  0.6256 -0.7105 -0.0792
   25ETHOX  H2126864  16.536  17.316  13.705 -0.7377 -0.1376  1.7710
   25ETHOX  H2326865  16.558  17.250  13.872 -1.1570  0.0178 -0.6312
   26ETHOX   O126866  16.553  17.112  13.723  0.1813 -0.5367 -0.1019
   26ETHOX   C126867  16.414  17.104  13.692  0.3509 -0.0084  0.3896
   26ETHOX  H1126868  16.348  17.119  13.780  0.8465 -1.7523  1.1080
   26ETHOX  H1326869  16.397  17.189  13.623 -1.6114 -0.2129  0.5608
   26ETHOX   C226870  16.387  16.970  13.632 -0.3946  0.3062 -0.3355
   26ETHOX  H2126871  16.402  16.891  13.709 -0.5952  0.5463 -0.0502
   26ETHOX  H2326872  16.457  16.939  13.551  0.0475  0.7998 -0.1490
   27ETHOX   O126873  16.256  16.955  13.585  0.1729 -0.0086  0.0616
   27ETHOX   C126874  16.213  16.830  13.539 -0.0911  0.1058 -0.2162
   27ETHOX  H1126875  16.191  16.783  13.637  0.9607  1.2425  0.5961
   27ETHOX  H1326876  16.292  16.769  13.491  0.4056  0.9842 -0.5301
   27ETHOX   C226877  16.083  16.840  13.446 -0.1099  0.1084 -0.4289
   27ETHOX  H2126878  16.115  16.883  13.349 -0.1300  0.9065 -0.0958
   27ETHOX  H2326879  16.016  16.908  13.504 -1.0783 -1.8304  0.8210
   28ETHOX   O126880  16.037  16.706  13.433  0.0248 -0.0021  0.1448
   28ETHOX   C126881  15.968  16.697  13.312  0.6544  0.1914  0.0658
   28ETHOX  H1126882  15.881  16.765  13.323 -0.2581 -0.8033 -0.8773
   28ETHOX  H1326883  16.028  16.729  13.224 -0.1448 -1.0911 -0.9694
   28ETHOX   C226884  15.914  16.558  13.270 -0.0506  0.3706  0.0524
   28ETHOX  H2126885  15.843  16.580  13.187 -2.1162  2.8798  2.2931
   28ETHOX  H2326886  15.862  16.502  13.350  1.3773 -0.4317  0.4457
   29ETHOX   O126887  16.017  16.477  13.218 -0.0966  0.2112 -0.1657
   29ETHOX   C126888  15.971  16.350  13.180  0.1327  0.2027  0.4763
   29ETHOX  H1126889  15.923  16.355  13.080  1.8164  0.6721 -0.3557
   29ETHOX  H1326890  15.900  16.304  13.252 -0.3145  1.0137  0.5689
   29ETHOX   C226891  16.091  16.258  13.178 -0.1111  0.0290  0.1269
   29ETHOX  H2126892  16.177  16.310  13.130  0.3424  1.9308  2.7788
   29ETHOX  H2326893  16.078  16.170  13.112 -0.8233 -0.2439  0.6262
   30ETHOX   O126894  16.146  16.204  13.301  0.0874 -0.0147  0.1182
   30ETHOX   C126895  16.264  16.133  13.272  0.0052 -0.0736  0.3384
   30ETHOX  H1126896  16.247  16.063  13.187  1.2125 -0.8797  0.7268
   30ETHOX  H1326897  16.346  16.204  13.249 -0.8847  1.3178  1.3224
   30ETHOX   C226898  16.317  16.063  13.396 -0.1998 -0.0216 -0.7119
   30ETHOX  H2126899  16.328  16.131  13.483 -0.7649  0.4183 -0.9750
   30ETHOX  H2326900  16.421  16.029  13.381 -0.2100 -0.4417  0.1031
   31ETHOX   O126901  16.232  15.948  13.427 -0.3802  0.2641  0.2333
   31ETHOX   C126902  16.287  15.857  13.522  0.6096 -0.6875  0.9307
   31ETHOX  H1126903  16.361  15.788  13.475  0.7943  0.1850 -0.1019
   31ETHOX  H1326904  16.350  15.925  13.583  0.1496  0.8570 -0.2657
   31ETHOX   C226905  16.175  15.791  13.598  0.4922 -0.2166 -0.1213
   31ETHOX  H2126906  16.215  15.703  13.654  0.4213 -0.1958 -0.0380
   31ETHOX  H2326907  16.104  15.758  13.519  0.5877  0.6204 -0.5651
   32ETHOX   O126908  16.107  15.882  13.690  0.0605  0.7112 -0.1083
   32ETHOX   C126909  15.981  15.833  13.714  0.1934 -0.0148  0.3760
   32ETHOX  H1126910  15.936  15.821  13.614 -0.6853 -1.8208  0.9535
   32ETHOX  H1326911  15.977  15.735  13.766  0.0733  0.9224  2.2317
   32ETHOX   C226912  15.892  15.935  13.795 -0.1711 -0.1607 -0.0368
   32ETHOX  H2126913  15.788  15.902  13.775 -0.4593 -0.3117  1.5971
   32ETHOX  H2326914  15.915  16.039  13.763 -0.8171 -0.4265 -1.4709
   33ETHOX   O126915  15.906  15.909  13.933 -0.2625 -0.1051 -0.0738
   33ETHOX   C126916  15.868  16.021  14.012 -0.1415 -0.2130  0.1016
   33ETHOX  H1126917  15.942  16.102  13.999 -0.8260  0.3267 -0.5022
   33ETHOX  H1326918  15.762  16.042  13.985  0.3915  0.6209 -1.4905
   33ETHOX   C226919  15.866  15.971  14.152  0.2186  0.1704 -0.1648
   33ETHOX  H2126920  15.969  15.970  14.193  0.5895  1.6913 -0.9813
   33ETHOX  H2326921  15.828  15.867  14.157 -1.9239  0.9558  1.5488
   34ETHOX   O126922  15.776  16.050  14.228  0.2312 -0.4635 -0.1793
   34ETHOX   C126923  15.755  15.993  14.357 -0.3645  0.2603  0.7759
   34ETHOX  H1126924  15.849  16.004  14.415  0.3608 -1.2099 -0.0953
   34ETHOX  H1326925  15.730  15.886  14.341  1.9575  0.1553 -3.5255
   34ETHOX   C226926  15.651  16.067  14.432 -0.1451 -0.0139 -0.9048
   34ETHOX  H2126927  15.632  16.021  14.531  1.2593 -1.0048 -1.0693
   34ETHOX  H2326928  15.553  16.074  14.379 -0.9071  0.7643  0.5459
   35ETHOX   O126929  15.686  16.202  14.460 -0.2061 -0.0366  0.4179
   35ETHOX   C126930  15.618  16.247  14.579  0.0571 -0.2458 -0.5593
   35ETHOX  H1126931  15.507  16.245  14.568 -0.4743  1.1121  3.0919
   35ETHOX  H1326932  15.644  16.194  14.674  0.8157 -1.7383 -1.5648
   35ETHOX   C226933  15.649  16.403  14.603  0.0154 -0.3346  0.2804
   35ETHOX  H2126934  15.751  16.435  14.573  0.3878 -1.1804  0.5900
   35ETHOX  H2326935  15.629  16.418  14.711 -1.5440  0.5389 -0.1098
   36ETHOX   O126936  15.556  16.475  14.524 -0.9271 -0.5006 -0.3638
   36ETHOX   C126937  15.601  16.598  14.469 -0.3754 -0.0281 -0.5461
   36ETHOX  H1126938  15.688  16.584  14.401  1.3500 -1.0121  1.7003
   36ETHOX  H1326939  15.636  16.669  14.547  0.4015  1.4408 -2.1644
   36ETHOX   C226940  15.483  16.647  14.391 -0.7213  0.4723  0.4181
   36ETHOX  H2126941  15.525  16.725  14.324 -1.5392  0.9620  0.4622
   36ETHOX  H2326942  15.406  16.694  14.455 -1.0973 -1.1158  1.1882
   37ETHOX   O126943  15.438  16.543  14.294  0.2886 -0.1997 -0.1531
   37ETHOX   C126944  15.344  16.591  14.188 -0.0027 -0.1330 -0.3715
   37ETHOX  H1126945  15.254  16.640  14.232 -0.2008 -0.3002 -0.5842
   37ETHOX  H1326946  15.378  16.679  14.130 -1.5511  0.8965  0.2133
   37ETHOX   C226947  15.299  16.475  14.098  1.1114  0.1077  0.0384
   37ETHOX  H2126948  15.389  16.424  14.058  0.5443 -0.2093 -0.8414
   37ETHOX  H2326949  15.226  16.515  14.024  0.1599  1.5580  1.6613
   38ETHOX   O126950  15.215  16.380  14.163  0.0358 -0.2343 -0.5431
   38ETHOX   C126951  15.272  16.291  14.261 -0.8490  0.0002  0.4902
   38ETHOX  H1126952  15.333  16.346  14.336  0.5683 -1.2991  0.3573
   38ETHOX  H1326953  15.342  16.221  14.209 -1.7835 -0.3724 -0.2981
   38ETHOX   C226954  15.176  16.206  14.347 -0.2450  0.7172  0.3561
   38ETHOX  H2126955  15.233  16.129  14.402 -0.2903  1.2229  1.1214
   38ETHOX  H2326956  15.103  16.169  14.272 -0.5381  0.1101  0.9414
   39ETHOX   O126957  15.097  16.279  14.441 -0.4185 -0.0957  0.2709
   39ETHOX   C126958  15.014  16.190  14.520 -0.1791 -0.1872 -0.4453
   39ETHOX  H1126959  14.953  16.129  14.450 -0.7415 -1.9253  1.4643
   39ETHOX  H1326960  15.075  16.127  14.588 -0.7235  0.7081  0.9170
   39ETHOX   C226961  14.911  16.270  14.606 -0.1252  0.3693  0.5104
   39ETHOX  H2126962  14.824  16.202  14.615  1.7966 -2.2372  0.6142
   39ETHOX  H2326963  14.875  16.364  14.560 -0.5289 -0.2633 -0.5032
   40ETHOX   O126964  14.970  16.310  14.735  0.7025  0.6448  0.5499
   40ETHOX   C126965  14.892  16.273  14.846  0.0317  0.7480 -0.2684
   40ETHOX  H1126966  14.889  16.166  14.877  1.0734  0.6400 -0.4968
   40ETHOX  H1326967  14.786  16.301  14.826  0.3958  1.5681 -1.1146
   40ETHOX   C226968  14.921  16.359  14.964 -0.0238 -0.0967 -0.8427
   40ETHOX  H2126969  14.829  16.372  15.025  0.8748 -2.8136  1.3166
   40ETHOX  H2326970  14.956  16.459  14.932  1.3171  0.8490  3.0747
   41ETHOX   O126971  15.027  16.297  15.045  0.6357  0.3656 -0.2591
   41ETHOX   C126972  15.034  16.366  15.170 -0.0708  0.3590 -0.2130
   41ETHOX  H1126973  15.129  16.333  15.217  0.6130  1.8032 -0.5275
   41ETHOX  H1326974  15.065  16.471  15.153  0.0096  0.4383  0.4110
   41ETHOX   C226975  14.927  16.332  15.267  0.5331 -0.7763  0.2562
   41ETHOX  H2126976  14.963  16.325  15.372 -0.6581 -0.2984  0.7077
   41ETHOX  H2326977  14.892  16.230  15.240 -1.5064 -0.2184  0.6833
   42ETHOX   O126978  14.823  16.426  15.251  0.4817  0.3439  0.0458
   42ETHOX   C126979  14.707  16.390  15.325  0.1119 -0.7330  0.2612
   42ETHOX  H1126980  14.696  16.280  15.318 -2.1671 -0.5007 -0.8861
   42ETHOX  H1326981  14.713  16.423  15.431  2.0548  0.8136 -0.2808
   42ETHOX   C226982  14.581  16.438  15.265 -1.2136 -0.6054 -0.5113
   42ETHOX  H2126983  14.578  16.548  15.280  2.7213 -0.6051  1.5416
   42ETHOX  H2326984  14.515  16.383  15.335  0.7213 -0.5951  1.4061
   43ETHOX   O126985  14.571  16.393  15.133 -0.3904  0.7326 -0.6196
   43ETHOX   C126986  14.433  16.371  15.094  0.6822  0.1179  0.5913
   43ETHOX  H1126987  14.373  16.304  15.159  1.2786 -1.0602 -0.0275
   43ETHOX  H1326988  14.377  16.466  15.101  1.6193  0.6968  0.4849
   43ETHOX   C226989  14.433  16.333  14.939  0.5523 -0.6062 -0.6032
   43ETHOX  H2126990  14.497  16.403  14.880  1.8532  0.1520  1.5637
   43ETHOX  H2326991  14.334  16.349  14.892  0.4401  0.1126 -0.1421
   44ETHOX   O126992  14.481  16.202  14.909 -0.0714 -0.2128  0.3006
   44ETHOX   C126993  14.460  16.165  14.772  0.2424 -0.7527  0.6171
   44ETHOX  H1126994  14.352  16.153  14.745 -0.4199 -0.5381  2.9264
   44ETHOX  H1326995  14.493  16.255  14.716 -0.2606  1.0490  3.0432
   44ETHOX   C226996  14.538  16.034  14.740 -0.5876  0.2690 -1.0399
   44ETHOX  H2126997  14.496  15.944  14.790  0.2314 -0.2678 -1.2946
   44ETHOX  H2326998  14.635  16.050  14.792 -1.8858  1.8472  1.0650
   45ETHOX   O126999  14.548  16.021  14.603 -0.6730 -0.0868  0.4138
   45ETHOX   C127000  14.638  15.913  14.570 -0.1841 -0.2431  0.7669
   45ETHOX  H1127001  14.600  15.828  14.631 -0.9201  0.3194  1.0954
   45ETHOX  H1327002  14.741  15.930  14.609 -0.4245  0.1596  1.2381
   45ETHOX   C227003  14.633  15.884  14.424  0.2036 -0.1374  0.9089
   45ETHOX  H2127004  14.532  15.899  14.380  0.2387  0.1612  0.9295
   45ETHOX  H2327005  14.659  15.778  14.406 -2.8168 -0.7331 -0.4382
   46ETHOX   O127006  14.723  15.975  14.360 -0.5822  0.2436 -0.1781
   46ETHOX   C127007  14.729  15.945  14.221 -0.3452 -0.3373  0.0011
   46ETHOX  H1127008  14.733  15.835  14.207 -0.1648 -0.4682  0.9999
   46ETHOX  H1327009  14.643  15.984  14.163  0.2415 -0.2111 -0.7964
   46ETHOX   C227010  14.853  16.004  14.148  0.4074  0.5855  0.6997
   46ETHOX  H2127011  14.862  16.111  14.175 -1.2630  0.3003  2.6121
   46ETHOX  H2327012  14.830  15.983  14.041  3.1089  1.2491 -0.0918
   47ETHOX   O127013  14.975  15.933  14.182  0.3368 -0.0669  0.1398
   47ETHOX   C127014  15.082  15.929  14.079  0.7756 -0.2854  0.0775
   47ETHOX  H1127015  15.122  16.028  14.051  0.1037 -0.2764 -0.9368
   47ETHOX  H1327016  15.042  15.887  13.984 -0.7287  1.2765 -0.0312
   47ETHOX   C227017  15.203  15.843  14.121  0.1352 -0.1381 -0.1735
   47ETHOX  H2127018  15.238  15.856  14.225 -0.8485 -1.5520  0.3829
   47ETHOX  H2327019  15.290  15.876  14.061  0.4278 -0.7151 -0.0713
   48ETHOX   O127020  15.185  15.704  14.097  0.0244 -0.2785 -0.4097
   48ETHOX   C127021  15.300  15.633  14.162  1.1063 -0.3499  0.6174
   48ETHOX  H1127022  15.396  15.653  14.110  1.1295  2.9258  1.6610
   48ETHOX  H1327023  15.320  15.677  14.262 -0.9764  0.2801  0.8019
   48ETHOX   C227024  15.278  15.478  14.166 -0.5634  0.3850  0.1991
   48ETHOX  H2127025  15.360  15.424  14.217  1.6127  3.2000 -0.1008
   48ETHOX  H2327026  15.180  15.456  14.214  0.4561 -1.0799  1.7090
   49ETHOX   O127027  15.261  15.426  14.033 -0.1711 -0.4963 -0.2067
   49ETHOX   C127028  15.265  15.279  14.029  0.3217  0.4054  0.0356
   49ETHOX  H1127029  15.213  15.227  14.112  2.8499  2.0945  2.9129
   49ETHOX  H1327030  15.370  15.241  14.023 -0.2340 -1.1372 -0.2258
   49ETHOX   C227031  15.201  15.227  13.895  0.9097  0.1916  0.0470
   49ETHOX  H2127032  15.237  15.122  13.891 -1.8263 -0.7953 -1.1181
   49ETHOX  H2327033  15.245  15.282  13.809  0.5851 -1.3132 -1.1131
   50ETHOX   O127034  15.059  15.220  13.902  0.0216  0.5528  0.2527
   50ETHOX   C127035  15.001  15.201  13.776  0.5615  0.2644  0.3090
   50ETHOX  H1127036  15.054  15.248  13.691  2.4828 -1.2288  0.5960
   50ETHOX  H1327037  15.017  15.093  13.753 -2.4661 -0.1951 -0.0651
   50ETHOX   C227038  14.847  15.236  13.765 -0.9359 -0.2097 -0.2134
   50ETHOX  H2127039  14.816  15.242  13.658  0.3153 -1.0171 -0.6434
   50ETHOX  H2327040  14.828  15.336  13.810 -0.8341 -0.1565 -0.2874
   51ETHOX   O127041  14.770  15.149  13.841 -0.1705  1.0617 -0.0354
   51ETHOX   C127042  14.631  15.186  13.841  0.5815  0.1123 -0.7682
   51ETHOX  H1127043  14.605  15.249  13.753 -0.4495  0.6297 -0.1216
   51ETHOX  H1327044  14.607  15.231  13.940 -1.3535  1.9723 -1.9839
   51ETHOX   C227045  14.532  15.068  13.821  0.4130  0.3490 -0.1451
   51ETHOX  H2127046  14.427  15.102  13.833  0.9829  2.4725 -0.7785
   51ETHOX  H2327047  14.559  14.998  13.903  0.7296  2.3780  1.5865
   52ETHOX   O127048  14.549  15.011  13.698  0.5361 -0.0831 -0.3230
   52ETHOX   C127049  14.528  14.867  13.687  0.2102  0.1493  0.7449
   52ETHOX  H1127050  14.586  14.813  13.765  0.8150 -0.3625 -0.0462
   52ETHOX  H1327051  14.418  14.856  13.701 -0.1563  2.3738  0.0105
   52ETHOX   C227052  14.563  14.825  13.540  0.1678 -0.1223  0.3516
   52ETHOX  H2127053  14.530  14.895  13.460 -2.6310 -0.5342  1.0385
   52ETHOX  H2327054  14.524  14.722  13.523  0.1289  0.1554 -1.5258
   53ETHOX   O127055  14.707  14.815  13.544 -0.1025  0.6486 -0.0863
   53ETHOX   C127056  14.763  14.916  13.461  0.4500  0.3719 -0.3807
   53ETHOX  H1127057  14.708  14.914  13.365  0.4973 -0.7755 -0.3870
   53ETHOX  H1327058  14.752  15.018  13.504  1.0150 -0.3340  1.5801
   53ETHOX   C227059  14.911  14.903  13.443  0.1813  0.3959  0.5714
   53ETHOX  H2127060  14.953  14.977  13.371  2.5862 -0.6195  0.8415
   53ETHOX  H2327061  14.929  14.800  13.407 -2.1171 -0.6804  2.2391
   54ETHOX   O127062  14.964  14.933  13.570  0.2036  0.2668 -0.4709
   54ETHOX   C127063  15.101  14.894  13.572 -0.1588  0.3011  0.1581
   54ETHOX  H1127064  15.140  14.887  13.676  2.5563  0.3281 -0.8021
   54ETHOX  H1327065  15.107  14.788  13.540 -2.2254  0.1163  0.1955
   54ETHOX   C227066  15.192  14.988  13.496  0.1409 -0.4069 -0.1824
   54ETHOX  H2127067  15.293  14.974  13.540  0.3575 -1.1132 -0.8695
   54ETHOX  H2327068  15.154  15.091  13.512 -0.4978 -0.4767 -1.1297
   55ETHOX   O127069  15.197  14.953  13.356 -0.0473 -0.6369 -0.0728
   55ETHOX   C127070  15.312  15.002  13.289  0.1547  0.2767  0.4406
   55ETHOX  H1127071  15.278  15.067  13.205  5.1944  1.4666 -1.0448
   55ETHOX  H1327072  15.360  15.075  13.357  2.2206 -1.0885  0.5424
   55ETHOX   C227073  15.400  14.883  13.248 -0.5647  0.3525  0.2144
   55ETHOX  H2127074  15.342  14.802  13.200  1.0398 -0.9924  0.4221
   55ETHOX  H2327075  15.476  14.917  13.174 -1.6693  1.1521 -0.5861
   56ETHOX   O127076  15.468  14.835  13.367  0.1909  0.1566  0.2620
   56ETHOX   C127077  15.532  14.708  13.339 -0.4696 -0.1770  0.0600
   56ETHOX  H1127078  15.590  14.701  13.244  0.8266  0.5412  0.7791
   56ETHOX  H1327079  15.454  14.629  13.339  1.2140 -1.9672 -2.0016
   56ETHOX   C227080  15.631  14.663  13.453 -0.3003  0.6857  0.2712
   56ETHOX  H2127081  15.653  14.557  13.429 -0.0008  0.6385  0.7282
   56ETHOX  H2327082  15.573  14.664  13.548 -0.0629 -1.1282  0.4602
   57ETHOX   O127083  15.760  14.726  13.446  0.4881 -0.3372 -0.0157
   57ETHOX   C127084  15.849  14.687  13.557  0.1294 -0.7341  0.1491
   57ETHOX  H1127085  15.854  14.576  13.557 -3.1245 -0.9745 -0.5166
   57ETHOX  H1327086  15.948  14.735  13.539  1.0561 -2.8279 -0.6899
   57ETHOX   C227087  15.815  14.721  13.700  0.0989  0.5296 -0.6468
   57ETHOX  H2127088  15.897  14.675  13.760 -0.1711  0.7419 -0.1100
   57ETHOX  H2327089  15.717  14.674  13.718  1.6996 -2.9568 -0.3154
   58ETHOX   O127090  15.809  14.866  13.722  0.0141  0.0538 -0.3001
   58ETHOX   C127091  15.790  14.895  13.862  0.0053  0.3093 -0.0020
   58ETHOX  H1127092  15.853  14.826  13.921 -1.3505 -0.6975  0.3291
   58ETHOX  H1327093  15.688  14.856  13.885 -0.0983  0.5816  0.0128
   58ETHOX   C227094  15.789  15.040  13.897 -0.3594  0.0155 -0.1909
   58ETHOX  H2127095  15.767  15.053  14.005  0.5938 -1.6784  0.2486
   58ETHOX  H2327096  15.725  15.097  13.826 -0.4050  1.0410  0.6421
   59ETHOX   O127097  15.921  15.097  13.899  0.0893  0.0365 -0.0588
   59ETHOX   C127098  16.001  15.067  14.012  0.1380 -0.4924 -0.1116
   59ETHOX  H1127099  15.986  14.965  14.052 -1.9351 -0.6257 -1.0566
   59ETHOX  H1327100  16.104  15.063  13.970 -0.8240  0.3879 -2.8229
   59ETHOX   C227101  15.993  15.172  14.127 -0.0984  0.1436  0.2777
   59ETHOX  H2127102  16.040  15.135  14.221  0.4095 -0.4121 -0.1853
   59ETHOX  H2327103  15.885  15.188  14.151  0.1664 -0.3846  1.9623
   60ETHOX   O127104  16.052  15.294  14.078  0.1075 -0.3425  0.3042
   60ETHOX   C127105  15.972  15.412  14.100  0.0597  0.2362  0.2649
   60ETHOX  H1127106  15.956  15.426  14.209 -0.5091 -0.7219  0.3236
   60ETHOX  H1327107  15.871  15.403  14.055 -0.2229 -2.2056  1.2055
   60ETHOX   C227108  16.045  15.526  14.037 -0.0752 -0.9398  0.0606
   60ETHOX  H2127109  15.980  15.615  14.027 -0.9327 -1.6048 -0.4970
   60ETHOX  H2327110  16.083  15.502  13.935 -0.6771 -1.6816  0.0023
   61ETHOX   O127111  16.149  15.560  14.127  0.0802 -0.6605  0.1794
   61ETHOX   C127112  16.251  15.650  14.074 -0.2214 -0.0148 -0.6111
   61ETHOX  H1127113  16.339  15.644  14.142 -0.0695 -1.0282 -0.8899
   61ETHOX  H1327114  16.292  15.601  13.984 -0.0604 -2.4599  0.6981
   61ETHOX   C227115  16.198  15.789  14.054  0.4594  0.7510  0.7992
   61ETHOX  H2127116  16.136  15.811  14.144 -1.0052 -0.9570  0.2593
   61ETHOX  H2327117  16.128  15.806  13.969 -1.3945 -0.4099  2.0320
   62ETHOX   O127118  16.298  15.885  14.058 -0.1406 -0.4074 -0.2627
   62ETHOX   C127119  16.387  15.875  13.944  0.1247 -0.0795  0.2483
   62ETHOX  H1127120  16.352  15.929  13.853 -1.3390 -0.6652  0.4438
   62ETHOX  H1327121  16.401  15.772  13.905  1.8610  0.0841  0.3401
   62ETHOX   C227122  16.528  15.928  13.984  0.4754 -0.3550  0.0419
   62ETHOX  H2127123  16.508  16.022  14.041 -1.6035 -0.6502 -0.1439
   62ETHOX  H2327124  16.591  15.948  13.895  2.2688 -1.5199  0.9908
   63ETHOX   O127125  16.589  15.834  14.073 -0.4151 -0.4493 -0.2703
   63ETHOX   C127126  16.706  15.888  14.131  0.3178  0.3048 -0.4301
   63ETHOX  H1127127  16.788  15.884  14.056  0.4620 -1.3733 -0.2429
   63ETHOX  H1327128  16.689  15.990  14.171  0.5623 -0.3704  1.5195
   63ETHOX   C227129  16.759  15.808  14.255  0.8282  0.1532  0.2257
   63ETHOX  H2127130  16.865  15.834  14.277  0.4082  0.3598  2.1772
   63ETHOX  H2327131  16.749  15.702  14.223  1.7508  1.2086 -4.3478
   64ETHOX   O127132  16.696  15.849  14.374  0.1461 -0.1014  0.0586
   64ETHOX   C127133  16.729  15.773  14.482  0.0151 -0.3009 -0.9214
   64ETHOX  H1127134  16.701  15.822  14.578  1.1441 -3.8733  1.4362
   64ETHOX  H1327135  16.839  15.765  14.491 -0.1505 -0.3546  2.9869
   64ETHOX   C227136  16.655  15.639  14.489 -0.6458 -0.2332  0.1810
   64ETHOX  H2127137  16.553  15.660  14.451 -0.4115  0.2254 -0.1998
   64ETHOX  H2327138  16.666  15.589  14.588 -1.6087  1.9843  1.4814
   65ETHOX   O127139  16.721  15.542  14.407 -0.2125  0.0923 -0.3260
   65ETHOX   C127140  16.659  15.417  14.387  0.0914  0.4858  0.2623
   65ETHOX  H1127141  16.619  15.357  14.471 -1.5875  0.1818 -0.6997
   65ETHOX  H1327142  16.562  15.431  14.336  0.1739  0.2349  0.0351
   65ETHOX   C227143  16.740  15.331  14.288 -0.1777  0.0758 -0.0376
   65ETHOX  H2127144  16.768  15.398  14.204  2.8620 -0.0489  0.7336
   65ETHOX  H2327145  16.670  15.249  14.262 -1.5340  1.1853  0.0012
   66ETHOX   O127146  16.864  15.279  14.344 -0.1100  0.2615 -0.3133
   66ETHOX   C127147  16.925  15.172  14.265  0.7200 -0.6654  0.7470
   66ETHOX  H1127148  16.900  15.189  14.158  1.3206  1.4306  0.8967
   66ETHOX  H1327149  16.873  15.076  14.284  0.2830 -0.4624  0.6125
   66ETHOX   C227150  17.077  15.160  14.286  0.5177 -0.4045 -0.1294
   66ETHOX  H2127151  17.124  15.260  14.275 -0.4312  0.1924  0.9463
   66ETHOX  H2327152  17.115  15.100  14.201  1.1804  2.2611 -1.8326
   67ETHOX   O127153  17.127  15.092  14.401  0.0407 -0.1330  0.3038
   67ETHOX   C127154  17.265  15.126  14.422  0.0219 -0.8503 -0.2686
   67ETHOX  H1127155  17.328  15.085  14.341  1.7302  0.8687  0.0861
   67ETHOX  H1327156  17.277  15.236  14.435  0.5773 -1.0257  0.9179
   67ETHOX   C227157  17.312  15.063  14.555  0.3450  0.1737  0.7771
   67ETHOX  H2127158  17.229  15.072  14.628 -2.0526 -4.6431 -0.9744
   67ETHOX  H2327159  17.394  15.114  14.611 -0.0192  0.0188  1.4578
   68ETHOX   O127160  17.347  14.927  14.536  0.3281  0.2728 -0.0692
   68ETHOX   C127161  17.327  14.859  14.662 -0.0930 -0.0547 -0.4503
   68ETHOX  H1127162  17.397  14.897  14.739 -0.6957  1.2177 -0.5016
   68ETHOX  H1327163  17.221  14.858  14.695  0.0369 -1.5452  0.0063
   68ETHOX   C227164  17.361  14.706  14.640 -0.1578  0.2667 -0.4807
   68ETHOX  H2127165  17.392  14.662  14.736  1.8215  2.4660 -0.0308
   68ETHOX  H2327166  17.451  14.699  14.575  0.6427 -0.5167  0.6866
   69ETHOX   O127167  17.265  14.640  14.559  0.2216  0.0373  0.1171
   69ETHOX   C127168  17.310  14.512  14.518  0.3775 -0.1020  0.7232
   69ETHOX  H1127169  17.410  14.499  14.565  1.2331  3.4123  0.1658
   69ETHOX  H1327170  17.259  14.434  14.579 -0.0694  0.8447  1.5783
   69ETHOX   C227171  17.300  14.490  14.368 -0.3084  0.6378  0.9009
   69ETHOX  H2127172  17.198  14.520  14.337 -1.5894 -4.0095 -0.2279
   69ETHOX  H2327173  17.306  14.381  14.346 -0.8218  0.0910  3.1835
   70ETHOX   O127174  17.409  14.548  14.297 -0.7025  0.0198  0.4957
   70ETHOX   C127175  17.415  14.521  14.159 -0.2274  0.0757 -0.1302
   70ETHOX  H1127176  17.382  14.415  14.156  0.6605 -0.1776 -1.5826
   70ETHOX  H1327177  17.346  14.590  14.106 -0.3518 -0.8493 -1.2031
   70ETHOX   C227178  17.560  14.543  14.114 -0.5130  0.1109  0.4108
   70ETHOX  H2127179  17.581  14.651  14.126 -1.2115  0.3184 -0.1456
   70ETHOX  H2327180  17.555  14.527  14.004 -3.0280 -1.3370  0.6482
   71ETHOX   O127181  17.660  14.468  14.191  0.0442  0.5101  0.2898
   71ETHOX   C127182  17.795  14.499  14.147  0.1922 -0.0318  0.0240
   71ETHOX  H1127183  17.821  14.602  14.179 -0.6940  0.5126 -0.9536
   71ETHOX  H1327184  17.780  14.524  14.040  0.0975  2.2351  0.5094
   71ETHOX   C227185  17.898  14.389  14.178  0.5009 -0.7273 -0.5029
   71ETHOX  H2127186  17.917  14.396  14.288  0.6788 -0.1134 -0.5679
   71ETHOX  H2327187  17.998  14.399  14.130  0.6381 -0.3288 -0.1511
   72ETHOX   O127188  17.847  14.261  14.149  0.3884 -0.2388 -0.3151
   72ETHOX   C127189  17.946  14.156  14.155  0.1016 -0.3455 -0.4683
   72ETHOX  H1127190  18.008  14.134  14.065  2.2279 -1.3422  1.1268
   72ETHOX  H1327191  18.016  14.189  14.235  0.4500 -1.1435 -0.4354
   72ETHOX   C227192  17.892  14.028  14.202 -0.3202  0.6933 -0.6702
   72ETHOX  H2127193  17.788  14.044  14.240 -0.3417  1.0011 -0.8667
   72ETHOX  H2327194  17.951  13.985  14.286  0.4517  0.1864 -1.4642
   73ETHOX   O127195  17.891  13.939  14.086 -0.1768 -0.5557 -0.2716
   73ETHOX   C127196  17.900  13.805  14.134  0.1210 -0.3320 -0.2573
   73ETHOX  H1127197  17.815  13.783  14.202 -0.2945  1.7284 -0.0282
   73ETHOX  H1327198  17.994  13.793  14.191  0.7050 -0.5954 -1.2630
   73ETHOX   C227199  17.900  13.697  14.020 -0.6447  0.0143  0.3157
   73ETHOX  H2127200  17.821  13.726  13.947  0.1423  0.8457 -0.2266
   73ETHOX  H2327201  17.868  13.603  14.070  0.4768  0.4427  1.9157
   74ETHOX   O127202  18.022  13.658  13.952 -0.5510  0.2757 -0.4894
   74ETHOX   C127203  18.088  13.778  13.895  0.3311  0.6736  0.1035
   74ETHOX  H1127204  18.021  13.834  13.827 -0.2109  0.3304  0.3487
   74ETHOX  H1327205  18.104  13.849  13.979 -0.3625  1.1801 -0.1801
   74ETHOX   C227206  18.226  13.755  13.833  0.5449  0.4469 -0.3462
   74ETHOX  H2127207  18.250  13.835  13.760  0.2252  1.8399  1.0266
   74ETHOX  H2327208  18.202  13.669  13.767  1.7138 -0.3925  0.2755
   75ETHOX   O127209  18.329  13.717  13.934 -0.3365 -0.3638 -0.1367
   75ETHOX   C127210  18.454  13.701  13.864 -0.3509  0.3159 -0.3566
   75ETHOX  H1127211  18.497  13.796  13.825  2.7580 -1.3235 -1.2263
   75ETHOX  H1327212  18.442  13.637  13.773  1.3606 -0.1487 -0.3020
   75ETHOX   C227213  18.563  13.648  13.954 -0.2253 -1.1730  0.5727
   75ETHOX  H2127214  18.549  13.696  14.053  1.1351  0.3373  0.0714
   75ETHOX  H2327215  18.663  13.662  13.908 -0.6889 -1.8312 -0.6686
   76ETHOX   O127216  18.547  13.510  13.968 -0.3672  0.1303  0.1064
   76ETHOX   C127217  18.645  13.455  14.056 -0.1287 -0.3349  0.1643
   76ETHOX  H1127218  18.744  13.473  14.010  0.0993 -3.1515 -0.6428
   76ETHOX  H1327219  18.642  13.503  14.156  0.0661  1.6202 -0.7261
   76ETHOX   C227220  18.629  13.304  14.069 -0.3025 -0.2313 -0.1480
   76ETHOX  H2127221  18.719  13.267  14.124 -0.4708  2.7295  2.3401
   76ETHOX  H2327222  18.620  13.253  13.970  0.7954  1.1560 -1.0103
   77ETHOX   O127223  18.522  13.264  14.153  0.0976 -0.3854  0.2635
   77ETHOX   C127224  18.511  13.123  14.160 -0.0790 -0.7509  0.3699
   77ETHOX  H1127225  18.584  13.067  14.222  1.6982  0.4251 -0.5548
   77ETHOX  H1327226  18.532  13.089  14.056 -0.0112 -0.6729  0.3577
   77ETHOX   C227227  18.367  13.079  14.192 -0.3052 -1.2849  0.1138
   77ETHOX  H2127228  18.346  12.973  14.165 -1.2751 -1.0715  0.0024
   77ETHOX  H2327229  18.303  13.145  14.129  3.2188  1.4881 -0.9161
   78ETHOX   O127230  18.348  13.107  14.332 -0.2373  0.4289 -0.1656
   78ETHOX   C127231  18.212  13.086  14.378 -0.2139  1.0015 -0.1954
   78ETHOX  H1127232  18.144  13.167  14.344 -2.3909  0.2065  1.9863
   78ETHOX  H1327233  18.178  12.988  14.339  0.8617  0.5512 -0.0425
   78ETHOX   C227234  18.212  13.080  14.530  0.4871 -0.1389 -0.4900
   78ETHOX  H2127235  18.252  12.984  14.569 -0.3423 -0.1840  0.2945
   78ETHOX  H2327236  18.106  13.087  14.564  0.3117  0.7469 -1.1683
   79ETHOX   O127237  18.288  13.190  14.591  0.4528  0.5338  0.4737
   79ETHOX   C127238  18.271  13.189  14.736  0.3415 -0.5460  0.1274
   79ETHOX  H1127239  18.167  13.222  14.753  0.3794 -0.2183 -0.2705
   79ETHOX  H1327240  18.291  13.087  14.774 -3.6049 -1.1548  0.9039
   79ETHOX   C227241  18.350  13.302  14.814 -0.1604 -1.0451  0.0413
   79ETHOX  H2127242  18.314  13.317  14.918  2.3601 -0.4453  0.8976
   79ETHOX  H2327243  18.331  13.395  14.755  2.0500  0.5402  1.6222
   80ETHOX   O127244  18.491  13.307  14.804  0.7930  0.3251 -0.0662
   80ETHOX   C127245  18.547  13.215  14.891 -0.3690  0.5508  0.3424
   80ETHOX  H1127246  18.466  13.172  14.955  0.0171 -4.1045 -1.8934
   80ETHOX  H1327247  18.588  13.131  14.831 -0.3891  1.3010 -0.7431
   80ETHOX   C227248  18.660  13.253  14.989  0.5304 -0.0909  0.2433
   80ETHOX  H2127249  18.748  13.287  14.930  0.6251 -3.4906 -1.8223
   80ETHOX  H2327250  18.698  13.165  15.045  1.5230  0.0250 -0.2216
   81ETHOX   O127251  18.624  13.358  15.084  0.1785  0.1704 -0.3395
   81ETHOX   C127252  18.734  13.390  15.172  0.2696 -0.7570  0.8154
   81ETHOX  H1127253  18.743  13.292  15.224  2.8842 -0.7709  0.4682
   81ETHOX  H1327254  18.822  13.410  15.107 -0.0752  1.8795  1.0553
   81ETHOX   C227255  18.709  13.502  15.276  0.1237  0.5068  0.1423
   81ETHOX  H2127256  18.627  13.472  15.345  0.7026  0.3801  0.7876
   81ETHOX  H2327257  18.805  13.509  15.331  1.3058 -1.2021 -1.5569
   82ETHOX   O127258  18.689  13.628  15.205  0.4398  0.0089  0.4769
   82ETHOX   C127259  18.641  13.726  15.291  0.8533 -0.6598 -0.3673
   82ETHOX  H1127260  18.700  13.716  15.384  2.8166 -1.3534 -1.6196
   82ETHOX  H1327261  18.535  13.705  15.315  0.1331 -0.5468 -3.1555
   82ETHOX   C227262  18.653  13.866  15.244  1.2635  0.1549 -0.0232
   82ETHOX  H2127263  18.751  13.872  15.193  1.2050 -0.9103 -0.2820
   82ETHOX  H2327264  18.647  13.937  15.330 -1.6215  0.7357 -0.5964
   83ETHOX   O127265  18.546  13.905  15.166 -0.5001 -0.4110  0.3296
   83ETHOX   C127266  18.581  14.016  15.079 -0.0357 -0.2621 -0.2401
   83ETHOX  H1127267  18.612  14.094  15.151 -0.7181 -1.0604  0.9503
   83ETHOX  H1327268  18.674  13.983  15.027  1.6061 -1.1664  3.0194
   83ETHOX   C227269  18.469  14.057  14.976 -0.1642 -0.2958 -0.3220
   83ETHOX  H2127270  18.449  13.971  14.908  0.3628 -0.2525 -0.5377
   83ETHOX  H2327271  18.513  14.142  14.919  0.2846 -1.4192 -1.7067
   84ETHOX   O127272  18.353  14.091  15.047 -0.3802  0.5044  0.7514
   84ETHOX   C127273  18.251  14.134  14.956  0.5169 -0.0492  0.4878
   84ETHOX  H1127274  18.233  14.048  14.887 -1.3254  0.2350  0.5737
   84ETHOX  H1327275  18.275  14.224  14.896 -1.8467 -0.2362 -0.8561
   84ETHOX   C227276  18.110  14.170  15.019  0.5438 -0.2530  0.0330
   84ETHOX  H2127277  18.033  14.216  14.953 -1.7676 -0.8432  2.1931
   84ETHOX  H2327278  18.139  14.249  15.091  1.4889  0.6466 -1.2709
   85ETHOX   O127279  18.046  14.072  15.094  0.0871  0.2868  0.5637
   85ETHOX   C127280  17.991  13.963  15.010  0.2385  1.1624 -0.3817
   85ETHOX  H1127281  17.955  13.996  14.910  0.6160  0.3805 -0.7826
   85ETHOX  H1327282  18.073  13.888  15.002 -0.7446  0.0841 -0.5170
   85ETHOX   C227283  17.880  13.883  15.087  0.3753  0.6383  1.0284
   85ETHOX  H2127284  17.929  13.844  15.179  0.9440 -1.7110 -0.1759
   85ETHOX  H2327285  17.841  13.798  15.027  3.0273 -0.9521  1.3765
   86ETHOX   O127286  17.762  13.965  15.117 -0.1565  0.1713 -0.2020
   86ETHOX   C127287  17.670  13.900  15.217  0.7502 -0.1703 -0.0141
   86ETHOX  H1127288  17.726  13.886  15.311 -0.2071  0.7941  0.7257
   86ETHOX  H1327289  17.634  13.801  15.180 -0.3021  0.4086 -0.6058
   86ETHOX   C227290  17.545  13.993  15.254  0.4134 -0.4467  0.2934
   86ETHOX  H2127291  17.579  14.094  15.288 -0.6930  0.1704 -0.3680
   86ETHOX  H2327292  17.483  13.944  15.332 -0.1878  1.7903  1.3067
   87ETHOX   O127293  17.470  14.024  15.139  0.4817  0.0505 -0.0935
   87ETHOX   C127294  17.358  14.114  15.158  0.4028 -0.3342  0.0868
   87ETHOX  H1127295  17.306  14.073  15.247  0.2584 -1.7288 -0.6098
   87ETHOX  H1327296  17.383  14.221  15.173  0.7277 -0.4970  0.7565
   87ETHOX   C227297  17.264  14.127  15.036  0.0718 -0.8221  0.4881
   87ETHOX  H2127298  17.317  14.160  14.945 -3.7117  0.1023 -1.5752
   87ETHOX  H2327299  17.184  14.200  15.057  0.9663 -0.2122  1.9368
   88ETHOX   O127300  17.209  14.005  15.008 -0.5512 -0.1811  0.5330
   88ETHOX   C127301  17.143  14.005  14.888 -0.8463  0.4570  0.1828
   88ETHOX  H1127302  17.097  13.904  14.881  2.2427 -1.0154 -0.7682
   88ETHOX  H1327303  17.207  14.013  14.797 -2.1231  0.3749 -0.7470
   88ETHOX   C227304  17.029  14.111  14.881 -0.1167  0.4040  0.8285
   88ETHOX  H2127305  16.981  14.131  14.980 -0.4036 -1.8980  1.2301
   88ETHOX  H2327306  16.950  14.067  14.816  0.6485  1.9507 -1.2455
   89ETHOX   O127307  17.052  14.232  14.820 -0.4077  0.2902  0.0462
   89ETHOX   C127308  16.948  14.324  14.850  0.6092  1.1301  0.3652
   89ETHOX  H1127309  16.849  14.276  14.841  0.8480  0.8821 -1.2677
   89ETHOX  H1327310  16.960  14.366  14.952 -0.9067 -0.2170  1.1376
   89ETHOX   C227311  16.964  14.428  14.734  0.5708 -0.1816 -0.0118
   89ETHOX  H2127312  16.952  14.385  14.633  0.7009  0.6076 -0.3704
   89ETHOX  H2327313  17.068  14.468  14.731  1.0035 -1.3363 -1.2797
   90ETHOX   O127314  16.866  14.535  14.745 -0.1304 -1.1684 -0.0014
   90ETHOX   C127315  16.727  14.498  14.729  0.5757  0.0772  0.2014
   90ETHOX  H1127316  16.726  14.429  14.642  0.6590  1.3016 -0.7903
   90ETHOX  H1327317  16.698  14.425  14.808 -2.5741 -2.4038 -2.9395
   90ETHOX   C227318  16.637  14.612  14.711  0.4342 -0.6265 -0.1065
   90ETHOX  H2127319  16.557  14.590  14.637 -0.0070  1.4377 -0.2868
   90ETHOX  H2327320  16.696  14.697  14.672  1.2288 -1.1040  0.0257
   91ETHOX   O127321  16.571  14.644  14.832 -0.5248  0.1286 -0.0629
   91ETHOX   C127322  16.513  14.775  14.834  0.0994  0.2783 -0.0388
   91ETHOX  H1127323  16.442  14.775  14.919 -0.8774 -2.6919 -0.7449
   91ETHOX  H1327324  16.595  14.849  14.849 -0.8983  1.2060  1.0181
   91ETHOX   C227325  16.416  14.804  14.717 -0.1454  0.1654  0.3049
   91ETHOX  H2127326  16.331  14.872  14.739 -1.3524 -0.9697 -0.6894
   91ETHOX  H2327327  16.354  14.715  14.693 -3.9378  2.4169  0.9352
   92ETHOX   O127328  16.493  14.857  14.613  0.5119 -0.2640 -0.0976
   92ETHOX   C127329  16.431  14.870  14.489 -0.3624  0.9241  0.6553
   92ETHOX  H1127330  16.454  14.775  14.436 -1.5314  0.2168  1.3732
   92ETHOX  H1327331  16.321  14.859  14.499 -0.2127 -0.4434  1.0834
   92ETHOX   C227332  16.482  14.986  14.398 -0.3271 -0.3081  0.0405
   92ETHOX  H2127333  16.474  14.948  14.294  1.3814 -1.6848  0.3762
   92ETHOX  H2327334  16.589  15.007  14.418 -1.1244  1.1024  3.4630
   93ETHOX   O127335  16.401  15.105  14.404 -0.0288  0.6831 -0.2136
   93ETHOX   C127336  16.407  15.168  14.532 -0.0444 -0.2063 -0.2323
   93ETHOX  H1127337  16.503  15.216  14.560  0.1755  1.1628 -2.9693
   93ETHOX  H1327338  16.384  15.090  14.607 -1.1128 -0.9778 -1.3267
   93ETHOX   C227339  16.321  15.295  14.549  0.2127 -0.4152 -0.5379
   93ETHOX  H2127340  16.332  15.339  14.448  1.5156  1.6574  0.4457
   93ETHOX  H2327341  16.359  15.359  14.632 -1.0246 -2.6169  1.8907
   94ETHOX   O127342  16.189  15.255  14.583 -0.4602  0.6553  0.0728
   94ETHOX   C127343  16.081  15.353  14.557 -0.8121  0.0567 -0.0218
   94ETHOX  H1127344  16.088  15.431  14.635  1.2202  2.8003 -2.7178
   94ETHOX  H1327345  16.089  15.403  14.458 -2.8667 -2.6978 -1.7443
   94ETHOX   C227346  15.936  15.298  14.566 -0.1452  0.1435  0.3393
   94ETHOX  H2127347  15.853  15.365  14.535  0.9939  0.9460 -1.1968
   94ETHOX  H2327348  15.925  15.287  14.676  1.1558  0.5328  0.5306
   95ETHOX   O127349  15.915  15.176  14.492  0.5276 -0.6392  0.5404
   95ETHOX   C127350  15.802  15.102  14.553 -0.5797  0.0887 -0.5765
   95ETHOX  H1127351  15.711  15.166  14.549 -1.1171 -0.7118 -1.5873
   95ETHOX  H1327352  15.834  15.081  14.657 -0.7310 -1.7143 -0.8626
   95ETHOX   C227353  15.763  14.973  14.487  0.0488 -0.2560 -0.2292
   95ETHOX  H2127354  15.720  14.905  14.563  0.0553  2.6680  2.5747
   95ETHOX  H2327355  15.862  14.936  14.452  0.5631  0.9039 -0.0567
   96ETHOX   O127356  15.690  15.007  14.376  0.5674 -0.6228 -0.0916
   96ETHOX   C127357  15.627  14.895  14.318 -0.0398  0.9603 -0.4309
   96ETHOX  H1127358  15.606  14.915  14.210  2.2778 -0.1408 -1.1649
   96ETHOX  H1327359  15.694  14.806  14.318 -0.7361  0.3818 -2.0768
   96ETHOX   C227360  15.491  14.860  14.381 -0.2602 -0.4105 -0.1306
   96ETHOX  H2127361  15.510  14.861  14.491  0.4697 -0.2728 -0.2489
   96ETHOX  H2327362  15.468  14.755  14.356 -2.2441 -0.0505  0.0513
   97ETHOX   O127363  15.393  14.961  14.356 -0.0115 -0.0505  0.8012
   97ETHOX   C127364  15.326  14.944  14.234 -0.3179  0.1949  0.6996
   97ETHOX  H1127365  15.385  14.870  14.176 -3.1658 -2.5455  1.0744
   97ETHOX  H1327366  15.334  15.029  14.162  0.8867 -1.9134 -1.8063
   97ETHOX   C227367  15.187  14.893  14.272 -0.3978  0.1300  0.7887
   97ETHOX  H2127368  15.116  14.898  14.188 -2.1217  1.4707  2.2430
   97ETHOX  H2327369  15.132  14.956  14.345 -1.1400 -0.8583  1.0910
   98ETHOX   O127370  15.189  14.754  14.312  0.2600 -0.2977 -0.3137
   98ETHOX   C127371  15.133  14.723  14.443  0.1027  0.6482 -0.2664
   98ETHOX  H1127372  15.186  14.779  14.523 -0.2175 -0.0795  0.4715
   98ETHOX  H1327373  15.026  14.753  14.450 -0.1903 -0.5681  0.8147
   98ETHOX   C227374  15.139  14.573  14.476  0.3770  0.1077  0.6402
   98ETHOX  H2127375  15.141  14.555  14.586  3.0130  0.0038  0.6414
   98ETHOX  H2327376  15.239  14.548  14.434 -0.4940  0.0773 -1.5665
   99ETHOX   O127377  15.045  14.491  14.404 -0.2122  0.2278 -0.1736
   99ETHOX   C127378  15.066  14.353  14.427 -0.2308 -0.2619 -1.2622
   99ETHOX  H1127379  15.003  14.332  14.516  1.3217 -0.7255 -0.2285
   99ETHOX  H1327380  15.170  14.320  14.451  0.1512  0.8331 -1.3497
   99ETHOX   C227381  15.022  14.266  14.308  0.1545  1.0879 -0.2423
   99ETHOX  H2127382  14.913  14.282  14.298 -0.6208  1.0710  5.0261
   99ETHOX  H2327383  15.030  14.157  14.331 -0.3249  0.5375 -2.4448
  100ETHOX   O127384  15.090  14.291  14.184  0.4034 -0.7224 -0.4476
  100ETHOX   C127385  15.053  14.204  14.081  0.1422  0.3144  0.0805
  100ETHOX  H1127386  15.039  14.101  14.119  3.2202  0.0735  0.8187
  100ETHOX  H1327387  14.958  14.231  14.030 -1.1531 -0.2667  2.0634
  100ETHOX   C227388  15.165  14.206  13.971  0.0277  0.1573 -0.3486
  100ETHOX  H2127389  15.262  14.211  14.025  0.3286  1.8574 -0.9829
  100ETHOX  H2327390  15.155  14.290  13.898  0.1251  0.1222 -0.4014
  101PROXS   O127391  15.150  14.081  13.903 -0.8807  0.0349 -0.0520
  101PROXS   C127392  15.265  14.052  13.828  0.0755 -0.4960  0.1594
  101PROXS  H1127393  15.273  14.125  13.744 -1.2495 -1.5820 -0.9556
  101PROXS  H1327394  15.361  14.061  13.883 -0.5582  0.4024  1.1686
  101PROXS   C227395  15.251  13.910  13.767  0.6791 -0.2499  0.1777
  101PROXS  H2127396  15.148  13.905  13.725  0.5886 -0.9557  0.4713
  101PROXS   C327397  15.255  13.805  13.878 -0.1401 -0.1224 -0.1561
  101PROXS  H3127398  15.277  13.704  13.837  0.9361  0.4162 -0.9596
  101PROXS  H3227399  15.341  13.819  13.948 -0.7155  0.2418  0.4917
  101PROXS  H3327400  15.162  13.801  13.939 -0.0753  0.1732 -0.0382
  102PROXS   O127401  15.348  13.890  13.663  0.7472  0.1636 -0.1187
  102PROXS   C127402  15.318  13.790  13.571  0.2238  0.3211  0.6621
  102PROXS  H1127403  15.411  13.730  13.567 -0.5312 -0.9145  1.0162
  102PROXS  H1327404  15.222  13.735  13.586  0.4517 -0.6412 -1.0538
  102PROXS   C227405  15.300  13.849  13.422 -0.6077  0.3563 -0.1834
  102PROXS  H2127406  15.390  13.914  13.417  0.8364 -1.3361  1.9170
  102PROXS   C327407  15.172  13.933  13.408 -0.4275  0.4021  0.4866
  102PROXS  H3127408  15.087  13.889  13.465 -0.9809  0.4712 -0.2664
  102PROXS  H3227409  15.181  14.035  13.452  1.8085 -0.0191  1.0936
  102PROXS  H3327410  15.141  13.936  13.302 -1.4023  0.6794  0.7603
  103PROXR   O127411  15.301  13.741  13.335  0.2823 -0.5786 -0.0241
  103PROXR   C127412  15.340  13.780  13.200 -0.0689 -0.0767 -0.3506
  103PROXR  H1127413  15.264  13.848  13.156  0.6787  0.6013 -0.6243
  103PROXR  H1327414  15.441  13.827  13.207  0.0521 -0.5882  2.6030
  103PROXR   C227415  15.349  13.653  13.109  0.4253  1.0079  0.5050
  103PROXR  H2127416  15.247  13.611  13.105 -0.0511  2.2283 -1.4870
  103PROXR   C327417  15.448  13.558  13.176 -0.3265  0.2865  0.6668
  103PROXR  H3127418  15.544  13.612  13.195 -1.6075  3.0538 -0.1669
  103PROXR  H3227419  15.409  13.537  13.277  1.0022  0.5916  1.2730
  103PROXR  H3327420  15.458  13.462  13.121 -0.2950 -0.0709  1.2846
  104PROXS   O127421  15.389  13.684  12.978  0.0244 -0.2357 -0.3266
  104PROXS   C127422  15.354  13.586  12.883 -0.3512  0.4452  0.1012
  104PROXS  H1127423  15.433  13.510  12.866  0.0701 -0.0378  3.4859
  104PROXS  H1327424  15.259  13.536  12.912 -0.1260  0.3700  0.7398
  104PROXS   C227425  15.334  13.651  12.743  0.1447 -1.0143 -0.4855
  104PROXS  H2127426  15.424  13.711  12.718 -0.5579  0.9776  1.4378
  104PROXS   C327427  15.208  13.742  12.749 -0.2946 -0.0588 -0.4493
  104PROXS  H3127428  15.193  13.799  12.655 -0.7144  2.4957  1.0873
  104PROXS  H3227429  15.118  13.676  12.754 -1.6303  1.6296 -1.1270
  104PROXS  H3327430  15.214  13.821  12.826  1.2833 -1.5858  1.0883
  105PROXS   O127431  15.318  13.544  12.651  0.3095 -0.2067 -0.5862
  105PROXS   C127432  15.330  13.585  12.517 -0.6064  0.5349  0.5946
  105PROXS  H1127433  15.252  13.654  12.478 -0.2919  0.7994  0.4219
  105PROXS  H1327434  15.431  13.629  12.502  0.4191 -1.4071  1.4898
  105PROXS   C227435  15.333  13.459  12.419 -0.1963 -0.1089 -0.1381
  105PROXS  H2127436  15.237  13.403  12.428  0.5028 -1.4127 -0.5372
  105PROXS   C327437  15.456  13.373  12.451  0.7104 -0.3332 -0.2742
  105PROXS  H3127438  15.534  13.438  12.496  0.2074 -1.2091  1.9590
  105PROXS  H3227439  15.424  13.292  12.519 -1.1030  1.0268  0.5893
  105PROXS  H3327440  15.502  13.319  12.365  2.2923 -1.9143  1.4889
  106PROXS   O127441  15.345  13.517  12.291 -0.1213 -0.1514 -0.4419
  106PROXS   C127442  15.328  13.418  12.190 -0.0775  0.4408 -0.2606
  106PROXS  H1127443  15.424  13.368  12.168 -0.2565 -0.5963  1.1546
  106PROXS  H1327444  15.252  13.344  12.224  2.2995 -2.1648 -0.2453
  106PROXS   C227445  15.279  13.483  12.062  0.7361 -0.1120  0.5823
  106PROXS  H2127446  15.362  13.551  12.033  0.6510 -0.4479 -0.5052
  106PROXS   C327447  15.142  13.560  12.078  0.1147 -0.4619 -0.6849
  106PROXS  H3127448  15.135  13.645  12.007 -1.4970  0.2745  0.2794
  106PROXS  H3227449  15.055  13.495  12.058 -0.2852 -0.0511 -0.3170
  106PROXS  H3327450  15.132  13.599  12.182 -0.2285  0.0089 -0.8911
  107PROXR   O127451  15.264  13.378  11.964 -0.3296  0.5185  0.2296
  107PROXR   C127452  15.208  13.415  11.836  0.3233 -0.5212 -0.1464
  107PROXR  H1127453  15.109  13.463  11.851  0.1533  0.7146 -4.1118
  107PROXR  H1327454  15.276  13.485  11.782  0.4844 -0.5850 -0.0244
  107PROXR   C227455  15.172  13.301  11.745  0.8448  0.4026 -0.0471
  107PROXR  H2127456  15.238  13.215  11.768 -0.3278 -1.1735 -2.2485
  107PROXR   C327457  15.192  13.328  11.595  0.7326 -0.2934  0.6657
  107PROXR  H3127458  15.105  13.391  11.566 -2.5733 -2.7201  4.2741
  107PROXR  H3227459  15.288  13.382  11.579  0.8670 -1.1048 -1.6316
  107PROXR  H3327460  15.185  13.245  11.522 -0.9758 -0.8375  1.3982
  108PROXS   O127461  15.035  13.257  11.770 -0.5585 -0.0858  0.2512
  108PROXS   C127462  15.009  13.210  11.904 -0.3891  0.2620 -0.5452
  108PROXS  H1127463  15.086  13.135  11.932 -2.0355 -1.5265 -0.5569
  108PROXS  H1327464  15.021  13.288  11.981 -0.3008 -1.5137  1.3176
  108PROXS   C227465  14.871  13.152  11.923  0.7281 -0.3427 -0.9052
  108PROXS  H2127466  14.871  13.047  11.887 -1.0854 -0.8427  0.3987
  108PROXS   C327467  14.756  13.216  11.845 -0.3966 -0.8012  0.5935
  108PROXS  H3127468  14.660  13.167  11.871 -0.3429 -0.8324  0.7316
  108PROXS  H3227469  14.748  13.325  11.866 -0.7373 -1.2252  2.9666
  108PROXS  H3327470  14.775  13.199  11.737 -0.2951 -0.9171  0.6300
  109PROXS   O127471  14.842  13.158  12.060 -0.5212 -0.0308 -0.6147
  109PROXS   C127472  14.926  13.071  12.143  0.2213 -0.3388  0.5920
  109PROXS  H1127473  14.894  12.968  12.118 -1.1377  0.4237 -1.0466
  109PROXS  H1327474  15.035  13.084  12.129  0.1450 -0.4555 -0.1855
  109PROXS   C227475  14.893  13.103  12.291 -0.9198 -0.0731  0.6280
  109PROXS  H2127476  14.784  13.114  12.313 -0.5600  1.5685  1.7130
  109PROXS   C327477  14.952  13.233  12.335  0.1361  0.5062 -0.5474
  109PROXS  H3127478  14.946  13.312  12.258  0.7606 -0.4172 -1.5634
  109PROXS  H3227479  14.899  13.268  12.426 -0.9031  0.8255 -1.2630
  109PROXS  H3327480  15.052  13.214  12.378 -0.9342  0.3939  2.0918
  110PROXR   O127481  14.950  12.998  12.363  0.1901  0.3288  0.0365
  110PROXR   C127482  14.884  12.982  12.490 -0.4497  0.5417 -0.1969
  110PROXR  H1127483  14.911  13.071  12.550  0.0807  1.0989 -1.2276
  110PROXR  H1327484  14.774  12.985  12.476 -0.8743 -1.4526  2.0632
  110PROXR   C227485  14.923  12.856  12.572 -0.4022  0.1923 -0.5012
  110PROXR  H2127486  15.029  12.839  12.545  0.1285  3.4252 -0.8685
  110PROXR   C327487  14.836  12.736  12.524 -0.2496  0.0897 -0.1198
  110PROXR  H3127488  14.841  12.726  12.413  2.3446  2.5563 -0.3516
  110PROXR  H3227489  14.851  12.646  12.587 -0.4095  0.9062  1.1152
  110PROXR  H3327490  14.729  12.755  12.550 -0.4202  0.1918 -0.8505
  111PROXS   O127491  14.917  12.885  12.714  0.9344  0.3127 -0.1936
  111PROXS   C127492  14.791  12.933  12.767  0.5581 -0.1030  0.0238
  111PROXS  H1127493  14.725  12.977  12.690 -0.8738 -3.5715 -0.8863
  111PROXS  H1327494  14.742  12.856  12.830  0.6411 -0.1796 -0.0054
  111PROXS   C227495  14.808  13.055  12.858 -0.2196  0.5212 -0.7491
  111PROXS  H2127496  14.883  13.026  12.935 -0.0334 -0.7114 -1.3857
  111PROXS   C327497  14.678  13.083  12.932 -0.4475  0.0853 -0.1083
  111PROXS  H3127498  14.689  13.162  13.009 -1.3642 -1.4243  1.6596
  111PROXS  H3227499  14.599  13.107  12.858 -0.5466  0.6068  0.1692
  111PROXS  H3327500  14.645  12.988  12.979  2.1605  0.6563  3.2473
  112PROXR   O127501  14.856  13.166  12.786  0.3188 -0.1012  0.4593
  112PROXR   C127502  14.909  13.276  12.866  0.7389  1.3616 -0.1630
  112PROXR  H1127503  14.851  13.286  12.960  1.4542  1.7573  0.2532
  112PROXR  H1327504  15.013  13.247  12.894  0.6491 -0.9071 -1.8844
  112PROXR   C227505  14.917  13.420  12.802 -0.2237 -0.1553 -0.7952
  112PROXR  H2127506  14.811  13.442  12.777 -0.5421  0.6547  1.1076
  112PROXR   C327507  15.013  13.439  12.682  0.2365  0.1327  0.4094
  112PROXR  H3127508  15.007  13.543  12.644 -2.4013  1.3600  3.6297
  112PROXR  H3227509  15.118  13.413  12.705 -0.5152 -1.9090  1.8793
  112PROXR  H3327510  14.986  13.365  12.605 -3.0343  0.4595  1.0643
  113PROXS   O127511  14.972  13.506  12.901 -0.0403 -0.5710  0.5049
  113PROXS   C127512  14.872  13.595  12.953  0.4976  0.7675  0.7091
  113PROXS  H1127513  14.860  13.673  12.876 -2.5595 -1.1279 -0.9365
  113PROXS  H1327514  14.781  13.532  12.963  1.1534 -0.2227  0.6144
  113PROXS   C227515  14.919  13.647  13.092  0.0166  0.2279 -0.3362
  113PROXS  H2127516  15.004  13.708  13.055  1.1494 -1.4133 -0.4894
  113PROXS   C327517  14.980  13.549  13.191 -0.9680 -0.5353 -1.2955
  113PROXS  H3127518  14.905  13.472  13.220 -0.7349  0.1064  1.1843
  113PROXS  H3227519  15.071  13.496  13.156 -0.3364 -0.6100  0.3799
  113PROXS  H3327520  15.006  13.587  13.292 -0.7489 -4.0694  0.1350
  114PROXR   O127521  14.822  13.735  13.142 -0.1823  0.1675 -0.2977
  114PROXR   C127522  14.869  13.823  13.241 -0.0449  0.5309  0.0388
  114PROXR  H1127523  14.895  13.777  13.339 -0.3967 -2.0965 -1.0490
  114PROXR  H1327524  14.955  13.881  13.200 -0.2335  0.6188 -0.2304
  114PROXR   C227525  14.774  13.934  13.272  0.4874 -1.0198 -0.0680
  114PROXR  H2127526  14.676  13.896  13.309  0.1180  1.0561  1.2756
  114PROXR   C327527  14.743  14.033  13.157 -0.4884 -0.0162 -0.3326
  114PROXR  H3127528  14.823  14.110  13.159 -0.2594 -0.2313 -0.9074
  114PROXR  H3227529  14.748  13.983  13.057  0.5280 -0.5244 -0.0460
  114PROXR  H3327530  14.644  14.082  13.171 -0.1115  1.5534 -2.6194
  115PROXR   O127531  14.824  14.012  13.380 -0.0415 -0.1205 -0.1855
  115PROXR   C127532  14.728  14.053  13.474 -0.1947  0.4144 -0.1718
  115PROXR  H1127533  14.672  14.134  13.423 -1.3506  0.5362  1.2011
  115PROXR  H1327534  14.640  13.986  13.490 -2.3110  2.9873 -0.3084
  115PROXR   C227535  14.797  14.101  13.601  0.0414 -0.1700  1.0212
  115PROXR  H2127536  14.886  14.162  13.576  0.1929 -1.0085 -0.6378
  115PROXR   C327537  14.855  13.984  13.675  0.5695 -0.5175  0.1786
  115PROXR  H3127538  14.906  14.022  13.765 -0.6250 -1.6086  1.3751
  115PROXR  H3227539  14.773  13.929  13.726 -1.0633  1.7428  0.1155
  115PROXR  H3327540  14.924  13.913  13.624  0.9914 -0.9717  1.3574
  116PROXS   O127541  14.712  14.179  13.678  0.7264 -0.5564 -0.5617
  116PROXS   C127542  14.777  14.247  13.788 -1.2662 -0.1569 -0.4472
  116PROXS  H1127543  14.810  14.166  13.856 -1.0928  0.9694  0.8578
  116PROXS  H1327544  14.870  14.299  13.756 -1.0984  0.7575  1.3747
  116PROXS   C227545  14.677  14.337  13.874  0.1672  0.2917 -0.6755
  116PROXS  H2127546  14.598  14.265  13.905 -2.2309  2.9407 -0.2915
  116PROXS   C327547  14.614  14.451  13.790 -0.8107 -0.3936 -0.0243
  116PROXS  H3127548  14.504  14.448  13.780 -0.8917 -0.6770  0.8411
  116PROXS  H3227549  14.638  14.546  13.843 -1.1989  0.5616 -1.5040
  116PROXS  H3327550  14.654  14.461  13.687 -1.7501  0.6570 -0.2983
  117PROXS   O127551  14.751  14.384  13.987  0.3398  0.1106  0.1573
  117PROXS   C127552  14.668  14.412  14.103 -1.1258  0.3994  0.0923
  117PROXS  H1127553  14.562  14.383  14.090 -0.9841  0.0270 -0.2672
  117PROXS  H1327554  14.711  14.345  14.181  0.9687 -0.2143 -1.4911
  117PROXS   C227555  14.673  14.562  14.143  0.4724  0.3680  0.2164
  117PROXS  H2127556  14.647  14.633  14.061 -2.8623  2.6665  2.9721
  117PROXS   C327557  14.805  14.614  14.205 -0.4470  0.0693 -0.8522
  117PROXS  H3127558  14.811  14.584  14.312 -1.2766 -0.4153 -0.9339
  117PROXS  H3227559  14.900  14.591  14.152 -0.3466  0.0619 -0.6724
  117PROXS  H3327560  14.801  14.725  14.211 -2.9506 -0.0371  3.4817
  118PROXR   O127561  14.573  14.593  14.246 -0.0302 -0.2870 -0.1755
  118PROXR   C127562  14.451  14.630  14.187  0.1609 -0.5510 -0.1967
  118PROXR  H1127563  14.446  14.595  14.081  0.2036 -0.7862 -0.1207
  118PROXR  H1327564  14.362  14.587  14.238  1.7049 -3.7502 -0.0019
  118PROXR   C227565  14.426  14.782  14.193 -0.0610  0.0842 -0.0234
  118PROXR  H2127566  14.498  14.844  14.136 -2.9698  2.5622 -1.2832
  118PROXR   C327567  14.420  14.833  14.337 -0.1958 -0.5259 -0.2683
  118PROXR  H3127568  14.366  14.930  14.339 -1.2479 -1.0719 -1.0052
  118PROXR  H3227569  14.359  14.761  14.396 -2.4390  1.1879 -0.3604
  118PROXR  H3327570  14.519  14.841  14.388  1.7846 -2.6317 -3.4469
  119PROXR   O127571  14.301  14.820  14.127 -0.4926  0.2518 -0.1927
  119PROXR   C127572  14.293  14.958  14.096 -0.4352 -0.1510 -0.3552
  119PROXR  H1127573  14.274  15.010  14.192 -1.0643 -1.0866  0.0399
  119PROXR  H1327574  14.387  15.006  14.060  0.4781 -1.6387 -0.0792
  119PROXR   C227575  14.183  14.985  14.002  0.3389  1.0002 -0.2359
  119PROXR  H2127576  14.092  14.994  14.065  2.0545  1.7697  2.3183
  119PROXR   C327577  14.169  14.875  13.897  0.1536 -0.1130 -0.4708
  119PROXR  H3127578  14.089  14.904  13.826  1.5766  3.4469 -0.8307
  119PROXR  H3227579  14.264  14.852  13.844 -0.2940 -1.2128 -0.8296
  119PROXR  H3327580  14.143  14.785  13.957  0.6253 -0.1988 -0.3904
  120PROXS   O127581  14.205  15.097  13.925  0.0834  0.0990 -0.2968
  120PROXS   C127582  14.212  15.217  13.995  0.1068 -0.4494  0.1387
  120PROXS  H1127583  14.113  15.232  14.043  0.0544 -0.9864  0.1998
  120PROXS  H1327584  14.288  15.211  14.075  0.2540  0.1412  0.0477
  120PROXS   C227585  14.255  15.334  13.905  0.1991  0.2424 -0.4729
  120PROXS  H2127586  14.344  15.302  13.846  1.1245  0.1501  0.9078
  120PROXS   C327587  14.305  15.447  14.007  0.2556 -0.3628 -0.3645
  120PROXS  H3127588  14.228  15.504  14.062  0.5133  0.1941 -0.5687
  120PROXS  H3227589  14.384  15.418  14.080  1.0997 -2.2281 -1.9180
  120PROXS  H3327590  14.348  15.528  13.943 -2.0313  0.2882 -1.1695
  121PROXS   O127591  14.149  15.381  13.826  0.0862 -0.3569  0.2623
  121PROXS   C127592  14.143  15.308  13.706 -0.0303  0.4304  0.0240
  121PROXS  H1127593  14.244  15.282  13.669  0.4071 -0.0118  1.4757
  121PROXS  H1327594  14.079  15.221  13.730 -3.0043  2.3317 -0.4840
  121PROXS   C227595  14.055  15.388  13.606 -0.0233 -0.0405 -0.4574
  121PROXS  H2127596  14.087  15.494  13.596  0.6319 -0.1492  0.3721
  121PROXS   C327597  13.910  15.381  13.658  0.3129 -0.6759 -0.2492
  121PROXS  H3127598  13.884  15.461  13.730  2.5817  2.0457 -2.2259
  121PROXS  H3227599  13.844  15.392  13.569  0.6456 -0.2428 -0.4476
  121PROXS  H3327600  13.898  15.279  13.701  2.4280 -0.1814  1.7215
  122PROXS   O127601  14.056  15.332  13.473  1.0703 -0.4341  0.2617
  122PROXS   C127602  14.177  15.329  13.412 -0.0304 -0.2660  0.3491
  122PROXS  H1127603  14.229  15.426  13.428 -2.2499  1.1897 -0.7724
  122PROXS  H1327604  14.228  15.236  13.444 -1.0335 -1.1228 -0.4667
  122PROXS   C227605  14.136  15.317  13.265 -0.1065 -0.4130 -0.0935
  122PROXS  H2127606  14.050  15.385  13.251  0.6023  0.7273  0.8345
  122PROXS   C327607  14.082  15.181  13.220  0.3775 -0.0041 -0.9487
  122PROXS  H3127608  14.039  15.175  13.118  0.8954 -0.5621 -1.1423
  122PROXS  H3227609  14.160  15.103  13.232  1.4402  1.2805  1.0778
  122PROXS  H3327610  14.000  15.169  13.294  2.5180  1.1920  1.8172
  123PROXS   O127611  14.247  15.350  13.175 -0.3708 -0.2907  0.4086
  123PROXS   C127612  14.207  15.364  13.041 -0.6994 -0.0309 -0.1639
  123PROXS  H1127613  14.159  15.273  12.999 -1.1355  0.3616 -0.5321
  123PROXS  H1327614  14.138  15.449  13.022  0.0603  1.0932  1.7825
  123PROXS   C227615  14.335  15.395  12.949 -0.5377  0.2177 -0.2902
  123PROXS  H2127616  14.429  15.352  12.991  0.4752  2.2779 -0.3340
  123PROXS   C327617  14.359  15.545  12.925  0.6466  0.0462  0.1049
  123PROXS  H3127618  14.266  15.595  12.893 -0.7351 -0.5038  2.9070
  123PROXS  H3227619  14.370  15.604  13.019 -1.1797 -0.2513  0.5309
  123PROXS  H3327620  14.443  15.566  12.856 -1.1684  0.6173 -2.0112
  124PROXR   O127621  14.305  15.354  12.821  0.9772  0.2412 -0.2003
  124PROXR   C127622  14.374  15.232  12.788  0.3474  0.3163  0.4407
  124PROXR  H1127623  14.476  15.275  12.792  0.2305  0.5977  0.4328
  124PROXR  H1327624  14.353  15.142  12.850 -2.8150 -0.9506 -2.1174
  124PROXR   C227625  14.353  15.197  12.636  0.4895 -0.5278 -0.4206
  124PROXR  H2127626  14.387  15.296  12.599  0.0439  0.3107  1.2778
  124PROXR   C327627  14.206  15.164  12.600 -0.8282  0.3118 -0.1362
  124PROXR  H3127628  14.139  15.246  12.633 -1.6776 -0.2443 -0.4382
  124PROXR  H3227629  14.190  15.146  12.491 -0.3354  0.8177 -0.3017
  124PROXR  H3327630  14.181  15.068  12.650 -1.9646 -0.0787 -1.3882
  125PROXS   O127631  14.440  15.099  12.604  0.1103 -0.2857 -0.3409
  125PROXS   C127632  14.545  15.146  12.522 -0.1722 -0.5769  0.4981
  125PROXS  H1127633  14.506  15.207  12.438  2.3620 -0.6627 -0.8484
  125PROXS  H1327634  14.619  15.205  12.580  0.2404 -1.3890  0.8129
  125PROXS   C227635  14.622  15.021  12.470 -0.2657  0.7755 -0.2096
  125PROXS  H2127636  14.650  14.954  12.554 -2.5938  0.5299  0.4207
  125PROXS   C327637  14.762  15.062  12.424  0.0582  0.2208 -0.1936
  125PROXS  H3127638  14.748  15.101  12.321 -0.7747 -4.3450 -2.0423
  125PROXS  H3227639  14.812  15.137  12.489  0.4066  1.4625 -1.8180
  125PROXS  H3327640  14.822  14.969  12.412  1.0946  0.6453  1.4257
  126PROXS   O127641  14.542  14.959  12.367 -0.3548  0.1307 -0.0538
  126PROXS   C127642  14.460  14.852  12.420  0.0921  0.3720  0.1748
  126PROXS  H1127643  14.529  14.777  12.463 -1.0252  1.2788  3.9009
  126PROXS  H1327644  14.399  14.885  12.507 -0.2564 -0.0532  0.0935
  126PROXS   C227645  14.357  14.793  12.320 -0.1817 -0.2986 -0.1475
  126PROXS  H2127646  14.408  14.782  12.222  1.6289 -0.8977  0.8169
  126PROXS   C327647  14.239  14.892  12.304  0.2225 -0.7581 -0.5992
  126PROXS  H3127648  14.288  14.991  12.312  1.2881 -1.2721 -0.5663
  126PROXS  H3227649  14.194  14.899  12.203 -1.5536  2.9509  0.2663
  126PROXS  H3327650  14.162  14.892  12.384  0.7572 -0.5850 -0.0753
  127PROXR   O127651  14.303  14.673  12.375  0.1106  0.1924  0.1857
  127PROXR   C127652  14.376  14.558  12.334 -1.3161  0.2220 -0.1611
  127PROXR  H1127653  14.368  14.559  12.223 -1.4977 -0.5913 -0.1606
  127PROXR  H1327654  14.486  14.571  12.343 -0.9445 -2.7861  0.9104
  127PROXR   C227655  14.328  14.437  12.406  0.8352 -0.0585  0.0745
  127PROXR  H2127656  14.217  14.437  12.407  0.6628  4.1040  0.0630
  127PROXR   C327657  14.365  14.446  12.551 -0.1900 -0.3422  0.2503
  127PROXR  H3127658  14.326  14.360  12.608  0.0215 -0.7539 -0.2161
  127PROXR  H3227659  14.474  14.442  12.569 -0.1167 -3.2384 -0.4106
  127PROXR  H3327660  14.338  14.542  12.600  2.3629 -0.2196  1.5645
  128PROXR   O127661  14.378  14.326  12.344 -0.9563 -0.1019  0.2474
  128PROXR   C127662  14.300  14.207  12.367  0.1277 -0.0084 -0.8500
  128PROXR  H1127663  14.314  14.172  12.472  1.8684 -2.5276 -1.8185
  128PROXR  H1327664  14.194  14.217  12.337  0.1335  2.5396 -0.2852
  128PROXR   C227665  14.356  14.101  12.279 -0.1072  0.2515 -0.9046
  128PROXR  H2127666  14.465  14.096  12.303 -0.2334 -0.1342 -0.3998
  128PROXR   C327667  14.332  14.140  12.132  0.2350  0.2196 -0.2476
  128PROXR  H3127668  14.224  14.123  12.110  0.5520  0.1316 -1.9145
  128PROXR  H3227669  14.362  14.245  12.110 -0.7308  0.6298  0.3388
  128PROXR  H3327670  14.401  14.079  12.070  1.1987  0.3245  0.6868
  129PROXS   O127671  14.297  13.977  12.317  0.0471  0.3406  0.1290
  129PROXS   C127672  14.382  13.864  12.284  0.4635 -0.3486  0.0150
  129PROXS  H1127673  14.434  13.872  12.186 -1.2807 -1.1756 -1.0334
  129PROXS  H1327674  14.459  13.866  12.364  1.4762  1.1204 -0.9382
  129PROXS   C227675  14.305  13.731  12.310  0.8181  0.2627  0.4498
  129PROXS  H2127676  14.226  13.729  12.232 -0.0659 -0.9630  1.3286
  129PROXS   C327677  14.239  13.723  12.447  0.6438  0.3654  0.3946
  129PROXS  H3127678  14.186  13.818  12.469  0.1860  0.2512 -0.1929
  129PROXS  H3227679  14.163  13.643  12.442 -1.4801  2.3086 -0.3998
  129PROXS  H3327680  14.308  13.699  12.530 -0.2920 -2.7510  0.3772
  130PROXS   O127681  14.401  13.627  12.279  0.1188 -0.3167 -0.4677
  130PROXS   C127682  14.325  13.518  12.225  0.4252  0.5852 -0.0479
  130PROXS  H1127683  14.248  13.486  12.299 -0.2858  0.9816 -0.6042
  130PROXS  H1327684  14.263  13.548  12.138 -0.1265  0.6469  0.3569
  130PROXS   C227685  14.423  13.410  12.177 -0.4062  0.3628 -0.2224
  130PROXS  H2127686  14.494  13.392  12.261 -1.1871 -1.9547  0.0061
  130PROXS   C327687  14.494  13.445  12.047 -0.4520 -0.3980  0.1031
  130PROXS  H3127688  14.539  13.546  12.051 -0.0531 -0.4682 -1.7425
  130PROXS  H3227689  14.569  13.369  12.015 -0.2212  0.3286 -1.1099
  130PROXS  H3327690  14.428  13.447  11.958  0.5904 -1.5152 -0.7329
  131PROXS   O127691  14.346  13.294  12.147 -0.0875 -0.2918 -0.5538
  131PROXS   C127692  14.426  13.176  12.126  0.5109  0.7095  0.9915
  131PROXS  H1127693  14.499  13.186  12.043  3.0491  0.6728  3.1041
  131PROXS  H1327694  14.473  13.159  12.225  0.4829 -0.7446  0.7831
  131PROXS   C227695  14.334  13.056  12.099 -0.3483 -0.1458 -0.1361
  131PROXS  H2127696  14.300  13.063  11.993 -0.2312  0.4095 -0.1418
  131PROXS   C327697  14.201  13.061  12.183  0.3397  0.0609 -0.0651
  131PROXS  H3127698  14.228  13.048  12.290  2.0375  0.8198 -0.3754
  131PROXS  H3227699  14.144  13.155  12.165 -1.9062 -0.7961  1.9902
  131PROXS  H3327700  14.149  12.970  12.146 -1.4047  0.0113  2.2769
  132PROXS   O127701  14.397  12.932  12.128 -0.2815 -0.0897  0.4267
  132PROXS   C127702  14.504  12.912  12.030 -0.7492 -0.1638 -0.5461
  132PROXS  H1127703  14.464  12.911  11.927  0.3254  0.9782 -1.0008
  132PROXS  H1327704  14.581  12.992  12.028 -1.4725  0.7811  2.8668
  132PROXS   C227705  14.573  12.779  12.057  0.2847  0.9520 -0.8070
  132PROXS  H2127706  14.489  12.706  12.060  1.1236 -0.0143  1.2360
  132PROXS   C327707  14.639  12.778  12.190  0.1387 -0.9831 -0.4218
  132PROXS  H3127708  14.727  12.845  12.199 -0.3850 -0.4189  0.7143
  132PROXS  H3227709  14.559  12.801  12.264  1.1265 -0.3135  0.4802
  132PROXS  H3327710  14.665  12.676  12.225 -1.4681 -0.3772  3.0176
  133PROXS   O127711  14.673  12.754  11.956 -0.0472 -0.2463 -0.3121
  133PROXS   C127712  14.695  12.616  11.934  0.3692  0.1068  0.7353
  133PROXS  H1127713  14.674  12.562  12.029 -0.2201 -0.8215  0.0934
  133PROXS  H1327714  14.615  12.585  11.863 -0.2676 -0.1494  1.5597
  133PROXS   C227715  14.832  12.586  11.866  0.2502 -0.2118  0.5903
  133PROXS  H2127716  14.859  12.664  11.791  2.4909 -1.1005  0.3953
  133PROXS   C327717  14.828  12.455  11.779  0.3883  0.4466  0.4561
  133PROXS  H3127718  14.931  12.431  11.745 -0.5088 -1.0820 -1.3385
  133PROXS  H3227719  14.791  12.372  11.843 -3.0523  1.4365 -0.0237
  133PROXS  H3327720  14.760  12.468  11.692 -0.3316 -2.2187  0.5397
  134PROXS   O127721  14.932  12.571  11.962 -0.1599 -0.6525 -0.3813
  134PROXS   C127722  14.960  12.682  12.044 -0.0301 -0.4422 -0.6918
  134PROXS  H1127723  14.971  12.775  11.983 -0.2204  0.0545  0.0231
  134PROXS  H1327724  14.878  12.683  12.119  0.2384  0.9005 -0.3743
  134PROXS   C227725  15.089  12.660  12.127  0.1783  0.2793 -0.1359
  134PROXS  H2127726  15.154  12.608  12.054  0.3635 -2.2190  1.6895
  134PROXS   C327727  15.075  12.567  12.244 -0.1132  0.0486 -0.8941
  134PROXS  H3127728  15.027  12.625  12.325  0.1782 -0.8711 -0.0323
  134PROXS  H3227729  15.012  12.479  12.219 -3.6090  1.8538  0.9285
  134PROXS  H3327730  15.167  12.530  12.295 -0.4229 -0.6532 -0.8352
  135PROXS   O127731  15.116  12.785  12.185 -0.7397  0.4323  0.2597
  135PROXS   C127732  15.259  12.800  12.208  0.2646 -0.4187  0.6367
  135PROXS  H1127733  15.281  12.767  12.312 -1.4190  1.6563  1.7303
  135PROXS  H1327734  15.328  12.750  12.136  1.5369  2.9483 -0.6537
  135PROXS   C227735  15.316  12.947  12.222  1.2720 -0.1402  0.3519
  135PROXS  H2127736  15.250  12.999  12.295  0.9114  0.8075 -0.6240
  135PROXS   C327737  15.306  13.027  12.092 -0.2132  0.0895  0.8252
  135PROXS  H3127738  15.202  13.006  12.059 -0.4866  0.5757  1.3544
  135PROXS  H3227739  15.314  13.136  12.112  2.3240  0.2033 -0.4671
  135PROXS  H3327740  15.383  12.989  12.022 -2.0923 -4.8575  0.9925
  136PROXS   O127741  15.452  12.932  12.264  0.3349  0.4951  0.0237
  136PROXS   C127742  15.516  13.040  12.320  0.0155 -0.2166  0.1431
  136PROXS  H1127743  15.493  13.127  12.255  2.5351  0.1517 -0.3686
  136PROXS  H1327744  15.489  13.063  12.425 -1.1860  1.1970 -0.4386
  136PROXS   C227745  15.666  13.017  12.308  0.7449 -0.3564  0.6867
  136PROXS  H2127746  15.688  13.015  12.199  0.4832  0.6187  0.6088
  136PROXS   C327747  15.703  12.885  12.364  0.3434  0.3642  0.5374
  136PROXS  H3127748  15.632  12.809  12.325  0.1847 -0.2260  1.9102
  136PROXS  H3227749  15.802  12.849  12.330 -0.5679 -3.3815  1.3875
  136PROXS  H3327750  15.698  12.890  12.475 -0.4895 -0.3832  0.5410
  137PROXS   O127751  15.739  13.116  12.377 -0.1192 -0.0554  0.1848
  137PROXS   C127752  15.866  13.142  12.315  0.1167 -0.1918 -0.0472
  137PROXS  H1127753  15.929  13.193  12.392  1.5656 -2.0676  0.0780
  137PROXS  H1327754  15.921  13.047  12.296  2.4374  1.1975 -0.7098
  137PROXS   C227755  15.871  13.234  12.187 -0.1160 -0.1468 -0.7503
  137PROXS  H2127756  15.791  13.205  12.116  1.4846  1.0383 -3.1761
  137PROXS   C327757  16.009  13.225  12.121 -0.9095  0.2255 -0.5641
  137PROXS  H3127758  16.013  13.286  12.029 -2.9615 -0.2770 -1.0422
  137PROXS  H3227759  16.086  13.266  12.190 -2.1489 -0.1015  1.0815
  137PROXS  H3327760  16.032  13.120  12.094  4.6190  1.4266 -1.7469
  138PROXR   O127761  15.852  13.374  12.227 -0.1161  0.0806 -0.2808
  138PROXR   C127762  15.793  13.451  12.123  0.1295  0.6942  0.4588
  138PROXR  H1127763  15.836  13.437  12.021 -0.5274 -0.0701  0.2795
  138PROXR  H1327764  15.696  13.398  12.114  0.2893  0.5733 -0.6871
  138PROXR   C227765  15.782  13.599  12.164 -0.8843  0.2421  0.0008
  138PROXR  H2127766  15.880  13.647  12.183 -1.5817  1.1995  1.3390
  138PROXR   C327767  15.703  13.610  12.294  0.0217  0.0433 -0.0232
  138PROXR  H3127768  15.672  13.715  12.310  2.7404  0.7120  1.5921
  138PROXR  H3227769  15.626  13.531  12.281  1.3945 -1.4094  0.3162
  138PROXR  H3327770  15.780  13.584  12.370  1.0463 -0.4161 -1.1864
  139PROXS   O127771  15.694  13.669  12.076  0.3123  0.2530 -0.2156
  139PROXS   C127772  15.761  13.728  11.964  0.5908  0.1772 -0.5597
  139PROXS  H1127773  15.832  13.804  12.001  1.6034 -0.6169 -0.8249
  139PROXS  H1327774  15.832  13.655  11.919  1.2357  0.8758 -0.7104
  139PROXS   C227775  15.656  13.771  11.870 -0.4577 -0.0452  0.1258
  139PROXS  H2127776  15.577  13.692  11.867  0.9913 -1.6161  1.1665
  139PROXS   C327777  15.707  13.791  11.726 -0.8854 -0.0754 -0.3321
  139PROXS  H3127778  15.782  13.872  11.720 -3.1329  2.0112 -2.3800
  139PROXS  H3227779  15.764  13.701  11.694  0.2418  0.6516 -0.3864
  139PROXS  H3327780  15.621  13.815  11.659 -0.2101  0.6353 -0.9552
  140PROXR   O127781  15.600  13.896  11.914  0.0888 -0.6673 -0.7324
  140PROXR   C127782  15.524  13.899  12.040  0.0410 -0.0882  0.4232
  140PROXR  H1127783  15.467  13.804  12.053  0.6041 -0.7229 -1.4766
  140PROXR  H1327784  15.592  13.934  12.120  0.8298 -1.8025  0.5407
  140PROXR   C227785  15.411  14.009  12.038  0.7024  0.3642  0.0990
  140PROXR  H2127786  15.334  13.985  11.961  0.1083  0.8854  0.5121
  140PROXR   C327787  15.465  14.156  11.992  0.0439  0.1597 -0.1566
  140PROXR  H3127788  15.538  14.187  12.069  0.3230  1.5592 -0.9577
  140PROXR  H3227789  15.529  14.142  11.903  3.7007  0.2728  2.2593
  140PROXR  H3327790  15.379  14.225  11.980  0.0052  0.2501  0.6036
  141PROXS   O127791  15.349  14.021  12.167  0.1428  0.1564  0.1762
  141PROXS   C127792  15.273  13.907  12.202 -0.2399 -0.7796 -0.2310
  141PROXS  H1127793  15.208  13.890  12.114 -1.6761  1.7809  0.2098
  141PROXS  H1327794  15.339  13.824  12.234  2.7581  1.3907 -0.3792
  141PROXS   C227795  15.168  13.940  12.312 -0.5878 -0.0791  0.1071
  141PROXS  H2127796  15.111  14.031  12.283 -1.2115  0.2755  2.2571
  141PROXS   C327797  15.234  13.992  12.442  0.7152  0.1025 -0.3813
  141PROXS  H3127798  15.151  14.008  12.514 -0.1120 -2.0588 -0.7740
  141PROXS  H3227799  15.298  13.917  12.493  2.2437  2.3348  1.1599
  141PROXS  H3327800  15.292  14.085  12.423 -0.1460  1.3373  2.4334
  142PROXS   O127801  15.088  13.825  12.324 -0.1190  0.9030 -0.7799
  142PROXS   C127802  14.960  13.854  12.379  0.6850  0.0918 -0.3196
  142PROXS  H1127803  14.978  13.869  12.488  0.1070  0.9777 -0.3386
  142PROXS  H1327804  14.910  13.942  12.332  0.2109 -0.4754 -0.8953
  142PROXS   C227805  14.867  13.734  12.363 -0.0675  0.3102  0.7066
  142PROXS  H2127806  14.920  13.640  12.390 -0.1524 -0.2711 -1.0230
  142PROXS   C327807  14.808  13.725  12.219 -0.9145 -0.1762  0.0623
  142PROXS  H3127808  14.742  13.809  12.192  0.1012  0.6963  0.2305
  142PROXS  H3227809  14.895  13.711  12.150  0.1754 -0.3936  1.4348
  142PROXS  H3327810  14.733  13.643  12.213 -1.6258  0.3569  1.3533
  143PROXS   O127811  14.749  13.751  12.432  0.6853 -0.0771  0.2411
  143PROXS   C127812  14.758  13.782  12.570 -0.8842 -0.4432 -0.0181
  143PROXS  H1127813  14.844  13.718  12.601  0.8013  0.7203 -2.0677
  143PROXS  H1327814  14.790  13.887  12.589  2.2944 -1.2936 -0.0418
  143PROXS   C227815  14.629  13.756  12.629 -0.4412  0.9533  0.4363
  143PROXS  H2127816  14.549  13.783  12.556  0.0122  0.3017 -0.3126
  143PROXS   C327817  14.599  13.842  12.756  0.4997  0.5848  0.0554
  143PROXS  H3127818  14.602  13.951  12.736  0.7458  0.6456  0.4039
  143PROXS  H3227819  14.505  13.804  12.802  0.5220 -0.4010 -0.6934
  143PROXS  H3327820  14.689  13.828  12.819  1.7866  1.7507 -1.4321
  144PROXS   O127821  14.627  13.616  12.658 -0.5288 -0.2482 -0.5085
  144PROXS   C127822  14.504  13.555  12.621 -0.0704  0.9873 -0.3117
  144PROXS  H1127823  14.418  13.581  12.686 -1.9886 -2.9251 -0.9965
  144PROXS  H1327824  14.478  13.565  12.514 -0.9692 -2.7475 -0.5899
  144PROXS   C227825  14.524  13.398  12.644  0.1993  0.0025  0.1773
  144PROXS  H2127826  14.548  13.388  12.752 -1.3523 -1.0500  0.4674
  144PROXS   C327827  14.630  13.340  12.548 -0.3388  0.3444 -0.4413
  144PROXS  H3127828  14.680  13.250  12.590 -0.6355 -0.5566 -1.9354
  144PROXS  H3227829  14.583  13.332  12.448 -1.3069  2.6542 -0.2412
  144PROXS  H3327830  14.707  13.417  12.527 -0.8773  1.0458  0.0787
  145PROXR   O127831  14.404  13.334  12.610  0.6461 -0.4184  0.4216
  145PROXR   C127832  14.402  13.198  12.657 -0.3776 -0.3114  1.0230
  145PROXR  H1127833  14.500  13.146  12.646 -0.5425 -0.8021  1.8405
  145PROXR  H1327834  14.363  13.195  12.760  1.1345  1.6405  1.7274
  145PROXR   C227835  14.301  13.104  12.583  0.0604  0.4059 -0.3246
  145PROXR  H2127836  14.345  13.093  12.482  0.8541  0.1469  0.0357
  145PROXR   C327837  14.164  13.172  12.576 -0.3028 -0.4002  0.0725
  145PROXR  H3127838  14.177  13.276  12.538 -1.5893 -0.4256 -0.4771
  145PROXR  H3227839  14.108  13.123  12.494  1.1308 -0.8011 -0.7088
  145PROXR  H3327840  14.114  13.168  12.675  1.1126 -0.1404  0.8231
  146PROXS   O127841  14.304  12.976  12.654  0.0038  0.2892  0.2332
  146PROXS   C127842  14.242  12.875  12.577  0.1023  0.5062 -0.5122
  146PROXS  H1127843  14.151  12.842  12.630  0.3411 -1.2072 -1.1085
  146PROXS  H1327844  14.210  12.917  12.479  0.0287 -0.6355 -0.9889
  146PROXS   C227845  14.335  12.755  12.558 -0.3302  0.3487  0.8169
  146PROXS  H2127846  14.434  12.782  12.515 -0.7239  1.2953  0.4987
  146PROXS   C327847  14.270  12.648  12.470 -0.9244 -0.4398  0.3171
  146PROXS  H3127848  14.254  12.688  12.367 -0.6658 -0.6742  0.1827
  146PROXS  H3227849  14.337  12.560  12.458 -1.5340 -0.8367 -0.2294
  146PROXS  H3327850  14.172  12.622  12.514 -0.2662  0.1428  2.2153
  147PROXR   O127851  14.364  12.684  12.681  0.3166 -0.3564  0.1397
  147PROXR   C127852  14.475  12.740  12.756  0.0519  0.3348 -0.1002
  147PROXR  H1127853  14.572  12.738  12.701 -0.6086 -1.7824 -1.3083
  147PROXR  H1327854  14.463  12.850  12.769  0.8512  0.6571 -1.8085
  147PROXR   C227855  14.492  12.657  12.893 -0.2882 -0.4415 -0.4698
  147PROXR  H2127856  14.508  12.551  12.867  0.5403  0.0179 -1.9628
  147PROXR   C327857  14.359  12.689  12.975  0.1763 -0.2769 -0.5302
  147PROXR  H3127858  14.276  12.662  12.906  0.5791  0.4886 -1.3159
  147PROXR  H3227859  14.354  12.646  13.078  1.7955  2.4373  0.7860
  147PROXR  H3327860  14.353  12.798  12.996 -0.1704 -0.2400 -0.8069
  148PROXR   O127861  14.616  12.703  12.951  0.4519 -0.0786  0.3391
  148PROXR   C127862  14.666  12.622  13.054 -0.0550 -0.3180 -0.5172
  148PROXR  H1127863  14.586  12.582  13.120 -1.5374 -1.3235 -2.7690
  148PROXR  H1327864  14.715  12.538  13.000  0.2860 -1.4837  1.4789
  148PROXR   C227865  14.779  12.689  13.138  0.1802  0.3470 -0.1277
  148PROXR  H2127866  14.758  12.798  13.142  0.2614  0.4555 -2.0330
  148PROXR   C327867  14.914  12.693  13.064 -0.0432  0.7304 -0.3051
  148PROXR  H3127868  14.887  12.757  12.977 -0.7646 -0.5853 -1.0872
  148PROXR  H3227869  14.993  12.729  13.133 -2.5460  1.4757  2.3827
  148PROXR  H3327870  14.943  12.589  13.036 -0.9385  0.0015  1.3147
  149PROXR   O127871  14.792  12.620  13.263 -0.2441  0.3416  0.2724
  149PROXR   C127872  14.705  12.669  13.365 -0.6188 -1.1801 -0.6147
  149PROXR  H1127873  14.728  12.776  13.383 -1.3166 -1.5605  3.6185
  149PROXR  H1327874  14.600  12.656  13.329 -0.6222  0.7945 -1.4686
  149PROXR   C227875  14.723  12.590  13.499  0.4775 -0.2645  0.6763
  149PROXR  H2127876  14.825  12.625  13.526  1.9610 -1.5388 -2.7113
  149PROXR   C327877  14.719  12.440  13.483  0.2612  0.3838 -0.3549
  149PROXR  H3127878  14.615  12.403  13.470 -0.6217  2.8307 -0.8522
  149PROXR  H3227879  14.784  12.395  13.405  3.4954  2.2425  1.0740
  149PROXR  H3327880  14.764  12.401  13.577  0.6530  1.8467  0.1014
  150PROXS   O127881  14.617  12.622  13.593 -0.2981 -0.4087 -0.2525
  150PROXS   C127882  14.602  12.762  13.622 -0.3615 -0.3164 -0.1935
  150PROXS  H1127883  14.708  12.788  13.640 -0.0228 -2.2295  0.7714
  150PROXS  H1327884  14.572  12.831  13.540  0.5783 -0.2827 -0.5191
  150PROXS   C227885  14.522  12.779  13.754 -0.2245  0.4280  0.1053
  150PROXS  H2127886  14.526  12.690  13.820 -0.7915 -0.9155 -1.5976
  150PROXS   C327887  14.375  12.796  13.720  0.7219 -0.0635  0.5539
  150PROXS  H3127888  14.312  12.841  13.799 -0.3874 -0.6570  0.0248
  150PROXS  H3227889  14.369  12.850  13.623  0.8880  0.0506  0.6052
  150PROXS  H3327890  14.335  12.693  13.712  1.7107 -0.4295  0.1284
  151PROXR   O127891  14.573  12.887  13.832  0.4556 -0.9212 -0.5807
  151PROXR   C127892  14.563  12.869  13.970 -1.0284  0.1060 -0.2753
  151PROXR  H1127893  14.457  12.850  13.997 -0.8639  0.9943  1.0845
  151PROXR  H1327894  14.632  12.785  13.995 -2.5932 -0.4263  2.6231
  151PROXR   C227895  14.615  12.990  14.042 -0.1526  0.4944 -0.4965
  151PROXR  H2127896  14.569  13.082  14.000  0.3504  1.9155  1.8817
  151PROXR   C327897  14.767  13.006  14.043 -0.2288  0.0549  0.1088
  151PROXR  H3127898  14.807  12.997  13.939 -0.7639  0.5780 -0.1482
  151PROXR  H3227899  14.792  13.111  14.068  1.2421  0.5615 -2.9089
  151PROXR  H3327900  14.823  12.940  14.112  2.7315  2.1661 -0.0691
  152PROXR   O127901  14.582  12.977  14.177 -0.5327  0.2083 -0.6263
  152PROXR   C127902  14.565  13.105  14.238 -0.4204 -0.3120 -1.3079
  152PROXR  H1127903  14.651  13.174  14.236 -0.2668 -0.5097 -1.7966
  152PROXR  H1327904  14.490  13.162  14.178 -0.9468  1.1680  0.6681
  152PROXR   C227905  14.526  13.100  14.387  1.0512 -1.4874  0.5432
  152PROXR  H2127906  14.613  13.062  14.444 -0.9409  0.8993  5.8141
  152PROXR   C327907  14.391  13.017  14.412  0.4083  0.6387 -0.2733
  152PROXR  H3127908  14.308  13.088  14.433 -0.5992 -0.8646  1.0341
  152PROXR  H3227909  14.383  12.950  14.324  0.9853  0.6079 -0.3031
  152PROXR  H3327910  14.403  12.948  14.498  0.8896 -0.0994 -0.9155
  153PROXR   O127911  14.502  13.235  14.430 -0.1136  0.6926  0.3653
  153PROXR   C127912  14.527  13.251  14.569  0.5784  0.1002 -0.2519
  153PROXR  H1127913  14.470  13.172  14.622 -0.3674  0.1651 -1.1231
  153PROXR  H1327914  14.637  13.246  14.576  0.7855 -0.0425 -2.6170
  153PROXR   C227915  14.485  13.386  14.636 -0.0427  0.5097  1.2527
  153PROXR  H2127916  14.482  13.465  14.557  1.6303 -0.5712  0.0430
  153PROXR   C327917  14.589  13.413  14.740 -0.0950  0.0804 -0.0006
  153PROXR  H3127918  14.693  13.409  14.700  0.2432 -0.9741  0.9424
  153PROXR  H3227919  14.579  13.514  14.785 -0.8417  0.0362 -0.0602
  153PROXR  H3327920  14.588  13.340  14.824  1.0299 -0.7493 -0.6704
  154PROXS   O127921  14.359  13.372  14.690 -0.4319  0.3201 -0.3746
  154PROXS   C127922  14.254  13.358  14.591  0.5970  0.1687 -0.4845
  154PROXS  H1127923  14.290  13.273  14.529  1.3276  0.2984 -0.2422
  154PROXS  H1327924  14.164  13.312  14.637 -1.2990  1.8647 -2.2700
  154PROXS   C227925  14.212  13.489  14.524 -0.2593  0.7888 -0.7562
  154PROXS  H2127926  14.292  13.536  14.463  0.4242 -1.4290 -1.6690
  154PROXS   C327927  14.149  13.599  14.609  0.1881 -0.6494 -0.2648
  154PROXS  H3127928  14.227  13.652  14.669  0.8378 -1.1792 -0.6323
  154PROXS  H3227929  14.092  13.673  14.549  2.4315  0.9459 -0.5624
  154PROXS  H3327930  14.079  13.556  14.684 -1.7838 -0.7741 -2.0880
  155PROXR   O127931  14.096  13.465  14.436  0.0381  0.8170 -0.4127
  155PROXR   C127932  14.122  13.368  14.327 -0.2781 -0.0999  0.5536
  155PROXR  H1127933  14.219  13.393  14.279 -0.4686  1.4827  0.9352
  155PROXR  H1327934  14.127  13.262  14.359  1.2296 -0.6127 -1.1954
  155PROXR   C227935  14.009  13.367  14.221 -0.4368  1.1066  0.6220
  155PROXR  H2127936  14.006  13.471  14.182  1.4879  1.9659  2.5287
  155PROXR   C327937  13.867  13.330  14.285  0.5261 -0.2939  0.2179
  155PROXR  H3127938  13.794  13.342  14.203  1.9746  1.8304 -0.8517
  155PROXR  H3227939  13.860  13.226  14.323 -1.3869 -0.5265 -0.6853
  155PROXR  H3327940  13.835  13.394  14.370 -0.7686 -0.8950  0.2067
  156PROXS   O127941  14.039  13.278  14.113 -0.3261  0.1548  0.0726
  156PROXS   C127942  14.153  13.320  14.032  0.3856  0.5710 -0.1424
  156PROXS  H1127943  14.144  13.424  13.993 -0.8980  0.9016  0.9437
  156PROXS  H1327944  14.244  13.320  14.095 -0.5892 -0.1126  1.3250
  156PROXS   C227945  14.174  13.220  13.923  0.2529 -0.5082 -0.4022
  156PROXS  H2127946  14.087  13.230  13.854 -1.4460  1.0757  1.8133
  156PROXS   C327947  14.175  13.067  13.975 -0.3713  0.5959  0.3093
  156PROXS  H3127948  14.085  13.035  14.031 -0.5498  0.5206 -0.0200
  156PROXS  H3227949  14.193  12.999  13.889  1.5736  0.4507  0.7860
  156PROXS  H3327950  14.262  13.061  14.044  0.5175  1.4886 -0.6864
  157PROXS   O127951  14.296  13.237  13.858 -0.4664  0.5732 -0.3401
  157PROXS   C127952  14.298  13.201  13.718 -0.3196 -0.2143 -0.3513
  157PROXS  H1127953  14.293  13.090  13.711 -2.0863 -0.4310  2.8462
  157PROXS  H1327954  14.209  13.247  13.669 -0.6345 -0.5607 -0.1057
  157PROXS   C227955  14.429  13.253  13.646  0.1166 -0.0663 -0.1326
  157PROXS  H2127956  14.509  13.244  13.723 -1.0932 -0.9779  1.0741
  157PROXS   C327957  14.412  13.401  13.613 -0.9565 -0.6658 -0.1345
  157PROXS  H3127958  14.409  13.473  13.698  0.1657  1.6472 -1.9356
  157PROXS  H3227959  14.493  13.444  13.550 -1.1498 -0.0437  0.0371
  157PROXS  H3327960  14.318  13.406  13.555 -0.1834 -0.1492 -1.3881
  158PROXR   O127961  14.451  13.177  13.529 -0.4312  0.0112 -0.0468
  158PROXR   C127962  14.590  13.169  13.503 -0.0635 -0.8412 -0.0912
  158PROXR  H1127963  14.643  13.267  13.516 -2.7660  0.4406  2.3489
  158PROXR  H1327964  14.634  13.088  13.566  0.6022 -0.6737 -0.3264
  158PROXR   C227965  14.612  13.130  13.357 -0.5855  0.5813  0.1226
  158PROXR  H2127966  14.619  13.219  13.291  0.9390  1.5374  1.5019
  158PROXR   C327967  14.517  13.028  13.302  0.1054 -0.0206 -0.1078
  158PROXR  H3127968  14.520  12.945  13.376 -0.7235  1.3302  1.5154
  158PROXR  H3227969  14.412  13.063  13.294  0.0822 -0.2125 -0.6910
  158PROXR  H3327970  14.559  12.990  13.206  0.1511  2.6044 -1.2118
  159PROXR   O127971  14.742  13.067  13.340  0.5549  1.0750  0.2311
  159PROXR   C127972  14.849  13.155  13.349  0.8104 -0.2052 -0.7485
  159PROXR  H1127973  14.839  13.232  13.270  1.4043 -0.2835 -0.9073
  159PROXR  H1327974  14.856  13.201  13.449 -1.6697  0.8271 -0.9966
  159PROXR   C227975  14.971  13.070  13.308 -0.5327 -0.7610 -0.3517
  159PROXR  H2127976  14.951  13.026  13.208 -1.7471 -0.8727 -0.0801
  159PROXR   C327977  15.005  12.964  13.413 -0.1254  0.1879 -0.3336
  159PROXR  H3127978  15.002  12.997  13.519 -1.9793  0.5427 -0.4654
  159PROXR  H3227979  14.925  12.888  13.406 -0.6335  0.7480 -0.7732
  159PROXR  H3327980  15.107  12.923  13.395 -0.3147 -0.5684  0.3245
  160PROXS   O127981  15.081  13.152  13.307 -0.6157 -0.5143  0.3929
  160PROXS   C127982  15.113  13.204  13.178 -0.1375  0.1284  0.5027
  160PROXS  H1127983  15.020  13.219  13.118  0.7275  0.4917 -0.7784
  160PROXS  H1327984  15.170  13.299  13.183 -1.3657  0.9465 -0.2988
  160PROXS   C227985  15.209  13.106  13.104  0.5886 -0.1873 -0.3059
  160PROXS  H2127986  15.163  13.005  13.094 -0.9193  0.4720 -0.2495
  160PROXS   C327987  15.341  13.095  13.171  0.0175  0.0608  0.3048
  160PROXS  H3127988  15.399  13.018  13.116 -4.3043 -1.7634 -2.2036
  160PROXS  H3227989  15.389  13.195  13.178  2.0721 -0.8579  0.2579
  160PROXS  H3327990  15.341  13.069  13.279 -1.2374 -2.0712 -0.1521
  161PROXR   O127991  15.241  13.170  12.979  0.2194 -0.1395  0.4611
  161PROXR   C127992  15.236  13.078  12.868  0.3289  0.7565 -0.6905
  161PROXR  H1127993  15.293  12.987  12.897  0.9218  1.1480 -0.6142
  161PROXR  H1327994  15.131  13.045  12.848  1.1538 -1.1951 -2.1770
  161PROXR   C227995  15.296  13.137  12.739 -0.0835  0.2109 -0.2635
  161PROXR  H2127996  15.277  13.247  12.741  0.6521  0.3381  0.4336
  161PROXR   C327997  15.230  13.093  12.608  0.3516 -0.6059  0.4274
  161PROXR  H3127998  15.121  13.116  12.607  0.3551 -0.5947 -0.0333
  161PROXR  H3227999  15.263  13.130  12.508 -0.8266 -0.5719  0.0300
  161PROXR  H3328000  15.244  12.983  12.611  0.8268 -0.5706  4.0985
  162PROXR   O128001  15.435  13.120  12.722 -0.1324  0.1381  0.0859
  162PROXR   C128002  15.510  13.198  12.810  0.0122  0.3422 -0.0011
  162PROXR  H1128003  15.503  13.305  12.782  1.0829  0.0813 -1.3998
  162PROXR  H1328004  15.464  13.183  12.910  0.0103  2.2568  0.3166
  162PROXR   C228005  15.658  13.160  12.820 -0.1544  0.7195  0.4640
  162PROXR  H2128006  15.707  13.166  12.720 -0.2036  2.3731  0.5156
  162PROXR   C328007  15.667  13.013  12.877 -0.1518 -0.0153 -0.1135
  162PROXR  H3128008  15.628  13.019  12.981  0.6757 -2.1260  0.3669
  162PROXR  H3228009  15.608  12.941  12.817 -2.1170  0.5086  1.0909
  162PROXR  H3328010  15.774  12.983  12.877  0.0476  0.6378  1.1814
  163PROXS   O128011  15.726  13.245  12.899  0.0702 -0.9921 -0.3117
  163PROXS   C128012  15.728  13.379  12.844 -0.2804  0.4308  0.0063
  163PROXS  H1128013  15.712  13.376  12.734 -1.8912  0.1411  0.2171
  163PROXS  H1328014  15.635  13.424  12.885 -0.4784  1.2797 -1.3192
  163PROXS   C228015  15.858  13.450  12.898  0.1507  0.1443 -0.7885
  163PROXS  H2128016  15.945  13.387  12.871 -0.7172 -1.1918 -0.5813
  163PROXS   C328017  15.861  13.467  13.053 -0.3638  0.0628  0.1776
  163PROXS  H3128018  15.773  13.528  13.082 -1.0153 -0.9476  0.3732
  163PROXS  H3228019  15.852  13.366  13.099 -0.9660  0.8069  1.7725
  163PROXS  H3328020  15.959  13.516  13.073 -0.5830  1.2931 -1.6107
  164PROXR   O128021  15.875  13.577  12.829  0.0396  0.1996 -0.3995
  164PROXR   C128022  15.995  13.650  12.860 -0.0410 -0.3027  0.1614
  164PROXR  H1128023  15.991  13.680  12.967  2.6264 -1.0423  0.5328
  164PROXR  H1328024  16.085  13.587  12.842 -0.3181 -0.1812 -1.8957
  164PROXR   C228025  15.995  13.787  12.778 -0.9785  0.1564  0.1906
  164PROXR  H2128026  15.910  13.850  12.813  0.2322  0.7084  2.3578
  164PROXR   C328027  15.991  13.749  12.632 -0.0490  0.6248  0.1622
  164PROXR  H3128028  15.896  13.698  12.604  0.1651  0.7684 -0.8814
  164PROXR  H3228029  15.982  13.842  12.572  0.8112  0.8477  0.3665
  164PROXR  H3328030  16.070  13.680  12.595 -2.3581 -1.3580 -1.4717
  165PROXR   O128031  16.113  13.859  12.806  0.3637 -0.0087 -0.3248
  165PROXR   C128032  16.107  13.940  12.926 -0.1236  0.7828  0.3104
  165PROXR  H1128033  16.084  14.044  12.895 -1.8975 -0.5227 -3.2872
  165PROXR  H1328034  16.019  13.909  12.986 -0.4957  2.2597  0.5668
  165PROXR   C228035  16.232  13.923  13.013 -0.1067 -0.1059  0.2021
  165PROXR  H2128036  16.315  13.966  12.952 -1.8675  1.3413 -1.2952
  165PROXR   C328037  16.281  13.781  13.044 -0.0263  0.1627 -0.0360
  165PROXR  H3128038  16.378  13.788  13.096  0.0002 -0.7224  0.0403
  165PROXR  H3228039  16.216  13.718  13.109  1.4768 -0.4925  0.8809
  165PROXR  H3328040  16.295  13.724  12.949 -0.6427  2.2562 -1.4705
  166ETHOX   O128041  16.216  13.995  13.133 -0.0239 -0.2859  0.1364
  166ETHOX   C128042  16.329  14.001  13.224 -0.5223  0.2221 -1.1176
  166ETHOX  H1128043  16.424  13.977  13.172  1.0436 -0.0078  1.6781
  166ETHOX  H1328044  16.314  13.911  13.287 -1.2763  0.5029 -0.8867
  166ETHOX   C228045  16.324  14.119  13.309  0.1352  0.3454 -0.5803
  166ETHOX  H2128046  16.283  14.091  13.408 -1.2747 -0.0514 -1.2333
  166ETHOX  H2328047  16.257  14.192  13.258 -0.8658  1.1453  1.7356
  167ETHOX   O128048  16.447  14.184  13.332 -0.0525  0.2522  0.0212
  167ETHOX   C128049  16.423  14.304  13.412  0.3740 -0.2676 -0.1155
  167ETHOX  H1128050  16.314  14.322  13.413  0.0042 -2.2454 -0.3638
  167ETHOX  H1328051  16.449  14.283  13.518  1.1951 -0.8312 -0.4128
  167ETHOX   C228052  16.499  14.427  13.351  0.2182  0.0859  0.1175
  167ETHOX  H2128053  16.591  14.374  13.319 -0.3483 -0.0927 -1.2697
  167ETHOX  H2328054  16.511  14.498  13.436 -2.7661  0.1044  0.6384
  168ETHOX   O128055  16.431  14.486  13.235  0.5159 -0.4388 -0.5306
  168ETHOX   C128056  16.514  14.594  13.183  0.0614 -0.4605  0.6771
  168ETHOX  H1128057  16.605  14.558  13.129 -2.9460 -2.7304 -3.4285
  168ETHOX  H1328058  16.540  14.659  13.269  0.6866 -0.2207  0.3163
  168ETHOX   C228059  16.427  14.680  13.096  0.0910 -0.1618 -0.5224
  168ETHOX  H2128060  16.391  14.636  13.000 -0.7998  1.5125 -1.0081
  168ETHOX  H2328061  16.481  14.772  13.065 -1.5746  0.9212 -0.3919
  169ETHOX   O128062  16.309  14.726  13.165 -0.3351  0.0124  0.4554
  169ETHOX   C128063  16.215  14.792  13.078 -0.9768  1.1539 -0.8730
  169ETHOX  H1128064  16.265  14.835  12.988 -0.1418  1.3674 -0.3177
  169ETHOX  H1328065  16.130  14.725  13.052  0.1108 -0.5001 -0.2991
  169ETHOX   C228066  16.141  14.889  13.167  0.1427  0.4157  0.6687
  169ETHOX  H2128067  16.100  14.843  13.260 -1.1542  1.0836  0.4491
  169ETHOX  H2328068  16.054  14.916  13.103 -0.4939  2.0622  2.1194
  170ETHOX   O128069  16.191  15.018  13.194 -0.1066 -0.1736  0.0222
  170ETHOX   C128070  16.157  15.061  13.325  0.1965  0.6965  0.6163
  170ETHOX  H1128071  16.227  15.016  13.399 -1.3998 -2.6354  0.2938
  170ETHOX  H1328072  16.050  15.036  13.345  0.9053 -2.0672  1.2880
  170ETHOX   C228073  16.172  15.214  13.336 -0.0777  0.1239 -0.6512
  170ETHOX  H2128074  16.105  15.245  13.419 -1.8578 -3.4244 -0.5610
  170ETHOX  H2328075  16.130  15.252  13.240  0.2324  0.4070 -0.6758
  171ETHOX   O128076  16.305  15.257  13.346  0.4950  0.0319 -0.3209
  171ETHOX   C128077  16.320  15.391  13.385  0.6371 -0.3682 -0.5593
  171ETHOX  H1128078  16.242  15.406  13.463 -0.7209 -0.4000 -1.8604
  171ETHOX  H1328079  16.425  15.396  13.419  1.4396  1.0783 -2.9959
  171ETHOX   C228080  16.318  15.497  13.279  0.2838 -0.7254  0.1781
  171ETHOX  H2128081  16.371  15.451  13.192  0.8858 -0.5249  0.4339
  171ETHOX  H2328082  16.376  15.585  13.313  1.6339 -0.8059 -1.6999
  172ETHOX   O128083  16.186  15.546  13.234 -0.0303  0.4969 -0.4123
  172ETHOX   C128084  16.197  15.641  13.132 -0.4598 -0.1550  0.6154
  172ETHOX  H1128085  16.256  15.730  13.165 -2.5774  1.9563 -0.9213
  172ETHOX  H1328086  16.096  15.681  13.108 -0.0074  0.4997 -0.2884
  172ETHOX   C228087  16.252  15.584  12.994 -0.0118 -0.2089 -0.4191
  172ETHOX  H2128088  16.228  15.666  12.923 -0.0726  1.1396  1.0868
  172ETHOX  H2328089  16.197  15.492  12.966  1.8604 -1.6175  0.3271
  173ETHOX   O128090  16.388  15.546  12.986  0.3977 -0.0873 -0.5252
  173ETHOX   C128091  16.419  15.468  12.870 -0.0718  0.2140  0.4278
  173ETHOX  H1128092  16.492  15.395  12.911 -0.4324  0.0032  0.7100
  173ETHOX  H1328093  16.334  15.403  12.839  0.2758  1.0525 -2.5230
  173ETHOX   C228094  16.485  15.553  12.760  0.1058 -0.2695  0.3736
  173ETHOX  H2128095  16.567  15.615  12.802 -0.3862  0.2046  0.6519
  173ETHOX  H2328096  16.526  15.483  12.685  0.7863 -0.3772  0.8405
  174ETHOX   O128097  16.395  15.651  12.698  0.3699 -0.1177  0.1089
  174ETHOX   C128098  16.461  15.765  12.649  0.1909 -0.0430 -0.3397
  174ETHOX  H1128099  16.507  15.827  12.729 -1.0748 -0.3200  0.6269
  174ETHOX  H1328100  16.544  15.732  12.582 -0.7065 -0.1135 -1.4410
  174ETHOX   C228101  16.376  15.856  12.562 -0.8839  0.2454 -0.7259
  174ETHOX  H2128102  16.321  15.792  12.490 -1.7845 -1.4880  1.3810
  174ETHOX  H2328103  16.441  15.937  12.522  0.2424  0.8699  2.1313
  175ETHOX   O128104  16.288  15.932  12.645  0.0252 -0.6929 -0.1270
  175ETHOX   C128105  16.204  16.016  12.568 -0.0345 -0.1290  0.2971
  175ETHOX  H1128106  16.252  16.051  12.474 -0.0802 -1.1863 -0.1330
  175ETHOX  H1328107  16.117  15.952  12.543 -0.1269  0.3230 -0.5635
  175ETHOX   C228108  16.146  16.140  12.633  0.1788 -0.9358 -0.4181
  175ETHOX  H2128109  16.107  16.100  12.729 -2.7006  0.8516 -0.7354
  175ETHOX  H2328110  16.062  16.189  12.580  1.2280  0.8745 -0.5035
  176ETHOX   O128111  16.240  16.246  12.661  0.1900  0.0193  0.1323
  176ETHOX   C128112  16.243  16.331  12.548  0.0119 -0.7420  0.4569
  176ETHOX  H1128113  16.273  16.280  12.454 -0.6636 -0.1908 -0.0662
  176ETHOX  H1328114  16.150  16.381  12.515  1.4515  1.2744 -0.7416
  176ETHOX   C228115  16.343  16.435  12.576  0.1012 -1.7723 -0.1730
  176ETHOX  H2128116  16.356  16.503  12.490 -1.6142 -1.4276 -0.1999
  176ETHOX  H2328117  16.443  16.398  12.609  0.5823 -0.5912 -0.2855
  177ETHOX   O128118  16.285  16.512  12.686 -0.6164  0.3445  0.0447
  177ETHOX   C128119  16.383  16.605  12.733  0.0788  0.2479 -0.3607
  177ETHOX  H1128120  16.417  16.676  12.655  0.9902  1.1956  0.8422
  177ETHOX  H1328121  16.481  16.555  12.746 -0.3631 -0.7596 -0.8347
  177ETHOX   C228122  16.340  16.687  12.856  0.1941  0.5047  0.4862
  177ETHOX  H2128123  16.233  16.709  12.836  0.1086 -0.5145 -0.3084
  177ETHOX  H2328124  16.394  16.784  12.862  2.5843 -0.6329 -1.0908
  178ETHOX   O128125  16.340  16.605  12.970 -0.3875 -0.3191 -0.3858
  178ETHOX   C128126  16.300  16.681  13.082  0.2767  0.4438  0.7836
  178ETHOX  H1128127  16.376  16.759  13.105 -0.2913  1.0996  0.4687
  178ETHOX  H1328128  16.204  16.734  13.068 -0.8129 -1.6732 -0.1472
  178ETHOX   C228129  16.294  16.595  13.213 -0.4256 -0.3622  0.5970
  178ETHOX  H2128130  16.271  16.488  13.197 -0.7255 -0.1833 -0.2234
  178ETHOX  H2328131  16.213  16.629  13.282  1.3272 -0.2301  2.7003
  179ETHOX   O128132  16.416  16.602  13.292  0.4939 -0.0483 -0.4827
  179ETHOX   C128133  16.403  16.509  13.399 -0.2817 -0.4898 -0.2450
  179ETHOX  H1128134  16.394  16.406  13.358 -2.5151 -0.9360  1.2220
  179ETHOX  H1328135  16.311  16.537  13.453 -0.0410 -0.7647  0.3078
  179ETHOX   C228136  16.529  16.508  13.483  0.6734  0.1165 -0.0028
  179ETHOX  H2128137  16.622  16.513  13.422  0.3751 -0.1447 -0.4802
  179ETHOX  H2328138  16.533  16.413  13.540 -0.0097 -0.4857 -0.9406
  180ETHOX   O128139  16.507  16.609  13.582 -0.6007 -0.4404 -0.0282
  180ETHOX   C128140  16.624  16.623  13.659 -0.0595 -0.5830 -0.0242
  180ETHOX  H1128141  16.653  16.528  13.707 -2.6929 -0.9212  1.0235
  180ETHOX  H1328142  16.708  16.645  13.588 -0.9943 -0.9127 -1.2634
  180ETHOX   C228143  16.624  16.724  13.769 -0.2419 -0.9734  0.2228
  180ETHOX  H2128144  16.598  16.821  13.722  0.5123 -0.6868  0.3819
  180ETHOX  H2328145  16.725  16.742  13.812 -0.9510  0.7769  1.2669
  181ETHOX   O128146  16.537  16.694  13.883 -0.2868 -0.2447  0.1129
  181ETHOX   C128147  16.537  16.804  13.973 -0.5712  0.0296 -0.0772
  181ETHOX  H1128148  16.500  16.898  13.927 -2.6271 -1.6818 -2.2123
  181ETHOX  H1328149  16.644  16.828  13.993 -0.0186 -0.8902 -1.7209
  181ETHOX   C228150  16.468  16.759  14.099  0.1546  0.6532  0.4760
  181ETHOX  H2128151  16.504  16.823  14.182  2.4448  0.0740  0.0184
  181ETHOX  H2328152  16.487  16.655  14.132 -2.1040  0.4990  1.4316
  182ETHOX   O128153  16.326  16.781  14.088  0.2208 -0.0402 -0.3429
  182ETHOX   C128154  16.260  16.694  14.001 -0.2520  1.0040 -0.3509
  182ETHOX  H1128155  16.296  16.713  13.898 -0.5323 -1.7786 -1.0384
  182ETHOX  H1328156  16.277  16.589  14.034 -0.9308  0.3344 -2.0494
  182ETHOX   C228157  16.102  16.713  13.996 -0.2918  0.0723 -0.2137
  182ETHOX  H2128158  16.064  16.680  13.897  1.4764  1.0373 -1.2629
  182ETHOX  H2328159  16.072  16.819  14.007  1.9647  0.5368  2.6908
  183ETHOX   O128160  16.040  16.636  14.094 -0.0704  0.1052 -0.2724
  183ETHOX   C128161  15.900  16.646  14.109  0.7183  0.1811  0.3457
  183ETHOX  H1128162  15.867  16.549  14.154  1.1603  1.2775  3.2063
  183ETHOX  H1328163  15.847  16.650  14.011 -1.2913 -1.6543  1.2542
  183ETHOX   C228164  15.857  16.762  14.215 -0.1762  0.6007  0.4348
  183ETHOX  H2128165  15.748  16.771  14.236  0.1876  0.4313  2.7397
  183ETHOX  H2328166  15.909  16.856  14.187  0.8464 -0.2156 -0.4751
  184ETHOX   O128167  15.913  16.724  14.336  0.5202  0.3830  0.2175
  184ETHOX   C128168  15.915  16.843  14.418 -0.7944  0.2703 -0.1693
  184ETHOX  H1128169  15.978  16.921  14.371  0.2259 -0.0105  0.7136
  184ETHOX  H1328170  15.810  16.879  14.415 -1.1578 -0.7720 -0.5607
  184ETHOX   C228171  15.957  16.818  14.563 -0.4604  0.2948 -0.3989
  184ETHOX  H2128172  15.959  16.926  14.589  0.3540  0.6500 -1.8619
  184ETHOX  H2328173  16.058  16.776  14.582 -0.2164  1.6819  1.8160
  185ETHOX   O128174  15.861  16.751  14.644 -0.3163  0.0045  0.2097
  185ETHOX   C128175  15.862  16.804  14.773  0.5072 -0.2270 -0.2853
  185ETHOX  H1128176  15.963  16.813  14.816 -0.8042 -2.9373  3.9119
  185ETHOX  H1328177  15.810  16.902  14.787  0.6164 -0.5369  3.0071
  185ETHOX   C228178  15.769  16.728  14.872 -0.0039  0.2782  0.3020
  185ETHOX  H2128179  15.766  16.771  14.975 -0.9180  0.7039  0.1011
  185ETHOX  H2328180  15.823  16.632  14.890  1.4132  1.5173  3.4261
  186ETHOX   O128181  15.645  16.702  14.818 -0.2682  0.5189  0.2429
  186ETHOX   C128182  15.578  16.621  14.911 -0.0059  0.7897  0.6442
  186ETHOX  H1128183  15.635  16.527  14.923  0.4942  1.1550  1.1978
  186ETHOX  H1328184  15.565  16.665  15.012  0.0983 -0.6134  1.2906
  186ETHOX   C228185  15.441  16.586  14.863  0.2690  0.0409  0.2070
  186ETHOX  H2128186  15.410  16.484  14.895  1.2050 -1.2333 -2.5789
  186ETHOX  H2328187  15.436  16.591  14.752  0.0515  0.6835  0.2392
  187ETHOX   O128188  15.351  16.683  14.918  0.2514 -0.1073  0.3104
  187ETHOX   C128189  15.216  16.643  14.911 -0.0727 -0.1032  0.3968
  187ETHOX  H1128190  15.191  16.611  14.807  0.5849 -1.4199  0.6364
  187ETHOX  H1328191  15.193  16.559  14.979 -1.0146 -0.1914 -0.0120
  187ETHOX   C228192  15.130  16.764  14.963  0.0699  1.1950 -0.1311
  187ETHOX  H2128193  15.023  16.749  14.937 -0.0585  0.8585  0.5654
  187ETHOX  H2328194  15.164  16.862  14.924  1.1935  0.4220 -1.2266
  188ETHOX   O128195  15.133  16.775  15.103 -0.1908 -0.2204  0.9160
  188ETHOX   C128196  15.052  16.882  15.147 -0.5077  0.5164 -0.2528
  188ETHOX  H1128197  14.945  16.871  15.119 -0.6641  0.9656  0.1541
  188ETHOX  H1328198  15.082  16.971  15.089 -0.4073 -0.2565 -1.4126
  188ETHOX   C228199  15.089  16.910  15.286 -0.2206 -0.5895 -0.4291
  188ETHOX  H2128200  15.053  17.006  15.329  0.2422 -1.0701  1.1172
  188ETHOX  H2328201  15.199  16.925  15.299 -0.5879  1.4765  0.8588
  189ETHOX   O128202  15.040  16.802  15.367  0.4667  0.3279  0.0336
  189ETHOX   C128203  15.083  16.806  15.506  0.2361 -0.1791 -0.7850
  189ETHOX  H1128204  15.194  16.812  15.519  0.1364  0.5073 -0.1429
  189ETHOX  H1328205  15.038  16.898  15.549  0.3422 -0.2555 -0.5010
  189ETHOX   C228206  15.041  16.689  15.596 -0.0894 -0.0327  0.0292
  189ETHOX  H2128207  14.944  16.650  15.560 -0.1080 -0.1207  0.1740
  189ETHOX  H2328208  15.023  16.727  15.699  0.1767 -0.5218  0.2601
  190ETHOX   O128209  15.134  16.581  15.604  0.3276  0.1847 -0.0340
  190ETHOX   C128210  15.172  16.534  15.475 -0.8586 -0.2731 -0.2810
  190ETHOX  H1128211  15.239  16.608  15.426 -2.2141  0.2965 -1.3342
  190ETHOX  H1328212  15.084  16.522  15.408 -0.8776  2.0344 -0.7625
  190ETHOX   C228213  15.242  16.394  15.484 -0.1613  0.4850  0.5847
  190ETHOX  H2128214  15.317  16.385  15.565 -0.7805  2.5317  1.4650
  190ETHOX  H2328215  15.292  16.378  15.387  0.4276 -2.1891  1.2291
  191ETHOX   O128216  15.152  16.284  15.498 -0.1312  0.4044  0.8007
  191ETHOX   C128217  15.212  16.161  15.455 -0.0368 -0.5215 -0.0932
  191ETHOX  H1128218  15.123  16.100  15.427  0.9887 -1.9275 -0.3958
  191ETHOX  H1328219  15.281  16.172  15.369 -0.3174  0.7477 -0.1643
  191ETHOX   C228220  15.280  16.070  15.562 -0.2711 -0.0496  0.3826
  191ETHOX  H2128221  15.345  16.138  15.621  0.6311 -0.9732  0.4771
  191ETHOX  H2328222  15.335  15.988  15.511  1.3599  0.8618  0.6150
  192ETHOX   O128223  15.174  16.005  15.642 -0.0964 -0.1339 -0.0968
  192ETHOX   C128224  15.234  15.934  15.746  1.0724 -0.6341  0.0238
  192ETHOX  H1128225  15.254  16.008  15.826 -0.7605  0.0884 -0.1442
  192ETHOX  H1328226  15.332  15.885  15.724  1.3088  0.5265 -1.7711
  192ETHOX   C228227  15.135  15.831  15.804  0.4497 -0.6401  0.2521
  192ETHOX  H2128228  15.032  15.860  15.774  0.5810 -0.6903 -0.2464
  192ETHOX  H2328229  15.131  15.835  15.915  1.1651  1.6334  0.2390
  193ETHOX   O128230  15.171  15.702  15.759 -0.2769  0.4695 -0.4989
  193ETHOX   C128231  15.113  15.600  15.836  0.4270  0.8008 -0.7345
  193ETHOX  H1128232  15.166  15.505  15.812 -1.3999 -0.6364  0.6485
  193ETHOX  H1328233  15.148  15.624  15.939  2.3116 -0.1882 -1.0918
  193ETHOX   C228234  14.958  15.587  15.840  0.6307  0.1767  0.3275
  193ETHOX  H2128235  14.922  15.692  15.841 -1.2987 -0.4365  0.7549
  193ETHOX  H2328236  14.924  15.561  15.942 -0.4707  0.8114  0.1435
  194ETHOX   O128237  14.903  15.498  15.738  0.2231 -0.0284  0.2225
  194ETHOX   C128238  14.770  15.470  15.770  0.2092 -0.1280  0.2148
  194ETHOX  H1128239  14.717  15.567  15.785  0.2868  0.1245 -0.9812
  194ETHOX  H1328240  14.766  15.403  15.858 -0.5318 -0.5596 -0.1381
  194ETHOX   C228241  14.705  15.384  15.657 -0.0594 -0.2206  0.6097
  194ETHOX  H2128242  14.599  15.364  15.685 -0.0341 -0.7454  0.3445
  194ETHOX  H2328243  14.772  15.296  15.649  0.0375 -0.1427  0.5555
  195ETHOX   O128244  14.703  15.470  15.536 -0.5161  0.2346  0.0930
  195ETHOX   C128245  14.665  15.393  15.422  0.2581  0.3957 -0.3405
  195ETHOX  H1128246  14.732  15.304  15.418 -0.9100 -0.5072 -0.3220
  195ETHOX  H1328247  14.563  15.353  15.440  0.2596 -0.2690 -1.7017
  195ETHOX   C228248  14.679  15.478  15.297 -0.8786 -0.5330  0.2897
  195ETHOX  H2128249  14.621  15.572  15.313 -1.6120 -0.9405  0.0742
  195ETHOX  H2328250  14.632  15.415  15.219 -0.0188  1.2961 -1.8025
  196ETHOX   O128251  14.814  15.488  15.248 -0.3772 -0.4216  0.4097
  196ETHOX   C128252  14.829  15.556  15.122  0.1923 -0.4552 -0.0606
  196ETHOX  H1128253  14.760  15.644  15.117 -0.8758 -1.3287 -1.3762
  196ETHOX  H1328254  14.929  15.603  15.113 -0.5801  1.1725 -0.5053
  196ETHOX   C228255  14.803  15.467  15.000 -0.1747  0.3853 -0.5772
  196ETHOX  H2128256  14.801  15.532  14.909 -3.5427  1.7065  0.2870
  196ETHOX  H2328257  14.700  15.426  15.004 -0.5592  1.4215  0.9763
  197ETHOX   O128258  14.902  15.361  14.979 -0.0877 -0.3472 -0.3970
  197ETHOX   C128259  14.865  15.238  15.040 -0.2476  0.6854  0.0967
  197ETHOX  H1128260  14.932  15.229  15.128 -1.1707 -0.9882  0.6811
  197ETHOX  H1328261  14.761  15.227  15.079 -0.0673 -0.1261  0.3783
  197ETHOX   C228262  14.879  15.121  14.946  0.3103  0.0088 -0.6818
  197ETHOX  H2128263  14.811  15.134  14.859  1.3044 -0.1586 -1.4955
  197ETHOX  H2328264  14.854  15.026  14.998 -1.8148  0.9988  0.2104
  198ETHOX   O128265  15.017  15.109  14.904  0.2787  0.4989  0.1676
  198ETHOX   C128266  15.030  15.038  14.788  0.1619 -0.2955  0.2938
  198ETHOX  H1128267  15.035  14.928  14.804 -1.8379 -0.4228  0.2377
  198ETHOX  H1328268  14.942  15.059  14.724  0.3490  3.6960  1.1471
  198ETHOX   C228269  15.152  15.083  14.705  0.6721  0.3761 -0.2029
  198ETHOX  H2128270  15.131  15.190  14.684  0.4293  0.3852  0.0938
  198ETHOX  H2328271  15.156  15.022  14.612 -2.0969  0.0021 -0.1406
  199ETHOX   O128272  15.271  15.073  14.776 -0.6905 -0.3140 -0.1024
  199ETHOX   C128273  15.387  15.121  14.703  0.0114 -0.0132  0.0079
  199ETHOX  H1128274  15.378  15.211  14.639  1.2312  0.5563  0.6164
  199ETHOX  H1328275  15.423  15.038  14.638  2.8595  1.9026 -1.0690
  199ETHOX   C228276  15.488  15.152  14.817  0.2546 -0.2407 -0.1621
  199ETHOX  H2128277  15.436  15.215  14.891 -0.8570 -2.1816  0.7915
  199ETHOX  H2328278  15.565  15.216  14.768  2.0535 -2.1065  0.0621
  200ETHOX   O128279  15.545  15.033  14.877  0.8085 -0.7882  0.1100
  200ETHOX   C128280  15.640  15.086  14.967 -0.2583  0.4225  0.3570
  200ETHOX  H1128281  15.705  15.156  14.910  0.0647  0.4313  0.7348
  200ETHOX  H1328282  15.597  15.141  15.053  1.3310  0.0394  1.4486
  200ETHOX   C228283  15.723  14.963  14.999 -0.3586  0.6673  0.7576
  200ETHOX  H2128284  15.654  14.879  15.022 -0.7435 -0.2189 -3.0132
  200ETHOX  H2328285  15.790  14.995  15.082  1.5879 -1.4814  0.1402
  201ETHOX   O128286  15.802  14.939  14.882 -0.0707 -0.2715 -0.3411
  201ETHOX   C128287  15.894  14.841  14.916  0.1715  0.0338 -0.4080
  201ETHOX  H1128288  15.857  14.736  14.903  1.5643 -0.3777 -1.2278
  201ETHOX  H1328289  15.935  14.853  15.018 -1.3648  1.6081  0.0798
  201ETHOX   C228290  16.010  14.843  14.806 -0.0880 -0.4956  0.4811
  201ETHOX  H2128291  15.968  14.879  14.710  1.5595 -0.7148 -0.3410
  201ETHOX  H2328292  16.046  14.739  14.801 -0.5939 -0.7160  1.2290
  202ETHOX   O128293  16.115  14.929  14.855  0.1416 -0.1961  0.1741
  202ETHOX   C128294  16.080  15.069  14.833 -0.5545  0.0112 -0.5654
  202ETHOX  H1128295  16.074  15.097  14.725  2.9449 -1.3029 -1.2592
  202ETHOX  H1328296  15.984  15.089  14.886 -1.3025 -0.6100 -1.6584
  202ETHOX   C228297  16.189  15.165  14.887 -0.3375 -0.4117  0.5881
  202ETHOX  H2128298  16.166  15.269  14.857  0.1134 -0.5081 -0.1091
  202ETHOX  H2328299  16.289  15.132  14.852 -0.9509 -2.5283  0.6941
  203ETHOX   O128300  16.186  15.171  15.028  0.2065  0.1599  0.0786
  203ETHOX   C128301  16.286  15.261  15.071  0.1918  0.3642  0.6306
  203ETHOX  H1128302  16.249  15.363  15.049  0.5838  0.0565 -1.7338
  203ETHOX  H1328303  16.385  15.240  15.026  1.1451  0.3420  2.6128
  203ETHOX   C228304  16.313  15.260  15.223  0.1500 -0.2338  0.0882
  203ETHOX  H2128305  16.388  15.335  15.255 -0.9537  1.4307 -1.1049
  203ETHOX  H2328306  16.348  15.158  15.252  2.7023  1.0355  1.7571
  204ETHOX   O128307  16.197  15.288  15.293  0.4077 -0.2292  0.5223
  204ETHOX   C128308  16.220  15.272  15.437  0.5580  0.4958 -0.4871
  204ETHOX  H1128309  16.214  15.162  15.451  1.4628  0.5674  0.6397
  204ETHOX  H1328310  16.321  15.309  15.465  0.4251  0.0915  0.5708
  204ETHOX   C228311  16.106  15.349  15.509  0.1813 -0.0615 -0.4671
  204ETHOX  H2128312  16.073  15.430  15.440 -0.8294  1.4445  1.6862
  204ETHOX  H2328313  16.148  15.397  15.600 -2.0533  1.0902  0.0227
  205ETHOX   O128314  15.993  15.269  15.536  0.0129  0.0613 -0.4506
  205ETHOX   C128315  15.899  15.350  15.610 -0.3926  0.0150  0.1033
  205ETHOX  H1128316  15.943  15.401  15.698 -2.7131  0.1256  1.2723
  205ETHOX  H1328317  15.823  15.287  15.661 -0.0916 -0.3648  0.0898
  205ETHOX   C228318  15.809  15.455  15.535 -0.2156 -0.4432  0.4308
  205ETHOX  H2128319  15.876  15.528  15.484  0.9450 -1.3094  0.6799
  205ETHOX  H2328320  15.748  15.522  15.598 -0.6163  2.6037 -2.9024
  206ETHOX   O128321  15.713  15.391  15.453  0.0018 -0.1699  0.7318
  206ETHOX   C128322  15.660  15.481  15.354  0.5582 -0.8388 -0.2841
  206ETHOX  H1128323  15.585  15.547  15.403  3.0737  2.7716 -0.9170
  206ETHOX  H1328324  15.746  15.535  15.310  1.6087 -2.2050  0.0264
  206ETHOX   C228325  15.590  15.409  15.240 -0.0534  0.4027 -0.0131
  206ETHOX  H2128326  15.674  15.356  15.191  0.0320  1.6263 -1.2493
  206ETHOX  H2328327  15.519  15.333  15.279  2.3953 -1.5997  0.8530
  207ETHOX   O128328  15.528  15.501  15.148 -0.2327 -0.5338  0.1549
  207ETHOX   C128329  15.406  15.557  15.205 -0.0873  0.4229 -1.0415
  207ETHOX  H1128330  15.435  15.638  15.276 -0.2045 -1.0288  0.7469
  207ETHOX  H1328331  15.353  15.496  15.281 -0.4930  1.3208 -0.5815
  207ETHOX   C228332  15.301  15.599  15.097  0.2819 -0.0844 -0.0507
  207ETHOX  H2128333  15.353  15.684  15.048  1.1319 -0.5744 -0.0076
  207ETHOX  H2328334  15.211  15.635  15.151  0.8675 -1.4979  1.9523
  208ETHOX   O128335  15.277  15.505  14.996 -0.3248  0.1938 -0.1010
  208ETHOX   C128336  15.204  15.562  14.890 -0.3292 -0.4517  0.0221
  208ETHOX  H1128337  15.107  15.604  14.924  0.5461  2.0656 -0.3438
  208ETHOX  H1328338  15.248  15.649  14.837 -1.0658  0.2638  0.5665
  208ETHOX   C228339  15.166  15.450  14.790  0.5761 -0.3060  0.1169
  208ETHOX  H2128340  15.113  15.370  14.847 -2.0780  1.6435  0.5948
  208ETHOX  H2328341  15.264  15.413  14.754  0.1465 -0.8811 -0.4808
  209ETHOX   O128342  15.086  15.491  14.682 -0.4817 -0.3328 -0.6895
  209ETHOX   C128343  15.156  15.563  14.580  0.0103  0.2254 -0.1836
  209ETHOX  H1128344  15.210  15.497  14.508  0.0539 -2.5183  2.1866
  209ETHOX  H1328345  15.229  15.635  14.623 -1.2274 -0.4552  3.4309
  209ETHOX   C228346  15.053  15.642  14.494 -0.8324  0.2472 -0.1653
  209ETHOX  H2128347  15.105  15.705  14.419  0.3361 -1.4706 -0.8655
  209ETHOX  H2328348  14.984  15.708  14.549  0.1360  1.4620 -0.3659
  210ETHOX   O128349  14.994  15.541  14.417  0.1182 -0.3719 -0.6509
  210ETHOX   C128350  14.898  15.592  14.327 -0.0798 -0.0839  0.6969
  210ETHOX  H1128351  14.816  15.642  14.382 -1.7531 -1.7083 -0.2117
  210ETHOX  H1328352  14.944  15.661  14.252  0.5016 -2.0682 -0.8686
  210ETHOX   C228353  14.826  15.487  14.236 -0.1777  0.0894  0.2148
  210ETHOX  H2128354  14.904  15.414  14.206 -0.0829  0.6916 -1.0695
  210ETHOX  H2328355  14.793  15.527  14.138  0.8883 -1.0273 -0.6298
  211ETHOX   O128356  14.724  15.419  14.310 -0.3276  0.2717  0.2182
  211ETHOX   C128357  14.678  15.299  14.248  0.4767  0.0972 -0.0430
  211ETHOX  H1128358  14.674  15.316  14.139  0.2706 -1.6962 -0.3551
  211ETHOX  H1328359  14.756  15.226  14.280 -0.6574 -0.7087  1.0094
  211ETHOX   C228360  14.555  15.243  14.323  0.1510  0.0252  0.0795
  211ETHOX  H2128361  14.581  15.259  14.430  2.3908  2.4599 -0.7301
  211ETHOX  H2328362  14.550  15.133  14.308 -2.1356  0.1723 -0.4922
  212ETHOX   O128363  14.429  15.296  14.294  0.7554  0.2669  0.2908
  212ETHOX   C128364  14.342  15.299  14.411  0.0041  0.5345 -0.0211
  212ETHOX  H1128365  14.303  15.198  14.432 -0.4050  0.7422  0.2247
  212ETHOX  H1328366  14.404  15.333  14.497 -0.0976  0.0058  0.2642
  212ETHOX   C228367  14.225  15.396  14.392  0.1737 -0.4219 -0.4747
  212ETHOX  H2128368  14.270  15.497  14.377 -0.4960 -0.0663 -0.1332
  212ETHOX  H2328369  14.170  15.397  14.488 -0.1431  0.5743 -0.6529
  213ETHOX   O128370  14.139  15.349  14.297  0.2302 -0.5420  0.0227
  213ETHOX   C128371  14.050  15.459  14.258 -0.0539 -0.5402  0.2044
  213ETHOX  H1128372  14.102  15.553  14.284  0.6327 -1.2341  1.3848
  213ETHOX  H1328373  14.051  15.452  14.147 -0.0950 -0.6677  0.2115
  213ETHOX   C228374  13.910  15.460  14.310  0.8485  0.3234  0.5683
  213ETHOX  H2128375  13.917  15.478  14.419 -0.0970  3.2929  0.2139
  213ETHOX  H2328376  13.878  15.355  14.293 -2.7194  1.7146 -2.8532
  214ETHOX   O128377  13.831  15.556  14.246  0.7282 -0.4771  0.5380
  214ETHOX   C128378  13.767  15.493  14.135  0.3791  0.3457 -0.4753
  214ETHOX  H1128379  13.703  15.410  14.169 -1.7994  2.3529  0.6322
  214ETHOX  H1328380  13.843  15.443  14.072  0.9861 -1.1452  1.3623
  214ETHOX   C228381  13.683  15.587  14.053  0.6770  0.0695  0.2159
  214ETHOX  H2128382  13.606  15.632  14.120 -1.4593 -0.9456 -1.4244
  214ETHOX  H2328383  13.628  15.515  13.988  0.1964  0.3160  0.3406
  215ETHOX   O128384  13.738  15.693  13.979 -0.5123  0.0184 -0.0411
  215ETHOX   C128385  13.637  15.778  13.930 -0.4675 -0.3251  0.2741
  215ETHOX  H1128386  13.557  15.727  13.873 -1.3483  0.0985  1.0944
  215ETHOX  H1328387  13.593  15.826  14.020 -0.5834 -0.9796  0.5699
  215ETHOX   C228388  13.692  15.896  13.845 -1.0954 -0.6859  0.1661
  215ETHOX  H2128389  13.616  15.946  13.782  0.6493  0.0442 -1.4520
  215ETHOX  H2328390  13.770  15.853  13.780 -0.7620 -0.1226  0.1855
  216ETHOX   O128391  13.756  15.987  13.935 -0.2210 -0.0760 -0.5426
  216ETHOX   C128392  13.825  16.092  13.868 -0.1886  0.0938  0.2790
  216ETHOX  H1128393  13.758  16.167  13.821  0.4771 -0.9828 -2.5751
  216ETHOX  H1328394  13.891  16.050  13.789  1.1265  1.3477  0.6664
  216ETHOX   C228395  13.933  16.148  13.959  0.3282 -0.7085 -0.2972
  216ETHOX  H2128396  14.005  16.195  13.890 -2.5203  1.3500 -2.0594
  216ETHOX  H2328397  13.982  16.059  14.004 -0.3506 -0.9447 -0.0046
  217ETHOX   O128398  13.907  16.238  14.071  0.7954  0.6917 -0.2860
  217ETHOX   C128399  14.023  16.279  14.137  0.3345  0.2462  0.3269
  217ETHOX  H1128400  14.090  16.196  14.167 -0.2580 -0.2628  0.2636
  217ETHOX  H1328401  14.073  16.344  14.063  0.1883 -1.3370 -1.2346
  217ETHOX   C228402  13.988  16.354  14.265 -1.0889 -0.2681 -0.2752
  217ETHOX  H2128403  13.943  16.451  14.236  0.0767 -0.1168 -1.6848
  217ETHOX  H2328404  14.081  16.384  14.318 -0.9261 -0.8953 -0.1910
  218ETHOX   O128405  13.911  16.284  14.364 -0.0499  0.0854 -0.3725
  218ETHOX   C128406  13.865  16.368  14.472 -0.0810  0.8788 -0.9656
  218ETHOX  H1128407  13.820  16.458  14.425 -0.6526  1.4263  0.5623
  218ETHOX  H1328408  13.951  16.404  14.533 -2.0611 -0.7496  3.1513
  218ETHOX   C228409  13.760  16.306  14.570 -0.8052 -0.3092 -0.2869
  218ETHOX  H2128410  13.685  16.261  14.501  0.3210 -2.9210  0.0815
  218ETHOX  H2328411  13.705  16.379  14.633  1.9871 -0.0981  2.1039
  219ETHOX   O128412  13.812  16.204  14.655 -0.3297  0.6354  0.1646
  219ETHOX   C128413  13.710  16.134  14.712 -0.2332  0.0482 -0.4450
  219ETHOX  H1128414  13.620  16.123  14.649 -2.3939  0.5072  2.3825
  219ETHOX  H1328415  13.756  16.037  14.740  0.2020  0.5836  0.7805
  219ETHOX   C228416  13.673  16.190  14.854 -0.1635 -0.2192  0.6391
  219ETHOX  H2128417  13.641  16.296  14.849 -2.0822 -0.7601  0.7109
  219ETHOX  H2328418  13.754  16.171  14.928 -0.1169  0.2844  0.7246
  220ETHOX   O128419  13.565  16.107  14.886 -0.4627 -0.2707 -0.2583
  220ETHOX   C128420  13.520  16.121  15.019  0.8405 -0.3494 -0.1294
  220ETHOX  H1128421  13.494  16.229  15.026 -0.7902 -0.8155  2.3379
  220ETHOX  H1328422  13.597  16.103  15.096  0.4644 -0.3574  0.2501
  220ETHOX   C228423  13.397  16.038  15.043  0.7761  0.3193  0.3035
  220ETHOX  H2128424  13.320  16.036  14.963 -0.4224  0.0957  1.4074
  220ETHOX  H2328425  13.338  16.078  15.128 -3.4173 -2.1820 -1.1215
  221ETHOX   O128426  13.445  15.911  15.082 -0.1175 -0.2311 -0.2881
  221ETHOX   C128427  13.342  15.819  15.125 -0.9021  0.3719  0.5182
  221ETHOX  H1128428  13.242  15.866  15.115 -2.2601 -2.0297  1.7991
  221ETHOX  H1328429  13.356  15.735  15.053 -0.3096  1.1189 -0.2701
  221ETHOX   C228430  13.361  15.780  15.271 -0.5235 -1.2665  0.4452
  221ETHOX  H2128431  13.461  15.736  15.295  0.2035 -0.3573 -0.7886
  221ETHOX  H2328432  13.278  15.711  15.297 -3.0015  1.6725  0.7929
  222ETHOX   O128433  13.338  15.881  15.366  0.2367  0.4949  0.1543
  222ETHOX   C128434  13.322  15.834  15.499  0.0133  0.9575  0.3058
  222ETHOX  H1128435  13.229  15.777  15.518  0.6798 -0.1094  0.4397
  222ETHOX  H1328436  13.411  15.769  15.513  0.4504  1.7492  1.2766
  222ETHOX   C228437  13.312  15.954  15.591 -0.1878  0.4556 -0.0585
  222ETHOX  H2128438  13.264  15.928  15.688  1.0487  0.9960  0.7251
  222ETHOX  H2328439  13.242  16.024  15.540 -2.6701 -1.3610  0.6089
  223ETHOX   O128440  13.444  16.010  15.612 -0.5672 -0.8416  0.3383
  223ETHOX   C128441  13.443  16.123  15.697 -0.4880 -0.3766  0.8297
  223ETHOX  H1128442  13.430  16.217  15.640  2.6298 -0.2274  0.1896
  223ETHOX  H1328443  13.360  16.105  15.769 -1.9716  0.3890 -0.6494
  223ETHOX   C228444  13.570  16.128  15.781 -0.5304  0.2693 -0.9848
  223ETHOX  H2128445  13.608  16.026  15.800  1.3400  1.2154  0.7682
  223ETHOX  H2328446  13.540  16.180  15.875 -4.3381 -1.5746 -1.0240
  224ETHOX   O128447  13.667  16.195  15.707  0.4924 -0.4837  0.2221
  224ETHOX   C128448  13.785  16.217  15.782  0.6625  0.0899  0.3842
  224ETHOX  H1128449  13.750  16.270  15.873 -1.4471 -0.1145 -0.2408
  224ETHOX  H1328450  13.835  16.122  15.809  1.7567  0.6817  0.4633
  224ETHOX   C228451  13.883  16.333  15.729  0.2164  0.5387  0.6287
  224ETHOX  H2128452  13.941  16.365  15.818 -1.1380  4.4818  0.2605
  224ETHOX  H2328453  13.828  16.425  15.700 -2.1455 -0.9682 -0.0006
  225ETHOX   O128454  13.977  16.278  15.631  1.1230 -0.3572  0.0369
  225ETHOX   C128455  13.933  16.315  15.497 -0.1358  0.9940  0.2069
  225ETHOX  H1128456  13.822  16.319  15.491 -0.2943 -2.3310 -1.1439
  225ETHOX  H1328457  13.969  16.236  15.428 -0.5182  0.4712  0.5932
  225ETHOX   C228458  13.972  16.457  15.456 -0.4596  0.5674  0.2687
  225ETHOX  H2128459  13.969  16.528  15.541  1.5994  0.7237  0.2438
  225ETHOX  H2328460  13.904  16.483  15.372  0.8510  1.3831 -0.5610
  226ETHOX   O128461  14.096  16.469  15.391  0.1323  0.2721 -0.3690
  226ETHOX   C128462  14.108  16.593  15.321  0.1037 -0.1073  0.7758
  226ETHOX  H1128463  14.099  16.580  15.212  1.9380 -2.3443  0.8350
  226ETHOX  H1328464  14.028  16.667  15.344 -0.4206  0.0927 -1.4868
  226ETHOX   C228465  14.249  16.655  15.340  0.2949  0.0676 -0.1536
  226ETHOX  H2128466  14.278  16.707  15.246  0.8293  0.7882  0.3914
  226ETHOX  H2328467  14.315  16.571  15.369  0.4911  0.7053  1.3626
  227ETHOX   O128468  14.270  16.758  15.437 -0.4125  0.3663  0.8839
  227ETHOX   C128469  14.268  16.709  15.569 -0.2695 -0.6781 -0.7392
  227ETHOX  H1128470  14.358  16.655  15.606  0.8946  1.7809  0.2334
  227ETHOX  H1328471  14.172  16.654  15.579 -0.8833  0.5451  0.4313
  227ETHOX   C228472  14.253  16.823  15.674 -0.3355 -0.2705 -0.3300
  227ETHOX  H2128473  14.335  16.897  15.666  0.3080 -0.8893  0.3403
  227ETHOX  H2328474  14.273  16.776  15.773 -0.0433  0.7078  0.0912
  228ETHOX   O128475  14.117  16.876  15.684 -0.2976 -0.3194  0.3227
  228ETHOX   C128476  14.103  16.974  15.788  0.3303 -0.2459 -0.3017
  228ETHOX  H1128477  14.138  16.922  15.880  0.3952  1.1525  0.4775
  228ETHOX  H1328478  14.171  17.057  15.758 -1.9086  1.0121 -2.2385
  228ETHOX   C228479  13.953  17.008  15.791  0.0693  0.1741  0.2314
  228ETHOX  H2128480  13.891  16.921  15.822  0.1049 -0.0837 -0.3992
  228ETHOX  H2328481  13.916  17.040  15.691 -2.7860 -2.5477  0.2635
  229ETHOX   O128482  13.923  17.115  15.872 -0.1995 -0.2712  0.4481
  229ETHOX   C128483  13.945  17.086  16.013 -0.4604 -0.0793  0.9457
  229ETHOX  H1128484  14.050  17.109  16.040 -0.4927  2.0094 -0.4863
  229ETHOX  H1328485  13.926  16.976  16.020  0.1656 -0.1933  0.8784
  229ETHOX   C228486  13.859  17.167  16.117 -0.0784  0.1341 -0.3799
  229ETHOX  H2128487  13.871  17.277  16.101  4.6438 -0.1223 -0.0205
  229ETHOX  H2328488  13.907  17.150  16.215 -1.3611  5.5690  1.5874
  230ETHOX   O128489  13.721  17.128  16.127  0.0305  0.5644  0.1456
  230ETHOX   C128490  13.700  16.996  16.186  0.3199  0.1508  0.0551
  230ETHOX  H1128491  13.764  16.918  16.140  0.8411  0.0033  1.0155
  230ETHOX  H1328492  13.715  17.014  16.295 -2.9740  1.8375  0.3361
  230ETHOX   C228493  13.550  16.960  16.173 -1.1086 -0.8514 -0.3734
  230ETHOX  H2128494  13.543  16.860  16.221 -0.2876 -0.5927  0.3096
  230ETHOX  H2328495  13.522  16.951  16.065  1.6158  3.2013 -1.6514
  231ETHOX   O128496  13.466  17.058  16.232  0.1415  0.2162 -0.1475
  231ETHOX   C128497  13.343  17.002  16.276 -0.4931 -0.4567  0.6374
  231ETHOX  H1128498  13.300  17.046  16.368 -1.8487  1.0741 -0.6634
  231ETHOX  H1328499  13.360  16.895  16.301  2.3902  0.4259  3.0441
  231ETHOX   C228500  13.237  17.008  16.164 -0.2772  0.1866  0.7591
  231ETHOX  H2128501  13.141  16.958  16.190 -0.2283 -0.1349  0.3399
  231ETHOX  H2328502  13.277  16.975  16.066  3.6203  2.1260  1.5170
  232ETHOX   O128503  13.204  17.144  16.134  0.1472  0.0646 -0.9317
  232ETHOX   C128504  13.119  17.146  16.022 -0.0238  0.0371  1.0268
  232ETHOX  H1128505  13.169  17.108  15.930 -0.9913  1.0201  0.0758
  232ETHOX  H1328506  13.030  17.085  16.047  2.0645 -3.5894  0.3864
  232ETHOX   C228507  13.083  17.299  16.012 -0.1893  0.5106  0.1087
  232ETHOX  H2128508  13.056  17.329  16.116  1.3737 -2.0185  1.3513
  232ETHOX  H2328509  12.993  17.308  15.947  0.3666  0.4792 -0.6804
  233ETHOX   O128510  13.196  17.384  15.972 -0.3291 -0.0438 -0.3096
  233ETHOX   C128511  13.186  17.524  16.002 -0.3916 -0.4889 -0.0182
  233ETHOX  H1128512  13.087  17.553  15.962 -1.0201 -1.2889  0.8957
  233ETHOX  H1328513  13.179  17.549  16.110  0.9523  2.6457 -0.5347
  233ETHOX   C228514  13.296  17.605  15.932  0.2802 -0.4844  0.7179
  233ETHOX  H2128515  13.399  17.562  15.934  0.0371 -1.1729 -0.6355
  233ETHOX  H2328516  13.297  17.706  15.979  0.2980 -0.1559  0.0267
  234ETHOX   O128517  13.250  17.628  15.793  0.3345 -0.0781  0.2384
  234ETHOX   C128518  13.347  17.693  15.717 -0.5928 -0.4247  0.7342
  234ETHOX  H1128519  13.307  17.752  15.632  0.3113 -0.3957  0.3191
  234ETHOX  H1328520  13.401  17.755  15.791 -0.0350 -0.5467  0.4354
  234ETHOX   C228521  13.431  17.590  15.635 -0.3083  0.0654  0.0732
  234ETHOX  H2128522  13.475  17.507  15.695 -1.9296 -0.8723  0.0156
  234ETHOX  H2328523  13.517  17.639  15.585 -0.3293  1.2013  1.1033
  235ETHOX   O128524  13.349  17.508  15.549 -0.2726  0.6628 -0.4210
  235ETHOX   C128525  13.386  17.520  15.410 -0.1027  0.4907  0.8733
  235ETHOX  H1128526  13.373  17.626  15.381 -1.6985  0.1323  0.1704
  235ETHOX  H1328527  13.487  17.485  15.378 -1.3006 -1.2216 -1.3190
  235ETHOX   C228528  13.293  17.429  15.324  0.2177  0.5912 -0.4701
  235ETHOX  H2128529  13.308  17.443  15.215 -0.0795 -0.4068 -0.6427
  235ETHOX  H2328530  13.186  17.452  15.346 -0.3380 -0.6822 -1.7605
  236ETHOX   O128531  13.325  17.293  15.365 -0.0387 -0.2255  0.0416
  236ETHOX   C128532  13.242  17.201  15.295  0.2754  0.0757 -0.3762
  236ETHOX  H1128533  13.234  17.249  15.196 -1.4775  1.7033  0.4885
  236ETHOX  H1328534  13.144  17.216  15.346 -0.1089  2.7991 -1.7549
  236ETHOX   C228535  13.272  17.057  15.306  0.5316 -0.4892 -0.2011
  236ETHOX  H2128536  13.179  17.001  15.280 -0.7803  1.0295  1.0930
  236ETHOX  H2328537  13.294  17.023  15.410 -0.2096 -0.4460 -0.0261
  237ETHOX   O128538  13.369  17.022  15.212  0.1431  0.2716  0.1816
  237ETHOX   C128539  13.374  16.877  15.192 -0.2484  0.3913 -0.6878
  237ETHOX  H1128540  13.282  16.816  15.202  0.7997 -1.1099  0.2029
  237ETHOX  H1328541  13.412  16.856  15.089 -2.5630 -1.2997 -1.2833
  237ETHOX   C228542  13.457  16.810  15.307 -0.3652  0.1724 -0.0745
  237ETHOX  H2128543  13.393  16.801  15.398  0.0811  0.6792  0.2913
  237ETHOX  H2328544  13.541  16.882  15.318 -0.0396 -0.2306  0.1094
  238ETHOX   O128545  13.506  16.674  15.281  0.1157 -0.2174  0.2700
  238ETHOX   C128546  13.542  16.602  15.397  0.5993  0.0333 -0.1840
  238ETHOX  H1128547  13.457  16.595  15.467  0.5298 -0.2465 -0.2964
  238ETHOX  H1328548  13.629  16.656  15.441  0.2325  2.2404 -1.9477
  238ETHOX   C228549  13.582  16.463  15.336  0.9833 -0.5621  0.1755
  238ETHOX  H2128550  13.505  16.408  15.278  1.9014 -2.6909  0.8844
  238ETHOX  H2328551  13.606  16.397  15.422  3.7161  1.6512  1.2916
  239ETHOX   O128552  13.697  16.479  15.264  1.2479  0.3603  0.3211
  239ETHOX   C128553  13.710  16.381  15.167 -0.1099  0.6626 -1.0418
  239ETHOX  H1128554  13.713  16.283  15.219 -2.5186  2.7942  3.6819
  239ETHOX  H1328555  13.632  16.380  15.088  0.4468 -0.4241 -1.6120
  239ETHOX   C228556  13.842  16.400  15.094  0.4346 -0.2923 -0.9109
  239ETHOX  H2128557  13.924  16.387  15.168  0.0947 -0.2929 -0.5286
  239ETHOX  H2328558  13.848  16.318  15.020  1.8378 -0.4006 -0.6930
  240ETHOX   O128559  13.852  16.525  15.026 -0.6483  0.8361 -0.1880
  240ETHOX   C128560  13.922  16.511  14.905  0.1175 -0.3470 -0.8600
  240ETHOX  H1128561  13.860  16.445  14.840 -1.1868 -1.1645  1.1111
  240ETHOX  H1328562  14.022  16.470  14.931 -1.7453 -2.9690  3.0984
  240ETHOX   C228563  13.939  16.644  14.828  0.2367  0.0240  0.0265
  240ETHOX  H2128564  13.850  16.703  14.858  0.8154  0.2701  1.3166
  240ETHOX  H2328565  13.923  16.627  14.719  0.6055  0.4525 -0.0967
  241ETHOX   O128566  14.060  16.714  14.835 -0.3264  0.2807  0.2284
  241ETHOX   C128567  14.059  16.807  14.945 -0.4434  1.1484  0.6669
  241ETHOX  H1128568  13.982  16.885  14.935 -1.0112  0.4289 -0.7670
  241ETHOX  H1328569  14.033  16.756  15.040 -1.8889  1.2457  0.3467
  241ETHOX   C228570  14.193  16.879  14.975  0.0772 -0.4409 -0.2231
  241ETHOX  H2128571  14.176  16.918  15.078 -1.2708  0.3256 -0.7143
  241ETHOX  H2328572  14.210  16.967  14.909  0.5394  0.6507  1.2821
  242ETHOX   O128573  14.309  16.798  14.989  0.0537 -0.2505  0.1447
  242ETHOX   C128574  14.423  16.879  15.030 -0.2357 -0.2204 -0.0493
  242ETHOX  H1128575  14.412  16.914  15.135 -1.6735  0.6242 -0.4647
  242ETHOX  H1328576  14.449  16.961  14.961  2.3639  0.5461  1.6994
  242ETHOX   C228577  14.554  16.799  15.028  0.8395 -0.2099  0.1778
  242ETHOX  H2128578  14.527  16.703  15.077  1.9136 -0.1976  0.8111
  242ETHOX  H2328579  14.629  16.854  15.088  2.6303  3.0243 -4.4959
  243ETHOX   O128580  14.601  16.774  14.896  0.0947  0.0847  0.5667
  243ETHOX   C128581  14.694  16.665  14.899 -0.6165 -0.5298 -0.1829
  243ETHOX  H1128582  14.786  16.676  14.962 -0.2043 -0.6391 -0.7578
  243ETHOX  H1328583  14.635  16.581  14.941  0.2418 -0.1492  1.9002
  243ETHOX   C228584  14.742  16.622  14.755 -0.0531 -0.0423  0.1574
  243ETHOX  H2128585  14.659  16.614  14.682  0.3137 -0.8124 -0.1807
  243ETHOX  H2328586  14.789  16.522  14.762 -1.5028 -0.6542  1.9697
  244ETHOX   O128587  14.836  16.720  14.711 -0.2924 -0.4132  0.6318
  244ETHOX   C128588  14.931  16.660  14.626  0.4203  0.1876 -0.2781
  244ETHOX  H1128589  14.881  16.611  14.540  0.7417 -0.3987 -0.1357
  244ETHOX  H1328590  14.977  16.577  14.684 -0.2710 -1.9535 -2.6020
  244ETHOX   C228591  15.039  16.753  14.563 -0.4219 -0.5464  0.0249
  244ETHOX  H2128592  14.986  16.832  14.505  0.4018 -0.8962 -1.2671
  244ETHOX  H2328593  15.106  16.696  14.495  3.3658  0.9153  2.2445
  245ETHOX   O128594  15.117  16.823  14.660  0.5200 -0.6014 -0.0419
  245ETHOX   C128595  15.199  16.925  14.606 -0.0639  0.0653  0.0621
  245ETHOX  H1128596  15.211  16.904  14.497 -2.0609  2.4806 -0.7272
  245ETHOX  H1328597  15.145  17.022  14.615 -0.3364  0.2549 -2.6508
  245ETHOX   C228598  15.332  16.911  14.669 -0.8125 -0.4900 -0.5139
  245ETHOX  H2128599  15.369  16.806  14.673 -0.4158 -0.3246  1.8319
  245ETHOX  H2328600  15.333  16.948  14.774  0.3824 -2.0264  0.0639
  246ETHOX   O128601  15.418  16.995  14.596 -0.0685  0.4194 -0.0099
  246ETHOX   C128602  15.559  16.993  14.626  0.0388  0.3252 -1.0504
  246ETHOX  H1128603  15.613  16.911  14.573 -0.3848 -0.2866 -0.5361
  246ETHOX  H1328604  15.576  16.985  14.735 -1.0150 -2.7167 -1.0355
  246ETHOX   C228605  15.632  17.118  14.577 -1.2686 -0.6551  0.4546
  246ETHOX  H2128606  15.721  17.126  14.643 -1.3926  3.1952  0.4176
  246ETHOX  H2328607  15.565  17.206  14.586  0.7271  0.9542  0.5932
  247ETHOX   O128608  15.671  17.110  14.438  0.3851 -0.2440  0.8942
  247ETHOX   C128609  15.752  17.219  14.395 -0.1135  0.3791  1.4491
  247ETHOX  H1128610  15.694  17.311  14.421 -0.9076  0.6557 -1.0758
  247ETHOX  H1328611  15.844  17.217  14.457  1.6148 -0.5516 -1.0196
  247ETHOX   C228612  15.798  17.230  14.246 -0.1205  0.5105 -0.2918
  247ETHOX  H2128613  15.711  17.207  14.181  1.5720 -0.8291 -2.1819
  247ETHOX  H2328614  15.844  17.330  14.233  1.3615  0.3229  2.5703
  248ETHOX   O128615  15.905  17.134  14.226 -0.2191 -0.1162 -0.1574
  248ETHOX   C128616  15.952  17.136  14.092  0.3576  0.3731 -0.3301
  248ETHOX  H1128617  15.882  17.070  14.036 -2.4428  2.9284 -0.1241
  248ETHOX  H1328618  15.943  17.238  14.049 -0.4414  0.2144 -0.5592
  248ETHOX   C228619  16.097  17.082  14.092 -0.2085  0.2241  0.1122
  248ETHOX  H2128620  16.121  17.052  13.988 -0.4648  0.5499 -0.0421
  248ETHOX  H2328621  16.101  16.990  14.154  1.3903 -1.2909 -2.0647
  249ETHOX   O128622  16.193  17.181  14.126  0.4732 -0.7657  0.1501
  249ETHOX   C128623  16.323  17.125  14.145 -0.1554  0.1862  0.1394
  249ETHOX  H1128624  16.313  17.055  14.231 -0.2498 -0.8319 -0.6713
  249ETHOX  H1328625  16.351  17.062  14.058  2.5056 -2.3945  2.6643
  249ETHOX   C228626  16.422  17.228  14.191  0.4871 -0.3140 -0.2528
  249ETHOX  H2128627  16.511  17.170  14.225 -0.7988 -1.3739  1.4631
  249ETHOX  H2328628  16.367  17.274  14.275 -1.0397  0.2078 -1.5006
  250ETHOX   O128629  16.455  17.325  14.088  0.6453 -0.2145  0.6714
  250ETHOX   C128630  16.574  17.390  14.123 -0.3109 -0.8072  0.2539
  250ETHOX  H1128631  16.653  17.321  14.160 -0.9197 -0.6760  1.8505
  250ETHOX  H1328632  16.614  17.445  14.035  0.2738  1.9644  2.1434
  250ETHOX   C228633  16.558  17.503  14.216 -0.1480 -0.1393  0.6274
  250ETHOX  H2128634  16.652  17.500  14.275  0.2782 -0.0378 -0.0345
  250ETHOX  H2328635  16.470  17.477  14.278 -0.8953  0.5160 -0.1309
  251ETHOX   O128636  16.536  17.633  14.158  0.5256  0.1951  0.4215
  251ETHOX   C128637  16.523  17.731  14.263  0.1181 -0.6613  0.6234
  251ETHOX  H1128638  16.626  17.756  14.294 -0.1599  0.6836  0.5317
  251ETHOX  H1328639  16.461  17.683  14.342  0.1327 -1.7146  0.0137
  251ETHOX   C228640  16.456  17.862  14.221  0.1234 -1.5654  0.7589
  251ETHOX  H2128641  16.369  17.836  14.157 -1.6370  4.6645 -0.0895
  251ETHOX  H2328642  16.536  17.920  14.172 -1.3157  0.7058  0.9181
  252ETHOX   O128643  16.409  17.941  14.334 -0.2977 -0.3827 -0.2503
  252ETHOX   C128644  16.265  17.971  14.319  0.1959  0.9773  0.3223
  252ETHOX  H1128645  16.258  18.007  14.214 -0.6507 -1.0470 -0.3687
  252ETHOX  H1328646  16.202  17.880  14.325 -2.6007  2.6479 -1.4146
  252ETHOX   C228647  16.215  18.076  14.422 -0.1857  0.1457 -0.1982
  252ETHOX  H2128648  16.280  18.165  14.431  0.2352 -0.3597  3.9421
  252ETHOX  H2328649  16.198  18.015  14.514 -2.2863 -0.7925 -1.1474
  253ETHOX   O128650  16.081  18.115  14.391 -0.0142 -0.2249 -0.4584
  253ETHOX   C128651  16.020  18.189  14.495  0.1250 -0.5457  0.2432
  253ETHOX  H1128652  16.087  18.270  14.530 -0.4491  0.5881 -1.1877
  253ETHOX  H1328653  16.005  18.122  14.583  0.2009 -0.1368  0.5723
  253ETHOX   C228654  15.884  18.243  14.449 -0.6222  0.0666 -0.0778
  253ETHOX  H2128655  15.825  18.275  14.538  0.8445 -1.2473  1.4255
  253ETHOX  H2328656  15.827  18.165  14.394 -0.9468  0.8785 -0.9163
  254ETHOX   O128657  15.896  18.359  14.373 -0.0476 -0.2647 -0.2197
  254ETHOX   C128658  15.770  18.392  14.308 -0.2223 -0.6556 -0.3113
  254ETHOX  H1128659  15.721  18.294  14.291 -0.8095 -0.1875 -1.4205
  254ETHOX  H1328660  15.719  18.445  14.391  0.5871  0.8287 -0.7368
  254ETHOX   C228661  15.789  18.480  14.179 -0.2939 -0.6723 -0.5220
  254ETHOX  H2128662  15.705  18.479  14.107 -0.5767  1.7084 -0.3107
  254ETHOX  H2328663  15.867  18.421  14.127 -0.2539 -0.9096 -0.1953
  255ETHOX   O128664  15.825  18.618  14.204  0.2243  0.5993 -0.1252
  255ETHOX   C128665  15.710  18.692  14.249 -0.8540 -0.2483 -0.3263
  255ETHOX  H1128666  15.673  18.644  14.342 -1.1462 -0.2463 -0.4407
  255ETHOX  H1328667  15.627  18.696  14.176 -1.3752  2.5505  0.3039
  255ETHOX   C228668  15.752  18.841  14.273 -0.3320 -0.5971  0.2791
  255ETHOX  H2128669  15.669  18.915  14.283  0.2697  0.0362  0.6980
  255ETHOX  H2328670  15.798  18.877  14.179  2.1427 -0.9490  1.2813
  256ETHOX   O128671  15.842  18.858  14.380  0.3116  0.2015 -0.1551
  256ETHOX   C128672  15.889  18.991  14.372  0.5943 -0.4617  0.0653
  256ETHOX  H1128673  15.940  19.019  14.278  2.4301 -0.1375  1.1085
  256ETHOX  H1328674  15.815  19.070  14.393  1.2998 -0.1347  1.4748
  256ETHOX   C228675  15.990  19.013  14.488  0.3003 -0.3854  0.1904
  256ETHOX  H2128676  15.936  19.002  14.584 -0.2562 -0.9653 -0.1757
  256ETHOX  H2328677  16.028  19.117  14.486 -0.3557 -0.1415 -0.0339
  257ETHOX   O128678  16.102  18.920  14.482  0.1655 -0.3518  0.1175
  257ETHOX   C128679  16.218  18.970  14.544 -0.4476  0.0931 -0.3116
  257ETHOX  H1128680  16.194  19.013  14.643 -1.2837  0.5744 -0.7117
  257ETHOX  H1328681  16.248  19.050  14.473 -0.8387 -0.4139 -1.0658
  257ETHOX   C228682  16.338  18.869  14.557 -0.3784  1.1166  0.4588
  257ETHOX  H2128683  16.302  18.768  14.588 -1.3496  1.0501 -0.8074
  257ETHOX  H2328684  16.403  18.913  14.636 -2.2161  1.7828  1.6610
  258ETHOX   O128685  16.410  18.850  14.439  0.5970  0.0327  0.8065
  258ETHOX   C128686  16.547  18.818  14.458 -0.4876  0.1386 -0.3053
  258ETHOX  H1128687  16.566  18.767  14.555  4.3466  1.0327 -0.5227
  258ETHOX  H1328688  16.572  18.740  14.383  0.8379 -1.5139  1.7417
  258ETHOX   C228689  16.648  18.939  14.459 -0.0972 -0.0649  0.0808
  258ETHOX  H2128690  16.640  18.998  14.365 -0.1883 -0.2890 -0.0523
  258ETHOX  H2328691  16.748  18.891  14.450 -0.4372 -0.4428 -2.9507
  259ETHOX   O128692  16.634  19.019  14.580  0.5550 -0.4833  0.4297
  259ETHOX   C128693  16.731  19.127  14.595 -0.1138 -0.3062  0.4710
  259ETHOX  H1128694  16.828  19.088  14.631 -1.2353 -2.4710  1.2859
  259ETHOX  H1328695  16.741  19.183  14.499 -1.2458  0.9625  1.0511
  259ETHOX   C228696  16.679  19.231  14.704 -0.2188  1.3817 -0.4907
  259ETHOX  H2128697  16.572  19.251  14.681 -1.0387 -0.9378  0.9184
  259ETHOX  H2328698  16.739  19.324  14.696  0.4492  0.8281 -2.6172
  260ETHOX   O128699  16.699  19.162  14.830  0.1857  0.2277  0.3276
  260ETHOX   C128700  16.629  19.239  14.934 -0.8637  0.0204 -0.5806
  260ETHOX  H1128701  16.673  19.226  15.035 -0.1269 -1.8844 -1.1036
  260ETHOX  H1328702  16.630  19.349  14.916  0.8520 -0.0199 -0.8879
  260ETHOX   C228703  16.488  19.200  14.946 -0.4351  0.1596  0.1814
  260ETHOX  H2128704  16.437  19.194  14.848 -1.8149 -0.4006  0.9095
  260ETHOX  H2328705  16.428  19.260  15.019 -1.4075  0.4750 -0.8587
  261ETHOX   O128706  16.480  19.071  15.002 -0.5281 -0.4814 -0.0063
  261ETHOX   C128707  16.351  19.031  15.040  0.0285 -0.4016 -0.1993
  261ETHOX  H1128708  16.326  19.087  15.133 -2.7656 -0.2125 -0.9621
  261ETHOX  H1328709  16.287  19.075  14.960 -0.4918  0.9950  0.9256
  261ETHOX   C228710  16.324  18.879  15.059  1.1706  0.1321 -0.2120
  261ETHOX  H2128711  16.353  18.821  14.969 -1.1378  0.3844 -1.1764
  261ETHOX  H2328712  16.226  18.858  15.108  1.4186  1.3987  0.9010
  262ETHOX   O128713  16.410  18.834  15.168  0.3680  0.1747 -0.0144
  262ETHOX   C128714  16.388  18.703  15.213 -0.2715 -0.0122 -0.4835
  262ETHOX  H1128715  16.388  18.628  15.131 -0.7888  0.0331 -0.5293
  262ETHOX  H1328716  16.295  18.686  15.271 -0.2261 -1.0789 -0.6867
  262ETHOX   C228717  16.508  18.669  15.305  1.2948  0.1064  0.1582
  262ETHOX  H2128718  16.464  18.587  15.365 -0.0200  1.3128  0.9030
  262ETHOX  H2328719  16.527  18.759  15.367  3.1238 -0.7929  1.0001
  263ETHOX   O128720  16.626  18.617  15.253  1.0022  0.2542 -0.0207
  263ETHOX   C128721  16.706  18.728  15.203 -0.6524  0.0881  0.1885
  263ETHOX  H1128722  16.746  18.778  15.294 -0.8712  0.3665  0.1326
  263ETHOX  H1328723  16.649  18.803  15.143  0.4411  0.2924 -0.6259
  263ETHOX   C228724  16.828  18.667  15.132  0.4416 -0.3576 -0.4418
  263ETHOX  H2128725  16.874  18.748  15.072 -0.3703  1.1086  0.8494
  263ETHOX  H2328726  16.796  18.578  15.073 -2.9849 -0.6120  1.5180
  264ETHOX   O128727  16.922  18.610  15.218 -0.3605  0.1040 -0.2420
  264ETHOX   C128728  17.014  18.541  15.147  0.2491 -0.7141  0.7339
  264ETHOX  H1128729  17.052  18.599  15.060  1.6127 -2.4946  0.0990
  264ETHOX  H1328730  16.965  18.453  15.101 -0.3544  0.3000 -0.6474
  264ETHOX   C228731  17.121  18.483  15.240  0.2303  0.2425  0.1142
  264ETHOX  H2128732  17.171  18.563  15.298 -1.0923 -0.0751  1.8008
  264ETHOX  H2328733  17.196  18.434  15.174 -0.3456 -0.5317  0.0195
  265ETHOX   O128734  17.058  18.389  15.325 -0.1604  0.3942  0.1412
  265ETHOX   C128735  17.147  18.307  15.403  0.1642 -0.1335 -0.9014
  265ETHOX  H1128736  17.249  18.319  15.362 -0.1717 -2.9459 -2.8776
  265ETHOX  H1328737  17.160  18.347  15.506  3.4437 -2.3012 -0.3442
  265ETHOX   C228738  17.125  18.157  15.405 -0.2835 -0.1827  0.8414
  265ETHOX  H2128739  17.208  18.098  15.449 -0.4391 -0.5787  0.6076
  265ETHOX  H2328740  17.106  18.120  15.302 -0.3885  1.2577  0.3273
  265ETHOX   OZ28741  17.003  18.120  15.465 -0.4460  0.2657 -0.2394
  265ETHOX  HZ128742  16.968  18.039  15.428  1.2840 -0.5124 -0.2814
    1ETHOX   O128743   9.915  16.430   8.091 -0.2003  0.3913  0.2442
    1ETHOX  HO128744   9.868  16.366   8.145  0.7052 -0.8723 -0.4242
    1ETHOX   C128745  10.045  16.435   8.151  1.1871 -0.0445  0.3984
    1ETHOX  H1128746  10.113  16.466   8.069 -0.5153  0.9783 -0.6864
    1ETHOX  H1328747  10.072  16.332   8.184 -0.2035 -0.5973 -0.1030
    1ETHOX   C228748  10.052  16.528   8.278 -0.0003  0.5588  0.0718
    1ETHOX  H2128749  10.153  16.520   8.324 -0.6407  0.0574  1.4390
    1ETHOX  H2328750   9.986  16.496   8.361  1.2329  0.9163  1.2199
    2ETHOX   O128751  10.031  16.667   8.255  0.2032  0.8097  0.1285
    2ETHOX   C128752  10.009  16.728   8.384  0.1848 -0.0004  0.5157
    2ETHOX  H1128753   9.906  16.697   8.414 -0.7827 -0.3618 -2.8077
    2ETHOX  H1328754  10.089  16.697   8.454  1.0227 -0.0726 -0.4598
    2ETHOX   C228755  10.015  16.882   8.369 -0.8863  0.2455  0.1581
    2ETHOX  H2128756  10.062  16.903   8.270 -1.2507  0.3012 -0.0041
    2ETHOX  H2328757  10.067  16.929   8.455 -0.8574 -2.4318  1.6996
    3ETHOX   O128758   9.881  16.938   8.362  0.2523  0.1730 -0.3848
    3ETHOX   C128759   9.881  17.081   8.381 -0.3727 -0.0125 -0.5929
    3ETHOX  H1128760   9.941  17.138   8.306  0.2449 -0.1955 -0.2446
    3ETHOX  H1328761   9.907  17.099   8.488 -0.2658  1.1298 -0.7961
    3ETHOX   C228762   9.737  17.131   8.362 -0.1218 -0.6814 -0.0192
    3ETHOX  H2128763   9.703  17.112   8.258  2.0196  0.3443 -0.9574
    3ETHOX  H2328764   9.744  17.241   8.376  0.2456 -0.6837 -0.1743
    4ETHOX   O128765   9.642  17.077   8.452  0.0688  0.2925 -0.2732
    4ETHOX   C128766   9.510  17.144   8.436 -1.1554 -0.0643 -0.0338
    4ETHOX  H1128767   9.521  17.210   8.348  0.0620 -0.1107  0.0565
    4ETHOX  H1328768   9.437  17.066   8.405 -0.9355 -0.2765 -0.0331
    4ETHOX   C228769   9.474  17.226   8.554  0.5564 -0.7146 -0.3019
    4ETHOX  H2128770   9.392  17.295   8.525 -1.0788 -2.1366  0.7126
    4ETHOX  H2328771   9.559  17.288   8.590 -0.3941  1.8825 -2.1832
    5ETHOX   O128772   9.432  17.142   8.665  0.6418  0.5555 -0.1296
    5ETHOX   C128773   9.405  17.229   8.775 -0.0873  0.2904 -0.5440
    5ETHOX  H1128774   9.486  17.304   8.767  1.5234 -1.2409  0.7458
    5ETHOX  H1328775   9.309  17.283   8.761  1.3153  3.6619  1.5453
    5ETHOX   C228776   9.416  17.161   8.916 -0.2226 -0.2972  0.4585
    5ETHOX  H2128777   9.516  17.113   8.928 -0.3457 -0.0236  3.2157
    5ETHOX  H2328778   9.328  17.095   8.930 -1.9975  1.9158  0.3678
    6ETHOX   O128779   9.406  17.268   9.007 -0.2161  0.2696  0.3100
    6ETHOX   C128780   9.497  17.246   9.115  0.0522  0.2361  0.1817
    6ETHOX  H1128781   9.490  17.144   9.159  3.9099 -0.2974 -0.0497
    6ETHOX  H1328782   9.604  17.259   9.087  0.2024 -1.4020 -0.0938
    6ETHOX   C228783   9.470  17.356   9.218  0.3348  0.1450 -0.1490
    6ETHOX  H2128784   9.469  17.452   9.163  0.7886 -0.1342 -0.6530
    6ETHOX  H2328785   9.561  17.348   9.282  0.6715 -1.0493 -0.7425
    7ETHOX   O128786   9.342  17.341   9.293 -0.1055  0.1031 -0.4592
    7ETHOX   C128787   9.365  17.254   9.404 -0.2592 -0.7198 -1.2103
    7ETHOX  H1128788   9.432  17.168   9.381  1.8544  0.4999  0.0835
    7ETHOX  H1328789   9.427  17.316   9.472  0.9826 -1.1651 -1.9060
    7ETHOX   C228790   9.235  17.218   9.470  0.1169  0.3489 -0.0178
    7ETHOX  H2128791   9.238  17.120   9.521 -1.8594  0.0220 -0.4238
    7ETHOX  H2328792   9.158  17.205   9.390 -0.8661  1.3985  0.7179
    8ETHOX   O128793   9.184  17.306   9.566 -0.5295 -0.7621  0.1222
    8ETHOX   C128794   9.234  17.303   9.696 -0.3254  0.1831  0.4780
    8ETHOX  H1128795   9.336  17.258   9.688  0.7361  2.6873 -1.8027
    8ETHOX  H1328796   9.172  17.240   9.762 -1.5189  0.5205 -0.3007
    8ETHOX   C228797   9.249  17.440   9.759 -0.3442 -0.7334  0.1666
    8ETHOX  H2128798   9.280  17.518   9.687  0.8182  1.0584  2.4831
    8ETHOX  H2328799   9.335  17.450   9.829  0.1915 -0.1656 -0.5664
    9ETHOX   O128800   9.141  17.483   9.844 -0.2690  0.2621 -0.2810
    9ETHOX   C128801   9.130  17.627   9.847 -0.3120  0.2137 -0.5378
    9ETHOX  H1128802   9.227  17.670   9.881 -0.7506  0.8078 -0.0230
    9ETHOX  H1328803   9.124  17.657   9.741 -1.6728  0.8806 -0.2840
    9ETHOX   C228804   9.005  17.656   9.934 -0.2787 -0.1760  0.5752
    9ETHOX  H2128805   8.911  17.640   9.876  0.8518  0.3724 -1.5167
    9ETHOX  H2328806   9.002  17.765   9.953  0.6380  0.2158 -1.2988
   10ETHOX   O128807   8.973  17.572  10.044 -0.1567  0.3656  0.0144
   10ETHOX   C128808   9.071  17.578  10.136 -0.2053  0.3724  0.0372
   10ETHOX  H1128809   9.081  17.678  10.182 -0.8391 -0.3506  1.8588
   10ETHOX  H1328810   9.168  17.546  10.092 -1.3981 -0.7104 -1.9281
   10ETHOX   C228811   9.047  17.481  10.250 -0.8381  0.3750 -0.0424
   10ETHOX  H2128812   9.136  17.485  10.317 -1.6551  1.0180  1.0322
   10ETHOX  H2328813   9.027  17.380  10.209 -2.3932  0.3635  0.6643
   11ETHOX   O128814   8.930  17.527  10.324  0.5336 -0.4264  0.1822
   11ETHOX   C128815   8.907  17.465  10.451 -0.4479  0.3019 -1.0819
   11ETHOX  H1128816   8.871  17.360  10.445 -1.5619  0.5066  0.8469
   11ETHOX  H1328817   8.993  17.481  10.519 -0.7397 -1.3620 -0.2710
   11ETHOX   C228818   8.797  17.546  10.530 -0.3495 -0.2886 -0.3152
   11ETHOX  H2128819   8.815  17.514  10.635  1.4376  1.3730 -0.0545
   11ETHOX  H2328820   8.826  17.653  10.524 -1.9341  0.1695 -0.1224
   12ETHOX   O128821   8.661  17.529  10.493 -0.8623  0.5480 -0.6999
   12ETHOX   C128822   8.578  17.590  10.594 -0.2381  0.6730 -0.2836
   12ETHOX  H1128823   8.581  17.700  10.587 -2.0573  0.9173  1.6112
   12ETHOX  H1328824   8.610  17.550  10.693  0.6821 -1.7976 -1.4803
   12ETHOX   C228825   8.428  17.549  10.561  0.1403  0.0296  0.5727
   12ETHOX  H2128826   8.415  17.542  10.451  3.8444 -2.5460  0.1165
   12ETHOX  H2328827   8.359  17.615  10.618  0.8418  0.3144  1.0997
   13ETHOX   O128828   8.399  17.416  10.621  0.2637 -0.3510 -0.4150
   13ETHOX   C128829   8.263  17.372  10.598 -0.0370  0.4789  0.5404
   13ETHOX  H1128830   8.193  17.458  10.602 -1.7453 -0.7877 -0.5579
   13ETHOX  H1328831   8.261  17.332  10.494  1.0090 -0.4692  0.8634
   13ETHOX   C228832   8.221  17.260  10.696  0.1600 -0.1063 -0.0612
   13ETHOX  H2128833   8.249  17.275  10.803 -2.1766 -1.6488  0.8591
   13ETHOX  H2328834   8.273  17.163  10.682  1.0128  0.2083  0.7964
   14ETHOX   O128835   8.075  17.227  10.691 -0.5048 -0.2231  0.0338
   14ETHOX   C128836   8.039  17.123  10.788 -1.0210 -0.6329  0.6736
   14ETHOX  H1128837   8.022  17.167  10.888  2.0514  0.2802  0.9084
   14ETHOX  H1328838   8.127  17.058  10.806  0.9231  1.8457  0.7140
   14ETHOX   C228839   7.918  17.034  10.756 -0.1279 -0.4549  0.5317
   14ETHOX  H2128840   7.912  16.953  10.832  2.2236  0.6322  1.9880
   14ETHOX  H2328841   7.935  16.986  10.657  0.7284 -2.4760  1.5999
   15ETHOX   O128842   7.797  17.100  10.749 -0.0182 -0.2026 -0.5934
   15ETHOX   C128843   7.690  17.011  10.724 -0.2950 -0.2677  0.3094
   15ETHOX  H1128844   7.609  17.073  10.680 -1.5630 -1.4332  0.9348
   15ETHOX  H1328845   7.720  16.932  10.651  1.7594 -0.0717  0.8835
   15ETHOX   C228846   7.637  16.961  10.861 -0.4106 -0.1003 -0.2257
   15ETHOX  H2128847   7.553  16.892  10.839  0.8327 -0.5402 -4.2619
   15ETHOX  H2328848   7.714  16.902  10.914 -1.1944 -4.0000 -3.0222
   16ETHOX   O128849   7.603  17.067  10.951 -0.5590 -0.4459 -0.1710
   16ETHOX   C128850   7.563  17.017  11.081  0.1415 -0.4437 -0.4115
   16ETHOX  H1128851   7.634  16.941  11.120  0.8082  0.5691  0.4138
   16ETHOX  H1328852   7.584  17.104  11.148  0.7671  0.9428 -2.3405
   16ETHOX   C228853   7.412  16.961  11.095  0.0573 -0.7856 -0.5861
   16ETHOX  H2128854   7.329  17.026  11.061  1.3097  0.0912 -2.1293
   16ETHOX  H2328855   7.389  16.937  11.201 -0.6104  0.9600 -0.2936
   17ETHOX   O128856   7.402  16.836  11.028  0.3739 -0.3074 -0.2333
   17ETHOX   C128857   7.269  16.789  11.016  0.3004  0.1616  0.0561
   17ETHOX  H1128858   7.223  16.794  11.117 -2.5548  1.8947 -1.2040
   17ETHOX  H1328859   7.217  16.859  10.947  2.1618  1.5409 -0.0140
   17ETHOX   C228860   7.256  16.642  10.960  0.2399  0.1911 -0.3132
   17ETHOX  H2128861   7.340  16.628  10.888  1.9817 -2.6898  2.0654
   17ETHOX  H2328862   7.167  16.623  10.896 -1.7722  0.3075  2.2766
   18ETHOX   O128863   7.257  16.542  11.062 -0.3868 -0.1905  0.2597
   18ETHOX   C128864   7.252  16.406  11.013  0.8065 -0.5600 -0.9161
   18ETHOX  H1128865   7.164  16.402  10.944 -1.2596  0.0237  1.5267
   18ETHOX  H1328866   7.349  16.388  10.963  0.6865  0.5714 -1.5833
   18ETHOX   C228867   7.223  16.306  11.127 -0.1329  0.0318  0.1459
   18ETHOX  H2128868   7.292  16.321  11.212  0.4421  1.3627 -0.5320
   18ETHOX  H2328869   7.253  16.205  11.090  2.6782  0.6766  0.4716
   19ETHOX   O128870   7.085  16.310  11.170  0.3785 -0.5540 -0.1037
   19ETHOX   C128871   7.057  16.212  11.266  0.2254  0.4884 -0.1395
   19ETHOX  H1128872   7.153  16.176  11.309 -1.2294 -1.4292  1.6786
   19ETHOX  H1328873   7.003  16.127  11.221 -0.0981  0.7474 -0.2472
   19ETHOX   C228874   6.969  16.258  11.375 -0.0999 -1.2632 -0.5607
   19ETHOX  H2128875   6.992  16.364  11.399  2.5289 -1.8023 -0.4042
   19ETHOX  H2328876   6.997  16.206  11.470  0.8514 -0.3460 -0.3170
   20ETHOX   O128877   6.825  16.246  11.340  0.4034 -0.4776 -0.1889
   20ETHOX   C128878   6.746  16.317  11.432 -0.2366 -0.6279  0.0821
   20ETHOX  H1128879   6.756  16.293  11.539  0.0643  0.3553  0.2852
   20ETHOX  H1328880   6.759  16.426  11.418 -0.1907 -0.4474  1.4518
   20ETHOX   C228881   6.594  16.286  11.390  0.1803  0.5906  0.2840
   20ETHOX  H2128882   6.581  16.318  11.285  1.6856  0.3814  0.0094
   20ETHOX  H2328883   6.530  16.340  11.463  0.2479 -1.6156  2.0922
   21ETHOX   O128884   6.575  16.148  11.409 -0.2307  0.3977 -0.1156
   21ETHOX   C128885   6.444  16.108  11.431 -0.1152 -0.8048 -0.2687
   21ETHOX  H1128886   6.413  16.074  11.330  2.8664 -0.9172 -1.2297
   21ETHOX  H1328887   6.378  16.190  11.467 -0.6393 -2.1651  2.1044
   21ETHOX   C228888   6.445  15.986  11.529  0.4345 -0.2646  0.2852
   21ETHOX  H2128889   6.505  15.907  11.480  0.9514 -1.6065  2.9059
   21ETHOX  H2328890   6.337  15.961  11.534  0.0938  1.1832  0.9747
   22ETHOX   O128891   6.498  16.025  11.652  0.1095  0.1003  0.1227
   22ETHOX   C128892   6.422  15.977  11.759 -0.7932  0.5108  0.6283
   22ETHOX  H1128893   6.322  16.025  11.752 -0.6838  0.5870 -0.7598
   22ETHOX  H1328894   6.397  15.869  11.748 -1.5718  0.8916 -2.3635
   22ETHOX   C228895   6.491  16.004  11.890  0.6786  0.9098  0.0170
   22ETHOX  H2128896   6.552  16.097  11.892  1.3782  0.4684 -0.1960
   22ETHOX  H2328897   6.413  16.013  11.968 -0.9106  2.5533 -1.6514
   23ETHOX   O128898   6.583  15.900  11.915  0.1525 -0.4694  0.1174
   23ETHOX   C128899   6.604  15.878  12.052 -0.5159  0.4548 -0.5485
   23ETHOX  H1128900   6.648  15.776  12.063 -0.5229  0.5702  0.6712
   23ETHOX  H1328901   6.511  15.859  12.110 -0.4089 -3.5172 -1.3763
   23ETHOX   C228902   6.698  15.968  12.131  0.2079  0.4111 -0.9348
   23ETHOX  H2128903   6.788  15.992  12.071  0.8181  0.9531  0.1676
   23ETHOX  H2328904   6.726  15.926  12.230 -3.1791  0.3366  0.1267
   24ETHOX   O128905   6.644  16.095  12.148 -0.2543  0.8084 -0.2196
   24ETHOX   C128906   6.748  16.174  12.202  0.1039  0.0714  0.0411
   24ETHOX  H1128907   6.807  16.117  12.277  0.3958 -1.2339 -1.1444
   24ETHOX  H1328908   6.816  16.219  12.126 -0.1313  1.4483  0.6101
   24ETHOX   C228909   6.704  16.304  12.277  0.3582 -0.9267 -0.5046
   24ETHOX  H2128910   6.777  16.334  12.355  1.4516 -0.7396 -1.5816
   24ETHOX  H2328911   6.609  16.289  12.333 -0.2262  2.1243 -0.4964
   25ETHOX   O128912   6.699  16.412  12.186 -0.2665 -0.1763  0.2566
   25ETHOX   C128913   6.591  16.401  12.091  0.0973 -0.2350 -0.1321
   25ETHOX  H1128914   6.500  16.360  12.139  0.4685  0.6398  1.4079
   25ETHOX  H1328915   6.622  16.329  12.012 -0.5344  1.0455 -1.5951
   25ETHOX   C228916   6.548  16.531  12.028 -0.8649 -0.1995  0.2963
   25ETHOX  H2128917   6.492  16.603  12.091 -0.5112  0.4829 -0.1549
   25ETHOX  H2328918   6.488  16.498  11.940  1.1395 -0.9144 -0.8618
   26ETHOX   O128919   6.656  16.603  11.968  0.0746 -0.5508 -0.6841
   26ETHOX   C128920   6.604  16.723  11.905  0.2476 -0.3175 -0.0708
   26ETHOX  H1128921   6.537  16.692  11.821 -0.2207  1.3014 -0.3313
   26ETHOX  H1328922   6.539  16.781  11.973  0.4734  0.2744 -0.3528
   26ETHOX   C228923   6.715  16.817  11.848 -0.6568  0.4596  0.2707
   26ETHOX  H2128924   6.779  16.834  11.937 -0.9289 -2.1881  1.0514
   26ETHOX  H2328925   6.682  16.921  11.829  2.8623  2.0615  1.9868
   27ETHOX   O128926   6.785  16.766  11.738  0.4066  0.0652 -0.4532
   27ETHOX   C128927   6.717  16.803  11.620 -0.9448 -0.3149 -0.1060
   27ETHOX  H1128928   6.709  16.910  11.592  0.0271  0.2794  1.7630
   27ETHOX  H1328929   6.614  16.761  11.615 -2.1060  2.4341 -1.2797
   27ETHOX   C228930   6.801  16.717  11.510  1.1260  0.6922 -0.0871
   27ETHOX  H2128931   6.736  16.702  11.420  1.7830 -1.4150 -0.2678
   27ETHOX  H2328932   6.819  16.617  11.554  1.4003  1.0561  0.6295
   28ETHOX   O128933   6.919  16.789  11.478  0.3504 -0.4216  0.2228
   28ETHOX   C128934   7.017  16.700  11.425  0.9181 -0.1136 -0.1786
   28ETHOX  H1128935   7.117  16.748  11.429 -0.1708  2.3553 -0.4845
   28ETHOX  H1328936   7.027  16.610  11.490  0.7616 -0.3002 -0.4115
   28ETHOX   C228937   6.974  16.637  11.283  0.5197 -0.2682  0.5844
   28ETHOX  H2128938   6.884  16.577  11.306 -0.3142  0.1880 -1.3633
   28ETHOX  H2328939   7.054  16.562  11.265  1.0178  0.6977 -1.4929
   29ETHOX   O128940   6.946  16.711  11.160  0.1614 -0.5300  0.2135
   29ETHOX   C128941   6.916  16.621  11.057  0.0593 -0.0600  0.6270
   29ETHOX  H1128942   6.837  16.558  11.104  0.1734 -0.8353 -0.2060
   29ETHOX  H1328943   7.004  16.556  11.041 -0.8567 -1.9047  2.5151
   29ETHOX   C228944   6.866  16.671  10.912  0.3451  0.1694 -0.1292
   29ETHOX  H2128945   6.770  16.727  10.905  0.3030  0.1618  0.3581
   29ETHOX  H2328946   6.850  16.576  10.857 -0.3908 -1.0809  2.0933
   30ETHOX   O128947   6.972  16.747  10.850  0.7787  0.1263 -0.2622
   30ETHOX   C128948   6.930  16.801  10.725 -0.0257 -0.2806  0.3055
   30ETHOX  H1128949   6.900  16.712  10.665 -0.0466  0.7284 -1.2445
   30ETHOX  H1328950   6.845  16.869  10.745 -0.1202 -0.0817 -0.7254
   30ETHOX   C228951   7.045  16.878  10.661 -0.0037 -0.4898 -0.6125
   30ETHOX  H2128952   7.078  16.954  10.734 -0.6607 -2.7115  2.1819
   30ETHOX  H2328953   7.011  16.926  10.567  2.3036  1.4483 -0.5436
   31ETHOX   O128954   7.144  16.783  10.624  0.0377 -0.1344 -0.5648
   31ETHOX   C128955   7.276  16.840  10.639 -0.5150  0.3155 -0.6679
   31ETHOX  H1128956   7.281  16.939  10.590 -0.2838  1.6888  1.9120
   31ETHOX  H1328957   7.299  16.858  10.747 -1.1761 -0.2804 -0.4213
   31ETHOX   C228958   7.387  16.758  10.573  0.9388  0.4692  0.2572
   31ETHOX  H2128959   7.475  16.824  10.560  0.6203  0.7119 -0.7332
   31ETHOX  H2328960   7.354  16.724  10.473  1.0941  0.8133  0.0885
   32ETHOX   O128961   7.439  16.648  10.650 -0.6719  0.0692  0.5103
   32ETHOX   C128962   7.541  16.582  10.581  0.0596  0.1987  0.3319
   32ETHOX  H1128963   7.488  16.542  10.492  0.9812  1.6675 -0.9273
   32ETHOX  H1328964   7.626  16.648  10.553  0.4914 -0.3737  0.2859
   32ETHOX   C228965   7.611  16.473  10.659 -0.2596  0.0828 -0.6641
   32ETHOX  H2128966   7.537  16.404  10.706  0.5214 -1.5370 -1.7581
   32ETHOX  H2328967   7.658  16.515  10.751 -0.2221 -0.2463 -0.5321
   33ETHOX   O128968   7.705  16.404  10.578  0.1184 -0.3083 -0.0577
   33ETHOX   C128969   7.777  16.301  10.637 -0.1527  0.1419  0.3534
   33ETHOX  H1128970   7.863  16.343  10.692  1.4087 -1.6003 -0.6177
   33ETHOX  H1328971   7.705  16.238  10.694 -1.0287  0.4271 -0.4082
   33ETHOX   C228972   7.829  16.207  10.527 -0.1514  0.9820  0.0862
   33ETHOX  H2128973   7.743  16.192  10.458 -0.1268 -2.4144  0.6344
   33ETHOX  H2328974   7.852  16.112  10.580 -2.9905  0.0673 -0.1848
   34ETHOX   O128975   7.952  16.267  10.466 -0.1438 -0.0761 -0.3224
   34ETHOX   C128976   8.002  16.186  10.362 -0.8798 -0.1753 -0.0681
   34ETHOX  H1128977   7.977  16.240  10.268  1.6479 -1.3137 -1.5003
   34ETHOX  H1328978   7.948  16.089  10.352  1.1967 -1.3327 -0.4491
   34ETHOX   C228979   8.151  16.153  10.382 -0.2933  1.2263  1.2206
   34ETHOX  H2128980   8.209  16.245  10.402  0.3005  1.8414 -2.5250
   34ETHOX  H2328981   8.191  16.108  10.288  0.8148  1.2876  1.6530
   35ETHOX   O128982   8.179  16.069  10.495  0.7450  0.3369 -0.0059
   35ETHOX   C128983   8.180  15.937  10.448 -0.7009  0.3499  0.4812
   35ETHOX  H1128984   8.086  15.910  10.395 -0.6396  1.3455 -0.1619
   35ETHOX  H1328985   8.265  15.909  10.382 -0.7877 -0.2734  0.6304
   35ETHOX   C228986   8.204  15.838  10.565 -0.2661  0.1490 -0.0277
   35ETHOX  H2128987   8.294  15.866  10.624  0.4690 -2.8651  0.4636
   35ETHOX  H2328988   8.235  15.736  10.534  1.4667  0.8870 -0.8754
   36ETHOX   O128989   8.102  15.824  10.658  0.6842  0.6881  0.0478
   36ETHOX   C128990   8.127  15.723  10.757  0.7290  0.8094 -0.4042
   36ETHOX  H1128991   8.045  15.734  10.831  0.1514  0.7514 -1.0241
   36ETHOX  H1328992   8.226  15.736  10.805 -0.2052  1.2841  1.4985
   36ETHOX   C228993   8.109  15.578  10.713  0.2502  0.1881  0.2130
   36ETHOX  H2128994   8.113  15.519  10.807  1.1763  1.8791  1.2970
   36ETHOX  H2328995   8.197  15.553  10.649  0.1682  1.1800 -0.3121
   37ETHOX   O128996   7.994  15.547  10.633  0.1548 -0.4784 -0.1068
   37ETHOX   C128997   7.989  15.407  10.614 -0.2815 -0.1601  0.2444
   37ETHOX  H1128998   8.073  15.376  10.548 -1.6093 -2.7237 -0.3492
   37ETHOX  H1328999   8.000  15.358  10.713  0.5981  0.6493  0.5644
   37ETHOX   C229000   7.866  15.367  10.531  0.7703 -0.0562  0.4817
   37ETHOX  H2129001   7.879  15.258  10.510 -1.6058 -0.2561 -0.2236
   37ETHOX  H2329002   7.838  15.424  10.441  1.2593  0.6313  0.7560
   38ETHOX   O129003   7.754  15.355  10.608  0.1759 -0.5093 -0.5365
   38ETHOX   C129004   7.655  15.287  10.532 -0.1127 -0.5425  0.2509
   38ETHOX  H1129005   7.687  15.190  10.489 -0.4816 -0.6412  0.2019
   38ETHOX  H1329006   7.629  15.352  10.445  0.6745 -0.4693  0.0576
   38ETHOX   C229007   7.531  15.269  10.619 -0.3382 -0.2474 -0.1133
   38ETHOX  H2129008   7.445  15.228  10.560  0.2780 -1.5674 -0.1414
   38ETHOX  H2329009   7.490  15.363  10.660  0.6254 -0.2746  0.9370
   39ETHOX   O129010   7.560  15.163  10.710 -0.0376 -0.1931 -0.1177
   39ETHOX   C129011   7.451  15.142  10.804  0.1605 -0.2804 -0.5012
   39ETHOX  H1129012   7.424  15.235  10.858 -2.7757 -0.1648 -1.9767
   39ETHOX  H1329013   7.353  15.145  10.752 -0.6786 -0.3548  1.0217
   39ETHOX   C229014   7.473  15.029  10.908 -0.7179 -0.1934 -0.2118
   39ETHOX  H2129015   7.494  14.939  10.846  2.5437  0.1362  0.2437
   39ETHOX  H2329016   7.386  15.024  10.977 -1.9631  1.5649 -1.5663
   40ETHOX   O129017   7.594  15.052  10.977  0.3549  0.2512 -0.7625
   40ETHOX   C129018   7.672  14.935  10.995 -0.1952  0.5020  0.4882
   40ETHOX  H1129019   7.779  14.961  10.986  0.6021 -1.5424  2.9923
   40ETHOX  H1329020   7.654  14.853  10.922 -1.2621  0.6149  0.5992
   40ETHOX   C229021   7.667  14.869  11.136  0.8694 -0.0016  0.6718
   40ETHOX  H2129022   7.664  14.951  11.211  1.9097  0.2868  0.4205
   40ETHOX  H2329023   7.766  14.820  11.153  0.7007  0.1472  2.1520
   41ETHOX   O129024   7.563  14.771  11.157  0.2237  0.1414 -0.7030
   41ETHOX   C129025   7.569  14.705  11.289 -0.2978 -0.2309  0.4974
   41ETHOX  H1129026   7.647  14.626  11.289 -0.2330 -0.2322 -2.0121
   41ETHOX  H1329027   7.593  14.773  11.374 -0.7406  0.2447  0.2435
   41ETHOX   C229028   7.427  14.656  11.319  0.4154 -0.0208 -0.3285
   41ETHOX  H2129029   7.435  14.566  11.383 -0.4033 -1.1183 -1.7051
   41ETHOX  H2329030   7.399  14.610  11.221 -1.7203  1.4724 -0.4960
   42ETHOX   O129031   7.320  14.740  11.365  0.2886  0.1927 -0.4647
   42ETHOX   C129032   7.338  14.788  11.500  0.1123 -0.1787 -0.2796
   42ETHOX  H1129033   7.446  14.805  11.519  0.0134  0.4120 -0.2333
   42ETHOX  H1329034   7.289  14.888  11.499  1.1229  0.3278 -0.9863
   42ETHOX   C229035   7.295  14.697  11.623  0.2945  0.5739  0.7176
   42ETHOX  H2129036   7.353  14.729  11.712  2.0882  0.6178 -0.4166
   42ETHOX  H2329037   7.325  14.592  11.603  2.6335  1.5070 -1.1916
   43ETHOX   O129038   7.153  14.696  11.639  0.0963  0.3100 -0.0281
   43ETHOX   C129039   7.112  14.618  11.749 -0.8899  0.6287 -0.2033
   43ETHOX  H1129040   7.019  14.560  11.734  0.1839 -0.8206 -1.6634
   43ETHOX  H1329041   7.194  14.547  11.773 -1.8208 -0.3456  0.1465
   43ETHOX   C229042   7.097  14.707  11.878 -0.1015  0.0833  0.2135
   43ETHOX  H2129043   7.181  14.779  11.878 -1.0768  1.2476  0.0940
   43ETHOX  H2329044   7.087  14.654  11.976 -0.1253  2.3256  1.4956
   44ETHOX   O129045   6.977  14.783  11.872  0.3053 -0.4236  0.2864
   44ETHOX   C129046   6.978  14.900  11.956 -1.1697  0.3112 -0.2260
   44ETHOX  H1129047   7.032  14.887  12.052 -0.6151  1.2326 -0.3980
   44ETHOX  H1329048   7.038  14.981  11.908 -3.0808  1.5403 -0.6447
   44ETHOX   C229049   6.839  14.962  11.963 -0.3548 -0.1881 -1.2714
   44ETHOX  H2129050   6.812  14.991  11.859 -0.8319  2.6826 -0.4490
   44ETHOX  H2329051   6.843  15.054  12.026 -0.0174 -0.4128 -0.9630
   45ETHOX   O129052   6.745  14.874  12.015  0.7024  0.1320  0.0409
   45ETHOX   C129053   6.616  14.931  12.005  0.1590 -0.0414  0.7119
   45ETHOX  H1129054   6.601  14.959  11.898  1.9215 -0.3185  0.3572
   45ETHOX  H1329055   6.606  15.023  12.067 -1.1431  1.2580 -1.2892
   45ETHOX   C229056   6.493  14.849  12.048  0.3192 -0.0009 -0.2753
   45ETHOX  H2129057   6.410  14.922  12.037 -0.3878 -0.9338 -1.2920
   45ETHOX  H2329058   6.499  14.823  12.156  1.2053 -1.2977 -0.6076
   46ETHOX   O129059   6.453  14.739  11.971  0.4356 -0.0048 -0.5952
   46ETHOX   C129060   6.332  14.676  12.001 -0.4562 -0.4227  0.2172
   46ETHOX  H1129061   6.313  14.668  12.110  0.3711 -0.9169  0.3395
   46ETHOX  H1329062   6.252  14.751  11.981  0.0717  1.1739  3.4010
   46ETHOX   C229063   6.321  14.549  11.923 -0.0447 -0.3427 -0.5868
   46ETHOX  H2129064   6.382  14.546  11.830 -0.8899  1.4532 -1.2304
   46ETHOX  H2329065   6.215  14.542  11.893  0.3006 -2.0217 -1.5621
   47ETHOX   O129066   6.350  14.438  11.993  0.1619  0.5496 -0.2911
   47ETHOX   C129067   6.322  14.321  11.917  0.2401 -0.2299 -0.0399
   47ETHOX  H1129068   6.296  14.347  11.812  1.5401  2.0244  0.1422
   47ETHOX  H1329069   6.229  14.275  11.957  0.8052 -0.0254  1.5995
   47ETHOX   C229070   6.441  14.224  11.904 -0.8607  0.4776  0.2764
   47ETHOX  H2129071   6.417  14.131  11.849 -1.4393  0.9572 -0.2825
   47ETHOX  H2329072   6.504  14.195  11.992  0.2325 -2.8751 -1.4313
   48ETHOX   O129073   6.540  14.297  11.821  0.0137 -0.5458 -0.2121
   48ETHOX   C129074   6.669  14.230  11.808 -0.2049  0.2770 -0.0305
   48ETHOX  H1129075   6.729  14.232  11.902 -0.9459 -1.7385  0.5418
   48ETHOX  H1329076   6.649  14.125  11.778  1.5208 -0.1360  0.1888
   48ETHOX   C229077   6.749  14.298  11.693  0.3809 -0.3593 -0.6918
   48ETHOX  H2129078   6.681  14.285  11.606 -0.4469 -0.7437  0.0026
   48ETHOX  H2329079   6.760  14.407  11.715  1.2214 -0.7045  0.7054
   49ETHOX   O129080   6.868  14.230  11.687 -0.7297  0.5723  0.3828
   49ETHOX   C129081   6.920  14.250  11.555  0.4364  0.3025  0.1073
   49ETHOX  H1129082   7.027  14.228  11.572 -0.4580 -2.1927  3.5600
   49ETHOX  H1329083   6.909  14.357  11.528 -2.8039 -0.2522 -1.2352
   49ETHOX   C229084   6.870  14.148  11.456 -0.6561 -0.3984  0.2032
   49ETHOX  H2129085   6.761  14.150  11.433 -0.4914  1.4438 -0.5348
   49ETHOX  H2329086   6.876  14.047  11.503  0.7602 -0.6754 -0.5258
   50ETHOX   O129087   6.937  14.156  11.328 -0.1853 -0.0090 -0.0007
   50ETHOX   C129088   6.917  14.033  11.262  0.6325  0.2325 -1.0537
   50ETHOX  H1129089   6.939  13.946  11.328 -0.9649 -0.3264 -1.2081
   50ETHOX  H1329090   6.810  14.024  11.231 -0.5494 -0.2935  2.6804
   50ETHOX   C229091   7.013  14.017  11.147  0.5735 -0.2597 -0.5507
   50ETHOX  H2129092   7.005  14.113  11.093  2.3767  0.6990  0.7629
   50ETHOX  H2329093   6.987  13.921  11.098  0.9830 -0.0503 -1.1869
   51ETHOX   O129094   7.146  14.015  11.205 -0.3662 -0.2099 -0.5037
   51ETHOX   C129095   7.244  13.971  11.113 -0.5378  0.0039 -0.0609
   51ETHOX  H1129096   7.188  13.923  11.030  0.6218  0.9703 -1.4553
   51ETHOX  H1329097   7.310  13.890  11.148 -0.5338 -0.3869 -0.9616
   51ETHOX   C229098   7.322  14.085  11.043  0.2120 -0.3546  0.2288
   51ETHOX  H2129099   7.247  14.166  11.051 -2.5048 -2.1938 -3.6211
   51ETHOX  H2329100   7.338  14.072  10.934 -0.0181 -0.1779  0.1740
   52ETHOX   O129101   7.445  14.120  11.109 -0.5006 -0.6104 -0.4722
   52ETHOX   C129102   7.555  14.032  11.075 -0.0591  0.3068  0.0012
   52ETHOX  H1129103   7.535  13.930  11.114  0.0396 -0.2667 -1.4095
   52ETHOX  H1329104   7.567  14.030  10.965  2.4379 -0.5383  0.2123
   52ETHOX   C229105   7.688  14.081  11.128  0.4341 -0.3164 -0.1413
   52ETHOX  H2129106   7.698  14.187  11.093 -1.5528 -0.2200 -0.5341
   52ETHOX  H2329107   7.768  14.012  11.096 -0.9291 -2.7535  1.4444
   53ETHOX   O129108   7.693  14.073  11.272  0.1716  0.0215 -0.6568
   53ETHOX   C129109   7.803  14.150  11.314 -0.7220 -0.0820  0.3724
   53ETHOX  H1129110   7.894  14.106  11.268 -0.1946  0.7259  0.6179
   53ETHOX  H1329111   7.796  14.255  11.276 -0.4698 -0.0593  0.3826
   53ETHOX   C229112   7.816  14.147  11.471 -0.0301  0.2538 -0.7240
   53ETHOX  H2129113   7.715  14.175  11.508 -0.3549  0.1247 -1.4910
   53ETHOX  H2329114   7.893  14.225  11.487  0.6174 -0.6477  0.8098
   54ETHOX   O129115   7.857  14.019  11.522 -0.5092 -0.5118 -0.0161
   54ETHOX   C129116   7.850  14.008  11.668 -0.9443 -0.5923 -0.2677
   54ETHOX  H1129117   7.932  14.070  11.711 -2.3207  0.5283  0.8288
   54ETHOX  H1329118   7.750  14.044  11.701 -0.4878  1.9276 -1.4139
   54ETHOX   C229119   7.862  13.866  11.725  0.0222  0.2792 -0.1820
   54ETHOX  H2129120   7.808  13.796  11.658  3.1948 -1.4197 -1.1605
   54ETHOX  H2329121   7.830  13.865  11.831  0.0903 -1.1179 -0.1587
   55ETHOX   O129122   7.996  13.834  11.717 -0.4736  0.0496 -0.1117
   55ETHOX   C129123   8.024  13.693  11.742  0.8800  0.0723  0.1884
   55ETHOX  H1129124   8.002  13.680  11.850  1.2483 -0.0061  0.2548
   55ETHOX  H1329125   7.974  13.627  11.668 -0.7841  0.3072  1.0616
   55ETHOX   C229126   8.172  13.662  11.724  0.3267  0.9156  0.1457
   55ETHOX  H2129127   8.228  13.735  11.787 -0.9239  0.7439  1.5041
   55ETHOX  H2329128   8.187  13.563  11.772 -1.9296 -1.1967 -3.0903
   56ETHOX   O129129   8.231  13.639  11.596  0.4249  0.0311 -0.6176
   56ETHOX   C129130   8.368  13.598  11.605  0.2092  0.3726 -0.0690
   56ETHOX  H1129131   8.389  13.540  11.513 -1.0163 -0.9228  0.4327
   56ETHOX  H1329132   8.385  13.539  11.698  5.4566  2.3464  0.6214
   56ETHOX   C229133   8.469  13.715  11.628  0.0568 -0.0692 -0.0908
   56ETHOX  H2129134   8.568  13.674  11.658 -0.2448 -0.7972 -0.0813
   56ETHOX  H2329135   8.426  13.777  11.710  1.1356  0.6533 -0.0518
   57ETHOX   O129136   8.478  13.783  11.507  0.1635 -0.5583  0.4329
   57ETHOX   C129137   8.548  13.906  11.517  0.1643 -0.9379  0.1838
   57ETHOX  H1129138   8.482  13.984  11.561  3.3479  0.9531  1.9859
   57ETHOX  H1329139   8.631  13.885  11.588  0.7355  0.8253  0.1104
   57ETHOX   C229140   8.594  13.951  11.386  0.0230 -0.2327 -0.0112
   57ETHOX  H2129141   8.621  14.059  11.395 -4.4617  1.0208  1.3357
   57ETHOX  H2329142   8.511  13.955  11.313 -0.9993  0.5767  1.1411
   58ETHOX   O129143   8.705  13.876  11.327 -0.1267  0.9707  0.1181
   58ETHOX   C129144   8.742  13.927  11.203  0.0072  0.4884 -0.3367
   58ETHOX  H1129145   8.779  14.031  11.211  0.0367  0.5746 -1.3590
   58ETHOX  H1329146   8.652  13.921  11.138 -0.6802 -2.6261  0.7363
   58ETHOX   C229147   8.848  13.847  11.128  0.2453  0.7298 -0.3626
   58ETHOX  H2129148   8.938  13.839  11.194  1.7968  0.2608 -2.4465
   58ETHOX  H2329149   8.876  13.898  11.033 -2.0183  0.8700 -1.0211
   59ETHOX   O129150   8.796  13.710  11.086 -0.1309  0.5147  0.1035
   59ETHOX   C129151   8.891  13.639  11.004  0.3215 -0.6198  0.0508
   59ETHOX  H1129152   8.854  13.676  10.907 -4.0712 -2.4913  0.7446
   59ETHOX  H1329153   8.990  13.683  11.028 -0.5371  1.7045 -0.3786
   59ETHOX   C229154   8.875  13.488  11.006 -0.1688  0.4650 -0.1021
   59ETHOX  H2129155   8.783  13.444  10.962  2.0459 -5.2400  0.2393
   59ETHOX  H2329156   8.871  13.471  11.116  3.5140  2.3770  0.4958
   60ETHOX   O129157   8.995  13.421  10.967  0.1585 -0.1956  0.3266
   60ETHOX   C129158   8.974  13.284  10.992 -0.1893  0.7320  0.3726
   60ETHOX  H1129159   8.999  13.219  10.905 -3.7146 -2.0983  1.2162
   60ETHOX  H1329160   8.869  13.261  11.021  0.4497 -0.9762  1.4834
   60ETHOX   C229161   9.052  13.238  11.121  0.0758  0.3549 -0.3497
   60ETHOX  H2129162   8.996  13.278  11.209  0.0389 -0.9966  0.2601
   60ETHOX  H2329163   9.152  13.286  11.112 -0.4392  1.6635  0.4685
   61ETHOX   O129164   9.071  13.101  11.135 -0.1959  0.1814 -0.4453
   61ETHOX   C129165   9.129  13.076  11.263  0.0748 -0.3157  0.2356
   61ETHOX  H1129166   9.213  13.148  11.279  1.4442 -2.1152  1.5939
   61ETHOX  H1329167   9.055  13.100  11.341  0.5037  0.0100  0.5493
   61ETHOX   C229168   9.196  12.939  11.258  0.3039  0.5019  0.1509
   61ETHOX  H2129169   9.125  12.866  11.215  1.1409 -0.6471  0.6893
   61ETHOX  H2329170   9.221  12.901  11.359 -0.0399  0.9036  0.3951
   62ETHOX   O129171   9.319  12.939  11.178 -0.7018 -0.2118  0.6313
   62ETHOX   C129172   9.351  12.802  11.149  0.0669  0.0013 -0.4779
   62ETHOX  H1129173   9.268  12.746  11.101  1.1020 -1.8081 -0.2680
   62ETHOX  H1329174   9.367  12.752  11.247 -0.3165  1.0072  0.1034
   62ETHOX   C229175   9.482  12.802  11.074 -0.4358  0.4173  0.2925
   62ETHOX  H2129176   9.537  12.707  11.093 -0.4461  0.4001  0.2381
   62ETHOX  H2329177   9.553  12.877  11.115 -0.8636  0.2555  1.3764
   63ETHOX   O129178   9.471  12.798  10.929  0.4703 -0.0898 -0.6354
   63ETHOX   C129179   9.596  12.809  10.861  0.6983  0.6487  0.0738
   63ETHOX  H1129180   9.652  12.888  10.914  0.9084 -1.1562  2.7493
   63ETHOX  H1329181   9.656  12.716  10.859 -0.9472 -0.4614 -1.4315
   63ETHOX   C229182   9.563  12.858  10.719  0.3747 -0.0469 -0.5794
   63ETHOX  H2129183   9.650  12.911  10.676  0.5022  1.5041  1.4106
   63ETHOX  H2329184   9.483  12.934  10.733 -0.5971 -1.1482 -0.0477
   64ETHOX   O129185   9.526  12.747  10.645  0.6802 -0.3559 -0.2576
   64ETHOX   C129186   9.504  12.778  10.507 -0.2160  0.0208 -0.7276
   64ETHOX  H1129187   9.593  12.816  10.452  0.5880 -0.7899 -0.0239
   64ETHOX  H1329188   9.439  12.868  10.511  0.1576  0.3244 -1.3244
   64ETHOX   C229189   9.443  12.650  10.442  0.6732 -0.9980 -0.2569
   64ETHOX  H2129190   9.411  12.675  10.338  2.0965  1.2046 -0.2152
   64ETHOX  H2329191   9.355  12.617  10.503  1.8107 -3.6457  0.1050
   65ETHOX   O129192   9.524  12.534  10.424  0.2666  0.9373 -0.2879
   65ETHOX   C129193   9.545  12.459  10.543  0.0194  0.8747  0.1123
   65ETHOX  H1129194   9.615  12.522  10.602 -0.2276 -0.1374  1.5509
   65ETHOX  H1329195   9.451  12.440  10.599  1.9334 -1.8007  2.7514
   65ETHOX   C229196   9.614  12.320  10.512 -0.4991 -0.3632  0.4102
   65ETHOX  H2129197   9.554  12.255  10.445 -0.9215  0.9252 -0.5045
   65ETHOX  H2329198   9.618  12.267  10.610  0.5782 -0.5168  0.2909
   66ETHOX   O129199   9.739  12.343  10.463 -0.9253  0.1143  0.4446
   66ETHOX   C129200   9.818  12.222  10.429  0.1746 -0.4969 -0.6753
   66ETHOX  H1129201   9.830  12.173  10.528  0.2396  1.9947  0.6470
   66ETHOX  H1329202   9.911  12.271  10.395  0.5614  0.2252  1.2927
   66ETHOX   C229203   9.773  12.129  10.312  0.0677 -0.4015 -0.4134
   66ETHOX  H2129204   9.862  12.068  10.286 -1.0091 -0.8638 -3.4518
   66ETHOX  H2329205   9.738  12.197  10.231 -0.4869  2.6459  2.1542
   67ETHOX   O129206   9.666  12.041  10.348 -0.3124  0.0012 -0.5350
   67ETHOX   C129207   9.615  11.982  10.234 -0.5452 -0.2873  0.1770
   67ETHOX  H1129208   9.696  11.926  10.184 -1.3046  0.1114 -1.6025
   67ETHOX  H1329209   9.545  11.901  10.265 -0.3383  0.1609  1.9278
   67ETHOX   C229210   9.542  12.083  10.147 -0.2143  0.6274  0.1439
   67ETHOX  H2129211   9.495  12.166  10.204  1.7198 -0.0614  2.9416
   67ETHOX  H2329212   9.458  12.028  10.099  1.6841 -1.2852 -1.1749
   68ETHOX   O129213   9.627  12.140  10.044 -0.3131 -0.0578  0.2874
   68ETHOX   C129214   9.557  12.232   9.963  0.2379  0.4654  0.7507
   68ETHOX  H1129215   9.550  12.328  10.019  2.7594  1.7649 -0.9798
   68ETHOX  H1329216   9.617  12.247   9.871 -0.9011  0.2978 -0.0472
   68ETHOX   C229217   9.420  12.187   9.907  0.2089 -0.6000  0.0697
   68ETHOX  H2129218   9.393  12.264   9.832  0.7712 -0.8072 -0.3481
   68ETHOX  H2329219   9.340  12.181   9.984 -0.7422  0.0685 -0.8360
   69ETHOX   O129220   9.419  12.072   9.836  0.3139  0.0390  0.5685
   69ETHOX   C129221   9.288  12.036   9.792 -0.1914 -0.5208  0.5643
   69ETHOX  H1129222   9.232  12.015   9.885  0.6990 -0.1610  1.1872
   69ETHOX  H1329223   9.247  12.119   9.730  1.9006 -1.6246 -2.5830
   69ETHOX   C229224   9.291  11.912   9.697  0.4115 -0.1630 -0.3529
   69ETHOX  H2129225   9.186  11.877   9.692 -0.6672  2.5206  1.4941
   69ETHOX  H2329226   9.354  11.836   9.748 -0.9962 -0.7802  0.5040
   70ETHOX   O129227   9.335  11.953   9.565  0.0695  0.3297 -0.1562
   70ETHOX   C129228   9.295  11.860   9.465  0.1240 -0.1171 -0.0217
   70ETHOX  H1129229   9.185  11.847   9.480  0.2082  0.0507  0.7808
   70ETHOX  H1329230   9.302  11.898   9.361 -0.2034 -1.3498 -0.5211
   70ETHOX   C229231   9.345  11.716   9.484  0.2054 -0.2496  0.2373
   70ETHOX  H2129232   9.292  11.651   9.411 -2.2859  2.6358 -0.7371
   70ETHOX  H2329233   9.327  11.683   9.588  1.3427  0.9930  0.8554
   71ETHOX   O129234   9.485  11.708   9.452 -0.3570  0.5243 -0.8193
   71ETHOX   C129235   9.560  11.616   9.536  0.6567  0.4121  0.1639
   71ETHOX  H1129236   9.507  11.523   9.564  1.5535 -0.0975  0.2099
   71ETHOX  H1329237   9.575  11.660   9.637 -1.2628 -0.6984  1.0057
   71ETHOX   C229238   9.684  11.578   9.457  0.1903  0.1869 -0.3108
   71ETHOX  H2129239   9.657  11.538   9.357  0.3176 -1.5610  0.3198
   71ETHOX  H2329240   9.723  11.484   9.502 -0.8925  0.1906  0.6699
   72ETHOX   O129241   9.786  11.678   9.437 -0.1521  0.1804  1.2722
   72ETHOX   C129242   9.896  11.623   9.358 -0.0906  0.3096  0.0110
   72ETHOX  H1129243   9.956  11.549   9.415 -0.6723 -0.4484 -0.3462
   72ETHOX  H1329244   9.849  11.576   9.269 -1.2483  3.0420 -0.9192
   72ETHOX   C229245   9.994  11.735   9.304  0.0593  0.0199  1.1314
   72ETHOX  H2129246   9.933  11.795   9.234  1.7371  2.3663  1.5815
   72ETHOX  H2329247  10.076  11.686   9.248 -0.1790 -0.6002  1.3156
   73ETHOX   O129248  10.050  11.808   9.418 -0.3714 -0.6585  0.2905
   73ETHOX   C129249  10.112  11.933   9.380  0.3749 -0.1745  1.0258
   73ETHOX  H1129250  10.043  12.002   9.327  1.1679  2.1828  2.8954
   73ETHOX  H1329251  10.196  11.913   9.309 -0.9685 -2.1969 -0.0791
   73ETHOX   C229252  10.167  12.012   9.508 -0.1196  1.0000 -0.4372
   73ETHOX  H2129253  10.088  12.030   9.584  0.2242 -1.9039  0.7377
   73ETHOX  H2329254  10.222  12.105   9.483  2.1022  0.0399  0.5941
   74ETHOX   O129255  10.273  11.936   9.570  0.6183 -0.4718 -0.5335
   74ETHOX   C129256  10.298  12.001   9.696  0.3607 -0.6551  0.5980
   74ETHOX  H1129257  10.319  12.107   9.670  0.8149 -0.8667  0.0748
   74ETHOX  H1329258  10.206  12.012   9.757  0.5958  1.7983  0.6012
   74ETHOX   C229259  10.399  11.952   9.803 -0.5433  0.4932 -0.0921
   74ETHOX  H2129260  10.370  11.848   9.831  0.6016 -0.0688 -0.8934
   74ETHOX  H2329261  10.395  12.019   9.891 -0.3334 -1.5918  1.5989
   75ETHOX   O129262  10.530  11.932   9.749 -0.6577 -0.1277 -0.2614
   75ETHOX   C129263  10.621  11.897   9.851  0.1558 -0.2601  0.1534
   75ETHOX  H1129264  10.581  11.802   9.893 -1.0126 -1.5599 -3.5524
   75ETHOX  H1329265  10.605  11.982   9.922 -1.9025 -2.1393  2.1210
   75ETHOX   C229266  10.767  11.892   9.805 -0.1716 -0.2666 -0.0239
   75ETHOX  H2129267  10.845  11.908   9.883 -0.2712 -0.2862  0.0804
   75ETHOX  H2329268  10.780  11.965   9.723  1.0051  1.2261  1.4192
   76ETHOX   O129269  10.777  11.759   9.747  0.5357 -0.2904 -0.6547
   76ETHOX   C129270  10.899  11.748   9.676  0.6017 -0.2252 -0.6958
   76ETHOX  H1129271  10.920  11.836   9.611 -2.0052  0.1819 -1.0971
   76ETHOX  H1329272  10.977  11.721   9.751  0.1341 -1.1874 -0.5381
   76ETHOX   C229273  10.884  11.627   9.580 -0.0562 -0.2265  0.1081
   76ETHOX  H2129274  10.866  11.534   9.638 -0.0958  0.4926  1.2949
   76ETHOX  H2329275  10.976  11.605   9.522  0.5020  0.2246  0.8016
   77ETHOX   O129276  10.780  11.659   9.488  0.2294 -0.4611  0.1425
   77ETHOX   C129277  10.755  11.546   9.409 -0.1905 -0.8262  0.4471
   77ETHOX  H1129278  10.845  11.502   9.362  0.0515 -1.1462  1.2002
   77ETHOX  H1329279  10.702  11.578   9.317  1.3601 -0.7696 -0.4591
   77ETHOX   C229280  10.662  11.452   9.477  0.3146 -0.1475 -0.6085
   77ETHOX  H2129281  10.604  11.509   9.553 -1.9959 -2.8495 -0.1918
   77ETHOX  H2329282  10.717  11.373   9.532  0.6929 -0.5370 -1.5224
   78ETHOX   O129283  10.570  11.384   9.394 -0.3700 -0.4279 -0.0048
   78ETHOX   C129284  10.624  11.271   9.328  0.4920 -0.1794  0.0275
   78ETHOX  H1129285  10.654  11.303   9.226 -0.1360 -0.4420 -0.2509
   78ETHOX  H1329286  10.712  11.237   9.386 -0.0642 -0.6130  0.6389
   78ETHOX   C229287  10.509  11.168   9.311  0.1699 -0.2162  0.0645
   78ETHOX  H2129288  10.545  11.085   9.247 -0.6273 -0.8279  0.3953
   78ETHOX  H2329289  10.427  11.214   9.251  1.0317 -1.3467 -2.0952
   79ETHOX   O129290  10.464  11.112   9.437  0.2916  0.2876  0.1201
   79ETHOX   C129291  10.386  10.995   9.417 -0.0453 -0.2185 -0.1919
   79ETHOX  H1129292  10.326  11.015   9.326 -0.4907 -1.4375 -0.1871
   79ETHOX  H1329293  10.448  10.903   9.403 -0.8159 -0.7472 -0.1884
   79ETHOX   C229294  10.284  10.981   9.528  0.2181 -0.4034  0.1904
   79ETHOX  H2129295  10.262  11.087   9.555 -1.0612 -0.4297 -0.6897
   79ETHOX  H2329296  10.339  10.927   9.608  2.2535  2.0829  0.6206
   80ETHOX   O129297  10.169  10.920   9.478  0.1190  0.2045  0.4888
   80ETHOX   C129298  10.068  10.909   9.583  0.5549 -0.5424  0.0164
   80ETHOX  H1129299  10.112  10.882   9.682 -1.4964  0.0430  1.1649
   80ETHOX  H1329300  10.026  11.011   9.602  0.9125 -0.2821 -0.5654
   80ETHOX   C229301   9.947  10.818   9.550 -0.0321 -0.2707  0.6850
   80ETHOX  H2129302   9.875  10.833   9.633 -0.1465  0.2658  0.4897
   80ETHOX  H2329303   9.986  10.714   9.543  0.5760  0.0400 -1.0220
   81ETHOX   O129304   9.894  10.845   9.422  0.2202 -0.0264  0.3021
   81ETHOX   C129305   9.803  10.748   9.387  0.9423 -0.0902 -0.6154
   81ETHOX  H1129306   9.851  10.660   9.339 -1.2399 -0.7155 -1.7763
   81ETHOX  H1329307   9.738  10.710   9.468 -1.7301  4.0024 -0.5348
   81ETHOX   C229308   9.698  10.804   9.286 -0.2823 -0.0172 -0.2104
   81ETHOX  H2129309   9.749  10.871   9.213  1.4738 -1.8115 -0.7117
   81ETHOX  H2329310   9.655  10.718   9.230 -1.1105  1.2899 -1.6712
   82ETHOX   O129311   9.589  10.874   9.350  0.4456  0.1357 -0.1429
   82ETHOX   C129312   9.476  10.910   9.263 -0.5116  0.2863 -0.9627
   82ETHOX  H1129313   9.445  10.835   9.187  1.8242 -2.6105  0.6787
   82ETHOX  H1329314   9.514  11.002   9.214  0.2914  0.5275  0.0794
   82ETHOX   C229315   9.354  10.951   9.348 -0.4387 -0.4766 -0.7058
   82ETHOX  H2129316   9.278  10.969   9.270  0.9087 -1.5601 -2.3310
   82ETHOX  H2329317   9.383  11.038   9.412  4.3721 -2.5731  0.3911
   83ETHOX   O129318   9.316  10.839   9.432  0.1155 -0.0825 -0.0518
   83ETHOX   C129319   9.206  10.868   9.527 -0.7507 -0.0280  0.6219
   83ETHOX  H1129320   9.188  10.978   9.534 -1.1526 -0.0517  0.0075
   83ETHOX  H1329321   9.115  10.823   9.482  0.5779 -2.4453  0.1962
   83ETHOX   C229322   9.223  10.813   9.666  0.8590  0.6344 -0.3815
   83ETHOX  H2129323   9.269  10.712   9.662  0.5782  0.4601  0.3841
   83ETHOX  H2329324   9.119  10.813   9.708 -0.2659  2.6808 -2.9165
   84ETHOX   O129325   9.302  10.899   9.745  0.0119 -0.3166  0.0642
   84ETHOX   C129326   9.344  10.832   9.866 -0.8887 -1.1270 -0.2971
   84ETHOX  H1129327   9.408  10.744   9.841 -0.3467 -1.3218  1.6341
   84ETHOX  H1329328   9.252  10.815   9.925 -0.6331 -0.1400  0.4103
   84ETHOX   C229329   9.442  10.917   9.946  0.1857 -0.4702 -0.2582
   84ETHOX  H2129330   9.511  10.970   9.876 -0.0045 -2.0157 -1.6607
   84ETHOX  H2329331   9.491  10.850  10.020  2.4038 -0.4767 -1.6408
   85ETHOX   O129332   9.357  11.009  10.014  0.4465 -0.1545  0.2684
   85ETHOX   C129333   9.427  11.111  10.086  0.4529 -0.7750  0.1279
   85ETHOX  H1129334   9.363  11.144  10.171 -0.0385  1.7540 -1.1210
   85ETHOX  H1329335   9.515  11.069  10.139  2.5978  3.2350  0.1428
   85ETHOX   C229336   9.462  11.231  10.006  1.1006  0.0907  0.2261
   85ETHOX  H2129337   9.465  11.329  10.057  1.7094  0.7643 -1.0396
   85ETHOX  H2329338   9.380  11.256   9.936 -0.6899 -2.3194  1.3345
   86ETHOX   O129339   9.581  11.200   9.944 -0.1575  0.0707  0.5681
   86ETHOX   C129340   9.627  11.313   9.870  0.2236 -0.1770 -0.2793
   86ETHOX  H1129341   9.685  11.383   9.933  0.1200  1.1001 -1.5660
   86ETHOX  H1329342   9.539  11.362   9.823  1.2841 -0.0406 -2.2137
   86ETHOX   C229343   9.714  11.279   9.751 -0.4057 -0.2882 -0.8170
   86ETHOX  H2129344   9.783  11.199   9.785 -1.8749 -1.7754 -1.2580
   86ETHOX  H2329345   9.771  11.367   9.713  1.6524  0.4569  3.3076
   87ETHOX   O129346   9.620  11.227   9.654 -0.4760 -0.2209  0.1800
   87ETHOX   C129347   9.678  11.122   9.570 -0.2965 -0.4708 -0.6764
   87ETHOX  H1129348   9.751  11.066   9.632 -2.2491 -0.5169  1.7653
   87ETHOX  H1329349   9.604  11.048   9.532  1.5342 -2.0698 -1.2395
   87ETHOX   C229350   9.753  11.187   9.450  0.2732  1.2542  0.1640
   87ETHOX  H2129351   9.686  11.260   9.399 -1.1739  0.4639  0.8655
   87ETHOX  H2329352   9.757  11.105   9.376 -1.9825  1.2672 -0.0397
   88ETHOX   O129353   9.888  11.223   9.479  0.5894 -0.2677 -0.1640
   88ETHOX   C129354   9.959  11.245   9.353 -0.0253 -0.1222 -0.4079
   88ETHOX  H1129355   9.925  11.335   9.297  1.6986 -1.2896 -3.5408
   88ETHOX  H1329356   9.947  11.160   9.283 -0.2428  0.8828 -1.6236
   88ETHOX   C229357  10.107  11.274   9.394 -0.0561  0.8034 -0.1326
   88ETHOX  H2129358  10.165  11.306   9.306 -0.0369  2.9650  0.6044
   88ETHOX  H2329359  10.153  11.177   9.425  3.3947  2.3586  0.0246
   89ETHOX   O129360  10.122  11.376   9.500  0.0207  0.1706 -0.6712
   89ETHOX   C129361  10.252  11.430   9.507  0.1048  1.0048 -0.0480
   89ETHOX  H1129362  10.337  11.358   9.510 -1.3960 -0.8183  1.3850
   89ETHOX  H1329363  10.266  11.495   9.418 -1.6586  1.7241  0.1495
   89ETHOX   C229364  10.265  11.529   9.630  0.3221 -0.6003 -0.3094
   89ETHOX  H2129365  10.185  11.606   9.628  2.0345  1.2569 -1.7931
   89ETHOX  H2329366  10.359  11.585   9.614  0.5086 -1.0195 -0.7283
   90ETHOX   O129367  10.256  11.463   9.754  0.0508 -0.2365 -0.2648
   90ETHOX   C129368  10.239  11.552   9.866  0.4424 -0.5572 -0.2538
   90ETHOX  H1129369  10.328  11.614   9.888 -0.8073  0.5503  2.0149
   90ETHOX  H1329370  10.143  11.605   9.847  1.4673  1.3143 -0.4189
   90ETHOX   C229371  10.215  11.458   9.992  0.1618  0.2935 -0.2003
   90ETHOX  H2129372  10.140  11.383   9.959 -0.1361  0.0310  1.0174
   90ETHOX  H2329373  10.159  11.517  10.067 -1.7606 -1.2556 -0.3299
   91ETHOX   O129374  10.323  11.391  10.047  0.2434 -0.8624  0.3199
   91ETHOX   C129375  10.311  11.359  10.185 -0.2562  0.3848  0.0770
   91ETHOX  H1129376  10.414  11.320  10.205  0.1417  1.3847  0.0330
   91ETHOX  H1329377  10.292  11.445  10.252  1.6912  0.7872  0.1762
   91ETHOX   C229378  10.207  11.254  10.209  0.2322 -0.5179  0.0731
   91ETHOX  H2129379  10.245  11.207  10.302 -0.7629  0.2576  0.9007
   91ETHOX  H2329380  10.199  11.178  10.129 -2.5324 -1.6143  1.2415
   92ETHOX   O129381  10.076  11.307  10.239  0.0063 -0.2987  0.3381
   92ETHOX   C129382   9.979  11.202  10.238 -0.0918 -0.7950 -0.2809
   92ETHOX  H1129383   9.990  11.157  10.137  0.8492 -0.0844 -0.5142
   92ETHOX  H1329384  10.003  11.123  10.313 -4.1037 -0.8588  1.1431
   92ETHOX   C229385   9.841  11.256  10.259 -0.1569  0.0596 -0.5436
   92ETHOX  H2129386   9.777  11.174  10.221 -1.7879  0.7543  0.5727
   92ETHOX  H2329387   9.851  11.348  10.196  2.6443  0.8271  0.8764
   93ETHOX   O129388   9.812  11.295  10.400 -0.4378 -0.4262 -0.7675
   93ETHOX   C129389   9.683  11.351  10.416 -0.2586  0.6377  0.1005
   93ETHOX  H1129390   9.614  11.279  10.367  0.3960  0.0932 -0.0255
   93ETHOX  H1329391   9.678  11.452  10.369  1.2089  0.0467 -1.3926
   93ETHOX   C229392   9.649  11.355  10.570  0.5603 -0.3010  0.3890
   93ETHOX  H2129393   9.679  11.255  10.608 -1.1961 -0.1466  2.3481
   93ETHOX  H2329394   9.540  11.371  10.577  0.6211 -0.3592  1.7682
   94ETHOX   O129395   9.715  11.457  10.640  0.1846 -0.1765 -0.2633
   94ETHOX   C129396   9.651  11.468  10.767 -0.0316 -0.1686 -0.1754
   94ETHOX  H1129397   9.542  11.485  10.755  0.1071  2.5004  1.4579
   94ETHOX  H1329398   9.670  11.375  10.825 -0.2620  0.6010  1.1550
   94ETHOX   C229399   9.707  11.580  10.845 -0.0349  0.3185 -0.0727
   94ETHOX  H2129400   9.817  11.583  10.830  0.4687 -1.6091  2.4759
   94ETHOX  H2329401   9.690  11.565  10.954 -1.5710  0.4326 -0.2740
   95ETHOX   O129402   9.640  11.697  10.811 -0.0099  0.5766  0.5730
   95ETHOX   C129403   9.661  11.736  10.674  0.0260  0.3815  0.7231
   95ETHOX  H1129404   9.600  11.674  10.606 -2.3069  3.0465  0.1877
   95ETHOX  H1329405   9.768  11.743  10.643 -0.9138 -0.3992 -3.1982
   95ETHOX   C229406   9.597  11.869  10.661  0.0048 -0.1569  0.1665
   95ETHOX  H2129407   9.629  11.918  10.567 -0.5966 -1.4091 -0.7194
   95ETHOX  H2329408   9.630  11.936  10.743  0.0213  2.3347 -1.7581
   96ETHOX   O129409   9.453  11.871  10.667 -0.2872 -0.4443 -0.4507
   96ETHOX   C129410   9.399  11.851  10.535 -0.6753  0.5278 -0.4506
   96ETHOX  H1129411   9.416  11.939  10.470 -0.9429 -1.0469 -2.8177
   96ETHOX  H1329412   9.448  11.763  10.487 -2.3144 -2.1696  2.4319
   96ETHOX   C229413   9.245  11.820  10.539 -0.0498 -0.3829 -0.4446
   96ETHOX  H2129414   9.210  11.804  10.434  1.8785 -2.8351 -0.8123
   96ETHOX  H2329415   9.198  11.915  10.572  0.3723 -1.0370  2.2900
   97ETHOX   O129416   9.205  11.713  10.623 -1.0474 -0.0700  0.1983
   97ETHOX   C129417   9.066  11.696  10.650  0.3281 -0.4975  0.0309
   97ETHOX  H1129418   9.008  11.727  10.560  0.5304  2.1616  0.7134
   97ETHOX  H1329419   9.041  11.769  10.730 -0.6623  0.0286 -0.7311
   97ETHOX   C229420   9.035  11.560  10.707  0.1735  0.0093  0.3231
   97ETHOX  H2129421   8.936  11.568  10.756 -0.3986  1.8801 -1.0250
   97ETHOX  H2329422   9.103  11.535  10.792  0.8930  1.0621  0.0755
   98ETHOX   O129423   9.044  11.461  10.610 -0.2168  0.3912  0.0495
   98ETHOX   C129424   8.999  11.330  10.650 -0.5830 -0.0620  0.0807
   98ETHOX  H1129425   8.909  11.335  10.715 -0.1219  0.9097  0.6705
   98ETHOX  H1329426   8.968  11.272  10.560  2.6787 -0.3065 -1.0342
   98ETHOX   C229427   9.106  11.252  10.724 -0.6177  0.9372  0.1474
   98ETHOX  H2129428   9.062  11.150  10.735  0.0777  0.5495 -0.6024
   98ETHOX  H2329429   9.121  11.301  10.823  0.2890  0.9601  0.0057
   99ETHOX   O129430   9.231  11.245  10.648 -0.8529 -0.4248 -0.1217
   99ETHOX   C129431   9.220  11.165  10.533 -0.0124  0.4753 -0.6851
   99ETHOX  H1129432   9.215  11.233  10.446  1.2580  1.2505 -0.1785
   99ETHOX  H1329433   9.142  11.086  10.545 -0.1612  0.6854 -0.2642
   99ETHOX   C229434   9.359  11.083  10.519 -0.1920 -0.5595 -0.7277
   99ETHOX  H2129435   9.439  11.156  10.491 -0.4352 -0.4439 -1.1267
   99ETHOX  H2329436   9.353  11.012  10.434 -2.6050 -1.7616  0.3887
  100ETHOX   O129437   9.400  11.006  10.630  0.0679 -0.2280 -0.1716
  100ETHOX   C129438   9.293  10.925  10.680 -0.1420 -0.1729 -0.1674
  100ETHOX  H1129439   9.211  10.990  10.720  1.0020  0.0137  2.0908
  100ETHOX  H1329440   9.260  10.855  10.601  1.2745  0.1202 -1.0588
  100ETHOX   C229441   9.341  10.852  10.801 -0.3122 -0.0202  0.5752
  100ETHOX  H2129442   9.429  10.795  10.764 -0.4600  0.8347 -1.1907
  100ETHOX  H2329443   9.275  10.775  10.847 -0.3652  1.4854  3.2748
  101PROXS   O129444   9.381  10.931  10.910  0.0927  0.6767  0.0408
  101PROXS   C129445   9.307  10.900  11.028  0.2013 -0.2580  0.1416
  101PROXS  H1129446   9.200  10.907  10.999  0.2088 -3.1959 -0.9142
  101PROXS  H1329447   9.324  10.799  11.070 -0.1544  0.6113  2.5238
  101PROXS   C229448   9.351  11.000  11.141 -0.0545 -0.0891  0.1165
  101PROXS  H2129449   9.335  11.103  11.102  1.0034 -0.2175 -0.7072
  101PROXS   C329450   9.490  10.964  11.182 -0.1162  0.3937 -0.2260
  101PROXS  H3129451   9.537  11.041  11.247  0.2426 -0.2321  0.2686
  101PROXS  H3229452   9.504  10.865  11.232 -2.1064  0.2296  0.0752
  101PROXS  H3329453   9.552  10.959  11.090  0.3947 -1.8591  0.1743
  102PROXS   O129454   9.277  10.976  11.263 -0.2000  0.3919  0.8731
  102PROXS   C129455   9.133  10.979  11.243 -0.6808 -0.2388 -0.2626
  102PROXS  H1129456   9.112  11.045  11.157 -0.4699  1.0959  0.6756
  102PROXS  H1329457   9.097  10.875  11.230 -1.5374 -0.2330  1.6818
  102PROXS   C229458   9.052  11.036  11.370  0.6758  0.2605  0.3484
  102PROXS  H2129459   9.093  11.135  11.399 -0.6597  0.3397  2.1667
  102PROXS   C329460   9.081  10.937  11.490  0.0288 -0.1729  0.0523
  102PROXS  H3129461   9.017  10.951  11.580 -1.0637 -0.8591 -0.6032
  102PROXS  H3229462   9.080  10.830  11.463  2.1027 -0.1997 -0.0789
  102PROXS  H3329463   9.184  10.955  11.527 -0.0262  3.5424 -1.1394
  103PROXR   O129464   8.917  11.042  11.334 -0.9881  0.3866  0.4671
  103PROXR   C129465   8.853  11.130  11.428 -0.4768  0.1032 -0.1664
  103PROXR  H1129466   8.808  11.066  11.507 -1.4608  2.6309  1.4449
  103PROXR  H1329467   8.917  11.207  11.475  0.5243 -0.3053 -0.8175
  103PROXR   C229468   8.735  11.206  11.354 -0.3234  0.0501 -0.0027
  103PROXR  H2129469   8.685  11.264  11.435 -1.0780  2.8882 -2.3447
  103PROXR   C329470   8.624  11.127  11.284  0.4989 -0.3121  0.5062
  103PROXR  H3129471   8.525  11.175  11.267  0.7921 -0.0559 -0.6004
  103PROXR  H3229472   8.666  11.108  11.182  0.3458 -1.5320  0.6562
  103PROXR  H3329473   8.609  11.025  11.325  1.2963 -0.3616  0.6911
  104PROXS   O129474   8.790  11.300  11.259  0.0516 -0.1369 -0.0104
  104PROXS   C129475   8.846  11.417  11.319  0.1496  0.0206 -0.4732
  104PROXS  H1129476   8.763  11.477  11.362  1.4390  2.5670 -1.3392
  104PROXS  H1329477   8.923  11.390  11.394 -0.5703 -0.5058  0.0982
  104PROXS   C229478   8.906  11.492  11.200  0.2765 -0.2591 -0.3755
  104PROXS  H2129479   8.822  11.511  11.130  0.3168 -0.4855 -0.4869
  104PROXS   C329480   9.027  11.429  11.132 -0.0072  0.2817  0.4590
  104PROXS  H3129481   8.993  11.330  11.095  0.2033 -0.4275  2.1068
  104PROXS  H3229482   9.066  11.500  11.056  1.5264 -2.6060 -1.6665
  104PROXS  H3329483   9.110  11.408  11.203 -0.1676  0.2812  0.6457
  105PROXS   O129484   8.952  11.615  11.250  0.4096 -0.3447  0.0517
  105PROXS   C129485   8.853  11.716  11.262 -0.4704  0.7275 -0.2196
  105PROXS  H1129486   8.821  11.724  11.156 -0.9313  0.7496 -0.0798
  105PROXS  H1329487   8.781  11.671  11.334  2.9731 -1.0864  2.4113
  105PROXS   C229488   8.910  11.843  11.322 -0.1045 -0.1522 -0.4216
  105PROXS  H2129489   9.015  11.852  11.287  0.3785 -0.5216  0.8779
  105PROXS   C329490   8.928  11.821  11.473  0.8092 -0.8558 -0.0786
  105PROXS  H3129491   8.994  11.897  11.519  1.8451 -1.0248 -1.2350
  105PROXS  H3229492   8.833  11.817  11.531  1.8541  2.7785  2.1851
  105PROXS  H3329493   8.974  11.720  11.486  1.3446 -0.5044  0.9244
  106PROXS   O129494   8.836  11.951  11.284 -0.3455  0.5934  0.6790
  106PROXS   C129495   8.887  12.077  11.325 -0.1148 -0.5501 -0.8732
  106PROXS  H1129496   8.893  12.091  11.435  2.7470  3.5981 -1.3117
  106PROXS  H1329497   8.994  12.092  11.298  0.4030  0.0369  1.3045
  106PROXS   C229498   8.806  12.197  11.275 -0.0481 -0.1470  0.4531
  106PROXS  H2129499   8.710  12.202  11.330 -1.3906  1.9599 -1.8803
  106PROXS   C329500   8.780  12.189  11.118 -0.3020 -0.0142 -0.7389
  106PROXS  H3129501   8.863  12.151  11.056 -2.6953 -3.5451 -2.1152
  106PROXS  H3229502   8.702  12.110  11.108 -0.2094 -0.4480  1.4040
  106PROXS  H3329503   8.760  12.291  11.079  0.0713 -0.0066 -0.9040
  107PROXR   O129504   8.870  12.323  11.315  0.1143  0.7946 -0.2200
  107PROXR   C129505   8.782  12.437  11.302 -0.3079  0.5722 -0.2966
  107PROXR  H1129506   8.793  12.494  11.207 -1.0870  2.3950  0.6427
  107PROXR  H1329507   8.674  12.414  11.309 -0.4256  1.0321 -0.5545
  107PROXR   C229508   8.805  12.541  11.410 -0.0480  0.0319 -0.0082
  107PROXR  H2129509   8.915  12.544  11.423  0.1018 -2.0790 -0.5370
  107PROXR   C329510   8.759  12.495  11.548 -0.2352  0.7177 -0.3529
  107PROXR  H3129511   8.796  12.565  11.625  1.0003  1.4784 -1.5905
  107PROXR  H3229512   8.651  12.493  11.574 -0.0228 -0.7163  0.5583
  107PROXR  H3329513   8.805  12.404  11.591  0.1533  1.2454  0.3696
  108PROXS   O129514   8.755  12.674  11.369 -0.4882 -0.2349  0.4255
  108PROXS   C129515   8.832  12.785  11.435 -0.3952 -0.2936  0.2916
  108PROXS  H1129516   8.826  12.775  11.546 -1.3301  4.0964  0.8267
  108PROXS  H1329517   8.941  12.788  11.412 -0.8502  0.1296 -2.0058
  108PROXS   C229518   8.770  12.927  11.416 -0.0836 -0.4239  0.0444
  108PROXS  H2129519   8.664  12.920  11.447 -0.2540  0.9447 -0.1644
  108PROXS   C329520   8.765  12.966  11.274 -0.0361 -0.6484  0.2831
  108PROXS  H3129521   8.751  12.872  11.217 -1.0579 -1.2485  1.4696
  108PROXS  H3229522   8.699  13.050  11.242  0.3222 -0.3213  0.3851
  108PROXS  H3329523   8.868  13.001  11.249 -0.1196 -0.4980  0.1495
  109PROXS   O129524   8.843  13.015  11.491  0.6208 -0.1172 -0.7585
  109PROXS   C129525   8.776  13.140  11.505 -0.4251  0.6083 -0.2159
  109PROXS  H1129526   8.765  13.194  11.409 -0.2833  0.2646 -0.4281
  109PROXS  H1329527   8.671  13.130  11.541 -0.7411  1.1988 -0.9455
  109PROXS   C229528   8.859  13.234  11.593 -0.4653 -0.1778 -0.3792
  109PROXS  H2129529   8.868  13.192  11.695  0.3566  2.2048  0.5889
  109PROXS   C329530   8.799  13.378  11.609  0.1940 -0.0637  0.3500
  109PROXS  H3129531   8.852  13.432  11.690  1.0537  1.5315 -1.1981
  109PROXS  H3229532   8.804  13.440  11.517 -2.8844 -2.3620 -1.5448
  109PROXS  H3329533   8.693  13.366  11.639 -1.0035  2.2223 -2.4744
  110PROXR   O129534   8.996  13.257  11.541 -0.6401  0.5916  0.0545
  110PROXR   C129535   9.088  13.312  11.634 -0.9694  0.3614  0.1518
  110PROXR  H1129536   9.083  13.423  11.624 -0.9551  0.3604  0.1350
  110PROXR  H1329537   9.054  13.289  11.738 -0.3333 -0.2345  0.2331
  110PROXR   C229538   9.227  13.267  11.592  0.3564 -0.4275 -0.4189
  110PROXR  H2129539   9.237  13.293  11.485 -0.1287 -1.8236 -0.8319
  110PROXR   C329540   9.231  13.118  11.617  0.2878 -0.8462  0.4525
  110PROXR  H3129541   9.318  13.065  11.572 -0.5764 -1.3560 -0.6625
  110PROXR  H3229542   9.246  13.106  11.726  0.9619 -1.5121  0.2988
  110PROXR  H3329543   9.141  13.067  11.576  0.6302 -0.4519 -0.8417
  111PROXS   O129544   9.326  13.336  11.671 -0.3366 -0.3477  0.3427
  111PROXS   C129545   9.450  13.324  11.598 -0.2566  0.0073 -0.2446
  111PROXS  H1129546   9.474  13.219  11.571 -1.0404 -0.8693  2.1661
  111PROXS  H1329547   9.433  13.371  11.499  0.9319 -0.7889 -0.8544
  111PROXS   C229548   9.576  13.375  11.665 -0.4598  0.6881 -0.6042
  111PROXS  H2129549   9.579  13.336  11.769 -1.0300  0.5174 -0.6528
  111PROXS   C329550   9.590  13.526  11.675  0.5319  0.1587 -0.3868
  111PROXS  H3129551   9.608  13.579  11.579  0.1042 -1.1581 -1.2189
  111PROXS  H3229552   9.487  13.550  11.711  0.5495 -1.2049  0.6672
  111PROXS  H3329553   9.657  13.561  11.756 -0.5013  0.2434  0.4596
  112PROXR   O129554   9.689  13.315  11.604 -0.1431  0.4756  0.1291
  112PROXR   C129555   9.806  13.302  11.687  0.2941 -0.4890 -0.3057
  112PROXR  H1129556   9.828  13.403  11.728  2.0910 -0.3202 -1.5289
  112PROXR  H1329557   9.789  13.232  11.771 -1.4944  0.0698 -0.1614
  112PROXR   C229558   9.928  13.260  11.601 -0.9975  0.5135 -0.0525
  112PROXR  H2129559   9.949  13.329  11.517  1.5589  0.2542  0.2866
  112PROXR   C329560   9.902  13.121  11.557 -0.3565  0.1139  0.6014
  112PROXR  H3129561   9.806  13.117  11.502 -0.0217 -0.3756  0.0358
  112PROXR  H3229562   9.975  13.077  11.486 -0.0053 -0.5882  1.3716
  112PROXR  H3329563   9.903  13.052  11.645  4.4824 -0.6012  0.2374
  113PROXS   O129564  10.043  13.267  11.690 -0.1991 -0.4759  0.3789
  113PROXS   C129565  10.144  13.359  11.653  0.1917  0.2736  0.5982
  113PROXS  H1129566  10.093  13.454  11.626 -0.6410 -0.2002  0.4632
  113PROXS  H1329567  10.207  13.384  11.741 -0.2909  1.1800  0.6956
  113PROXS   C229568  10.225  13.315  11.534  0.0360  0.6320 -0.6264
  113PROXS  H2129569  10.156  13.289  11.451 -0.7447 -0.1848  0.2618
  113PROXS   C329570  10.296  13.180  11.573  0.4025 -0.2947 -0.2254
  113PROXS  H3129571  10.219  13.111  11.613 -1.0573  0.9314 -0.8067
  113PROXS  H3229572  10.355  13.137  11.490  1.8095  1.0243  0.0458
  113PROXS  H3329573  10.358  13.206  11.662 -0.9000 -1.4687  1.0934
  114PROXR   O129574  10.314  13.422  11.501  0.0279 -0.3547 -0.6057
  114PROXR   C129575  10.376  13.397  11.378 -0.1764  0.1102  0.4443
  114PROXR  H1129576  10.428  13.299  11.377  2.3726  1.3719 -0.1804
  114PROXR  H1329577  10.295  13.390  11.301 -1.2349 -0.1019  1.5457
  114PROXR   C229578  10.475  13.510  11.346  0.1694  0.4669 -0.7953
  114PROXR  H2129579  10.556  13.513  11.422 -1.5994 -4.0298  1.6606
  114PROXR   C329580  10.409  13.648  11.338  0.8548  0.1112  0.4107
  114PROXR  H3129581  10.349  13.667  11.430  1.6632 -1.2427  1.2446
  114PROXR  H3229582  10.485  13.729  11.333  1.2736 -0.3250 -0.3603
  114PROXR  H3329583  10.350  13.654  11.243  0.5361  1.0178  0.6529
  115PROXR   O129584  10.528  13.486  11.218 -0.0822 -0.3489  0.2450
  115PROXR   C129585  10.617  13.377  11.215  0.3156 -0.3050  0.6176
  115PROXR  H1129586  10.706  13.401  11.278  2.6074 -3.9497 -0.8935
  115PROXR  H1329587  10.578  13.277  11.242  0.7027  0.0040  2.4819
  115PROXR   C229588  10.670  13.371  11.074  0.6463 -0.0641  0.5680
  115PROXR  H2129589  10.716  13.470  11.061 -0.1676  0.3206  0.5384
  115PROXR   C329590  10.552  13.354  10.981  0.4636 -0.6460  0.4169
  115PROXR  H3129591  10.481  13.273  11.008 -1.9782  1.4785  0.7549
  115PROXR  H3229592  10.492  13.447  10.987  0.2547 -0.8553  2.0369
  115PROXR  H3329593  10.586  13.339  10.876 -1.9950 -0.0624 -0.5386
  116PROXS   O129594  10.755  13.259  11.060 -0.1795  0.3850  0.3738
  116PROXS   C129595  10.846  13.290  10.959 -0.4582 -0.7194  1.0888
  116PROXS  H1129596  10.802  13.318  10.861 -1.6711 -2.5523  1.0373
  116PROXS  H1329597  10.919  13.366  10.993  1.0914 -1.2147 -0.9247
  116PROXS   C229598  10.939  13.167  10.931  0.0437  0.1991  0.3161
  116PROXS  H2129599  10.958  13.123  11.032 -3.1466 -1.4853  0.3173
  116PROXS   C329600  11.072  13.200  10.865  0.1617 -0.1700  0.1351
  116PROXS  H3129601  11.134  13.109  10.849  1.6995  0.5548  1.7020
  116PROXS  H3229602  11.071  13.252  10.767  2.1510 -1.6111 -0.7262
  116PROXS  H3329603  11.138  13.255  10.936 -0.9982 -0.8663  1.7912
  117PROXS   O129604  10.875  13.066  10.851  0.1696  0.0325  0.0382
  117PROXS   C129605  10.749  13.012  10.906  0.3223 -0.4408 -0.0014
  117PROXS  H1129606  10.660  13.079  10.899  1.9624  1.8315 -0.1762
  117PROXS  H1329607  10.729  12.925  10.840  0.5187  0.6485 -1.5492
  117PROXS   C229608  10.763  12.942  11.049  0.1375 -0.1196 -0.0460
  117PROXS  H2129609  10.786  13.019  11.126 -0.2493 -0.0176 -0.0308
  117PROXS   C329610  10.862  12.832  11.056 -0.0100 -0.4593 -0.0833
  117PROXS  H3129611  10.962  12.879  11.042 -0.9876  2.1887  1.1503
  117PROXS  H3229612  10.863  12.780  11.154 -1.4262  0.1401  0.2696
  117PROXS  H3329613  10.856  12.752  10.979 -1.0912 -1.8275  1.3448
  118PROXR   O129614  10.634  12.883  11.089 -0.4899 -0.0704  0.8429
  118PROXR   C129615  10.611  12.883  11.228 -0.1434 -0.5876 -0.6128
  118PROXR  H1129616  10.699  12.831  11.271  1.1636  1.0208 -1.2498
  118PROXR  H1329617  10.607  12.987  11.267  2.4826 -0.2547 -1.0536
  118PROXR   C229618  10.484  12.805  11.274 -0.8137  0.1396  0.0733
  118PROXR  H2129619  10.492  12.709  11.217 -0.3268  0.5389 -0.5396
  118PROXR   C329620  10.363  12.879  11.229  0.0310  0.6449  0.0370
  118PROXR  H3129621  10.281  12.804  11.232  1.2497 -0.7020  2.0182
  118PROXR  H3229622  10.342  12.970  11.290 -2.0839 -0.1546  0.5891
  118PROXR  H3329623  10.372  12.899  11.120 -0.8182  1.4335  0.0994
  119PROXR   O129624  10.492  12.784  11.410 -0.0113 -0.0097 -0.5603
  119PROXR   C129625  10.386  12.701  11.467  0.1561 -0.3818 -0.3838
  119PROXR  H1129626  10.300  12.772  11.468  0.2175 -0.1291 -3.8300
  119PROXR  H1329627  10.355  12.628  11.390 -0.0824  0.5309 -1.1611
  119PROXR   C229628  10.429  12.646  11.604 -0.7015 -0.4187 -0.6209
  119PROXR  H2129629  10.462  12.737  11.659 -0.6702 -0.3142 -0.8108
  119PROXR   C329630  10.549  12.546  11.585  1.0287  0.0982 -0.4130
  119PROXR  H3129631  10.509  12.472  11.513 -0.6455  0.5666 -0.0161
  119PROXR  H3229632  10.637  12.591  11.534  1.5089 -0.7411 -0.3401
  119PROXR  H3329633  10.563  12.498  11.685 -2.5628 -0.5391 -0.0919
  120PROXS   O129634  10.320  12.582  11.669  0.7914 -0.0739 -0.3130
  120PROXS   C129635  10.302  12.628  11.803  0.6205 -0.7513  0.7156
  120PROXS  H1129636  10.396  12.609  11.858  2.5623  1.7328 -1.5018
  120PROXS  H1329637  10.290  12.737  11.792 -0.0541 -1.0155 -1.7398
  120PROXS   C229638  10.171  12.591  11.885  0.5702 -0.0307 -0.0918
  120PROXS  H2129639  10.180  12.482  11.903 -0.0674  0.0423  0.7325
  120PROXS   C329640  10.039  12.614  11.806 -0.2159 -0.2105  0.3803
  120PROXS  H3129641  10.044  12.585  11.699 -2.4692  1.1021 -0.1322
  120PROXS  H3229642   9.956  12.548  11.841 -1.5171  1.8305  1.3376
  120PROXS  H3329643  10.011  12.721  11.816  2.0014  0.2290  2.7881
  121PROXS   O129644  10.167  12.664  12.004 -0.3128 -0.0829 -0.3213
  121PROXS   C129645  10.060  12.614  12.095 -0.3486 -0.7181  0.3227
  121PROXS  H1129646   9.966  12.643  12.044 -0.4216  2.3131  1.9568
  121PROXS  H1329647  10.066  12.504  12.112 -0.0245 -1.2976 -2.9819
  121PROXS   C229648  10.054  12.690  12.229 -0.5617  0.7151  0.1535
  121PROXS  H2129649  10.032  12.795  12.201  0.0525  0.6942 -0.4425
  121PROXS   C329650  10.188  12.675  12.310  0.3048  0.4706 -0.2498
  121PROXS  H3129651  10.187  12.575  12.360 -1.1761  0.9810  0.8291
  121PROXS  H3229652  10.271  12.686  12.238 -0.0174 -1.0822 -0.9087
  121PROXS  H3329653  10.201  12.750  12.391 -0.5642 -0.0310  0.3717
  122PROXS   O129654   9.959  12.640  12.308 -0.2696 -0.6555 -0.6418
  122PROXS   C129655   9.831  12.690  12.269  0.2017  0.3425 -0.4149
  122PROXS  H1129656   9.834  12.798  12.296 -2.2126  0.7097 -1.3356
  122PROXS  H1329657   9.811  12.672  12.161 -0.7478 -1.1438 -0.0271
  122PROXS   C229658   9.726  12.611  12.352 -0.1807 -0.9123 -0.5142
  122PROXS  H2129659   9.740  12.632  12.461 -0.7636  1.8940 -0.8837
  122PROXS   C329660   9.749  12.460  12.316  0.3884 -0.8688  0.2286
  122PROXS  H3129661   9.680  12.400  12.379 -2.7616  1.9555 -0.2138
  122PROXS  H3229662   9.730  12.433  12.210 -2.4832  0.7878  0.2011
  122PROXS  H3329663   9.854  12.442  12.347  0.6164  1.0630  0.7772
  123PROXS   O129664   9.597  12.663  12.318  0.2075 -0.0054  0.5661
  123PROXS   C129665   9.495  12.636  12.407  0.4682 -0.3291  0.4662
  123PROXS  H1129666   9.492  12.525  12.412 -3.1390 -0.3476  0.2720
  123PROXS  H1329667   9.515  12.680  12.507  2.9882  0.3415 -0.2347
  123PROXS   C229668   9.357  12.685  12.351  0.7410 -0.7122  0.0390
  123PROXS  H2129669   9.359  12.785  12.303  2.0087  0.5190  2.4715
  123PROXS   C329670   9.249  12.697  12.462 -0.1575  0.0234 -0.0770
  123PROXS  H3129671   9.210  12.600  12.500  1.7874 -0.5582  0.5382
  123PROXS  H3229672   9.288  12.753  12.550  1.4885  0.4486 -1.0283
  123PROXS  H3329673   9.158  12.750  12.425  0.0115 -0.5634 -1.3760
  124PROXR   O129674   9.304  12.591  12.261 -0.1772 -0.8150  0.3539
  124PROXR   C129675   9.389  12.584  12.144  0.3437 -0.1406 -0.3604
  124PROXR  H1129676   9.440  12.681  12.126  0.4477 -0.2387 -0.5959
  124PROXR  H1329677   9.458  12.498  12.159 -0.2913 -0.7981 -1.1032
  124PROXR   C229678   9.308  12.553  12.017 -0.4771 -0.8649  0.1513
  124PROXR  H2129679   9.245  12.642  11.993 -2.0101 -2.0341 -0.3385
  124PROXR   C329680   9.219  12.420  12.032  0.2608  0.2589  0.3833
  124PROXR  H3129681   9.155  12.418  11.941  1.2422  0.6994 -0.3251
  124PROXR  H3229682   9.288  12.333  12.028  0.8573  0.7824 -1.7428
  124PROXR  H3329683   9.157  12.433  12.124 -0.3904  1.7849 -0.2286
  125PROXS   O129684   9.394  12.524  11.907 -0.2329  0.2188 -0.5683
  125PROXS   C129685   9.463  12.630  11.852 -0.0383  0.5422  0.2159
  125PROXS  H1129686   9.396  12.717  11.838 -0.3442  0.4229  0.8811
  125PROXS  H1329687   9.538  12.659  11.929 -0.2665  2.8307 -0.3492
  125PROXS   C229688   9.529  12.585  11.722 -0.0779 -0.5011 -0.0840
  125PROXS  H2129689   9.452  12.559  11.645 -0.1089  1.2609 -0.7003
  125PROXS   C329690   9.614  12.460  11.729 -1.0886  1.0434  0.0345
  125PROXS  H3129691   9.703  12.477  11.794 -1.2781  0.1604  0.5473
  125PROXS  H3229692   9.551  12.386  11.783  0.0916  1.3569  1.9640
  125PROXS  H3329693   9.661  12.428  11.634 -0.3715  0.0492  0.6905
  126PROXS   O129694   9.595  12.694  11.663 -0.3279 -0.5911  0.4264
  126PROXS   C129695   9.594  12.689  11.517 -0.0400 -0.1383 -0.3200
  126PROXS  H1129696   9.641  12.593  11.491 -0.4298  0.1606 -2.2789
  126PROXS  H1329697   9.492  12.695  11.472  1.0490  3.1306 -2.7403
  126PROXS   C229698   9.672  12.809  11.459 -0.6132  0.4399 -1.2123
  126PROXS  H2129699   9.765  12.819  11.520  0.3371  1.4054 -2.7448
  126PROXS   C329700   9.587  12.930  11.470  0.3262  0.3576  0.2635
  126PROXS  H3129701   9.561  12.953  11.576 -0.6095  1.0099 -0.0975
  126PROXS  H3229702   9.626  13.027  11.434  1.1663  0.0254  0.2604
  126PROXS  H3329703   9.486  12.916  11.424 -0.5917 -2.7193  2.7842
  127PROXR   O129704   9.701  12.774  11.327  0.2500  0.5507 -0.0946
  127PROXR   C129705   9.802  12.855  11.272 -0.2605  0.1336  0.1637
  127PROXR  H1129706   9.755  12.893  11.179 -1.6496 -1.2572  0.2396
  127PROXR  H1329707   9.830  12.937  11.340 -1.5229 -1.1423  2.3508
  127PROXR   C229708   9.929  12.775  11.245  0.3001 -0.1879 -0.1369
  127PROXR  H2129709   9.910  12.696  11.169  0.2687 -1.0632  0.7579
  127PROXR   C329710   9.971  12.709  11.375 -0.4759 -0.2103  0.4725
  127PROXR  H3129711  10.012  12.781  11.448 -0.5673  0.5785 -0.2427
  127PROXR  H3229712   9.885  12.653  11.420 -1.7107  0.2719 -1.1838
  127PROXR  H3329713  10.052  12.635  11.360 -1.0009 -0.4458 -1.4147
  128PROXR   O129714  10.032  12.856  11.204 -0.0075 -0.7661  0.5359
  128PROXR   C129715  10.008  12.920  11.068 -0.1279 -0.3244 -1.1408
  128PROXR  H1129716  10.095  12.893  11.006  1.2487 -1.1395  1.0256
  128PROXR  H1329717   9.906  12.902  11.026 -1.4151 -0.0784  1.6181
  128PROXR   C229718  10.001  13.077  11.068  0.4836 -0.4756 -0.0654
  128PROXR  H2129719   9.992  13.118  10.965  2.4762 -0.4423 -0.2536
  128PROXR   C329720  10.128  13.136  11.123  0.0998 -0.1585  0.2595
  128PROXR  H3129721  10.149  13.243  11.105  0.7624 -0.2206  0.6265
  128PROXR  H3229722  10.132  13.109  11.231 -0.0526  0.8385  0.5219
  128PROXR  H3329723  10.214  13.087  11.072 -0.0954  0.3010 -0.5291
  129PROXS   O129724   9.882  13.112  11.137 -0.4635  0.0460 -0.4486
  129PROXS   C129725   9.870  13.258  11.158 -0.5374  0.4379  0.1985
  129PROXS  H1129726   9.937  13.290  11.240  0.1849  1.2502 -0.6779
  129PROXS  H1329727   9.908  13.306  11.065  0.7774  0.3372  0.6653
  129PROXS   C229728   9.728  13.298  11.200 -1.2117 -0.2040 -0.9676
  129PROXS  H2129729   9.715  13.256  11.302 -3.3290  1.1316 -0.6211
  129PROXS   C329730   9.628  13.244  11.102  0.5715  0.0201  0.1226
  129PROXS  H3129731   9.526  13.282  11.123  0.3329 -1.5892  2.1952
  129PROXS  H3229732   9.661  13.279  11.002 -1.0006  1.8540  0.1821
  129PROXS  H3329733   9.617  13.134  11.090 -1.8826  0.1946  0.2978
  130PROXS   O129734   9.721  13.437  11.191  0.4651 -0.6600 -0.8885
  130PROXS   C129735   9.730  13.506  11.314 -0.3829 -0.8078  0.0135
  130PROXS  H1129736   9.627  13.539  11.338 -0.3401  0.1768 -1.0945
  130PROXS  H1329737   9.767  13.437  11.393  1.6012 -2.3373 -2.1358
  130PROXS   C229738   9.820  13.635  11.313 -0.2444 -0.6154 -0.7443
  130PROXS  H2129739   9.801  13.695  11.222 -0.0706  1.0965  0.3069
  130PROXS   C329740   9.973  13.604  11.316 -0.4138  0.3206 -0.0924
  130PROXS  H3129741   9.990  13.568  11.419  0.5979  0.6591 -0.1309
  130PROXS  H3229742   9.980  13.520  11.244 -1.4265 -0.2777  0.4844
  130PROXS  H3329743  10.039  13.688  11.284  0.5552  0.0822  1.2238
  131PROXS   O129744   9.787  13.708  11.430  0.5937 -0.3688  0.3073
  131PROXS   C129745   9.862  13.827  11.439 -0.2590  0.4909 -0.4009
  131PROXS  H1129746   9.969  13.807  11.464  0.1014  2.5982 -0.0953
  131PROXS  H1329747   9.855  13.886  11.345  1.1978  0.5594 -0.4983
  131PROXS   C229748   9.817  13.906  11.564 -0.2694  0.5794  0.4854
  131PROXS  H2129749   9.842  13.833  11.644  1.8599  1.6301  0.8386
  131PROXS   C329750   9.667  13.933  11.559  0.4312 -0.2827 -0.2971
  131PROXS  H3129751   9.648  13.958  11.452 -1.3444  0.2890  0.1299
  131PROXS  H3229752   9.616  13.840  11.592 -0.4351  0.5437  0.7649
  131PROXS  H3329753   9.630  14.006  11.633  0.0537  0.6156 -1.3445
  132PROXS   O129754   9.895  14.028  11.573  0.1660  0.1065 -0.0639
  132PROXS   C129755   9.881  14.086  11.706  0.9459  0.1575  0.1129
  132PROXS  H1129756   9.884  14.196  11.690  3.3023  0.1428  0.1260
  132PROXS  H1329757   9.787  14.054  11.756  1.8162  0.4757  2.0324
  132PROXS   C229758   9.992  14.047  11.803  0.0156  0.4257 -0.4766
  132PROXS  H2129759   9.982  13.938  11.822 -1.0439  0.1957 -2.0984
  132PROXS   C329760   9.989  14.136  11.932  0.1793  0.5889  0.3056
  132PROXS  H3129761   9.895  14.130  11.991  1.4792 -0.4935  2.4245
  132PROXS  H3229762  10.066  14.107  12.007  0.0184  2.0769  1.1023
  132PROXS  H3329763  10.009  14.244  11.914  2.2502  0.1862 -0.0567
  133PROXS   O129764  10.117  14.077  11.746  0.2073 -0.0669 -0.7702
  133PROXS   C129765  10.226  14.005  11.801  0.7692  0.4213  0.0143
  133PROXS  H1129766  10.244  14.025  11.909 -2.3537 -0.3634  0.7802
  133PROXS  H1329767  10.207  13.895  11.797 -0.6123  0.5674  1.5256
  133PROXS   C229768  10.357  14.032  11.725  0.8106  0.4616  0.3591
  133PROXS  H2129769  10.372  14.142  11.737  1.0157  0.5783 -0.9046
  133PROXS   C329770  10.350  13.979  11.578 -0.3158 -0.3601 -0.4764
  133PROXS  H3129771  10.251  14.002  11.534 -0.7479 -0.9162  0.1811
  133PROXS  H3229772  10.420  14.038  11.515  1.2379  0.6645  2.0655
  133PROXS  H3329773  10.360  13.868  11.577 -0.8722 -0.4141 -0.5758
  134PROXS   O129774  10.457  13.958  11.791 -0.5163 -0.1382  0.5661
  134PROXS   C129775  10.581  14.035  11.789  0.0730 -0.2919 -0.6894
  134PROXS  H1129776  10.606  14.043  11.681  1.2177 -4.4252 -0.9017
  134PROXS  H1329777  10.579  14.129  11.847  1.5609 -0.2630 -0.6398
  134PROXS   C229778  10.693  13.943  11.841  0.1781 -0.2345  0.2564
  134PROXS  H2129779  10.702  13.849  11.782 -0.5751 -0.8863  1.1480
  134PROXS   C329780  10.665  13.913  11.996  0.0540  0.0198  0.8276
  134PROXS  H3129781  10.565  13.864  12.002 -0.4407  0.0983 -3.7281
  134PROXS  H3229782  10.748  13.860  12.049  0.0292  0.8554  1.7276
  134PROXS  H3329783  10.657  14.007  12.054 -0.3589  1.7892 -1.9469
  135PROXS   O129784  10.813  14.025  11.839 -0.1855  0.0740  0.8047
  135PROXS   C129785  10.932  13.944  11.843 -0.4407  0.2887  0.1295
  135PROXS  H1129786  10.935  13.893  11.942  0.4333  2.4644  1.2963
  135PROXS  H1329787  10.924  13.867  11.764 -0.8764 -0.0297  0.4740
  135PROXS   C229788  11.054  14.035  11.844 -0.1696  0.6210 -0.7559
  135PROXS  H2129789  11.061  14.087  11.942  0.5564 -0.1074 -0.4019
  135PROXS   C329790  11.060  14.133  11.729 -0.7741 -0.6583 -0.0327
  135PROXS  H3129791  11.151  14.197  11.731  0.4651 -2.3291  2.5034
  135PROXS  H3229792  11.058  14.074  11.635  2.6152 -2.1684  0.7154
  135PROXS  H3329793  10.973  14.202  11.729  0.7589  1.3470 -0.5310
  136PROXS   O129794  11.166  13.942  11.837  0.0379  0.2037 -0.3612
  136PROXS   C129795  11.291  14.003  11.829  0.2961 -0.0472 -0.3689
  136PROXS  H1129796  11.309  14.013  11.720 -2.3337  2.5067 -0.6743
  136PROXS  H1329797  11.286  14.099  11.885 -1.9781  0.0266 -0.6099
  136PROXS   C229798  11.410  13.925  11.888  0.0172  0.5230 -0.5139
  136PROXS  H2129799  11.396  13.910  11.997  0.4625  0.2421 -0.4910
  136PROXS   C329800  11.543  14.002  11.863  0.6661 -0.5468  0.0848
  136PROXS  H3129801  11.626  13.952  11.917  2.8676  2.4359 -0.2544
  136PROXS  H3229802  11.568  13.991  11.756  1.7917 -0.2663  0.3018
  136PROXS  H3329803  11.546  14.109  11.893  1.3997 -0.3451 -0.6889
  137PROXS   O129804  11.439  13.801  11.822 -0.2278 -0.3988  0.0209
  137PROXS   C129805  11.332  13.705  11.843  0.0168 -0.0873 -0.0258
  137PROXS  H1129806  11.333  13.705  11.954 -0.7281  2.9053  0.0754
  137PROXS  H1329807  11.236  13.736  11.797  0.4523  1.1033 -0.1712
  137PROXS   C229808  11.370  13.566  11.789  0.1664 -0.5618 -0.2340
  137PROXS  H2129809  11.468  13.549  11.838 -1.2263 -0.8863  2.6703
  137PROXS   C329810  11.380  13.574  11.639 -1.2173 -0.7667 -0.3911
  137PROXS  H3129811  11.406  13.472  11.601 -0.6008 -1.0646  0.7619
  137PROXS  H3229812  11.289  13.605  11.584 -0.3998 -0.1833 -1.4555
  137PROXS  H3329813  11.464  13.639  11.608 -2.1822  0.8689  0.3314
  138PROXR   O129814  11.288  13.459  11.847 -0.0338 -0.3000  0.4351
  138PROXR   C129815  11.169  13.427  11.781 -0.0582 -0.5179  0.7995
  138PROXR  H1129816  11.114  13.514  11.739  0.8207 -0.9462 -1.3901
  138PROXR  H1329817  11.181  13.362  11.692 -2.6261 -1.1332  0.8407
  138PROXR   C229818  11.079  13.344  11.875 -0.1787  0.6215 -0.5951
  138PROXR  H2129819  11.062  13.395  11.972  1.2112 -0.6600  0.3592
  138PROXR   C329820  11.157  13.213  11.898 -0.2117  0.1531  0.1911
  138PROXR  H3129821  11.093  13.124  11.916  0.1414 -0.0413  0.5090
  138PROXR  H3229822  11.213  13.186  11.806  0.2067  2.2037 -0.1928
  138PROXR  H3329823  11.231  13.217  11.981  1.1672 -3.8777 -0.6078
  139PROXS   O129824  10.950  13.326  11.818  0.4127  0.3224 -0.7357
  139PROXS   C129825  10.860  13.438  11.819 -0.0272  0.8302  0.3728
  139PROXS  H1129826  10.860  13.483  11.921  0.7952 -0.0969  0.7939
  139PROXS  H1329827  10.901  13.502  11.738  2.1938 -0.3726  0.4657
  139PROXS   C229828  10.714  13.390  11.791 -0.1902 -0.1931  0.7307
  139PROXS  H2129829  10.682  13.298  11.844  1.3413 -1.5712 -0.6179
  139PROXS   C329830  10.695  13.347  11.646  0.6336 -0.9672  0.8598
  139PROXS  H3129831  10.589  13.317  11.640 -0.3469  2.3845 -0.9897
  139PROXS  H3229832  10.716  13.419  11.564 -1.9379 -0.3329  0.6889
  139PROXS  H3329833  10.762  13.261  11.621  2.2548  1.0796 -2.5397
  140PROXR   O129834  10.627  13.497  11.820  0.2858 -0.4690 -0.1602
  140PROXR   C129835  10.492  13.470  11.840  1.1247  0.1126 -0.1079
  140PROXR  H1129836  10.426  13.463  11.751  1.3144  2.5518 -0.5202
  140PROXR  H1329837  10.485  13.377  11.899  0.9701  0.9453  1.2185
  140PROXR   C229838  10.436  13.575  11.933 -0.4478 -0.4728 -0.4577
  140PROXR  H2129839  10.464  13.671  11.887  0.5633 -0.2308  0.6314
  140PROXR   C329840  10.497  13.583  12.073 -0.0579 -0.0251  0.3938
  140PROXR  H3129841  10.601  13.545  12.078 -0.3366 -0.8575  0.1624
  140PROXR  H3229842  10.500  13.690  12.102  0.3691  0.0443  0.0950
  140PROXR  H3329843  10.429  13.537  12.149  0.5623 -2.0012 -0.1782
  141PROXS   O129844  10.296  13.557  11.952 -0.3890  0.2200  0.3188
  141PROXS   C129845  10.222  13.674  11.924 -0.4728 -1.1184  0.9505
  141PROXS  H1129846  10.276  13.766  11.956  2.0269 -0.8699 -3.1486
  141PROXS  H1329847  10.209  13.685  11.814 -1.4181  1.2203  1.2362
  141PROXS   C229848  10.080  13.674  11.987 -0.2543 -0.4716 -0.7872
  141PROXS  H2129849  10.088  13.618  12.083  1.2065  0.0521 -0.5864
  141PROXS   C329850   9.981  13.596  11.909  0.8801  0.8848 -0.1341
  141PROXS  H3129851   9.905  13.558  11.981  0.6931  0.6481 -0.4516
  141PROXS  H3229852   9.917  13.657  11.841 -2.7412 -1.3306  1.0352
  141PROXS  H3329853  10.023  13.514  11.847  1.8551  0.5182  0.9876
  142PROXS   O129854  10.039  13.809  12.010 -0.3346  0.1842  0.3031
  142PROXS   C129855   9.995  13.830  12.143 -0.6259  0.0017  0.4822
  142PROXS  H1129856   9.924  13.912  12.164  0.3458  0.7565  0.8631
  142PROXS  H1329857   9.948  13.734  12.175  1.2670 -1.8984 -2.0196
  142PROXS   C229858  10.120  13.836  12.250  0.4314 -0.1156 -0.2409
  142PROXS  H2129859  10.193  13.755  12.230  1.4442  0.6355  0.2751
  142PROXS   C329860  10.056  13.829  12.393 -0.3414  0.3557 -0.5306
  142PROXS  H3129861  10.139  13.829  12.467 -0.6565 -0.4783 -0.1670
  142PROXS  H3229862   9.988  13.916  12.405  0.4327  0.8533  0.4227
  142PROXS  H3329863  10.007  13.730  12.407  0.8008 -0.0245  1.2767
  143PROXS   O129864  10.188  13.958  12.218 -0.2879  0.4860  0.0367
  143PROXS   C129865  10.324  13.952  12.260  0.6006 -0.1778  0.2380
  143PROXS  H1129866  10.341  13.885  12.347 -0.7351 -1.4494 -0.4406
  143PROXS  H1329867  10.380  13.905  12.176  1.3457  0.8604  0.1320
  143PROXS   C229868  10.383  14.085  12.272 -0.4178 -0.2885 -0.2319
  143PROXS  H2129869  10.339  14.126  12.366  0.3120  0.6476 -0.2747
  143PROXS   C329870  10.356  14.177  12.157  0.3883 -0.5388  0.3618
  143PROXS  H3129871  10.249  14.207  12.152 -0.0365 -1.9142  0.8179
  143PROXS  H3229872  10.407  14.276  12.159 -0.8158  0.1177  0.0666
  143PROXS  H3329873  10.387  14.145  12.055 -0.2582  2.2650 -0.8345
  144PROXS   O129874  10.526  14.061  12.285 -0.2869 -0.2191 -0.6064
  144PROXS   C129875  10.593  14.156  12.368  0.8085 -0.1597 -0.1739
  144PROXS  H1129876  10.703  14.156  12.352  0.9298 -1.0450  0.5959
  144PROXS  H1329877  10.537  14.251  12.363  0.8527 -0.1861 -1.2622
  144PROXS   C229878  10.584  14.118  12.518 -0.8108 -0.4120  0.2436
  144PROXS  H2129879  10.479  14.109  12.553 -1.7377  0.3623 -2.1602
  144PROXS   C329880  10.645  14.228  12.605  0.0632  0.5202  0.2862
  144PROXS  H3129881  10.752  14.243  12.578 -0.2010  0.1152 -1.0850
  144PROXS  H3229882  10.604  14.329  12.582 -0.5352 -0.0875 -1.4738
  144PROXS  H3329883  10.639  14.213  12.715  0.1967  1.4883  0.4395
  145PROXR   O129884  10.669  14.002  12.545 -0.1526  0.2594  0.1940
  145PROXR   C129885  10.607  13.873  12.530 -0.3335 -0.0325  0.6514
  145PROXR  H1129886  10.562  13.887  12.429  1.1434  0.8198  0.0838
  145PROXR  H1329887  10.680  13.790  12.526  1.1164  1.2135  0.0894
  145PROXR   C229888  10.513  13.841  12.643 -1.0839 -0.2885 -0.3123
  145PROXR  H2129889  10.424  13.900  12.614 -0.7843 -0.0798 -0.8180
  145PROXR   C329890  10.569  13.880  12.779  0.1228  0.5019 -0.1416
  145PROXR  H3129891  10.559  13.989  12.800  0.5514  0.7381 -1.1018
  145PROXR  H3229892  10.505  13.834  12.857 -1.6592 -0.1386 -1.8789
  145PROXR  H3329893  10.672  13.843  12.798 -0.8281 -2.1166  0.2799
  146PROXS   O129894  10.487  13.704  12.651 -0.6668 -0.2551  0.5591
  146PROXS   C129895  10.405  13.650  12.541  0.2008  0.5751 -0.1713
  146PROXS  H1129896  10.299  13.657  12.574  0.6114 -0.5700  1.5202
  146PROXS  H1329897  10.425  13.695  12.442 -0.0629  1.6977  0.2721
  146PROXS   C229898  10.460  13.501  12.525 -0.2289 -0.2225  0.1394
  146PROXS  H2129899  10.467  13.453  12.625  2.7588  1.7595  1.0045
  146PROXS   C329900  10.594  13.492  12.448  0.6242 -0.2728  0.4677
  146PROXS  H3129901  10.597  13.545  12.350  2.0379 -0.9889  0.1084
  146PROXS  H3229902  10.677  13.550  12.494  1.2064  2.9364 -3.9352
  146PROXS  H3329903  10.619  13.385  12.438 -1.1880 -0.5703 -1.9075
  147PROXR   O129904  10.373  13.429  12.443  0.0815 -0.5003 -0.0266
  147PROXR   C129905  10.286  13.348  12.521  0.0488 -0.3568  0.2271
  147PROXR  H1129906  10.331  13.253  12.556 -1.8828 -1.0150  1.0590
  147PROXR  H1329907  10.251  13.407  12.608  0.0120  0.6773 -0.4718
  147PROXR   C229908  10.166  13.304  12.439 -0.3033  0.4571  0.4982
  147PROXR  H2129909  10.214  13.257  12.350  0.7719  0.3726  1.1098
  147PROXR   C329910  10.084  13.425  12.401  0.4284 -0.0470  0.0424
  147PROXR  H3129911  10.004  13.388  12.332  1.2025 -0.3646 -0.7073
  147PROXR  H3229912  10.034  13.470  12.489 -0.5764 -0.9416 -0.0406
  147PROXR  H3329913  10.143  13.499  12.343  0.3902 -0.2187 -0.2212
  148PROXR   O129914  10.094  13.205  12.518  0.4337 -0.0550 -0.0444
  148PROXR   C129915  10.003  13.122  12.446 -0.0911 -0.1550  1.0566
  148PROXR  H1129916   9.930  13.178  12.384  0.8098  0.9518  0.9553
  148PROXR  H1329917  10.065  13.054  12.383 -1.2684  1.2295 -1.7677
  148PROXR   C229918   9.930  13.042  12.554  0.1663 -0.2129  0.1354
  148PROXR  H2129919   9.921  13.107  12.643 -0.3064 -1.2773  0.8830
  148PROXR   C329920  10.008  12.924  12.611 -0.6497  0.0222 -0.4620
  148PROXR  H3129921   9.984  12.829  12.559  0.6911 -1.0639  0.8078
  148PROXR  H3229922  10.115  12.953  12.602 -0.2638 -0.4995  1.8073
  148PROXR  H3329923   9.993  12.904  12.719  0.4578  1.0311 -0.0925
  149PROXR   O129924   9.809  12.999  12.504  0.2304  0.5779 -0.2391
  149PROXR   C129925   9.700  13.091  12.500 -0.1515 -0.0725  0.3349
  149PROXR  H1129926   9.694  13.142  12.599  1.0848 -2.9625  2.0399
  149PROXR  H1329927   9.714  13.177  12.430  0.0961  2.2534  3.0429
  149PROXR   C229928   9.575  13.016  12.467 -0.0735 -0.4243 -0.7056
  149PROXR  H2129929   9.561  12.927  12.532 -0.1164  0.0207 -0.0981
  149PROXR   C329930   9.575  12.967  12.320  0.8246  0.2713 -0.2144
  149PROXR  H3129931   9.481  12.920  12.286  1.0264  0.2914 -0.8207
  149PROXR  H3229932   9.614  13.046  12.252  0.5574 -0.9912 -1.8941
  149PROXR  H3329933   9.653  12.891  12.299  0.8038 -0.6212  2.5768
  150PROXS   O129934   9.467  13.102  12.485  0.3775 -0.2972  0.6541
  150PROXS   C129935   9.338  13.044  12.471  0.5254  0.0198  0.5168
  150PROXS  H1129936   9.328  13.026  12.362  1.1770  0.5044  0.3755
  150PROXS  H1329937   9.343  12.950  12.530  1.3047 -0.9206 -0.9899
  150PROXS   C229938   9.237  13.133  12.535  0.3631 -0.2882  0.3097
  150PROXS  H2129939   9.237  13.233  12.488 -2.2532  0.4026  1.6226
  150PROXS   C329940   9.270  13.154  12.685  0.1512  0.3447  0.3469
  150PROXS  H3129941   9.192  13.215  12.736 -2.1925  0.6611 -3.2541
  150PROXS  H3229942   9.258  13.055  12.735 -1.6168  0.0306 -0.6004
  150PROXS  H3329943   9.363  13.208  12.711 -0.1795  1.8686 -1.4364
  151PROXR   O129944   9.111  13.078  12.524 -0.2950  0.1811  0.0670
  151PROXR   C129945   9.021  13.150  12.437 -0.2781 -0.0812  0.1118
  151PROXR  H1129946   9.016  13.253  12.478  2.4361  0.1024  0.1161
  151PROXR  H1329947   9.075  13.154  12.340 -3.3175  0.4318 -1.6909
  151PROXR   C229948   8.897  13.065  12.414  0.0530 -0.1254  0.2857
  151PROXR  H2129949   8.833  13.063  12.505  0.2824 -1.3968  0.4373
  151PROXR   C329950   8.929  12.924  12.376 -0.5974  0.0994 -0.0967
  151PROXR  H3129951   8.993  12.871  12.450  3.0639 -0.0984 -3.0804
  151PROXR  H3229952   8.832  12.874  12.359 -0.1817 -0.2567 -1.5048
  151PROXR  H3329953   8.988  12.923  12.282 -1.3925  1.5462 -0.6313
  152PROXR   O129954   8.828  13.110  12.298 -0.3570 -0.1632 -0.5976
  152PROXR   C129955   8.760  13.227  12.307  0.4722 -0.4742 -0.3457
  152PROXR  H1129956   8.714  13.247  12.406  2.4835  0.1793  0.5049
  152PROXR  H1329957   8.833  13.311  12.305  0.6235 -0.6063 -1.8713
  152PROXR   C229958   8.656  13.246  12.191 -0.0570  0.6870 -0.0857
  152PROXR  H2129959   8.573  13.176  12.216  0.9864 -1.3353 -1.9550
  152PROXR   C329960   8.718  13.196  12.056  0.6127  0.1884 -0.4910
  152PROXR  H3129961   8.797  13.264  12.019  0.7615  1.0350  1.2519
  152PROXR  H3229962   8.767  13.097  12.070  3.6602  1.7245  0.5039
  152PROXR  H3329963   8.640  13.179  11.979  1.0740 -0.7961 -0.7551
  153PROXR   O129964   8.614  13.384  12.176  0.5668 -0.2753 -0.4160
  153PROXR   C129965   8.496  13.398  12.099  0.8021 -0.2302  0.7374
  153PROXR  H1129966   8.528  13.418  11.995  1.4136  0.0402  0.9763
  153PROXR  H1329967   8.423  13.315  12.108  0.0612  0.3049 -0.1643
  153PROXR   C229968   8.420  13.534  12.143  0.1454 -0.3497 -0.5144
  153PROXR  H2129969   8.431  13.540  12.254  0.9042  1.8322 -0.6671
  153PROXR   C329970   8.278  13.529  12.095  0.5715  0.0080 -0.3075
  153PROXR  H3129971   8.217  13.607  12.144 -0.6477  0.5384 -2.5484
  153PROXR  H3229972   8.269  13.540  11.985  1.1321  1.4971 -0.2295
  153PROXR  H3329973   8.225  13.435  12.121 -0.9967  1.2886  1.4067
  154PROXS   O129974   8.467  13.655  12.082 -1.0018  0.5209  0.2445
  154PROXS   C129975   8.603  13.688  12.128 -0.0101 -0.5838 -0.2616
  154PROXS  H1129976   8.604  13.696  12.239 -1.0103  1.0406 -0.3425
  154PROXS  H1329977   8.680  13.611  12.107 -0.1700 -0.5714 -0.8894
  154PROXS   C229978   8.648  13.822  12.062  0.1505 -0.1881 -0.5505
  154PROXS  H2129979   8.576  13.895  12.105  2.4029  0.6166  2.1375
  154PROXS   C329980   8.646  13.811  11.908 -0.4942 -0.5335 -0.1054
  154PROXS  H3129981   8.546  13.771  11.880 -0.3829 -2.1240  1.5440
  154PROXS  H3229982   8.656  13.908  11.855 -1.3977  1.1502  2.5836
  154PROXS  H3329983   8.711  13.731  11.865  0.1003  0.6597 -1.5064
  155PROXR   O129984   8.779  13.863  12.097  0.2637 -0.0755  0.2586
  155PROXR   C129985   8.800  13.870  12.240 -0.3458  0.0349 -0.6492
  155PROXR  H1129986   8.711  13.916  12.288  0.3592  2.6521 -1.6407
  155PROXR  H1329987   8.814  13.769  12.282 -0.1628  1.3094  2.6125
  155PROXR   C229988   8.923  13.962  12.274  0.6898 -0.1454  0.2226
  155PROXR  H2129989   8.904  14.061  12.229 -2.1243 -1.1284 -0.9910
  155PROXR   C329990   9.044  13.902  12.212  0.2168 -0.2748  0.5123
  155PROXR  H3129991   9.124  13.978  12.222 -1.6143  1.6573  1.4217
  155PROXR  H3229992   9.069  13.803  12.256  1.4640 -0.0425  0.3601
  155PROXR  H3329993   9.035  13.870  12.106  0.9616 -1.5620  0.8210
  156PROXS   O129994   8.932  13.985  12.416  0.0490 -0.1543 -0.2632
  156PROXS   C129995   9.018  14.096  12.450  0.2414  0.3926  0.1906
  156PROXS  H1129996   9.123  14.058  12.447  0.7020  1.5362  1.2590
  156PROXS  H1329997   9.020  14.174  12.371 -0.2540 -0.4285 -0.6490
  156PROXS   C229998   8.982  14.151  12.587  0.1359  0.1097  0.6520
  156PROXS  H2129999   8.990  14.071  12.664 -1.7356 -0.3290  0.4316
  156PROXS   C330000   8.834  14.209  12.591 -0.7930  0.4388  0.7527
  156PROXS  H3130001   8.764  14.123  12.598  0.7705 -1.0257 -0.6673
  156PROXS  H3230002   8.822  14.275  12.679  0.7993  2.1204 -0.2041
  156PROXS  H3330003   8.827  14.263  12.494 -1.9841 -1.6717 -0.4086
  157PROXS   O130004   9.065  14.268  12.613 -0.0163 -0.6096 -0.7996
  157PROXS   C130005   9.209  14.243  12.629 -0.6562 -0.0293 -0.1774
  157PROXS  H1130006   9.223  14.173  12.715  4.1128  1.7840  0.8344
  157PROXS  H1330007   9.249  14.206  12.532  0.9667  0.0191  0.4299
  157PROXS   C230008   9.282  14.373  12.675 -0.4703  0.6751 -0.3137
  157PROXS  H2130009   9.230  14.422  12.760  2.2841 -0.0481  1.9281
  157PROXS   C330010   9.293  14.461  12.554 -0.2645 -0.0872 -0.0996
  157PROXS  H3130011   9.342  14.558  12.577 -0.6751 -0.0948  0.8341
  157PROXS  H3230012   9.342  14.421  12.463 -0.0521 -2.7599  1.1048
  157PROXS  H3330013   9.186  14.480  12.533 -0.0054 -0.5050 -1.9538
  158PROXR   O130014   9.413  14.341  12.727  0.0711 -0.1059  0.7643
  158PROXR   C130015   9.420  14.372  12.863 -0.2619 -0.1166  0.2330
  158PROXR  H1130016   9.428  14.483  12.872 -1.2684 -0.0913  0.9615
  158PROXR  H1330017   9.328  14.338  12.916 -0.6785  5.2608  3.7825
  158PROXR   C230018   9.552  14.299  12.915  1.0133 -0.1448  0.1500
  158PROXR  H2130019   9.589  14.372  12.990 -1.6345 -0.0414  1.4871
  158PROXR   C330020   9.659  14.282  12.810 -0.1675  0.4214  0.6223
  158PROXR  H3130021   9.650  14.185  12.757  1.5128  0.0114  1.0290
  158PROXR  H3230022   9.664  14.361  12.733  1.3384 -0.7978 -0.5915
  158PROXR  H3330023   9.754  14.283  12.867 -1.7703  2.0717  3.5295
  159PROXR   O130024   9.526  14.182  12.986 -0.1936 -0.1108 -0.0121
  159PROXR   C130025   9.445  14.084  12.906 -0.7328 -0.2482  0.2033
  159PROXR  H1130026   9.345  14.108  12.947 -0.5683 -0.6971  0.8861
  159PROXR  H1330027   9.452  14.086  12.795 -2.3177  0.1159  0.0940
  159PROXR   C230028   9.486  13.940  12.951 -0.0187 -0.1517  0.0511
  159PROXR  H2130029   9.485  13.946  13.062 -1.6299 -1.2590  0.1464
  159PROXR   C330030   9.614  13.920  12.881  0.5019  0.2637  0.1965
  159PROXR  H3130031   9.663  13.827  12.916 -2.6544 -2.0503 -1.0466
  159PROXR  H3230032   9.589  13.916  12.772 -0.8922 -0.0339  0.5056
  159PROXR  H3330033   9.688  14.001  12.898  1.6783 -0.9175  0.8989
  160PROXS   O130034   9.397  13.842  12.896 -0.6836 -0.0811 -0.3773
  160PROXS   C130035   9.395  13.710  12.957 -0.5922 -0.4072  0.3998
  160PROXS  H1130036   9.499  13.670  12.963 -0.3488  0.2673  0.7497
  160PROXS  H1330037   9.354  13.710  13.060 -0.1599  0.6551  0.5848
  160PROXS   C230038   9.301  13.620  12.864  0.0989  0.0216  0.3900
  160PROXS  H2130039   9.198  13.650  12.893 -0.0240 -0.6202  0.6315
  160PROXS   C330040   9.317  13.468  12.900  0.2039 -0.4092  0.2182
  160PROXS  H3130041   9.415  13.430  12.863  0.1924  0.3619 -0.6587
  160PROXS  H3230042   9.305  13.457  13.009  1.1467 -0.1827  0.3588
  160PROXS  H3330043   9.245  13.398  12.853 -0.4124 -0.6101  1.4396
  161PROXR   O130044   9.326  13.630  12.724  0.2912 -0.0065  0.7759
  161PROXR   C130045   9.219  13.587  12.633  0.0998 -0.1095 -0.6977
  161PROXR  H1130046   9.199  13.478  12.640  1.4221 -0.2591  1.6980
  161PROXR  H1330047   9.130  13.648  12.659 -0.4881 -1.0623 -0.4421
  161PROXR   C230048   9.265  13.626  12.493 -0.0661  0.6239  0.1606
  161PROXR  H2130049   9.365  13.583  12.470 -0.6186 -0.0917 -0.9502
  161PROXR   C330050   9.278  13.780  12.499 -0.0743  0.4746  0.3012
  161PROXR  H3130051   9.338  13.806  12.408 -1.1809 -2.4356 -1.3999
  161PROXR  H3230052   9.174  13.816  12.487 -1.2964 -2.3403  1.8374
  161PROXR  H3330053   9.316  13.816  12.597  0.9170 -2.2405  1.0040
  162PROXR   O130054   9.178  13.586  12.387  0.0696  0.4510 -0.2460
  162PROXR   C130055   9.243  13.575  12.257  0.0815  0.1984  0.2745
  162PROXR  H1130056   9.273  13.679  12.233 -1.6092 -0.0474 -3.5551
  162PROXR  H1330057   9.331  13.506  12.261 -1.5446 -1.9551  0.6848
  162PROXR   C230058   9.139  13.536  12.155 -0.3188 -0.0334  1.0045
  162PROXR  H2130059   9.055  13.609  12.155 -1.9888 -1.6018 -3.1357
  162PROXR   C330060   9.088  13.397  12.174 -0.4102  0.4129  0.0045
  162PROXR  H3130061   9.176  13.331  12.157 -0.5779 -0.2414  1.5255
  162PROXR  H3230062   9.070  13.390  12.283  3.7478 -0.3834  0.8238
  162PROXR  H3330063   9.000  13.392  12.106  1.2143 -1.4122 -2.1183
  163PROXS   O130064   9.210  13.546  12.030  0.9481 -0.0660 -0.0170
  163PROXS   C130065   9.126  13.575  11.920  0.3917  0.2262 -0.6801
  163PROXS  H1130066   9.083  13.485  11.870  0.9413  0.1665 -1.0682
  163PROXS  H1330067   9.051  13.653  11.942 -0.8515 -1.7419  2.8302
  163PROXS   C230068   9.218  13.635  11.813  1.0875 -0.1647  0.0248
  163PROXS  H2130069   9.295  13.562  11.780  0.0141 -1.7583  0.8994
  163PROXS   C330070   9.284  13.757  11.866  0.1124 -0.1796 -0.1441
  163PROXS  H3130071   9.215  13.803  11.941 -1.2577  0.6932 -1.8860
  163PROXS  H3230072   9.382  13.739  11.915  0.3966  1.5528 -0.0042
  163PROXS  H3330073   9.306  13.822  11.780 -0.8062 -1.1346 -1.1321
  164PROXR   O130074   9.145  13.685  11.694 -0.2965 -0.0256 -0.5385
  164PROXR   C130075   9.216  13.665  11.564  0.0314  0.9288  0.3754
  164PROXR  H1130076   9.310  13.723  11.558  1.6052 -1.5088  0.2021
  164PROXR  H1330077   9.239  13.557  11.555 -1.0503  0.6255  1.0329
  164PROXR   C230078   9.124  13.707  11.450 -0.7787 -0.0725  0.1624
  164PROXR  H2130079   9.101  13.816  11.456  1.2003  0.3540  0.6974
  164PROXR   C330080   8.995  13.638  11.453  0.8407  0.6594 -0.6115
  164PROXR  H3130081   9.009  13.529  11.442  0.0023  0.5961 -1.0866
  164PROXR  H3230082   8.942  13.645  11.551 -1.9577 -1.1577 -1.8776
  164PROXR  H3330083   8.934  13.679  11.369 -1.9527  1.9041  1.8134
  165PROXR   O130084   9.187  13.674  11.329 -0.0909  0.3155  0.4997
  165PROXR   C130085   9.301  13.748  11.290 -0.4693  0.2716  0.1580
  165PROXR  H1130086   9.282  13.854  11.318 -2.6984  0.8530 -2.9592
  165PROXR  H1330087   9.395  13.716  11.339 -0.5620  3.5696  2.8856
  165PROXR   C230088   9.313  13.733  11.141 -0.9052  0.1421 -0.0155
  165PROXR  H2130089   9.211  13.735  11.098 -2.1128  0.6787  2.7000
  165PROXR   C330090   9.367  13.602  11.093 -0.1031 -1.0260 -0.0478
  165PROXR  H3130091   9.370  13.594  10.982 -1.3608 -1.9379 -0.0302
  165PROXR  H3230092   9.462  13.569  11.141  0.9571  1.0497 -0.5734
  165PROXR  H3330093   9.294  13.522  11.117  0.4639 -1.5448 -0.0112
  166ETHOX   O130094   9.383  13.848  11.080  0.0691 -0.2068  0.1194
  166ETHOX   C130095   9.522  13.845  11.102 -0.1276  0.4371  0.4874
  166ETHOX  H1130096   9.569  13.753  11.061  0.7827  1.5669 -1.1262
  166ETHOX  H1330097   9.541  13.841  11.211 -0.3266 -1.1978  0.4843
  166ETHOX   C230098   9.585  13.965  11.038  0.2054  0.6929  0.1075
  166ETHOX  H2130099   9.685  13.986  11.081 -0.2624  3.3517  0.0833
  166ETHOX  H2330100   9.522  14.050  11.073  0.1374  0.4475  0.5918
  167ETHOX   O130101   9.596  13.961  10.896  0.0047 -0.0428 -0.6050
  167ETHOX   C130102   9.670  14.083  10.853  0.8129 -0.1794 -0.0338
  167ETHOX  H1130103   9.612  14.175  10.876 -0.1677 -0.5725 -0.8623
  167ETHOX  H1330104   9.765  14.089  10.910  0.7031 -1.5496  0.3322
  167ETHOX   C230105   9.703  14.073  10.703  0.1832  0.3312  0.9292
  167ETHOX  H2130106   9.740  14.171  10.668  0.0605 -0.5099 -1.7836
  167ETHOX  H2330107   9.618  14.041  10.639  1.3966 -0.8506 -0.1839
  168ETHOX   O130108   9.803  13.975  10.670 -0.2947  0.3852  0.2460
  168ETHOX   C130109   9.832  13.987  10.533  0.7783 -0.3007  0.2303
  168ETHOX  H1130110   9.859  14.091  10.505  1.0799 -1.1699 -3.0445
  168ETHOX  H1330111   9.734  13.962  10.487  1.1990 -0.1607 -0.7524
  168ETHOX   C230112   9.944  13.898  10.488  0.1010  0.2926  0.0594
  168ETHOX  H2130113   9.914  13.802  10.534 -0.2508  0.8063  0.9316
  168ETHOX  H2330114  10.045  13.921  10.529 -0.7940  4.0060  0.6285
  169ETHOX   O130115   9.952  13.888  10.343 -0.4903  0.7907  0.5781
  169ETHOX   C130116  10.011  13.994  10.282 -0.0688 -0.6519  1.0239
  169ETHOX  H1130117   9.960  14.092  10.295 -1.4329 -1.1690 -0.2227
  169ETHOX  H1330118  10.121  14.000  10.298 -0.3079  0.5664  2.5351
  169ETHOX   C230119   9.991  13.957  10.134  0.0651  0.2339  0.4225
  169ETHOX  H2130120  10.025  13.853  10.118 -0.3053  0.0805  0.6116
  169ETHOX  H2330121  10.070  14.012  10.078 -0.7633  0.2349 -0.7816
  170ETHOX   O130122   9.857  13.981  10.078 -0.1444 -0.0727  0.0871
  170ETHOX   C130123   9.838  13.910   9.962 -0.7494  0.1932  0.1452
  170ETHOX  H1130124   9.781  13.818   9.984 -0.8798  0.3380  0.4082
  170ETHOX  H1330125   9.938  13.886   9.919  1.3625  1.1293  4.0852
  170ETHOX   C230126   9.767  13.997   9.864 -0.4315 -0.6777 -0.3967
  170ETHOX  H2130127   9.684  14.044   9.922 -0.1213 -0.5138 -0.0851
  170ETHOX  H2330128   9.723  13.926   9.792 -2.5651  1.3563 -1.2340
  171ETHOX   O130129   9.837  14.104   9.800 -0.2328  0.2696 -0.2076
  171ETHOX   C130130   9.739  14.193   9.737  0.1906  0.5842 -0.8762
  171ETHOX  H1130131   9.673  14.127   9.677 -1.4029  0.2198  1.1868
  171ETHOX  H1330132   9.668  14.246   9.804 -2.5310  0.1011 -3.1622
  171ETHOX   C230133   9.805  14.287   9.637 -0.3202  0.5301  0.0325
  171ETHOX  H2130134   9.726  14.338   9.577  2.0927  2.1019 -2.0713
  171ETHOX  H2330135   9.865  14.236   9.558 -0.8915 -0.5917  0.3054
  172ETHOX   O130136   9.879  14.382   9.711  0.0833 -0.2073 -0.2773
  172ETHOX   C130137   9.937  14.487   9.630  0.0638 -0.2543  0.3833
  172ETHOX  H1130138   9.982  14.444   9.538  0.4590 -1.3460  1.0680
  172ETHOX  H1330139  10.012  14.545   9.686  0.9493  0.0253 -1.0454
  172ETHOX   C230140   9.827  14.595   9.596  0.1534  0.4111  0.3082
  172ETHOX  H2130141   9.735  14.536   9.579  1.2360 -0.6800 -2.3421
  172ETHOX  H2330142   9.862  14.648   9.505 -0.2235  0.0208 -0.0685
  173ETHOX   O130143   9.818  14.688   9.695 -0.4837  0.1385 -0.1717
  173ETHOX   C130144   9.725  14.796   9.666 -0.7692  0.6095  0.7574
  173ETHOX  H1130145   9.749  14.839   9.566 -0.4328 -1.6841 -0.2017
  173ETHOX  H1330146   9.630  14.748   9.636  0.7434 -0.8082 -2.2696
  173ETHOX   C230147   9.702  14.909   9.763 -0.1248 -0.0058  0.2016
  173ETHOX  H2130148   9.621  14.970   9.719  0.6946 -0.2921 -1.7776
  173ETHOX  H2330149   9.670  14.852   9.853  2.0989 -1.0415  0.4037
  174ETHOX   O130150   9.818  14.980   9.796  0.4599  0.0664 -0.0277
  174ETHOX   C130151   9.799  15.054   9.917 -0.3891 -0.0330  0.4733
  174ETHOX  H1130152   9.727  15.136   9.899 -1.0104 -0.3631  1.3631
  174ETHOX  H1330153   9.757  14.979   9.988 -0.1411  0.2469  0.9267
  174ETHOX   C230154   9.935  15.097   9.952  0.4800  0.0332 -0.3144
  174ETHOX  H2130155   9.930  15.160  10.043 -0.1282 -0.7037  0.1780
  174ETHOX  H2330156   9.969  15.165   9.871  1.8541 -0.3106 -0.0638
  175ETHOX   O130157  10.026  14.986   9.966 -0.3312  0.4343 -1.0393
  175ETHOX   C130158  10.163  15.032   9.984 -0.2853 -0.4245  0.1738
  175ETHOX  H1130159  10.200  15.060   9.883 -1.1841 -1.1561 -0.3755
  175ETHOX  H1330160  10.154  15.128  10.039 -1.4817 -1.0104  1.0383
  175ETHOX   C230161  10.262  14.951  10.066  0.1024  0.2042 -0.0674
  175ETHOX  H2130162  10.353  15.014  10.077 -0.3690  0.6947  1.2762
  175ETHOX  H2330163  10.281  14.859  10.006 -0.3613 -0.3681  0.6538
  176ETHOX   O130164  10.199  14.937  10.196 -0.6051 -0.1227 -0.3470
  176ETHOX   C130165  10.284  14.893  10.299 -0.0786  0.7116  0.3197
  176ETHOX  H1130166  10.276  14.782  10.299  0.7830  0.6410  0.5906
  176ETHOX  H1330167  10.391  14.921  10.284 -0.1275  1.1814  0.8016
  176ETHOX   C230168  10.244  14.942  10.441 -0.7829 -0.3490 -0.2257
  176ETHOX  H2130169  10.270  15.050  10.443  0.9631 -0.6826 -2.0368
  176ETHOX  H2330170  10.320  14.904  10.513 -0.5917  1.0128  0.3180
  177ETHOX   O130171  10.115  14.911  10.485 -0.4410 -0.1683  0.2769
  177ETHOX   C130172  10.081  14.971  10.611  0.7656 -0.1099  0.1709
  177ETHOX  H1130173  10.088  15.081  10.597 -0.3625  0.0465  0.7459
  177ETHOX  H1330174  10.155  14.944  10.689  1.1293 -1.0161 -0.4658
  177ETHOX   C230175   9.940  14.949  10.658 -0.1328 -0.3623  0.2511
  177ETHOX  H2130176   9.865  14.953  10.576 -1.3138  0.8495  1.3471
  177ETHOX  H2330177   9.913  15.036  10.722  1.8684 -0.0222  0.6909
  178ETHOX   O130178   9.935  14.832  10.742 -0.6665  0.2411  0.2670
  178ETHOX   C130179   9.917  14.717  10.661 -0.3159  0.2522  0.0469
  178ETHOX  H1130180   9.840  14.749  10.587 -2.0791 -1.6633  0.9820
  178ETHOX  H1330181  10.005  14.697  10.596  1.1243  1.8750  1.3945
  178ETHOX   C230182   9.866  14.598  10.727  0.8607 -0.1554  0.5924
  178ETHOX  H2130183   9.819  14.523  10.660  0.8215  0.8702 -0.5667
  178ETHOX  H2330184   9.787  14.623  10.800  1.2632 -0.4191  1.1317
  179ETHOX   O130185   9.975  14.539  10.794  0.4625 -0.4658  0.7174
  179ETHOX   C130186   9.937  14.422  10.851  0.3835  0.6634  0.1193
  179ETHOX  H1130187   9.877  14.364  10.778  0.8185 -1.0729  1.0808
  179ETHOX  H1330188   9.863  14.444  10.931 -1.8005  0.8883 -1.8428
  179ETHOX   C230189  10.048  14.328  10.882 -0.1452  0.1239  0.1285
  179ETHOX  H2130190  10.009  14.225  10.899  0.9888 -0.4636 -0.7094
  179ETHOX  H2330191  10.083  14.360  10.983 -0.3818 -0.4514  0.3960
  180ETHOX   O130192  10.151  14.313  10.786 -0.2945 -0.9031 -0.6803
  180ETHOX   C130193  10.104  14.249  10.668  0.2808 -0.9277  0.9061
  180ETHOX  H1130194  10.039  14.162  10.694 -1.1061 -0.1644  0.1413
  180ETHOX  H1330195  10.042  14.328  10.620  2.1071 -0.7026 -1.2584
  180ETHOX   C230196  10.208  14.201  10.567 -0.0285  0.1323 -0.6050
  180ETHOX  H2130197  10.270  14.286  10.532 -1.1440  1.1079 -0.2907
  180ETHOX  H2330198  10.152  14.169  10.476 -0.1111 -1.4088 -0.0423
  181ETHOX   O130199  10.288  14.088  10.609  0.3114  0.0480  0.1912
  181ETHOX   C130200  10.394  14.127  10.702 -0.2003  0.5725  1.0167
  181ETHOX  H1130201  10.334  14.174  10.783 -0.2816 -1.1700  2.0202
  181ETHOX  H1330202  10.463  14.197  10.650 -2.5657  1.0516 -1.7068
  181ETHOX   C230203  10.474  14.007  10.757 -0.1240 -0.3780  0.1631
  181ETHOX  H2130204  10.396  13.931  10.774 -0.1848 -0.1414  0.9775
  181ETHOX  H2330205  10.529  14.033  10.849 -2.5345  1.0101  1.3121
  182ETHOX   O130206  10.557  13.966  10.657 -0.2686  0.0600 -0.4943
  182ETHOX   C130207  10.640  13.858  10.696  0.1424  0.1695 -0.5656
  182ETHOX  H1130208  10.695  13.898  10.784 -1.0975 -1.9114  1.2571
  182ETHOX  H1330209  10.591  13.765  10.732  2.2725 -0.5429  0.7096
  182ETHOX   C230210  10.737  13.811  10.594  0.2965  0.8102  1.0046
  182ETHOX  H2130211  10.676  13.763  10.514  0.9624 -0.7120  1.3709
  182ETHOX  H2330212  10.804  13.736  10.640  2.0914  2.6131  1.4786
  183ETHOX   O130213  10.803  13.924  10.532 -0.5979 -0.0230 -0.4991
  183ETHOX   C130214  10.910  13.895  10.447 -0.2300  0.8751 -0.1036
  183ETHOX  H1130215  10.882  13.816  10.374 -0.6376 -0.1993  1.1585
  183ETHOX  H1330216  10.997  13.858  10.507 -0.0300  0.9382 -0.3515
  183ETHOX   C230217  10.959  14.021  10.391 -0.2253 -0.0706 -0.1159
  183ETHOX  H2130218  10.874  14.075  10.345  0.0973 -0.7333 -1.5335
  183ETHOX  H2330219  11.037  14.005  10.314 -0.5794  3.3515 -1.3754
  184ETHOX   O130220  11.023  14.108  10.484  0.4555  0.6880  0.3541
  184ETHOX   C130221  11.104  14.216  10.421 -0.2988  0.3725 -0.2238
  184ETHOX  H1130222  11.157  14.173  10.333  0.6706 -0.3322  0.6803
  184ETHOX  H1330223  11.038  14.301  10.395 -0.4278 -0.6068 -3.5062
  184ETHOX   C230224  11.212  14.267  10.518 -0.4961 -0.4652 -0.1479
  184ETHOX  H2130225  11.167  14.302  10.613 -1.2288  1.0383 -1.0129
  184ETHOX  H2330226  11.264  14.350  10.465 -0.3440 -0.8061 -0.5335
  185ETHOX   O130227  11.309  14.170  10.545 -0.9084 -0.5702 -0.4773
  185ETHOX   C130228  11.411  14.222  10.640 -0.1885  0.1340  0.5270
  185ETHOX  H1130229  11.465  14.307  10.592 -0.4184 -0.5881 -1.0839
  185ETHOX  H1330230  11.361  14.256  10.733 -0.0880 -0.2638  0.7251
  185ETHOX   C230231  11.521  14.110  10.671  0.0313 -0.8269  0.2210
  185ETHOX  H2130232  11.621  14.158  10.663  0.2301 -1.4644 -1.2795
  185ETHOX  H2330233  11.515  14.030  10.594 -1.8039 -0.7219  0.1995
  186ETHOX   O130234  11.521  14.053  10.799  0.1672 -0.2911 -0.6141
  186ETHOX   C130235  11.599  13.937  10.790 -0.1998  0.0839  0.0435
  186ETHOX  H1130236  11.552  13.867  10.719 -0.6285  2.0681 -1.7284
  186ETHOX  H1330237  11.695  13.956  10.737  0.3193  0.9665  1.2340
  186ETHOX   C230238  11.621  13.874  10.927  0.6560 -0.2216  0.1220
  186ETHOX  H2130239  11.638  13.949  11.007 -3.3091  1.2546 -0.1868
  186ETHOX  H2330240  11.712  13.810  10.930  1.7766  1.0693 -2.3547
  187ETHOX   O130241  11.513  13.791  10.960 -0.9052 -0.9744  0.5387
  187ETHOX   C130242  11.536  13.690  11.054 -0.7799 -0.1126  0.1267
  187ETHOX  H1130243  11.462  13.611  11.028  0.1713 -0.8504 -0.4018
  187ETHOX  H1330244  11.640  13.652  11.045 -0.4879  0.8011 -0.4724
  187ETHOX   C230245  11.535  13.746  11.197 -0.3306 -0.1566  0.3468
  187ETHOX  H2130246  11.618  13.818  11.187 -1.1003  0.4025 -4.3369
  187ETHOX  H2330247  11.556  13.659  11.263  0.1620 -0.0600  0.3143
  188ETHOX   O130248  11.416  13.811  11.230  0.6050  0.6201  0.2373
  188ETHOX   C130249  11.411  13.847  11.366  0.4166 -0.4498 -0.7366
  188ETHOX  H1130250  11.481  13.930  11.387  0.6667 -1.0717  1.0380
  188ETHOX  H1330251  11.429  13.754  11.425  0.2730 -0.9519 -1.4633
  188ETHOX   C230252  11.268  13.896  11.409  0.3153  0.1738 -0.2975
  188ETHOX  H2130253  11.249  13.985  11.346 -0.7480  0.0320 -0.1946
  188ETHOX  H2330254  11.275  13.918  11.518 -1.2360 -0.3608 -0.0668
  189ETHOX   O130255  11.172  13.790  11.386 -0.1972 -0.0364  0.0885
  189ETHOX   C130256  11.072  13.794  11.489  0.0175 -0.0412  0.2025
  189ETHOX  H1130257  11.127  13.741  11.570 -0.5933 -1.7531 -0.4381
  189ETHOX  H1330258  11.044  13.897  11.519 -0.0094  0.1606 -0.5014
  189ETHOX   C230259  10.947  13.723  11.440 -0.0625  0.1714 -0.1602
  189ETHOX  H2130260  10.943  13.614  11.457  1.3815  0.3073  1.2974
  189ETHOX  H2330261  10.940  13.727  11.329  2.0569  0.5056 -0.3246
  190ETHOX   O130262  10.833  13.770  11.513 -0.5073 -0.0692 -0.1717
  190ETHOX   C130263  10.755  13.867  11.443 -0.3771  0.8249  0.8822
  190ETHOX  H1130264  10.669  13.880  11.512 -0.3170 -2.1305  1.6644
  190ETHOX  H1330265  10.706  13.833  11.350  2.1054  1.7564 -0.8821
  190ETHOX   C230266  10.809  14.006  11.421 -0.1524  0.1395  0.0383
  190ETHOX  H2130267  10.860  14.032  11.516  0.5262 -0.4362 -0.1537
  190ETHOX  H2330268  10.721  14.067  11.390 -0.1112 -0.2557 -0.8833
  191ETHOX   O130269  10.899  14.014  11.313 -0.3878 -0.0502  0.1109
  191ETHOX   C130270  10.942  14.140  11.280 -0.2161 -0.6710 -0.3789
  191ETHOX  H1130271  10.851  14.204  11.267 -0.4995 -1.1119 -0.5957
  191ETHOX  H1330272  11.008  14.180  11.359 -1.3974  0.9571 -0.1579
  191ETHOX   C230273  11.033  14.158  11.153  0.4006 -0.4252  0.3040
  191ETHOX  H2130274  11.106  14.074  11.154 -0.0219 -0.7957  0.2669
  191ETHOX  H2330275  11.093  14.251  11.149 -0.6448  0.2310 -1.0885
  192ETHOX   O130276  10.950  14.158  11.043 -0.6994 -0.1868 -0.9871
  192ETHOX   C130277  11.035  14.146  10.926 -0.4543 -1.0365  0.5172
  192ETHOX  H1130278  11.100  14.056  10.928  2.6141  0.9024 -2.0771
  192ETHOX  H1330279  11.101  14.235  10.926 -0.4321 -0.9628  3.8559
  192ETHOX   C230280  10.948  14.153  10.811 -0.0790 -0.3703  0.4990
  192ETHOX  H2130281  10.872  14.074  10.796 -1.8197  1.3018  0.2032
  192ETHOX  H2330282  11.006  14.151  10.715 -0.8193 -0.0784  0.0362
  193ETHOX   O130283  10.871  14.275  10.816 -0.1912  0.1002 -0.0367
  193ETHOX   C130284  10.791  14.292  10.698  0.8523  0.3538 -0.3901
  193ETHOX  H1130285  10.857  14.327  10.615  0.9912  2.3073  0.4906
  193ETHOX  H1330286  10.745  14.198  10.661  1.6902  0.4710 -1.8231
  193ETHOX   C230287  10.683  14.395  10.711 -0.1863  0.0247  0.1275
  193ETHOX  H2130288  10.625  14.413  10.618  0.6949  1.0319 -0.2393
  193ETHOX  H2330289  10.733  14.492  10.730  0.4954 -0.1853 -0.5517
  194ETHOX   O130290  10.602  14.343  10.816  0.3604  0.5814 -0.0323
  194ETHOX   C130291  10.505  14.441  10.843  0.5233  0.6564  1.1215
  194ETHOX  H1130292  10.425  14.443  10.766  0.9734 -0.3119  0.6010
  194ETHOX  H1330293  10.556  14.539  10.856  1.2191  0.4972 -0.2361
  194ETHOX   C230294  10.429  14.411  10.972  0.2990 -0.0091  0.6486
  194ETHOX  H2130295  10.508  14.406  11.050 -1.0556 -1.1316  2.0226
  194ETHOX  H2330296  10.377  14.312  10.968 -1.0575  0.7081 -1.8693
  195ETHOX   O130297  10.338  14.518  10.997 -0.5530  0.1314  0.5976
  195ETHOX   C130298  10.267  14.505  11.122 -0.0149  0.3810 -0.5676
  195ETHOX  H1130299  10.236  14.399  11.134 -1.2328  0.4625 -2.5137
  195ETHOX  H1330300  10.336  14.521  11.207 -0.0663 -2.0689  0.0256
  195ETHOX   C230301  10.137  14.592  11.136 -0.0763 -0.3092  0.1101
  195ETHOX  H2130302  10.070  14.586  11.224  0.5628 -0.4695  0.6013
  195ETHOX  H2330303  10.078  14.556  11.050  0.9081  1.1317 -1.2216
  196ETHOX   O130304  10.162  14.724  11.098  0.1579  0.1060 -0.5727
  196ETHOX   C130305  10.049  14.792  11.052 -0.5833 -0.4115  0.1856
  196ETHOX  H1130306  10.011  14.747  10.959 -0.0689 -0.6255  0.0753
  196ETHOX  H1330307   9.981  14.787  11.139  1.3358  0.0417  1.7969
  196ETHOX   C230308  10.092  14.941  11.025  0.1217 -0.1575 -0.4506
  196ETHOX  H2130309  10.117  14.952  10.917 -0.8270  0.9782 -0.5745
  196ETHOX  H2330310  10.181  14.960  11.088 -0.1873 -3.4864  1.2153
  197ETHOX   O130311   9.982  15.021  11.060  0.0655 -0.0019  0.0006
  197ETHOX   C130312  10.020  15.160  11.057  0.3768 -0.0462 -0.6168
  197ETHOX  H1130313  10.078  15.173  11.151 -2.6340 -2.4116  1.7984
  197ETHOX  H1330314  10.072  15.184  10.962  0.1096  1.4484 -0.4126
  197ETHOX   C230315   9.898  15.244  11.079  0.0162  0.0954  0.7111
  197ETHOX  H2130316   9.933  15.350  11.078  0.3864 -0.0290  0.4191
  197ETHOX  H2330317   9.850  15.205  11.171 -2.3437 -1.3361 -1.0159
  198ETHOX   O130318   9.807  15.224  10.969  0.1554  0.3604  0.2303
  198ETHOX   C130319   9.679  15.278  10.995 -0.2323  0.4032 -0.5089
  198ETHOX  H1130320   9.650  15.241  11.096  1.6168 -1.1915 -0.5159
  198ETHOX  H1330321   9.679  15.389  11.001 -0.5628  0.3395  1.1116
  198ETHOX   C230322   9.580  15.218  10.899 -0.2756 -0.2259  0.0547
  198ETHOX  H2130323   9.472  15.222  10.925 -0.5464 -1.9684 -0.6539
  198ETHOX  H2330324   9.609  15.111  10.889 -2.1104 -1.0653  2.6561
  199ETHOX   O130325   9.596  15.274  10.766  0.4987  0.4555  0.2256
  199ETHOX   C130326   9.507  15.210  10.673  0.0732  0.7123 -0.6352
  199ETHOX  H1130327   9.407  15.216  10.721  0.1349  2.3796 -0.6702
  199ETHOX  H1330328   9.527  15.101  10.663  2.6353  0.9381  1.2030
  199ETHOX   C230329   9.501  15.263  10.532  0.2228 -0.3888  0.5435
  199ETHOX  H2130330   9.588  15.228  10.471 -0.4867  0.8107 -1.2636
  199ETHOX  H2330331   9.504  15.374  10.541 -0.0674 -0.0516 -2.4550
  200ETHOX   O130332   9.369  15.241  10.473  0.1740 -0.4110  0.0957
  200ETHOX   C130333   9.368  15.285  10.336 -0.0968  0.0181  0.6434
  200ETHOX  H1130334   9.401  15.391  10.338  1.4792 -0.4553  0.5022
  200ETHOX  H1330335   9.445  15.229  10.279 -0.6523 -1.9128  1.6888
  200ETHOX   C230336   9.230  15.272  10.275 -0.5059  0.6234  0.4776
  200ETHOX  H2130337   9.244  15.271  10.165  3.9760 -1.1420  0.8638
  200ETHOX  H2330338   9.181  15.366  10.308 -0.0364  0.2225  2.4566
  201ETHOX   O130339   9.153  15.167  10.332  0.2788  0.5964  0.1031
  201ETHOX   C130340   9.023  15.171  10.285  0.0142 -0.2883  0.2574
  201ETHOX  H1130341   9.039  15.131  10.183  0.8545 -0.0368  0.2824
  201ETHOX  H1330342   8.983  15.273  10.268 -1.6921 -1.1277 -1.0761
  201ETHOX   C230343   8.914  15.086  10.347 -0.6808 -0.4150  0.2738
  201ETHOX  H2130344   8.964  14.989  10.371  1.1323  0.1881 -0.8179
  201ETHOX  H2330345   8.831  15.071  10.275  0.8095 -2.4382 -1.1417
  202ETHOX   O130346   8.874  15.142  10.465 -0.5670  0.3091 -0.0473
  202ETHOX   C130347   8.798  15.259  10.461  0.2382  0.8494  0.2937
  202ETHOX  H1130348   8.835  15.323  10.545  3.1503  0.2653 -0.4266
  202ETHOX  H1330349   8.813  15.309  10.364  0.6064  0.1915  0.0018
  202ETHOX   C230350   8.647  15.236  10.470  0.0346 -0.2738 -0.1332
  202ETHOX  H2130351   8.598  15.179  10.389 -0.1814  0.2746 -0.3905
  202ETHOX  H2330352   8.609  15.338  10.492  2.1062  0.8089 -1.3571
  203ETHOX   O130353   8.605  15.181  10.592  0.4595 -0.0354  0.3318
  203ETHOX   C130354   8.463  15.156  10.587  0.1574  0.2168  0.1947
  203ETHOX  H1130355   8.436  15.072  10.520 -1.4168  1.2545 -0.5401
  203ETHOX  H1330356   8.416  15.249  10.548 -1.0497 -1.0029 -1.3854
  203ETHOX   C230357   8.398  15.142  10.731  0.0274  0.4309  0.1770
  203ETHOX  H2130358   8.444  15.052  10.777 -0.7159  1.0679  2.2839
  203ETHOX  H2330359   8.293  15.120  10.704 -0.5335  0.4271  2.1617
  204ETHOX   O130360   8.425  15.257  10.813  0.3170 -0.0409 -0.8107
  204ETHOX   C130361   8.387  15.227  10.947 -0.1521 -0.5855 -0.3121
  204ETHOX  H1130362   8.306  15.296  10.981  1.0533 -0.4906  2.6288
  204ETHOX  H1330363   8.339  15.127  10.952 -3.6186  0.7777 -2.3158
  204ETHOX   C230364   8.504  15.247  11.042 -0.7919 -0.1599  0.1722
  204ETHOX  H2130365   8.469  15.223  11.145 -1.0464 -2.2289 -0.3515
  204ETHOX  H2330366   8.530  15.355  11.047  1.6073 -0.7293  2.4065
  205ETHOX   O130367   8.617  15.164  11.011  0.0542  0.1239 -0.0417
  205ETHOX   C130368   8.705  15.163  11.124 -0.5140 -0.3456  0.2270
  205ETHOX  H1130369   8.656  15.167  11.224  0.2291  0.5566  0.5731
  205ETHOX  H1330370   8.765  15.255  11.111 -1.5827  0.2603 -0.6529
  205ETHOX   C230371   8.807  15.046  11.123 -0.2355  0.2674  0.6497
  205ETHOX  H2130372   8.864  15.058  11.217 -0.2491 -1.2890  0.8823
  205ETHOX  H2330373   8.873  15.049  11.033 -0.8250 -0.1428  0.1960
  206ETHOX   O130374   8.733  14.923  11.127  0.1247 -0.1101 -0.0040
  206ETHOX   C130375   8.818  14.817  11.164 -0.1448  1.0618  0.8009
  206ETHOX  H1130376   8.901  14.806  11.091 -1.2134 -1.6538 -0.1118
  206ETHOX  H1330377   8.865  14.835  11.263  1.5405 -0.2932  0.2986
  206ETHOX   C230378   8.738  14.694  11.188  0.8108  0.4943  0.4883
  206ETHOX  H2130379   8.651  14.708  11.255  0.9916 -0.2489  0.8892
  206ETHOX  H2330380   8.688  14.665  11.093 -0.7347 -1.1967  1.7618
  207ETHOX   O130381   8.831  14.591  11.233 -0.8615  0.2313  0.0782
  207ETHOX   C130382   8.763  14.480  11.277  0.1677 -0.3113 -0.3863
  207ETHOX  H1130383   8.690  14.437  11.205 -2.4616 -0.8087  2.3766
  207ETHOX  H1330384   8.706  14.504  11.369 -1.9028 -2.4886 -1.0102
  207ETHOX   C230385   8.876  14.375  11.327 -0.7493 -0.4010  0.4801
  207ETHOX  H2130386   8.835  14.299  11.397  2.0660 -1.2271  1.3883
  207ETHOX  H2330387   8.951  14.440  11.377 -2.3344 -1.6161  4.8917
  208ETHOX   O130388   8.933  14.306  11.217  0.1015 -0.0132 -0.1289
  208ETHOX   C130389   9.057  14.235  11.247  0.6816  0.4639  0.3503
  208ETHOX  H1130390   9.122  14.301  11.308  2.3402  0.3561 -1.2408
  208ETHOX  H1330391   9.030  14.144  11.306 -2.9624  0.9233 -0.3950
  208ETHOX   C230392   9.122  14.194  11.120 -0.2942 -0.4740 -0.5917
  208ETHOX  H2130393   9.034  14.163  11.059  0.6441 -1.3672 -1.5393
  208ETHOX  H2330394   9.196  14.114  11.142  2.8622  1.7388 -2.3911
  209ETHOX   O130395   9.189  14.311  11.072  0.5142 -0.2582  0.8839
  209ETHOX   C130396   9.245  14.281  10.949 -0.2413 -0.0482  0.9785
  209ETHOX  H1130397   9.162  14.264  10.876  0.8227  1.2182 -0.5846
  209ETHOX  H1330398   9.300  14.185  10.953 -1.3699 -0.7255  0.8846
  209ETHOX   C230399   9.338  14.390  10.892 -0.6194 -0.0618 -0.5230
  209ETHOX  H2130400   9.304  14.491  10.921  2.2271  1.0232 -0.6841
  209ETHOX  H2330401   9.349  14.365  10.784  1.3981 -3.2890  0.2545
  210ETHOX   O130402   9.465  14.369  10.945  0.1102  0.3530  0.1995
  210ETHOX   C130403   9.535  14.490  10.932  0.2138 -0.5852 -0.3782
  210ETHOX  H1130404   9.605  14.492  10.846  0.6470  0.4921 -0.0245
  210ETHOX  H1330405   9.473  14.581  10.916 -0.6371 -0.9080  0.9369
  210ETHOX   C230406   9.607  14.514  11.069 -0.0976 -0.3938  0.0164
  210ETHOX  H2130407   9.529  14.539  11.145  0.4965 -1.1921  0.9151
  210ETHOX  H2330408   9.672  14.603  11.055 -1.1795  0.5566  0.7947
  211ETHOX   O130409   9.686  14.399  11.113  0.7735 -0.3534  0.1138
  211ETHOX   C130410   9.755  14.430  11.231 -0.4004 -0.7846 -0.7454
  211ETHOX  H1130411   9.822  14.518  11.217 -1.7125  0.3854  0.0495
  211ETHOX  H1330412   9.688  14.473  11.308  1.3884  1.1825 -0.1967
  211ETHOX   C230413   9.816  14.298  11.281 -0.2346 -0.1361 -0.0483
  211ETHOX  H2130414   9.740  14.216  11.285 -0.4834  0.0916 -0.0965
  211ETHOX  H2330415   9.855  14.316  11.384 -0.8640  0.1863  0.1366
  212ETHOX   O130416   9.922  14.255  11.199 -0.1922 -0.6437 -0.1800
  212ETHOX   C130417   9.994  14.157  11.278  0.0979  0.0937  0.1936
  212ETHOX  H1130418  10.060  14.199  11.357 -0.0404 -1.9775  1.4883
  212ETHOX  H1330419   9.927  14.078  11.318 -0.1313 -0.0417 -0.4519
  212ETHOX   C230420  10.089  14.080  11.191 -0.2484  0.9144 -0.0967
  212ETHOX  H2130421  10.157  14.008  11.242 -1.7055 -0.1037  0.4910
  212ETHOX  H2330422  10.159  14.150  11.139  1.2108 -0.0267  0.5229
  213ETHOX   O130423  10.013  14.015  11.087 -0.2603 -0.3816 -0.0923
  213ETHOX   C130424  10.088  13.917  11.016 -0.3076  0.0273 -0.0048
  213ETHOX  H1130425  10.166  13.971  10.959  0.7828  2.8249  3.7552
  213ETHOX  H1330426  10.151  13.852  11.081 -1.6120 -0.1781  1.0944
  213ETHOX   C230427   9.999  13.833  10.927  0.4236 -0.2839  0.2954
  213ETHOX  H2130428  10.070  13.771  10.867 -0.2914  1.2149 -2.2438
  213ETHOX  H2330429   9.933  13.896  10.864 -0.3157 -1.2318  0.0901
  214ETHOX   O130430   9.925  13.743  11.004 -0.0001  0.2951 -0.9106
  214ETHOX   C130431   9.864  13.633  10.942  0.1625 -0.3475 -0.0201
  214ETHOX  H1130432   9.776  13.667  10.883 -0.5106 -2.7103 -0.4815
  214ETHOX  H1330433   9.822  13.567  11.020 -2.0940  1.3058  0.2665
  214ETHOX   C230434   9.954  13.543  10.852  0.0287 -0.0352 -0.4820
  214ETHOX  H2130435  10.004  13.602  10.773 -0.1105 -0.0892 -0.6109
  214ETHOX  H2330436   9.901  13.459  10.802 -0.2510 -0.6543  0.8142
  215ETHOX   O130437  10.053  13.490  10.947  0.5248 -0.2769  0.1273
  215ETHOX   C130438  10.159  13.430  10.877  0.2323  0.3817 -0.6018
  215ETHOX  H1130439  10.220  13.368  10.945  0.6041 -0.4292 -1.6477
  215ETHOX  H1330440  10.130  13.355  10.801  0.3148 -0.4501  0.1764
  215ETHOX   C230441  10.259  13.526  10.811 -0.0863 -0.3345  0.2316
  215ETHOX  H2130442  10.346  13.461  10.786 -0.6639 -1.4556  1.0467
  215ETHOX  H2330443  10.307  13.609  10.867  1.3803  1.4827 -3.3249
  216ETHOX   O130444  10.206  13.578  10.689 -0.5361 -0.1144  0.4001
  216ETHOX   C130445  10.305  13.655  10.616 -0.3697  0.0461 -0.1590
  216ETHOX  H1130446  10.369  13.706  10.691 -1.7788  1.4806  0.1232
  216ETHOX  H1330447  10.253  13.727  10.550  0.9132  2.2888  1.1463
  216ETHOX   C230448  10.367  13.561  10.510  0.2567 -0.6094 -0.3252
  216ETHOX  H2130449  10.406  13.625  10.427  1.0545  0.2823  0.6976
  216ETHOX  H2330450  10.295  13.493  10.461  1.1312 -0.9816 -1.1344
  217ETHOX   O130451  10.467  13.481  10.574  0.2540  0.1460 -0.2420
  217ETHOX   C130452  10.534  13.411  10.468  0.1668 -0.3822 -0.0001
  217ETHOX  H1130453  10.466  13.329  10.438 -1.4915  0.5861  0.9558
  217ETHOX  H1330454  10.552  13.485  10.386 -0.1984  0.7168  0.8855
  217ETHOX   C230455  10.664  13.352  10.518  0.8771 -0.2462  0.0836
  217ETHOX  H2130456  10.702  13.283  10.439  3.9311 -0.0803  1.2671
  217ETHOX  H2330457  10.659  13.298  10.615 -2.2897  3.0224  1.9787
  218ETHOX   O130458  10.761  13.450  10.532 -0.3046 -0.4084 -0.1449
  218ETHOX   C130459  10.890  13.409  10.573  0.5931  0.4201 -0.3093
  218ETHOX  H1130460  10.949  13.355  10.496  1.1331  0.9182 -0.2504
  218ETHOX  H1330461  10.877  13.335  10.655 -2.5152  0.5318 -0.5708
  218ETHOX   C230462  10.982  13.518  10.624  0.0967  0.1794 -0.4557
  218ETHOX  H2130463  10.963  13.604  10.556 -1.1202  0.8372  0.6948
  218ETHOX  H2330464  11.089  13.491  10.608  0.0396  0.5972 -1.6674
  219ETHOX   O130465  10.961  13.543  10.762  0.3182 -0.0522  0.8252
  219ETHOX   C130466  11.042  13.650  10.810  1.0218 -0.0221  0.4943
  219ETHOX  H1130467  11.147  13.647  10.775  1.2863  1.1363  1.1565
  219ETHOX  H1330468  10.993  13.747  10.788 -0.4047 -1.5086 -3.9670
  219ETHOX   C230469  11.029  13.639  10.968 -0.0743  0.0868 -0.3086
  219ETHOX  H2130470  10.926  13.627  11.007 -0.3463  0.9052 -0.7666
  219ETHOX  H2330471  11.070  13.735  11.007 -0.6706  0.2524 -0.0689
  220ETHOX   O130472  11.109  13.537  11.024  0.1597  0.7468  0.1211
  220ETHOX   C130473  11.119  13.559  11.163 -0.1541 -0.1701 -0.2206
  220ETHOX  H1130474  11.018  13.554  11.208  0.2379 -0.1081  0.6944
  220ETHOX  H1330475  11.171  13.656  11.180  2.4232 -1.5942  0.6383
  220ETHOX   C230476  11.203  13.444  11.219 -0.2946  0.1082  0.0139
  220ETHOX  H2130477  11.244  13.466  11.320  0.3680 -0.7510 -0.0546
  220ETHOX  H2330478  11.290  13.425  11.152  0.8120 -0.9097  1.6793
  221ETHOX   O130479  11.143  13.317  11.226 -0.1654 -0.3685 -0.2565
  221ETHOX   C130480  11.078  13.310  11.354 -0.1370 -0.3121  0.7546
  221ETHOX  H1130481  11.136  13.345  11.441 -1.2731  0.1244  1.3630
  221ETHOX  H1330482  10.992  13.381  11.353  0.7803  0.8663  1.9387
  221ETHOX   C230483  11.024  13.169  11.379  0.2001 -0.1357 -0.1445
  221ETHOX  H2130484  10.973  13.127  11.290  2.8480 -1.8487 -0.9825
  221ETHOX  H2330485  10.961  13.168  11.471  1.1646 -1.3131  0.5521
  222ETHOX   O130486  11.132  13.085  11.404 -0.1120  0.1174  0.3818
  222ETHOX   C130487  11.092  12.949  11.448 -0.1996 -1.0865 -0.2768
  222ETHOX  H1130488  10.997  12.921  11.398 -0.0887 -0.6710 -0.7175
  222ETHOX  H1330489  11.166  12.872  11.417 -0.4978 -2.2572  1.7314
  222ETHOX   C230490  11.056  12.934  11.598  0.9138  0.0385 -0.4373
  222ETHOX  H2130491  11.140  12.971  11.659  0.1744 -1.2836  1.4678
  222ETHOX  H2330492  11.044  12.825  11.618 -0.4188 -0.1218 -1.9177
  223ETHOX   O130493  10.932  12.995  11.638 -0.6505  0.1610  0.5104
  223ETHOX   C130494  10.867  12.929  11.742  0.6629 -0.1996  0.4229
  223ETHOX  H1130495  10.829  12.830  11.707 -2.7238  0.9117  0.6372
  223ETHOX  H1330496  10.924  12.908  11.835  2.0080  0.3568 -0.2426
  223ETHOX   C230497  10.737  12.993  11.787  0.4959 -0.1224 -0.1394
  223ETHOX  H2130498  10.680  13.023  11.697  0.2483  0.9014  0.3355
  223ETHOX  H2330499  10.770  13.085  11.840  1.7103  1.8061 -3.8685
  224ETHOX   O130500  10.659  12.912  11.871  0.2232 -0.2731 -0.0694
  224ETHOX   C130501  10.520  12.947  11.883  0.1788 -0.3377 -0.1404
  224ETHOX  H1130502  10.483  12.968  11.780 -0.2791 -2.2266 -0.3988
  224ETHOX  H1330503  10.464  12.854  11.903  0.4359 -0.8128 -1.5412
  224ETHOX   C230504  10.501  13.057  11.991 -0.3589 -0.1094  0.1443
  224ETHOX  H2130505  10.560  13.139  11.944  1.4999 -2.4682 -1.9740
  224ETHOX  H2330506  10.537  13.025  12.091 -0.6012  1.2841  0.6980
  225ETHOX   O130507  10.356  13.084  11.996 -0.8043  0.5525 -0.2841
  225ETHOX   C130508  10.326  13.178  12.097  0.0650 -0.1726  0.7616
  225ETHOX  H1130509  10.411  13.249  12.108 -0.6788  1.0055 -0.8108
  225ETHOX  H1330510  10.334  13.135  12.199 -0.5877  0.8315  1.2485
  225ETHOX   C230511  10.200  13.265  12.077  0.0886 -0.2672  0.1375
  225ETHOX  H2130512  10.197  13.301  11.972  1.2982 -2.8188 -0.8495
  225ETHOX  H2330513  10.217  13.353  12.142  1.8376 -2.6574  3.1946
  226ETHOX   O130514  10.075  13.199  12.105 -0.3561  0.1416  0.1705
  226ETHOX   C130515  10.046  13.094  12.016 -0.0476  0.0384 -0.2027
  226ETHOX  H1130516  10.071  13.112  11.909  1.4877 -2.9917 -0.4785
  226ETHOX  H1330517  10.113  13.009  12.041 -1.7207 -1.2602 -0.0292
  226ETHOX   C230518   9.900  13.048  12.024  0.1675 -0.1310 -0.0172
  226ETHOX  H2130519   9.833  13.136  12.025 -2.0990 -1.7846 -0.2107
  226ETHOX  H2330520   9.879  12.998  12.121  0.5712 -0.3693 -0.0470
  227ETHOX   O130521   9.877  12.955  11.916 -0.4869 -0.1020  0.3578
  227ETHOX   C130522   9.753  12.884  11.936 -0.1030 -0.0296 -0.6712
  227ETHOX  H1130523   9.750  12.859  12.044  0.1104  0.7810 -0.4691
  227ETHOX  H1330524   9.756  12.788  11.880  2.0717 -0.8321  0.7096
  227ETHOX   C230525   9.633  12.958  11.885  0.5484 -0.1812  0.5555
  227ETHOX  H2130526   9.547  12.888  11.877  0.5440 -0.1478  0.3046
  227ETHOX  H2330527   9.660  12.970  11.778 -2.0370  2.6725  0.0877
  228ETHOX   O130528   9.601  13.079  11.950 -0.0509 -0.5460 -0.0902
  228ETHOX   C130529   9.475  13.141  11.921 -1.3714 -0.3984 -0.2673
  228ETHOX  H1130530   9.487  13.251  11.929 -2.1367 -0.1532 -2.0943
  228ETHOX  H1330531   9.436  13.116  11.820  0.6319 -0.9031 -0.9658
  228ETHOX   C230532   9.372  13.089  12.023  1.0565  0.8289 -0.5872
  228ETHOX  H2130533   9.286  13.157  12.002 -0.5566 -0.1225  2.3837
  228ETHOX  H2330534   9.408  13.112  12.126  0.2947 -1.3456  0.2140
  229ETHOX   O130535   9.336  12.950  12.015 -0.3348  0.5805  0.7023
  229ETHOX   C130536   9.216  12.922  12.081 -0.2372  0.5115 -0.3642
  229ETHOX  H1130537   9.195  12.991  12.166 -3.5965 -2.4361  1.4738
  229ETHOX  H1330538   9.214  12.819  12.122 -0.0462  1.0266  1.0075
  229ETHOX   C230539   9.088  12.938  11.991 -0.6493  0.1943  0.8343
  229ETHOX  H2130540   9.080  13.044  11.960  3.2671 -0.0871 -1.9380
  229ETHOX  H2330541   8.998  12.905  12.047 -0.5339  0.3003  1.0791
  230ETHOX   O130542   9.094  12.847  11.880  0.3969  0.5383 -0.0414
  230ETHOX   C130543   8.998  12.878  11.775 -0.4004  0.2714  0.2942
  230ETHOX  H1130544   9.028  12.980  11.744  0.5658  0.5473  2.0108
  230ETHOX  H1330545   9.010  12.814  11.685  1.5150 -1.0665  1.4303
  230ETHOX   C230546   8.846  12.890  11.812 -0.3983 -0.8640 -0.0729
  230ETHOX  H2130547   8.809  12.948  11.725  3.8503 -0.6573 -2.0030
  230ETHOX  H2330548   8.829  12.958  11.898  3.9957 -2.8465  2.7317
  231ETHOX   O130549   8.782  12.767  11.825 -0.0972 -0.3714  1.0571
  231ETHOX   C130550   8.732  12.757  11.960 -0.8133  0.0809  0.0019
  231ETHOX  H1130551   8.690  12.846  12.011 -0.8521  0.9060 -1.4199
  231ETHOX  H1330552   8.810  12.722  12.031 -0.2185  0.7979 -0.2796
  231ETHOX   C230553   8.626  12.644  11.965 -0.1243  0.2269 -0.4891
  231ETHOX  H2130554   8.615  12.598  12.066  2.8750  0.6974  0.1345
  231ETHOX  H2330555   8.671  12.564  11.902  1.4344  1.1514 -0.5951
  232ETHOX   O130556   8.506  12.685  11.904 -0.2761  0.5040 -0.7090
  232ETHOX   C130557   8.410  12.581  11.917 -0.3703  0.2343  0.5946
  232ETHOX  H1130558   8.460  12.482  11.923 -1.2078 -0.1404  1.5379
  232ETHOX  H1330559   8.359  12.588  12.015 -1.2286 -2.1123  0.3755
  232ETHOX   C230560   8.299  12.581  11.817  0.4593 -0.9244 -0.0966
  232ETHOX  H2130561   8.215  12.527  11.865  0.7509 -1.1065  0.2158
  232ETHOX  H2330562   8.344  12.540  11.723 -1.0015 -2.6389 -0.0999
  233ETHOX   O130563   8.245  12.710  11.796  0.2189 -0.0272  0.2271
  233ETHOX   C130564   8.113  12.695  11.753  0.0698  0.3650  0.3560
  233ETHOX  H1130565   8.100  12.606  11.688 -1.1345 -0.1439  1.2661
  233ETHOX  H1330566   8.054  12.688  11.847 -2.9065  0.3152 -1.4079
  233ETHOX   C230567   8.070  12.818  11.679 -0.2819 -0.4435  0.0079
  233ETHOX  H2130568   7.964  12.804  11.648 -0.3343 -1.2588  0.5184
  233ETHOX  H2330569   8.132  12.843  11.591 -1.8373 -1.2510 -1.3775
  234ETHOX   O130570   8.071  12.929  11.771  0.3037 -0.0243 -0.6416
  234ETHOX   C130571   8.048  13.052  11.703 -0.4772  0.0613 -0.3614
  234ETHOX  H1130572   8.111  13.060  11.611 -0.1100  1.4953 -0.0148
  234ETHOX  H1330573   7.942  13.069  11.675 -0.2231  0.7317 -0.9674
  234ETHOX   C230574   8.090  13.173  11.789  1.0860  0.1516  0.3271
  234ETHOX  H2130575   8.112  13.256  11.719  1.5801 -1.7246 -1.8514
  234ETHOX  H2330576   8.170  13.154  11.864  0.5508 -0.7454  0.7040
  235ETHOX   O130577   7.988  13.215  11.883  0.5043  0.1194 -0.2872
  235ETHOX   C130578   8.033  13.319  11.973  0.7929  0.2821 -0.3480
  235ETHOX  H1130579   8.113  13.279  12.037 -1.1830 -2.5246  0.5535
  235ETHOX  H1330580   8.063  13.412  11.920  1.2988  0.4941  0.2982
  235ETHOX   C230581   7.922  13.373  12.070 -0.2807  0.3164 -0.3721
  235ETHOX  H2130582   7.966  13.437  12.149 -1.0016 -0.4426  0.6523
  235ETHOX  H2330583   7.867  13.292  12.122 -0.7411 -1.3185 -3.1951
  236ETHOX   O130584   7.822  13.451  12.006  0.4993 -0.2187 -0.1229
  236ETHOX   C130585   7.730  13.371  11.937 -0.3830  0.0205  0.0306
  236ETHOX  H1130586   7.711  13.276  11.992  0.5385 -0.3581 -0.2797
  236ETHOX  H1330587   7.778  13.343  11.841  1.5577 -2.7751  1.6407
  236ETHOX   C230588   7.589  13.437  11.920 -0.8111  0.5246 -0.3746
  236ETHOX  H2130589   7.550  13.451  12.023 -0.7791 -1.9015  0.0411
  236ETHOX  H2330590   7.529  13.363  11.864 -0.4375 -0.3430  0.3365
  237ETHOX   O130591   7.586  13.558  11.844  0.6094  0.5755 -0.2490
  237ETHOX   C130592   7.453  13.599  11.827 -0.1179 -0.4611 -0.6240
  237ETHOX  H1130593   7.411  13.503  11.790  1.5576 -1.7140  0.5608
  237ETHOX  H1330594   7.402  13.624  11.922 -1.7805 -0.9047 -1.3595
  237ETHOX   C230595   7.449  13.720  11.734  0.0428 -0.2536 -0.6813
  237ETHOX  H2130596   7.506  13.798  11.789  0.4374 -1.1561  0.2322
  237ETHOX  H2330597   7.347  13.755  11.709 -0.6752  0.1973  2.4928
  238ETHOX   O130598   7.523  13.682  11.622  0.6259  0.2131 -0.0771
  238ETHOX   C130599   7.530  13.787  11.522 -0.5863 -0.4863  0.2571
  238ETHOX  H1130600   7.599  13.865  11.561 -1.8860  1.4415 -1.1456
  238ETHOX  H1330601   7.435  13.844  11.523  0.4541  1.3057  0.7489
  238ETHOX   C230602   7.574  13.745  11.376 -0.3608  0.8829 -0.5517
  238ETHOX  H2130603   7.580  13.834  11.310  3.5962  0.8248 -0.4893
  238ETHOX  H2330604   7.492  13.678  11.342 -1.3547  0.1152  2.9313
  239ETHOX   O130605   7.706  13.686  11.361 -0.4710  0.6477  0.1916
  239ETHOX   C130606   7.733  13.644  11.229  1.0868  0.2353 -0.0505
  239ETHOX  H1130607   7.672  13.559  11.191  0.2518  1.0332 -0.5263
  239ETHOX  H1330608   7.713  13.722  11.153  2.4480 -0.4082 -1.1174
  239ETHOX   C230609   7.877  13.609  11.209  0.3307 -0.0000 -0.1677
  239ETHOX  H2130610   7.909  13.529  11.279  2.6522  0.9371 -0.0914
  239ETHOX  H2330611   7.875  13.563  11.108 -0.6806 -0.8356  0.2126
  240ETHOX   O130612   7.970  13.715  11.204  0.2292  0.0220 -0.4779
  240ETHOX   C130613   8.002  13.776  11.325 -0.2255 -0.0209  0.4104
  240ETHOX  H1130614   8.009  13.708  11.412 -0.6366 -0.9085 -0.2256
  240ETHOX  H1330615   7.925  13.850  11.356 -0.5537  0.3048 -1.0748
  240ETHOX   C230616   8.122  13.862  11.302 -0.5035 -0.4467  0.0030
  240ETHOX  H2130617   8.198  13.790  11.265 -1.1696 -0.6493 -1.0123
  240ETHOX  H2330618   8.160  13.916  11.392 -1.0492 -1.0664  0.6164
  241ETHOX   O130619   8.098  13.968  11.211  0.3778 -0.3275 -0.8393
  241ETHOX   C130620   8.210  14.048  11.173 -0.2043  0.9914  0.2160
  241ETHOX  H1130621   8.266  14.067  11.266 -0.1722  0.1049  0.3826
  241ETHOX  H1330622   8.281  13.997  11.105  0.7769 -1.6149  2.9738
  241ETHOX   C230623   8.165  14.183  11.116 -0.0181  0.2608 -0.4857
  241ETHOX  H2130624   8.251  14.253  11.102 -1.7088  2.7441  0.8091
  241ETHOX  H2330625   8.096  14.232  11.189  2.5922 -0.0642  2.4382
  242ETHOX   O130626   8.092  14.163  10.997 -0.1827 -0.0378 -0.2712
  242ETHOX   C130627   8.004  14.272  10.972 -0.6959 -0.1771  1.1931
  242ETHOX  H1130628   8.060  14.365  10.947  0.3306 -1.1691 -0.3326
  242ETHOX  H1330629   7.947  14.294  11.065  2.3799  0.4747  3.0909
  242ETHOX   C230630   7.914  14.238  10.846  0.4426  0.2461  0.7024
  242ETHOX  H2130631   7.835  14.316  10.843  0.1594 -0.0463  0.2577
  242ETHOX  H2330632   7.864  14.140  10.865 -0.3834  0.6436  0.6175
  243ETHOX   O130633   7.997  14.244  10.734 -0.2042 -0.0591  0.5258
  243ETHOX   C130634   7.912  14.255  10.619  0.2342 -0.0047 -0.1743
  243ETHOX  H1130635   7.836  14.174  10.621 -0.2983  0.4260  3.5533
  243ETHOX  H1330636   7.842  14.341  10.620  2.6834  2.1342  1.6272
  243ETHOX   C230637   7.990  14.271  10.491  0.0571 -0.3564  0.7843
  243ETHOX  H2130638   7.924  14.247  10.405 -0.9820 -0.3110  1.5509
  243ETHOX  H2330639   8.077  14.202  10.484  0.4266  0.2880 -2.4881
  244ETHOX   O130640   8.024  14.410  10.478 -0.0573 -0.5033  0.0622
  244ETHOX   C130641   8.106  14.432  10.364  0.4039  0.2291  0.2993
  244ETHOX  H1130642   8.064  14.384  10.273 -1.0261 -0.1075  1.1058
  244ETHOX  H1330643   8.199  14.371  10.375 -0.0736 -0.3672  1.1726
  244ETHOX   C230644   8.145  14.578  10.339  0.4898 -0.2812 -1.1121
  244ETHOX  H2130645   8.206  14.580  10.246  0.4126 -0.3314 -1.1635
  244ETHOX  H2330646   8.188  14.626  10.429  0.1424  1.2622 -1.7330
  245ETHOX   O130647   8.030  14.641  10.300 -0.0397 -0.6043 -0.1094
  245ETHOX   C130648   8.052  14.782  10.286  0.5942  0.0135 -0.0956
  245ETHOX  H1130649   8.087  14.812  10.387  0.9354 -0.4493 -0.0733
  245ETHOX  H1330650   8.121  14.804  10.202 -1.2397  0.7318 -1.4954
  245ETHOX   C230651   7.916  14.862  10.268 -0.1577  0.1646 -0.5353
  245ETHOX  H2130652   7.858  14.856  10.362  2.6344  0.0737  1.2788
  245ETHOX  H2330653   7.862  14.809  10.186 -0.4404 -0.6596  0.1684
  246ETHOX   O130654   7.946  14.994  10.214 -0.2204  0.0408  0.4226
  246ETHOX   C130655   7.828  15.073  10.211  0.3336 -0.0854  0.8049
  246ETHOX  H1130656   7.796  15.084  10.316 -1.7014  0.6759  0.1427
  246ETHOX  H1330657   7.755  15.013  10.153  2.6435 -1.4381 -0.9053
  246ETHOX   C230658   7.863  15.221  10.170  0.5500  0.7354 -0.0752
  246ETHOX  H2130659   7.897  15.235  10.065  2.6006 -1.5826  0.1892
  246ETHOX  H2330660   7.944  15.260  10.236  3.0770 -1.2235 -1.7711
  247ETHOX   O130661   7.743  15.294  10.175 -0.3825  0.7054 -0.0132
  247ETHOX   C130662   7.768  15.427  10.126 -0.2939 -0.5708 -0.3302
  247ETHOX  H1130663   7.856  15.472  10.176  0.1084 -2.4447  0.7219
  247ETHOX  H1330664   7.783  15.422  10.016 -2.2820  0.4420 -0.6970
  247ETHOX   C230665   7.640  15.513  10.158  0.2003  0.0644 -0.4287
  247ETHOX  H2130666   7.640  15.616  10.119 -0.9194  0.1682 -0.1973
  247ETHOX  H2330667   7.554  15.452  10.123 -0.9642  2.5078 -2.0330
  248ETHOX   O130668   7.627  15.525  10.299 -0.3692  0.5912 -0.4095
  248ETHOX   C130669   7.528  15.618  10.330 -0.0756  0.1256  0.2142
  248ETHOX  H1130670   7.522  15.696  10.251  0.7788 -0.6452 -0.6251
  248ETHOX  H1330671   7.431  15.565  10.337  0.0735 -0.1776  0.0180
  248ETHOX   C230672   7.540  15.692  10.464 -0.7309 -0.2370  0.0054
  248ETHOX  H2130673   7.593  15.789  10.452 -0.4187 -0.1325  1.9105
  248ETHOX  H2330674   7.610  15.640  10.532  0.7584  1.9139  0.2179
  249ETHOX   O130675   7.415  15.722  10.533 -0.0290  0.2160 -0.5008
  249ETHOX   C130676   7.368  15.605  10.605 -0.0629 -0.3715  0.9098
  249ETHOX  H1130677   7.373  15.535  10.520  0.6926  0.1590  0.5045
  249ETHOX  H1330678   7.444  15.576  10.681  0.9429 -4.5652 -1.4068
  249ETHOX   C230679   7.227  15.623  10.659 -0.0402  0.2153 -0.4615
  249ETHOX  H2130680   7.202  15.524  10.701 -1.4917  1.5915  2.1637
  249ETHOX  H2330681   7.166  15.660  10.573  2.2087  0.0961 -2.2002
  250ETHOX   O130682   7.222  15.726  10.759  0.6051  0.3280 -0.0746
  250ETHOX   C130683   7.081  15.751  10.791 -0.7377 -0.1823  0.3025
  250ETHOX  H1130684   7.039  15.805  10.704  0.7962 -0.0529 -0.3999
  250ETHOX  H1330685   7.031  15.653  10.801 -1.2119  0.0087 -0.1592
  250ETHOX   C230686   7.054  15.830  10.917  0.4684  0.1686 -0.8300
  250ETHOX  H2130687   6.945  15.843  10.935  0.6388 -1.8155  2.5170
  250ETHOX  H2330688   7.090  15.934  10.901 -0.6983  0.4218 -1.9528
  251ETHOX   O130689   7.113  15.760  11.026 -0.4974  0.0242 -0.7657
  251ETHOX   C130690   7.054  15.802  11.147 -0.4550 -0.2514  0.3049
  251ETHOX  H1130691   6.943  15.792  11.144 -0.5307  0.5708 -0.0090
  251ETHOX  H1330692   7.083  15.907  11.170  0.5561 -0.6624  0.9325
  251ETHOX   C230693   7.101  15.734  11.277  0.1203 -0.0437  0.3046
  251ETHOX  H2130694   7.121  15.627  11.253  2.8357  0.2335  1.0413
  251ETHOX  H2330695   7.015  15.721  11.346  0.9062  1.2177  1.5772
  252ETHOX   O130696   7.213  15.787  11.356  0.3811  0.5778 -0.4786
  252ETHOX   C130697   7.336  15.792  11.287  0.3800  0.4773  0.3622
  252ETHOX  H1130698   7.361  15.687  11.261 -0.9033  0.3964 -0.6606
  252ETHOX  H1330699   7.332  15.846  11.190  0.7962 -2.0689 -1.1476
  252ETHOX   C230700   7.444  15.857  11.369 -0.4895 -0.0266  0.3326
  252ETHOX  H2130701   7.546  15.841  11.326  0.1803  1.6828  1.2192
  252ETHOX  H2330702   7.443  15.830  11.476  0.1457  1.7746  0.8247
  253ETHOX   O130703   7.409  15.996  11.379  0.0230 -0.1027  0.1992
  253ETHOX   C130704   7.504  16.057  11.461 -0.1443  0.5302 -0.2188
  253ETHOX  H1130705   7.604  16.042  11.416  0.3500  0.2859  0.9451
  253ETHOX  H1330706   7.505  16.015  11.564 -0.1312  1.1945  0.0589
  253ETHOX   C230707   7.476  16.206  11.475  0.3698 -0.7688 -1.0657
  253ETHOX  H2130708   7.442  16.259  11.384 -0.8301  0.9926  0.3171
  253ETHOX  H2330709   7.563  16.267  11.511 -1.2964  0.1739  1.6976
  254ETHOX   O130710   7.371  16.217  11.570 -0.6080  0.1065 -0.6103
  254ETHOX   C130711   7.322  16.352  11.576  0.3368  0.6283 -0.7978
  254ETHOX  H1130712   7.313  16.395  11.474  0.8772  0.6166 -0.8533
  254ETHOX  H1330713   7.225  16.359  11.630  0.3846  2.0153 -0.8613
  254ETHOX   C230714   7.419  16.434  11.668 -0.3893  0.4647  0.5264
  254ETHOX  H2130715   7.376  16.536  11.679 -0.3368  0.8019 -1.9582
  254ETHOX  H2330716   7.518  16.423  11.620 -0.8736 -1.4283 -0.1159
  255ETHOX   O130717   7.442  16.371  11.792  0.0873  0.6773  0.8534
  255ETHOX   C130718   7.349  16.409  11.893  0.6556  0.0899  0.1287
  255ETHOX  H1130719   7.258  16.349  11.871  0.8002  0.5673 -2.0135
  255ETHOX  H1330720   7.327  16.518  11.887 -1.0615 -0.2960 -1.7332
  255ETHOX   C230721   7.403  16.383  12.030  0.3253  0.3555 -0.3844
  255ETHOX  H2130722   7.434  16.277  12.014  2.3886  0.9970 -1.0594
  255ETHOX  H2330723   7.326  16.391  12.110  0.3346 -0.6631 -0.2574
  256ETHOX   O130724   7.514  16.463  12.067 -0.0942  0.3826 -0.3338
  256ETHOX   C130725   7.627  16.393  12.110 -0.1755  0.2321 -0.1798
  256ETHOX  H1130726   7.699  16.467  12.150 -0.5730  0.9058 -0.6762
  256ETHOX  H1330727   7.588  16.325  12.189 -0.7452  0.2351 -0.4517
  256ETHOX   C230728   7.700  16.300  12.012 -0.8074 -0.6391 -0.9115
  256ETHOX  H2130729   7.713  16.366  11.924 -0.0440  1.7726  0.8868
  256ETHOX  H2330730   7.641  16.207  12.004 -2.0738  0.1572 -1.0599
  257ETHOX   O130731   7.834  16.278  12.056  0.4462 -0.2593 -0.1950
  257ETHOX   C130732   7.919  16.221  11.960 -0.3929  0.2619 -0.8768
  257ETHOX  H1130733   8.024  16.254  11.979 -0.6203  0.5329 -0.0563
  257ETHOX  H1330734   7.896  16.266  11.861  3.6585 -0.6696 -2.4509
  257ETHOX   C230735   7.907  16.065  11.946 -0.2222  0.2069 -0.4733
  257ETHOX  H2130736   7.941  16.045  11.842  0.5669  1.9207 -0.5828
  257ETHOX  H2330737   7.800  16.037  11.955 -0.7964  1.9318 -1.3882
  258ETHOX   O130738   7.994  15.989  12.033 -0.5872 -0.3619  0.6859
  258ETHOX   C130739   7.919  15.889  12.098 -0.2278 -0.5369 -0.3595
  258ETHOX  H1130740   7.816  15.926  12.116 -0.5855 -2.0684  0.9972
  258ETHOX  H1330741   7.923  15.804  12.026 -2.1706  0.0500 -1.2077
  258ETHOX   C230742   8.000  15.845  12.223 -0.2714  0.0041  0.7876
  258ETHOX  H2130743   8.104  15.822  12.191 -0.1816  0.3804  0.8060
  258ETHOX  H2330744   7.964  15.749  12.265  0.0618 -1.1893 -1.4652
  259ETHOX   O130745   7.996  15.954  12.316  0.3663 -0.7245 -0.6346
  259ETHOX   C130746   8.080  15.919  12.433 -0.0462 -0.8960  0.2145
  259ETHOX  H1130747   8.024  15.843  12.492 -0.5052 -0.2119  0.6667
  259ETHOX  H1330748   8.173  15.865  12.406 -0.1445 -0.9870  0.0529
  259ETHOX   C230749   8.117  16.044  12.516  0.0702 -0.6514 -0.3227
  259ETHOX  H2130750   8.136  16.124  12.441  0.0891 -0.2426  0.1099
  259ETHOX  H2330751   8.209  16.033  12.578 -1.1780  2.5497  2.4323
  260ETHOX   O130752   8.016  16.080  12.605  0.4781  0.2676 -0.3046
  260ETHOX   C130753   7.924  16.170  12.560  0.6358 -0.9524  0.3096
  260ETHOX  H1130754   7.962  16.274  12.575 -2.2829 -0.1212  3.2268
  260ETHOX  H1330755   7.892  16.147  12.456 -0.3096 -1.1041  0.6217
  260ETHOX   C230756   7.794  16.155  12.640  0.0836 -0.1398  0.0220
  260ETHOX  H2130757   7.764  16.048  12.637 -1.4831  0.2882 -2.8578
  260ETHOX  H2330758   7.726  16.224  12.585  1.5168 -0.1445 -1.8768
  261ETHOX   O130759   7.810  16.206  12.773  0.2832  0.4291 -0.0849
  261ETHOX   C130760   7.685  16.235  12.835  0.0874  0.3433  0.3201
  261ETHOX  H1130761   7.628  16.303  12.769 -0.0724 -1.8775 -1.9584
  261ETHOX  H1330762   7.618  16.147  12.852 -1.7116  1.7158  0.6300
  261ETHOX   C230763   7.709  16.298  12.974  0.0787 -0.2642  0.1828
  261ETHOX  H2130764   7.799  16.252  13.020  1.7730  2.5122 -0.0755
  261ETHOX  H2330765   7.620  16.300  13.041  0.4487 -0.6536  0.6981
  262ETHOX   O130766   7.754  16.431  12.975 -0.1419  0.3766  0.9355
  262ETHOX   C130767   7.741  16.496  13.101  1.3505 -0.0853  0.5777
  262ETHOX  H1130768   7.634  16.490  13.128  1.3836 -2.2541  0.3853
  262ETHOX  H1330769   7.763  16.604  13.086  4.4548 -0.2437  2.8963
  262ETHOX   C230770   7.841  16.462  13.209  0.0328 -0.7526  0.0234
  262ETHOX  H2130771   7.812  16.532  13.290  0.1889  0.0532 -0.6110
  262ETHOX  H2330772   7.943  16.489  13.176 -0.3397  2.7796  1.3288
  263ETHOX   O130773   7.841  16.325  13.257  0.3822 -0.0040 -0.3947
  263ETHOX   C130774   7.942  16.303  13.358  1.2876 -0.0989 -0.7529
  263ETHOX  H1130775   8.040  16.328  13.312  2.6997  0.0554  2.1338
  263ETHOX  H1330776   7.951  16.192  13.362  1.6361 -0.0659 -0.6384
  263ETHOX   C230777   7.906  16.364  13.494  0.0519 -0.8223  0.3536
  263ETHOX  H2130778   7.889  16.473  13.502 -2.4873 -1.0793 -0.6658
  263ETHOX  H2330779   7.989  16.328  13.560  1.0028  0.4635 -0.0991
  264ETHOX   O130780   7.782  16.313  13.534  0.0641 -0.1815 -0.1601
  264ETHOX   C130781   7.759  16.337  13.673 -0.3652 -0.4470  0.3761
  264ETHOX  H1130782   7.770  16.447  13.674  0.4356 -0.4670 -1.6167
  264ETHOX  H1330783   7.831  16.283  13.738  0.2746  0.5976  0.5460
  264ETHOX   C230784   7.608  16.297  13.710  0.0622 -0.6422  0.2038
  264ETHOX  H2130785   7.558  16.318  13.613  2.7636 -0.1030 -1.1928
  264ETHOX  H2330786   7.573  16.362  13.793 -2.1879  1.8637 -2.5067
  265ETHOX   O130787   7.603  16.160  13.748  0.2969 -0.3711 -0.6167
  265ETHOX   C130788   7.471  16.132  13.774  0.5355  0.0151 -0.0917
  265ETHOX  H1130789   7.438  16.191  13.862 -1.2421 -0.7519 -0.1917
  265ETHOX  H1330790   7.404  16.158  13.689  3.9477 -0.3383 -3.1336
  265ETHOX   C230791   7.454  15.981  13.808 -0.3641  0.4765 -0.6387
  265ETHOX  H2130792   7.504  15.915  13.733 -1.0610 -0.0781 -0.6190
  265ETHOX  H2330793   7.352  15.939  13.813 -0.6618  1.2912  0.5437
  265ETHOX   OZ30794   7.502  15.959  13.942  0.1069  0.5086 -0.2440
  265ETHOX  HZ130795   7.593  15.991  13.938  0.0741  0.5118 -1.2678
    1ETHOX   O130796  15.657   8.537  12.129 -0.0295 -0.2580  0.3582
    1ETHOX  HO130797  15.621   8.476  12.065 -1.2692 -0.9448  1.6653
    1ETHOX   C130798  15.797   8.502  12.136 -0.0376 -0.1912  0.1201
    1ETHOX  H1130799  15.839   8.513  12.034 -0.4767 -0.3784 -0.0804
    1ETHOX  H1330800  15.800   8.397  12.171 -1.5843 -0.2270  0.2148
    1ETHOX   C230801  15.871   8.595  12.229  0.9410 -0.4170  0.6576
    1ETHOX  H2130802  15.816   8.610  12.324 -1.4865 -3.4808 -0.0962
    1ETHOX  H2330803  15.872   8.698  12.187  0.2518 -0.9060 -0.6195
    2ETHOX   O130804  16.002   8.553  12.245  0.1220  0.0301 -0.4164
    2ETHOX   C130805  16.081   8.655  12.293  0.6061 -0.0020 -0.2539
    2ETHOX  H1130806  16.091   8.732  12.214  0.4981  0.1541 -0.1150
    2ETHOX  H1330807  16.044   8.683  12.394  2.5793 -1.0087  0.8056
    2ETHOX   C230808  16.226   8.612  12.338  0.1883 -0.0978  0.8718
    2ETHOX  H2130809  16.272   8.709  12.366  0.6954  0.4601 -1.7067
    2ETHOX  H2330810  16.290   8.576  12.255  0.3841 -1.9815  1.7690
    3ETHOX   O130811  16.222   8.514  12.433 -0.2304  0.3064 -0.2937
    3ETHOX   C130812  16.356   8.488  12.472  0.6831  0.1517 -0.2035
    3ETHOX  H1130813  16.409   8.584  12.488  0.9181 -0.0661  0.3303
    3ETHOX  H1330814  16.408   8.417  12.405  1.1166  1.0972 -0.8808
    3ETHOX   C230815  16.350   8.411  12.603 -0.6181 -0.5556  0.2262
    3ETHOX  H2130816  16.452   8.378  12.632  0.5453  0.4508 -2.3987
    3ETHOX  H2330817  16.291   8.318  12.589 -0.8516 -0.4994  0.8141
    4ETHOX   O130818  16.311   8.490  12.713 -0.3746  0.4453 -0.5742
    4ETHOX   C130819  16.173   8.521  12.713 -0.7710  0.1761  0.8576
    4ETHOX  H1130820  16.141   8.576  12.622 -0.1743 -0.4140  0.2760
    4ETHOX  H1330821  16.108   8.431  12.705 -0.4517 -0.0104  0.3325
    4ETHOX   C230822  16.144   8.595  12.850 -0.8939 -1.0834  0.4155
    4ETHOX  H2130823  16.175   8.534  12.937 -0.4121  0.7720  1.5934
    4ETHOX  H2330824  16.034   8.608  12.843 -0.9623 -2.1734 -1.0469
    5ETHOX   O130825  16.214   8.721  12.857  0.2507  0.3441  0.2366
    5ETHOX   C130826  16.162   8.792  12.967 -0.8045 -0.2094 -0.6049
    5ETHOX  H1130827  16.059   8.829  12.946 -0.8698  2.4332  3.3100
    5ETHOX  H1330828  16.152   8.719  13.050 -2.0943 -1.4861 -1.8101
    5ETHOX   C230829  16.249   8.918  13.002 -0.3056 -0.0269 -0.5724
    5ETHOX  H2130830  16.352   8.900  13.038 -0.3233 -0.5364 -0.7684
    5ETHOX  H2330831  16.197   8.978  13.080  0.7443  0.1548  0.0032
    6ETHOX   O130832  16.273   8.999  12.877  0.3928  0.3401 -0.1888
    6ETHOX   C130833  16.335   9.113  12.903  0.4032  0.3365  0.1003
    6ETHOX  H1130834  16.276   9.181  12.968  0.5716  1.0149 -0.4429
    6ETHOX  H1330835  16.434   9.085  12.945  1.7327  1.6250 -2.0408
    6ETHOX   C230836  16.365   9.186  12.765  0.4803 -0.1321 -0.0321
    6ETHOX  H2130837  16.398   9.111  12.690 -1.8217 -1.0865 -0.1567
    6ETHOX  H2330838  16.441   9.266  12.783 -0.6139  0.8382  0.4146
    7ETHOX   O130839  16.249   9.257  12.718 -0.6127  0.1893 -0.3248
    7ETHOX   C130840  16.243   9.268  12.576  0.2967 -0.1962  0.2997
    7ETHOX  H1130841  16.344   9.302  12.543 -0.2571  2.4180  1.0365
    7ETHOX  H1330842  16.201   9.180  12.524  0.7445 -0.2599  0.0409
    7ETHOX   C230843  16.142   9.386  12.549  0.6192 -0.1820  0.7669
    7ETHOX  H2130844  16.193   9.482  12.573  0.2769 -0.3853  2.3632
    7ETHOX  H2330845  16.056   9.371  12.617  0.5483 -1.4051  0.4349
    8ETHOX   O130846  16.104   9.380  12.412  0.1300  0.0974 -0.1006
    8ETHOX   C130847  16.023   9.490  12.372 -0.0136 -0.2129 -0.2908
    8ETHOX  H1130848  16.073   9.589  12.384  0.5491 -0.5069 -0.1603
    8ETHOX  H1330849  15.921   9.484  12.416 -1.4883  0.8747 -3.3381
    8ETHOX   C230850  16.019   9.466  12.221  0.4292 -0.1507  0.0618
    8ETHOX  H2130851  15.926   9.504  12.174 -0.3922 -2.1878 -0.0545
    8ETHOX  H2330852  16.027   9.360  12.190 -1.7637 -0.4527  0.3884
    9ETHOX   O130853  16.134   9.536  12.165 -0.5538 -0.1412 -0.0196
    9ETHOX   C130854  16.139   9.510  12.027 -0.0122  0.3000  0.0226
    9ETHOX  H1130855  16.163   9.405  12.002  2.9655  0.3884  2.0415
    9ETHOX  H1330856  16.041   9.548  11.989  0.0914  0.0949 -0.4653
    9ETHOX   C230857  16.254   9.587  11.967 -0.1636 -0.4573  0.3508
    9ETHOX  H2130858  16.272   9.566  11.859 -1.8220  0.5357 -0.1608
    9ETHOX  H2330859  16.342   9.582  12.034 -0.2048 -0.4764  0.4046
   10ETHOX   O130860  16.229   9.726  11.962 -0.4173 -0.3610 -0.3943
   10ETHOX   C130861  16.329   9.810  11.912  0.0134 -0.1254 -0.2137
   10ETHOX  H1130862  16.357   9.792  11.806  0.5772  2.2187 -0.5346
   10ETHOX  H1330863  16.421   9.800  11.972  0.8791 -2.2471 -1.7809
   10ETHOX   C230864  16.284   9.959  11.920  0.5827 -0.7500  0.3041
   10ETHOX  H2130865  16.184   9.969  11.872  0.1103 -1.8757  1.0151
   10ETHOX  H2330866  16.350  10.027  11.862  0.8226 -1.6114 -0.4499
   11ETHOX   O130867  16.295   9.997  12.056  0.0773  0.1898 -0.4944
   11ETHOX   C130868  16.227  10.117  12.081  0.3976 -0.7468 -0.6641
   11ETHOX  H1130869  16.268  10.196  12.015 -0.7856 -0.0701 -0.6350
   11ETHOX  H1330870  16.119  10.118  12.054 -0.5105 -0.6271  2.5005
   11ETHOX   C230871  16.235  10.170  12.227  0.3733 -0.0540 -0.1432
   11ETHOX  H2130872  16.196  10.274  12.236 -0.4146 -0.3546 -0.0051
   11ETHOX  H2330873  16.173  10.103  12.290 -2.4999  2.6100  0.0780
   12ETHOX   O130874  16.372  10.181  12.268  0.0355  0.1033  0.4926
   12ETHOX   C130875  16.374  10.203  12.408 -0.2562  0.2771 -0.3156
   12ETHOX  H1130876  16.332  10.112  12.455  1.6515 -2.6637 -3.8489
   12ETHOX  H1330877  16.335  10.302  12.441  1.4542  1.8144 -2.5905
   12ETHOX   C230878  16.520  10.209  12.456  0.5537  0.1325 -0.0177
   12ETHOX  H2130879  16.518  10.219  12.567  0.6737 -0.2693  0.0247
   12ETHOX  H2330880  16.562  10.298  12.406  0.2080  0.7675  0.8056
   13ETHOX   O130881  16.604  10.107  12.419  0.3710 -0.2956 -0.4742
   13ETHOX   C130882  16.736  10.142  12.463 -0.2060 -0.3914  0.2783
   13ETHOX  H1130883  16.783  10.212  12.391  2.0832 -2.3730 -0.2972
   13ETHOX  H1330884  16.733  10.188  12.565  1.7811 -0.4089  0.3907
   13ETHOX   C230885  16.813  10.006  12.468 -0.3125 -0.7249  0.5655
   13ETHOX  H2130886  16.745   9.924  12.497 -1.4887  0.3122  0.8009
   13ETHOX  H2330887  16.890  10.005  12.549 -1.1979  0.9594  1.4975
   14ETHOX   O130888  16.872   9.972  12.343 -0.0869 -0.4766 -0.7640
   14ETHOX   C130889  16.907   9.834  12.332  0.5784 -0.1431  0.2766
   14ETHOX  H1130890  16.813   9.782  12.303 -0.6967  2.9494 -1.6013
   14ETHOX  H1330891  16.939   9.792  12.430 -1.7996 -1.0204  0.7445
   14ETHOX   C230892  17.010   9.816  12.226 -0.7824 -0.2071 -0.5838
   14ETHOX  H2130893  17.002   9.895  12.148  0.3547  1.1137  0.5888
   14ETHOX  H2330894  16.993   9.719  12.173 -0.4693 -0.8150  0.4099
   15ETHOX   O130895  17.148   9.825  12.277  0.8367 -0.2301 -0.6633
   15ETHOX   C130896  17.219   9.947  12.239  0.4674 -0.2225  0.2023
   15ETHOX  H1130897  17.219   9.948  12.128 -0.0196 -1.6661  0.1709
   15ETHOX  H1330898  17.156  10.035  12.264  2.6344  1.0654  1.4577
   15ETHOX   C230899  17.359   9.963  12.295 -0.8024 -0.3632  0.0494
   15ETHOX  H2130900  17.394  10.065  12.270  0.9039 -0.0851  3.1573
   15ETHOX  H2330901  17.352   9.969  12.405  0.3918 -0.9310  0.1721
   16ETHOX   O130902  17.458   9.863  12.253  0.2029  0.5410  0.0734
   16ETHOX   C130903  17.585   9.898  12.291  0.1802  0.3908 -0.3485
   16ETHOX  H1130904  17.629   9.971  12.220  1.0090 -0.8033 -1.1225
   16ETHOX  H1330905  17.582   9.940  12.394  1.1007 -3.6836  1.5889
   16ETHOX   C230906  17.685   9.782  12.310 -0.5580  0.0564 -0.4448
   16ETHOX  H2130907  17.786   9.828  12.298 -0.1522 -0.7782 -0.3103
   16ETHOX  H2330908  17.670   9.716  12.222 -2.5619  0.7224 -0.6667
   17ETHOX   O130909  17.661   9.725  12.442 -0.5907  0.1459  0.2877
   17ETHOX   C130910  17.775   9.648  12.492  0.5350  0.2653 -0.0952
   17ETHOX  H1130911  17.854   9.724  12.506 -0.4970  1.2463  0.6356
   17ETHOX  H1330912  17.743   9.609  12.591  1.3450 -2.3562 -0.7786
   17ETHOX   C230913  17.821   9.524  12.412 -0.1942  0.3219  0.5067
   17ETHOX  H2130914  17.727   9.471  12.385  0.1841  0.3015 -0.8276
   17ETHOX  H2330915  17.892   9.469  12.478  1.1645  2.0356  0.5368
   18ETHOX   O130916  17.881   9.565  12.296  0.5375 -0.1310 -0.3448
   18ETHOX   C130917  17.875   9.458  12.203 -0.2732 -0.0304 -0.2844
   18ETHOX  H1130918  17.892   9.360  12.253 -2.6393 -0.8185 -0.8864
   18ETHOX  H1330919  17.768   9.454  12.174 -0.5911  0.6704  0.7407
   18ETHOX   C230920  17.961   9.461  12.083  0.5945  0.4927 -0.3607
   18ETHOX  H2130921  17.954   9.562  12.037 -0.3750  0.0345 -1.2751
   18ETHOX  H2330922  17.913   9.388  12.014  2.1597  0.3306 -1.3366
   19ETHOX   O130923  18.097   9.422  12.117 -0.4421  0.3792  0.2368
   19ETHOX   C130924  18.167   9.392  11.998  0.2034 -1.4806  0.6515
   19ETHOX  H1130925  18.159   9.486  11.939  3.0721 -0.0542  2.2989
   19ETHOX  H1330926  18.110   9.314  11.944 -2.3979 -0.1034  1.2406
   19ETHOX   C230927  18.313   9.368  12.015 -0.1485  0.6613 -0.6227
   19ETHOX  H2130928  18.361   9.361  11.915 -0.7282 -0.6891 -0.8182
   19ETHOX  H2330929  18.333   9.278  12.078 -1.9472  1.3923  1.0964
   20ETHOX   O130930  18.372   9.469  12.090 -0.6299  0.0385 -0.3528
   20ETHOX   C130931  18.512   9.448  12.106 -0.0980 -0.3653  0.3975
   20ETHOX  H1130932  18.566   9.421  12.013 -0.5109 -0.1982  0.1037
   20ETHOX  H1330933  18.560   9.541  12.144 -0.6570  0.2173 -0.2731
   20ETHOX   C230934  18.545   9.339  12.205  0.5697 -0.2998 -0.0053
   20ETHOX  H2130935  18.651   9.350  12.236  1.1349  0.7449 -2.1444
   20ETHOX  H2330936  18.550   9.243  12.150  0.5908 -0.9708  1.1246
   21ETHOX   O130937  18.464   9.332  12.322 -0.0054  0.5086 -0.2734
   21ETHOX   C130938  18.505   9.221  12.407 -0.1935  0.2358 -0.1117
   21ETHOX  H1130939  18.580   9.265  12.478 -1.9148  2.3023  0.5513
   21ETHOX  H1330940  18.540   9.136  12.346  0.0140 -1.4622  2.2259
   21ETHOX   C230941  18.393   9.175  12.499  0.3228 -0.0195  0.0368
   21ETHOX  H2130942  18.338   9.263  12.539 -2.6259 -1.6080 -0.1728
   21ETHOX  H2330943  18.431   9.132  12.594  2.1189  1.8519  0.2327
   22ETHOX   O130944  18.301   9.074  12.447  0.0361 -0.1704  0.4138
   22ETHOX   C130945  18.214   9.125  12.350 -0.2819 -0.6385 -0.8896
   22ETHOX  H1130946  18.171   9.221  12.385  0.4232 -0.4750 -0.4452
   22ETHOX  H1330947  18.266   9.151  12.255 -0.3604  0.4688 -0.6337
   22ETHOX   C230948  18.114   9.013  12.307 -0.2656 -0.5665  0.4846
   22ETHOX  H2130949  18.077   9.030  12.204  2.4721  1.1709 -0.3264
   22ETHOX  H2330950  18.177   8.921  12.307  1.8400  0.8015  1.1468
   23ETHOX   O130951  18.016   8.989  12.410  0.6571 -0.1407  0.3096
   23ETHOX   C130952  17.929   8.883  12.367  0.4514 -0.2631 -0.2074
   23ETHOX  H1130953  17.883   8.838  12.458  2.5303 -1.7703  0.1599
   23ETHOX  H1330954  17.992   8.800  12.328 -1.3598 -1.1495 -1.4118
   23ETHOX   C230955  17.829   8.908  12.257 -0.3738  0.0140 -0.2053
   23ETHOX  H2130956  17.796   8.807  12.226 -1.2024  0.9569 -2.6378
   23ETHOX  H2330957  17.880   8.951  12.168  1.9103  0.0699  1.0338
   24ETHOX   O130958  17.707   8.974  12.289 -0.4320 -0.4438  0.3075
   24ETHOX   C130959  17.734   9.091  12.366 -0.6109  0.2003  0.8277
   24ETHOX  H1130960  17.772   9.073  12.469  2.4408 -0.3421 -0.2746
   24ETHOX  H1330961  17.810   9.157  12.319 -0.4231  1.5400  2.8873
   24ETHOX   C230962  17.611   9.188  12.375 -0.8098  0.1723  0.5084
   24ETHOX  H2130963  17.658   9.274  12.427  1.2240  0.8510 -2.2160
   24ETHOX  H2330964  17.532   9.144  12.440  2.0212 -1.5156  3.1420
   25ETHOX   O130965  17.566   9.251  12.252  0.7091  0.3512 -0.3516
   25ETHOX   C130966  17.424   9.236  12.246 -0.2601 -0.2341  0.5342
   25ETHOX  H1130967  17.380   9.285  12.336 -2.2558 -0.4845 -0.2522
   25ETHOX  H1330968  17.398   9.128  12.251  2.2456 -0.8363  2.2735
   25ETHOX   C230969  17.353   9.307  12.126 -0.5988 -0.1280 -0.6013
   25ETHOX  H2130970  17.249   9.268  12.125 -0.3671 -0.7395 -1.0595
   25ETHOX  H2330971  17.397   9.284  12.027  0.3087 -3.3514  0.4418
   26ETHOX   O130972  17.338   9.455  12.145 -0.6175  0.1599 -0.5795
   26ETHOX   C130973  17.450   9.525  12.086  0.2972 -0.3012  0.0961
   26ETHOX  H1130974  17.528   9.531  12.164 -1.3212 -0.6394  1.8143
   26ETHOX  H1330975  17.506   9.468  12.009  0.1760 -0.7584  0.3431
   26ETHOX   C230976  17.414   9.660  12.019  0.2859  0.7249 -0.2949
   26ETHOX  H2130977  17.503   9.724  12.002  1.2845 -0.9433 -1.7009
   26ETHOX  H2330978  17.347   9.702  12.096  1.1683 -0.3415  1.1081
   27ETHOX   O130979  17.353   9.654  11.890 -0.0436  0.2096  0.3259
   27ETHOX   C130980  17.307   9.781  11.849 -0.6656 -0.8799 -0.4888
   27ETHOX  H1130981  17.399   9.843  11.849  0.6801 -2.7530  0.2949
   27ETHOX  H1330982  17.241   9.830  11.923  0.9665  0.0666  0.3998
   27ETHOX   C230983  17.254   9.793  11.702  0.1592 -0.9235 -0.4110
   27ETHOX  H2130984  17.235   9.900  11.678 -0.6248 -0.8666  0.3893
   27ETHOX  H2330985  17.161   9.732  11.700 -0.3707 -0.4422  3.1555
   28ETHOX   O130986  17.347   9.742  11.609 -0.6419  0.1528  0.1454
   28ETHOX   C130987  17.283   9.676  11.491 -0.8987 -0.0864 -0.1983
   28ETHOX  H1130988  17.215   9.599  11.533 -0.3190 -0.2252  0.4927
   28ETHOX  H1330989  17.219   9.759  11.453  0.0660  0.6450 -0.2549
   28ETHOX   C230990  17.385   9.644  11.383 -0.0529 -0.2293 -0.0246
   28ETHOX  H2130991  17.447   9.735  11.368  1.8200 -1.1753  1.4207
   28ETHOX  H2330992  17.332   9.603  11.294 -2.3350  1.3759  0.5198
   29ETHOX   O130993  17.455   9.529  11.433 -0.3061  0.0834 -0.5382
   29ETHOX   C130994  17.528   9.464  11.326  0.5827  0.4302 -0.3113
   29ETHOX  H1130995  17.572   9.546  11.265 -0.7871  0.6272 -1.0774
   29ETHOX  H1330996  17.451   9.424  11.256  0.5562 -0.3327  0.1434
   29ETHOX   C230997  17.611   9.347  11.378  0.1866 -1.2373  0.4280
   29ETHOX  H2130998  17.667   9.397  11.460 -2.2209  3.3161 -0.3960
   29ETHOX  H2330999  17.688   9.306  11.309  0.0821 -0.7528  0.0221
   30ETHOX   O131000  17.530   9.235  11.416  0.1024  0.4129 -0.4959
   30ETHOX   C131001  17.597   9.162  11.513  0.4500 -0.4904  0.0854
   30ETHOX  H1131002  17.702   9.150  11.481  1.3040  1.5693  1.8470
   30ETHOX  H1331003  17.597   9.222  11.607 -0.4578 -3.1783  1.9121
   30ETHOX   C231004  17.535   9.025  11.530 -0.5298  0.2344 -0.0608
   30ETHOX  H2131005  17.611   8.945  11.541 -1.5819 -0.5560  1.9677
   30ETHOX  H2331006  17.472   9.010  11.440  0.1158 -1.5584 -0.2629
   31ETHOX   O131007  17.451   9.023  11.642 -0.5195 -0.0922  0.0082
   31ETHOX   C131008  17.391   8.896  11.672  0.6449  0.0183  0.0007
   31ETHOX  H1131009  17.316   8.867  11.595  0.1950 -1.4884  0.9658
   31ETHOX  H1331010  17.473   8.821  11.663 -0.4319 -1.3612  1.1432
   31ETHOX   C231011  17.338   8.883  11.811 -0.1063 -0.0494 -0.2261
   31ETHOX  H2131012  17.261   8.803  11.809 -0.0932 -0.3223  3.1378
   31ETHOX  H2331013  17.289   8.977  11.844 -2.7762 -0.8412 -1.7135
   32ETHOX   O131014  17.446   8.847  11.902  0.2532 -0.4477  0.2157
   32ETHOX   C131015  17.394   8.781  12.016 -0.4136  0.7426 -0.2637
   32ETHOX  H1131016  17.362   8.867  12.080 -1.3694  1.7116 -1.9648
   32ETHOX  H1331017  17.303   8.720  12.000  0.9778 -1.6522  0.3914
   32ETHOX   C231018  17.500   8.708  12.095 -0.0743  0.0817 -0.3133
   32ETHOX  H2131019  17.451   8.673  12.188  2.0456  3.2776  2.2114
   32ETHOX  H2331020  17.585   8.773  12.125  1.8200 -1.4629 -1.9804
   33ETHOX   O131021  17.556   8.590  12.032  0.3069 -0.1045 -0.3629
   33ETHOX   C131022  17.640   8.517  12.127 -0.4092 -0.6546 -0.3321
   33ETHOX  H1131023  17.712   8.584  12.178 -0.0921 -1.0681 -0.2218
   33ETHOX  H1331024  17.586   8.462  12.207  2.5278 -0.5647  1.8754
   33ETHOX   C231025  17.725   8.409  12.054  0.0562  0.7155  0.1414
   33ETHOX  H2131026  17.656   8.341  12.001 -0.4870  1.4913 -0.1586
   33ETHOX  H2331027  17.786   8.347  12.123 -0.2726 -0.6349 -0.7479
   34ETHOX   O131028  17.816   8.473  11.957 -0.0099 -0.0400 -0.4385
   34ETHOX   C131029  17.875   8.374  11.886 -0.3106 -0.2155 -0.4953
   34ETHOX  H1131030  17.804   8.307  11.832 -1.7450 -0.4090  1.4847
   34ETHOX  H1331031  17.949   8.325  11.954  0.8313  1.1093 -0.7512
   34ETHOX   C231032  17.966   8.440  11.782 -0.5854  0.0821 -0.5828
   34ETHOX  H2131033  18.039   8.371  11.734  0.6211 -0.2306  1.5793
   34ETHOX  H2331034  18.040   8.503  11.836  1.3237 -0.9634 -1.8687
   35ETHOX   O131035  17.891   8.514  11.688  0.0663 -0.2578 -0.3198
   35ETHOX   C131036  17.969   8.593  11.608  0.2524 -0.0797 -0.6536
   35ETHOX  H1131037  17.982   8.694  11.654 -0.1882  0.6246 -2.0211
   35ETHOX  H1331038  18.064   8.547  11.575 -0.0993 -1.4016  0.1158
   35ETHOX   C231039  17.880   8.622  11.488 -0.3413 -0.3546 -0.1008
   35ETHOX  H2131040  17.926   8.706  11.431 -0.3591 -0.6632 -0.5749
   35ETHOX  H2331041  17.776   8.644  11.521 -1.4453 -1.8080 -2.3527
   36ETHOX   O131042  17.871   8.506  11.408 -0.3425 -0.6202 -0.2637
   36ETHOX   C131043  17.821   8.538  11.274 -0.1860  1.5661  0.0174
   36ETHOX  H1131044  17.902   8.525  11.199 -1.1409  2.1133 -1.1273
   36ETHOX  H1331045  17.795   8.646  11.264 -1.4990  1.2315 -0.4174
   36ETHOX   C231046  17.701   8.454  11.237  0.3130 -0.0014 -1.1232
   36ETHOX  H2131047  17.731   8.347  11.230  2.2264  0.5815 -2.9971
   36ETHOX  H2331048  17.659   8.477  11.137 -0.5563 -0.3621 -0.8585
   37ETHOX   O131049  17.603   8.477  11.341 -0.1317 -0.0644 -0.1132
   37ETHOX   C131050  17.492   8.386  11.346  0.0678 -0.5764 -0.1549
   37ETHOX  H1131051  17.428   8.438  11.422  1.1191 -1.6749  1.5514
   37ETHOX  H1331052  17.433   8.389  11.252  2.0774  1.9636 -1.4343
   37ETHOX   C231053  17.529   8.247  11.381 -0.7198  1.0210 -0.1050
   37ETHOX  H2131054  17.581   8.234  11.479  2.2993  0.3662 -1.6658
   37ETHOX  H2331055  17.607   8.205  11.313  1.1972 -0.5049  2.8098
   38ETHOX   O131056  17.408   8.168  11.387  0.4078  0.0873  0.7764
   38ETHOX   C131057  17.390   8.095  11.266 -0.3095  0.1917 -0.4747
   38ETHOX  H1131058  17.469   8.021  11.240 -0.1970  0.5857 -1.3138
   38ETHOX  H1331059  17.369   8.172  11.188 -0.7531  1.4521  0.8420
   38ETHOX   C231060  17.270   8.003  11.292 -0.1922 -0.7053 -0.6021
   38ETHOX  H2131061  17.301   7.930  11.370 -0.7230 -1.7257 -1.3238
   38ETHOX  H2331062  17.236   7.945  11.203 -1.9171  1.1696 -1.2293
   39ETHOX   O131063  17.163   8.088  11.335  0.1657 -0.2004  0.1541
   39ETHOX   C131064  17.051   7.998  11.349 -0.1629  0.1226 -0.1023
   39ETHOX  H1131065  17.034   7.956  11.247 -1.6939  2.0929 -0.7175
   39ETHOX  H1331066  17.071   7.918  11.424  1.5871 -0.1713 -0.8384
   39ETHOX   C231067  16.915   8.062  11.390 -0.3046  0.6506 -1.1122
   39ETHOX  H2131068  16.911   8.119  11.485  0.8115 -0.7634 -0.1797
   39ETHOX  H2331069  16.846   7.974  11.398 -0.8514  1.1591  0.0624
   40ETHOX   O131070  16.865   8.142  11.278  0.3743  0.1308 -0.6294
   40ETHOX   C131071  16.719   8.146  11.286  0.2457 -0.8237 -0.6586
   40ETHOX  H1131072  16.673   8.046  11.296 -1.4400  0.0895  1.7271
   40ETHOX  H1331073  16.685   8.182  11.186 -0.0253 -0.1536 -0.3375
   40ETHOX   C231074  16.662   8.240  11.406  0.2340 -0.3757  0.2862
   40ETHOX  H2131075  16.696   8.209  11.507  0.5044 -0.1968  0.2546
   40ETHOX  H2331076  16.552   8.237  11.393  0.3506  0.9790 -1.4093
   41ETHOX   O131077  16.700   8.376  11.376  0.0150  0.4629 -0.8477
   41ETHOX   C131078  16.657   8.470  11.473  0.1220 -0.1363  0.2367
   41ETHOX  H1131079  16.546   8.463  11.483 -0.2796  0.7710 -2.7451
   41ETHOX  H1331080  16.700   8.452  11.574 -0.2046  1.9350  0.7960
   41ETHOX   C231081  16.690   8.610  11.417 -0.0663  0.1580 -0.4075
   41ETHOX  H2131082  16.795   8.610  11.379 -0.0621 -0.3358 -0.3982
   41ETHOX  H2331083  16.683   8.679  11.504  3.8886  0.1088  0.1514
   42ETHOX   O131084  16.601   8.673  11.317 -0.1547 -0.1924  0.1982
   42ETHOX   C131085  16.666   8.782  11.260 -0.0243  0.6494  0.1114
   42ETHOX  H1131086  16.690   8.855  11.340  0.1800  0.3945  0.2858
   42ETHOX  H1331087  16.753   8.732  11.211 -0.8869 -2.8528  1.8270
   42ETHOX   C231088  16.575   8.844  11.147 -0.5902  0.5465 -0.5347
   42ETHOX  H2131089  16.552   8.760  11.078  2.3097 -1.0540  0.2267
   42ETHOX  H2331090  16.646   8.917  11.102  1.0542 -0.5313  0.1798
   43ETHOX   O131091  16.459   8.891  11.214 -0.0292 -0.4061  0.4814
   43ETHOX   C131092  16.478   9.022  11.265  0.1937  0.2652 -0.0723
   43ETHOX  H1131093  16.534   9.023  11.361  0.4063  0.5940 -0.1980
   43ETHOX  H1331094  16.551   9.071  11.197  0.4350  0.9366  0.6480
   43ETHOX   C231095  16.347   9.086  11.298 -0.0013 -0.1903  1.0137
   43ETHOX  H2131096  16.275   9.077  11.213 -0.1064  1.2656  0.9195
   43ETHOX  H2331097  16.359   9.195  11.317  0.1959  0.1780 -1.0033
   44ETHOX   O131098  16.285   9.015  11.408 -0.2695 -0.0001  0.0279
   44ETHOX   C131099  16.168   9.072  11.442 -0.3127  0.4800  0.2366
   44ETHOX  H1131100  16.187   9.168  11.496 -0.6790  0.3633  0.5784
   44ETHOX  H1331101  16.102   9.071  11.353  2.7777 -1.3571 -2.2186
   44ETHOX   C231102  16.090   8.994  11.554  0.3892 -0.0683 -0.6639
   44ETHOX  H2131103  16.081   8.889  11.519  0.1755 -0.0261 -0.7401
   44ETHOX  H2331104  15.991   9.044  11.563  1.8259  2.5771  2.8540
   45ETHOX   O131105  16.151   9.005  11.682  0.7148 -0.1432 -0.2554
   45ETHOX   C131106  16.122   8.895  11.762 -1.2383 -0.6834  0.2539
   45ETHOX  H1131107  16.157   8.800  11.716 -0.9348 -1.8439  2.6670
   45ETHOX  H1331108  16.016   8.876  11.789 -0.7074 -0.7871  2.4469
   45ETHOX   C231109  16.209   8.905  11.890 -0.1319 -0.4227 -0.2423
   45ETHOX  H2131110  16.317   8.919  11.866  0.0653 -0.7007  0.4554
   45ETHOX  H2331111  16.201   8.812  11.950 -2.0059  0.2476  0.6267
   46ETHOX   O131112  16.148   9.003  11.982  0.9280 -0.4422 -0.0991
   46ETHOX   C131113  16.217   8.999  12.101  0.1649 -0.9490  0.2233
   46ETHOX  H1131114  16.230   8.894  12.136  0.7883  0.3139  4.2654
   46ETHOX  H1331115  16.319   9.041  12.088  1.4771 -3.6890  0.9119
   46ETHOX   C231116  16.145   9.076  12.207  0.3729 -0.0629  0.5798
   46ETHOX  H2131117  16.138   9.181  12.170  0.8586 -1.0067 -2.4636
   46ETHOX  H2331118  16.202   9.072  12.302  0.0133 -2.8857  0.7502
   47ETHOX   O131119  16.017   9.017  12.227 -0.0805  0.0113 -0.0263
   47ETHOX   C131120  15.923   9.088  12.306  0.2452  0.2705 -0.4023
   47ETHOX  H1131121  15.908   9.181  12.247  4.9976  1.4752 -0.1216
   47ETHOX  H1331122  15.980   9.126  12.394  1.2184  1.3720 -1.4760
   47ETHOX   C231123  15.788   9.019  12.348 -0.3105 -0.0906  0.2252
   47ETHOX  H2131124  15.738   9.092  12.415  0.6859  0.3931  0.4634
   47ETHOX  H2331125  15.809   8.924  12.402  1.6504 -0.6945 -1.4676
   48ETHOX   O131126  15.714   8.997  12.230 -0.3258  0.3036  0.1178
   48ETHOX   C131127  15.580   8.959  12.256  0.0791  0.0924  0.4686
   48ETHOX  H1131128  15.578   8.854  12.294 -0.6998  0.4321  1.3817
   48ETHOX  H1331129  15.537   9.025  12.334  1.4448  0.9054  0.5610
   48ETHOX   C231130  15.495   8.940  12.128 -0.0125 -0.5254  0.5115
   48ETHOX  H2131131  15.550   8.873  12.059  2.2266  0.2044  1.4984
   48ETHOX  H2331132  15.396   8.889  12.137 -0.5639  0.5142  0.4870
   49ETHOX   O131133  15.464   9.065  12.065  0.3263  0.2199 -0.4227
   49ETHOX   C131134  15.406   9.040  11.934  0.4995  0.3591 -0.2100
   49ETHOX  H1131135  15.302   9.079  11.946  1.0098  1.2406  1.6403
   49ETHOX  H1331136  15.403   8.931  11.912 -0.3924  0.2289  0.4558
   49ETHOX   C231137  15.484   9.123  11.828  0.5007  0.1847  0.1440
   49ETHOX  H2131138  15.453   9.076  11.733 -3.4610  1.4165  0.6356
   49ETHOX  H2331139  15.594   9.112  11.839  0.1833 -1.9082  1.9229
   50ETHOX   O131140  15.437   9.260  11.824  0.5426  0.5332 -0.1450
   50ETHOX   C131141  15.499   9.333  11.723 -1.0725 -0.1541 -0.2809
   50ETHOX  H1131142  15.523   9.432  11.767 -0.4366 -0.3735 -0.1191
   50ETHOX  H1331143  15.596   9.285  11.698 -0.5842  0.7811 -0.2456
   50ETHOX   C231144  15.415   9.345  11.595  0.1746  0.0508 -0.4625
   50ETHOX  H2131145  15.456   9.429  11.535 -1.6299  0.4260 -1.2475
   50ETHOX  H2331146  15.309   9.372  11.617 -0.2099 -0.7318 -1.2997
   51ETHOX   O131147  15.416   9.226  11.515 -0.7828  0.4601 -0.4191
   51ETHOX   C131148  15.311   9.203  11.423 -0.0753  0.5852  0.3055
   51ETHOX  H1131149  15.301   9.290  11.354  1.3972  2.0817  1.8747
   51ETHOX  H1331150  15.220   9.191  11.485 -1.4139  0.4726 -1.6059
   51ETHOX   C231151  15.339   9.072  11.351  0.0861  0.3452  0.4317
   51ETHOX  H2131152  15.253   9.045  11.286 -0.6785  0.3942  1.3934
   51ETHOX  H2331153  15.365   8.997  11.428  2.0205  0.9761  0.4631
   52ETHOX   O131154  15.459   9.083  11.270  0.0696 -0.0297 -0.0978
   52ETHOX   C131155  15.483   8.963  11.198  0.2121  0.0715  0.5735
   52ETHOX  H1131156  15.531   8.895  11.271 -0.5818 -1.3828 -0.2087
   52ETHOX  H1331157  15.389   8.929  11.150  0.0666  1.2118  0.0193
   52ETHOX   C231158  15.577   8.973  11.080  0.2422  0.2224  0.2359
   52ETHOX  H2131159  15.565   9.076  11.041 -0.0794 -0.2866 -1.0576
   52ETHOX  H2331160  15.545   8.895  11.008 -1.2581 -0.0419  1.1447
   53ETHOX   O131161  15.706   8.946  11.122 -0.3723 -0.0126 -0.3505
   53ETHOX   C131162  15.804   9.015  11.049  0.1640 -0.7468  0.1031
   53ETHOX  H1131163  15.775   9.003  10.942  0.2042  0.2007 -0.0234
   53ETHOX  H1331164  15.792   9.124  11.066 -2.9305 -1.3132  2.6030
   53ETHOX   C231165  15.943   8.965  11.088  0.2484  0.3847  0.0146
   53ETHOX  H2131166  15.951   8.956  11.198  1.3239 -3.1409 -0.2221
   53ETHOX  H2331167  16.027   9.028  11.051  1.0144  0.2799  1.4998
   54ETHOX   O131168  15.961   8.831  11.041 -0.0026  0.2428 -0.0724
   54ETHOX   C131169  16.099   8.789  11.064  0.3309  0.4181 -0.5291
   54ETHOX  H1131170  16.165   8.866  11.018  0.5718  0.6900  0.2549
   54ETHOX  H1331171  16.114   8.783  11.174  0.0995 -1.0303 -0.5681
   54ETHOX   C231172  16.133   8.653  11.000  0.1796 -0.3160  0.6190
   54ETHOX  H2131173  16.242   8.639  10.982  0.1138  2.4229 -3.0640
   54ETHOX  H2331174  16.083   8.641  10.902  0.5485  3.5171 -0.1852
   55ETHOX   O131175  16.087   8.561  11.098  0.7205 -0.5163 -0.5437
   55ETHOX   C131176  16.106   8.423  11.049 -0.7813 -0.2004 -0.0563
   55ETHOX  H1131177  16.188   8.425  10.974 -1.1499  0.3462 -0.4493
   55ETHOX  H1331178  16.133   8.355  11.132 -2.7618 -1.5091 -0.4160
   55ETHOX   C231179  15.966   8.374  10.994  0.0736  0.1511 -0.5378
   55ETHOX  H2131180  15.898   8.367  11.082 -0.4283 -0.5240 -0.9643
   55ETHOX  H2331181  15.916   8.441  10.922 -0.6999  0.0979 -0.0663
   56ETHOX   O131182  15.968   8.237  10.941 -0.3110  0.7859  0.5822
   56ETHOX   C131183  15.835   8.189  10.920 -0.0702  0.2818 -0.2701
   56ETHOX  H1131184  15.791   8.270  10.859  0.2393 -1.2912 -2.7257
   56ETHOX  H1331185  15.774   8.184  11.013  0.4167  0.3409  0.0574
   56ETHOX   C231186  15.844   8.048  10.849 -0.4361 -0.9777 -0.0897
   56ETHOX  H2131187  15.916   8.064  10.765 -1.0592  1.6079 -0.2013
   56ETHOX  H2331188  15.745   8.010  10.815 -0.4496 -0.9892 -0.0362
   57ETHOX   O131189  15.896   7.962  10.942  0.2120  0.3104  0.2663
   57ETHOX   C131190  15.935   7.834  10.887 -0.2356 -0.2067  0.3079
   57ETHOX  H1131191  15.917   7.753  10.961 -1.6225  0.5419  0.8193
   57ETHOX  H1331192  15.869   7.807  10.802 -2.2820 -0.3508  1.8808
   57ETHOX   C231193  16.083   7.828  10.846 -0.3770  0.0859 -0.0062
   57ETHOX  H2131194  16.105   7.917  10.784  1.0780 -1.5946 -2.0563
   57ETHOX  H2331195  16.130   7.737  10.804 -0.9795 -0.5016  0.5516
   58ETHOX   O131196  16.169   7.836  10.959 -0.1113 -0.0222 -0.4665
   58ETHOX   C131197  16.309   7.857  10.930  0.5049  0.6462 -0.3322
   58ETHOX  H1131198  16.321   7.955  10.879 -1.8439  0.8145 -0.7145
   58ETHOX  H1331199  16.342   7.771  10.868  1.2017 -1.0713  2.3024
   58ETHOX   C231200  16.390   7.839  11.060  0.5382 -0.0481  0.3124
   58ETHOX  H2131201  16.353   7.893  11.150  0.5111  1.5118 -0.5995
   58ETHOX  H2331202  16.490   7.884  11.043  0.1624  0.1746 -1.4858
   59ETHOX   O131203  16.422   7.698  11.078  0.0576 -0.3550 -0.8249
   59ETHOX   C131204  16.532   7.672  11.166 -0.2343 -0.2353  0.2489
   59ETHOX  H1131205  16.624   7.727  11.138 -1.5711  1.7668 -0.3938
   59ETHOX  H1331206  16.509   7.704  11.269  0.7556 -2.4481  1.2166
   59ETHOX   C231207  16.544   7.525  11.172 -0.6399 -0.0106 -0.0257
   59ETHOX  H2131208  16.443   7.480  11.164 -1.0379  0.8380  0.1228
   59ETHOX  H2331209  16.587   7.514  11.274  0.7217  2.3109 -0.2627
   60ETHOX   O131210  16.640   7.473  11.081  0.0377  0.4775  0.1556
   60ETHOX   C131211  16.634   7.331  11.087  0.2409 -0.3095 -0.0735
   60ETHOX  H1131212  16.527   7.302  11.091  0.0887  0.2705  3.4937
   60ETHOX  H1331213  16.671   7.310  11.190 -1.3961  0.9576  0.8247
   60ETHOX   C231214  16.711   7.275  10.972 -0.0800  0.2161  0.0076
   60ETHOX  H2131215  16.701   7.164  10.962 -0.4098  0.2587 -0.1618
   60ETHOX  H2331216  16.819   7.290  10.994  0.5223 -1.8847 -1.2097
   61ETHOX   O131217  16.676   7.328  10.851 -0.5899  0.0706 -0.8528
   61ETHOX   C131218  16.747   7.268  10.739  0.0382 -0.1585 -0.8120
   61ETHOX  H1131219  16.850   7.308  10.746  0.0012 -0.3230  1.3766
   61ETHOX  H1331220  16.745   7.157  10.746 -1.1955 -0.0814  0.5922
   61ETHOX   C231221  16.684   7.309  10.604 -0.2188  0.5698 -0.2739
   61ETHOX  H2131222  16.756   7.299  10.520 -1.2994  0.7765 -1.2448
   61ETHOX  H2331223  16.661   7.417  10.613  2.9879  1.2204  1.9666
   62ETHOX   O131224  16.561   7.236  10.587 -0.1189  0.2029  0.4793
   62ETHOX   C131225  16.581   7.128  10.497  1.0356 -0.4734  0.2405
   62ETHOX  H1131226  16.674   7.074  10.527  0.8810  1.0860  4.1755
   62ETHOX  H1331227  16.607   7.181  10.403 -2.1010  0.5648 -0.1701
   62ETHOX   C231228  16.453   7.044  10.490 -1.0054  0.5761 -0.0912
   62ETHOX  H2131229  16.416   7.028  10.593  0.4679 -1.0758  0.2374
   62ETHOX  H2331230  16.487   6.942  10.461 -1.6782  0.8468 -1.9174
   63ETHOX   O131231  16.354   7.089  10.402 -0.0097 -0.4290 -0.3747
   63ETHOX   C131232  16.283   7.201  10.448 -0.2258 -0.4946 -0.0396
   63ETHOX  H1131233  16.228   7.177  10.542 -0.3622  2.0153  0.5958
   63ETHOX  H1331234  16.341   7.295  10.459  0.4720 -1.1233  2.3478
   63ETHOX   C231235  16.183   7.246  10.337 -0.0579 -0.5910  0.0722
   63ETHOX  H2131236  16.240   7.298  10.257 -0.7054  1.1533  0.6915
   63ETHOX  H2331237  16.114   7.324  10.376  2.0653  0.4400  1.9393
   64ETHOX   O131238  16.102   7.148  10.287  0.0185 -0.5896 -0.1071
   64ETHOX   C131239  15.974   7.190  10.239 -0.3686 -0.1932 -0.3716
   64ETHOX  H1131240  15.978   7.232  10.136  1.0778  0.1094 -0.2129
   64ETHOX  H1331241  15.922   7.253  10.314 -1.6497 -0.6124 -0.8832
   64ETHOX   C231242  15.879   7.073  10.216 -0.3621  0.7097 -0.0619
   64ETHOX  H2131243  15.776   7.102  10.184 -1.2656 -1.9496  0.2306
   64ETHOX  H2331244  15.875   7.025  10.316 -1.0557 -1.2950 -1.0051
   65ETHOX   O131245  15.945   6.975  10.134  0.4502 -0.3956 -0.2505
   65ETHOX   C131246  15.853   6.887  10.071  0.7353  0.2728 -0.1168
   65ETHOX  H1131247  15.755   6.937  10.054 -0.1857 -0.9884  1.2516
   65ETHOX  H1331248  15.902   6.852   9.978 -0.1219 -3.1242  0.5852
   65ETHOX   C231249  15.838   6.757  10.152 -0.5883 -0.0643  0.8163
   65ETHOX  H2131250  15.939   6.723  10.183 -0.2769  0.4750  0.4164
   65ETHOX  H2331251  15.804   6.677  10.083  1.3132  0.6877 -1.0973
   66ETHOX   O131252  15.737   6.774  10.255  0.1537 -0.4031 -0.1069
   66ETHOX   C131253  15.802   6.752  10.382 -0.2817  0.1758 -0.1735
   66ETHOX  H1131254  15.740   6.797  10.463  1.1999  2.9365 -0.4391
   66ETHOX  H1331255  15.890   6.820  10.386 -0.0602 -0.1427  3.1548
   66ETHOX   C231256  15.850   6.612  10.414  0.1124  0.5785  0.2052
   66ETHOX  H2131257  15.924   6.613  10.496  0.6184  1.9902 -0.2335
   66ETHOX  H2331258  15.909   6.586  10.323  2.0672  4.9593 -0.0313
   67ETHOX   O131259  15.747   6.522  10.440  0.1671  0.1129 -0.5926
   67ETHOX   C131260  15.794   6.398  10.472 -0.1739  0.5737  0.4494
   67ETHOX  H1131261  15.847   6.364  10.380 -0.4741  2.3987 -0.4473
   67ETHOX  H1331262  15.868   6.404  10.554 -0.4669 -0.6752  0.8360
   67ETHOX   C231263  15.685   6.291  10.504 -0.0567 -0.1331  0.8511
   67ETHOX  H2131264  15.728   6.192  10.480 -0.6678 -0.7370  2.1419
   67ETHOX  H2331265  15.593   6.298  10.442  1.2524  0.4149 -1.1233
   68ETHOX   O131266  15.644   6.308  10.634 -0.3148  0.6671 -0.0035
   68ETHOX   C131267  15.538   6.220  10.662 -0.5207 -0.4471 -0.4490
   68ETHOX  H1131268  15.457   6.261  10.597  0.4098 -1.7057 -2.5218
   68ETHOX  H1331269  15.561   6.115  10.631  0.2327 -1.1406  2.2164
   68ETHOX   C231270  15.507   6.225  10.810 -0.4189 -0.1658 -0.2156
   68ETHOX  H2131271  15.591   6.172  10.860  2.1928  1.4029 -2.6754
   68ETHOX  H2331272  15.414   6.167  10.830 -0.5547  0.7692  2.1839
   69ETHOX   O131273  15.486   6.355  10.873  0.0931  0.1257  0.5637
   69ETHOX   C131274  15.521   6.365  11.009 -0.0277  0.3892 -0.4321
   69ETHOX  H1131275  15.626   6.335  11.030  1.6784  4.6949 -1.6656
   69ETHOX  H1331276  15.503   6.464  11.056  3.5648  0.9814 -0.0075
   69ETHOX   C231277  15.422   6.269  11.089  0.0763  0.9342  0.3988
   69ETHOX  H2131278  15.330   6.272  11.026  0.7395  0.3216 -0.6333
   69ETHOX  H2331279  15.394   6.307  11.190  1.5485 -0.6878  1.4840
   70ETHOX   O131280  15.478   6.135  11.088  0.1289 -0.0102 -0.0472
   70ETHOX   C131281  15.392   6.035  11.147  0.6333 -0.4648  0.1014
   70ETHOX  H1131282  15.389   6.060  11.256 -0.2026 -3.4466  0.8375
   70ETHOX  H1331283  15.304   6.034  11.079  2.3179  0.5121 -2.2273
   70ETHOX   C231284  15.466   5.899  11.142 -0.3359  0.0127  0.2590
   70ETHOX  H2131285  15.425   5.824  11.213  0.9624  0.3923  1.4643
   70ETHOX  H2331286  15.571   5.911  11.178 -0.2269  0.8126 -0.2999
   71ETHOX   O131287  15.470   5.847  11.011  0.0010 -0.3198  0.2616
   71ETHOX   C131288  15.547   5.720  11.007  0.0934  0.2311 -0.3231
   71ETHOX  H1131289  15.498   5.653  11.081 -1.0085  0.3727 -0.8873
   71ETHOX  H1331290  15.649   5.734  11.046 -0.9171 -1.6800  3.4811
   71ETHOX   C231291  15.555   5.661  10.869  0.3615  0.2642  0.2312
   71ETHOX  H2131292  15.457   5.612  10.848  0.6252  0.2609 -1.0452
   71ETHOX  H2331293  15.614   5.567  10.871 -1.9795 -1.2984  1.6810
   72ETHOX   O131294  15.606   5.742  10.762 -0.0997 -0.7580  0.1949
   72ETHOX   C131295  15.738   5.774  10.777  0.5607  0.3026  0.6841
   72ETHOX  H1131296  15.735   5.846  10.862 -0.3322  1.6480 -0.4528
   72ETHOX  H1331297  15.796   5.685  10.810  1.7940  0.7948 -0.1049
   72ETHOX   C231298  15.797   5.861  10.666 -0.1957  0.0434  0.1560
   72ETHOX  H2131299  15.857   5.949  10.697  0.1231 -1.1421  3.1870
   72ETHOX  H2331300  15.708   5.890  10.605 -0.6009 -0.4108  0.5265
   73ETHOX   O131301  15.878   5.779  10.582 -0.2793 -0.4785  0.3842
   73ETHOX   C131302  16.002   5.754  10.627 -0.5506 -0.5713 -0.7651
   73ETHOX  H1131303  15.991   5.702  10.725 -0.0437  1.1186  0.2188
   73ETHOX  H1331304  16.052   5.853  10.630 -0.3846 -0.5586 -2.5528
   73ETHOX   C231305  16.082   5.664  10.533 -0.4411  0.5229  0.2116
   73ETHOX  H2131306  16.190   5.664  10.562  0.5507 -3.5512 -2.6859
   73ETHOX  H2331307  16.088   5.713  10.433 -1.2066  2.7787  1.1976
   74ETHOX   O131308  16.044   5.525  10.513  1.0890  0.4012 -0.3604
   74ETHOX   C131309  16.141   5.456  10.457 -0.0198 -0.2625 -0.5436
   74ETHOX  H1131310  16.188   5.516  10.377  0.2889  0.9296  0.4963
   74ETHOX  H1331311  16.224   5.440  10.530 -0.6209  1.8423  0.6758
   74ETHOX   C231312  16.103   5.321  10.392  0.2992  0.0529  1.0326
   74ETHOX  H2131313  16.077   5.255  10.478 -3.6279  1.8106  1.4292
   74ETHOX  H2331314  16.187   5.286  10.329 -1.0312  1.1423 -1.5018
   75ETHOX   O131315  15.987   5.343  10.307 -0.8162 -0.3301  0.2276
   75ETHOX   C131316  16.015   5.425  10.196  0.2113  0.8443 -0.0652
   75ETHOX  H1131317  16.115   5.403  10.154 -0.1630  0.1111 -0.5946
   75ETHOX  H1331318  16.019   5.533  10.224  1.9478  0.6881  0.4330
   75ETHOX   C231319  15.907   5.389  10.087 -0.3063  0.0950  0.6033
   75ETHOX  H2131320  15.813   5.445  10.109 -1.1702 -1.1270  0.1557
   75ETHOX  H2331321  15.871   5.284  10.093 -0.8118  0.2514  0.4325
   76ETHOX   O131322  15.946   5.411   9.959 -0.4572 -0.3223  0.4294
   76ETHOX   C131323  16.016   5.304   9.909 -0.8997  0.0286 -0.1208
   76ETHOX  H1131324  16.108   5.278   9.967  0.2620  0.3168 -1.7581
   76ETHOX  H1331325  15.953   5.213   9.912 -0.3809 -0.3214  1.9110
   76ETHOX   C231326  16.070   5.338   9.770  0.2970  0.3853  0.1769
   76ETHOX  H2131327  15.984   5.376   9.711 -0.5848  0.6982  1.6109
   76ETHOX  H2331328  16.098   5.242   9.722 -1.7245 -1.1712  1.9430
   77ETHOX   O131329  16.175   5.427   9.758 -1.0015 -0.1953 -0.2161
   77ETHOX   C131330  16.227   5.451   9.628 -0.6081 -0.3098  0.0171
   77ETHOX  H1131331  16.149   5.480   9.555 -0.7483 -0.7327 -0.0044
   77ETHOX  H1331332  16.289   5.363   9.598 -0.0249 -0.3063  1.1498
   77ETHOX   C231333  16.312   5.576   9.648 -0.1647 -0.8480 -0.6270
   77ETHOX  H2131334  16.359   5.606   9.552 -0.0090 -2.9814 -1.2639
   77ETHOX  H2331335  16.396   5.568   9.721  0.1914  2.4685 -0.5403
   78ETHOX   O131336  16.240   5.688   9.693  0.1049  0.0670 -0.0517
   78ETHOX   C131337  16.323   5.805   9.706  0.2531  0.0587  0.4017
   78ETHOX  H1131338  16.426   5.789   9.744  0.3261  0.7743  0.5192
   78ETHOX  H1331339  16.332   5.855   9.607  0.1116  0.2929  0.5066
   78ETHOX   C231340  16.256   5.903   9.798 -0.5467  0.1670  0.2977
   78ETHOX  H2131341  16.244   5.859   9.899 -1.8163 -0.4073 -0.0920
   78ETHOX  H2331342  16.152   5.934   9.775 -1.1296 -1.2925  0.8457
   79ETHOX   O131343  16.355   6.002   9.803 -0.6691  0.0750  1.0881
   79ETHOX   C131344  16.322   6.090   9.913  0.4274 -0.8145  0.4871
   79ETHOX  H1131345  16.224   6.139   9.893  0.6296 -0.1130  1.1704
   79ETHOX  H1331346  16.314   6.038  10.011  1.0220 -0.6948  0.6003
   79ETHOX   C231347  16.430   6.196   9.937 -0.1222  0.5717  0.2502
   79ETHOX  H2131348  16.389   6.296   9.967  1.4723  1.0012  1.0860
   79ETHOX  H2331349  16.485   6.217   9.843 -1.9243  0.5704 -0.8570
   80ETHOX   O131350  16.512   6.152  10.042  0.1957 -0.1445  0.0925
   80ETHOX   C131351  16.618   6.241  10.057 -0.2974  1.0563 -0.0072
   80ETHOX  H1131352  16.698   6.198  10.121  1.2608  1.8745 -1.3028
   80ETHOX  H1331353  16.662   6.266   9.958  0.3617 -1.7098 -0.4895
   80ETHOX   C231354  16.593   6.376  10.130 -0.7280 -0.3493 -0.3476
   80ETHOX  H2131355  16.698   6.385  10.165  0.1376 -1.0593 -2.5656
   80ETHOX  H2331356  16.514   6.372  10.208  0.1620  2.2754  0.8063
   81ETHOX   O131357  16.563   6.488  10.052  0.6580 -0.1980  0.3806
   81ETHOX   C131358  16.591   6.610  10.126 -0.2168 -0.6170 -0.0884
   81ETHOX  H1131359  16.521   6.615  10.212 -1.5277 -0.6059 -1.1208
   81ETHOX  H1331360  16.694   6.599  10.166 -0.3138 -1.3240 -0.0270
   81ETHOX   C231361  16.576   6.739  10.031  0.3186  0.9696  0.6197
   81ETHOX  H2131362  16.634   6.824  10.074 -1.7903  2.9897 -0.2835
   81ETHOX  H2331363  16.627   6.716   9.936 -0.5925  1.4817 -0.0173
   82ETHOX   O131364  16.442   6.774   9.995 -0.6160 -0.3795  0.3395
   82ETHOX   C131365  16.404   6.890  10.075  0.3457 -0.2714  0.0916
   82ETHOX  H1131366  16.474   6.975  10.064 -0.0508  0.0640  0.1395
   82ETHOX  H1331367  16.419   6.876  10.184 -0.4759  1.4011  0.4509
   82ETHOX   C231368  16.263   6.939  10.030  0.4913 -0.8191 -0.2924
   82ETHOX  H2131369  16.242   7.025  10.096  1.9147  0.3951 -1.3609
   82ETHOX  H2331370  16.191   6.856  10.043 -0.4097 -0.5266 -2.8444
   83ETHOX   O131371  16.260   6.989   9.895  0.5916 -0.8202  1.0471
   83ETHOX   C131372  16.129   7.023   9.849 -0.9547  0.1002 -0.3181
   83ETHOX  H1131373  16.069   6.930   9.852  1.6179 -1.8465 -2.8571
   83ETHOX  H1331374  16.091   7.095   9.923  3.0752  0.1152  2.0406
   83ETHOX   C231375  16.123   7.082   9.706 -0.3497 -0.2975 -0.0429
   83ETHOX  H2131376  16.020   7.079   9.664 -0.7440  1.7452  0.6737
   83ETHOX  H2331377  16.186   7.020   9.639  1.5016 -0.9284  2.1434
   84ETHOX   O131378  16.167   7.218   9.700 -0.1546 -0.0995 -0.5097
   84ETHOX   C131379  16.232   7.256   9.581 -0.7664 -0.2538 -0.4325
   84ETHOX  H1131380  16.159   7.263   9.498 -0.3868  0.4376 -0.7162
   84ETHOX  H1331381  16.308   7.179   9.557  0.5089 -0.2529  2.9474
   84ETHOX   C231382  16.317   7.380   9.608  0.1734  0.0053 -0.8974
   84ETHOX  H2131383  16.393   7.388   9.526  0.8497 -0.9344 -0.3706
   84ETHOX  H2331384  16.367   7.366   9.706 -2.5793  1.2770  0.7829
   85ETHOX   O131385  16.246   7.501   9.607 -0.6684 -0.0161 -0.2472
   85ETHOX   C131386  16.311   7.605   9.683 -0.3746 -0.5784  0.1779
   85ETHOX  H1131387  16.288   7.585   9.790  2.3918 -0.9557  0.7666
   85ETHOX  H1331388  16.420   7.617   9.670 -0.1392 -1.6450  1.0126
   85ETHOX   C231389  16.251   7.742   9.634  0.3108 -0.3646  0.0460
   85ETHOX  H2131390  16.265   7.818   9.714 -0.4385 -0.4405  0.2569
   85ETHOX  H2331391  16.141   7.730   9.623  0.2755  0.4247 -0.4983
   86ETHOX   O131392  16.309   7.777   9.508 -0.4016 -0.1246  0.0256
   86ETHOX   C131393  16.249   7.891   9.460  0.2904  0.0822 -0.4097
   86ETHOX  H1131394  16.223   7.972   9.532 -2.5033 -0.7551 -0.3493
   86ETHOX  H1331395  16.154   7.865   9.407  0.0745  0.5852 -0.2820
   86ETHOX   C231396  16.333   7.966   9.352  0.5395  0.9976  0.5210
   86ETHOX  H2131397  16.427   8.008   9.392 -0.7960  3.6489  1.0997
   86ETHOX  H2331398  16.282   8.061   9.326  1.3766  1.6570  1.2278
   87ETHOX   O131399  16.352   7.886   9.230  0.7973  0.1395 -0.2767
   87ETHOX   C131400  16.234   7.855   9.152  0.5526  0.1487  0.8022
   87ETHOX  H1131401  16.259   7.777   9.077 -0.8309 -1.6912  2.1573
   87ETHOX  H1331402  16.158   7.805   9.215  1.6992 -0.2296  1.9311
   87ETHOX   C231403  16.171   7.973   9.069  0.0107  0.5155 -0.6114
   87ETHOX  H2131404  16.093   7.918   9.012 -0.1623 -0.7998  0.8350
   87ETHOX  H2331405  16.245   8.019   9.000 -0.3826  1.4115 -0.4497
   88ETHOX   O131406  16.098   8.071   9.149 -0.4402  0.1024 -0.2939
   88ETHOX   C131407  16.049   8.170   9.058 -0.2675 -0.1162  0.3885
   88ETHOX  H1131408  16.121   8.182   8.975  1.9198 -2.0265  1.8824
   88ETHOX  H1331409  16.053   8.269   9.109  1.1349 -0.5779  1.2118
   88ETHOX   C231410  15.899   8.158   9.012 -0.8694  0.1699  0.0910
   88ETHOX  H2131411  15.887   8.058   8.964  0.0731  0.5266 -0.9509
   88ETHOX  H2331412  15.876   8.236   8.937  0.3991 -0.9122 -1.5096
   89ETHOX   O131413  15.802   8.178   9.110 -0.6594 -0.1198 -0.2006
   89ETHOX   C131414  15.670   8.175   9.060  0.3565 -0.2874 -0.1417
   89ETHOX  H1131415  15.644   8.273   9.014  0.4793  0.4246  1.2294
   89ETHOX  H1331416  15.645   8.098   8.984  2.6387 -0.7211 -0.5017
   89ETHOX   C231417  15.573   8.179   9.186 -0.3530  0.6193  0.4900
   89ETHOX  H2131418  15.539   8.284   9.200  0.3220  0.7839  0.9750
   89ETHOX  H2331419  15.617   8.136   9.279  1.5719  0.5522 -0.3981
   90ETHOX   O131420  15.455   8.104   9.155  0.2989  0.2350 -0.3130
   90ETHOX   C131421  15.375   8.084   9.276 -0.0584 -0.2880  0.0241
   90ETHOX  H1131422  15.445   8.028   9.341  1.6253  1.0185 -0.5831
   90ETHOX  H1331423  15.354   8.182   9.323 -0.6975  0.4761 -1.7738
   90ETHOX   C231424  15.244   8.004   9.247 -0.0474 -1.1185  0.1170
   90ETHOX  H2131425  15.208   7.950   9.337 -0.8084 -2.1233 -0.7699
   90ETHOX  H2331426  15.269   7.933   9.165  3.2226  0.1288 -0.1469
   91ETHOX   O131427  15.149   8.096   9.205 -0.1013 -0.4667  0.4776
   91ETHOX   C131428  15.030   8.029   9.174 -0.0828  0.0330  0.4619
   91ETHOX  H1131429  15.056   7.933   9.126 -0.8224  0.0082  0.1031
   91ETHOX  H1331430  14.973   7.991   9.261 -2.5942 -0.6055 -1.3691
   91ETHOX   C231431  14.940   8.125   9.091 -0.6823  0.4245 -0.3124
   91ETHOX  H2131432  14.937   8.224   9.142  1.0744  0.5342 -0.3480
   91ETHOX  H2331433  14.836   8.087   9.081 -1.7744  2.9485  0.6117
   92ETHOX   O131434  14.994   8.133   8.960  0.1863  0.1968  0.0982
   92ETHOX   C131435  14.932   8.234   8.884  0.2973 -0.0359 -0.1372
   92ETHOX  H1131436  14.833   8.262   8.926  0.8187 -0.4998  1.5002
   92ETHOX  H1331437  15.005   8.317   8.897  3.3637 -2.2187 -2.0694
   92ETHOX   C231438  14.926   8.199   8.740 -0.2204 -0.3013 -0.1953
   92ETHOX  H2131439  15.032   8.188   8.712 -0.4534 -0.2307 -1.1468
   92ETHOX  H2331440  14.881   8.275   8.672 -1.2222  0.0148  0.7867
   93ETHOX   O131441  14.851   8.078   8.724  0.1239 -0.6620  0.4054
   93ETHOX   C131442  14.815   8.059   8.591 -0.3046 -0.5653  0.4078
   93ETHOX  H1131443  14.910   8.064   8.532 -1.1205 -2.0167 -1.1476
   93ETHOX  H1331444  14.748   8.138   8.551 -1.5223 -1.5626  0.4358
   93ETHOX   C231445  14.741   7.927   8.578  0.0298 -0.6640  0.3404
   93ETHOX  H2131446  14.797   7.845   8.627  2.0227  0.5825  0.2525
   93ETHOX  H2331447  14.735   7.918   8.467 -0.4684 -0.8801  0.3807
   94ETHOX   O131448  14.596   7.936   8.606  0.2195 -0.0520 -0.2716
   94ETHOX   C131449  14.580   7.928   8.747  0.4823 -0.1084 -0.1377
   94ETHOX  H1131450  14.621   7.833   8.787 -0.8964 -0.7355 -0.1390
   94ETHOX  H1331451  14.626   8.021   8.786 -0.8899 -0.1787  1.8510
   94ETHOX   C231452  14.428   7.933   8.779 -0.0777  0.2051  0.5546
   94ETHOX  H2131453  14.410   7.916   8.888 -2.3514 -0.3967  0.1364
   94ETHOX  H2331454  14.379   7.857   8.715  1.4389  1.1179 -1.7939
   95ETHOX   O131455  14.364   8.061   8.744 -0.0065 -0.2163  0.5521
   95ETHOX   C131456  14.226   8.047   8.714  0.3719 -0.2276  0.1665
   95ETHOX  H1131457  14.178   8.011   8.807 -1.9266  1.1036 -0.4472
   95ETHOX  H1331458  14.215   7.973   8.632 -0.1478 -1.0440  0.9567
   95ETHOX   C231459  14.153   8.175   8.677 -0.5961 -0.2079 -0.3888
   95ETHOX  H2131460  14.161   8.250   8.758  0.2863 -0.3504 -0.3257
   95ETHOX  H2331461  14.044   8.153   8.672 -0.6505  0.1120 -0.6575
   96ETHOX   O131462  14.196   8.217   8.546  0.2449  0.7095 -0.4294
   96ETHOX   C131463  14.100   8.307   8.496 -0.1037  0.6065 -0.1839
   96ETHOX  H1131464  14.020   8.251   8.443  1.5252 -0.0398 -2.0930
   96ETHOX  H1331465  14.053   8.363   8.579  1.3428 -1.4743  2.2087
   96ETHOX   C231466  14.169   8.402   8.397  0.0803  0.3687  0.6153
   96ETHOX  H2131467  14.106   8.443   8.315  0.7704 -1.5971 -0.9921
   96ETHOX  H2331468  14.247   8.341   8.346  0.6754  2.1579 -0.7455
   97ETHOX   O131469  14.234   8.506   8.470  0.3762  0.0122 -0.3274
   97ETHOX   C131470  14.303   8.591   8.381  0.5367  0.3951 -0.1474
   97ETHOX  H1131471  14.230   8.650   8.322 -0.5059 -0.4899  0.2218
   97ETHOX  H1331472  14.354   8.529   8.304  0.0622 -1.1005  0.7076
   97ETHOX   C231473  14.409   8.682   8.445 -0.8283  0.6301  0.1413
   97ETHOX  H2131474  14.487   8.707   8.370 -0.6716 -0.4570 -0.0788
   97ETHOX  H2331475  14.448   8.627   8.533 -1.7927  1.4502  1.1111
   98ETHOX   O131476  14.352   8.806   8.481 -0.0395 -0.0368 -0.5401
   98ETHOX   C131477  14.443   8.885   8.556 -0.3027 -0.6383  0.6933
   98ETHOX  H1131478  14.485   8.833   8.645  2.7816  0.4247 -0.0316
   98ETHOX  H1331479  14.525   8.904   8.483 -1.6876 -1.6891 -1.2187
   98ETHOX   C231480  14.372   9.010   8.616 -0.7637  0.4398  0.0969
   98ETHOX  H2131481  14.440   9.064   8.685 -1.0824  2.0862 -0.8295
   98ETHOX  H2331482  14.296   8.960   8.681  0.5016 -3.8279 -1.4039
   99ETHOX   O131483  14.319   9.100   8.518  0.9483  0.1165 -0.3744
   99ETHOX   C131484  14.197   9.158   8.565  0.0121  0.3496  0.0803
   99ETHOX  H1131485  14.125   9.077   8.586  0.5849 -0.2348 -0.1624
   99ETHOX  H1331486  14.147   9.209   8.480  0.5699 -0.1368 -0.5541
   99ETHOX   C231487  14.206   9.248   8.686 -0.5040  0.0824  0.7213
   99ETHOX  H2131488  14.124   9.323   8.684 -0.8754 -0.3019 -2.3048
   99ETHOX  H2331489  14.308   9.293   8.687 -0.4445 -0.0573  1.4407
  100ETHOX   O131490  14.197   9.168   8.801 -0.3138  0.0354  0.0190
  100ETHOX   C131491  14.193   9.245   8.918 -0.2964  0.2765 -0.0822
  100ETHOX  H1131492  14.286   9.304   8.901 -1.6491  1.7930 -3.0810
  100ETHOX  H1331493  14.105   9.312   8.906 -1.2579 -1.1714 -1.4109
  100ETHOX   C231494  14.181   9.177   9.055  0.2407  0.6854  0.4926
  100ETHOX  H2131495  14.272   9.120   9.085  0.5820  1.9822  2.0690
  100ETHOX  H2331496  14.097   9.105   9.063 -0.9594  2.0952  1.2125
  101PROXS   O131497  14.150   9.274   9.156 -0.6437 -0.7690 -0.3668
  101PROXS   C131498  14.136   9.205   9.280 -0.1634 -0.4692  0.2913
  101PROXS  H1131499  14.086   9.108   9.262 -0.1889 -0.2986 -0.6066
  101PROXS  H1331500  14.243   9.189   9.308  0.1727  1.6473  0.4400
  101PROXS   C231501  14.077   9.289   9.399  0.0405  0.2196  0.7788
  101PROXS  H2131502  13.967   9.305   9.390 -0.0069 -0.3790  0.2367
  101PROXS   C331503  14.131   9.429   9.399  0.4348 -0.3084 -0.6895
  101PROXS  H3131504  14.121   9.481   9.302 -0.6847  0.2702 -0.2839
  101PROXS  H3231505  14.069   9.489   9.468  0.8525 -0.4325 -0.1999
  101PROXS  H3331506  14.235   9.431   9.438  0.3817  0.1072 -0.5603
  102PROXS   O131507  14.099   9.215   9.515 -0.6966  0.6225 -0.0711
  102PROXS   C131508  14.034   9.280   9.626 -0.4649 -0.1475  0.8719
  102PROXS  H1131509  14.079   9.379   9.649 -0.8382  0.7625 -1.9829
  102PROXS  H1331510  13.928   9.302   9.605  0.1839  0.8181 -1.7816
  102PROXS   C231511  14.036   9.195   9.755 -0.5683  0.8188 -0.9485
  102PROXS  H2131512  14.145   9.173   9.766 -0.7287 -1.0427 -2.6556
  102PROXS   C331513  13.963   9.058   9.745  0.1785  0.0212 -0.1679
  102PROXS  H3131514  13.984   9.004   9.840  0.1151  1.3727  0.6361
  102PROXS  H3231515  13.855   9.077   9.732 -0.2124 -3.0768 -2.7791
  102PROXS  H3331516  14.001   9.006   9.654 -0.3098  0.4046 -0.5969
  103PROXR   O131517  13.972   9.265   9.858  0.2182  0.0707 -0.1230
  103PROXR   C131518  14.028   9.233   9.986  0.6099 -0.1951 -0.5915
  103PROXR  H1131519  13.968   9.159  10.043  0.8230  1.0920  1.3951
  103PROXR  H1331520  14.131   9.196   9.970  0.8658  1.1043 -2.2910
  103PROXR   C231521  14.035   9.360  10.065 -0.2474 -0.3034  0.2538
  103PROXR  H2131522  13.938   9.415  10.073  1.0400  2.0060  0.6641
  103PROXR   C331523  14.147   9.451  10.001  0.3506  0.3665  0.2938
  103PROXR  H3131524  14.244   9.397   9.996 -0.8329 -1.8866  0.1466
  103PROXR  H3231525  14.124   9.481   9.897  1.0482  0.7664  0.2525
  103PROXR  H3331526  14.156   9.541  10.065  0.2374 -0.7671  1.9900
  104PROXS   O131527  14.092   9.327  10.186 -0.0530 -0.2493  0.3621
  104PROXS   C131528  14.079   9.425  10.287  0.4391  0.1338 -0.6477
  104PROXS  H1131529  14.182   9.468  10.284  0.1815  0.6998 -1.7271
  104PROXS  H1331530  14.012   9.509  10.260  1.2604  1.2246  0.5498
  104PROXS   C231531  14.045   9.364  10.428 -0.6040  0.0045  0.0694
  104PROXS  H2131532  14.103   9.272  10.451  1.9901  1.7809  1.1116
  104PROXS   C331533  13.903   9.314  10.424 -0.6246 -0.3518 -0.3528
  104PROXS  H3131534  13.836   9.402  10.424  0.4725  0.5199  0.5616
  104PROXS  H3231535  13.897   9.244  10.338  1.8365  0.9251 -1.6742
  104PROXS  H3331536  13.873   9.252  10.511 -1.1529 -1.3328 -1.2073
  105PROXS   O131537  14.053   9.469  10.532  0.3338 -0.2141  0.1730
  105PROXS   C131538  14.033   9.412  10.664 -0.1187  0.1010  0.0181
  105PROXS  H1131539  13.932   9.367  10.675 -0.0537 -0.8154 -2.4718
  105PROXS  H1331540  14.111   9.339  10.692 -1.7035 -1.6613  0.0526
  105PROXS   C231541  14.050   9.533  10.761 -0.0912  0.8565  0.3927
  105PROXS  H2131542  13.976   9.608  10.726 -0.2581  0.3533 -0.3571
  105PROXS   C331543  14.195   9.596  10.754  0.2047  0.1110 -0.1900
  105PROXS  H3131544  14.228   9.603  10.648 -1.9248 -1.0331 -0.9767
  105PROXS  H3231545  14.183   9.701  10.788  1.2018  0.6219 -1.3795
  105PROXS  H3331546  14.260   9.545  10.828 -1.7372 -1.1727  0.7162
  106PROXS   O131547  14.014   9.484  10.894  0.1377 -0.2110 -0.5139
  106PROXS   C131548  13.973   9.599  10.974  0.2341 -0.4089 -0.4188
  106PROXS  H1131549  14.051   9.678  10.985 -0.7882  0.9107 -2.1819
  106PROXS  H1331550  13.889   9.653  10.926 -0.3314 -0.6848  0.2476
  106PROXS   C231551  13.931   9.557  11.118  0.6315 -0.1122 -0.0474
  106PROXS  H2131552  14.020   9.498  11.146 -0.3187 -1.5423  0.0545
  106PROXS   C331553  13.796   9.487  11.124 -0.5133 -0.1096 -0.2274
  106PROXS  H3131554  13.716   9.558  11.095  0.4725  1.5338  0.8984
  106PROXS  H3231555  13.795   9.390  11.070 -0.7458 -0.5074  0.4715
  106PROXS  H3331556  13.776   9.455  11.229  0.5856 -0.6810 -0.1744
  107PROXR   O131557  13.937   9.655  11.217  0.3165 -0.3972 -0.0885
  107PROXR   C131558  13.864   9.774  11.184 -0.2838 -0.1345 -0.4291
  107PROXR  H1131559  13.941   9.837  11.136  1.4975 -1.4665  0.5621
  107PROXR  H1331560  13.792   9.751  11.103  0.4033 -0.2178 -1.0213
  107PROXR   C231561  13.805   9.837  11.314 -0.1407  0.4531 -0.3357
  107PROXR  H2131562  13.894   9.851  11.380  0.4757 -0.0248 -1.0506
  107PROXR   C331563  13.700   9.741  11.387 -0.0317  0.3907 -0.0704
  107PROXR  H3131564  13.685   9.775  11.492  0.1554  0.4564 -0.0661
  107PROXR  H3231565  13.601   9.735  11.337  0.1779 -2.2548 -0.2851
  107PROXR  H3331566  13.739   9.637  11.395 -0.6757  0.2390  1.7113
  108PROXS   O131567  13.750   9.963  11.280 -0.0988  0.1617  0.3390
  108PROXS   C131568  13.735  10.045  11.401 -0.0532  0.5398  0.3737
  108PROXS  H1131569  13.649  10.013  11.464 -1.6520  0.1031 -1.9188
  108PROXS  H1331570  13.824  10.052  11.467  1.5093 -0.1667 -1.5596
  108PROXS   C231571  13.712  10.189  11.354  0.0944 -0.1400  0.0083
  108PROXS  H2131572  13.621  10.195  11.289  0.2048 -0.1252 -0.1459
  108PROXS   C331573  13.834  10.246  11.282 -0.8763  0.1949  0.5284
  108PROXS  H3131574  13.926  10.258  11.343  0.1604  1.6304 -1.2262
  108PROXS  H3231575  13.870  10.189  11.193 -0.2468  2.7807 -0.9645
  108PROXS  H3331576  13.820  10.348  11.241 -1.7822  0.4804  1.5334
  109PROXS   O131577  13.689  10.271  11.471  0.7671  0.1538 -0.0488
  109PROXS   C131578  13.609  10.384  11.435 -0.5221  0.3306 -0.0744
  109PROXS  H1131579  13.660  10.439  11.353  0.6665 -2.6274 -1.4478
  109PROXS  H1331580  13.510  10.351  11.397  0.6580 -2.6712 -0.8724
  109PROXS   C231581  13.584  10.489  11.550  0.3278  0.1118 -0.0941
  109PROXS  H2131582  13.682  10.532  11.578  0.5548 -0.7960  0.5612
  109PROXS   C331583  13.511  10.430  11.671 -1.0442 -0.5639  0.6399
  109PROXS  H3131584  13.590  10.367  11.719 -0.0577 -0.1424 -0.4023
  109PROXS  H3231585  13.491  10.512  11.743  2.0928  0.9117 -0.0131
  109PROXS  H3331586  13.415  10.381  11.646 -0.4437 -2.1141  1.1833
  110PROXR   O131587  13.497  10.594  11.498 -0.3751  0.0036 -0.1565
  110PROXR   C131588  13.563  10.665  11.396  0.2659  0.1488  0.6237
  110PROXR  H1131589  13.669  10.691  11.418  0.3527 -0.5258  1.0516
  110PROXR  H1331590  13.562  10.603  11.304 -0.7799 -0.3325  0.9415
  110PROXR   C231591  13.492  10.799  11.374  0.8024 -0.5046 -0.2808
  110PROXR  H2131592  13.501  10.854  11.470 -4.5441 -0.1264  0.2693
  110PROXR   C331593  13.346  10.758  11.340 -0.5101 -0.4591  0.1219
  110PROXR  H3131594  13.284  10.838  11.294 -0.2342 -1.2763 -1.7715
  110PROXR  H3231595  13.340  10.678  11.264  0.5619  0.5746 -1.1035
  110PROXR  H3331596  13.287  10.719  11.425 -3.1543 -1.4414 -2.0232
  111PROXS   O131597  13.543  10.868  11.255 -0.3461 -0.2540 -0.0062
  111PROXS   C131598  13.673  10.907  11.264 -0.2844  0.0300 -0.3397
  111PROXS  H1131599  13.679  10.990  11.338  0.2192  1.9147 -2.3810
  111PROXS  H1331600  13.749  10.830  11.289  1.4903  1.7378 -0.2281
  111PROXS   C231601  13.720  10.974  11.130 -0.5517  0.1726 -0.8498
  111PROXS  H2131602  13.669  11.073  11.121  0.8829  0.8805 -1.4896
  111PROXS   C331603  13.704  10.888  11.003  0.0905 -0.1791  0.0126
  111PROXS  H3131604  13.761  10.930  10.917  1.6125  0.5059  1.3229
  111PROXS  H3231605  13.753  10.790  11.021  4.2661  1.5103 -0.8735
  111PROXS  H3331606  13.601  10.862  10.969  0.2887 -1.6325  0.4322
  112PROXR   O131607  13.855  11.019  11.157  0.4076 -0.2996  0.4338
  112PROXR   C131608  13.867  11.151  11.213  0.0622  0.3069 -0.0863
  112PROXR  H1131609  13.825  11.225  11.142 -1.3448  1.8398  2.2357
  112PROXR  H1331610  13.802  11.163  11.301 -0.1871 -0.5951 -0.1392
  112PROXR   C231611  14.010  11.184  11.250 -0.5421 -0.1239 -0.0479
  112PROXR  H2131612  14.009  11.295  11.263  0.2814 -0.2989  1.9299
  112PROXR   C331613  14.112  11.141  11.147 -0.5026  0.0699  0.6022
  112PROXR  H3131614  14.207  11.191  11.177  0.7417 -0.3975 -2.1805
  112PROXR  H3231615  14.138  11.033  11.152 -2.3795 -0.3749  1.5308
  112PROXR  H3331616  14.092  11.174  11.043  1.4689  0.8946  0.4398
  113PROXS   O131617  14.036  11.144  11.385 -0.0601 -0.0227  0.3507
  113PROXS   C131618  14.057  10.995  11.401  0.1311 -0.8744 -0.0034
  113PROXS  H1131619  13.967  10.938  11.371  0.9890 -2.7302  0.7837
  113PROXS  H1331620  14.144  10.965  11.339  0.4161  2.0500 -1.1744
  113PROXS   C231621  14.092  10.953  11.547 -0.2248  0.6477  0.2756
  113PROXS  H2131622  14.002  10.976  11.608 -1.1686 -2.2987  0.1396
  113PROXS   C331623  14.216  11.034  11.595 -0.3100 -0.6325  0.4327
  113PROXS  H3131624  14.286  11.014  11.512  0.0342  2.4286 -0.1153
  113PROXS  H3231625  14.187  11.141  11.594 -0.0118 -0.5122  1.7635
  113PROXS  H3331626  14.249  10.994  11.694 -0.0947 -0.6904  0.3375
  114PROXR   O131627  14.112  10.809  11.559  0.2714 -0.0198 -0.3557
  114PROXR   C131628  13.993  10.730  11.588  0.2398 -0.0944  0.6771
  114PROXR  H1131629  13.951  10.752  11.689 -0.1211 -0.0255  0.5153
  114PROXR  H1331630  13.919  10.756  11.509  1.7032  0.9964 -0.4104
  114PROXR   C231631  14.029  10.583  11.563 -0.0154  0.4713 -0.1448
  114PROXR  H2131632  14.132  10.568  11.603 -0.5514  0.8127  1.4337
  114PROXR   C331633  14.012  10.545  11.417  0.1712 -0.2035  0.2837
  114PROXR  H3131634  14.035  10.631  11.351 -1.6160  0.3455  0.3207
  114PROXR  H3231635  14.080  10.461  11.388  0.1783  0.3518 -1.4309
  114PROXR  H3331636  13.909  10.516  11.388  0.0658  0.9125 -0.4975
  115PROXR   O131637  13.934  10.498  11.638 -0.2027 -0.0921 -0.7550
  115PROXR   C131638  13.996  10.367  11.661 -0.8825 -0.1247  0.6220
  115PROXR  H1131639  13.987  10.296  11.576  1.9685 -1.6121  1.4537
  115PROXR  H1331640  14.104  10.376  11.686 -0.4256  0.0937 -1.2712
  115PROXR   C231641  13.930  10.297  11.781 -0.6931 -1.3894 -0.8866
  115PROXR  H2131642  13.821  10.302  11.763 -0.7307  0.9172 -0.3342
  115PROXR   C331643  13.950  10.391  11.905 -0.0716  0.2017  0.3410
  115PROXR  H3131644  13.881  10.381  11.992  0.8768 -0.0954  1.0698
  115PROXR  H3231645  14.050  10.370  11.948 -0.6385  1.1273  2.2096
  115PROXR  H3331646  13.950  10.494  11.866  2.4700 -0.3768 -1.3991
  116PROXS   O131647  13.984  10.163  11.792  0.0826 -0.0774  0.0601
  116PROXS   C131648  13.918  10.090  11.904 -0.1451 -0.0019  0.5144
  116PROXS  H1131649  13.948  10.127  12.005  1.1345 -0.4935  0.3292
  116PROXS  H1331650  13.807  10.097  11.899 -0.0714  0.1397 -1.3586
  116PROXS   C231651  13.961   9.944  11.888 -0.1392 -0.2086 -0.3521
  116PROXS  H2131652  14.071   9.944  11.876  0.3557  1.0225  3.0684
  116PROXS   C331653  13.888   9.893  11.768  0.3841 -0.2068  0.1310
  116PROXS  H3131654  13.936   9.800  11.730  2.0431  0.3853  0.6671
  116PROXS  H3231655  13.787   9.870  11.807 -0.2225 -0.9049 -1.7217
  116PROXS  H3331656  13.883   9.974  11.691 -1.0342  0.6187  1.0636
  117PROXS   O131657  13.930   9.871  12.012  0.1213 -0.1427  0.1681
  117PROXS   C131658  13.987   9.738  12.015  0.3315  0.3921 -0.5724
  117PROXS  H1131659  13.929   9.661  11.960 -0.5923  0.3290  0.4476
  117PROXS  H1331660  14.083   9.743  11.960  0.1607 -0.8653 -1.0090
  117PROXS   C231661  14.003   9.695  12.163 -0.6238 -0.2726  0.4474
  117PROXS  H2131662  14.020   9.792  12.216 -0.9617 -0.2594  0.5324
  117PROXS   C331663  14.121   9.604  12.200  0.8132  0.2862 -0.1869
  117PROXS  H3131664  14.149   9.609  12.307  1.9388  1.6417 -0.5044
  117PROXS  H3231665  14.108   9.498  12.170 -0.6653  0.0233  1.2214
  117PROXS  H3331666  14.215   9.627  12.144  1.0281 -1.1017 -0.4117
  118PROXR   O131667  13.879   9.636  12.206  0.1160 -0.0865 -0.4424
  118PROXR   C131668  13.831   9.710  12.314  0.6473  0.5758  0.4934
  118PROXR  H1131669  13.903   9.722  12.398 -0.1668 -0.5452  1.3731
  118PROXR  H1331670  13.801   9.810  12.276 -0.1873 -0.0038 -0.4231
  118PROXR   C231671  13.707   9.648  12.390 -0.5970 -0.4807 -0.1575
  118PROXR  H2131672  13.753   9.568  12.452  0.9555  0.2621 -0.3005
  118PROXR   C331673  13.614   9.577  12.287  0.2467 -0.4925 -0.4314
  118PROXR  H3131674  13.558   9.654  12.230  0.5793  1.1120  1.3221
  118PROXR  H3231675  13.678   9.516  12.219 -0.8758  1.0269 -2.9896
  118PROXR  H3331676  13.541   9.520  12.349  0.7619 -0.9007 -0.1899
  119PROXR   O131677  13.635   9.742  12.469  0.4751 -0.2330  0.2318
  119PROXR   C131678  13.717   9.804  12.557  0.1796 -0.5470  0.7673
  119PROXR  H1131679  13.792   9.731  12.596 -0.7198 -2.3991 -0.7793
  119PROXR  H1331680  13.776   9.880  12.502 -1.0875 -0.3516 -0.3714
  119PROXR   C231681  13.636   9.871  12.672  0.2628 -0.6081 -0.5048
  119PROXR  H2131682  13.567   9.794  12.709  1.6098 -1.6344 -0.0413
  119PROXR   C331683  13.572  10.003  12.631 -0.3859 -0.1139 -0.0189
  119PROXR  H3131684  13.523  10.052  12.718 -1.2559 -1.3182  0.2000
  119PROXR  H3231685  13.659  10.064  12.600  0.2825 -0.2771  1.4384
  119PROXR  H3331686  13.501   9.984  12.547 -2.2231 -0.4772  1.5398
  120PROXS   O131687  13.729   9.899  12.775 -0.3627 -0.3408 -0.0997
  120PROXS   C131688  13.660   9.912  12.899 -0.2047  0.3276  0.0707
  120PROXS  H1131689  13.557   9.954  12.901  0.3440  1.7269  0.2153
  120PROXS  H1331690  13.643   9.807  12.929 -0.5516 -0.1515 -1.6977
  120PROXS   C231691  13.739   9.988  13.004 -1.0075  0.3957  0.8483
  120PROXS  H2131692  13.848   9.968  13.001 -1.1545 -0.3637 -0.8923
  120PROXS   C331693  13.684   9.954  13.142  0.4347 -0.0568 -0.9925
  120PROXS  H3131694  13.712   9.853  13.178 -1.5991 -0.2579  0.1605
  120PROXS  H3231695  13.743  10.014  13.215 -0.1962 -0.8123  0.1619
  120PROXS  H3331696  13.574   9.966  13.148  0.6163  1.1096  0.8228
  121PROXS   O131697  13.715  10.123  12.974  0.4367 -0.1422  0.2154
  121PROXS   C131698  13.808  10.174  12.882  0.2935 -0.3904  0.8044
  121PROXS  H1131699  13.912  10.159  12.920  0.2645 -1.0595  0.6323
  121PROXS  H1331700  13.790  10.121  12.786 -1.8072 -0.9396  1.4516
  121PROXS   C231701  13.775  10.330  12.859 -0.0978  0.2545 -0.1394
  121PROXS  H2131702  13.794  10.377  12.958 -1.9642  1.4999 -0.3262
  121PROXS   C331703  13.633  10.351  12.814 -0.4666 -0.4513 -0.0442
  121PROXS  H3131704  13.567  10.291  12.881 -0.9373  1.1349  0.9652
  121PROXS  H3231705  13.608  10.459  12.824  0.4653  0.0137 -2.2757
  121PROXS  H3331706  13.620  10.324  12.707  0.1026 -1.6904  0.1748
  122PROXS   O131707  13.876  10.384  12.769 -0.3760  0.2526 -0.0780
  122PROXS   C131708  13.863  10.528  12.739  0.4739  0.2578 -0.3487
  122PROXS  H1131709  13.762  10.556  12.703  0.3791  2.1923  1.2549
  122PROXS  H1331710  13.869  10.582  12.836 -1.7250  0.6508 -0.3740
  122PROXS   C231711  13.967  10.572  12.634 -0.1829  0.8523  0.4607
  122PROXS  H2131712  14.067  10.527  12.654 -1.3479 -1.1438  2.1748
  122PROXS   C331713  13.979  10.722  12.628  0.4503 -0.1226  0.9655
  122PROXS  H3131714  14.022  10.766  12.720 -1.7257  0.9349  1.5429
  122PROXS  H3231715  14.044  10.756  12.544 -0.6210  1.8462  0.8602
  122PROXS  H3331716  13.884  10.779  12.615 -0.2509 -1.6643 -1.2641
  123PROXS   O131717  13.911  10.543  12.502  0.1193  1.0945  0.8198
  123PROXS   C131718  13.926  10.406  12.462 -0.4361 -0.2358 -0.1378
  123PROXS  H1131719  14.022  10.360  12.495 -1.2581 -1.1371  1.0787
  123PROXS  H1331720  13.846  10.352  12.516 -0.6640  0.2447  0.0033
  123PROXS   C231721  13.904  10.394  12.311 -0.1922  0.2311 -0.3819
  123PROXS  H2131722  13.984  10.441  12.251  1.8329  1.0520  2.7411
  123PROXS   C331723  13.766  10.452  12.274 -0.3025 -0.4663  0.2046
  123PROXS  H3131724  13.740  10.551  12.318  2.5441  0.7220 -0.5778
  123PROXS  H3231725  13.752  10.449  12.164  0.5454  0.1457  0.0698
  123PROXS  H3331726  13.685  10.386  12.311 -0.8698 -0.7199 -1.4286
  124PROXR   O131727  13.897  10.257  12.276  0.0177 -0.4732  0.3308
  124PROXR   C131728  14.029  10.205  12.270 -0.3079 -0.2259 -0.1535
  124PROXR  H1131729  14.062  10.206  12.164 -2.1329  1.4864 -0.7570
  124PROXR  H1331730  14.105  10.262  12.329  0.0091 -1.6736  0.8993
  124PROXR   C231731  14.045  10.061  12.320 -0.0374 -0.2959  0.4178
  124PROXR  H2131732  13.968  10.000  12.267 -0.4557  0.9453 -0.4447
  124PROXR   C331733  14.012  10.050  12.472  0.2578  0.3293 -0.0152
  124PROXR  H3131734  13.911  10.093  12.487 -0.4128 -0.3583 -2.1620
  124PROXR  H3231735  13.999   9.943  12.499  0.9091 -0.1646 -1.5580
  124PROXR  H3331736  14.085  10.102  12.537  0.6237 -1.5599  1.1568
  125PROXS   O131737  14.177  10.020  12.316  0.4734 -0.9260  0.3547
  125PROXS   C131738  14.213  10.000  12.180 -0.7467  0.0413  0.5176
  125PROXS  H1131739  14.128   9.960  12.122 -0.8409 -0.8765  1.2618
  125PROXS  H1331740  14.247  10.091  12.127 -0.7005  0.5532  1.4053
  125PROXS   C231741  14.333   9.899  12.167 -0.0152  0.3916  0.3801
  125PROXS  H2131742  14.315   9.817  12.239  1.6590  0.8932  1.4076
  125PROXS   C331743  14.463   9.958  12.203 -0.4733 -0.4522 -0.1897
  125PROXS  H3131744  14.502  10.026  12.124 -2.0979  0.7243 -0.0171
  125PROXS  H3231745  14.449  10.010  12.300  2.6451 -1.2859  0.8283
  125PROXS  H3331746  14.535   9.877  12.227  0.9063  1.0236  0.8613
  126PROXS   O131747  14.333   9.852  12.036 -0.1049  0.1987  0.4505
  126PROXS   C131748  14.429   9.742  12.015  0.1230 -0.3104  0.0831
  126PROXS  H1131749  14.533   9.779  12.026  0.1189  0.3468 -1.7109
  126PROXS  H1331750  14.421   9.669  12.099 -0.3989 -1.5985 -1.0504
  126PROXS   C231751  14.408   9.681  11.872  0.4807  0.1283 -0.0174
  126PROXS  H2131752  14.305   9.640  11.877 -0.5836  2.7179  0.4206
  126PROXS   C331753  14.514   9.579  11.838 -0.1800  1.2336 -0.5295
  126PROXS  H3131754  14.597   9.623  11.779 -1.6645  1.3355 -2.6875
  126PROXS  H3231755  14.554   9.539  11.934 -1.8006 -0.4010 -0.4662
  126PROXS  H3331756  14.470   9.494  11.782  0.7496 -1.9153  3.0762
  127PROXR   O131757  14.424   9.784  11.776 -0.3269  0.0385 -0.0904
  127PROXR   C131758  14.382   9.756  11.651  0.4715 -0.1802  0.4931
  127PROXR  H1131759  14.472   9.710  11.605  0.4029 -0.8649  1.0301
  127PROXR  H1331760  14.292   9.692  11.652  0.3930 -0.1432 -1.1573
  127PROXR   C231761  14.360   9.883  11.567 -0.1460  0.1115  0.0573
  127PROXR  H2131762  14.437   9.959  11.588  0.4825 -0.5176  0.0425
  127PROXR   C331763  14.227   9.950  11.610  0.2318 -0.0615 -0.0924
  127PROXR  H3131764  14.234   9.973  11.718  0.2888 -0.9081  0.0917
  127PROXR  H3231765  14.216  10.046  11.554  1.5030 -0.2049 -0.6036
  127PROXR  H3331766  14.139   9.887  11.584  1.0436 -0.7210 -1.3472
  128PROXR   O131767  14.350   9.847  11.437  0.1521  0.1868  0.0264
  128PROXR   C131768  14.396   9.943  11.339 -0.3861 -0.7699  0.1676
  128PROXR  H1131769  14.411  10.048  11.369  1.2212 -0.8206 -0.3762
  128PROXR  H1331770  14.494   9.904  11.305  0.4862 -1.5265  3.3173
  128PROXR   C231771  14.292   9.953  11.224 -0.0823 -0.0595  0.1186
  128PROXR  H2131772  14.194   9.977  11.271  2.1947  3.2812  3.7696
  128PROXR   C331773  14.274   9.814  11.162 -0.5484  0.3187 -0.2815
  128PROXR  H3131774  14.371   9.778  11.122 -0.5745 -0.6981  0.5466
  128PROXR  H3231775  14.241   9.742  11.239 -1.4536  0.0595 -0.9048
  128PROXR  H3331776  14.190   9.810  11.090 -0.2939  1.2572 -0.6471
  129PROXS   O131777  14.322  10.038  11.122 -0.4850  0.2988  0.7419
  129PROXS   C131778  14.282  10.169  11.161  0.8505  0.1882 -0.0833
  129PROXS  H1131779  14.174  10.178  11.185  1.5508  2.9863  2.6137
  129PROXS  H1331780  14.339  10.204  11.249  2.2377 -1.7062 -0.1711
  129PROXS   C231781  14.297  10.267  11.045  0.0397 -0.2060  0.0552
  129PROXS  H2131782  14.236  10.231  10.959  1.5883 -2.0662 -0.3225
  129PROXS   C331783  14.445  10.275  11.000 -0.1914 -0.6265  0.8114
  129PROXS  H3131784  14.494  10.179  10.973  2.2314  0.5152  0.9122
  129PROXS  H3231785  14.451  10.346  10.915 -0.0849 -0.1672  1.2006
  129PROXS  H3331786  14.496  10.327  11.083 -4.0784  4.3683  0.5447
  130PROXS   O131787  14.255  10.400  11.088  0.1708  0.7355  0.2583
  130PROXS   C131788  14.254  10.502  10.983 -0.0934 -0.0605 -1.2221
  130PROXS  H1131789  14.358  10.543  10.990  0.7220 -2.1260  4.2490
  130PROXS  H1331790  14.224  10.454  10.888 -2.0833 -1.2736 -0.0372
  130PROXS   C231791  14.142  10.610  11.006  0.1635 -0.2910 -0.2210
  130PROXS  H2131792  14.169  10.661  11.101 -0.7441  0.4545 -0.3456
  130PROXS   C331793  13.995  10.551  11.011 -0.7273  0.3342  0.4288
  130PROXS  H3131794  13.918  10.630  11.004 -1.2929 -0.3326 -1.1342
  130PROXS  H3231795  13.980  10.483  10.925 -2.1405  2.1006 -0.7724
  130PROXS  H3331796  13.986  10.497  11.108  0.1657 -0.5492  0.0426
  131PROXS   O131797  14.171  10.706  10.903 -0.6825 -0.3731  0.1773
  131PROXS   C131798  14.119  10.839  10.941  0.4054  0.4692 -0.0130
  131PROXS  H1131799  14.010  10.821  10.945  0.4229  0.5518  2.8113
  131PROXS  H1331800  14.157  10.874  11.040 -0.8450 -0.9199  0.9878
  131PROXS   C231801  14.132  10.939  10.829  0.1591  0.9119  0.1517
  131PROXS  H2131802  14.071  11.029  10.850  2.1678  2.5874 -0.7286
  131PROXS   C331803  14.093  10.881  10.690 -0.7832 -0.0250 -0.2422
  131PROXS  H3131804  14.173  10.817  10.646 -0.4804 -1.0450  1.6798
  131PROXS  H3231805  14.005  10.814  10.690 -1.0118  0.2662  0.4988
  131PROXS  H3331806  14.076  10.963  10.617  3.0459  0.1408 -1.1637
  132PROXS   O131807  14.274  10.978  10.820 -0.0205 -0.2850  0.1172
  132PROXS   C131808  14.288  11.105  10.762 -0.1431 -0.0607  0.7847
  132PROXS  H1131809  14.253  11.095  10.657  1.1141  2.6555  0.0241
  132PROXS  H1331810  14.237  11.188  10.815 -1.0883 -0.2425  0.1777
  132PROXS   C231811  14.439  11.134  10.759 -0.3681  0.4146  0.3413
  132PROXS  H2131812  14.489  11.046  10.714 -1.2886 -0.5632  1.1821
  132PROXS   C331813  14.496  11.133  10.905  0.1669 -0.5467 -0.2309
  132PROXS  H3131814  14.456  11.058  10.977  0.6025  0.3378  0.9639
  132PROXS  H3231815  14.607  11.134  10.899  0.3317  2.9750  0.9607
  132PROXS  H3331816  14.467  11.234  10.942  0.0016 -0.7669  0.2421
  133PROXS   O131817  14.456  11.250  10.677 -0.6580 -0.2375 -0.5264
  133PROXS   C131818  14.572  11.233  10.598 -0.0003  1.5520  0.2282
  133PROXS  H1131819  14.654  11.214  10.670 -1.1715 -1.1060  0.9934
  133PROXS  H1331820  14.554  11.147  10.530  0.1591  2.7854 -1.4278
  133PROXS   C231821  14.611  11.355  10.519 -0.0985 -0.3077  0.8189
  133PROXS  H2131822  14.614  11.442  10.588  1.8757 -1.2920  2.0507
  133PROXS   C331823  14.503  11.376  10.415  0.1729 -0.3906  0.2997
  133PROXS  H3131824  14.491  11.278  10.363 -2.1093 -0.1266  0.1828
  133PROXS  H3231825  14.408  11.406  10.464  1.3231  0.8090  1.8870
  133PROXS  H3331826  14.533  11.454  10.342 -0.4183  0.5827  1.0670
  134PROXS   O131827  14.734  11.327  10.471 -0.0981  0.1467 -0.7000
  134PROXS   C131828  14.814  11.442  10.434 -0.2813  0.4285 -0.9686
  134PROXS  H1131829  14.767  11.519  10.368  0.8037  0.6858 -1.4646
  134PROXS  H1331830  14.833  11.494  10.530 -3.4483  2.2782 -1.2191
  134PROXS   C231831  14.951  11.402  10.378  0.0527 -0.3670  0.5213
  134PROXS  H2131832  14.992  11.322  10.443 -0.4014  0.0621  1.3633
  134PROXS   C331833  15.052  11.522  10.380  0.4378 -0.0202 -0.4170
  134PROXS  H3131834  15.076  11.551  10.485  0.4534 -2.8016  0.4317
  134PROXS  H3231835  15.142  11.474  10.337  0.2235 -1.2934  0.4707
  134PROXS  H3331836  15.021  11.612  10.323 -0.2252 -0.1419 -0.2609
  135PROXS   O131837  14.944  11.365  10.241 -0.1864 -0.4052 -0.1499
  135PROXS   C131838  14.871  11.251  10.210  0.1009  0.7841  0.2103
  135PROXS  H1131839  14.772  11.256  10.261 -0.3695 -2.5785 -0.1440
  135PROXS  H1331840  14.861  11.244  10.100  3.6513  0.6964 -0.2180
  135PROXS   C231841  14.937  11.116  10.252  0.0390  0.5225 -0.0650
  135PROXS  H2131842  14.976  11.126  10.355  0.2398  0.9645 -0.1816
  135PROXS   C331843  15.058  11.079  10.158 -0.2641  0.1452 -0.1348
  135PROXS  H3131844  15.118  10.998  10.205  0.3537 -0.3615 -1.7427
  135PROXS  H3231845  15.023  11.039  10.061  0.0313 -0.6047  0.0577
  135PROXS  H3331846  15.122  11.167  10.135 -0.4634  0.0797 -0.9683
  136PROXS   O131847  14.844  11.006  10.235 -0.8956 -0.6596  0.2913
  136PROXS   C131848  14.737  11.006  10.325  0.2780  0.0356 -0.9165
  136PROXS  H1131849  14.784  11.024  10.425  2.5771 -3.0676 -1.3073
  136PROXS  H1331850  14.654  11.076  10.302 -0.6591 -0.3546  1.0187
  136PROXS   C231851  14.687  10.862  10.335  0.2597 -0.1425  0.2765
  136PROXS  H2131852  14.772  10.792  10.349  0.2650 -0.1355  0.2804
  136PROXS   C331853  14.604  10.838  10.205  0.1394 -0.4350  0.1213
  136PROXS  H3131854  14.541  10.747  10.201 -0.9304  0.3058 -0.5007
  136PROXS  H3231855  14.536  10.925  10.194 -0.7822 -1.3570 -2.1256
  136PROXS  H3331856  14.672  10.829  10.117  0.0038  0.8371 -0.1418
  137PROXS   O131857  14.602  10.857  10.452 -0.0124 -0.1510 -0.1446
  137PROXS   C131858  14.556  10.724  10.475  0.7573 -0.0288  0.1992
  137PROXS  H1131859  14.469  10.717  10.406  1.8366  0.6790 -1.3027
  137PROXS  H1331860  14.628  10.645  10.443 -1.6821 -2.5632  0.5201
  137PROXS   C231861  14.510  10.700  10.626 -0.7620 -0.4636 -0.5666
  137PROXS  H2131862  14.439  10.782  10.649  0.0337  0.6399 -1.8244
  137PROXS   C331863  14.628  10.710  10.721  0.5857  0.7069 -0.7437
  137PROXS  H3131864  14.716  10.678  10.662  1.6263  2.1573 -0.0324
  137PROXS  H3231865  14.652  10.813  10.753 -0.8903  1.1778 -1.1023
  137PROXS  H3331866  14.611  10.650  10.813  1.2225 -1.0319 -1.7057
  138PROXR   O131867  14.455  10.570  10.632 -0.1160  0.6350 -0.8263
  138PROXR   C131868  14.316  10.567  10.608 -0.0054  0.1287  0.1724
  138PROXR  H1131869  14.270  10.586  10.708 -0.7818  2.5994 -0.5843
  138PROXR  H1331870  14.277  10.649  10.544 -0.4621 -1.1819 -1.2717
  138PROXR   C231871  14.267  10.429  10.564 -0.4672 -0.1459  0.7699
  138PROXR  H2131872  14.268  10.354  10.646  1.0847 -2.5705 -1.2898
  138PROXR   C331873  14.355  10.384  10.445 -0.5960 -0.8405 -0.1116
  138PROXR  H3131874  14.342  10.274  10.433 -0.0531 -0.7360 -1.9308
  138PROXR  H3231875  14.311  10.415  10.348 -0.0120 -0.2844 -0.2021
  138PROXR  H3331876  14.462  10.414  10.444 -1.0934  1.2037 -2.4620
  139PROXS   O131877  14.133  10.441  10.516 -0.8853 -0.4879 -0.0102
  139PROXS   C131878  14.033  10.483  10.617 -0.0412  0.1085  0.6900
  139PROXS  H1131879  14.069  10.436  10.711 -1.2545 -1.6904  0.3026
  139PROXS  H1331880  14.035  10.594  10.612 -1.0599  0.1270  0.5187
  139PROXS   C231881  13.890  10.449  10.573  0.0692 -0.7301  0.0445
  139PROXS  H2131882  13.879  10.339  10.567  2.4800 -1.0567  0.6640
  139PROXS   C331883  13.857  10.512  10.437  0.3109 -0.1397  0.1033
  139PROXS  H3131884  13.755  10.488  10.399  0.7004 -0.5702 -0.6862
  139PROXS  H3231885  13.871  10.622  10.432 -1.1754  0.0350 -3.6421
  139PROXS  H3331886  13.918  10.465  10.357 -1.7323  0.1697 -1.7342
  140PROXR   O131887  13.805  10.501  10.668 -0.4791 -0.4440 -0.1683
  140PROXR   C131888  13.673  10.444  10.654  0.5338 -0.2213 -0.0037
  140PROXR  H1131889  13.643  10.457  10.548  0.7241  2.5287  0.2090
  140PROXR  H1331890  13.679  10.336  10.682 -0.1882 -0.5370 -1.0052
  140PROXR   C231891  13.568  10.502  10.753 -0.0519  0.4175 -0.6181
  140PROXR  H2131892  13.579  10.613  10.744  1.6396  0.2831 -0.5319
  140PROXR   C331893  13.602  10.466  10.896 -0.0241  0.4595  0.8208
  140PROXR  H3131894  13.617  10.357  10.913  3.4704  0.7223  0.0195
  140PROXR  H3231895  13.702  10.508  10.914  0.2268 -0.3673  1.4432
  140PROXR  H3331896  13.534  10.513  10.971 -1.5908  0.5357 -0.5836
  141PROXS   O131897  13.445  10.455  10.717 -0.2883  0.2117  0.1205
  141PROXS   C131898  13.360  10.566  10.687  0.1643  0.0071  0.1401
  141PROXS  H1131899  13.367  10.634  10.775  1.4082  0.1630 -0.0510
  141PROXS  H1331900  13.388  10.621  10.595 -0.4485  0.6317  0.3191
  141PROXS   C231901  13.219  10.508  10.670  0.1030  0.3742 -0.7651
  141PROXS  H2131902  13.178  10.441  10.749  0.0128 -0.7431 -1.7433
  141PROXS   C331903  13.210  10.417  10.543  0.2069  0.5140  0.2442
  141PROXS  H3131904  13.223  10.483  10.455  3.2227 -1.7009 -1.1781
  141PROXS  H3231905  13.297  10.348  10.537  1.4980  2.1470 -0.3700
  141PROXS  H3331906  13.113  10.363  10.535  0.7585 -0.6314  0.9865
  142PROXS   O131907  13.119  10.609  10.652  0.1439 -0.3181 -0.2190
  142PROXS   C131908  13.085  10.665  10.781 -0.1916 -0.0365  0.2017
  142PROXS  H1131909  13.091  10.585  10.858 -1.1351  1.6603  2.1277
  142PROXS  H1331910  13.149  10.751  10.810  0.4894 -1.1806  2.2805
  142PROXS   C231911  12.937  10.712  10.772 -0.3870 -0.8227  0.3570
  142PROXS  H2131912  12.895  10.655  10.686 -1.1770  0.3351 -0.0376
  142PROXS   C331913  12.925  10.867  10.745 -0.7504 -0.3575 -0.1258
  142PROXS  H3131914  12.819  10.888  10.721 -1.0700  0.8633  2.1647
  142PROXS  H3231915  12.953  10.924  10.836  1.5576  1.2113 -1.6892
  142PROXS  H3331916  12.985  10.907  10.659 -1.2250  1.1822  0.2246
  143PROXS   O131917  12.866  10.693  10.895  0.0846  0.1411  0.2170
  143PROXS   C131918  12.804  10.566  10.883 -0.1469 -0.0292 -0.0501
  143PROXS  H1131919  12.708  10.571  10.828  0.3679 -0.1158 -0.9667
  143PROXS  H1331920  12.866  10.496  10.823  0.1892 -0.5669  0.8914
  143PROXS   C231921  12.793  10.505  11.022  0.8709  0.4682 -0.0941
  143PROXS  H2131922  12.740  10.563  11.101 -0.8975 -0.8443 -0.2638
  143PROXS   C331923  12.932  10.460  11.070  0.2190 -0.7205 -0.3919
  143PROXS  H3131924  13.005  10.433  10.991  1.9707 -1.8467  1.5133
  143PROXS  H3231925  12.969  10.554  11.116 -3.1989  1.6290 -2.0668
  143PROXS  H3331926  12.929  10.375  11.142  0.3546 -0.6240 -0.2699
  144PROXS   O131927  12.724  10.385  10.995 -0.0810 -0.0759  0.0201
  144PROXS   C131928  12.657  10.329  11.115  0.5836 -0.3736 -0.3398
  144PROXS  H1131929  12.720  10.344  11.205  0.8120 -1.7751 -0.2337
  144PROXS  H1331930  12.567  10.392  11.128  1.0506  0.9330 -2.7579
  144PROXS   C231931  12.634  10.182  11.093  0.4736  0.3195  0.3444
  144PROXS  H2131932  12.584  10.165  10.995 -1.3435  1.1174  1.0941
  144PROXS   C331933  12.537  10.119  11.202  0.5579  0.0138  0.5236
  144PROXS  H3131934  12.441  10.175  11.203 -0.7208 -2.0750  0.9474
  144PROXS  H3231935  12.510  10.013  11.185 -1.8722  0.3389  1.9488
  144PROXS  H3331936  12.588  10.135  11.300 -1.5087 -0.4019  1.7145
  145PROXR   O131937  12.764  10.123  11.085 -0.0450  0.2152  0.2781
  145PROXR   C131938  12.767   9.991  11.039  0.6551 -0.2444  0.2595
  145PROXR  H1131939  12.730   9.928  11.123 -0.3675  1.0869  0.8337
  145PROXR  H1331940  12.700   9.980  10.951 -1.2339 -0.6743  1.6840
  145PROXR   C231941  12.914   9.964  11.004 -0.2626 -0.3375  0.4096
  145PROXR  H2131942  12.977   9.992  11.091 -1.0461 -0.3532  0.9903
  145PROXR   C331943  12.953  10.040  10.882 -0.0465 -0.0521  0.4252
  145PROXR  H3131944  12.875  10.028  10.804  1.3900 -1.2648 -0.8908
  145PROXR  H3231945  12.955  10.149  10.902 -1.2408 -0.2930  2.0513
  145PROXR  H3331946  13.054  10.005  10.854  0.3352  1.5752 -0.3128
  146PROXS   O131947  12.917   9.823  10.977 -0.5091 -0.1057  0.2385
  146PROXS   C131948  13.049   9.760  10.980  0.1698  0.4501  0.4763
  146PROXS  H1131949  13.103   9.786  10.886 -0.3645  1.1745  0.3606
  146PROXS  H1331950  13.116   9.815  11.050  0.5286  2.0693 -1.0539
  146PROXS   C231951  13.034   9.605  10.995  0.0193  0.1459 -0.0954
  146PROXS  H2131952  12.967   9.573  10.912  0.9543  3.1514 -2.1488
  146PROXS   C331953  12.979   9.575  11.134  0.6701  0.4342 -0.4671
  146PROXS  H3131954  12.873   9.603  11.117  0.8778  1.5248 -0.0502
  146PROXS  H3231955  12.980   9.468  11.164 -0.9017  0.3142 -0.7341
  146PROXS  H3331956  13.011   9.647  11.213  0.1617 -1.2881  1.4095
  147PROXR   O131957  13.163   9.549  10.969 -0.1200 -0.2895 -0.2063
  147PROXR   C131958  13.157   9.403  10.954 -0.1953  0.1687 -0.3303
  147PROXR  H1131959  13.099   9.348  11.031 -0.6289 -0.9804 -1.4366
  147PROXR  H1331960  13.122   9.384  10.850  2.0335 -1.1554 -0.9105
  147PROXR   C231961  13.298   9.330  10.957  0.8009  0.7300 -0.0951
  147PROXR  H2131962  13.346   9.355  11.054 -1.2784 -0.9014  1.4788
  147PROXR   C331963  13.390   9.376  10.837  0.4327 -0.1464  0.0895
  147PROXR  H3131964  13.389   9.300  10.756  2.7366 -1.6085  1.3305
  147PROXR  H3231965  13.342   9.467  10.795 -1.1711  0.3930  2.8016
  147PROXR  H3331966  13.491   9.387  10.882  0.1859 -0.1089  0.6426
  148PROXR   O131967  13.288   9.183  10.953  0.3669  0.0709 -0.4803
  148PROXR   C131968  13.264   9.121  11.078 -0.5699 -0.5673 -0.0361
  148PROXR  H1131969  13.175   9.171  11.122  0.4207  2.5259 -1.2844
  148PROXR  H1331970  13.236   9.016  11.058  1.0467 -0.7965 -1.3816
  148PROXR   C231971  13.390   9.120  11.174 -0.3107 -0.2401  0.5398
  148PROXR  H2131972  13.484   9.093  11.122 -0.0205 -2.4740  2.0368
  148PROXR   C331973  13.353   9.003  11.275 -0.2933  0.1301 -0.7082
  148PROXR  H3131974  13.374   8.904  11.230 -1.0550 -0.5522  0.4027
  148PROXR  H3231975  13.420   9.010  11.364 -0.6589  0.3200 -0.4463
  148PROXR  H3331976  13.251   9.019  11.316  0.3365  1.8514  0.3241
  149PROXR   O131977  13.411   9.241  11.245 -0.2061  0.1377  0.0782
  149PROXR   C131978  13.542   9.266  11.293 -0.6953 -0.1576  0.3859
  149PROXR  H1131979  13.582   9.170  11.332  0.8678  0.5454  0.5756
  149PROXR  H1331980  13.609   9.298  11.211 -0.8766  2.3189  1.1306
  149PROXR   C231981  13.530   9.377  11.399  0.3317  0.6688  0.0993
  149PROXR  H2131982  13.467   9.339  11.482 -0.6460  0.4480 -0.7226
  149PROXR   C331983  13.445   9.498  11.366 -0.9269 -0.5273  0.4635
  149PROXR  H3131984  13.434   9.575  11.446  1.9671 -2.2851  2.7328
  149PROXR  H3231985  13.479   9.547  11.272  0.3962 -2.1678  0.0480
  149PROXR  H3331986  13.341   9.468  11.338 -0.2372 -1.7415 -0.9598
  150PROXS   O131987  13.659   9.419  11.442 -0.0231  0.1612  0.2263
  150PROXS   C131988  13.744   9.309  11.479 -0.2943 -0.4515 -0.1131
  150PROXS  H1131989  13.672   9.237  11.524 -0.9745  0.8448  0.9569
  150PROXS  H1331990  13.801   9.273  11.391 -0.3328 -0.3820 -0.1670
  150PROXS   C231991  13.848   9.352  11.578 -0.2749 -0.3827 -0.4420
  150PROXS  H2131992  13.882   9.457  11.559 -2.1976  0.0970 -1.5140
  150PROXS   C331993  13.974   9.260  11.566 -0.4337  0.6481  0.0035
  150PROXS  H3131994  14.027   9.264  11.468 -0.6516  1.2784 -0.0954
  150PROXS  H3231995  14.041   9.275  11.653  0.1281 -0.9913 -0.1086
  150PROXS  H3331996  13.922   9.162  11.563  3.2383 -1.4605 -1.7437
  151PROXR   O131997  13.805   9.337  11.705  0.4243  0.4411  0.0329
  151PROXR   C131998  13.713   9.438  11.742  0.2857  0.0349 -0.3674
  151PROXR  H1131999  13.759   9.532  11.704 -0.1949 -0.4350 -2.2475
  151PROXR  H1332000  13.617   9.434  11.686 -0.3795  0.0895  0.7404
  151PROXR   C232001  13.687   9.437  11.889  0.0788  0.0749  0.1973
  151PROXR  H2132002  13.779   9.478  11.936  0.4592  0.8035 -1.1249
  151PROXR   C332003  13.676   9.291  11.942  0.0147 -0.5947 -0.7131
  151PROXR  H3132004  13.665   9.300  12.052 -0.4406 -0.1099 -0.7945
  151PROXR  H3232005  13.590   9.236  11.899 -0.8096 -1.1020  1.4534
  151PROXR  H3332006  13.767   9.237  11.909  1.6031  2.1672 -1.1565
  152PROXR   O132007  13.575   9.518  11.922 -0.8961  0.3016 -0.9837
  152PROXR   C132008  13.599   9.657  11.881  0.4669 -0.0280  0.4469
  152PROXR  H1132009  13.700   9.692  11.913  0.1485  1.7813 -0.4000
  152PROXR  H1332010  13.578   9.673  11.773 -1.4281  1.5980  0.9945
  152PROXR   C232011  13.488   9.747  11.945 -0.3062  0.7057 -0.2487
  152PROXR  H2132012  13.493   9.734  12.055  0.0662 -1.1395 -0.4600
  152PROXR   C332013  13.347   9.702  11.894  0.4521  0.3874 -0.7176
  152PROXR  H3132014  13.271   9.773  11.932 -0.3390 -1.1205  0.6733
  152PROXR  H3232015  13.347   9.696  11.783  3.4623 -1.6897 -0.7380
  152PROXR  H3332016  13.320   9.603  11.937 -1.2227  1.9754  2.2436
  153PROXR   O132017  13.515   9.884  11.900  0.5040  1.1229 -0.1814
  153PROXR   C132018  13.510   9.981  12.002 -0.1876  0.3153  0.2837
  153PROXR  H1132019  13.425   9.947  12.065 -1.1493  0.1248 -1.0800
  153PROXR  H1332020  13.598   9.967  12.068 -0.9966 -2.6251  0.9010
  153PROXR   C232021  13.491  10.123  11.951  0.4641 -0.2497 -0.3555
  153PROXR  H2132022  13.566  10.148  11.873  1.4956  1.4677  1.1198
  153PROXR   C332023  13.522  10.218  12.070 -0.1281 -0.0387  0.0909
  153PROXR  H3132024  13.518  10.325  12.038  2.0440  0.0336 -0.1070
  153PROXR  H3232025  13.455  10.208  12.157 -0.7022  0.8131 -0.2383
  153PROXR  H3332026  13.630  10.197  12.089  0.3102  0.4558 -1.5821
  154PROXS   O132027  13.360  10.162  11.923  0.1314  0.0694  0.1809
  154PROXS   C132028  13.308  10.095  11.815  0.0136  0.0057  0.0830
  154PROXS  H1132029  13.387  10.059  11.745 -0.5401 -1.6708  0.2694
  154PROXS  H1332030  13.247  10.009  11.848  0.2360 -0.6718 -1.2068
  154PROXS   C232031  13.215  10.187  11.741  0.8262 -0.4256  0.2985
  154PROXS  H2132032  13.272  10.279  11.716 -1.5245  0.6032 -1.7459
  154PROXS   C332033  13.084  10.213  11.817  0.5142  0.0063 -1.1434
  154PROXS  H3132034  13.032  10.115  11.822  1.5394 -0.4863  0.4549
  154PROXS  H3232035  13.110  10.253  11.917  1.7177  2.0467 -2.2161
  154PROXS  H3332036  13.026  10.293  11.767  0.3530  0.1330 -0.7550
  155PROXR   O132037  13.178  10.130  11.616 -0.9002  0.0949 -0.0685
  155PROXR   C132038  13.278  10.161  11.514  0.7076 -0.2009  0.7723
  155PROXR  H1132039  13.263  10.262  11.470  0.6852  0.2323  1.7542
  155PROXR  H1332040  13.383  10.160  11.552  0.6053 -1.0789  1.0589
  155PROXR   C232041  13.288  10.059  11.397  0.1005  0.4172 -0.1479
  155PROXR  H2132042  13.185  10.045  11.359  0.3075  1.2885 -1.0560
  155PROXR   C332043  13.355   9.920  11.440 -0.2719 -0.3015  0.1440
  155PROXR  H3132044  13.451   9.958  11.481 -1.7566  3.8417  0.3031
  155PROXR  H3232045  13.296   9.875  11.523  1.0344 -1.2942  0.5685
  155PROXR  H3332046  13.371   9.859  11.349 -0.1952 -2.7168  1.6687
  156PROXS   O132047  13.358  10.125  11.293 -0.4738 -0.0942  0.2682
  156PROXS   C132048  13.388  10.047  11.175  0.3055 -0.0681 -0.0426
  156PROXS  H1132049  13.488  10.003  11.196  0.1472 -0.0981  0.6624
  156PROXS  H1332050  13.315   9.966  11.155  2.4504 -1.7024 -1.8142
  156PROXS   C232051  13.404  10.118  11.046 -0.0879 -0.4450 -0.2706
  156PROXS  H2132052  13.486  10.192  11.057 -0.8203  0.1828  1.3272
  156PROXS   C332053  13.264  10.193  11.020 -0.5062  0.0786  0.0796
  156PROXS  H3132054  13.260  10.254  10.927 -1.5081  0.8380  0.5950
  156PROXS  H3232055  13.185  10.116  11.035 -0.5607 -0.2329 -1.5750
  156PROXS  H3332056  13.253  10.251  11.114  1.1327  0.6160 -0.0313
  157PROXS   O132057  13.431  10.030  10.940  0.5608 -0.1938  0.8330
  157PROXS   C132058  13.566  10.006  10.927  0.2548 -0.0037  0.0540
  157PROXS  H1132059  13.626  10.094  10.897  2.2718 -1.9243 -1.8940
  157PROXS  H1332060  13.607   9.971  11.024  4.3013  2.3669 -0.5593
  157PROXS   C232061  13.582   9.892  10.826 -0.1139  0.4689  0.1366
  157PROXS  H2132062  13.546   9.935  10.730  2.0477  0.8762 -0.5239
  157PROXS   C332063  13.490   9.767  10.852  0.1899  0.5109 -0.3122
  157PROXS  H3132064  13.480   9.708  10.759  0.4282 -1.0416  0.6132
  157PROXS  H3232065  13.538   9.707  10.933 -0.0897  0.4834 -0.1623
  157PROXS  H3332066  13.388   9.804  10.875 -0.1121 -0.1024 -0.6308
  158PROXR   O132067  13.717   9.859  10.821  0.3840 -0.5686  0.1279
  158PROXR   C132068  13.793   9.934  10.726  0.4889  0.2937 -0.1628
  158PROXR  H1132069  13.800   9.869  10.637  0.5680 -1.9519  1.3964
  158PROXR  H1332070  13.741  10.030  10.705  2.4008  0.7154 -3.8356
  158PROXR   C232071  13.936   9.945  10.780  0.0081  0.0734  0.3323
  158PROXR  H2132072  13.977   9.842  10.785  1.5816  0.6538 -0.1407
  158PROXR   C332073  13.948  10.008  10.918 -0.1931 -0.4599  0.3021
  158PROXR  H3132074  14.048   9.983  10.958 -0.7703 -0.8116  1.5560
  158PROXR  H3232075  13.937  10.117  10.899 -3.7479 -1.2281 -3.7387
  158PROXR  H3332076  13.864   9.979  10.984  0.4777 -0.5604  1.1212
  159PROXR   O132077  14.015  10.019  10.686 -0.5825  0.6306  0.6333
  159PROXR   C132078  14.154  10.003  10.709  0.4618 -0.4944  1.0054
  159PROXR  H1132079  14.196  10.082  10.774 -0.4428  0.3192  0.6142
  159PROXR  H1332080  14.179   9.911  10.767 -0.3539 -1.2471  0.2048
  159PROXR   C232081  14.233  10.003  10.574  0.0144  0.4478 -0.4720
  159PROXR  H2132082  14.226  10.103  10.525  0.1542  0.4636 -0.4611
  159PROXR   C332083  14.183   9.898  10.471 -0.5695 -0.5140 -0.3083
  159PROXR  H3132084  14.210   9.798  10.510 -0.3175 -0.3646 -0.0959
  159PROXR  H3232085  14.072   9.898  10.469 -0.5732  0.4179 -0.6152
  159PROXR  H3332086  14.217   9.913  10.366  1.6003 -0.7388  0.3152
  160PROXS   O132087  14.368   9.963  10.601 -0.1891 -0.1390  0.1840
  160PROXS   C132088  14.449  10.068  10.651  0.1885 -0.3761  0.0239
  160PROXS  H1132089  14.472  10.135  10.566  0.0797 -1.5569 -0.9579
  160PROXS  H1332090  14.396  10.121  10.733 -1.8906 -0.6709 -1.0716
  160PROXS   C232091  14.580  10.003  10.694  0.0861 -0.2352 -0.2081
  160PROXS  H2132092  14.612   9.928  10.617 -0.5204 -0.4178 -0.2857
  160PROXS   C332093  14.570   9.924  10.824 -1.0709 -0.1689 -0.3548
  160PROXS  H3132094  14.488   9.850  10.810 -0.5400 -1.1876  1.5614
  160PROXS  H3232095  14.655   9.856  10.843 -0.4522  0.4755 -0.7740
  160PROXS  H3332096  14.541   9.999  10.900  0.7757 -1.4052  1.6685
  161PROXR   O132097  14.681  10.101  10.707 -0.1842  0.6157  0.0380
  161PROXR   C132098  14.739  10.149  10.587 -0.4384  0.7040 -0.3045
  161PROXR  H1132099  14.784  10.067  10.527 -0.7810  0.7190 -0.5808
  161PROXR  H1332100  14.663  10.187  10.516 -0.6504  1.3018  0.2367
  161PROXR   C232101  14.852  10.260  10.602  0.3952  0.3469 -0.4855
  161PROXR  H2132102  14.918  10.217  10.682 -1.9856 -1.5135  0.6333
  161PROXR   C332103  14.775  10.387  10.647  0.2021 -0.3139 -0.3340
  161PROXR  H3132104  14.728  10.433  10.558  0.1598 -1.4575 -0.9255
  161PROXR  H3232105  14.698  10.359  10.722 -0.6410 -0.3656 -1.1985
  161PROXR  H3332106  14.849  10.455  10.695 -0.5791  0.3693 -0.0732
  162PROXR   O132107  14.925  10.271  10.481  0.1139 -0.4336 -0.3141
  162PROXR   C132108  15.033  10.353  10.498 -0.0976 -0.9980  0.6761
  162PROXR  H1132109  15.005  10.456  10.532 -0.6285  0.0484 -2.5875
  162PROXR  H1332110  15.097  10.312  10.579 -1.4461  0.0600  2.3457
  162PROXR   C232111  15.109  10.368  10.362 -0.0296 -0.4576  0.5040
  162PROXR  H2132112  15.120  10.269  10.314  0.9382 -0.3578  0.5128
  162PROXR   C332113  15.254  10.428  10.377  0.4215  0.6395 -0.4626
  162PROXR  H3132114  15.301  10.444  10.278  1.6823 -0.1801 -0.0226
  162PROXR  H3232115  15.241  10.524  10.431 -1.9024 -0.6349  1.4516
  162PROXR  H3332116  15.316  10.356  10.434 -0.0649 -2.3539 -3.3933
  163PROXS   O132117  15.042  10.464  10.284  0.4407 -0.2054 -0.3237
  163PROXS   C132118  14.936  10.412  10.209 -0.2241  0.7259  0.0480
  163PROXS  H1132119  14.972  10.344  10.129  1.3069  1.3037  0.2100
  163PROXS  H1332120  14.880  10.350  10.283  0.1189  1.0240  0.5635
  163PROXS   C232121  14.829  10.523  10.158 -1.0137  0.7514  0.3527
  163PROXS  H2132122  14.815  10.596  10.241  2.7184 -1.1074  2.8720
  163PROXS   C332123  14.698  10.448  10.120 -0.2556 -0.3538  0.2349
  163PROXS  H3132124  14.624  10.527  10.095  0.7536  0.0430 -1.6280
  163PROXS  H3232125  14.710  10.378  10.035 -1.7806 -1.0396  0.5552
  163PROXS  H3332126  14.661  10.381  10.201  0.4989 -1.1804 -0.0958
  164PROXR   O132127  14.882  10.598  10.047  0.1824 -0.2838  0.3566
  164PROXR   C132128  15.017  10.632  10.061  0.5758  0.2574 -0.3328
  164PROXR  H1132129  15.041  10.662  10.166  0.0584 -2.6352  0.7272
  164PROXR  H1332130  15.078  10.540  10.048  0.6557 -0.6877  4.5405
  164PROXR   C232131  15.054  10.740   9.960 -0.5883  0.5552 -0.7538
  164PROXR  H2132132  15.000  10.833   9.990  0.3266  1.3516 -1.5076
  164PROXR   C332133  15.018  10.712   9.821 -1.0420  0.5879 -0.0157
  164PROXR  H3132134  14.928  10.646   9.817 -0.0530 -0.7579 -0.7926
  164PROXR  H3232135  15.000  10.804   9.761  0.9911  0.6553 -0.5882
  164PROXR  H3332136  15.097  10.643   9.785 -1.1693  1.0083 -1.1282
  165PROXR   O132137  15.197  10.761   9.962  0.1155 -0.4688 -0.4387
  165PROXR   C132138  15.227  10.889   9.894 -0.0454  0.7261 -0.5046
  165PROXR  H1132139  15.201  10.868   9.788 -1.4653 -1.6707  0.2277
  165PROXR  H1332140  15.170  10.976   9.932 -0.1038  1.2006 -1.6513
  165PROXR   C232141  15.372  10.928   9.918 -0.5032  0.7531 -0.3853
  165PROXR  H2132142  15.434  10.844   9.880 -1.8785 -0.3499 -0.2852
  165PROXR   C332143  15.409  10.933  10.067 -0.1951  0.5258  0.4964
  165PROXR  H3132144  15.511  10.974  10.085  0.3226  0.4988 -1.9289
  165PROXR  H3232145  15.334  10.993  10.123 -0.7334 -0.8289  1.2447
  165PROXR  H3332146  15.404  10.830  10.107  0.7922 -0.0086 -0.6766
  166ETHOX   O132147  15.408  11.045   9.848  0.2657 -0.1857  0.9740
  166ETHOX   C132148  15.542  11.041   9.805 -0.1340 -0.0120  0.6934
  166ETHOX  H1132149  15.540  10.953   9.737 -1.6926  1.8528 -1.8846
  166ETHOX  H1332150  15.609  11.021   9.891  0.2458 -2.5900 -0.1208
  166ETHOX   C232151  15.568  11.174   9.734 -1.4756  0.1838 -0.9692
  166ETHOX  H2132152  15.676  11.170   9.709 -0.3953  1.0669  2.9367
  166ETHOX  H2332153  15.559  11.266   9.795  0.0835  0.6411 -1.3869
  167ETHOX   O132154  15.482  11.187   9.620 -0.6819  0.3647  0.0871
  167ETHOX   C132155  15.520  11.308   9.555 -0.6879 -0.7370 -0.2547
  167ETHOX  H1132156  15.502  11.393   9.624 -4.9091 -1.6125 -0.0188
  167ETHOX  H1332157  15.629  11.294   9.538 -0.3059 -0.4413  1.8116
  167ETHOX   C232158  15.456  11.337   9.421  0.5904  0.1034 -0.0019
  167ETHOX  H2132159  15.470  11.440   9.382  1.0220  0.3075  0.6717
  167ETHOX  H2332160  15.345  11.331   9.430  0.7655  0.0742  3.2176
  168ETHOX   O132161  15.509  11.246   9.332 -0.3496  0.0542  0.6163
  168ETHOX   C132162  15.457  11.274   9.207  0.6859  0.4561  0.6958
  168ETHOX  H1132163  15.489  11.375   9.171 -0.6818  0.8809  0.6131
  168ETHOX  H1332164  15.347  11.282   9.218  0.8078  1.8226  1.1530
  168ETHOX   C232165  15.489  11.168   9.101 -0.3777 -0.1145 -0.3023
  168ETHOX  H2132166  15.596  11.142   9.113 -0.7060 -0.5312  2.2145
  168ETHOX  H2332167  15.471  11.211   9.000  0.7094  0.7968 -0.1296
  169ETHOX   O132168  15.406  11.054   9.116  0.5685 -0.4077  0.6872
  169ETHOX   C132169  15.398  10.980   8.996  1.1051  0.6615 -0.3333
  169ETHOX  H1132170  15.330  11.034   8.927 -0.2019  0.1951  0.5440
  169ETHOX  H1332171  15.494  10.962   8.943  0.5840  0.2980 -1.1707
  169ETHOX   C232172  15.327  10.849   9.018 -0.3053  0.3959  0.6243
  169ETHOX  H2132173  15.395  10.794   9.087  1.8823 -0.4293 -1.9798
  169ETHOX  H2332174  15.309  10.785   8.929 -3.2241 -2.7136  3.1921
  170ETHOX   O132175  15.197  10.873   9.067 -0.2152  0.2547  0.2780
  170ETHOX   C132176  15.153  10.771   9.156 -0.9401  0.2798  0.1102
  170ETHOX  H1132177  15.224  10.748   9.239  1.3232 -1.0749 -2.0532
  170ETHOX  H1332178  15.146  10.688   9.082 -0.5103 -1.1984  1.6650
  170ETHOX   C232179  15.016  10.781   9.227  0.2241  0.0655  0.2080
  170ETHOX  H2132180  15.007  10.680   9.273 -0.6114  0.9139  1.9998
  170ETHOX  H2332181  14.932  10.808   9.161  0.2037  1.6494  0.8246
  171ETHOX   O132182  15.017  10.882   9.331 -0.2068  0.1033 -0.6064
  171ETHOX   C132183  14.926  10.834   9.432 -0.1686 -0.0528 -1.0553
  171ETHOX  H1132184  14.829  10.803   9.387 -1.7114  1.7913  0.7946
  171ETHOX  H1332185  14.968  10.751   9.492 -3.9034  2.5290  6.4234
  171ETHOX   C232186  14.911  10.948   9.535  0.2708  0.4982 -0.1103
  171ETHOX  H2132187  14.847  10.898   9.610  1.6629  0.5340  1.1618
  171ETHOX  H2332188  14.863  11.040   9.495 -2.1962 -0.2337  0.9921
  172ETHOX   O132189  15.026  10.996   9.603  0.5151 -0.9650 -0.1573
  172ETHOX   C132190  15.080  11.129   9.572 -1.1039 -0.0138 -0.5491
  172ETHOX  H1132191  15.002  11.189   9.519 -0.7888  1.2781  0.4077
  172ETHOX  H1332192  15.170  11.115   9.509  2.3927  0.2295  3.8876
  172ETHOX   C232193  15.123  11.216   9.689  0.2287  0.8792 -0.4151
  172ETHOX  H2132194  15.176  11.306   9.651  1.7772 -0.4191 -1.5166
  172ETHOX  H2332195  15.179  11.153   9.762  1.6500  0.8705 -1.4566
  173ETHOX   O132196  15.006  11.262   9.745  0.2317 -0.0528  0.0616
  173ETHOX   C132197  15.037  11.338   9.859 -0.9440 -0.6066 -0.5240
  173ETHOX  H1132198  15.040  11.274   9.949 -0.2247  0.5125  0.2880
  173ETHOX  H1332199  15.135  11.392   9.856  0.1961 -2.5882 -0.3058
  173ETHOX   C232200  14.933  11.441   9.889 -0.7086 -0.2864 -0.1621
  173ETHOX  H2132201  14.831  11.398   9.904  0.3537 -1.9665  3.1425
  173ETHOX  H2332202  14.950  11.504   9.978 -4.7295  2.3174 -0.9703
  174ETHOX   O132203  14.930  11.538   9.780  0.1322 -0.2472  0.0985
  174ETHOX   C132204  14.841  11.640   9.808  0.4862  0.2156 -0.3014
  174ETHOX  H1132205  14.752  11.620   9.872  1.3936  0.9248  1.2403
  174ETHOX  H1332206  14.901  11.722   9.852  0.1543  0.2836  0.0369
  174ETHOX   C232207  14.790  11.696   9.677  0.1766  0.3796  0.2567
  174ETHOX  H2132208  14.877  11.705   9.608 -0.2540  2.7316 -0.0562
  174ETHOX  H2332209  14.754  11.800   9.691  2.4286  1.1016  1.1295
  175ETHOX   O132210  14.691  11.605   9.637 -0.2607  0.8995 -0.3912
  175ETHOX   C132211  14.666  11.612   9.500  0.6192 -0.8468 -0.0891
  175ETHOX  H1132212  14.602  11.702   9.502  1.7954  0.0485 -1.1168
  175ETHOX  H1332213  14.756  11.636   9.439  1.7701 -2.5633  0.8354
  175ETHOX   C232214  14.588  11.487   9.447  0.0373  0.5312 -0.3031
  175ETHOX  H2132215  14.511  11.536   9.383  0.5350 -1.4757 -2.6163
  175ETHOX  H2332216  14.542  11.432   9.532 -0.7832 -0.1389 -1.1588
  176ETHOX   O132217  14.668  11.383   9.384  0.5942 -0.1156  0.3373
  176ETHOX   C132218  14.578  11.278   9.341 -0.1827 -0.1753  0.6843
  176ETHOX  H1132219  14.539  11.226   9.431 -0.7553  1.3991  1.3748
  176ETHOX  H1332220  14.495  11.319   9.280 -0.7128 -1.5913  0.3951
  176ETHOX   C232221  14.649  11.169   9.256 -0.4381 -0.1962 -0.4529
  176ETHOX  H2132222  14.569  11.093   9.243  0.5734 -1.2944 -0.4577
  176ETHOX  H2332223  14.731  11.125   9.317  0.0587 -0.9010 -1.6028
  177ETHOX   O132224  14.699  11.220   9.134  0.0862 -0.2827  0.5977
  177ETHOX   C132225  14.731  11.113   9.046 -0.2888  0.9543 -0.5438
  177ETHOX  H1132226  14.671  11.118   8.953 -0.2244 -0.3575 -0.6681
  177ETHOX  H1332227  14.708  11.019   9.100 -0.5747  0.6164 -1.2465
  177ETHOX   C232228  14.876  11.103   9.008 -0.7480 -0.1988  0.0011
  177ETHOX  H2132229  14.905  11.016   8.945  1.0951  0.4455 -0.1204
  177ETHOX  H2332230  14.931  11.089   9.104  1.6024 -0.7238 -1.3376
  178ETHOX   O132231  14.921  11.229   8.957  0.0566 -0.6077  0.0245
  178ETHOX   C132232  15.062  11.238   8.927 -0.6630  0.8848  0.0031
  178ETHOX  H1132233  15.127  11.160   8.972 -0.6152  0.5677 -0.6056
  178ETHOX  H1332234  15.066  11.232   8.816  0.2106  4.2171 -0.2379
  178ETHOX   C232235  15.109  11.376   8.975  0.0599  0.3948 -0.3907
  178ETHOX  H2132236  15.212  11.359   9.013  0.4798  1.5553 -0.9650
  178ETHOX  H2332237  15.061  11.410   9.069  2.7857  0.6018  1.0263
  179ETHOX   O132238  15.105  11.484   8.885  0.3818  0.0521  0.3890
  179ETHOX   C132239  14.978  11.530   8.859 -0.5978  0.1469  0.2087
  179ETHOX  H1132240  14.912  11.523   8.948 -1.3170  0.0993 -0.3162
  179ETHOX  H1332241  14.939  11.473   8.772  2.7336 -1.0059 -0.6812
  179ETHOX   C232242  14.986  11.682   8.841  0.4162  0.2342 -0.1322
  179ETHOX  H2132243  15.041  11.712   8.750  0.5820  1.9902  0.5079
  179ETHOX  H2332244  15.051  11.717   8.925  0.1591 -1.2875  0.7394
  180ETHOX   O132245  14.855  11.730   8.856  0.8799 -0.4009  0.0696
  180ETHOX   C132246  14.840  11.869   8.813 -0.2253  0.2879 -1.0007
  180ETHOX  H1132247  14.928  11.933   8.836  0.5027 -0.8695 -0.4638
  180ETHOX  H1332248  14.835  11.856   8.702 -1.2273 -0.1067 -0.9126
  180ETHOX   C232249  14.715  11.935   8.871 -0.3886  0.1371  0.2446
  180ETHOX  H2132250  14.715  12.041   8.837  0.0981  0.0712  0.0322
  180ETHOX  H2332251  14.722  11.947   8.981 -0.1521  2.0651  0.0571
  181ETHOX   O132252  14.602  11.854   8.838  0.0583 -0.0623 -0.4527
  181ETHOX   C132253  14.484  11.926   8.877  0.3642  0.6176 -0.3186
  181ETHOX  H1132254  14.477  12.019   8.816  0.4114  1.3972  0.8158
  181ETHOX  H1332255  14.501  11.965   8.980  0.1310 -0.5360  0.1656
  181ETHOX   C232256  14.353  11.835   8.855  0.5428 -0.7729  0.1675
  181ETHOX  H2132257  14.334  11.833   8.746  1.4915 -0.5362 -0.0089
  181ETHOX  H2332258  14.268  11.884   8.906 -0.0393 -1.9520  0.3576
  182ETHOX   O132259  14.370  11.714   8.917 -0.2541 -0.3608  0.1066
  182ETHOX   C132260  14.248  11.644   8.917  0.9050  0.2686  0.1250
  182ETHOX  H1132261  14.176  11.699   8.982 -0.4016 -2.8282  1.5363
  182ETHOX  H1332262  14.201  11.645   8.817 -1.8370  1.1365  1.3125
  182ETHOX   C232263  14.258  11.501   8.975  0.3949 -0.9226 -0.1300
  182ETHOX  H2132264  14.163  11.472   9.025  1.6500 -0.6201  2.6328
  182ETHOX  H2332265  14.340  11.504   9.051  0.3765  0.3140 -0.1483
  183ETHOX   O132266  14.282  11.405   8.869 -0.5689  0.3630 -0.0863
  183ETHOX   C132267  14.298  11.275   8.930  0.0715 -0.0917  0.2987
  183ETHOX  H1132268  14.198  11.236   8.959 -0.0569  0.0927  0.0991
  183ETHOX  H1332269  14.372  11.270   9.014  0.7329 -0.5596 -0.2945
  183ETHOX   C232270  14.354  11.171   8.832 -0.2053  0.5354  0.1638
  183ETHOX  H2132271  14.451  11.202   8.787 -1.6433  1.8397 -2.2089
  183ETHOX  H2332272  14.288  11.155   8.745 -0.2780 -2.6689  0.6939
  184ETHOX   O132273  14.371  11.040   8.884 -0.4319 -0.3546 -0.0356
  184ETHOX   C132274  14.459  10.954   8.803  0.1410  0.5967 -0.1801
  184ETHOX  H1132275  14.412  10.926   8.706  0.0385 -0.9148  0.2802
  184ETHOX  H1332276  14.559  11.001   8.789  0.3608 -0.2482 -1.6618
  184ETHOX   C232277  14.480  10.815   8.868 -0.6933  0.1277 -0.8190
  184ETHOX  H2132278  14.546  10.759   8.797 -0.4552  0.3118 -0.7425
  184ETHOX  H2332279  14.378  10.773   8.884  0.7238 -2.7363  2.0681
  185ETHOX   O132280  14.539  10.832   8.998 -0.8255 -0.7388  0.0891
  185ETHOX   C132281  14.571  10.717   9.066  0.6611  1.0802 -0.3376
  185ETHOX  H1132282  14.566  10.756   9.170 -0.4914  0.3366 -0.0929
  185ETHOX  H1332283  14.491  10.641   9.052  1.9770 -0.1894 -1.3412
  185ETHOX   C232284  14.703  10.650   9.027 -0.4145  0.1534 -0.0390
  185ETHOX  H2132285  14.736  10.588   9.113 -1.0943  0.5804  0.5396
  185ETHOX  H2332286  14.769  10.739   9.015 -0.2035 -0.1924 -1.6541
  186ETHOX   O132287  14.689  10.580   8.903 -0.2221 -0.3353 -0.2752
  186ETHOX   C132288  14.812  10.524   8.857 -0.2303 -0.1334  0.1827
  186ETHOX  H1132289  14.774  10.490   8.758  1.3501 -1.0918 -0.1352
  186ETHOX  H1332290  14.885  10.607   8.846  0.1672 -0.4807  0.1925
  186ETHOX   C232291  14.856  10.401   8.935  0.8617 -0.3520 -0.6660
  186ETHOX  H2132292  14.921  10.340   8.869  1.2028  0.2378 -0.8779
  186ETHOX  H2332293  14.770  10.338   8.967  1.4281 -0.0699  1.5753
  187ETHOX   O132294  14.935  10.441   9.055  0.1889  0.1756  0.5118
  187ETHOX   C132295  14.980  10.327   9.126 -0.6817 -0.3313  0.3976
  187ETHOX  H1132296  14.891  10.277   9.171  0.5652  0.5820  4.2805
  187ETHOX  H1332297  15.020  10.256   9.050  1.4252  1.2332 -0.0474
  187ETHOX   C232298  15.084  10.367   9.240  0.2009  0.1258 -0.7468
  187ETHOX  H2132299  15.137  10.460   9.211  0.9033 -0.2837 -0.8212
  187ETHOX  H2332300  15.154  10.281   9.248  0.3201  0.3610  1.2634
  188ETHOX   O132301  15.028  10.386   9.371 -0.0029 -0.1146  0.0531
  188ETHOX   C132302  15.120  10.403   9.476  0.0237  0.2553  0.0048
  188ETHOX  H1132303  15.176  10.499   9.478  0.0671  0.2245  0.6266
  188ETHOX  H1332304  15.198  10.324   9.480 -0.3658 -0.0756  1.9014
  188ETHOX   C232305  15.056  10.408   9.616 -0.1324  0.5287  0.2521
  188ETHOX  H2132306  14.989  10.497   9.610 -1.6836 -0.5840  0.2409
  188ETHOX  H2332307  15.138  10.432   9.687  0.5836 -0.9237 -0.0407
  189ETHOX   O132308  14.983  10.294   9.656  0.5180 -0.4133  0.0792
  189ETHOX   C132309  14.883  10.327   9.751 -0.4304  0.2111  0.3675
  189ETHOX  H1132310  14.851  10.241   9.813 -0.6955 -0.0985 -0.1879
  189ETHOX  H1332311  14.927  10.405   9.817 -1.3876  1.1104 -0.0277
  189ETHOX   C232312  14.743  10.380   9.700  0.0184 -0.1264 -0.1590
  189ETHOX  H2132313  14.756  10.453   9.617  0.8323  2.3102  1.9899
  189ETHOX  H2332314  14.702  10.423   9.794  1.3050 -0.8639  0.7718
  190ETHOX   O132315  14.656  10.273   9.666 -0.3735 -0.5371  1.1017
  190ETHOX   C132316  14.533  10.322   9.614  0.3482  0.0753  0.3558
  190ETHOX  H1132317  14.550  10.382   9.522  0.5608 -0.3580  0.1070
  190ETHOX  H1332318  14.488  10.384   9.694 -1.2392  0.6261 -0.9079
  190ETHOX   C232319  14.438  10.210   9.579  0.2447 -0.0607  0.2751
  190ETHOX  H2132320  14.479  10.155   9.491  0.6723  0.7484 -0.0417
  190ETHOX  H2332321  14.348  10.264   9.546  0.3903 -0.1149 -0.2126
  191ETHOX   O132322  14.395  10.118   9.682 -0.0121  0.2583 -0.4117
  191ETHOX   C132323  14.338   9.995   9.625  0.0010  0.3335 -0.1862
  191ETHOX  H1132324  14.257  10.011   9.550 -0.6190  3.5826  1.0047
  191ETHOX  H1332325  14.423   9.955   9.566 -0.2743  0.1253 -0.4481
  191ETHOX   C232326  14.298   9.888   9.735 -0.0338  0.1861  0.2870
  191ETHOX  H2132327  14.271   9.792   9.686  0.4571  0.6860 -0.9977
  191ETHOX  H2332328  14.200   9.920   9.777  0.1485  0.5951  0.3982
  192ETHOX   O132329  14.383   9.863   9.842 -0.8669  0.3276  0.4339
  192ETHOX   C132330  14.325   9.774   9.942 -0.2522 -0.0549  0.0610
  192ETHOX  H1132331  14.227   9.726   9.919  0.3676 -1.6963  0.6784
  192ETHOX  H1332332  14.321   9.832  10.036  0.3193  2.5813 -1.4326
  192ETHOX   C232333  14.415   9.656   9.991 -0.1218 -0.2329  0.0013
  192ETHOX  H2132334  14.386   9.613  10.089 -0.5883 -0.7627 -0.3601
  192ETHOX  H2332335  14.516   9.703   9.999 -0.9512  1.7990 -0.8302
  193ETHOX   O132336  14.411   9.552   9.897  0.3052 -0.2964 -0.0866
  193ETHOX   C132337  14.505   9.456   9.941 -0.2566  0.0277  0.2896
  193ETHOX  H1132338  14.605   9.497   9.916  0.4003 -1.8738 -0.4431
  193ETHOX  H1332339  14.507   9.431  10.049  2.3215 -1.3331  0.0113
  193ETHOX   C232340  14.491   9.333   9.853 -0.7553  0.3008 -0.0731
  193ETHOX  H2132341  14.392   9.283   9.866 -1.1453  0.7894 -1.0517
  193ETHOX  H2332342  14.563   9.257   9.890 -1.4606 -0.9371 -1.1257
  194ETHOX   O132343  14.518   9.344   9.710 -0.5091  0.3081  0.2047
  194ETHOX   C132344  14.445   9.251   9.626  0.1609 -0.0774 -0.4467
  194ETHOX  H1132345  14.337   9.279   9.629  0.2695  0.2841  0.9615
  194ETHOX  H1332346  14.464   9.154   9.675  0.9354  0.6261  0.6928
  194ETHOX   C232347  14.500   9.240   9.483 -0.3512  0.1882  0.2812
  194ETHOX  H2132348  14.475   9.138   9.445 -2.2048 -0.4643  2.9915
  194ETHOX  H2332349  14.611   9.239   9.476 -0.2230  0.9600  1.7161
  195ETHOX   O132350  14.452   9.343   9.396 -0.7334  0.2977  0.5979
  195ETHOX   C132351  14.513   9.330   9.266  0.2236  0.5740  0.4297
  195ETHOX  H1132352  14.623   9.343   9.255  0.8031 -2.1035  2.2011
  195ETHOX  H1332353  14.488   9.228   9.230  0.9164  0.5562 -0.0128
  195ETHOX   C232354  14.444   9.418   9.157 -0.0980  0.2185 -0.1324
  195ETHOX  H2132355  14.335   9.424   9.177  0.2260  1.7928  1.3589
  195ETHOX  H2332356  14.445   9.369   9.057 -0.8530  1.5255 -0.8081
  196ETHOX   O132357  14.502   9.547   9.148 -0.2511 -0.2278  0.1612
  196ETHOX   C132358  14.441   9.619   9.034 -0.5585 -0.5330  0.2363
  196ETHOX  H1132359  14.336   9.586   9.018  0.2360 -1.6316 -3.7787
  196ETHOX  H1332360  14.441   9.729   9.052 -0.1258 -0.7252  1.5228
  196ETHOX   C232361  14.524   9.584   8.909  0.0156  0.4362  0.1952
  196ETHOX  H2132362  14.629   9.588   8.944  0.1926 -3.8836  0.6511
  196ETHOX  H2332363  14.497   9.660   8.832  1.0574  0.1860 -0.4391
  197ETHOX   O132364  14.505   9.455   8.849  0.0961  0.4538 -0.4571
  197ETHOX   C132365  14.595   9.429   8.748  0.0112 -0.1876 -0.5355
  197ETHOX  H1132366  14.564   9.335   8.697 -3.5681  0.2096  0.6177
  197ETHOX  H1332367  14.583   9.511   8.674 -4.8599  1.0181  1.2548
  197ETHOX   C232368  14.746   9.410   8.771 -0.2718 -0.4876  0.2868
  197ETHOX  H2132369  14.788   9.492   8.833 -1.5842  0.2336  0.2613
  197ETHOX  H2332370  14.787   9.416   8.669 -2.2964  0.8311 -0.5163
  198ETHOX   O132371  14.778   9.282   8.816 -0.2240  0.3911 -0.0183
  198ETHOX   C132372  14.778   9.268   8.960 -0.2149 -0.0456 -0.2618
  198ETHOX  H1132373  14.844   9.346   9.003  0.3789  0.1674 -1.5042
  198ETHOX  H1332374  14.676   9.294   8.996 -0.5788 -0.1759 -1.1610
  198ETHOX   C232375  14.808   9.126   9.021 -0.3855  0.5412  0.6016
  198ETHOX  H2132376  14.913   9.106   8.989 -0.7097  0.5189 -0.4597
  198ETHOX  H2332377  14.736   9.046   8.995 -0.6705  0.5665  1.2822
  199ETHOX   O132378  14.813   9.147   9.164  0.4052  0.5266  0.7021
  199ETHOX   C132379  14.840   9.023   9.225 -0.4049 -0.2386  0.2797
  199ETHOX  H1132380  14.876   9.049   9.326  1.3158 -2.1745  0.2241
  199ETHOX  H1332381  14.924   8.964   9.183 -1.4604 -2.1277  0.6771
  199ETHOX   C232382  14.722   8.929   9.243  0.4837 -0.0160  0.0953
  199ETHOX  H2132383  14.636   8.991   9.277  0.5145  2.1026 -3.2456
  199ETHOX  H2332384  14.744   8.844   9.310  1.4594 -2.1576 -2.7422
  200ETHOX   O132385  14.684   8.868   9.116 -0.0623 -0.4880 -0.4180
  200ETHOX   C132386  14.554   8.809   9.136 -1.2175 -0.4730 -0.7976
  200ETHOX  H1132387  14.568   8.707   9.177  0.8344 -0.4113 -1.2642
  200ETHOX  H1332388  14.485   8.872   9.197  0.2307  1.0723 -0.6943
  200ETHOX   C232389  14.483   8.810   9.001  0.6122  0.2150  0.4458
  200ETHOX  H2132390  14.542   8.750   8.929  1.2364 -0.6067  1.6176
  200ETHOX  H2332391  14.475   8.915   8.966 -0.5438  0.9046  2.6067
  201ETHOX   O132392  14.348   8.765   9.035 -0.1919 -0.1124  0.2805
  201ETHOX   C132393  14.260   8.776   8.924 -0.4273  0.0084  0.6779
  201ETHOX  H1132394  14.274   8.877   8.880  0.8509  0.4093  1.9091
  201ETHOX  H1332395  14.158   8.774   8.966 -0.4635  1.3447  0.7100
  201ETHOX   C232396  14.292   8.675   8.812 -1.0205 -0.0183  0.6794
  201ETHOX  H2132397  14.401   8.664   8.797 -0.9992  1.1615 -0.1268
  201ETHOX  H2332398  14.254   8.687   8.709  1.4032 -2.6666 -0.6843
  202ETHOX   O132399  14.233   8.553   8.846  0.1243 -0.3337 -0.3307
  202ETHOX   C132400  14.315   8.451   8.898 -0.0646  0.3613 -0.0488
  202ETHOX  H1132401  14.364   8.498   8.986  2.0103 -0.7093 -0.5558
  202ETHOX  H1332402  14.240   8.379   8.936 -0.7569  1.5183  0.8319
  202ETHOX   C232403  14.402   8.392   8.784  0.4101 -0.5832 -0.5448
  202ETHOX  H2132404  14.336   8.387   8.695 -3.2553  3.9041  1.4890
  202ETHOX  H2332405  14.437   8.292   8.818  0.1234 -1.0841 -1.6786
  203ETHOX   O132406  14.518   8.470   8.764 -0.2929 -0.0741  0.5527
  203ETHOX   C132407  14.619   8.409   8.684 -0.3549 -0.3826  0.4221
  203ETHOX  H1132408  14.569   8.364   8.596  0.5028 -1.6813  0.5797
  203ETHOX  H1332409  14.653   8.328   8.752 -0.8839  0.5048  1.7892
  203ETHOX   C232410  14.732   8.499   8.641 -0.9363 -0.3087 -0.3465
  203ETHOX  H2132411  14.692   8.597   8.606  1.2941  0.9095  0.2573
  203ETHOX  H2332412  14.793   8.453   8.560  2.1797  0.3346  1.4642
  204ETHOX   O132413  14.830   8.518   8.741  0.2054  0.1596 -0.4388
  204ETHOX   C132414  14.794   8.613   8.838 -0.8006  0.1715  0.7029
  204ETHOX  H1132415  14.758   8.706   8.790 -0.6155  0.0126  0.2495
  204ETHOX  H1332416  14.703   8.565   8.881  0.2248 -0.3299  2.3906
  204ETHOX   C232417  14.885   8.630   8.961  0.2817 -0.0071  0.4342
  204ETHOX  H2132418  14.935   8.531   8.972 -1.3744 -1.0363 -0.9149
  204ETHOX  H2332419  14.817   8.642   9.049 -0.4200  0.0828 -0.1119
  205ETHOX   O132420  14.989   8.726   8.935  0.0493 -0.0558 -0.2044
  205ETHOX   C132421  15.077   8.723   9.049 -0.0391  1.2302  0.0441
  205ETHOX  H1132422  15.110   8.621   9.079  0.4847  1.8411  1.6588
  205ETHOX  H1332423  15.025   8.769   9.136  1.1119  0.2175  1.3143
  205ETHOX   C232424  15.212   8.805   9.032 -0.5679  0.3722  0.1672
  205ETHOX  H2132425  15.234   8.843   9.133  0.1576 -1.0422  0.5742
  205ETHOX  H2332426  15.200   8.888   8.959 -1.3541 -0.6485 -0.9116
  206ETHOX   O132427  15.314   8.719   8.986 -0.0626 -0.9749  0.0558
  206ETHOX   C132428  15.428   8.799   8.941  1.0644  0.0371  0.0224
  206ETHOX  H1132429  15.399   8.840   8.841 -0.9685 -0.7661  0.2218
  206ETHOX  H1332430  15.459   8.883   9.007  2.0267  0.1903 -0.6142
  206ETHOX   C232431  15.553   8.705   8.916  1.4385 -0.1523  0.1012
  206ETHOX  H2132432  15.509   8.607   8.886 -2.5400  1.2143  0.8700
  206ETHOX  H2332433  15.614   8.757   8.839 -0.0763 -0.7113 -1.5653
  207ETHOX   O132434  15.620   8.686   9.041  0.0186 -0.2324 -0.1799
  207ETHOX   C132435  15.722   8.585   9.023 -0.6555 -0.2463 -0.6301
  207ETHOX  H1132436  15.786   8.618   8.939  0.9728 -2.0239 -0.1576
  207ETHOX  H1332437  15.656   8.498   9.003 -2.8933  0.8975  1.2314
  207ETHOX   C232438  15.799   8.546   9.144 -0.2792 -0.1786 -0.1107
  207ETHOX  H2132439  15.869   8.464   9.114 -0.6118 -1.0081  1.2650
  207ETHOX  H2332440  15.730   8.518   9.227 -0.0375  0.5903  0.3588
  208ETHOX   O132441  15.887   8.654   9.184 -0.6438 -0.5288  0.1785
  208ETHOX   C132442  15.964   8.628   9.305  0.0379 -0.0348  0.0101
  208ETHOX  H1132443  15.898   8.604   9.391 -4.3208  0.0261 -3.0258
  208ETHOX  H1332444  16.033   8.545   9.275  2.1078  1.2074  1.0895
  208ETHOX   C232445  16.044   8.750   9.352  0.3576  1.0915 -0.5355
  208ETHOX  H2132446  16.090   8.731   9.451  0.9500  2.7974 -0.4520
  208ETHOX  H2332447  15.969   8.831   9.361 -1.8323 -0.8980  0.0960
  209ETHOX   O132448  16.151   8.778   9.256  0.4127  0.0986  0.2577
  209ETHOX   C132449  16.213   8.901   9.296 -0.1116  0.5163  0.1645
  209ETHOX  H1132450  16.249   8.897   9.400 -0.7027 -0.0943  0.3478
  209ETHOX  H1332451  16.141   8.986   9.294 -1.1038 -0.2186  2.2794
  209ETHOX   C232452  16.323   8.918   9.192 -0.1200  0.3128  0.1891
  209ETHOX  H2132453  16.389   8.829   9.183 -1.3587 -0.7400  1.1551
  209ETHOX  H2332454  16.376   9.004   9.240 -0.7317  1.2341 -0.7348
  210ETHOX   O132455  16.277   8.959   9.063  0.0455 -0.2578 -0.4035
  210ETHOX   C132456  16.376   8.966   8.960  0.9472  0.0454 -0.1957
  210ETHOX  H1132457  16.454   9.041   8.986 -0.3003  1.5026 -0.5030
  210ETHOX  H1332458  16.410   8.862   8.941 -3.7082 -1.5015 -1.6424
  210ETHOX   C232459  16.300   9.022   8.838  0.0745 -0.2970 -0.8848
  210ETHOX  H2132460  16.214   8.954   8.821 -0.2656 -0.0280 -0.2763
  210ETHOX  H2332461  16.357   9.008   8.744 -0.4593  1.1251 -1.4502
  211ETHOX   O132462  16.243   9.151   8.855  0.3593  0.2346 -0.3977
  211ETHOX   C132463  16.336   9.248   8.804 -0.5092  0.3793  0.0237
  211ETHOX  H1132464  16.431   9.241   8.860 -1.6613  1.6116  2.2759
  211ETHOX  H1332465  16.357   9.217   8.699  3.0923 -2.6492  1.4311
  211ETHOX   C232466  16.290   9.391   8.804  0.0553 -0.7031  0.6176
  211ETHOX  H2132467  16.365   9.456   8.755 -1.0461  0.5535  0.5217
  211ETHOX  H2332468  16.280   9.421   8.910  0.7663 -0.5433  0.6444
  212ETHOX   O132469  16.163   9.413   8.761  0.5373 -0.2201  0.0754
  212ETHOX   C132470  16.136   9.549   8.739 -0.2411  0.4600 -0.0512
  212ETHOX  H1132471  16.166   9.597   8.835 -0.1032  0.0754  0.0999
  212ETHOX  H1332472  16.213   9.579   8.665 -0.7904  1.4420 -0.2368
  212ETHOX   C232473  15.990   9.576   8.692  0.4078 -0.4525  0.5007
  212ETHOX  H2132474  15.972   9.511   8.605 -2.9748  0.0397  0.6975
  212ETHOX  H2332475  15.973   9.680   8.656  0.5947 -0.6900 -0.2894
  213ETHOX   O132476  15.905   9.555   8.803  1.0167  0.4123  0.6966
  213ETHOX   C132477  15.773   9.561   8.774 -0.6173  0.0820  0.3320
  213ETHOX  H1132478  15.758   9.641   8.698  1.4796 -2.1359 -2.6473
  213ETHOX  H1332479  15.740   9.464   8.731 -0.6485 -0.9310  2.5063
  213ETHOX   C232480  15.692   9.573   8.905  0.4077  0.2653  0.1900
  213ETHOX  H2132481  15.722   9.486   8.968 -0.0598 -1.0493 -1.3314
  213ETHOX  H2332482  15.589   9.568   8.864  0.5466 -0.5055 -0.0812
  214ETHOX   O132483  15.715   9.698   8.967 -0.6887 -0.7387  0.0705
  214ETHOX   C132484  15.620   9.716   9.076 -0.6570  0.6456  0.4968
  214ETHOX  H1132485  15.518   9.700   9.034 -0.4035 -0.5944  0.3436
  214ETHOX  H1332486  15.615   9.822   9.110 -3.1325  0.5054  0.7352
  214ETHOX   C232487  15.651   9.627   9.203  0.0234 -0.3137  0.2837
  214ETHOX  H2132488  15.629   9.687   9.294 -1.0906 -0.2565 -0.0153
  214ETHOX  H2332489  15.760   9.604   9.201  0.0957 -0.0326 -1.9863
  215ETHOX   O132490  15.584   9.503   9.199 -0.3801 -0.0895  0.0937
  215ETHOX   C132491  15.449   9.519   9.227 -0.1646 -0.2681  0.0655
  215ETHOX  H1132492  15.447   9.561   9.330 -1.7119  1.9706 -0.7902
  215ETHOX  H1332493  15.393   9.594   9.166  1.1929  0.7997  0.0721
  215ETHOX   C232494  15.375   9.383   9.231  0.2834 -0.3410 -0.8288
  215ETHOX  H2132495  15.287   9.395   9.298 -0.0170 -0.0063 -1.2839
  215ETHOX  H2332496  15.443   9.311   9.283  1.0150  0.5138 -0.5805
  216ETHOX   O132497  15.329   9.335   9.109  0.6527 -0.5038  0.7955
  216ETHOX   C132498  15.267   9.214   9.138 -0.1346 -0.0846  0.0870
  216ETHOX  H1132499  15.213   9.223   9.235 -2.1265  2.0148 -1.1272
  216ETHOX  H1332500  15.350   9.141   9.154 -0.1786 -0.1835 -0.1401
  216ETHOX   C232501  15.184   9.171   9.007 -0.0330  0.2420 -0.1278
  216ETHOX  H2132502  15.119   9.257   8.980 -1.5338 -0.5775  0.7578
  216ETHOX  H2332503  15.122   9.087   9.043  1.4910 -0.1752  1.7103
  217ETHOX   O132504  15.276   9.120   8.913  0.0539 -0.2318 -0.3283
  217ETHOX   C132505  15.237   9.121   8.780  0.6141 -0.1711  0.2024
  217ETHOX  H1132506  15.184   9.026   8.758 -0.4418  0.1837  1.1094
  217ETHOX  H1332507  15.170   9.205   8.754  0.6367 -0.9066 -2.4920
  217ETHOX   C232508  15.359   9.118   8.683 -0.1160 -0.2922 -0.2863
  217ETHOX  H2132509  15.315   9.089   8.585  0.2487  1.1725 -0.8980
  217ETHOX  H2332510  15.414   9.030   8.724 -0.8988  0.1211  1.7901
  218ETHOX   O132511  15.438   9.233   8.666 -0.1526 -0.1444 -0.0038
  218ETHOX   C132512  15.486   9.288   8.782  0.4368  0.7616  0.0192
  218ETHOX  H1132513  15.411   9.307   8.862 -0.0840  0.5212 -0.4034
  218ETHOX  H1332514  15.529   9.386   8.753  4.1409 -1.0491 -1.1906
  218ETHOX   C232515  15.596   9.204   8.854  0.2304 -0.3255  0.4684
  218ETHOX  H2132516  15.560   9.099   8.863 -0.4140 -0.0476  1.2416
  218ETHOX  H2332517  15.615   9.250   8.953 -0.8702  1.0231  0.0770
  219ETHOX   O132518  15.716   9.206   8.775  0.0341  0.4401  0.7868
  219ETHOX   C132519  15.815   9.119   8.828  0.8281  0.2927 -0.4576
  219ETHOX  H1132520  15.849   9.163   8.924 -1.8424  2.0107 -0.1898
  219ETHOX  H1332521  15.768   9.021   8.854  1.7862  0.6566  3.1254
  219ETHOX   C232522  15.937   9.102   8.740  0.2131  0.0164 -0.0622
  219ETHOX  H2132523  16.014   9.041   8.793  1.5908  1.8818  0.1588
  219ETHOX  H2332524  15.984   9.200   8.720 -0.7672  0.7009  0.8917
  220ETHOX   O132525  15.900   9.031   8.623  0.3302 -0.5009  0.4403
  220ETHOX   C132526  16.009   9.033   8.523 -0.2220  0.0128  0.2190
  220ETHOX  H1132527  16.107   9.073   8.557  0.7807 -1.4794 -0.7892
  220ETHOX  H1332528  15.981   9.097   8.437  2.2519 -0.3169 -0.9312
  220ETHOX   C232529  16.035   8.894   8.461  0.9389 -1.2529 -0.3258
  220ETHOX  H2132530  16.092   8.917   8.368  0.8146 -0.7900 -0.2878
  220ETHOX  H2332531  15.941   8.840   8.437  2.0302 -2.3763 -2.3696
  221ETHOX   O132532  16.112   8.811   8.544 -0.0646 -0.2833  0.2236
  221ETHOX   C132533  16.178   8.703   8.477  0.3349 -0.3806 -0.2591
  221ETHOX  H1132534  16.106   8.618   8.482  0.9333 -0.9157 -0.5396
  221ETHOX  H1332535  16.204   8.724   8.371  3.3007  0.3297  0.5154
  221ETHOX   C232536  16.296   8.668   8.575  0.1375  0.4475  0.5121
  221ETHOX  H2132537  16.353   8.593   8.516  0.8966  1.6746 -0.3481
  221ETHOX  H2332538  16.257   8.615   8.665 -1.7305 -3.3764 -2.2251
  222ETHOX   O132539  16.390   8.766   8.606  0.3997  0.2010  0.2764
  222ETHOX   C132540  16.487   8.712   8.694  0.6698 -0.5003  0.1787
  222ETHOX  H1132541  16.442   8.712   8.795  0.3744 -0.5489  0.0493
  222ETHOX  H1332542  16.508   8.605   8.672  1.2687 -0.3542  0.0308
  222ETHOX   C232543  16.623   8.788   8.677 -0.4456  0.1320 -0.1665
  222ETHOX  H2132544  16.640   8.817   8.571  0.2995 -1.4327 -0.5062
  222ETHOX  H2332545  16.701   8.718   8.714 -0.1178 -0.9851 -2.7029
  223ETHOX   O132546  16.623   8.908   8.755 -0.3879  0.4199  0.0353
  223ETHOX   C132547  16.752   8.969   8.765 -0.3723 -0.1893  0.1042
  223ETHOX  H1132548  16.745   9.060   8.829  3.4261  0.4794 -0.2315
  223ETHOX  H1332549  16.813   8.888   8.810 -0.4503 -0.8232 -0.8976
  223ETHOX   C232550  16.809   9.020   8.630 -0.0076  0.6171  0.3544
  223ETHOX  H2132551  16.805   8.936   8.558  0.3512 -0.6992  1.8125
  223ETHOX  H2332552  16.918   9.037   8.639  0.3671  0.5828 -3.0380
  224ETHOX   O132553  16.757   9.151   8.586 -0.1718  0.3907  0.1873
  224ETHOX   C132554  16.822   9.207   8.469  0.1554  0.0438  0.8641
  224ETHOX  H1132555  16.929   9.177   8.469  0.4393  0.9258  2.4563
  224ETHOX  H1332556  16.773   9.166   8.378 -1.6276  1.0279  1.3291
  224ETHOX   C232557  16.797   9.360   8.469 -0.8633 -0.3104  0.6404
  224ETHOX  H2132558  16.689   9.385   8.456 -0.7401 -0.5609 -1.0952
  224ETHOX  H2332559  16.864   9.397   8.389  1.0814  0.2788  2.4608
  225ETHOX   O132560  16.853   9.418   8.582  0.5062 -0.2544  0.0883
  225ETHOX   C132561  16.824   9.561   8.587  0.2394 -0.0021  0.2275
  225ETHOX  H1132562  16.715   9.578   8.577 -0.2799 -1.7769  2.1738
  225ETHOX  H1332563  16.875   9.616   8.505  1.7298  1.5264  2.0742
  225ETHOX   C232564  16.870   9.645   8.707 -0.6376 -0.6884  0.7561
  225ETHOX  H2132565  16.841   9.752   8.694  1.0810  0.0837  2.7010
  225ETHOX  H2332566  16.981   9.645   8.701 -0.7003 -1.3121 -0.7271
  226ETHOX   O132567  16.817   9.586   8.827 -0.5531  0.1616  0.0119
  226ETHOX   C132568  16.882   9.624   8.950 -0.5155 -0.1408  0.3229
  226ETHOX  H1132569  16.985   9.584   8.938 -0.6952 -0.1496 -1.4912
  226ETHOX  H1332570  16.888   9.733   8.974  2.3608 -0.0758 -0.3179
  226ETHOX   C232571  16.811   9.547   9.073 -0.4339 -0.1655  0.3542
  226ETHOX  H2132572  16.893   9.555   9.148  1.0646  1.6220 -1.3601
  226ETHOX  H2332573  16.806   9.438   9.049  1.8595 -0.5036  1.1293
  227ETHOX   O132574  16.695   9.607   9.120  0.2791 -0.3024 -0.1493
  227ETHOX   C132575  16.664   9.549   9.247 -1.2597  0.3486 -0.2348
  227ETHOX  H1132576  16.752   9.570   9.312 -0.4179  0.0434 -1.2463
  227ETHOX  H1332577  16.636   9.442   9.237 -1.5466  0.3854  0.1485
  227ETHOX   C232578  16.550   9.628   9.297 -0.0140 -0.0262  0.1101
  227ETHOX  H2132579  16.577   9.735   9.286  1.6631 -0.3156  1.1636
  227ETHOX  H2332580  16.534   9.605   9.405 -2.2280  1.3709  0.1362
  228ETHOX   O132581  16.434   9.615   9.219 -0.0196  0.4757  0.8245
  228ETHOX   C132582  16.317   9.655   9.289  0.3006  0.2263  0.4703
  228ETHOX  H1132583  16.295   9.578   9.366 -0.9412  2.0506  2.0412
  228ETHOX  H1332584  16.327   9.750   9.344  2.8695  0.1332  0.2582
  228ETHOX   C232585  16.195   9.674   9.187  0.1418  0.4392  0.4952
  228ETHOX  H2132586  16.103   9.658   9.249 -1.0731  3.3251 -0.4206
  228ETHOX  H2332587  16.196   9.590   9.115 -0.2095  0.1264  0.8477
  229ETHOX   O132588  16.190   9.798   9.111  0.6251 -0.2827 -0.2796
  229ETHOX   C132589  16.057   9.828   9.059  0.1302  0.0264 -0.2514
  229ETHOX  H1132590  15.983   9.759   9.106  0.6518  0.2158  0.8937
  229ETHOX  H1332591  16.064   9.824   8.948 -3.1241  1.3165 -0.6217
  229ETHOX   C232592  16.011   9.974   9.100  0.2316 -0.0041  0.5843
  229ETHOX  H2132593  15.928   9.998   9.031  1.0497  1.0369 -0.0953
  229ETHOX  H2332594  16.093  10.042   9.067  0.3412 -0.0206  0.8185
  230ETHOX   O132595  15.983   9.994   9.237  0.8861  0.0012  0.0050
  230ETHOX   C132596  15.904  10.109   9.264 -0.2507 -1.0269  0.7590
  230ETHOX  H1132597  15.812  10.122   9.202  0.6205  0.9315 -0.2047
  230ETHOX  H1332598  15.877  10.088   9.370 -0.5720 -0.3107  0.8269
  230ETHOX   C232599  15.989  10.241   9.264  0.0403  0.0325 -0.5641
  230ETHOX  H2132600  15.909  10.313   9.291  0.6457  0.9532 -1.1921
  230ETHOX  H2332601  16.027  10.263   9.162 -0.2379  1.5400 -0.3646
  231ETHOX   O132602  16.087  10.247   9.375 -0.0382  0.4522  0.1456
  231ETHOX   C132603  16.186  10.352   9.364 -0.0165 -0.3599 -0.3961
  231ETHOX  H1132604  16.224  10.359   9.468 -0.1352  0.3984 -0.3980
  231ETHOX  H1332605  16.140  10.452   9.349  2.6372  1.2883  1.5537
  231ETHOX   C232606  16.303  10.320   9.273 -0.3983 -0.4756  0.0441
  231ETHOX  H2132607  16.349  10.225   9.308  1.4005  0.6883  0.9985
  231ETHOX  H2332608  16.377  10.402   9.290 -1.2915  0.3708 -0.0891
  232ETHOX   O132609  16.265  10.327   9.135 -0.0556  0.1432 -0.3885
  232ETHOX   C132610  16.375  10.320   9.042  0.8774 -0.4465  0.0935
  232ETHOX  H1132611  16.441  10.408   9.061  1.8695 -1.1622 -0.0270
  232ETHOX  H1332612  16.435  10.228   9.055  0.6078 -0.8308 -1.2837
  232ETHOX   C232613  16.315  10.315   8.899 -0.2082  0.0197  0.2248
  232ETHOX  H2132614  16.392  10.324   8.820 -1.0228  0.2742 -0.5564
  232ETHOX  H2332615  16.240  10.396   8.886  0.0971  0.3478  0.5053
  233ETHOX   O132616  16.245  10.188   8.881  0.0704 -0.1736 -0.0096
  233ETHOX   C132617  16.109  10.204   8.839 -0.1031 -0.2788  0.4995
  233ETHOX  H1132618  16.064  10.103   8.845  0.5811 -0.5916  0.3718
  233ETHOX  H1332619  16.057  10.278   8.905  1.8464  0.9080  0.7888
  233ETHOX   C232620  16.097  10.242   8.697  0.1282  0.0660  0.0535
  233ETHOX  H2132621  16.004  10.202   8.651  0.4578  0.4619 -0.9866
  233ETHOX  H2332622  16.172  10.179   8.645 -2.5671 -2.7967 -0.6381
  234ETHOX   O132623  16.106  10.381   8.674  0.7410 -0.3629 -0.2351
  234ETHOX   C132624  16.114  10.411   8.538  0.5060 -0.0329  0.9604
  234ETHOX  H1132625  16.216  10.393   8.499  0.5471  1.2823  0.4078
  234ETHOX  H1332626  16.043  10.353   8.475  0.3538  2.5280 -1.4410
  234ETHOX   C232627  16.087  10.557   8.494 -0.2605  0.0516 -0.0161
  234ETHOX  H2132628  16.011  10.615   8.550  0.0349  1.1031 -0.6611
  234ETHOX  H2332629  16.055  10.559   8.387  0.7273  2.4669 -0.3542
  235ETHOX   O132630  16.205  10.640   8.506 -0.4465 -0.2695  0.2862
  235ETHOX   C132631  16.245  10.659   8.644  0.3209  0.1462 -0.0583
  235ETHOX  H1132632  16.168  10.715   8.700  0.8817  1.8322 -0.9021
  235ETHOX  H1332633  16.250  10.559   8.691 -1.5916 -0.5688 -1.2556
  235ETHOX   C232634  16.383  10.723   8.652  0.6785  0.8386 -0.4301
  235ETHOX  H2132635  16.450  10.671   8.581 -1.7833 -0.6657 -1.8004
  235ETHOX  H2332636  16.425  10.704   8.753 -0.8699 -1.7495 -0.1838
  236ETHOX   O132637  16.376  10.862   8.638 -0.3486 -0.3406  0.3317
  236ETHOX   C132638  16.356  10.925   8.767 -0.3670 -0.2167 -0.2844
  236ETHOX  H1132639  16.447  10.895   8.824 -1.0356 -1.4785  0.1596
  236ETHOX  H1332640  16.268  10.885   8.821  0.2932 -0.7991  0.3873
  236ETHOX   C232641  16.353  11.076   8.748 -0.0511  0.3505 -0.7244
  236ETHOX  H2132642  16.432  11.113   8.680  1.4928  0.4751  1.0405
  236ETHOX  H2332643  16.358  11.130   8.845 -2.1289 -0.8011  0.1026
  237ETHOX   O132644  16.230  11.111   8.682  0.2111  0.6667 -0.4441
  237ETHOX   C132645  16.199  11.250   8.692  0.1263 -0.2971 -0.4218
  237ETHOX  H1132646  16.212  11.290   8.795  1.7393  0.8088 -1.0120
  237ETHOX  H1332647  16.263  11.302   8.618 -2.1978 -0.1350 -2.4308
  237ETHOX   C232648  16.044  11.277   8.661 -0.5520  0.5570 -0.4286
  237ETHOX  H2132649  16.019  11.237   8.561  1.9685  0.4265 -1.0932
  237ETHOX  H2332650  16.038  11.388   8.652  3.3866  0.9174 -0.7334
  238ETHOX   O132651  15.949  11.227   8.756  0.3709  0.2260  0.0153
  238ETHOX   C132652  15.824  11.274   8.718  0.1632  0.1782 -0.0562
  238ETHOX  H1132653  15.815  11.297   8.610  0.7459 -1.3161 -0.4420
  238ETHOX  H1332654  15.817  11.370   8.774 -0.6421 -0.9296  1.8337
  238ETHOX   C232655  15.714  11.174   8.774  0.3455  0.2556  0.7147
  238ETHOX  H2132656  15.617  11.227   8.785  0.2955  1.0224 -2.3247
  238ETHOX  H2332657  15.739  11.141   8.877  2.5980 -1.1280 -0.1998
  239ETHOX   O132658  15.696  11.055   8.682 -0.3007  0.0712  0.1526
  239ETHOX   C132659  15.803  10.963   8.671 -0.0708 -0.0096  0.5628
  239ETHOX  H1132660  15.885  11.004   8.609 -0.4823 -1.9146 -1.3311
  239ETHOX  H1332661  15.840  10.948   8.775 -0.3931 -1.4509  0.4810
  239ETHOX   C232662  15.746  10.836   8.609 -0.1609 -0.1035  0.3981
  239ETHOX  H2132663  15.695  10.868   8.515  0.0955  1.4024  0.7470
  239ETHOX  H2332664  15.831  10.767   8.588 -1.6708 -1.4576 -1.6621
  240ETHOX   O132665  15.655  10.767   8.694  0.1400  0.0705  1.0072
  240ETHOX   C132666  15.604  10.652   8.619 -0.1911 -0.3594  0.4358
  240ETHOX  H1132667  15.683  10.607   8.555 -0.0203  0.1554  0.2793
  240ETHOX  H1332668  15.524  10.684   8.549  1.4704 -1.4836 -2.1383
  240ETHOX   C232669  15.563  10.549   8.726 -0.4016 -0.7911 -0.8425
  240ETHOX  H2132670  15.477  10.493   8.686 -1.2957 -0.2285  0.2250
  240ETHOX  H2332671  15.507  10.594   8.811 -2.3659 -1.1188 -1.8973
  241ETHOX   O132672  15.670  10.464   8.768 -0.3311 -0.1258 -0.4282
  241ETHOX   C132673  15.624  10.379   8.875 -0.1591 -0.1043 -0.3471
  241ETHOX  H1132674  15.616  10.428   8.974 -1.4735 -0.6539 -0.1737
  241ETHOX  H1332675  15.521  10.344   8.854  0.8323 -3.5525  0.0086
  241ETHOX   C232676  15.704  10.248   8.900 -0.1991 -0.5399  0.5182
  241ETHOX  H2132677  15.658  10.199   8.988  0.2136  0.5563  1.3711
  241ETHOX  H2332678  15.809  10.278   8.924 -0.4014  0.8152 -0.1895
  242ETHOX   O132679  15.709  10.171   8.781 -0.5863 -0.5556 -0.2755
  242ETHOX   C132680  15.739  10.040   8.808  0.2646 -0.2035  0.8170
  242ETHOX  H1132681  15.669   9.991   8.879 -0.2481 -1.6221 -0.6370
  242ETHOX  H1332682  15.844  10.052   8.841  1.3145  0.4899 -2.4832
  242ETHOX   C232683  15.723   9.961   8.671 -0.3717  0.4666  0.5841
  242ETHOX  H2132684  15.779   9.865   8.673 -0.6022  0.2761 -1.0885
  242ETHOX  H2332685  15.769  10.033   8.600 -2.2762  1.4206  0.2598
  243ETHOX   O132686  15.594   9.936   8.634  0.1756 -0.4195  0.4378
  243ETHOX   C132687  15.592   9.870   8.507  0.2898  0.0397 -0.2219
  243ETHOX  H1132688  15.632   9.947   8.437 -0.3507 -0.0540 -0.6996
  243ETHOX  H1332689  15.648   9.775   8.513 -2.7626 -1.8165  1.4382
  243ETHOX   C232690  15.451   9.836   8.457  0.5826  0.4762  0.8547
  243ETHOX  H2132691  15.462   9.788   8.357  0.2398  0.2997  0.9006
  243ETHOX  H2332692  15.390   9.928   8.453  0.3880  0.3133 -0.1142
  244ETHOX   O132693  15.401   9.739   8.548 -0.5563  0.1185  0.8738
  244ETHOX   C132694  15.264   9.709   8.524  0.2818 -0.7588  0.2533
  244ETHOX  H1132695  15.263   9.675   8.418  0.8223  0.0138 -0.0034
  244ETHOX  H1332696  15.207   9.801   8.547 -0.8945 -0.5252 -2.9710
  244ETHOX   C232697  15.228   9.604   8.626  0.6709  0.9225  0.5246
  244ETHOX  H2132698  15.299   9.518   8.635 -0.3137 -0.1931 -1.6064
  244ETHOX  H2332699  15.137   9.547   8.597  0.3630  1.2956  0.7539
  245ETHOX   O132700  15.211   9.654   8.759  0.0172 -0.1603  0.0221
  245ETHOX   C132701  15.166   9.554   8.853  0.1165  0.2340 -0.1124
  245ETHOX  H1132702  15.065   9.513   8.828  0.3240 -0.6436  0.4447
  245ETHOX  H1332703  15.246   9.477   8.860  1.4164  1.6928  2.2909
  245ETHOX   C232704  15.143   9.623   8.992 -0.4358 -0.7231 -0.6129
  245ETHOX  H2132705  15.203   9.715   9.006 -1.1663 -0.2378 -0.6534
  245ETHOX  H2332706  15.166   9.554   9.077  1.1901 -0.9327 -1.1897
  246ETHOX   O132707  15.008   9.647   9.003 -0.0084 -0.3351 -0.6077
  246ETHOX   C132708  14.984   9.737   9.117  0.1892  0.3596 -0.1882
  246ETHOX  H1132709  15.056   9.822   9.116  0.8731 -0.1332  1.9185
  246ETHOX  H1332710  15.016   9.683   9.209  2.6097  1.3834 -0.3511
  246ETHOX   C232711  14.835   9.790   9.122 -0.2251  0.2273  0.5773
  246ETHOX  H2132712  14.806   9.844   9.214 -1.5813 -2.2949  1.7392
  246ETHOX  H2332713  14.770   9.701   9.107 -1.1133  1.1532 -1.5157
  247ETHOX   O132714  14.815   9.868   9.003 -0.4433  0.2643 -0.1063
  247ETHOX   C132715  14.673   9.917   8.987  0.0862  0.1969 -0.5624
  247ETHOX  H1132716  14.609   9.828   8.969  1.6944 -1.2680  0.5207
  247ETHOX  H1332717  14.643   9.971   9.080  3.4932  1.3946 -0.0329
  247ETHOX   C232718  14.670  10.000   8.856 -0.2204 -0.9239 -0.6926
  247ETHOX  H2132719  14.718  10.099   8.871  1.1909 -1.8261  1.3437
  247ETHOX  H2332720  14.710   9.948   8.766  0.6199 -2.2866  0.4143
  248ETHOX   O132721  14.535  10.030   8.834 -0.0195  0.0478  0.1256
  248ETHOX   C132722  14.509  10.168   8.817  0.1025 -0.8228  0.2296
  248ETHOX  H1132723  14.545  10.228   8.904  0.1764  0.4054 -0.6180
  248ETHOX  H1332724  14.561  10.213   8.730  0.2040 -1.5399 -0.0857
  248ETHOX   C232725  14.355  10.185   8.808  0.0002 -0.1445 -0.3368
  248ETHOX  H2132726  14.333  10.289   8.842 -1.7937 -0.5930 -0.0106
  248ETHOX  H2332727  14.302  10.127   8.887 -1.4834 -0.1699 -1.3030
  249ETHOX   O132728  14.294  10.152   8.684 -0.3950 -0.1684  0.1598
  249ETHOX   C132729  14.162  10.211   8.676  0.4309 -0.4953 -0.0986
  249ETHOX  H1132730  14.108  10.191   8.771 -1.2415 -2.1307 -1.3206
  249ETHOX  H1332731  14.180  10.320   8.664 -1.6626 -0.0780  0.2951
  249ETHOX   C232732  14.087  10.173   8.548 -0.0291 -0.3932  0.3456
  249ETHOX  H2132733  14.020  10.087   8.570  0.7474 -1.0049  0.3552
  249ETHOX  H2332734  14.155  10.131   8.471  1.0604 -2.4582  2.3041
  250ETHOX   O132735  14.015  10.286   8.491 -0.2668 -0.1610  0.3544
  250ETHOX   C132736  13.940  10.243   8.382  0.2356 -0.2801  0.2274
  250ETHOX  H1132737  13.995  10.176   8.312 -1.5132 -1.9797  0.3915
  250ETHOX  H1332738  13.861  10.175   8.421  2.1983 -2.0173  1.3709
  250ETHOX   C232739  13.882  10.370   8.316  0.6428 -0.4045 -0.0768
  250ETHOX  H2132740  13.861  10.448   8.393 -0.5517 -1.3734  0.6094
  250ETHOX  H2332741  13.792  10.341   8.258  1.0793  1.1268 -1.5876
  251ETHOX   O132742  13.978  10.433   8.224  0.1875 -0.1938  0.2738
  251ETHOX   C132743  13.916  10.550   8.167  0.0489 -0.0078  0.4045
  251ETHOX  H1132744  13.903  10.635   8.238  0.0038  0.7374 -0.4763
  251ETHOX  H1332745  13.814  10.528   8.131  0.7093  0.1156 -1.6685
  251ETHOX   C232746  14.009  10.597   8.050 -0.1244 -0.0379 -0.4350
  251ETHOX  H2132747  14.115  10.613   8.081  0.3944 -2.5006 -0.6664
  251ETHOX  H2332748  13.963  10.692   8.019 -0.5178 -0.1923 -0.3259
  252ETHOX   O132749  14.015  10.512   7.936  0.3509 -0.2710 -0.2937
  252ETHOX   C132750  14.106  10.564   7.837 -0.5475  0.0508  0.1923
  252ETHOX  H1132751  14.084  10.672   7.824  2.6090  0.9899  1.6350
  252ETHOX  H1332752  14.209  10.554   7.879  0.3804 -1.0063 -2.1702
  252ETHOX   C232753  14.104  10.472   7.711 -0.6922 -0.1391 -0.3687
  252ETHOX  H2132754  14.115  10.367   7.744  1.2734 -0.8060 -2.8216
  252ETHOX  H2332755  14.190  10.497   7.646  2.1822  1.0211  3.5449
  253ETHOX   O132756  13.980  10.509   7.647 -0.2438  0.4568 -0.5399
  253ETHOX   C132757  13.989  10.452   7.517  0.2053 -0.1251 -0.3681
  253ETHOX  H1132758  13.977  10.342   7.531  1.1710 -0.3878 -1.4087
  253ETHOX  H1332759  14.093  10.461   7.479 -0.5154  0.0670 -2.4262
  253ETHOX   C232760  13.892  10.528   7.427 -0.5370 -1.1495  0.5850
  253ETHOX  H2132761  13.795  10.541   7.478  0.6250 -3.1302  3.5179
  253ETHOX  H2332762  13.863  10.458   7.346 -0.8427  0.6491 -0.9521
  254ETHOX   O132763  13.950  10.645   7.359  0.3695  1.0673 -0.3823
  254ETHOX   C132764  13.924  10.758   7.440 -0.1574 -0.1138 -0.0317
  254ETHOX  H1132765  13.816  10.785   7.442 -0.1861 -0.2260  1.2911
  254ETHOX  H1332766  13.952  10.723   7.542 -1.1092 -1.0467 -0.0713
  254ETHOX   C232767  14.002  10.891   7.401  0.2575 -0.9381  0.1959
  254ETHOX  H2132768  13.969  10.977   7.463  1.8094  1.1867 -1.7709
  254ETHOX  H2332769  13.979  10.919   7.296  0.6235  2.3709  0.8980
  255ETHOX   O132770  14.145  10.875   7.411 -0.9426 -0.0492 -0.0138
  255ETHOX   C132771  14.184  10.857   7.544 -0.4462 -0.0382 -0.5531
  255ETHOX  H1132772  14.106  10.817   7.613 -1.6281  0.7471 -1.3838
  255ETHOX  H1332773  14.201  10.961   7.579 -0.9742 -0.2214  0.2759
  255ETHOX   C232774  14.328  10.806   7.549  0.4778  0.1369 -0.5382
  255ETHOX  H2132775  14.368  10.827   7.650 -1.5638  1.1072  0.1189
  255ETHOX  H2332776  14.388  10.844   7.464 -0.9723  1.2947 -1.0914
  256ETHOX   O132777  14.329  10.663   7.537 -0.9519  0.4229  0.0444
  256ETHOX   C132778  14.456  10.610   7.498  0.4966 -0.1506  0.4977
  256ETHOX  H1132779  14.481  10.649   7.398 -0.1237  1.7304  1.0291
  256ETHOX  H1332780  14.531  10.657   7.566  2.4818 -1.0512 -0.9677
  256ETHOX   C232781  14.456  10.454   7.500  0.1260  0.1424  0.5811
  256ETHOX  H2132782  14.397  10.413   7.585 -0.4835  0.4900  0.3317
  256ETHOX  H2332783  14.556  10.406   7.506 -0.7639 -2.1064 -1.2779
  257ETHOX   O132784  14.388  10.410   7.387  0.5957  0.7007  0.0586
  257ETHOX   C132785  14.406  10.269   7.368 -0.5156 -0.3969 -0.2316
  257ETHOX  H1132786  14.398  10.208   7.461 -1.4405  1.6580  1.1058
  257ETHOX  H1332787  14.508  10.261   7.325 -0.3952 -1.9654  0.2727
  257ETHOX   C232788  14.299  10.202   7.283  0.2013 -0.1442 -0.0667
  257ETHOX  H2132789  14.325  10.100   7.246  1.3344 -0.0024  0.2973
  257ETHOX  H2332790  14.291  10.265   7.192  2.0362  0.3618  0.0703
  258ETHOX   O132791  14.180  10.200   7.357  0.1767  0.4540  0.6243
  258ETHOX   C132792  14.144  10.067   7.390 -0.1903 -0.1838  0.0283
  258ETHOX  H1132793  14.130  10.013   7.294 -0.3621 -0.2916  0.1139
  258ETHOX  H1332794  14.225  10.017   7.447  0.7413 -0.0593 -1.1539
  258ETHOX   C232795  14.011  10.073   7.473  0.4125 -0.5463 -0.3033
  258ETHOX  H2132796  14.020  10.129   7.568  1.0476  1.6237 -1.5471
  258ETHOX  H2332797  13.995   9.967   7.500 -1.8449 -0.3508 -0.6334
  259ETHOX   O132798  13.901  10.124   7.408  0.8574  0.4022  0.4055
  259ETHOX   C132799  13.774  10.117   7.487  0.4636  0.2083  0.2581
  259ETHOX  H1132800  13.762  10.009   7.511 -0.2565 -0.1457 -1.5687
  259ETHOX  H1332801  13.779  10.169   7.585 -1.0461 -3.4327  2.4964
  259ETHOX   C232802  13.650  10.169   7.410  0.4065 -0.1988  0.3186
  259ETHOX  H2132803  13.567  10.112   7.457  1.5052 -1.0323  1.3055
  259ETHOX  H2332804  13.657  10.147   7.302 -1.2988  0.0835  0.1237
  260ETHOX   O132805  13.619  10.309   7.425 -0.5248  0.6085  0.5469
  260ETHOX   C132806  13.484  10.332   7.384 -0.5899  0.4112  0.0043
  260ETHOX  H1132807  13.481  10.284   7.284  1.5692  2.1648 -0.9963
  260ETHOX  H1332808  13.416  10.276   7.453 -0.1731 -0.4140 -0.2385
  260ETHOX   C232809  13.434  10.478   7.373 -0.2921  0.7790 -0.6477
  260ETHOX  H2132810  13.459  10.531   7.467 -1.8485  0.5226 -0.0730
  260ETHOX  H2332811  13.327  10.476   7.346 -0.6483  0.1997  0.7592
  261ETHOX   O132812  13.498  10.531   7.251  0.0695  0.4322  0.2762
  261ETHOX   C132813  13.503  10.675   7.249 -0.6653 -0.0157 -0.8437
  261ETHOX  H1132814  13.403  10.708   7.215 -1.6018 -0.4577  1.3440
  261ETHOX  H1332815  13.506  10.705   7.356 -1.0949 -1.5589 -0.3712
  261ETHOX   C232816  13.621  10.745   7.177 -0.2812  0.3320  0.2796
  261ETHOX  H2132817  13.713  10.690   7.208 -1.4308 -2.2502 -0.6398
  261ETHOX  H2332818  13.612  10.852   7.207 -0.5319  0.8534 -1.5294
  262ETHOX   O132819  13.615  10.724   7.035  0.3017  0.0312  0.5807
  262ETHOX   C132820  13.696  10.826   6.972 -0.3621  0.5457  0.1245
  262ETHOX  H1132821  13.801  10.825   7.006 -0.3684  0.2359  0.1444
  262ETHOX  H1332822  13.648  10.923   6.997  1.7158  1.7618 -0.3771
  262ETHOX   C232823  13.683  10.817   6.821  0.4056 -0.4588 -0.0563
  262ETHOX  H2132824  13.684  10.710   6.792  1.3578 -0.2058 -1.0088
  262ETHOX  H2332825  13.764  10.870   6.766 -2.0482  2.9265 -0.7616
  263ETHOX   O132826  13.559  10.872   6.774 -0.1059 -0.1696 -0.3927
  263ETHOX   C132827  13.558  10.865   6.631  0.0915  0.1778  0.4320
  263ETHOX  H1132828  13.552  10.759   6.598  2.5315  0.0366  0.2476
  263ETHOX  H1332829  13.649  10.911   6.588 -0.7780  2.3033  0.7460
  263ETHOX   C232830  13.446  10.947   6.556  0.6392 -0.2324 -0.1549
  263ETHOX  H2132831  13.470  10.948   6.448  2.1323 -2.2409  0.1004
  263ETHOX  H2332832  13.454  11.048   6.603 -0.7017  0.3251 -1.0587
  264ETHOX   O132833  13.315  10.902   6.582 -0.2989  0.9553  0.2454
  264ETHOX   C132834  13.217  11.002   6.585  0.5405 -0.7710 -0.4085
  264ETHOX  H1132835  13.217  11.053   6.487  0.4695  0.9209  0.4390
  264ETHOX  H1332836  13.231  11.079   6.663 -0.2041  1.1787 -2.1240
  264ETHOX   C232837  13.087  10.930   6.588 -0.7061 -0.0226  0.0481
  264ETHOX  H2132838  13.094  10.846   6.516 -1.7846 -0.3226  0.2650
  264ETHOX  H2332839  12.995  10.990   6.570 -0.8586  0.0929  1.1427
  265ETHOX   O132840  13.066  10.870   6.719 -0.8654 -0.3858 -0.1584
  265ETHOX   C132841  12.999  10.751   6.711 -0.2296  0.0745 -0.9120
  265ETHOX  H1132842  12.909  10.760   6.647 -1.2755  0.2973  0.5542
  265ETHOX  H1332843  13.073  10.678   6.671 -0.9176 -1.9083  1.2248
  265ETHOX   C232844  12.968  10.705   6.851  0.2192  0.4188  0.4604
  265ETHOX  H2132845  12.871  10.653   6.866  0.2333  0.2851  0.1089
  265ETHOX  H2332846  12.957  10.791   6.920 -1.3800  2.0847 -1.7547
  265ETHOX   OZ32847  13.080  10.623   6.900 -0.0669 -0.1914 -0.0616
  265ETHOX  HZ132848  13.070  10.620   6.996  1.5207 -3.9742  0.1311
    1ETHOX   O132849  12.400  18.714  14.581  0.3304  0.5863  0.3925
    1ETHOX  HO132850  12.418  18.803  14.612  3.1909 -0.9034  3.7234
    1ETHOX   C132851  12.468  18.691  14.455 -0.0675 -0.5446  0.6088
    1ETHOX  H1132852  12.556  18.758  14.450 -1.1679  0.8785 -1.7275
    1ETHOX  H1332853  12.412  18.721  14.364  1.8527  0.8372 -0.1824
    1ETHOX   C232854  12.513  18.537  14.439  0.6715 -0.3137  0.7166
    1ETHOX  H2132855  12.539  18.515  14.333 -0.7623 -1.5207  0.5806
    1ETHOX  H2332856  12.432  18.465  14.465 -1.8684  2.9989  2.8111
    2ETHOX   O132857  12.625  18.517  14.516  0.0310 -0.0958 -0.0890
    2ETHOX   C132858  12.651  18.382  14.551 -0.0309  0.3991 -0.0818
    2ETHOX  H1132859  12.565  18.358  14.617  0.0368 -0.8538 -0.4226
    2ETHOX  H1332860  12.638  18.326  14.456 -2.4681 -0.1258  0.4880
    2ETHOX   C232861  12.781  18.353  14.635 -0.7474  0.9097  1.5269
    2ETHOX  H2132862  12.861  18.373  14.560 -1.1709  0.1959  0.8802
    2ETHOX  H2332863  12.781  18.248  14.669  1.2791 -0.3771 -1.9403
    3ETHOX   O132864  12.787  18.443  14.736  0.0240 -0.2841 -0.3479
    3ETHOX   C132865  12.881  18.396  14.835  0.7933 -0.6100  0.6773
    3ETHOX  H1132866  12.980  18.403  14.784 -1.1377  2.6695 -3.2237
    3ETHOX  H1332867  12.854  18.293  14.867  2.3131 -1.4565 -0.6104
    3ETHOX   C232868  12.880  18.493  14.957  0.0260  0.2690  0.5211
    3ETHOX  H2132869  12.910  18.444  15.052  0.1636  2.8696  1.9044
    3ETHOX  H2332870  12.773  18.523  14.966 -0.4024 -1.7019  3.2175
    4ETHOX   O132871  12.956  18.609  14.928  0.7392  0.7303 -0.0756
    4ETHOX   C132872  13.035  18.646  15.041  0.8156 -0.2077 -0.8160
    4ETHOX  H1132873  12.971  18.685  15.123  3.7095  0.2197  1.4112
    4ETHOX  H1332874  13.096  18.560  15.075 -1.0527 -1.3336 -0.1721
    4ETHOX   C232875  13.116  18.769  15.007 -0.2661  0.0548 -0.5801
    4ETHOX  H2132876  13.153  18.806  15.105  0.0646 -0.5835 -0.4576
    4ETHOX  H2332877  13.059  18.848  14.954 -1.1894 -0.8162 -0.9110
    5ETHOX   O132878  13.235  18.713  14.952 -0.3165 -0.6671 -0.0108
    5ETHOX   C132879  13.319  18.824  14.936 -0.6839 -0.3758 -0.3644
    5ETHOX  H1132880  13.276  18.904  14.872  1.6277  1.1261 -0.1668
    5ETHOX  H1332881  13.346  18.865  15.036 -0.6776  1.4634 -1.0951
    5ETHOX   C232882  13.448  18.776  14.883  0.2251  0.0445  0.5552
    5ETHOX  H2132883  13.478  18.693  14.951  0.2198  0.2187  0.7707
    5ETHOX  H2332884  13.528  18.853  14.885  2.3191 -2.0192  1.6775
    6ETHOX   O132885  13.424  18.734  14.746  0.3680  0.2990  0.7186
    6ETHOX   C132886  13.546  18.683  14.688 -0.2517  0.0051  0.3912
    6ETHOX  H1132887  13.632  18.754  14.689 -0.9551  0.8792  0.7231
    6ETHOX  H1332888  13.569  18.593  14.748  0.7045 -0.5677 -0.7927
    6ETHOX   C232889  13.533  18.610  14.556 -0.0163 -0.5874  0.3470
    6ETHOX  H2132890  13.464  18.529  14.584 -0.2240 -0.1866  1.0090
    6ETHOX  H2332891  13.631  18.563  14.531 -1.0911 -2.0634 -1.3569
    7ETHOX   O132892  13.487  18.687  14.437  0.0090  0.3116  0.0206
    7ETHOX   C132893  13.455  18.611  14.318 -0.3298 -0.1657 -0.2187
    7ETHOX  H1132894  13.378  18.535  14.340 -3.1148  2.1729 -1.2800
    7ETHOX  H1332895  13.415  18.684  14.245  0.5056 -1.6867 -2.3019
    7ETHOX   C232896  13.585  18.536  14.262 -0.4416 -0.4147  0.0394
    7ETHOX  H2132897  13.558  18.507  14.158 -1.1279  0.6003 -0.0848
    7ETHOX  H2332898  13.597  18.439  14.315  0.1212 -0.6740 -0.5459
    8ETHOX   O132899  13.709  18.606  14.261  0.5886  0.0412 -0.2510
    8ETHOX   C132900  13.759  18.658  14.138 -0.0513 -0.0792 -0.4676
    8ETHOX  H1132901  13.736  18.594  14.050 -1.6426  1.2103 -1.0549
    8ETHOX  H1332902  13.866  18.683  14.147  0.1876 -1.5371  1.4180
    8ETHOX   C232903  13.693  18.794  14.119  0.1151 -0.1851 -0.5746
    8ETHOX  H2132904  13.732  18.873  14.186 -0.2658 -0.0371 -0.5238
    8ETHOX  H2332905  13.583  18.782  14.133 -0.3565  2.6132 -1.1666
    9ETHOX   O132906  13.714  18.843  13.988  0.0184 -0.0895  0.3616
    9ETHOX   C132907  13.613  18.926  13.941 -0.5347 -0.4563 -0.5540
    9ETHOX  H1132908  13.518  18.882  13.905 -1.3606  1.4535 -0.8280
    9ETHOX  H1332909  13.580  18.988  14.027 -2.0634  0.8588 -2.0475
    9ETHOX   C232910  13.669  19.027  13.837  0.0984  0.1682  0.1276
    9ETHOX  H2132911  13.741  19.093  13.890  0.9050 -1.7686  1.5523
    9ETHOX  H2332912  13.585  19.094  13.806 -0.4458  0.4581  2.0844
   10ETHOX   O132913  13.720  18.953  13.725 -0.0889  0.1292 -0.0587
   10ETHOX   C132914  13.787  19.031  13.631 -0.2850  0.0187  0.7159
   10ETHOX  H1132915  13.733  19.124  13.603 -1.2220 -0.2562  1.5702
   10ETHOX  H1332916  13.795  18.968  13.540 -0.4216  1.0919 -0.0655
   10ETHOX   C232917  13.935  19.050  13.680 -0.4712 -0.0837  0.1686
   10ETHOX  H2132918  14.002  19.067  13.592  1.3746  1.9694  1.8409
   10ETHOX  H2332919  13.975  18.969  13.745 -0.4641  0.9630  1.5051
   11ETHOX   O132920  13.941  19.173  13.753  0.3829  0.0956 -0.7675
   11ETHOX   C132921  14.072  19.210  13.789  0.5359  0.7824  0.6042
   11ETHOX  H1132922  14.110  19.118  13.838 -1.2881 -0.0865  0.4884
   11ETHOX  H1332923  14.135  19.223  13.699  0.5034  3.1411  0.8602
   11ETHOX   C232924  14.076  19.327  13.884  0.1836  0.1788  0.4829
   11ETHOX  H2132925  14.025  19.305  13.980  0.7270 -1.3779  0.4504
   11ETHOX  H2332926  14.180  19.341  13.920 -0.4083  1.0122  1.9576
   12ETHOX   O132927  14.023  19.438  13.817  0.0337  0.0754  0.2893
   12ETHOX   C132928  14.006  19.552  13.902  1.3441  0.1046 -1.4741
   12ETHOX  H1132929  14.101  19.609  13.892  1.8430 -0.1607  0.9797
   12ETHOX  H1332930  14.000  19.521  14.009  1.1795  0.5703 -1.3459
   12ETHOX   C232931  13.886  19.636  13.867 -0.2130  0.1845  0.3527
   12ETHOX  H2132932  13.891  19.729  13.928 -0.2182  0.3658  0.0811
   12ETHOX  H2332933  13.796  19.573  13.886  0.6566 -1.1134  0.2948
   13ETHOX   O132934  13.900  19.672  13.729  0.0657  0.8750 -0.3602
   13ETHOX   C132935  13.824  19.782  13.691 -0.1076  0.3603  0.6740
   13ETHOX  H1132936  13.857  19.876  13.739 -2.1048 -0.0701  3.1340
   13ETHOX  H1332937  13.853  19.795  13.584 -0.1618  1.8901  0.8234
   13ETHOX   C232938  13.671  19.764  13.698 -0.4450  0.2757  0.0780
   13ETHOX  H2132939  13.648  19.660  13.664  3.5524  0.2300 -3.2192
   13ETHOX  H2332940  13.618  19.829  13.625  1.0762 -0.1445 -1.4512
   14ETHOX   O132941  13.641  19.801  13.835 -0.0603  0.0526 -0.2147
   14ETHOX   C132942  13.508  19.748  13.860 -0.4830 -0.0227 -0.3139
   14ETHOX  H1132943  13.511  19.638  13.843 -1.7006 -0.0449 -0.4186
   14ETHOX  H1332944  13.431  19.792  13.794 -0.4502 -0.7424 -0.8468
   14ETHOX   C232945  13.451  19.771  14.001  0.3050  0.6035  0.1917
   14ETHOX  H2132946  13.523  19.724  14.071  2.3133  2.1170 -0.7544
   14ETHOX  H2332947  13.353  19.719  14.006 -1.7302  4.0607  0.0792
   15ETHOX   O132948  13.424  19.905  14.041 -0.1497 -0.4107  0.0234
   15ETHOX   C132949  13.355  19.918  14.163  0.4113  0.2044  0.0672
   15ETHOX  H1132950  13.248  19.886  14.167 -0.4059  2.7578  2.8939
   15ETHOX  H1332951  13.412  19.862  14.240 -0.8572 -0.7787  0.3311
   15ETHOX   C232952  13.360  20.059  14.224  0.1228 -0.6129  0.2563
   15ETHOX  H2132953  13.309  20.052  14.323 -2.6061  1.4461 -0.8665
   15ETHOX  H2332954  13.468  20.082  14.231  0.1790 -1.3793  3.1751
   16ETHOX   O132955  13.287  20.159  14.157  0.1443 -0.2640 -0.4328
   16ETHOX   C132956  13.146  20.155  14.164  0.0238  0.0643  0.3187
   16ETHOX  H1132957  13.115  20.078  14.238 -0.5856 -0.7869 -0.7865
   16ETHOX  H1332958  13.100  20.255  14.181  0.2532  0.3334 -0.6027
   16ETHOX   C232959  13.082  20.107  14.030 -0.4138 -0.1179  0.7373
   16ETHOX  H2132960  13.147  20.157  13.955 -0.9333 -1.9331 -1.0152
   16ETHOX  H2332961  12.978  20.143  14.017  0.3305  1.1923 -2.8307
   17ETHOX   O132962  13.083  19.964  14.016  0.2857 -0.2308 -0.1222
   17ETHOX   C132963  13.037  19.907  13.896  1.1252 -0.4016  0.2975
   17ETHOX  H1132964  12.975  19.819  13.922  0.2490  0.2484  0.4807
   17ETHOX  H1332965  12.970  19.976  13.839 -1.0627 -2.6114  0.0111
   17ETHOX   C232966  13.148  19.873  13.804  0.1832  0.0131 -0.4390
   17ETHOX  H2132967  13.183  19.775  13.843 -1.3157 -0.2740  0.2863
   17ETHOX  H2332968  13.232  19.945  13.804 -0.3184  0.6089 -0.4797
   18ETHOX   O132969  13.104  19.854  13.673  0.1660 -0.1461  0.3294
   18ETHOX   C132970  13.007  19.747  13.665 -0.5109  0.0929 -0.0787
   18ETHOX  H1132971  13.049  19.651  13.703 -0.2116  0.4350  0.4723
   18ETHOX  H1332972  12.915  19.770  13.724  0.3086 -0.0689  1.3134
   18ETHOX   C232973  12.985  19.722  13.516  0.0271 -0.3499  0.0069
   18ETHOX  H2132974  12.917  19.633  13.509 -0.1354 -0.1572 -0.9619
   18ETHOX  H2332975  13.080  19.702  13.464 -0.8358 -1.5069 -1.1977
   19ETHOX   O132976  12.917  19.831  13.454  0.3366  0.7907 -0.6892
   19ETHOX   C132977  12.774  19.807  13.454 -0.0864 -0.4896  0.4849
   19ETHOX  H1132978  12.723  19.905  13.462  1.3626  0.4494 -1.0652
   19ETHOX  H1332979  12.753  19.736  13.537  1.7093 -2.3012 -0.5065
   19ETHOX   C232980  12.722  19.732  13.328  0.1701 -0.2951 -0.0007
   19ETHOX  H2132981  12.775  19.637  13.307 -2.0788 -1.4471 -0.8651
   19ETHOX  H2332982  12.745  19.800  13.243  1.6647 -0.2821  0.3878
   20ETHOX   O132983  12.587  19.702  13.333  0.4161 -0.0230  0.0242
   20ETHOX   C132984  12.496  19.814  13.311  0.0976  0.6294  0.2343
   20ETHOX  H1132985  12.498  19.899  13.381 -0.8093  0.4847  0.4479
   20ETHOX  H1332986  12.508  19.854  13.208 -0.6503  1.5496  0.4917
   20ETHOX   C232987  12.343  19.771  13.304  0.1585  0.0263 -0.0380
   20ETHOX  H2132988  12.334  19.696  13.222  0.3450 -1.0661  0.9242
   20ETHOX  H2332989  12.285  19.859  13.267  1.8142  1.1842 -0.0177
   21ETHOX   O132990  12.299  19.724  13.431  0.0696  0.5736  0.0253
   21ETHOX   C132991  12.174  19.662  13.419 -0.5692 -0.0682 -0.6823
   21ETHOX  H1132992  12.179  19.598  13.328  0.9416  1.0123 -1.4003
   21ETHOX  H1332993  12.099  19.741  13.395  1.2898  1.7513 -0.7903
   21ETHOX   C232994  12.147  19.584  13.548  0.0071 -0.4091  0.2558
   21ETHOX  H2132995  12.216  19.499  13.560 -0.0427 -0.3391  1.0680
   21ETHOX  H2332996  12.047  19.538  13.531 -1.1664  1.7561  0.8312
   22ETHOX   O132997  12.130  19.665  13.666 -0.1858  0.3732  0.3013
   22ETHOX   C132998  12.183  19.597  13.779  0.1700 -0.4801 -0.0232
   22ETHOX  H1132999  12.127  19.502  13.792 -1.4633  0.6789  1.9892
   22ETHOX  H1333000  12.294  19.588  13.777  0.4368  1.5039  2.0372
   22ETHOX   C233001  12.162  19.679  13.913  0.3764 -0.7336  0.3024
   22ETHOX  H2133002  12.058  19.716  13.914 -0.2955 -2.5309 -0.4954
   22ETHOX  H2333003  12.171  19.611  14.000  4.5986  0.0722  0.7254
   23ETHOX   O133004  12.247  19.789  13.939 -0.3788 -0.1180 -0.0161
   23ETHOX   C133005  12.203  19.858  14.059 -0.8140  0.4257  0.1293
   23ETHOX  H1133006  12.291  19.912  14.099 -0.6429  2.2556 -2.4829
   23ETHOX  H1333007  12.159  19.790  14.135 -1.2099  1.5715  0.9625
   23ETHOX   C233008  12.091  19.968  14.036 -0.0196 -0.0275  0.3855
   23ETHOX  H2133009  12.100  20.034  13.947 -2.3461  0.4170  0.4051
   23ETHOX  H2333010  12.094  20.030  14.128  0.5546  2.0682 -0.9919
   24ETHOX   O133011  11.956  19.924  14.035  0.0945 -1.2167 -0.6787
   24ETHOX   C133012  11.867  19.986  13.944  0.3015 -0.3636  0.5885
   24ETHOX  H1133013  11.848  20.091  13.975 -1.4284 -0.4317 -0.1479
   24ETHOX  H1333014  11.914  19.991  13.843  1.5501 -0.1168  1.1543
   24ETHOX   C233015  11.727  19.920  13.955  0.3152 -0.6911  0.4996
   24ETHOX  H2133016  11.664  19.983  13.888  0.1269  1.1949  2.3405
   24ETHOX  H2333017  11.687  19.940  14.057 -3.2735 -1.6779 -0.5829
   25ETHOX   O133018  11.712  19.780  13.929  0.1952 -0.0185  0.2324
   25ETHOX   C133019  11.655  19.749  13.805  0.2751  0.2096  0.2398
   25ETHOX  H1133020  11.687  19.820  13.725 -2.2112  0.3022 -0.7549
   25ETHOX  H1333021  11.545  19.743  13.811  0.2750 -0.4620 -0.3182
   25ETHOX   C233022  11.714  19.613  13.766  0.2516  0.0817 -0.6979
   25ETHOX  H2133023  11.824  19.618  13.771  0.3168 -1.8193  0.8646
   25ETHOX  H2333024  11.694  19.599  13.658  0.2002 -0.7434 -0.5821
   26ETHOX   O133025  11.666  19.505  13.846 -0.3168  0.6437  0.1168
   26ETHOX   C133026  11.735  19.384  13.823 -0.2791  0.4539 -0.6374
   26ETHOX  H1133027  11.738  19.355  13.716 -0.3071  0.4181 -0.6287
   26ETHOX  H1333028  11.842  19.396  13.853 -0.1982 -0.0281 -0.7254
   26ETHOX   C233029  11.695  19.256  13.902 -0.2054  0.8997 -0.0598
   26ETHOX  H2133030  11.753  19.167  13.870  1.1233  2.1465 -1.2929
   26ETHOX  H2333031  11.585  19.247  13.889  0.0337 -1.8983 -0.6223
   27ETHOX   O133032  11.726  19.269  14.043 -0.1323  0.0187  0.0008
   27ETHOX   C133033  11.694  19.162  14.133 -1.0445  0.5183  1.0991
   27ETHOX  H1133034  11.706  19.062  14.086  0.1322  1.3979 -0.5854
   27ETHOX  H1333035  11.584  19.163  14.150 -0.9124 -0.0749  2.0243
   27ETHOX   C233036  11.752  19.180  14.272 -0.0747 -1.0724  1.1542
   27ETHOX  H2133037  11.726  19.101  14.345  0.3229 -1.3883  0.9586
   27ETHOX  H2333038  11.710  19.278  14.304 -1.0002 -0.3910 -1.8055
   28ETHOX   O133039  11.888  19.179  14.274 -0.2682  0.7294 -0.2940
   28ETHOX   C133040  11.957  19.220  14.396  0.3616  0.3670  0.0899
   28ETHOX  H1133041  11.939  19.329  14.412  0.6766  0.9317 -2.7658
   28ETHOX  H1333042  11.919  19.163  14.483 -0.1179  0.8948  0.2314
   28ETHOX   C233043  12.109  19.193  14.379  0.2160  0.0613  0.0259
   28ETHOX  H2133044  12.131  19.091  14.343  1.2611  0.0248  0.7301
   28ETHOX  H2333045  12.149  19.207  14.482  1.1274  2.7347 -0.6232
   29ETHOX   O133046  12.161  19.287  14.285 -0.4847 -0.0121 -0.2676
   29ETHOX   C133047  12.300  19.259  14.282 -0.6069  0.2348 -0.0270
   29ETHOX  H1133048  12.323  19.151  14.279  0.4208  0.3923  1.3231
   29ETHOX  H1333049  12.347  19.295  14.375  0.3895  1.7661 -1.0723
   29ETHOX   C233050  12.362  19.320  14.154  0.5875 -0.3174 -0.5518
   29ETHOX  H2133051  12.294  19.322  14.066 -0.1531  0.1476  0.0166
   29ETHOX  H2333052  12.434  19.245  14.114 -0.3405 -1.2863 -0.4248
   30ETHOX   O133053  12.420  19.445  14.157  0.0275 -0.3689  0.5415
   30ETHOX   C133054  12.489  19.486  14.041  1.1645 -0.1437 -0.1997
   30ETHOX  H1133055  12.549  19.401  14.004 -2.6208 -2.9229 -0.6260
   30ETHOX  H1333056  12.410  19.506  13.965 -0.1312  0.5473  1.2578
   30ETHOX   C233057  12.555  19.623  14.045  0.4531 -0.0712  0.2289
   30ETHOX  H2133058  12.471  19.688  14.078  0.5638 -0.0195  0.4112
   30ETHOX  H2333059  12.578  19.644  13.939 -1.3350  0.7724 -0.0246
   31ETHOX   O133060  12.648  19.624  14.147 -0.1228 -0.3757 -0.2787
   31ETHOX   C133061  12.760  19.716  14.118 -0.7747  0.8668 -0.5323
   31ETHOX  H1133062  12.783  19.692  14.012 -0.3449  3.0154 -0.9719
   31ETHOX  H1333063  12.720  19.819  14.105  1.4850  1.8085 -0.4480
   31ETHOX   C233064  12.876  19.706  14.222 -0.9974 -0.1156  0.3798
   31ETHOX  H2133065  12.828  19.717  14.321 -0.6797  4.4646  0.2707
   31ETHOX  H2333066  12.954  19.784  14.207  0.4241 -0.8580  3.2080
   32ETHOX   O133067  12.945  19.579  14.226 -0.3910  0.0022 -0.1442
   32ETHOX   C133068  13.049  19.567  14.130  0.1614 -0.2889 -1.0097
   32ETHOX  H1133069  12.996  19.516  14.046  0.7183 -0.1840 -1.4318
   32ETHOX  H1333070  13.074  19.666  14.087 -1.8062 -0.4221 -2.6425
   32ETHOX   C233071  13.175  19.493  14.180 -0.8964 -0.0795  0.2679
   32ETHOX  H2133072  13.247  19.489  14.095  1.7669  0.5517  2.3782
   32ETHOX  H2333073  13.149  19.389  14.211 -0.0900 -0.3292  0.1230
   33ETHOX   O133074  13.237  19.558  14.288 -0.3185 -0.2321  0.2581
   33ETHOX   C133075  13.363  19.500  14.311 -0.9077  0.0055  0.1691
   33ETHOX  H1133076  13.356  19.391  14.331  0.8736  0.0885  1.5074
   33ETHOX  H1333077  13.423  19.517  14.220 -1.5345  0.0709 -0.2424
   33ETHOX   C233078  13.410  19.566  14.437 -0.0108  0.3262  0.1822
   33ETHOX  H2133079  13.500  19.505  14.457 -0.6266 -0.7157 -0.1221
   33ETHOX  H2333080  13.346  19.551  14.527 -0.2980 -1.1772 -0.2445
   34ETHOX   O133081  13.449  19.700  14.419  0.2496  0.0356  0.2789
   34ETHOX   C133082  13.512  19.749  14.534 -0.9113 -0.4651  0.4119
   34ETHOX  H1133083  13.592  19.680  14.568  0.0437  0.2920 -0.2524
   34ETHOX  H1333084  13.436  19.753  14.615 -0.1759  0.2117  1.0756
   34ETHOX   C233085  13.566  19.893  14.509 -0.6099 -0.4197  0.3734
   34ETHOX  H2133086  13.605  19.946  14.599  2.2650 -1.8961  0.1089
   34ETHOX  H2333087  13.493  19.967  14.470  0.3680  0.3372 -0.0822
   35ETHOX   O133088  13.679  19.884  14.417  0.0898  0.4168  0.2854
   35ETHOX   C133089  13.730  20.017  14.395  0.4611 -0.1820 -0.1435
   35ETHOX  H1133090  13.647  20.086  14.373  0.2272 -0.4382 -0.0711
   35ETHOX  H1333091  13.796  20.049  14.478  1.1238  0.5520 -0.9381
   35ETHOX   C233092  13.802  20.007  14.260 -0.1146 -0.2659  0.6415
   35ETHOX  H2133093  13.828  20.105  14.215 -6.0179  1.0863 -0.5529
   35ETHOX  H2333094  13.745  19.954  14.182 -0.8298 -1.2596  1.7985
   36ETHOX   O133095  13.921  19.934  14.285  0.8400 -0.1360 -0.3450
   36ETHOX   C133096  13.996  19.898  14.173  0.5825  0.0542 -0.0095
   36ETHOX  H1133097  14.042  19.990  14.131  0.1691  0.0955 -0.3786
   36ETHOX  H1333098  13.929  19.853  14.097  0.0825 -1.4593  1.2839
   36ETHOX   C233099  14.113  19.805  14.226  0.5619 -0.2794  0.0435
   36ETHOX  H2133100  14.162  19.852  14.314  0.2399 -2.1993  1.3057
   36ETHOX  H2333101  14.192  19.796  14.149  1.1038  0.8698  0.4343
   37ETHOX   O133102  14.060  19.686  14.262 -0.2273 -0.2136  0.3843
   37ETHOX   C133103  14.155  19.609  14.332  0.4690 -1.0429  0.4151
   37ETHOX  H1133104  14.234  19.571  14.263 -1.8516  0.1629 -3.2410
   37ETHOX  H1333105  14.192  19.673  14.415  0.2163 -1.5542  0.9282
   37ETHOX   C233106  14.079  19.490  14.392  0.0205 -0.6479 -0.4402
   37ETHOX  H2133107  14.004  19.546  14.453  0.5708 -0.3179 -0.0557
   37ETHOX  H2333108  14.141  19.449  14.475 -0.7301 -0.5549  0.1725
   38ETHOX   O133109  14.023  19.393  14.306 -0.4689  0.2424  0.5501
   38ETHOX   C133110  13.974  19.283  14.380 -0.8859  0.3330  0.2528
   38ETHOX  H1133111  13.877  19.308  14.427 -0.7846  0.6379  0.3064
   38ETHOX  H1333112  14.049  19.274  14.462 -0.0294  1.1575 -0.4091
   38ETHOX   C233113  13.965  19.153  14.311  0.2351  0.2478 -0.4592
   38ETHOX  H2133114  13.921  19.168  14.210 -2.7821  2.0103  1.0021
   38ETHOX  H2333115  13.898  19.082  14.363  0.1463  2.3091  2.4720
   39ETHOX   O133116  14.088  19.083  14.311  0.3269  0.1763 -0.2391
   39ETHOX   C133117  14.091  18.980  14.212 -0.1073 -0.3815  0.3942
   39ETHOX  H1133118  14.016  18.901  14.238  1.5417 -2.7463 -1.5974
   39ETHOX  H1333119  14.052  19.029  14.120 -0.1639 -0.5171  0.3453
   39ETHOX   C233120  14.232  18.920  14.203 -0.5733 -0.6678  0.1645
   39ETHOX  H2133121  14.295  19.009  14.224 -1.7301  0.2143  0.0087
   39ETHOX  H2333122  14.247  18.875  14.103 -1.8067 -1.8277  0.4733
   40ETHOX   O133123  14.247  18.830  14.312 -0.3620  0.0652  0.4053
   40ETHOX   C133124  14.381  18.799  14.338  0.7485  0.3798 -0.4225
   40ETHOX  H1133125  14.447  18.884  14.368  1.6216 -0.9532  1.6507
   40ETHOX  H1333126  14.431  18.757  14.248 -0.0732  0.0549 -0.7353
   40ETHOX   C233127  14.383  18.693  14.452  0.1296  0.3495 -0.0664
   40ETHOX  H2133128  14.318  18.719  14.537 -0.1107 -0.8067  0.1276
   40ETHOX  H2333129  14.491  18.671  14.469  0.1539 -0.6362 -1.2863
   41ETHOX   O133130  14.323  18.571  14.415 -0.0999 -0.6900  0.5753
   41ETHOX   C133131  14.409  18.500  14.322 -0.6307  0.6885  1.1219
   41ETHOX  H1133132  14.429  18.558  14.229 -0.9165  0.3774  0.8610
   41ETHOX  H1333133  14.508  18.485  14.368  0.7826  2.4348 -1.1209
   41ETHOX   C233134  14.352  18.362  14.280 -0.3536  0.2668 -0.1717
   41ETHOX  H2133135  14.326  18.312  14.375 -0.1110 -2.1579 -1.3108
   41ETHOX  H2333136  14.433  18.304  14.231  0.9335  2.2935 -0.5681
   42ETHOX   O133137  14.232  18.385  14.190  0.1473  0.6285  0.2490
   42ETHOX   C133138  14.144  18.277  14.195  0.2655  0.0677  0.4015
   42ETHOX  H1133139  14.203  18.188  14.165 -0.1664  0.4706 -1.8191
   42ETHOX  H1333140  14.101  18.262  14.297  2.5321 -2.6334  1.0875
   42ETHOX   C233141  14.034  18.301  14.093 -0.1942 -0.1796  0.5306
   42ETHOX  H2133142  14.076  18.334  13.996  0.7081 -0.7879  0.7034
   42ETHOX  H2333143  13.974  18.382  14.140 -0.4078 -0.3286  0.5187
   43ETHOX   O133144  13.963  18.179  14.069 -0.3501  0.1569  0.1809
   43ETHOX   C133145  13.829  18.210  14.049  0.4322  0.3889 -0.0090
   43ETHOX  H1133146  13.795  18.270  14.136 -0.7450 -0.8417  0.4070
   43ETHOX  H1333147  13.837  18.262  13.951 -0.0635 -1.2911 -0.9695
   43ETHOX   C233148  13.744  18.080  14.033  1.0000  0.6755 -0.0552
   43ETHOX  H2133149  13.798  17.996  13.984  0.1974  0.6660 -0.9516
   43ETHOX  H2333150  13.667  18.108  13.958  0.4411  2.6944  1.1858
   44ETHOX   O133151  13.677  18.041  14.155 -0.2125  0.2316 -0.4936
   44ETHOX   C133152  13.754  17.942  14.218 -0.1976  0.4245  0.1011
   44ETHOX  H1133153  13.770  17.868  14.136 -0.7137 -0.3076  0.6401
   44ETHOX  H1333154  13.850  17.979  14.261  0.3427 -0.6536 -0.1363
   44ETHOX   C233155  13.668  17.867  14.322  0.0068 -0.3882  0.7648
   44ETHOX  H2133156  13.718  17.776  14.362  0.3808 -0.1298  0.8903
   44ETHOX  H2333157  13.571  17.835  14.278  0.4257 -1.1282  0.3542
   45ETHOX   O133158  13.650  17.953  14.433  0.0989 -0.2639  0.1139
   45ETHOX   C133159  13.576  17.902  14.536 -0.6975 -0.3139  0.4726
   45ETHOX  H1133160  13.560  17.794  14.516  0.8647 -0.6004  0.6627
   45ETHOX  H1333161  13.474  17.943  14.522 -1.4747 -2.3901 -0.3139
   45ETHOX   C233162  13.620  17.929  14.687  0.0704  0.4025 -0.3800
   45ETHOX  H2133163  13.532  17.902  14.749  0.6950 -0.5741  0.1081
   45ETHOX  H2333164  13.653  18.035  14.688 -0.2209  0.5136 -1.7224
   46ETHOX   O133165  13.737  17.841  14.719  0.4799  0.3464  0.2366
   46ETHOX   C133166  13.703  17.703  14.740 -0.2567  0.0697 -0.0730
   46ETHOX  H1133167  13.617  17.684  14.807 -1.2915  0.7400 -1.1705
   46ETHOX  H1333168  13.679  17.660  14.640  0.5474 -0.5886  0.0077
   46ETHOX   C233169  13.816  17.618  14.800 -0.6907  0.1806  0.2403
   46ETHOX  H2133170  13.763  17.532  14.848  1.7900 -1.7429 -0.2665
   46ETHOX  H2333171  13.871  17.665  14.883  0.3396  1.6908 -1.2481
   47ETHOX   O133172  13.897  17.549  14.702  0.2541  0.1033 -0.1470
   47ETHOX   C133173  13.984  17.644  14.644 -0.3482 -0.4328  0.9860
   47ETHOX  H1133174  14.044  17.697  14.721 -0.2262  2.0156 -0.6764
   47ETHOX  H1333175  13.936  17.724  14.583  2.1887  0.7292  0.3775
   47ETHOX   C233176  14.090  17.579  14.553  0.0650  0.8891  0.9305
   47ETHOX  H2133177  14.110  17.475  14.585 -0.7860  0.5194  0.2978
   47ETHOX  H2333178  14.185  17.636  14.558  2.2087 -2.3576 -0.2630
   48ETHOX   O133179  14.075  17.579  14.410  0.5928  0.0279 -0.8429
   48ETHOX   C133180  13.950  17.521  14.371  0.0880 -0.7133 -0.6847
   48ETHOX  H1133181  13.862  17.565  14.422 -0.4871 -1.5948 -0.8946
   48ETHOX  H1333182  13.930  17.539  14.264 -2.2974 -1.2344 -0.3891
   48ETHOX   C233183  13.952  17.370  14.401 -0.0652  0.0434  0.0559
   48ETHOX  H2133184  13.937  17.350  14.509 -2.8191 -0.7570 -0.4095
   48ETHOX  H2333185  13.862  17.340  14.344  0.7339  1.2780 -1.9691
   49ETHOX   O133186  14.058  17.302  14.341 -0.5456  0.7821 -0.2112
   49ETHOX   C133187  14.049  17.163  14.353  0.5979  0.5522  0.0739
   49ETHOX  H1133188  13.942  17.133  14.352 -0.1730  3.0780  0.5940
   49ETHOX  H1333189  14.097  17.135  14.450  0.5094  1.8456  0.5085
   49ETHOX   C233190  14.117  17.080  14.239  0.1142  0.5130 -0.2483
   49ETHOX  H2133191  14.134  16.980  14.282  0.1864  0.3303 -0.6944
   49ETHOX  H2333192  14.220  17.116  14.218  0.9253  1.8757  4.7336
   50ETHOX   O133193  14.046  17.083  14.113  0.1559 -0.2990 -0.5270
   50ETHOX   C133194  14.072  16.974  14.027 -0.5999  0.1679 -0.1389
   50ETHOX  H1133195  14.150  16.914  14.080 -0.4585 -1.6782 -2.2279
   50ETHOX  H1333196  13.974  16.923  14.016 -1.2992  1.3651  0.4024
   50ETHOX   C233197  14.120  17.030  13.898 -0.0879 -0.1905  0.5645
   50ETHOX  H2133198  14.171  16.955  13.834  1.1905  0.0769  1.2334
   50ETHOX  H2333199  14.187  17.117  13.914  0.8818 -0.9189  0.5421
   51ETHOX   O133200  14.011  17.083  13.830 -0.0966 -0.1551  0.1843
   51ETHOX   C133201  14.064  17.139  13.709  0.2391 -0.0421 -0.3582
   51ETHOX  H1133202  14.093  17.059  13.637  0.9817  1.3481 -1.6763
   51ETHOX  H1333203  14.150  17.210  13.715  0.4505 -0.3092 -0.1850
   51ETHOX   C233204  13.958  17.209  13.621  0.4869  0.2728  0.9172
   51ETHOX  H2133205  14.018  17.243  13.533  0.3107 -0.6902  0.4150
   51ETHOX  H2333206  13.935  17.308  13.665  2.0874  1.5358 -0.8945
   52ETHOX   O133207  13.844  17.139  13.572 -0.5600  0.7301 -0.1267
   52ETHOX   C133208  13.771  17.214  13.478 -0.2339 -0.0585  0.3817
   52ETHOX  H1133209  13.732  17.303  13.533  0.7360  0.8120 -0.2939
   52ETHOX  H1333210  13.841  17.252  13.401 -1.4824 -1.2959 -1.4368
   52ETHOX   C233211  13.650  17.137  13.413  0.0193 -0.7089  0.2267
   52ETHOX  H2133212  13.668  17.031  13.441  0.1232 -1.3584 -2.0911
   52ETHOX  H2333213  13.656  17.152  13.303  0.8451 -2.6433 -0.0234
   53ETHOX   O133214  13.528  17.186  13.463  0.2209 -0.4434 -0.4690
   53ETHOX   C133215  13.505  17.317  13.415 -0.7815 -0.4109  0.0565
   53ETHOX  H1133216  13.550  17.394  13.481 -1.1365  0.4348 -0.6728
   53ETHOX  H1333217  13.558  17.324  13.318  0.7451 -3.1750  0.5950
   53ETHOX   C233218  13.359  17.338  13.388  0.4097 -0.2364 -0.2161
   53ETHOX  H2133219  13.326  17.439  13.356  0.1004  0.7616  2.8821
   53ETHOX  H2333220  13.310  17.314  13.485 -2.4158  1.8598 -0.9912
   54ETHOX   O133221  13.313  17.243  13.285  0.5273 -0.5735  0.4576
   54ETHOX   C133222  13.169  17.249  13.270 -0.1097 -0.9900  0.1263
   54ETHOX  H1133223  13.119  17.207  13.361 -0.5165 -1.4150 -0.2875
   54ETHOX  H1333224  13.139  17.353  13.246  0.2810 -0.9643 -0.2617
   54ETHOX   C233225  13.131  17.169  13.148 -0.0338  0.1229  0.0903
   54ETHOX  H2133226  13.210  17.172  13.070  1.8376  2.2415  1.8985
   54ETHOX  H2333227  13.031  17.194  13.107  0.1633  3.2245  1.2161
   55ETHOX   O133228  13.113  17.032  13.192 -0.2685 -0.9904  0.0124
   55ETHOX   C133229  13.122  16.938  13.082 -0.1832 -0.7880  0.1589
   55ETHOX  H1133230  13.230  16.951  13.057  0.3618  0.1464  2.6914
   55ETHOX  H1333231  13.121  16.835  13.125  2.7031 -1.3302 -0.8851
   55ETHOX   C233232  13.016  16.949  12.964 -0.0509  0.3287 -0.0603
   55ETHOX  H2133233  13.009  16.864  12.893 -1.1363  1.9572 -1.9794
   55ETHOX  H2333234  12.917  16.958  13.013 -0.1642  0.3493 -0.2962
   56ETHOX   O133235  13.033  17.064  12.876 -0.0132 -0.1733 -0.2042
   56ETHOX   C133236  12.967  17.056  12.754  0.4389  0.2691  0.1508
   56ETHOX  H1133237  12.927  17.157  12.731 -0.5355  0.0558  0.8553
   56ETHOX  H1333238  12.879  16.990  12.755  0.3506  0.3839  0.6711
   56ETHOX   C233239  13.067  17.003  12.654 -0.0766 -0.7110  0.4174
   56ETHOX  H2133240  13.084  16.897  12.682 -1.0923 -1.2640 -0.9269
   56ETHOX  H2333241  13.164  17.059  12.655  0.5497 -1.7709  0.4324
   57ETHOX   O133242  13.008  17.009  12.520  0.1600 -0.2980  0.5032
   57ETHOX   C133243  13.073  16.919  12.437  0.2964 -0.4780 -0.5666
   57ETHOX  H1133244  13.106  16.823  12.482  0.1537  0.5467  1.8720
   57ETHOX  H1333245  13.000  16.886  12.360 -0.6140 -1.9539  0.8858
   57ETHOX   C233246  13.191  16.978  12.369  1.1593 -0.4570  0.5796
   57ETHOX  H2133247  13.254  17.024  12.448 -0.7783 -0.8399  2.4538
   57ETHOX  H2333248  13.153  17.052  12.295 -1.0168 -2.7368 -0.7434
   58ETHOX   O133249  13.279  16.884  12.310 -0.0770 -0.1458  0.2819
   58ETHOX   C133250  13.377  16.944  12.232 -0.0708  0.2557 -0.5341
   58ETHOX  H1133251  13.440  17.007  12.297 -2.7867  0.4793  2.1165
   58ETHOX  H1333252  13.339  17.009  12.149  2.2794  2.0131 -0.3282
   58ETHOX   C233253  13.455  16.831  12.159  0.7002 -0.3796 -1.0282
   58ETHOX  H2133254  13.532  16.883  12.098 -0.1417  1.4064 -0.6393
   58ETHOX  H2333255  13.384  16.773  12.096  0.2152 -2.1962  1.0579
   59ETHOX   O133256  13.504  16.736  12.247  0.3046  0.2697 -0.0853
   59ETHOX   C133257  13.586  16.647  12.174 -0.2006 -0.2708  0.0300
   59ETHOX  H1133258  13.565  16.653  12.065 -1.1884  1.4023  0.2722
   59ETHOX  H1333259  13.692  16.677  12.187 -0.4359  0.3309  0.5756
   59ETHOX   C233260  13.571  16.497  12.217 -0.2301  0.0972 -0.0988
   59ETHOX  H2133261  13.575  16.476  12.326  0.2316 -1.1639 -0.3360
   59ETHOX  H2333262  13.654  16.441  12.168 -0.8792  0.2231 -1.3663
   60ETHOX   O133263  13.450  16.439  12.164  0.1812 -0.6916  0.0047
   60ETHOX   C133264  13.344  16.466  12.248  0.0630 -0.1250  0.9310
   60ETHOX  H1133265  13.312  16.573  12.249  0.5207  0.0090  1.8141
   60ETHOX  H1333266  13.353  16.443  12.356 -0.0489  2.2755  1.5223
   60ETHOX   C233267  13.230  16.379  12.202 -0.0206  0.3958 -0.7435
   60ETHOX  H2133268  13.173  16.347  12.292  0.6328 -3.7167 -1.5826
   60ETHOX  H2333269  13.259  16.283  12.155  2.0472 -0.5866  2.2095
   61ETHOX   O133270  13.136  16.450  12.120  0.1127 -0.7732 -0.1523
   61ETHOX   C133271  13.176  16.465  11.989 -0.1755  0.3027 -0.6004
   61ETHOX  H1133272  13.249  16.549  11.982 -0.1196  0.9192  3.9890
   61ETHOX  H1333273  13.228  16.374  11.952 -2.1370 -0.3161 -1.9291
   61ETHOX   C233274  13.047  16.503  11.918  0.5581  0.3267 -0.3069
   61ETHOX  H2133275  12.958  16.447  11.953  1.0848 -1.2031 -1.3097
   61ETHOX  H2333276  13.046  16.478  11.810  0.5791 -1.9202  0.1817
   62ETHOX   O133277  13.029  16.648  11.903  0.4078 -0.0662 -0.2526
   62ETHOX   C133278  13.027  16.722  12.023  0.6472 -0.5972  0.0957
   62ETHOX  H1133279  13.128  16.718  12.067  0.3088  0.0380  0.9586
   62ETHOX  H1333280  12.958  16.666  12.089 -0.6822 -0.3403 -1.0283
   62ETHOX   C233281  12.970  16.872  12.025  0.3424 -0.1033  0.0884
   62ETHOX  H2133282  12.984  16.897  12.132 -0.8394 -0.3530  0.3128
   62ETHOX  H2333283  12.867  16.874  11.983  1.3874  0.6468 -2.7099
   63ETHOX   O133284  13.056  16.967  11.965 -0.2951  0.8571 -0.2480
   63ETHOX   C133285  13.046  16.969  11.822  0.2672 -0.6953 -0.1278
   63ETHOX  H1133286  13.036  16.866  11.782  1.2289 -1.4070  1.3573
   63ETHOX  H1333287  12.944  17.011  11.809  0.5793 -0.1368 -0.7886
   63ETHOX   C233288  13.155  17.049  11.759  0.2229  0.1041 -0.9801
   63ETHOX  H2133289  13.135  17.033  11.651  0.2835  0.5585 -1.0635
   63ETHOX  H2333290  13.257  17.020  11.793 -0.0901  2.8386  2.9058
   64ETHOX   O133291  13.129  17.179  11.806 -0.8286  0.1849  0.5388
   64ETHOX   C133292  13.202  17.271  11.725 -0.6038  0.1743 -0.4324
   64ETHOX  H1133293  13.193  17.254  11.615  0.6847 -0.6308 -0.4390
   64ETHOX  H1333294  13.309  17.266  11.755 -0.9835 -0.8519  0.8047
   64ETHOX   C233295  13.158  17.415  11.754  0.1048 -0.8707 -0.0962
   64ETHOX  H2133296  13.048  17.413  11.767  0.4605 -0.5126  4.1625
   64ETHOX  H2333297  13.172  17.486  11.669 -1.1870  0.8629  1.0671
   65ETHOX   O133298  13.211  17.483  11.866  0.0110 -0.1180 -0.3925
   65ETHOX   C133299  13.139  17.602  11.895 -0.2426  0.1101 -1.1232
   65ETHOX  H1133300  13.185  17.687  11.839  0.3632  0.1515 -0.5821
   65ETHOX  H1333301  13.031  17.596  11.872 -1.1507 -4.0868  2.8080
   65ETHOX   C233302  13.143  17.641  12.051 -0.0105  1.2564 -0.6324
   65ETHOX  H2133303  13.106  17.745  12.063 -2.3207  0.3609  0.9085
   65ETHOX  H2333304  13.250  17.635  12.078 -0.0977  0.4964 -0.4311
   66ETHOX   O133305  13.068  17.547  12.131 -0.1298  0.0202  0.3430
   66ETHOX   C133306  13.076  17.592  12.268  0.5280  1.1548 -0.2998
   66ETHOX  H1133307  13.007  17.679  12.271  0.6877  1.2517  0.9286
   66ETHOX  H1333308  13.177  17.625  12.299  0.5353  1.5049 -0.6789
   66ETHOX   C233309  13.027  17.494  12.371  0.1228  0.2412 -0.0814
   66ETHOX  H2133310  13.099  17.411  12.360 -0.8848 -0.9824  2.0402
   66ETHOX  H2333311  12.926  17.455  12.347  0.2290  0.6173 -1.2117
   67ETHOX   O133312  13.029  17.551  12.499  0.0223 -0.2679 -0.9872
   67ETHOX   C133313  12.958  17.472  12.592 -0.0898  0.6603 -0.5778
   67ETHOX  H1133314  12.849  17.485  12.575 -0.7006 -0.4814  2.0459
   67ETHOX  H1333315  12.981  17.363  12.586 -0.6786  0.5615 -1.3227
   67ETHOX   C233316  12.992  17.530  12.731 -0.3559  0.0981 -0.0386
   67ETHOX  H2133317  12.924  17.490  12.809  0.0481 -0.9414 -0.2159
   67ETHOX  H2333318  12.989  17.641  12.732 -0.9574  0.1051 -0.8899
   68ETHOX   O133319  13.119  17.477  12.761 -0.0348  0.4345  0.4478
   68ETHOX   C133320  13.149  17.483  12.895 -0.1771 -0.1256 -0.5465
   68ETHOX  H1133321  13.099  17.570  12.942 -1.0513 -0.9671  0.1283
   68ETHOX  H1333322  13.117  17.392  12.951 -0.7107 -0.2214 -0.9934
   68ETHOX   C233323  13.305  17.482  12.914  0.2735 -0.0703  0.2510
   68ETHOX  H2133324  13.316  17.504  13.022 -1.2588  1.0004  0.2217
   68ETHOX  H2333325  13.349  17.564  12.852 -1.5050  1.3237  0.7279
   69ETHOX   O133326  13.364  17.355  12.882 -0.1467  0.8573  0.2524
   69ETHOX   C133327  13.496  17.347  12.936 -0.1793  0.1242  0.3605
   69ETHOX  H1133328  13.564  17.387  12.858 -2.8719  1.4212 -1.4962
   69ETHOX  H1333329  13.512  17.425  13.013  1.5686 -0.2338  0.3845
   69ETHOX   C233330  13.533  17.205  12.973  0.1253  0.1242 -0.4089
   69ETHOX  H2133331  13.460  17.160  13.043 -0.1882 -1.5098 -1.7305
   69ETHOX  H2333332  13.637  17.199  13.011 -0.2063 -3.5462  0.2601
   70ETHOX   O133333  13.537  17.122  12.853  0.6589 -0.1535 -0.3863
   70ETHOX   C133334  13.416  17.053  12.830 -0.0283 -0.6453  0.4162
   70ETHOX  H1133335  13.395  16.979  12.910  1.1134 -1.3737  0.0728
   70ETHOX  H1333336  13.332  17.126  12.821  1.3753  1.0367  0.3738
   70ETHOX   C233337  13.437  16.970  12.698  0.0531 -0.2339  0.3851
   70ETHOX  H2133338  13.471  17.031  12.612 -0.2129 -2.0892 -1.0753
   70ETHOX  H2333339  13.338  16.928  12.671  0.1589  0.3475 -0.9481
   71ETHOX   O133340  13.518  16.854  12.708 -0.7223  0.2772 -0.0385
   71ETHOX   C133341  13.537  16.790  12.582 -0.3663  0.6807  0.1853
   71ETHOX  H1133342  13.574  16.858  12.502 -1.5461  0.6375 -0.4104
   71ETHOX  H1333343  13.442  16.746  12.545 -0.5043  1.1569 -0.0235
   71ETHOX   C233344  13.636  16.674  12.599  0.3646 -0.1802  0.6433
   71ETHOX  H2133345  13.657  16.637  12.496  0.8056  0.1569  0.6094
   71ETHOX  H2333346  13.607  16.592  12.668  1.7127  2.1027  4.2025
   72ETHOX   O133347  13.759  16.734  12.641 -0.0793  0.1759  0.1521
   72ETHOX   C133348  13.864  16.633  12.645 -0.6223 -0.5376  0.6416
   72ETHOX  H1133349  13.840  16.569  12.732 -0.2523 -1.7147 -0.1054
   72ETHOX  H1333350  13.860  16.563  12.560 -0.0520 -1.7478  1.5782
   72ETHOX   C233351  14.002  16.688  12.670 -0.7377 -0.1594  0.4100
   72ETHOX  H2133352  14.038  16.749  12.584  0.7132 -0.8349  0.5156
   72ETHOX  H2333353  14.069  16.601  12.683  0.2919  0.5714  0.1725
   73ETHOX   O133354  14.016  16.752  12.794 -0.6843 -0.2307  0.4459
   73ETHOX   C133355  14.152  16.802  12.797  0.4985 -0.0775 -0.6069
   73ETHOX  H1133356  14.171  16.870  12.711 -0.2341  0.2421 -0.5170
   73ETHOX  H1333357  14.218  16.715  12.777 -2.1586 -2.0147 -1.4587
   73ETHOX   C233358  14.190  16.876  12.930 -0.4991  0.0615  0.0143
   73ETHOX  H2133359  14.103  16.928  12.974  0.6888 -0.5252  3.2976
   73ETHOX  H2333360  14.270  16.952  12.912  1.7107 -1.7228  1.7158
   74ETHOX   O133361  14.243  16.808  13.040 -0.0677 -0.0603 -0.7220
   74ETHOX   C133362  14.150  16.708  13.088 -0.2149 -0.2992  0.0373
   74ETHOX  H1133363  14.043  16.739  13.090 -0.1313 -0.0357  0.7369
   74ETHOX  H1333364  14.158  16.619  13.022 -1.3305 -0.0519 -0.4477
   74ETHOX   C233365  14.194  16.649  13.227  0.0570 -0.0265 -0.0618
   74ETHOX  H2133366  14.298  16.672  13.257 -0.3372 -0.4133  1.7109
   74ETHOX  H2333367  14.172  16.540  13.228  1.4435 -0.3681  2.6015
   75ETHOX   O133368  14.121  16.705  13.325  0.4669 -0.2701 -0.4448
   75ETHOX   C133369  14.173  16.673  13.452 -0.3004 -0.0090 -0.0653
   75ETHOX  H1133370  14.279  16.707  13.458 -0.7248  1.8773 -1.9407
   75ETHOX  H1333371  14.179  16.565  13.477  0.4785  0.1903  0.6717
   75ETHOX   C233372  14.092  16.749  13.555 -0.0303 -0.4538 -0.4576
   75ETHOX  H2133373  14.056  16.844  13.511 -1.0126  0.3843  1.9737
   75ETHOX  H2333374  14.153  16.768  13.645 -1.9717 -1.5953  1.2006
   76ETHOX   O133375  13.982  16.679  13.605  0.9875 -0.3747 -0.6490
   76ETHOX   C133376  13.887  16.774  13.657 -0.5041  0.0719 -0.0588
   76ETHOX  H1133377  13.939  16.870  13.672  0.4798 -0.8356  3.1396
   76ETHOX  H1333378  13.810  16.798  13.581  0.7889  0.4068 -1.2972
   76ETHOX   C233379  13.834  16.731  13.793 -0.0445 -0.0768  0.2957
   76ETHOX  H2133380  13.790  16.631  13.773  1.1682 -0.6196  0.2962
   76ETHOX  H2333381  13.741  16.787  13.820  0.4280  0.5459  0.6545
   77ETHOX   O133382  13.914  16.734  13.906 -0.1307  0.4807 -0.0475
   77ETHOX   C133383  13.978  16.613  13.925 -0.0895  0.7494  0.1000
   77ETHOX  H1133384  14.000  16.571  13.825 -2.2196  0.2629 -0.2071
   77ETHOX  H1333385  13.906  16.543  13.973 -1.2194  1.5764 -0.3645
   77ETHOX   C233386  14.116  16.627  13.989 -0.6129 -0.1723 -0.0338
   77ETHOX  H2133387  14.179  16.694  13.927 -3.4570  2.0956 -0.6368
   77ETHOX  H2333388  14.150  16.523  13.969 -0.9553 -0.3910  0.4961
   78ETHOX   O133389  14.111  16.659  14.125  0.1385 -0.0058  0.9524
   78ETHOX   C133390  14.237  16.633  14.185 -0.2115  0.2866 -1.0701
   78ETHOX  H1133391  14.272  16.531  14.159  1.8261  1.3359 -2.7899
   78ETHOX  H1333392  14.321  16.695  14.146  0.9914  0.0540  0.9888
   78ETHOX   C233393  14.246  16.647  14.342  0.2024 -0.4538 -0.8284
   78ETHOX  H2133394  14.342  16.602  14.376 -0.3426 -0.8091  0.3090
   78ETHOX  H2333395  14.160  16.596  14.390  1.0198  0.3198  1.6315
   79ETHOX   O133396  14.249  16.784  14.391 -0.0234  0.4393 -0.7792
   79ETHOX   C133397  14.261  16.781  14.531  0.1816 -0.6958 -0.3989
   79ETHOX  H1133398  14.175  16.728  14.576  0.9534 -1.6151  0.0079
   79ETHOX  H1333399  14.348  16.726  14.571 -0.0023 -0.1689  0.7745
   79ETHOX   C233400  14.253  16.925  14.583 -0.1433  0.1834  0.4434
   79ETHOX  H2133401  14.244  16.923  14.693 -2.6970  1.1874  0.3095
   79ETHOX  H2333402  14.161  16.970  14.541  0.6096  1.9562  0.5715
   80ETHOX   O133403  14.368  16.997  14.555  0.4949  0.2071  0.5677
   80ETHOX   C133404  14.464  17.009  14.662 -0.0609 -0.0602 -0.2163
   80ETHOX  H1133405  14.458  16.921  14.729 -0.7048 -2.0128 -2.6829
   80ETHOX  H1333406  14.567  17.006  14.620 -0.0293  0.8189 -0.2349
   80ETHOX   C233407  14.432  17.143  14.730  0.3884 -0.3379 -0.2278
   80ETHOX  H2133408  14.455  17.231  14.666 -0.8836  0.0697 -0.1569
   80ETHOX  H2333409  14.497  17.125  14.817  0.1787 -1.6855 -0.3262
   81ETHOX   O133410  14.303  17.150  14.792 -0.3197  0.1393  0.6627
   81ETHOX   C133411  14.227  17.256  14.737  0.3722  0.1907 -0.1552
   81ETHOX  H1133412  14.285  17.348  14.759  2.4532 -0.7330 -1.4773
   81ETHOX  H1333413  14.216  17.251  14.627 -0.2038 -2.0682 -0.0653
   81ETHOX   C233414  14.082  17.264  14.802 -0.5655 -0.3704  0.0451
   81ETHOX  H2133415  14.028  17.343  14.746  1.2921  0.7977 -0.1965
   81ETHOX  H2333416  14.025  17.169  14.794 -1.0424 -0.5442  3.6071
   82ETHOX   O133417  14.080  17.299  14.938 -0.4866 -0.5113 -0.1451
   82ETHOX   C133418  13.954  17.284  14.992  0.0518  0.1733  0.2408
   82ETHOX  H1133419  13.896  17.211  14.932 -0.5456 -0.5845  1.7013
   82ETHOX  H1333420  13.895  17.378  14.994 -2.3128 -1.2416  2.4335
   82ETHOX   C233421  13.956  17.232  15.135  0.5547  0.3357 -0.0089
   82ETHOX  H2133422  13.852  17.233  15.174  0.1805 -0.6792 -0.9313
   82ETHOX  H2333423  14.023  17.289  15.203  0.1032 -1.0949  1.6877
   83ETHOX   O133424  13.993  17.098  15.150  0.3830  0.6121  0.0676
   83ETHOX   C133425  13.995  17.062  15.289 -0.4922 -0.0721  0.9144
   83ETHOX  H1133426  13.931  17.128  15.352  0.9983  0.6896  1.6775
   83ETHOX  H1333427  13.954  16.959  15.292  3.2632 -1.8607 -1.7599
   83ETHOX   C233428  14.135  17.054  15.356  0.2234 -0.4082  0.0078
   83ETHOX  H2133429  14.212  17.009  15.289 -0.1026 -1.5083  0.3446
   83ETHOX  H2333430  14.123  16.988  15.444  0.2799 -0.0903  0.2560
   84ETHOX   O133431  14.175  17.186  15.398 -0.0014  0.4383  0.1247
   84ETHOX   C133432  14.280  17.176  15.497 -0.4333  0.5020  0.1012
   84ETHOX  H1133433  14.372  17.137  15.450 -0.5834 -0.3395  0.4892
   84ETHOX  H1333434  14.252  17.094  15.567  0.8348  1.3037  1.6321
   84ETHOX   C233435  14.318  17.300  15.580  0.4815  0.3657  0.1435
   84ETHOX  H2133436  14.358  17.387  15.524  2.7033 -0.8601 -0.2838
   84ETHOX  H2333437  14.394  17.265  15.654 -0.0309 -0.5936  0.2322
   85ETHOX   O133438  14.201  17.338  15.652  0.4376 -0.0766  0.3385
   85ETHOX   C133439  14.211  17.448  15.739  0.3468  0.0880 -0.3491
   85ETHOX  H1133440  14.288  17.419  15.814 -1.3132  1.3694  1.9844
   85ETHOX  H1333441  14.236  17.545  15.690  0.5227  0.7285  0.9502
   85ETHOX   C233442  14.078  17.466  15.824 -0.3123 -0.1968  0.9201
   85ETHOX  H2133443  14.092  17.531  15.914 -3.5321  0.1480  1.3011
   85ETHOX  H2333444  14.052  17.369  15.871  0.0666  0.6209  2.9356
   86ETHOX   O133445  13.966  17.520  15.751 -0.3880 -0.0626 -0.4286
   86ETHOX   C133446  13.852  17.513  15.839 -0.2264  0.7594  0.2638
   86ETHOX  H1133447  13.868  17.568  15.934 -1.2535  1.0272  0.2892
   86ETHOX  H1333448  13.836  17.405  15.861  0.3950  0.9002  1.4826
   86ETHOX   C233449  13.728  17.561  15.768 -0.3875 -0.2550 -0.2696
   86ETHOX  H2133450  13.643  17.544  15.837 -0.4471 -0.7633 -0.4644
   86ETHOX  H2333451  13.717  17.501  15.675 -0.3524  0.6229 -0.8623
   87ETHOX   O133452  13.727  17.699  15.728 -0.2686  0.0449  0.3323
   87ETHOX   C133453  13.704  17.785  15.839  0.2477  0.4158 -0.1814
   87ETHOX  H1133454  13.616  17.757  15.900 -0.8052 -0.4797 -2.0085
   87ETHOX  H1333455  13.795  17.799  15.900  0.0290  0.2223  0.1971
   87ETHOX   C233456  13.663  17.931  15.790 -0.3005  0.6681  0.1292
   87ETHOX  H2133457  13.742  17.973  15.724 -0.2503 -0.8636 -0.8160
   87ETHOX  H2333458  13.640  17.996  15.878 -1.6655  2.1363 -1.2347
   88ETHOX   O133459  13.544  17.927  15.706 -0.1758  0.0496  0.1834
   88ETHOX   C133460  13.477  18.055  15.719 -0.5964  1.0467  0.2756
   88ETHOX  H1133461  13.551  18.128  15.678  1.1552 -1.5842 -1.5814
   88ETHOX  H1333462  13.458  18.079  15.826 -0.6860  2.3723 -0.0221
   88ETHOX   C233463  13.340  18.053  15.650  0.5590  0.1035 -0.1937
   88ETHOX  H2133464  13.278  18.139  15.685  2.4374  1.0685  0.9018
   88ETHOX  H2333465  13.297  17.956  15.682  3.1464 -2.6365 -4.0112
   89ETHOX   O133466  13.357  18.053  15.507  0.6350  0.3693  0.0117
   89ETHOX   C133467  13.233  18.039  15.438  0.0198 -0.1477  0.0844
   89ETHOX  H1133468  13.169  17.969  15.496  0.4751 -0.0747  0.6745
   89ETHOX  H1333469  13.188  18.140  15.447 -2.3274 -1.1055 -0.0359
   89ETHOX   C233470  13.232  17.993  15.292  0.4037  0.1845 -0.0767
   89ETHOX  H2133471  13.274  18.077  15.233  0.1826  0.5794  0.3293
   89ETHOX  H2333472  13.133  17.985  15.243  1.8428  0.9948 -3.4553
   90ETHOX   O133473  13.304  17.872  15.272  0.1884 -0.2653  0.2654
   90ETHOX   C133474  13.365  17.869  15.145  0.3962 -0.1786 -0.3524
   90ETHOX  H1133475  13.288  17.877  15.065 -2.1978 -1.9603  1.7822
   90ETHOX  H1333476  13.436  17.954  15.133  2.9167 -2.1588 -0.2218
   90ETHOX   C233477  13.456  17.738  15.128 -0.5619  0.1995 -0.6798
   90ETHOX  H2133478  13.510  17.715  15.223  0.8280 -0.9433 -1.7149
   90ETHOX  H2333479  13.539  17.756  15.057  0.8141 -2.3499  0.1530
   91ETHOX   O133480  13.369  17.635  15.083 -0.5327 -0.0312 -0.3137
   91ETHOX   C133481  13.358  17.636  14.943  0.9546 -0.3428 -0.0308
   91ETHOX  H1133482  13.326  17.732  14.898  0.9188 -0.7569 -0.9169
   91ETHOX  H1333483  13.455  17.602  14.899  0.9877  0.1374 -0.3383
   91ETHOX   C233484  13.245  17.546  14.902 -0.3263  0.1731  0.0259
   91ETHOX  H2133485  13.212  17.561  14.797 -1.5736 -1.8623  0.0624
   91ETHOX  H2333486  13.159  17.573  14.966 -0.1015 -0.6628  0.6870
   92ETHOX   O133487  13.285  17.411  14.922  0.9952  0.3121 -0.7505
   92ETHOX   C133488  13.190  17.311  14.871 -0.1678 -0.3303 -0.1184
   92ETHOX  H1133489  13.085  17.335  14.900 -0.0193  0.8319 -0.5097
   92ETHOX  H1333490  13.189  17.327  14.761  0.8988 -0.2251 -0.1259
   92ETHOX   C233491  13.225  17.171  14.919 -1.1097  0.4939  0.4601
   92ETHOX  H2133492  13.179  17.149  15.018 -1.3293 -1.3423 -0.0208
   92ETHOX  H2333493  13.331  17.167  14.953 -0.7511  0.7764 -0.6012
   93ETHOX   O133494  13.199  17.066  14.828 -0.1188  0.0110 -0.0590
   93ETHOX   C133495  13.258  16.937  14.861 -0.6811 -0.0248  0.2415
   93ETHOX  H1133496  13.215  16.905  14.958 -1.7853  3.0130  0.8602
   93ETHOX  H1333497  13.369  16.946  14.867 -0.6160  0.1698 -0.9916
   93ETHOX   C233498  13.242  16.829  14.762  0.4856  0.6689  0.8413
   93ETHOX  H2133499  13.133  16.817  14.750  0.5391  0.8206  0.1967
   93ETHOX  H2333500  13.283  16.732  14.797 -0.5923  0.3622  1.2991
   94ETHOX   O133501  13.306  16.846  14.641  0.0137 -0.2537  0.2970
   94ETHOX   C133502  13.218  16.824  14.526 -0.3909  0.2598 -0.3628
   94ETHOX  H1133503  13.177  16.720  14.529  0.1274  0.0603 -0.0399
   94ETHOX  H1333504  13.127  16.888  14.528 -0.9175 -0.4393 -1.1789
   94ETHOX   C233505  13.293  16.847  14.391 -0.1995 -0.4679 -0.3109
   94ETHOX  H2133506  13.248  16.801  14.301  0.5171 -2.6467  0.3866
   94ETHOX  H2333507  13.398  16.811  14.402 -0.6865 -3.4519 -3.8287
   95ETHOX   O133508  13.299  16.987  14.369 -0.1104 -0.5047 -0.2452
   95ETHOX   C133509  13.379  17.016  14.256 -0.4891  0.2700 -0.1683
   95ETHOX  H1133510  13.358  16.946  14.172  3.4419 -2.5595  0.8968
   95ETHOX  H1333511  13.486  16.999  14.279 -0.6713  0.5326  0.9102
   95ETHOX   C233512  13.352  17.165  14.215 -0.5774  0.2840  0.1597
   95ETHOX  H2133513  13.413  17.180  14.123  0.5809  0.0516  0.8686
   95ETHOX  H2333514  13.391  17.242  14.285  1.1904 -2.1515  2.0308
   96ETHOX   O133515  13.211  17.190  14.172  0.1392 -0.5388 -0.1883
   96ETHOX   C133516  13.192  17.307  14.092  0.1835  0.5618  0.2883
   96ETHOX  H1133517  13.251  17.387  14.142  3.3450 -1.5917  0.3010
   96ETHOX  H1333518  13.237  17.279  13.994 -2.3072 -0.8104 -0.5459
   96ETHOX   C233519  13.051  17.371  14.087 -0.0814  0.3700  0.4773
   96ETHOX  H2133520  13.058  17.479  14.058 -2.8763  0.1324 -1.5308
   96ETHOX  H2333521  13.001  17.362  14.186  1.0816 -1.6648  0.9150
   97ETHOX   O133522  12.974  17.306  13.989  0.0298 -0.2349  0.2548
   97ETHOX   C133523  12.852  17.382  13.970  0.1153 -1.0546  0.3635
   97ETHOX  H1133524  12.882  17.487  13.949 -0.4967 -0.9699 -0.1035
   97ETHOX  H1333525  12.801  17.378  14.069  0.9074  0.0336  0.8390
   97ETHOX   C233526  12.774  17.326  13.852 -0.6240  0.2120  0.0313
   97ETHOX  H2133527  12.845  17.330  13.766 -1.6437  2.8176 -0.7957
   97ETHOX  H2333528  12.690  17.381  13.806 -0.9247  0.1762  0.5330
   98ETHOX   O133529  12.728  17.197  13.885  0.1965 -0.3535 -0.0122
   98ETHOX   C133530  12.672  17.127  13.774 -0.5409 -0.1891  0.3370
   98ETHOX  H1133531  12.586  17.182  13.729  0.4426  0.6328 -0.5867
   98ETHOX  H1333532  12.750  17.131  13.695 -0.2843  1.0743  0.6284
   98ETHOX   C233533  12.625  16.988  13.816 -0.4067 -0.0128  0.1724
   98ETHOX  H2133534  12.574  16.929  13.737 -1.6120  0.8007  0.3062
   98ETHOX  H2333535  12.549  17.000  13.896 -3.0038  2.0845 -2.3770
   99ETHOX   O133536  12.735  16.909  13.866 -0.8809 -0.3034 -0.3945
   99ETHOX   C133537  12.695  16.778  13.896  0.1173  0.3157 -0.5795
   99ETHOX  H1133538  12.664  16.718  13.808 -2.0222 -0.1414  0.4177
   99ETHOX  H1333539  12.605  16.776  13.961  1.5496  0.9339  1.5636
   99ETHOX   C233540  12.803  16.693  13.968  0.4050  0.1318 -0.8351
   99ETHOX  H2133541  12.760  16.596  14.002 -0.1163  1.4492  2.6681
   99ETHOX  H2333542  12.813  16.745  14.066 -1.9575 -0.8948  0.0331
  100ETHOX   O133543  12.930  16.677  13.904 -0.5072 -0.2613  0.1940
  100ETHOX   C133544  12.986  16.541  13.924  0.2291  0.0866  0.3538
  100ETHOX  H1133545  12.995  16.531  14.034  1.2197 -1.3281  0.1736
  100ETHOX  H1333546  12.918  16.465  13.879  0.1077 -1.6081  3.1794
  100ETHOX   C233547  13.126  16.519  13.856  0.5599  1.1458  0.1669
  100ETHOX  H2133548  13.206  16.559  13.922  0.6064  0.8792  0.2762
  100ETHOX  H2333549  13.126  16.550  13.750 -0.0386 -0.2987 -0.2853
  101PROXS   O133550  13.157  16.377  13.832  0.2907 -0.5018 -0.3279
  101PROXS   C133551  13.283  16.358  13.781 -0.2791 -0.1623 -0.3765
  101PROXS  H1133552  13.297  16.427  13.695 -1.7485  2.2672  1.1878
  101PROXS  H1333553  13.355  16.398  13.856 -1.1868  2.4739 -0.7910
  101PROXS   C233554  13.312  16.210  13.754  0.3933  0.0019 -0.8707
  101PROXS  H2133555  13.236  16.175  13.681  2.2619 -1.1830 -2.3430
  101PROXS   C333556  13.324  16.123  13.872  0.4138  0.6963 -0.3294
  101PROXS  H3133557  13.246  16.135  13.950 -0.8688 -1.1547 -1.2716
  101PROXS  H3233558  13.328  16.017  13.840 -0.0932  0.3114  0.8385
  101PROXS  H3333559  13.419  16.150  13.925  0.2176 -2.9524  2.2391
  102PROXS   O133560  13.449  16.209  13.702  0.4164  0.4846  0.2180
  102PROXS   C133561  13.449  16.143  13.578 -0.0666 -0.5036  0.6145
  102PROXS  H1133562  13.422  16.036  13.590  2.0694 -0.9262  2.2751
  102PROXS  H1333563  13.382  16.202  13.511  0.3047  2.2492  2.5003
  102PROXS   C233564  13.585  16.143  13.510  0.3709  0.2118  0.5320
  102PROXS  H2133565  13.661  16.107  13.583  0.3145 -2.2210 -0.4970
  102PROXS   C333566  13.641  16.277  13.462  0.3875 -0.4901  0.2275
  102PROXS  H3133567  13.579  16.314  13.377 -0.0271  1.5016  1.3507
  102PROXS  H3233568  13.651  16.354  13.540  0.1852 -0.0806 -0.1477
  102PROXS  H3333569  13.741  16.272  13.414  1.2774  1.1770  1.8124
  103PROXR   O133570  13.588  16.045  13.409 -0.0113  0.8027 -0.1412
  103PROXR   C133571  13.713  15.985  13.384 -0.1628  0.3266  0.3107
  103PROXR  H1133572  13.778  16.057  13.330  0.1087 -0.2376 -0.1257
  103PROXR  H1333573  13.762  15.966  13.481  0.0775  1.7368  0.4961
  103PROXR   C233574  13.700  15.855  13.310 -0.0674  0.3938  0.6065
  103PROXR  H2133575  13.626  15.887  13.233  2.2436 -0.2963 -2.0923
  103PROXR   C333576  13.649  15.738  13.393 -0.6450 -0.3815 -0.1759
  103PROXR  H3133577  13.634  15.637  13.349  1.8602  0.0879 -2.3174
  103PROXR  H3233578  13.713  15.718  13.482 -1.0884 -0.4378  0.1384
  103PROXR  H3333579  13.550  15.761  13.439 -1.5081 -1.2940 -1.5106
  104PROXS   O133580  13.827  15.818  13.240  0.2053  0.0995 -0.0555
  104PROXS   C133581  13.817  15.738  13.126 -0.2280  0.3749  0.6091
  104PROXS  H1133582  13.749  15.651  13.136  0.7352 -0.5845 -0.8342
  104PROXS  H1333583  13.783  15.805  13.045  0.2362  1.5632  1.3646
  104PROXS   C233584  13.959  15.677  13.088 -0.1197  0.3519 -0.1359
  104PROXS  H2133585  13.989  15.602  13.163 -1.5023  0.1392  0.2294
  104PROXS   C333586  14.070  15.777  13.079  0.0077 -0.5765  0.2203
  104PROXS  H3133587  14.080  15.832  13.176  2.5086  0.6302 -0.6361
  104PROXS  H3233588  14.169  15.733  13.058  1.1565  1.6541  0.5893
  104PROXS  H3333589  14.045  15.854  13.003  1.4365  1.4942  1.6941
  105PROXS   O133590  13.949  15.617  12.955 -0.1760  0.3322 -0.1684
  105PROXS   C133591  13.867  15.504  12.951  0.7221 -0.0972  0.0479
  105PROXS  H1133592  13.905  15.428  13.022 -0.8396  0.2568  1.3214
  105PROXS  H1333593  13.760  15.519  12.977  0.1963 -2.0229 -0.8668
  105PROXS   C233594  13.888  15.430  12.822 -0.2984  0.2470  0.1816
  105PROXS  H2133595  13.997  15.424  12.804 -0.6212  1.6863 -2.9213
  105PROXS   C333596  13.820  15.493  12.702 -0.4321  0.3910 -0.5527
  105PROXS  H3133597  13.775  15.585  12.745 -0.5599 -0.0629  0.2870
  105PROXS  H3233598  13.888  15.518  12.618 -0.4549 -0.9175 -0.9847
  105PROXS  H3333599  13.739  15.428  12.662  0.0709 -1.0125  0.6659
  106PROXS   O133600  13.830  15.297  12.838  0.1171  0.0927  0.1644
  106PROXS   C133601  13.906  15.196  12.772  0.8243  0.0204 -0.4889
  106PROXS  H1133602  13.943  15.224  12.671  3.4894 -0.0907  0.3524
  106PROXS  H1333603  13.995  15.182  12.838  0.2972  1.2973  0.5511
  106PROXS   C233604  13.812  15.073  12.765 -0.4469  0.8815  0.1417
  106PROXS  H2133605  13.742  15.084  12.680  1.2310 -1.7330 -1.7084
  106PROXS   C333606  13.740  15.037  12.891  0.6501 -0.5650  0.1186
  106PROXS  H3133607  13.813  15.035  12.976 -2.4202  2.7853  3.1889
  106PROXS  H3233608  13.671  15.120  12.917  0.2106 -0.9015  0.0335
  106PROXS  H3333609  13.685  14.940  12.890  0.3947 -0.4209  0.2459
  107PROXR   O133610  13.887  14.950  12.743  0.1965 -0.9465  0.2070
  107PROXR   C133611  13.818  14.850  12.678 -0.0345 -0.1014  0.2054
  107PROXR  H1133612  13.713  14.857  12.715  0.8557  0.1120  2.9415
  107PROXR  H1333613  13.817  14.873  12.570 -2.4096  1.3846  0.4921
  107PROXR   C233614  13.881  14.713  12.702  0.7788 -0.7033  0.4693
  107PROXR  H2133615  13.907  14.717  12.810 -2.6625 -0.6085  1.4097
  107PROXR   C333616  14.002  14.690  12.617  0.2175  0.3902 -0.5847
  107PROXR  H3133617  13.980  14.681  12.509 -0.7843  1.3383 -0.4778
  107PROXR  H3233618  14.079  14.770  12.629  0.4621  0.0117  0.4737
  107PROXR  H3333619  14.036  14.594  12.661  0.7716  1.5597  1.7309
  108PROXS   O133620  13.780  14.609  12.672 -0.1394  0.5604 -0.1993
  108PROXS   C133621  13.687  14.597  12.770  0.2490  0.2918 -0.2628
  108PROXS  H1133622  13.737  14.546  12.856 -0.2344  1.0930  0.5100
  108PROXS  H1333623  13.648  14.695  12.803  1.5008  0.6823  0.1326
  108PROXS   C233624  13.561  14.509  12.727 -0.3434 -0.3858 -0.3407
  108PROXS  H2133625  13.606  14.407  12.723 -0.6208 -0.4633 -1.9122
  108PROXS   C333626  13.499  14.541  12.586  0.2516 -0.2845 -0.3828
  108PROXS  H3133627  13.407  14.482  12.570  0.5211 -0.6839 -0.4743
  108PROXS  H3233628  13.509  14.650  12.568  1.0938 -0.2986 -0.0532
  108PROXS  H3333629  13.561  14.499  12.503 -1.0479 -2.4439 -0.3430
  109PROXS   O133630  13.465  14.512  12.836 -0.1968 -0.3084  0.3691
  109PROXS   C133631  13.369  14.405  12.829  0.3442 -0.1823  0.1052
  109PROXS  H1133632  13.300  14.417  12.742  0.8516 -1.4117 -0.4942
  109PROXS  H1333633  13.425  14.311  12.814  0.7466  0.0755 -0.0180
  109PROXS   C233634  13.282  14.399  12.958 -0.2863  0.5290  0.0430
  109PROXS  H2133635  13.251  14.502  12.986  0.6638  0.7847  0.1743
  109PROXS   C333636  13.353  14.345  13.087  0.2040  0.0865 -0.2055
  109PROXS  H3133637  13.359  14.234  13.085 -2.0273 -0.1147  1.2842
  109PROXS  H3233638  13.454  14.390  13.084 -0.4991  1.7155 -0.5349
  109PROXS  H3333639  13.293  14.380  13.173 -1.1950 -2.2886 -0.1208
  110PROXR   O133640  13.166  14.321  12.929  0.8518 -0.1996  0.2432
  110PROXR   C133641  13.047  14.401  12.919  0.0418  0.4705  0.3579
  110PROXR  H1133642  13.073  14.502  12.879  0.8112  0.8328  1.6926
  110PROXR  H1333643  12.980  14.351  12.846  1.3985  0.6977 -1.1044
  110PROXR   C233644  12.970  14.417  13.048 -0.3576 -0.6591  0.5044
  110PROXR  H2133645  13.038  14.449  13.130 -1.9103 -0.0560  1.6066
  110PROXR   C333646  12.912  14.286  13.106 -0.2944  0.4625 -0.2669
  110PROXR  H3133647  12.834  14.257  13.032  1.5643 -1.9298 -1.4488
  110PROXR  H3233648  12.985  14.202  13.118  1.1181  2.0028  3.0981
  110PROXR  H3333649  12.855  14.315  13.196 -1.9757  1.8080 -1.6924
  111PROXS   O133650  12.872  14.522  13.041 -0.5300 -0.1171  0.1856
  111PROXS   C133651  12.925  14.654  13.062  0.1178 -0.1506 -0.0089
  111PROXS  H1133652  12.992  14.642  13.151  1.5793  1.1834 -0.8848
  111PROXS  H1333653  12.981  14.681  12.970  2.6268  0.1354  1.4819
  111PROXS   C233654  12.809  14.762  13.080  0.0067 -0.3004 -0.7113
  111PROXS  H2133655  12.762  14.739  13.177  1.7551 -1.1948 -0.0311
  111PROXS   C333656  12.706  14.743  12.969 -0.2667 -1.4485 -0.2300
  111PROXS  H3133657  12.651  14.647  12.983 -2.3520  0.0729  3.3737
  111PROXS  H3233658  12.635  14.828  12.975  2.6993  1.0580  1.8678
  111PROXS  H3333659  12.755  14.745  12.869 -0.3812 -0.8331 -0.2737
  112PROXR   O133660  12.862  14.897  13.079 -0.1020 -0.5326 -0.6636
  112PROXR   C133661  12.900  14.947  13.208  0.3784  0.1680  0.1225
  112PROXR  H1133662  12.825  14.902  13.276 -1.9437  1.3922 -1.4768
  112PROXR  H1333663  13.005  14.919  13.233  0.6817 -2.4670 -3.3301
  112PROXR   C233664  12.878  15.100  13.220 -0.5377  0.7993 -0.5273
  112PROXR  H2133665  12.772  15.130  13.204 -0.6419  1.1713  0.7829
  112PROXR   C333666  12.962  15.188  13.129 -0.0061 -0.1251 -0.4458
  112PROXR  H3133667  13.068  15.175  13.159 -0.9317 -1.0133  2.8672
  112PROXR  H3233668  12.940  15.160  13.024 -0.6487 -3.4491  0.4438
  112PROXR  H3333669  12.935  15.295  13.136 -0.9804 -0.2321 -1.9686
  113PROXS   O133670  12.921  15.138  13.352  0.3534 -0.1088  0.2975
  113PROXS   C133671  12.832  15.110  13.461  0.4979 -0.3407  0.1706
  113PROXS  H1133672  12.730  15.151  13.447  0.3679  1.1306  4.1355
  113PROXS  H1333673  12.804  15.003  13.468  0.4019 -0.5230 -2.2713
  113PROXS   C233674  12.896  15.163  13.587 -0.5448  0.7526  0.9591
  113PROXS  H2133675  12.920  15.272  13.582 -0.3047  0.8202  2.7864
  113PROXS   C333676  13.035  15.095  13.612 -0.0435 -0.1289 -0.4195
  113PROXS  H3133677  13.103  15.119  13.528  0.0392 -0.1339 -0.3544
  113PROXS  H3233678  13.079  15.124  13.711  0.1499  0.4671 -0.6734
  113PROXS  H3333679  13.019  14.985  13.605 -0.9413 -0.0152 -0.1486
  114PROXR   O133680  12.808  15.139  13.696  0.3225  0.1475  0.5535
  114PROXR   C133681  12.847  15.182  13.821 -0.3552 -0.3066  0.0557
  114PROXR  H1133682  12.882  15.091  13.875 -0.4943 -1.2055 -1.3370
  114PROXR  H1333683  12.932  15.254  13.826  0.0498 -0.8317  3.5471
  114PROXR   C233684  12.724  15.248  13.884 -0.0940 -0.0279 -0.6398
  114PROXR  H2133685  12.634  15.188  13.858 -0.2202 -1.5486  2.8244
  114PROXR   C333686  12.705  15.393  13.822 -0.0881  0.5078  0.7435
  114PROXR  H3133687  12.791  15.454  13.855  0.5362 -0.4466  0.9233
  114PROXR  H3233688  12.714  15.380  13.712  0.3102 -1.2982  0.9554
  114PROXR  H3333689  12.606  15.435  13.850  0.3654  0.7427  2.0641
  115PROXR   O133690  12.736  15.252  14.023 -0.1751 -0.0791  0.1760
  115PROXR   C133691  12.612  15.233  14.088 -0.0276 -0.1348 -0.9149
  115PROXR  H1133692  12.530  15.292  14.043 -0.8319 -1.1593 -0.8402
  115PROXR  H1333693  12.585  15.127  14.069  1.0144 -0.6518  0.2960
  115PROXR   C233694  12.622  15.261  14.243  0.0052  0.0756 -0.7169
  115PROXR  H2133695  12.700  15.203  14.296 -1.2512 -0.5989  0.4931
  115PROXR   C333696  12.493  15.220  14.312  0.0440 -0.5368 -0.1171
  115PROXR  H3133697  12.463  15.116  14.288 -0.0013 -0.1365 -1.9401
  115PROXR  H3233698  12.509  15.226  14.421  0.4872  0.4212 -0.2273
  115PROXR  H3333699  12.409  15.291  14.292  0.4405  0.6809  2.2582
  116PROXS   O133700  12.640  15.397  14.266  0.7390 -0.2340  0.0322
  116PROXS   C133701  12.781  15.429  14.279  0.1334 -0.2833 -0.2724
  116PROXS  H1133702  12.842  15.380  14.200 -1.2574 -0.6101 -1.1818
  116PROXS  H1333703  12.795  15.536  14.256 -0.0158 -0.6185 -2.0478
  116PROXS   C233704  12.829  15.395  14.420 -0.1427  0.2570 -1.3204
  116PROXS  H2133705  12.823  15.288  14.447  3.2233  0.2617 -0.1462
  116PROXS   C333706  12.768  15.480  14.534  0.8771  0.5854 -0.0517
  116PROXS  H3133707  12.783  15.587  14.508 -0.7269  0.5650 -1.2117
  116PROXS  H3233708  12.658  15.471  14.542  0.6800  1.7781 -1.0084
  116PROXS  H3333709  12.813  15.458  14.633 -1.0785 -3.1877  0.1477
  117PROXS   O133710  12.963  15.427  14.430 -0.0928 -0.0675  0.1984
  117PROXS   C133711  13.047  15.340  14.352 -0.1846  0.7972  0.3394
  117PROXS  H1133712  13.019  15.236  14.381  0.3673  0.3700 -0.6146
  117PROXS  H1333713  13.035  15.347  14.241 -0.5840 -1.1131  0.2202
  117PROXS   C233714  13.206  15.355  14.390  0.4684 -0.6796  0.0140
  117PROXS  H2133715  13.208  15.356  14.501 -0.0632  1.3711  0.0543
  117PROXS   C333716  13.257  15.489  14.334 -0.1626  0.2851 -0.0160
  117PROXS  H3133717  13.359  15.522  14.363 -0.0705 -0.2259  0.2526
  117PROXS  H3233718  13.259  15.485  14.223  3.9620 -0.5310 -0.0785
  117PROXS  H3333719  13.193  15.571  14.371  0.2661  0.1896  0.9829
  118PROXR   O133720  13.263  15.245  14.322 -0.8764  0.3298  0.3627
  118PROXR   C133721  13.392  15.218  14.376 -0.3543  0.5001 -0.5842
  118PROXR  H1133722  13.463  15.301  14.355 -0.0063  0.2496 -0.4054
  118PROXR  H1333723  13.391  15.210  14.487  1.6030 -0.4635 -0.5941
  118PROXR   C233724  13.448  15.086  14.320 -0.5802  0.2640 -0.2139
  118PROXR  H2133725  13.440  15.091  14.209  0.5465 -0.1160 -0.3251
  118PROXR   C333726  13.366  14.960  14.364  0.0720  0.0840 -0.4683
  118PROXR  H3133727  13.387  14.870  14.303  3.3307  0.8008 -0.5797
  118PROXR  H3233728  13.368  14.926  14.470 -1.3241  0.8136 -0.1868
  118PROXR  H3333729  13.264  15.000  14.346  0.0036 -0.0005 -0.2719
  119PROXR   O133730  13.579  15.062  14.366 -0.7764  0.4462  0.3528
  119PROXR   C133731  13.645  14.951  14.307  0.2593  0.4583 -1.0323
  119PROXR  H1133732  13.608  14.853  14.344  0.5591  0.7822  0.1529
  119PROXR  H1333733  13.618  14.942  14.200 -1.0353 -2.0667 -0.5741
  119PROXR   C233734  13.786  14.948  14.347 -0.9777  0.7137  0.4412
  119PROXR  H2133735  13.779  14.948  14.458 -0.2502  0.0185  0.4946
  119PROXR   C333736  13.870  15.067  14.308 -0.4071 -0.2590 -0.4459
  119PROXR  H3133737  13.836  15.155  14.367 -0.9805 -0.1565 -0.9202
  119PROXR  H3233738  13.979  15.062  14.331 -0.7642  0.7285  1.6457
  119PROXR  H3333739  13.867  15.098  14.201 -1.4885 -2.1167 -0.9957
  120PROXS   O133740  13.839  14.825  14.303 -0.1643  0.0124 -0.1941
  120PROXS   C133741  13.951  14.778  14.376  0.0555 -0.1599  0.8318
  120PROXS  H1133742  14.042  14.829  14.337 -1.3061  1.5419 -0.2946
  120PROXS  H1333743  13.935  14.793  14.485  0.7130 -1.2522  1.0950
  120PROXS   C233744  13.976  14.624  14.354  0.1915 -0.3343 -0.4450
  120PROXS  H2133745  13.875  14.579  14.366 -1.1292  2.7120  0.9117
  120PROXS   C333746  14.061  14.570  14.467 -0.1672  0.9788 -0.1978
  120PROXS  H3133747  14.014  14.575  14.568 -0.8604  0.8499 -0.5077
  120PROXS  H3233748  14.093  14.466  14.449 -2.5582  0.2282 -0.5415
  120PROXS  H3333749  14.162  14.615  14.472  0.5699 -0.7234  1.1746
  121PROXS   O133750  14.036  14.587  14.232 -0.0203 -0.5411 -0.0782
  121PROXS   C133751  13.960  14.626  14.121  0.1591 -0.2236  0.2141
  121PROXS  H1133752  13.946  14.736  14.118  0.9748 -0.1126  0.1451
  121PROXS  H1333753  14.024  14.610  14.032  1.0406 -1.8520  1.0946
  121PROXS   C233754  13.821  14.564  14.100 -0.6579  0.0203 -0.1880
  121PROXS  H2133755  13.751  14.588  14.183  0.5272 -3.1711  1.9005
  121PROXS   C333756  13.825  14.408  14.084  0.1961  0.2377 -0.3608
  121PROXS  H3133757  13.720  14.372  14.090  0.0184  0.3991 -1.9965
  121PROXS  H3233758  13.856  14.380  13.981  2.2313 -0.1204  0.3169
  121PROXS  H3333759  13.891  14.364  14.161 -0.3501  2.9876  1.8690
  122PROXS   O133760  13.765  14.593  13.973 -0.0877 -0.4458  0.6443
  122PROXS   C133761  13.750  14.734  13.944 -0.1594 -0.3558  0.2913
  122PROXS  H1133762  13.686  14.780  14.022  1.6242 -0.6833  2.0483
  122PROXS  H1333763  13.851  14.781  13.940  0.3988 -1.5417 -0.1561
  122PROXS   C233764  13.684  14.739  13.805  0.2956  0.1332 -0.5875
  122PROXS  H2133765  13.581  14.701  13.820  0.0808  1.3604  1.4321
  122PROXS   C333766  13.755  14.657  13.700  0.2400 -0.0385  0.1150
  122PROXS  H3133767  13.759  14.547  13.718 -1.1781 -0.0110  0.7392
  122PROXS  H3233768  13.707  14.664  13.600  2.8282  2.3474 -1.0918
  122PROXS  H3333769  13.865  14.675  13.694  0.6122 -1.7854  0.9023
  123PROXS   O133770  13.668  14.876  13.754  1.0376  0.0065 -0.0558
  123PROXS   C133771  13.560  14.954  13.815 -0.4652  0.4565  0.5150
  123PROXS  H1133772  13.476  14.962  13.743  0.0768  1.0212 -0.0585
  123PROXS  H1333773  13.527  14.902  13.908 -0.6466  0.5797  0.5214
  123PROXS   C233774  13.597  15.101  13.855 -1.0167  0.1823  0.0072
  123PROXS  H2133775  13.621  15.160  13.764  0.0723 -0.0272  0.1428
  123PROXS   C333776  13.724  15.110  13.940 -0.2347  0.0609 -0.3329
  123PROXS  H3133777  13.763  15.214  13.936 -1.5664  0.5749 -0.4582
  123PROXS  H3233778  13.703  15.080  14.044 -0.1229  0.5944 -0.1554
  123PROXS  H3333779  13.807  15.050  13.897  1.4684  1.5074  0.8096
  124PROXR   O133780  13.483  15.160  13.921 -0.2007 -0.1745 -0.0311
  124PROXR   C133781  13.399  15.225  13.836 -0.1811  0.1513 -0.2786
  124PROXR  H1133782  13.458  15.300  13.780 -0.9091  2.0056  1.3569
  124PROXR  H1333783  13.353  15.157  13.761  1.3444 -1.8208  0.4663
  124PROXR   C233784  13.288  15.293  13.918 -0.0599  0.7100 -0.2568
  124PROXR  H2133785  13.332  15.366  13.989  0.9878  0.9616 -1.1274
  124PROXR   C333786  13.207  15.180  13.992  0.7904  0.1928  0.7957
  124PROXR  H3133787  13.137  15.230  14.062  0.7663  2.9804 -1.1013
  124PROXR  H3233788  13.161  15.116  13.915  1.3821  0.8650 -0.1308
  124PROXR  H3333789  13.285  15.119  14.044 -0.1444 -0.8166  1.0425
  125PROXS   O133790  13.192  15.351  13.834  0.5028 -0.3852  0.1785
  125PROXS   C133791  13.111  15.453  13.897 -0.6335  0.2318 -0.3601
  125PROXS  H1133792  13.020  15.411  13.944  0.7441 -0.8085  1.4952
  125PROXS  H1333793  13.169  15.498  13.980  0.5532 -0.3260 -0.8657
  125PROXS   C233794  13.071  15.566  13.791  0.4827 -0.2839 -0.3952
  125PROXS  H2133795  13.001  15.518  13.719 -0.1687 -0.5186  0.3828
  125PROXS   C333796  13.199  15.606  13.718  1.0686  0.2883  0.0805
  125PROXS  H3133797  13.265  15.522  13.687 -1.1391 -1.5421  0.1218
  125PROXS  H3233798  13.181  15.649  13.617  0.2052  0.8232  0.4564
  125PROXS  H3333799  13.252  15.680  13.782  1.2543 -0.1543  0.4430
  126PROXS   O133800  13.000  15.671  13.866  0.5135 -0.6660  0.0204
  126PROXS   C133801  12.934  15.768  13.786 -0.2414 -0.2830  0.6418
  126PROXS  H1133802  13.010  15.832  13.737  0.4727 -1.3302  0.3354
  126PROXS  H1333803  12.871  15.709  13.716  0.3907 -0.2578  0.0492
  126PROXS   C233804  12.836  15.847  13.875 -0.1996  0.1466  0.4011
  126PROXS  H2133805  12.899  15.891  13.955 -1.4539 -0.3026  1.6906
  126PROXS   C333806  12.727  15.762  13.933 -0.1878 -0.2787  0.6639
  126PROXS  H3133807  12.776  15.669  13.970  2.2766  0.5395 -0.3488
  126PROXS  H3233808  12.676  15.810  14.020  0.9559  0.8361  0.7315
  126PROXS  H3333809  12.641  15.749  13.864 -0.2662  2.0616  0.2578
  127PROXR   O133810  12.764  15.949  13.797  0.2138 -0.3707  0.0742
  127PROXR   C133811  12.846  16.019  13.710  1.0951  0.0794  0.2083
  127PROXR  H1133812  12.940  16.050  13.759  1.9846 -1.0097 -0.7643
  127PROXR  H1333813  12.842  15.947  13.625 -0.4756 -0.2504  0.5187
  127PROXR   C233814  12.788  16.156  13.669  0.3488 -0.7998 -0.1945
  127PROXR  H2133815  12.780  16.233  13.748  0.7104 -0.4106 -0.5367
  127PROXR   C333816  12.655  16.137  13.600  0.3594 -0.1499  0.2126
  127PROXR  H3133817  12.637  16.240  13.563  0.7777  0.1058  0.7028
  127PROXR  H3233818  12.682  16.068  13.518  1.6156  0.1049  0.3972
  127PROXR  H3333819  12.569  16.096  13.658 -1.6808  0.0684 -2.4751
  128PROXR   O133820  12.875  16.205  13.568  0.0788  0.1372  0.0127
  128PROXR   C133821  12.875  16.350  13.548 -0.0098 -0.4239  0.4011
  128PROXR  H1133822  12.773  16.391  13.532  0.3903  0.7402  0.7224
  128PROXR  H1333823  12.905  16.398  13.644 -0.1814 -2.4586  1.5185
  128PROXR   C233824  12.969  16.381  13.435 -0.6424  0.2140  0.1594
  128PROXR  H2133825  12.935  16.343  13.336 -2.1123  0.0583  0.7098
  128PROXR   C333826  13.105  16.311  13.469 -0.4729  0.0950 -0.1923
  128PROXR  H3133827  13.088  16.203  13.489  0.3582 -0.4514 -2.1686
  128PROXR  H3233828  13.179  16.317  13.386 -0.5938 -0.1529 -0.3210
  128PROXR  H3333829  13.153  16.358  13.557 -0.2048  0.7179 -0.6640
  129PROXS   O133830  12.997  16.519  13.424 -0.1460  0.7970  0.3657
  129PROXS   C133831  12.884  16.594  13.392  0.0876 -0.8376 -0.8365
  129PROXS  H1133832  12.831  16.544  13.309 -2.1834  0.9839 -0.5674
  129PROXS  H1333833  12.818  16.605  13.480 -1.1098  0.0027 -1.8008
  129PROXS   C233834  12.914  16.741  13.343  0.3021  0.6248  0.5195
  129PROXS  H2133835  12.979  16.733  13.253 -1.3693  0.0048 -0.6877
  129PROXS   C333836  12.980  16.810  13.467  0.5132 -0.6890 -0.1492
  129PROXS  H3133837  12.999  16.918  13.447  0.5980 -0.4309  1.2459
  129PROXS  H3233838  12.906  16.811  13.550  1.6131 -0.3038  0.8427
  129PROXS  H3333839  13.072  16.757  13.499 -0.5071 -3.8723 -2.0199
  130PROXS   O133840  12.786  16.791  13.315 -0.2595 -0.4725 -0.2639
  130PROXS   C133841  12.780  16.933  13.293  0.3118 -0.1605 -0.0240
  130PROXS  H1133842  12.806  16.989  13.386  1.8338  0.8690 -1.0392
  130PROXS  H1333843  12.843  16.964  13.208 -0.0631  2.0761  0.4400
  130PROXS   C233844  12.637  16.969  13.242  0.0972 -0.0413 -0.2667
  130PROXS  H2133845  12.565  16.887  13.265  2.4407 -1.9697  0.6168
  130PROXS   C333846  12.640  16.989  13.095  0.0195  0.7447 -0.4452
  130PROXS  H3133847  12.547  17.029  13.050  0.4874 -0.5741 -2.7320
  130PROXS  H3233848  12.719  17.064  13.074 -1.9737  3.1666  0.2633
  130PROXS  H3333849  12.657  16.887  13.055  0.0896  0.1850  0.9634
  131PROXS   O133850  12.589  17.093  13.301  0.1162 -0.4633 -0.2184
  131PROXS   C133851  12.536  17.074  13.438 -0.6381  0.0787  0.2405
  131PROXS  H1133852  12.618  17.031  13.499  0.1957 -0.5078 -1.2422
  131PROXS  H1333853  12.522  17.172  13.490  2.7430  0.3169  0.9045
  131PROXS   C233854  12.404  16.989  13.451 -0.0066  0.1340 -0.5939
  131PROXS  H2133855  12.347  16.988  13.356 -2.2917 -0.2351  0.7052
  131PROXS   C333856  12.312  17.050  13.559 -0.8265  0.6768 -0.6382
  131PROXS  H3133857  12.220  16.990  13.571 -0.0268 -0.4788 -0.0541
  131PROXS  H3233858  12.368  17.061  13.654  0.3970 -0.5325 -1.1907
  131PROXS  H3333859  12.291  17.154  13.528 -0.6142  0.1738 -2.5744
  132PROXS   O133860  12.449  16.863  13.491 -0.0214  0.1630 -0.7807
  132PROXS   C133861  12.358  16.754  13.468  0.1722  0.3957  0.2120
  132PROXS  H1133862  12.251  16.763  13.497 -0.3710 -0.2854 -1.4795
  132PROXS  H1333863  12.371  16.722  13.362  2.0640  1.1945  0.1695
  132PROXS   C233864  12.389  16.635  13.561  0.1472  0.8226 -0.0123
  132PROXS  H2133865  12.384  16.672  13.666  0.5434 -2.1947  1.1646
  132PROXS   C333866  12.537  16.584  13.550  0.2193 -1.0275  0.8047
  132PROXS  H3133867  12.608  16.667  13.535 -1.1222 -0.1646 -1.2478
  132PROXS  H3233868  12.570  16.521  13.636  2.5814 -0.1937  0.5845
  132PROXS  H3333869  12.535  16.527  13.455  1.6070  0.8467 -0.4052
  133PROXS   O133870  12.286  16.537  13.543  0.3121  0.2744 -0.1350
  133PROXS   C133871  12.297  16.431  13.639  0.0528  0.1456 -0.8771
  133PROXS  H1133872  12.377  16.363  13.601 -0.0248 -1.2033  1.1940
  133PROXS  H1333873  12.318  16.474  13.740 -1.3133  1.5428 -1.1512
  133PROXS   C233874  12.160  16.364  13.648 -0.6127  0.3105  0.4309
  133PROXS  H2133875  12.143  16.307  13.554  2.3194 -1.1047  0.6553
  133PROXS   C333876  12.045  16.451  13.688  0.7114 -0.0341  0.7289
  133PROXS  H3133877  12.051  16.540  13.623  0.0045 -1.7906 -1.9211
  133PROXS  H3233878  11.956  16.385  13.678 -1.2058  2.0859  2.7774
  133PROXS  H3333879  12.049  16.486  13.793  2.1301  0.3665  0.5641
  134PROXS   O133880  12.160  16.268  13.758 -0.4400 -0.1502  0.2496
  134PROXS   C133881  12.237  16.154  13.742 -0.0806  0.5937  0.4934
  134PROXS  H1133882  12.232  16.117  13.638  1.5535  2.5212 -0.3300
  134PROXS  H1333883  12.343  16.177  13.763  0.0739 -0.4982  0.9909
  134PROXS   C233884  12.215  16.045  13.850  0.8116 -0.1965  0.1430
  134PROXS  H2133885  12.198  16.088  13.951  0.2351  2.4782 -1.0198
  134PROXS   C333886  12.347  15.966  13.874  0.1870 -0.3347  0.2696
  134PROXS  H3133887  12.429  16.030  13.912 -1.5392  0.8147  2.3217
  134PROXS  H3233888  12.317  15.881  13.939  2.2153 -0.5304  1.0286
  134PROXS  H3333889  12.377  15.916  13.780  0.8723 -0.4886  0.5664
  135PROXS   O133890  12.115  15.959  13.804 -0.5549  0.1760 -0.1125
  135PROXS   C133891  11.987  16.014  13.839 -0.0797 -0.3430 -0.4026
  135PROXS  H1133892  11.973  16.018  13.949 -2.9065 -2.9356 -0.5450
  135PROXS  H1333893  11.969  16.118  13.803  0.7341  0.0558  0.2985
  135PROXS   C233894  11.876  15.928  13.783  0.6568  0.1656  0.0159
  135PROXS  H2133895  11.889  15.820  13.802  1.8592  0.1139 -0.9882
  135PROXS   C333896  11.856  15.936  13.625  0.3288  0.1496  0.1202
  135PROXS  H3133897  11.804  16.032  13.603 -1.5843 -1.5838 -3.9453
  135PROXS  H3233898  11.957  15.928  13.581  0.5780 -0.0309  0.7180
  135PROXS  H3333899  11.803  15.854  13.572 -0.1453  0.8325 -0.4876
  136PROXS   O133900  11.754  15.962  13.847 -0.3454  0.6470 -0.3299
  136PROXS   C133901  11.654  15.858  13.841 -0.8408 -0.2015 -0.3248
  136PROXS  H1133902  11.626  15.851  13.734  0.3613  1.2256 -0.7694
  136PROXS  H1333903  11.694  15.763  13.881  1.0044  1.5721  2.4002
  136PROXS   C233904  11.539  15.908  13.929 -0.8197 -0.5349  0.4900
  136PROXS  H2133905  11.516  16.013  13.900  0.7977 -0.2888 -0.0147
  136PROXS   C333906  11.563  15.907  14.069  0.3776 -0.4138 -0.4471
  136PROXS  H3133907  11.557  15.808  14.119  0.9579 -0.0086  0.4468
  136PROXS  H3233908  11.656  15.965  14.086 -0.1246  0.5993 -1.0942
  136PROXS  H3333909  11.476  15.961  14.112 -0.2614 -0.2834 -1.8371
  137PROXS   O133910  11.427  15.825  13.908  0.2308 -0.2360  0.2593
  137PROXS   C133911  11.297  15.885  13.919 -0.7927  0.6689 -0.9276
  137PROXS  H1133912  11.234  15.846  14.002  1.1298  1.6598  1.0936
  137PROXS  H1333913  11.307  15.995  13.928  1.5153  0.6282 -2.1556
  137PROXS   C233914  11.215  15.877  13.789 -0.7525 -0.6761 -0.6683
  137PROXS  H2133915  11.223  15.769  13.760  2.6102 -0.8138  0.2442
  137PROXS   C333916  11.273  15.961  13.675 -0.3290 -0.0193 -0.1531
  137PROXS  H3133917  11.219  15.950  13.579 -1.0315 -1.3642  0.3615
  137PROXS  H3233918  11.271  16.069  13.700 -0.4213  0.1928 -1.0460
  137PROXS  H3333919  11.377  15.927  13.656 -0.1586 -0.9216  2.0691
  138PROXR   O133920  11.084  15.908  13.826  0.2287 -0.0066 -0.4194
  138PROXR   C133921  10.993  15.864  13.731 -0.1995 -0.4756 -0.4971
  138PROXR  H1133922  11.011  15.908  13.630 -1.1736  1.6571  0.1870
  138PROXR  H1333923  10.994  15.754  13.720 -1.5442 -0.6991  1.2066
  138PROXR   C233924  10.849  15.913  13.761  0.3754  0.8427  1.0317
  138PROXR  H2133925  10.833  15.904  13.871 -0.7965 -2.4226  0.6702
  138PROXR   C333926  10.741  15.831  13.692 -0.0294  0.0066 -0.4623
  138PROXR  H3133927  10.642  15.864  13.729  0.1448  0.6422 -0.5578
  138PROXR  H3233928  10.742  15.850  13.583 -0.9241 -2.3876 -0.9575
  138PROXR  H3333929  10.752  15.721  13.699 -1.1365 -0.0788  0.1988
  139PROXS   O133930  10.832  16.051  13.721 -0.0200 -0.1873 -0.2168
  139PROXS   C133931  10.925  16.145  13.781 -0.6308 -0.4136 -0.0424
  139PROXS  H1133932  10.914  16.146  13.892  1.3659  1.2248  0.1865
  139PROXS  H1333933  11.028  16.117  13.752 -0.4951  0.2769 -0.2336
  139PROXS   C233934  10.900  16.295  13.738  0.1414 -0.5266 -0.6282
  139PROXS  H2133935  10.796  16.317  13.769  0.1100  0.3180 -1.2792
  139PROXS   C333936  10.911  16.297  13.587 -0.1405  0.1703 -0.3925
  139PROXS  H3133937  11.015  16.268  13.562 -0.5813 -1.4110 -0.4703
  139PROXS  H3233938  10.849  16.221  13.535  0.6924 -0.3963 -0.5726
  139PROXS  H3333939  10.884  16.395  13.542 -0.5462  0.5419  0.6413
  140PROXR   O133940  10.977  16.385  13.808 -0.1095 -0.2773 -0.0448
  140PROXR   C133941  10.919  16.513  13.826  0.3746 -0.3248  0.0217
  140PROXR  H1133942  10.919  16.560  13.726 -0.4059  0.4169  0.3567
  140PROXR  H1333943  10.813  16.501  13.856 -0.4410  0.0463 -2.4957
  140PROXR   C233944  10.993  16.596  13.930 -0.0268  0.5524 -1.0935
  140PROXR  H2133945  11.040  16.535  14.011  0.7432  2.3961 -0.0855
  140PROXR   C333946  10.898  16.695  13.998 -1.0306  1.0169  0.6023
  140PROXR  H3133947  10.797  16.649  13.997 -0.7070  0.2456 -1.0978
  140PROXR  H3233948  10.947  16.711  14.096  1.2829 -3.3217  0.3977
  140PROXR  H3333949  10.891  16.799  13.959  0.0920  0.8591 -0.0468
  141PROXS   O133950  11.096  16.674  13.860 -0.5040 -0.7489 -0.4325
  141PROXS   C133951  11.213  16.596  13.812  0.6051 -0.1802  0.1566
  141PROXS  H1133952  11.298  16.594  13.884 -0.6829  1.6655  1.8421
  141PROXS  H1333953  11.184  16.491  13.794 -1.9370  0.6651 -1.0714
  141PROXS   C233954  11.277  16.659  13.692  0.6102 -0.1197  0.9747
  141PROXS  H2133955  11.286  16.767  13.719 -2.4975  0.0436  1.6683
  141PROXS   C333956  11.183  16.634  13.579 -0.0117  0.9719  0.3833
  141PROXS  H3133957  11.237  16.647  13.483  0.5974 -1.5359  0.3221
  141PROXS  H3233958  11.155  16.527  13.575  4.8482 -0.5385  1.0274
  141PROXS  H3333959  11.093  16.696  13.556 -0.2649 -0.0971 -1.8131
  142PROXS   O133960  11.403  16.597  13.675 -0.4749 -0.2201  0.7645
  142PROXS   C133961  11.488  16.694  13.609  0.0589 -0.1300  0.0475
  142PROXS  H1133962  11.434  16.752  13.531  0.6529 -1.1313 -1.1519
  142PROXS  H1333963  11.525  16.767  13.683 -0.8680 -0.0302  0.4256
  142PROXS   C233964  11.595  16.607  13.543  0.1950 -0.7604  0.0430
  142PROXS  H2133965  11.637  16.542  13.622 -0.0136 -1.1518 -0.1631
  142PROXS   C333966  11.707  16.690  13.467 -0.2931  0.8494 -0.6738
  142PROXS  H3133967  11.663  16.753  13.388 -0.4454  0.3165 -1.0125
  142PROXS  H3233968  11.771  16.751  13.535  0.0071 -1.1431  0.9416
  142PROXS  H3333969  11.775  16.625  13.408 -0.4146 -1.5656  1.6793
  143PROXS   O133970  11.540  16.520  13.444  0.0122 -0.0135  0.5179
  143PROXS   C133971  11.508  16.390  13.494  1.1391  0.6441  0.0059
  143PROXS  H1133972  11.603  16.343  13.525  1.4715  0.6669 -0.9405
  143PROXS  H1333973  11.438  16.396  13.580  1.7099 -0.6068  0.5902
  143PROXS   C233974  11.437  16.311  13.382 -0.4004  0.2566 -0.2211
  143PROXS  H2133975  11.497  16.321  13.289 -0.4280  1.0642 -0.1510
  143PROXS   C333976  11.292  16.356  13.353  0.1428 -0.2083  0.1402
  143PROXS  H3133977  11.229  16.312  13.433 -1.9660  0.9033 -0.8161
  143PROXS  H3233978  11.284  16.466  13.336 -0.6748 -0.6539 -2.9888
  143PROXS  H3333979  11.258  16.303  13.261 -0.0424 -0.1103  0.1504
  144PROXS   O133980  11.431  16.174  13.418  0.4945 -0.1469 -0.5314
  144PROXS   C133981  11.396  16.093  13.307 -0.1256  0.2979 -0.2980
  144PROXS  H1133982  11.287  16.094  13.285 -0.2747 -0.6734  0.3590
  144PROXS  H1333983  11.448  16.129  13.215  0.1047 -0.2898 -0.4038
  144PROXS   C233984  11.428  15.949  13.316 -0.4606 -0.7073  0.0571
  144PROXS  H2133985  11.366  15.904  13.397 -0.3066 -1.1068 -0.0444
  144PROXS   C333986  11.575  15.931  13.359 -0.6603 -0.1362  0.5811
  144PROXS  H3133987  11.612  15.826  13.364 -0.1090  0.1173  3.1331
  144PROXS  H3233988  11.645  15.981  13.289  0.3654 -1.3105  0.7251
  144PROXS  H3333989  11.585  15.968  13.463  0.5899  2.3156 -0.3294
  145PROXR   O133990  11.399  15.895  13.186 -0.0317 -0.8299 -0.1562
  145PROXR   C133991  11.398  15.749  13.192 -0.4572  0.4664 -0.2601
  145PROXR  H1133992  11.500  15.708  13.211 -0.3260  1.5341  1.5891
  145PROXR  H1333993  11.312  15.728  13.258 -0.8940 -2.4749 -1.6171
  145PROXR   C233994  11.350  15.692  13.050  0.4488 -0.5424  0.3876
  145PROXR  H2133995  11.427  15.724  12.977  1.6134 -0.8284  1.4334
  145PROXR   C333996  11.209  15.736  13.017  0.1388 -1.0000  0.2678
  145PROXR  H3133997  11.137  15.710  13.097 -2.0935  1.2826 -0.8493
  145PROXR  H3233998  11.200  15.845  12.999 -2.2586 -0.8618  1.8943
  145PROXR  H3333999  11.160  15.688  12.929 -0.7258  0.2230  0.0509
  146PROXS   O134000  11.352  15.548  13.044 -0.1419  0.5262 -0.0101
  146PROXS   C134001  11.470  15.489  13.003  0.2888 -0.1804 -0.3014
  146PROXS  H1134002  11.530  15.560  12.943 -1.0124  1.9090  0.7376
  146PROXS  H1334003  11.525  15.463  13.096 -0.6734 -0.9649  0.0754
  146PROXS   C234004  11.444  15.362  12.917  0.5010  0.8245 -0.1243
  146PROXS  H2134005  11.389  15.397  12.827  0.7692 -0.4303 -0.7884
  146PROXS   C334006  11.365  15.254  12.997 -0.3501 -0.2287  0.5626
  146PROXS  H3134007  11.425  15.192  13.067 -2.3899 -3.9053 -0.6980
  146PROXS  H3234008  11.287  15.308  13.054 -1.7570 -2.0945  0.4816
  146PROXS  H3334009  11.306  15.190  12.928 -0.5722  0.7783 -0.1991
  147PROXR   O134010  11.567  15.313  12.861  0.1595  0.2684 -0.1497
  147PROXR   C134011  11.548  15.201  12.775 -0.1288 -0.1883  0.2933
  147PROXR  H1134012  11.566  15.110  12.837  1.7721 -0.8896 -1.2067
  147PROXR  H1334013  11.443  15.209  12.740 -0.2950  1.7003  1.0753
  147PROXR   C234014  11.662  15.214  12.674 -0.2109 -0.8397 -0.0386
  147PROXR  H2134015  11.755  15.260  12.712  1.1802 -2.7800 -0.9291
  147PROXR   C334016  11.627  15.309  12.551  0.3063 -0.0273 -0.2462
  147PROXR  H3134017  11.583  15.407  12.581  1.2590 -0.4550  2.9691
  147PROXR  H3234018  11.717  15.343  12.496  0.5406  2.4154  1.4780
  147PROXR  H3334019  11.552  15.267  12.482 -0.7578  1.8079 -0.2845
  148PROXR   O134020  11.697  15.092  12.618 -0.5913  0.5081  0.1876
  148PROXR   C134021  11.816  15.085  12.537 -0.1317  0.8819 -0.3015
  148PROXR  H1134022  11.791  15.024  12.449 -0.8087  0.4867  0.1589
  148PROXR  H1334023  11.865  15.179  12.504  2.5881  0.0267  1.0093
  148PROXR   C234024  11.930  15.002  12.606 -0.2114 -0.5461 -0.3023
  148PROXR  H2134025  11.883  14.906  12.634 -2.4567  0.0735 -1.6960
  148PROXR   C334026  11.994  15.064  12.730  0.4084 -0.0445  0.0811
  148PROXR  H3134027  11.921  15.071  12.814 -0.8230 -2.2058 -0.7446
  148PROXR  H3234028  12.082  15.004  12.762 -1.6296 -1.8201  2.7737
  148PROXR  H3334029  12.027  15.168  12.706  0.4306  0.4353  1.9896
  149PROXR   O134030  12.041  14.987  12.516 -0.4958  0.8092  0.7974
  149PROXR   C134031  12.121  14.874  12.533 -0.0987 -0.1796 -0.2329
  149PROXR  H1134032  12.147  14.874  12.641 -2.6932 -1.2882  0.4553
  149PROXR  H1334033  12.071  14.775  12.526  2.3358 -1.7047  1.8813
  149PROXR   C234034  12.254  14.889  12.453  0.0359  0.6502  0.3193
  149PROXR  H2134035  12.291  14.991  12.477  1.9897  0.5631 -1.9682
  149PROXR   C334036  12.221  14.881  12.301 -0.4460  0.1460  0.0217
  149PROXR  H3134037  12.165  14.787  12.284  1.7113 -1.1400 -0.3893
  149PROXR  H3234038  12.150  14.962  12.275 -0.1249  0.6149  0.5805
  149PROXR  H3334039  12.306  14.885  12.230 -1.6442  0.7652 -1.4328
  150PROXS   O134040  12.350  14.804  12.501  0.7415 -0.3862 -0.4236
  150PROXS   C134041  12.476  14.816  12.435  0.5335 -0.1834 -0.0655
  150PROXS  H1134042  12.482  14.817  12.324  1.4854 -1.3681 -0.0320
  150PROXS  H1334043  12.518  14.910  12.478 -2.3866  0.3257  1.9947
  150PROXS   C234044  12.574  14.705  12.483 -0.5527 -0.2746 -0.5044
  150PROXS  H2134045  12.567  14.621  12.411 -0.0854 -1.2377  0.5339
  150PROXS   C334046  12.539  14.658  12.629 -0.2073  0.1079 -0.3891
  150PROXS  H3134047  12.506  14.743  12.692 -1.7705  0.5053 -1.6711
  150PROXS  H3234048  12.457  14.583  12.626 -0.8700  0.7994  0.1990
  150PROXS  H3334049  12.627  14.612  12.679  1.4750  1.1387 -2.2482
  151PROXR   O134050  12.708  14.764  12.482  0.1629  0.5179  0.3710
  151PROXR   C134051  12.756  14.779  12.346  0.1811  0.2443 -1.0086
  151PROXR  H1134052  12.815  14.687  12.324 -0.8227 -0.4901 -0.7428
  151PROXR  H1334053  12.673  14.771  12.272 -1.8269 -0.6860  1.1999
  151PROXR   C234054  12.841  14.905  12.330 -0.5814  0.0203 -0.3249
  151PROXR  H2134055  12.796  14.990  12.386  2.9889 -0.1438  3.2205
  151PROXR   C334056  12.861  14.956  12.185 -0.3018  0.5016  0.3467
  151PROXR  H3134057  12.767  14.995  12.140 -0.2043 -0.6690 -0.9310
  151PROXR  H3234058  12.951  15.021  12.182  2.2428 -2.7144  1.7844
  151PROXR  H3334059  12.891  14.866  12.128 -0.9872  0.7129 -0.3674
  152PROXR   O134060  12.975  14.891  12.385 -0.6563  0.6409 -0.3185
  152PROXR   C134061  12.979  14.872  12.527 -0.6043 -0.1519 -0.0010
  152PROXR  H1134062  12.937  14.969  12.563 -1.5218 -0.1262 -1.0774
  152PROXR  H1334063  12.914  14.790  12.563 -1.3318 -1.8472 -4.5720
  152PROXR   C234064  13.130  14.827  12.567 -0.4944 -0.9422  0.4029
  152PROXR  H2134065  13.202  14.906  12.535 -2.7508  0.6387 -1.0671
  152PROXR   C334066  13.168  14.697  12.503  1.0869  0.0123 -0.7032
  152PROXR  H3134067  13.269  14.659  12.527  1.0604  0.4425  0.1499
  152PROXR  H3234068  13.096  14.620  12.539  2.4021 -1.1601 -0.5267
  152PROXR  H3334069  13.163  14.723  12.395 -0.6592  5.5109  0.3709
  153PROXR   O134070  13.141  14.827  12.704 -0.4346 -0.3313 -0.4339
  153PROXR   C134071  13.274  14.833  12.766 -0.1206 -0.3484 -0.1821
  153PROXR  H1134072  13.299  14.724  12.773 -1.6868 -0.7383 -0.2514
  153PROXR  H1334073  13.344  14.893  12.705  0.3217  1.4946  2.0218
  153PROXR   C234074  13.261  14.895  12.900  1.0357  0.1940  0.3522
  153PROXR  H2134075  13.186  14.835  12.957  3.6933 -1.0551  2.7653
  153PROXR   C334076  13.212  15.037  12.894 -0.4006 -0.2383 -0.8589
  153PROXR  H3134077  13.301  15.099  12.869 -0.2391  0.3769  1.0620
  153PROXR  H3234078  13.129  15.054  12.822 -0.0417 -1.0008 -1.4707
  153PROXR  H3334079  13.182  15.073  12.995 -0.1831 -2.0652 -0.1093
  154PROXS   O134080  13.381  14.889  12.967 -0.0926  0.4552  0.0699
  154PROXS   C134081  13.376  14.919  13.102 -0.4440 -0.1923 -0.7118
  154PROXS  H1134082  13.401  15.026  13.118  2.7441 -0.8950 -0.3992
  154PROXS  H1334083  13.272  14.899  13.137  0.4545 -2.7925  0.7189
  154PROXS   C234084  13.475  14.822  13.183  0.0833  0.2979 -0.2123
  154PROXS  H2134085  13.575  14.844  13.140 -0.5402  2.2321 -0.7816
  154PROXS   C334086  13.443  14.670  13.168 -0.7122 -0.0321  0.2900
  154PROXS  H3134087  13.337  14.649  13.194 -0.8333 -1.2378 -1.0534
  154PROXS  H3234088  13.464  14.642  13.063 -0.5039  1.5412 -0.1096
  154PROXS  H3334089  13.520  14.618  13.228  2.8787  1.0315 -3.0021
  155PROXR   O134090  13.475  14.867  13.315 -0.2670 -0.0268  0.2900
  155PROXR   C134091  13.587  14.842  13.403 -0.1053 -0.3436 -0.0698
  155PROXR  H1134092  13.565  14.857  13.511 -0.1543  0.7028 -0.2167
  155PROXR  H1334093  13.627  14.738  13.402  0.0659 -0.2888  0.6416
  155PROXR   C234094  13.701  14.940  13.370 -0.4538 -0.6236 -0.0528
  155PROXR  H2134095  13.705  14.964  13.262  3.8154 -1.6579 -0.3115
  155PROXR   C334096  13.842  14.884  13.403  0.0654 -0.1174  0.3561
  155PROXR  H3134097  13.923  14.958  13.383 -1.4319  1.5110  0.0639
  155PROXR  H3234098  13.850  14.853  13.509  2.6137 -0.0583  0.2525
  155PROXR  H3334099  13.858  14.797  13.335 -1.9839 -0.5238  0.3508
  156PROXS   O134100  13.684  15.060  13.449  0.3405 -0.0633 -0.2374
  156PROXS   C134101  13.576  15.136  13.405 -0.1308  0.3791  0.4210
  156PROXS  H1134102  13.477  15.093  13.381 -0.7376  2.5879 -1.4232
  156PROXS  H1334103  13.568  15.213  13.485 -0.0843  0.6064  0.2105
  156PROXS   C234104  13.619  15.222  13.281  0.2965 -0.8204  0.0278
  156PROXS  H2134105  13.674  15.166  13.203 -0.4954 -1.4804 -0.0657
  156PROXS   C334106  13.719  15.327  13.326 -0.0240 -0.1605  0.4212
  156PROXS  H3134107  13.809  15.282  13.373 -0.1817 -3.0646 -1.7651
  156PROXS  H3234108  13.763  15.385  13.242 -4.4175 -0.0232 -2.0950
  156PROXS  H3334109  13.664  15.395  13.394 -1.2430  0.0779 -0.7340
  157PROXS   O134110  13.507  15.294  13.230  0.0872 -0.3602  0.4828
  157PROXS   C134111  13.528  15.340  13.093  0.2403 -0.8309 -0.0387
  157PROXS  H1134112  13.620  15.401  13.083 -0.4843  0.0077 -2.2939
  157PROXS  H1334113  13.529  15.246  13.033  0.1939 -1.4788  0.9458
  157PROXS   C234114  13.412  15.437  13.052  0.1043  0.0273  1.1316
  157PROXS  H2134115  13.410  15.499  13.144  1.8081  0.8108  0.6764
  157PROXS   C334116  13.275  15.375  13.019 -0.5752  0.0719  0.3494
  157PROXS  H3134117  13.249  15.304  13.101 -0.3193 -1.3799 -0.7905
  157PROXS  H3234118  13.189  15.446  13.012 -0.5847  0.0599  0.3516
  157PROXS  H3334119  13.297  15.326  12.922 -0.1396  0.6327  0.1592
  158PROXR   O134120  13.463  15.513  12.944  0.0897 -0.3392  0.4540
  158PROXR   C134121  13.397  15.639  12.927 -0.3197  0.1330 -0.3998
  158PROXR  H1134122  13.287  15.634  12.916 -0.1950  1.6407 -2.8899
  158PROXR  H1334123  13.421  15.698  13.018 -3.2037 -0.8259  1.1034
  158PROXR   C234124  13.449  15.711  12.804  0.2763 -1.3109  0.2685
  158PROXR  H2134125  13.444  15.643  12.716  1.6742 -1.2992  0.1626
  158PROXR   C334126  13.591  15.765  12.833 -0.2871  0.0723  0.2634
  158PROXR  H3134127  13.664  15.687  12.864 -0.4813 -0.6252 -0.9572
  158PROXR  H3234128  13.631  15.824  12.748  0.2492 -1.4616 -0.6040
  158PROXR  H3334129  13.573  15.839  12.913  2.1440 -2.2879  3.2406
  159PROXR   O134130  13.366  15.828  12.787  0.6039 -0.2751  0.0820
  159PROXR   C134131  13.364  15.875  12.651  0.7898 -0.3296  0.1828
  159PROXR  H1134132  13.332  15.982  12.656 -2.5951 -1.2702  1.2598
  159PROXR  H1334133  13.459  15.866  12.595 -0.1144  1.7429 -1.8960
  159PROXR   C234134  13.245  15.817  12.576  0.2133 -0.8107  0.1838
  159PROXR  H2134135  13.252  15.706  12.570  2.5161 -0.8166  1.5916
  159PROXR   C334136  13.230  15.891  12.438  0.1149 -0.0306 -0.0280
  159PROXR  H3134137  13.232  16.001  12.444  0.7216 -0.1031  1.4678
  159PROXR  H3234138  13.314  15.864  12.370 -2.0583 -1.6487 -2.2455
  159PROXR  H3334139  13.132  15.864  12.393 -1.0760  0.9126  1.8812
  160PROXS   O134140  13.137  15.852  12.660  0.0966 -0.6351 -0.4796
  160PROXS   C134141  13.035  15.765  12.674 -0.6912  0.7920  0.2623
  160PROXS  H1134142  12.976  15.752  12.581 -0.6887 -1.1022  0.4779
  160PROXS  H1334143  13.076  15.666  12.703 -2.6069  0.9225  3.9008
  160PROXS   C234144  12.956  15.800  12.800  0.1823  0.6344 -0.2790
  160PROXS  H2134145  12.918  15.905  12.804 -3.3302 -0.5505  1.1143
  160PROXS   C334146  13.026  15.766  12.937 -0.3458  0.6788 -0.3226
  160PROXS  H3134147  13.129  15.808  12.943 -0.0605  0.2397 -1.7218
  160PROXS  H3234148  12.963  15.789  13.025 -0.3203 -1.4756  0.3127
  160PROXS  H3334149  13.042  15.656  12.939 -1.2736  0.5319 -0.5468
  161PROXR   O134150  12.841  15.711  12.798 -0.3768 -0.4965 -0.3665
  161PROXR   C134151  12.730  15.765  12.738 -0.0163 -0.1984  0.3644
  161PROXR  H1134152  12.683  15.843  12.804 -0.0666  0.0600  0.0262
  161PROXR  H1334153  12.760  15.813  12.643 -0.3238  3.3501  1.8784
  161PROXR   C234154  12.621  15.669  12.707  0.4277  0.2659  0.4997
  161PROXR  H2134155  12.658  15.586  12.644  1.4398 -0.3380  1.8370
  161PROXR   C334156  12.491  15.736  12.641  0.1881  1.3084 -0.9038
  161PROXR  H3134157  12.419  15.657  12.612  1.0110  0.3516 -0.3915
  161PROXR  H3234158  12.428  15.804  12.702  0.3516  0.7520 -0.1050
  161PROXR  H3334159  12.517  15.793  12.549  0.0300  2.8142 -0.0433
  162PROXR   O134160  12.570  15.611  12.827 -0.2943  0.0283 -0.1151
  162PROXR   C134161  12.638  15.493  12.870 -0.4272  0.0009 -0.3279
  162PROXR  H1134162  12.629  15.408  12.799 -3.1013  1.0201 -1.3631
  162PROXR  H1334163  12.747  15.506  12.886  0.0030  2.0365 -3.9121
  162PROXR   C234164  12.566  15.443  12.998 -0.1793 -0.2107 -0.2603
  162PROXR  H2134165  12.535  15.523  13.069 -1.1419 -0.6143 -0.2162
  162PROXR   C334166  12.643  15.336  13.079 -0.2221  0.3029 -0.7745
  162PROXR  H3134167  12.662  15.250  13.011  1.2647 -1.0554  1.2509
  162PROXR  H3234168  12.741  15.382  13.105  0.2358  0.1113 -2.0916
  162PROXR  H3334169  12.588  15.301  13.168 -0.7044 -0.3581 -1.3250
  163PROXS   O134170  12.447  15.362  12.970 -0.1335  0.3334  0.0037
  163PROXS   C134171  12.330  15.436  12.954 -0.1273  0.3714  0.3880
  163PROXS  H1134172  12.347  15.545  12.966  1.7444 -0.1092  2.8640
  163PROXS  H1334173  12.291  15.414  12.853  0.8908  0.3615 -0.0102
  163PROXS   C234174  12.225  15.386  13.063  0.5922 -0.1408  0.1002
  163PROXS  H2134175  12.286  15.378  13.156  1.3229  0.6903 -0.2894
  163PROXS   C334176  12.173  15.241  13.032 -0.1892  0.3457  0.5524
  163PROXS  H3134177  12.263  15.178  13.053  0.4839  1.2849  0.5663
  163PROXS  H3234178  12.096  15.198  13.099  0.3424 -1.1809  0.2159
  163PROXS  H3334179  12.144  15.246  12.925  1.2577  2.2404  0.1936
  164PROXR   O134180  12.125  15.484  13.076 -0.2790  0.1017 -0.0660
  164PROXR   C134181  12.046  15.483  13.191 -0.1002  0.2241 -0.4465
  164PROXR  H1134182  11.979  15.395  13.182  0.1490  0.2384 -3.7950
  164PROXR  H1334183  12.122  15.473  13.271  0.1316  0.6874 -0.6052
  164PROXR   C234184  11.960  15.608  13.217 -0.0650  0.4428  0.5779
  164PROXR  H2134185  12.020  15.698  13.193 -0.0128 -0.0140 -1.1820
  164PROXR   C334186  11.924  15.613  13.364  0.1920 -0.3386  0.3779
  164PROXR  H3134187  11.880  15.513  13.387 -0.2183 -0.3537 -0.4245
  164PROXR  H3234188  12.013  15.628  13.429 -1.0056 -0.2833  2.0813
  164PROXR  H3334189  11.849  15.692  13.386  0.7762  0.4825 -0.5436
  165PROXR   O134190  11.839  15.613  13.138 -0.6977 -0.0208 -0.0652
  165PROXR   C134191  11.857  15.623  13.000  0.3466  0.1371 -0.4147
  165PROXR  H1134192  11.961  15.645  12.967  1.4927 -2.3341  1.2337
  165PROXR  H1334193  11.833  15.522  12.958 -1.1761 -0.3726  1.5352
  165PROXR   C234194  11.763  15.730  12.948  0.0683  0.1275  0.2219
  165PROXR  H2134195  11.668  15.717  13.004  1.0618  0.6518  2.1113
  165PROXR   C334196  11.727  15.708  12.806  0.2917 -0.2351  0.4384
  165PROXR  H3134197  11.814  15.712  12.736 -0.6911  1.0542 -0.7769
  165PROXR  H3234198  11.674  15.611  12.812 -1.0017  0.5372  2.6217
  165PROXR  H3334199  11.652  15.779  12.766  1.6171 -0.5288 -2.9994
  166ETHOX   O134200  11.825  15.864  12.972  0.1064  0.0462 -0.5473
  166ETHOX   C134201  11.731  15.965  12.964  0.3168  0.6501  0.6441
  166ETHOX  H1134202  11.635  15.928  13.005  1.5554 -1.3852  1.9070
  166ETHOX  H1334203  11.720  15.997  12.858 -1.8299 -1.0353  0.2938
  166ETHOX   C234204  11.768  16.098  13.046 -0.4410 -0.0074 -0.0002
  166ETHOX  H2134205  11.773  16.064  13.151 -0.1591 -1.7022 -0.5263
  166ETHOX  H2334206  11.681  16.165  13.032  1.4567  2.5678 -0.2958
  167ETHOX   O134207  11.891  16.161  13.014  0.4478  0.0589  0.0403
  167ETHOX   C134208  11.889  16.204  12.882  0.2991 -0.2279  0.1968
  167ETHOX  H1134209  11.892  16.114  12.817  0.9731  0.3481 -0.5886
  167ETHOX  H1334210  11.802  16.269  12.855  1.1969  1.2479  0.7492
  167ETHOX   C234211  12.018  16.281  12.842  0.1252 -0.3810 -0.8508
  167ETHOX  H2134212  12.060  16.254  12.743  0.8904 -2.0081 -0.1238
  167ETHOX  H2334213  12.101  16.263  12.914  0.3484 -1.6515 -1.4071
  168ETHOX   O134214  11.989  16.421  12.843  0.3323  0.0831  0.4093
  168ETHOX   C134215  12.095  16.507  12.811  0.6421  0.3313 -0.5047
  168ETHOX  H1134216  12.200  16.471  12.813  1.6088  2.7981 -1.8819
  168ETHOX  H1334217  12.096  16.596  12.876 -2.8867 -0.3488  0.6498
  168ETHOX   C234218  12.083  16.580  12.675 -0.5148 -0.3553  0.2473
  168ETHOX  H2134219  11.987  16.636  12.664 -0.6850 -0.7222 -0.1500
  168ETHOX  H2334220  12.092  16.504  12.594 -2.5214 -0.6421  0.2465
  169ETHOX   O134221  12.189  16.671  12.661 -0.2319 -0.6741  0.4777
  169ETHOX   C134222  12.223  16.689  12.523 -0.7235 -0.2535 -0.0841
  169ETHOX  H1134223  12.295  16.609  12.493 -0.3573  0.5836 -1.5507
  169ETHOX  H1334224  12.133  16.671  12.461 -1.0624 -1.8550  0.8023
  169ETHOX   C234225  12.304  16.821  12.507  0.2974 -0.0761 -0.4630
  169ETHOX  H2134226  12.364  16.798  12.416 -0.8050 -2.6864 -0.6032
  169ETHOX  H2334227  12.379  16.827  12.588 -0.8718 -1.6542  0.8053
  170ETHOX   O134228  12.242  16.950  12.495 -0.2924  0.0221 -0.5477
  170ETHOX   C134229  12.204  17.014  12.619  0.7246 -0.0642 -0.1787
  170ETHOX  H1134230  12.281  17.002  12.698  0.6676  1.9842  0.2312
  170ETHOX  H1334231  12.114  16.957  12.652  1.1827  0.1827  1.5517
  170ETHOX   C234232  12.162  17.161  12.607 -0.9069  0.5738 -0.3847
  170ETHOX  H2134233  12.114  17.192  12.702  1.3055  0.8190  0.7239
  170ETHOX  H2334234  12.096  17.176  12.519  0.2637 -0.3805 -1.4820
  171ETHOX   O134235  12.282  17.236  12.588  0.0727  0.6387 -0.2843
  171ETHOX   C134236  12.251  17.371  12.552 -0.2290  0.3835 -0.2769
  171ETHOX  H1134237  12.348  17.418  12.525 -1.1331  2.6789  0.2051
  171ETHOX  H1334238  12.198  17.368  12.455 -0.5485 -3.2240 -0.1174
  171ETHOX   C234239  12.165  17.465  12.638 -0.0630  0.1615 -0.8721
  171ETHOX  H2134240  12.193  17.572  12.633  1.7943 -0.1739  0.7390
  171ETHOX  H2334241  12.195  17.434  12.741  1.4210 -0.6064 -1.5076
  172ETHOX   O134242  12.020  17.423  12.617 -0.1209 -0.1194 -0.1072
  172ETHOX   C134243  11.935  17.511  12.693 -0.5265 -0.4062  0.3922
  172ETHOX  H1134244  11.954  17.611  12.647 -0.3113 -0.0343  1.2641
  172ETHOX  H1334245  11.986  17.523  12.791  2.5611  0.4165 -1.1614
  172ETHOX   C234246  11.782  17.483  12.695 -0.8150 -0.0263 -0.1746
  172ETHOX  H2134247  11.739  17.563  12.759 -0.3171  1.2314 -1.3552
  172ETHOX  H2334248  11.776  17.389  12.754  1.3233  0.7298  1.3670
  173ETHOX   O134249  11.721  17.478  12.566 -0.6199 -0.9598  0.0220
  173ETHOX   C134250  11.589  17.420  12.576  0.3473 -0.1382 -0.1805
  173ETHOX  H1134251  11.603  17.311  12.594  3.7657  0.1421 -0.6486
  173ETHOX  H1334252  11.544  17.472  12.664 -0.8580 -2.0430  0.3809
  173ETHOX   C234253  11.496  17.449  12.456  0.7323  0.3242 -0.6789
  173ETHOX  H2134254  11.401  17.397  12.481  1.7532 -1.8971 -1.0986
  173ETHOX  H2334255  11.493  17.558  12.440  0.6324  0.4985  0.4205
  174ETHOX   O134256  11.543  17.377  12.341 -0.0813 -0.0626  0.5740
  174ETHOX   C134257  11.471  17.429  12.227  0.0164  1.0221 -0.1595
  174ETHOX  H1134258  11.364  17.402  12.240  0.4921 -2.3729 -2.0849
  174ETHOX  H1334259  11.489  17.535  12.201 -0.5803  0.3347 -3.8643
  174ETHOX   C234260  11.529  17.361  12.106  0.4822  0.5832  0.5754
  174ETHOX  H2134261  11.488  17.258  12.104  2.9012 -0.5436  2.9952
  174ETHOX  H2334262  11.639  17.351  12.106  0.4382 -0.0349 -0.5669
  175ETHOX   O134263  11.493  17.434  11.994  0.0399  0.2113 -0.1660
  175ETHOX   C134264  11.587  17.412  11.889 -0.5625 -0.6058  0.1894
  175ETHOX  H1134265  11.687  17.447  11.923 -0.1826 -1.3818 -0.1284
  175ETHOX  H1334266  11.616  17.306  11.875 -1.7848 -0.8045 -1.1546
  175ETHOX   C234267  11.555  17.476  11.750 -0.0468  0.1879 -0.2834
  175ETHOX  H2134268  11.454  17.433  11.733  0.0697 -0.3256  0.3088
  175ETHOX  H2334269  11.624  17.433  11.674 -1.6764 -1.8390 -0.6872
  176ETHOX   O134270  11.559  17.613  11.733  0.3552 -0.2054  0.2274
  176ETHOX   C134271  11.437  17.669  11.776  0.1964  0.0487  0.6386
  176ETHOX  H1134272  11.361  17.631  11.704  0.1530  0.0221  0.6984
  176ETHOX  H1334273  11.408  17.647  11.882 -0.8383 -4.4366 -0.3483
  176ETHOX   C234274  11.437  17.825  11.760  0.0086  0.5357 -0.8597
  176ETHOX  H2134275  11.337  17.869  11.779 -0.2258 -0.5909  0.6815
  176ETHOX  H2334276  11.476  17.851  11.659  2.6634  1.0639  0.2355
  177ETHOX   O134277  11.528  17.889  11.851 -0.0641  0.2340 -0.1651
  177ETHOX   C134278  11.651  17.930  11.793  0.0288 -0.1743 -0.3437
  177ETHOX  H1134279  11.620  18.026  11.747 -1.3884 -0.5155 -0.1406
  177ETHOX  H1334280  11.675  17.861  11.709  1.1465  0.4548 -0.5590
  177ETHOX   C234281  11.773  17.934  11.891  0.0009  0.3633 -0.0186
  177ETHOX  H2134282  11.742  17.994  11.979  0.7891  0.3283  0.2883
  177ETHOX  H2334283  11.857  17.989  11.844 -0.2729  0.2394 -0.6601
  178ETHOX   O134284  11.814  17.805  11.924 -0.1296 -0.1992 -0.5223
  178ETHOX   C134285  11.725  17.747  12.023  0.4303 -0.3463  0.1992
  178ETHOX  H1134286  11.675  17.821  12.089 -0.6649 -0.9108  0.0162
  178ETHOX  H1334287  11.644  17.697  11.966  1.0023  1.3149 -2.2311
  178ETHOX   C234288  11.789  17.631  12.098  0.5176 -0.0273 -0.7700
  178ETHOX  H2134289  11.864  17.587  12.028 -0.4605 -1.2521 -1.0813
  178ETHOX  H2334290  11.702  17.564  12.117  0.5131  0.1761 -0.0768
  179ETHOX   O134291  11.859  17.672  12.219  0.0725 -0.0660  0.0374
  179ETHOX   C134292  11.910  17.557  12.282  0.3275 -0.0697  0.1081
  179ETHOX  H1134293  11.826  17.486  12.296 -0.2207  0.8051  1.4609
  179ETHOX  H1334294  11.948  17.586  12.382  0.8891  0.5706 -0.2848
  179ETHOX   C234295  12.022  17.474  12.219 -0.7086  0.0247  0.7195
  179ETHOX  H2134296  12.000  17.446  12.114  1.8364  0.1855  0.0755
  179ETHOX  H2334297  12.031  17.378  12.276  2.0886 -0.9796 -1.1914
  180ETHOX   O134298  12.153  17.526  12.215 -0.6390  0.2260 -0.3999
  180ETHOX   C134299  12.167  17.646  12.139 -0.4781 -0.0169  0.4924
  180ETHOX  H1134300  12.116  17.629  12.042  1.0173 -0.7237 -0.1981
  180ETHOX  H1334301  12.121  17.727  12.200 -0.4289  1.0311 -0.8224
  180ETHOX   C234302  12.308  17.702  12.125 -0.5465  0.2383  0.2344
  180ETHOX  H2134303  12.355  17.677  12.222 -0.4520  0.6288  0.2904
  180ETHOX  H2334304  12.310  17.810  12.101 -2.2122  0.2153 -0.1167
  181ETHOX   O134305  12.371  17.615  12.030 -0.1097  0.4784 -0.6986
  181ETHOX   C134306  12.508  17.640  12.005 -0.7560 -0.6617  0.3872
  181ETHOX  H1134307  12.522  17.747  11.975 -3.4379 -0.6671 -1.1819
  181ETHOX  H1334308  12.539  17.590  11.910 -0.7952 -0.8810  0.4921
  181ETHOX   C234309  12.611  17.591  12.113  0.0161  0.5267 -0.0729
  181ETHOX  H2134310  12.712  17.614  12.075 -0.1089  0.8780 -0.1917
  181ETHOX  H2334311  12.603  17.483  12.141  1.8447 -0.3839 -2.6440
  182ETHOX   O134312  12.599  17.672  12.226 -0.0524 -0.2151  0.1055
  182ETHOX   C134313  12.646  17.611  12.351 -0.0863 -0.0195  0.3082
  182ETHOX  H1134314  12.646  17.501  12.345  1.1688  0.0589 -3.3888
  182ETHOX  H1334315  12.752  17.640  12.368  0.0080 -1.2283  2.1318
  182ETHOX   C234316  12.580  17.660  12.477 -0.4907  0.4185 -0.5605
  182ETHOX  H2134317  12.612  17.601  12.565  1.2784  1.9410 -0.1272
  182ETHOX  H2334318  12.472  17.637  12.462 -0.4178 -0.6969  0.4510
  183ETHOX   O134319  12.586  17.798  12.503 -0.5470  0.2698  0.2800
  183ETHOX   C134320  12.719  17.851  12.508 -0.7199 -0.2840 -0.4200
  183ETHOX  H1134321  12.767  17.852  12.408  2.7696  0.1367  1.0948
  183ETHOX  H1334322  12.771  17.781  12.578 -2.3631 -4.0827 -2.6896
  183ETHOX   C234323  12.710  17.996  12.559 -0.3169  0.0118 -0.2359
  183ETHOX  H2134324  12.810  18.041  12.576  0.2085 -1.4808  0.7729
  183ETHOX  H2334325  12.659  17.988  12.658 -0.5748  0.6667 -0.3099
  184ETHOX   O134326  12.637  18.079  12.474  0.3850  0.3702 -0.0928
  184ETHOX   C134327  12.635  18.217  12.513 -0.0051  1.0547  0.7271
  184ETHOX  H1134328  12.556  18.229  12.590 -1.2074  2.6658 -0.6860
  184ETHOX  H1334329  12.733  18.256  12.549 -1.1426  1.8231  3.2307
  184ETHOX   C234330  12.592  18.304  12.387  0.1969  0.2272 -0.9781
  184ETHOX  H2134331  12.579  18.409  12.419 -3.6517 -0.5384  0.4951
  184ETHOX  H2334332  12.497  18.260  12.349  0.0181  0.8913 -1.3125
  185ETHOX   O134333  12.685  18.293  12.284  0.9421 -0.4022 -0.4150
  185ETHOX   C134334  12.692  18.403  12.206 -0.0203  0.4199  0.2501
  185ETHOX  H1134335  12.723  18.353  12.112 -1.5520 -0.3037  0.1071
  185ETHOX  H1334336  12.589  18.440  12.185  0.7374  2.0821 -0.8110
  185ETHOX   C234337  12.781  18.517  12.253  0.1734 -0.2314  0.4363
  185ETHOX  H2134338  12.881  18.493  12.213  0.2925  0.6788  0.1774
  185ETHOX  H2334339  12.784  18.525  12.364  1.0289 -0.9090  0.4763
  186ETHOX   O134340  12.743  18.649  12.203  0.2704  0.1539 -0.0662
  186ETHOX   C134341  12.843  18.740  12.236  0.3280  0.6511 -0.3168
  186ETHOX  H1134342  12.848  18.735  12.347 -0.9538 -0.0835 -0.2743
  186ETHOX  H1334343  12.946  18.721  12.198  1.0278 -1.2016  2.1745
  186ETHOX   C234344  12.810  18.884  12.198  0.2158 -0.1868 -0.6362
  186ETHOX  H2134345  12.702  18.909  12.202  0.6627  1.7868  1.1595
  186ETHOX  H2334346  12.824  18.896  12.089  1.5950  0.0043 -0.4492
  187ETHOX   O134347  12.872  18.984  12.274  0.2576 -0.2609  0.5768
  187ETHOX   C134348  12.830  19.117  12.257  0.3504 -0.8605 -0.0498
  187ETHOX  H1134349  12.908  19.195  12.271 -0.8996  1.3539 -3.7603
  187ETHOX  H1334350  12.794  19.126  12.152 -1.7643 -0.3162  0.6753
  187ETHOX   C234351  12.715  19.164  12.337 -0.0500 -0.4278 -0.0092
  187ETHOX  H2134352  12.635  19.088  12.326 -1.8644  1.3750  0.1775
  187ETHOX  H2334353  12.674  19.263  12.308 -1.6584 -1.4951 -1.5489
  188ETHOX   O134354  12.753  19.170  12.476 -0.7511  0.3601 -0.5248
  188ETHOX   C134355  12.820  19.293  12.507  0.5758 -0.3115 -0.8152
  188ETHOX  H1134356  12.754  19.372  12.466  0.1357 -0.6932 -0.8517
  188ETHOX  H1334357  12.922  19.308  12.466  1.1041  2.2436  1.2671
  188ETHOX   C234358  12.829  19.293  12.661  0.4350 -0.7099 -0.0659
  188ETHOX  H2134359  12.727  19.298  12.705  0.8624 -0.7159  0.9573
  188ETHOX  H2334360  12.875  19.392  12.683 -1.4654  0.8995 -2.6641
  189ETHOX   O134361  12.892  19.175  12.717  0.1116 -0.6434  0.6146
  189ETHOX   C134362  13.034  19.176  12.708  0.0831 -0.1937 -0.5997
  189ETHOX  H1134363  13.058  19.183  12.600  1.3226 -1.0254 -0.4053
  189ETHOX  H1334364  13.063  19.272  12.757 -1.1032 -1.3213  2.5545
  189ETHOX   C234365  13.107  19.059  12.770 -0.1073  0.0328 -1.1318
  189ETHOX  H2134366  13.217  19.072  12.763 -0.0014 -1.4673 -3.3398
  189ETHOX  H2334367  13.068  18.976  12.708  0.6574  1.1052 -3.1433
  190ETHOX   O134368  13.058  19.035  12.904 -0.0299 -0.0082  0.0795
  190ETHOX   C134369  13.107  18.917  12.956 -0.5975  0.6474 -0.1377
  190ETHOX  H1134370  13.214  18.940  12.976 -0.8448  4.6433 -2.3797
  190ETHOX  H1334371  13.096  18.841  12.875  0.1511  0.2484  0.1199
  190ETHOX   C234372  13.035  18.889  13.094 -0.2437  0.0778 -0.3135
  190ETHOX  H2134373  13.036  18.779  13.109  1.4425  0.3891  2.8667
  190ETHOX  H2334374  12.927  18.911  13.084 -0.0100  1.7450  0.4433
  191ETHOX   O134375  13.078  18.956  13.211 -0.2993  0.4666 -0.1660
  191ETHOX   C134376  12.992  18.937  13.317  0.6443  0.2341 -0.6860
  191ETHOX  H1134377  12.887  18.968  13.296 -1.5595 -3.7641  2.6937
  191ETHOX  H1334378  12.964  18.832  13.340 -0.9995  1.3612  3.3852
  191ETHOX   C234379  13.054  18.996  13.449 -0.4161 -0.1902  0.1059
  191ETHOX  H2134380  12.970  19.039  13.507 -0.4611  0.5144 -0.4734
  191ETHOX  H2334381  13.114  19.080  13.406 -1.7720  1.2600  0.9239
  192ETHOX   O134382  13.119  18.907  13.535 -0.0862 -0.5249 -0.1920
  192ETHOX   C134383  13.166  18.968  13.659 -0.4507  0.0800  0.1851
  192ETHOX  H1134384  13.155  18.900  13.746  0.4932  0.9947  1.0467
  192ETHOX  H1334385  13.117  19.062  13.693  0.8778  0.3303  1.5154
  192ETHOX   C234386  13.316  18.991  13.646 -0.3315  0.0098  0.0972
  192ETHOX  H2134387  13.370  18.897  13.623  0.1414 -0.5353  3.0709
  192ETHOX  H2334388  13.365  19.027  13.739 -0.5705 -1.2435  0.7249
  193ETHOX   O134389  13.336  19.083  13.537 -0.0658 -0.4300 -0.6598
  193ETHOX   C134390  13.331  19.225  13.579  0.6635  0.1708  0.0390
  193ETHOX  H1134391  13.225  19.244  13.605 -0.1607 -4.1194  0.4886
  193ETHOX  H1334392  13.405  19.242  13.661 -1.1799 -2.4679  2.4172
  193ETHOX   C234393  13.375  19.315  13.464 -0.3734 -0.3812  0.2125
  193ETHOX  H2134394  13.484  19.297  13.458 -0.4263 -0.7799  0.3723
  193ETHOX  H2334395  13.361  19.422  13.492 -1.4226  0.0381 -1.7407
  194ETHOX   O134396  13.310  19.293  13.334  0.1590  0.0317 -0.3631
  194ETHOX   C134397  13.171  19.338  13.323 -0.0846  0.1920  0.4273
  194ETHOX  H1134398  13.171  19.449  13.320 -1.1090  0.2030 -2.2562
  194ETHOX  H1334399  13.107  19.307  13.408  0.3004 -0.4539  0.4894
  194ETHOX   C234400  13.115  19.299  13.179 -0.2198 -0.1576  0.0480
  194ETHOX  H2134401  13.071  19.198  13.197  2.1934 -0.7992  3.3694
  194ETHOX  H2334402  13.198  19.302  13.105  0.2532  1.1569  0.6001
  195ETHOX   O134403  13.013  19.388  13.145 -0.1042 -0.1430 -0.0193
  195ETHOX   C134404  12.944  19.357  13.025 -0.4012  0.9665  0.8372
  195ETHOX  H1134405  12.999  19.391  12.934 -0.1521 -0.0107  0.5973
  195ETHOX  H1334406  12.942  19.246  13.011 -1.3596  1.0144  0.5161
  195ETHOX   C234407  12.800  19.396  13.034  0.6252 -0.5009 -0.2642
  195ETHOX  H2134408  12.762  19.367  13.134  3.7585  0.0907  1.1957
  195ETHOX  H2334409  12.746  19.353  12.946  0.0452  1.6991 -1.0516
  196ETHOX   O134410  12.791  19.539  13.018 -0.2693 -0.3728  0.3064
  196ETHOX   C134411  12.654  19.574  13.019 -0.1876 -0.3475 -0.2066
  196ETHOX  H1134412  12.595  19.499  12.961 -0.1274  0.4718 -1.3758
  196ETHOX  H1334413  12.629  19.573  13.127 -1.0032  3.3035 -0.2346
  196ETHOX   C234414  12.616  19.711  12.971 -0.0127 -0.3294  0.0025
  196ETHOX  H2134415  12.666  19.786  13.036  0.2079 -0.0012 -0.5357
  196ETHOX  H2334416  12.513  19.751  12.958  0.3413  0.0126 -2.2518
  197ETHOX   O134417  12.661  19.743  12.844  0.5253 -0.2716  0.0642
  197ETHOX   C134418  12.594  19.657  12.744  0.9724 -0.4583 -0.9328
  197ETHOX  H1134419  12.602  19.547  12.761 -0.3830 -0.5011 -0.4937
  197ETHOX  H1334420  12.486  19.680  12.744  1.2638  1.0702  0.4070
  197ETHOX   C234421  12.646  19.687  12.606 -0.5893  0.7053  0.1514
  197ETHOX  H2134422  12.634  19.796  12.588 -1.2873  0.7972  1.0675
  197ETHOX  H2334423  12.574  19.649  12.530 -1.0635  1.2399  0.3276
  198ETHOX   O134424  12.782  19.636  12.586  0.0322  0.2190  0.1108
  198ETHOX   C134425  12.826  19.678  12.459  0.1989  0.3105  0.7219
  198ETHOX  H1134426  12.883  19.593  12.415 -1.3258 -0.3344 -0.0990
  198ETHOX  H1334427  12.750  19.693  12.379  0.4955 -0.9818  0.1773
  198ETHOX   C234428  12.924  19.808  12.462  0.0109 -0.2390 -0.6469
  198ETHOX  H2134429  12.972  19.808  12.362  1.8133 -0.4959  0.1642
  198ETHOX  H2334430  13.002  19.788  12.540 -0.9320  1.3798  0.7850
  199ETHOX   O134431  12.859  19.933  12.493  0.5348  0.2857 -0.2630
  199ETHOX   C134432  12.955  20.035  12.526 -0.3291 -0.3650  0.1570
  199ETHOX  H1134433  13.037  20.040  12.451 -1.0565  2.6231 -0.5391
  199ETHOX  H1334434  13.002  20.006  12.622 -0.6540 -1.2357  0.0646
  199ETHOX   C234435  12.898  20.175  12.527 -1.1960  0.2017  0.1118
  199ETHOX  H2134436  12.984  20.240  12.553 -0.8286 -0.4703  0.6121
  199ETHOX  H2334437  12.822  20.183  12.607  0.3380 -2.1039  1.9330
  200ETHOX   O134438  12.840  20.201  12.401 -0.0189 -0.8644 -0.0299
  200ETHOX   C134439  12.782  20.333  12.388 -0.1427  0.1107  0.2614
  200ETHOX  H1134440  12.721  20.328  12.295  1.2701  2.2405 -0.8566
  200ETHOX  H1334441  12.720  20.341  12.480 -0.2884 -0.1798  0.1878
  200ETHOX   C234442  12.882  20.452  12.379  0.0654  0.3867 -0.1874
  200ETHOX  H2134443  12.829  20.538  12.334 -0.9636 -1.4666 -2.7051
  200ETHOX  H2334444  12.961  20.426  12.306 -1.3198  1.6634 -2.2166
  201ETHOX   O134445  12.942  20.479  12.502 -0.1092  0.2566  0.4548
  201ETHOX   C134446  12.860  20.563  12.585 -0.0132  0.4163 -0.2103
  201ETHOX  H1134447  12.778  20.509  12.636  1.4074 -2.0836 -0.4283
  201ETHOX  H1334448  12.814  20.642  12.522 -1.6366 -1.3138 -1.2757
  201ETHOX   C234449  12.955  20.624  12.689  0.0794  0.4281  0.4896
  201ETHOX  H2134450  13.012  20.548  12.748  0.6548  0.2568 -0.2802
  201ETHOX  H2334451  12.896  20.681  12.764 -1.0588  1.5351 -1.1803
  202ETHOX   O134452  13.043  20.721  12.631 -0.4371 -1.0293 -0.4254
  202ETHOX   C134453  13.136  20.772  12.734  0.1951  0.9054  0.3160
  202ETHOX  H1134454  13.081  20.812  12.822  0.2085  0.9806  0.2888
  202ETHOX  H1334455  13.194  20.681  12.765 -1.4710 -0.2286  0.2531
  202ETHOX   C234456  13.229  20.872  12.674  0.0538 -0.5271  0.1484
  202ETHOX  H2134457  13.286  20.843  12.584  0.8550  2.2180 -0.3324
  202ETHOX  H2334458  13.296  20.909  12.754  0.1908  1.1812 -0.7024
  203ETHOX   O134459  13.138  20.977  12.632 -0.4593  0.1668 -0.3199
  203ETHOX   C134460  13.208  21.080  12.558 -0.4026  0.9322 -0.3824
  203ETHOX  H1134461  13.316  21.075  12.586  0.1426  0.5415 -2.3470
  203ETHOX  H1334462  13.172  21.182  12.585  0.3942  0.6312  2.0606
  203ETHOX   C234463  13.216  21.058  12.411  0.3420  0.3019 -0.4349
  203ETHOX  H2134464  13.227  20.950  12.388 -3.3297 -0.5871  1.2829
  203ETHOX  H2334465  13.314  21.091  12.371 -0.0256  2.4556  0.3118
  204ETHOX   O134466  13.101  21.120  12.345  0.2616  0.4967  0.1334
  204ETHOX   C134467  13.107  21.107  12.204  0.9231 -0.5504  0.0891
  204ETHOX  H1134468  13.032  21.178  12.162 -1.4181 -1.9948  1.6171
  204ETHOX  H1334469  13.209  21.140  12.174  0.5274  2.0849  1.3171
  204ETHOX   C234470  13.076  20.966  12.154 -0.6720 -0.3436  0.1795
  204ETHOX  H2134471  13.039  20.968  12.050 -1.1628 -0.4096  0.3510
  204ETHOX  H2334472  12.986  20.928  12.207 -3.0807  1.4831 -2.2710
  205ETHOX   O134473  13.183  20.872  12.174 -0.2325 -0.1568  0.3778
  205ETHOX   C134474  13.298  20.894  12.088 -0.0539  0.2556  0.0701
  205ETHOX  H1134475  13.348  20.992  12.108  0.9958 -0.2348 -0.0778
  205ETHOX  H1334476  13.270  20.898  11.981  2.3797  0.5196 -0.6290
  205ETHOX   C234477  13.380  20.779  12.151 -0.2163  0.6022  0.1219
  205ETHOX  H2134478  13.391  20.795  12.261  2.8972  1.6271 -0.2220
  205ETHOX  H2334479  13.488  20.779  12.124  0.5463 -0.7264  2.8665
  206ETHOX   O134480  13.325  20.648  12.118 -0.5052 -0.0213  0.0294
  206ETHOX   C134481  13.359  20.535  12.201 -0.0227 -0.8141 -0.1061
  206ETHOX  H1134482  13.389  20.569  12.302 -1.6856  2.2659 -0.4993
  206ETHOX  H1334483  13.265  20.477  12.215 -0.5838  0.1460  0.2097
  206ETHOX   C234484  13.466  20.441  12.146  0.1654 -0.2171 -0.5349
  206ETHOX  H2134485  13.494  20.368  12.225 -1.2791 -0.3148 -0.0756
  206ETHOX  H2334486  13.426  20.386  12.058  1.2317  0.0820 -1.2232
  207ETHOX   O134487  13.595  20.496  12.105  0.3339 -0.4452 -0.2214
  207ETHOX   C134488  13.665  20.398  12.037 -1.2846 -0.1411  0.4797
  207ETHOX  H1134489  13.606  20.378  11.945 -0.9230 -1.3491  0.4908
  207ETHOX  H1334490  13.687  20.313  12.106 -2.1654  1.2690  2.5864
  207ETHOX   C234491  13.804  20.456  11.984 -0.0847 -0.1005 -1.0967
  207ETHOX  H2134492  13.845  20.379  11.915 -0.3827 -0.7947 -0.5151
  207ETHOX  H2334493  13.874  20.470  12.069  0.4950 -2.2351 -1.1496
  208ETHOX   O134494  13.778  20.575  11.916  0.1839 -0.7673 -0.2746
  208ETHOX   C134495  13.889  20.666  11.908 -0.0395  0.3478 -0.6883
  208ETHOX  H1134496  13.913  20.695  12.012  0.0446  0.6106 -0.7805
  208ETHOX  H1334497  13.980  20.610  11.878  1.9660 -0.4659  5.5247
  208ETHOX   C234498  13.858  20.792  11.824 -0.5122  0.6074  0.4270
  208ETHOX  H2134499  13.930  20.873  11.850  1.4932 -1.2999  1.1240
  208ETHOX  H2334500  13.758  20.834  11.850 -1.2213  1.2822 -2.9376
  209ETHOX   O134501  13.853  20.753  11.686  0.3530 -0.5563  0.7146
  209ETHOX   C134502  13.802  20.861  11.603 -0.2911  0.1985 -0.0389
  209ETHOX  H1134503  13.865  20.951  11.618 -0.5524  0.4765 -0.5604
  209ETHOX  H1334504  13.708  20.905  11.642 -0.3915  1.3784 -1.5197
  209ETHOX   C234505  13.784  20.829  11.458  0.2385 -0.2562  0.2084
  209ETHOX  H2134506  13.732  20.910  11.402 -1.0372  0.4497  2.2988
  209ETHOX  H2334507  13.724  20.736  11.441 -0.9275  0.5060  0.0218
  210ETHOX   O134508  13.921  20.818  11.398 -0.6835  0.5166 -0.3743
  210ETHOX   C134509  13.975  20.948  11.364 -0.2029 -0.5959 -0.3799
  210ETHOX  H1134510  13.898  20.993  11.298  2.1849 -0.1052 -3.0207
  210ETHOX  H1334511  13.986  21.018  11.450  1.4487 -1.7547  0.4152
  210ETHOX   C234512  14.101  20.938  11.286 -0.5399 -0.3304 -0.1448
  210ETHOX  H2134513  14.177  20.893  11.354 -1.1455  0.9858  1.4921
  210ETHOX  H2334514  14.160  21.027  11.254  1.2679 -0.6026  2.1318
  211ETHOX   O134515  14.081  20.858  11.174  1.0173  0.1238 -0.4057
  211ETHOX   C134516  14.210  20.815  11.127  0.1601  0.4526  0.1271
  211ETHOX  H1134517  14.280  20.901  11.113  0.5120  0.3057  0.9818
  211ETHOX  H1334518  14.256  20.749  11.202  1.0686 -0.7460 -1.4251
  211ETHOX   C234519  14.204  20.736  10.995  0.2446  0.0404  0.1826
  211ETHOX  H2134520  14.129  20.657  11.017 -0.8114  1.5332  2.3578
  211ETHOX  H2334521  14.302  20.690  10.971  0.6542  0.9794  0.0150
  212ETHOX   O134522  14.161  20.809  10.885 -0.5690  0.3560  0.1657
  212ETHOX   C134523  14.164  20.726  10.766  0.4826  0.4946  0.0819
  212ETHOX  H1134524  14.268  20.695  10.746 -0.0935  0.2285 -2.9484
  212ETHOX  H1334525  14.101  20.635  10.778  0.0312  0.7628 -0.2107
  212ETHOX   C234526  14.118  20.797  10.642 -0.2065  0.5034 -0.2048
  212ETHOX  H2134527  14.019  20.846  10.655  0.5961  2.1179  0.0105
  212ETHOX  H2334528  14.098  20.725  10.560  0.8823  1.4254 -1.3099
  213ETHOX   O134529  14.217  20.891  10.590  0.3618  0.0069  0.1616
  213ETHOX   C134530  14.175  20.940  10.458 -0.4116 -0.0841 -0.5469
  213ETHOX  H1134531  14.110  20.867  10.406 -1.8368  0.8932 -0.2037
  213ETHOX  H1334532  14.119  21.035  10.473 -0.0242  0.1917 -0.8067
  213ETHOX   C234533  14.305  20.966  10.380 -0.1063 -0.2402 -0.4352
  213ETHOX  H2134534  14.366  21.026  10.450  0.1780 -2.8590  1.7442
  213ETHOX  H2334535  14.281  21.029  10.292 -1.3371  0.0319  0.0733
  214ETHOX   O134536  14.367  20.841  10.339 -0.4844 -0.1256 -0.5565
  214ETHOX   C134537  14.485  20.862  10.263 -0.6663 -0.5753 -0.5801
  214ETHOX  H1134538  14.553  20.928  10.321 -0.6545 -0.8855 -0.2384
  214ETHOX  H1334539  14.459  20.923  10.173 -0.4992  3.6161  1.9293
  214ETHOX   C234540  14.559  20.729  10.220 -0.7165 -0.7635 -0.3448
  214ETHOX  H2134541  14.643  20.743  10.149 -1.7724 -0.4962 -1.5887
  214ETHOX  H2334542  14.478  20.663  10.181 -0.5358 -1.8108  0.9644
  215ETHOX   O134543  14.614  20.684  10.342  0.0733 -0.4416 -0.0244
  215ETHOX   C134544  14.681  20.559  10.325  0.0328 -0.1357 -0.9927
  215ETHOX  H1134545  14.644  20.505  10.235 -1.2143 -1.7957  0.4374
  215ETHOX  H1334546  14.791  20.573  10.328 -0.0457  0.3507  0.8415
  215ETHOX   C234547  14.651  20.472  10.451 -1.2368 -0.2203  0.2321
  215ETHOX  H2134548  14.693  20.505  10.548 -3.3257  1.7615  0.5549
  215ETHOX  H2334549  14.708  20.380  10.423 -0.6607  0.1554  0.1582
  216ETHOX   O134550  14.514  20.436  10.450 -0.4143 -0.2323  0.2412
  216ETHOX   C134551  14.487  20.321  10.535  0.3131 -0.0903 -0.2607
  216ETHOX  H1134552  14.527  20.348  10.635 -0.3083  3.5641 -0.8378
  216ETHOX  H1334553  14.525  20.226  10.492 -0.7396 -0.0770 -1.2383
  216ETHOX   C234554  14.334  20.292  10.550 -0.1684 -0.4413 -0.4537
  216ETHOX  H2134555  14.284  20.387  10.579 -0.1449 -1.3689  3.1197
  216ETHOX  H2334556  14.340  20.226  10.639  0.8411 -0.3326 -0.4243
  217ETHOX   O134557  14.280  20.240  10.430  0.0701  0.0842  0.0933
  217ETHOX   C134558  14.276  20.095  10.423  0.4566  0.0194 -0.1212
  217ETHOX  H1134559  14.370  20.066  10.372  0.4602 -0.0974 -0.0473
  217ETHOX  H1334560  14.276  20.044  10.521  0.8894 -1.1940 -0.7411
  217ETHOX   C234561  14.160  20.050  10.332 -0.6374 -0.4291 -0.0513
  217ETHOX  H2134562  14.185  19.950  10.290  0.0182 -0.5474  0.6064
  217ETHOX  H2334563  14.163  20.121  10.247  0.9335 -0.7074 -0.2503
  218ETHOX   O134564  14.047  20.054  10.411 -0.1683  0.4711  0.0196
  218ETHOX   C134565  13.942  19.970  10.365  0.6938 -0.5899 -0.1322
  218ETHOX  H1134566  13.974  19.865  10.381  1.0191 -0.4582  0.1142
  218ETHOX  H1334567  13.937  19.988  10.255 -0.0117  1.4243  0.1821
  218ETHOX   C234568  13.805  19.979  10.435  0.1990  0.2833 -0.2927
  218ETHOX  H2134569  13.723  19.935  10.373 -0.4729  1.7423 -0.4947
  218ETHOX  H2334570  13.796  20.089  10.446 -0.5931  0.2608 -0.6029
  219ETHOX   O134571  13.795  19.910  10.563 -0.1884 -0.1641 -0.4057
  219ETHOX   C134572  13.693  19.960  10.658 -0.2010  0.3525  0.4727
  219ETHOX  H1134573  13.730  20.059  10.692 -3.3927  1.0266  2.3651
  219ETHOX  H1334574  13.594  19.959  10.608 -0.1734 -0.0254  0.4199
  219ETHOX   C234575  13.682  19.875  10.788  0.5382  1.0386 -0.1560
  219ETHOX  H2134576  13.625  19.927  10.868  1.0314  1.6807 -0.2118
  219ETHOX  H2334577  13.784  19.860  10.829  0.7437  0.6383 -0.8036
  220ETHOX   O134578  13.621  19.752  10.745 -0.6549  0.5268 -0.4587
  220ETHOX   C134579  13.660  19.644  10.836 -0.4677  0.1218  0.4792
  220ETHOX  H1134580  13.647  19.685  10.939 -3.0253  1.9617 -0.4665
  220ETHOX  H1334581  13.765  19.618  10.809 -0.8900  0.4207 -1.5940
  220ETHOX   C234582  13.584  19.517  10.800 -0.3842 -0.4270  0.0358
  220ETHOX  H2134583  13.606  19.436  10.874  1.4720  1.6203  1.8843
  220ETHOX  H2334584  13.618  19.469  10.706  0.6846 -0.7541  0.5554
  221ETHOX   O134585  13.446  19.539  10.798  0.2157 -0.0909 -0.1929
  221ETHOX   C134586  13.373  19.428  10.749  0.0917  0.0142  0.3309
  221ETHOX  H1134587  13.420  19.391  10.656 -0.4153  0.2600 -0.0302
  221ETHOX  H1334588  13.372  19.355  10.833  1.0502 -0.3439  0.0440
  221ETHOX   C234589  13.229  19.482  10.712  0.6401 -0.1403  0.6529
  221ETHOX  H2134590  13.183  19.518  10.807 -1.2302  0.5125 -0.4491
  221ETHOX  H2334591  13.170  19.393  10.682 -1.1827  1.2498 -0.0633
  222ETHOX   O134592  13.226  19.580  10.605 -1.1671 -0.4216 -0.0177
  222ETHOX   C134593  13.093  19.627  10.593  0.1933 -0.1728  0.3652
  222ETHOX  H1134594  13.019  19.544  10.591 -0.4111  0.3807 -1.2546
  222ETHOX  H1334595  13.067  19.685  10.684 -0.1007  0.2144  0.0374
  222ETHOX   C234596  13.078  19.720  10.474  0.4399 -0.6131 -0.2141
  222ETHOX  H2134597  12.967  19.732  10.467  0.0464 -2.6243  1.3892
  222ETHOX  H2334598  13.113  19.678  10.378  0.4199  1.1775 -1.0283
  223ETHOX   O134599  13.135  19.848  10.484 -0.5774 -0.2522 -0.3386
  223ETHOX   C134600  13.071  19.943  10.391  0.1376 -0.7331 -0.9309
  223ETHOX  H1134601  13.100  19.913  10.288  0.7620  0.2467 -1.0507
  223ETHOX  H1334602  12.961  19.947  10.398  0.0991 -1.0323 -1.2959
  223ETHOX   C234603  13.128  20.088  10.402 -0.4132  0.3928  0.0003
  223ETHOX  H2134604  13.105  20.161  10.321 -0.6126 -1.0659 -1.3171
  223ETHOX  H2334605  13.239  20.093  10.408 -0.2891  1.6737 -2.2397
  224ETHOX   O134606  13.074  20.139  10.524 -0.1746 -0.6958 -0.2896
  224ETHOX   C134607  13.099  20.279  10.525 -0.1191  0.0368 -0.3187
  224ETHOX  H1134608  13.202  20.304  10.489 -0.8267  1.0498 -1.7444
  224ETHOX  H1334609  13.035  20.340  10.458 -0.8250  1.7618  1.8273
  224ETHOX   C234610  13.093  20.322  10.677  0.7386  0.2199 -0.6165
  224ETHOX  H2134611  13.005  20.282  10.732  1.0329  0.4063 -0.0017
  224ETHOX  H2334612  13.077  20.432  10.679  1.0204  0.2508 -0.2279
  225ETHOX   O134613  13.210  20.288  10.746 -0.4469 -0.2284  0.2511
  225ETHOX   C134614  13.186  20.292  10.885  0.4888  0.5365 -0.0657
  225ETHOX  H1134615  13.112  20.212  10.903 -1.2189  1.2480 -3.2479
  225ETHOX  H1334616  13.131  20.382  10.918 -0.8235 -0.1002 -0.4783
  225ETHOX   C234617  13.320  20.293  10.973 -0.9411  0.2816 -0.4578
  225ETHOX  H2134618  13.378  20.202  10.945 -0.2931  0.8054 -0.8191
  225ETHOX  H2334619  13.291  20.285  11.080 -0.7026  1.0459 -0.3327
  226ETHOX   O134620  13.401  20.411  10.948 -0.1968  0.0774  0.2059
  226ETHOX   C134621  13.515  20.412  11.030  0.3384 -0.6704  0.1677
  226ETHOX  H1134622  13.494  20.387  11.136 -0.5496  1.8256  0.6473
  226ETHOX  H1334623  13.598  20.352  10.986  0.4869  0.7626 -1.6156
  226ETHOX   C234624  13.576  20.559  11.024  0.1228  1.0111  0.0817
  226ETHOX  H2134625  13.571  20.599  10.920 -0.2222  1.7468  0.3718
  226ETHOX  H2334626  13.682  20.540  11.050  0.1004 -0.3588 -0.7193
  227ETHOX   O134627  13.518  20.638  11.123 -0.1529 -0.0607 -0.2684
  227ETHOX   C134628  13.548  20.778  11.116  0.2192 -0.1619  0.5196
  227ETHOX  H1134629  13.637  20.798  11.053 -0.0133  1.5163  0.6584
  227ETHOX  H1334630  13.585  20.815  11.215  2.0463  0.6342 -0.4161
  227ETHOX   C234631  13.420  20.859  11.078  0.1367 -0.7633 -0.4994
  227ETHOX  H2134632  13.388  20.831  10.975 -3.7304 -1.4631  0.7337
  227ETHOX  H2334633  13.446  20.966  11.086  2.7179 -1.1928 -2.0893
  228ETHOX   O134634  13.316  20.830  11.174 -0.0979  0.3917  0.5734
  228ETHOX   C134635  13.206  20.923  11.162 -0.0370 -1.0061  0.4060
  228ETHOX  H1134636  13.233  21.004  11.233 -1.1061 -1.2505  1.1177
  228ETHOX  H1334637  13.201  20.960  11.057 -0.1486 -2.4418 -0.1093
  228ETHOX   C234638  13.082  20.862  11.213  0.5276 -0.2326  0.0614
  228ETHOX  H2134639  13.003  20.928  11.253 -1.1557 -1.3805 -1.2495
  228ETHOX  H2334640  13.102  20.789  11.295  0.6533  0.0303  0.2658
  229ETHOX   O134641  13.010  20.781  11.115 -0.0556 -0.0898  0.6549
  229ETHOX   C134642  12.947  20.859  11.015 -0.3292  0.4226  0.5282
  229ETHOX  H1134643  13.023  20.917  10.958 -1.6896  0.5522 -1.2215
  229ETHOX  H1334644  12.869  20.925  11.058 -0.1932 -0.0238  1.4906
  229ETHOX   C234645  12.898  20.767  10.903 -0.3981 -0.4729 -0.8295
  229ETHOX  H2134646  12.978  20.700  10.867 -0.7754 -0.3823 -1.8814
  229ETHOX  H2334647  12.874  20.841  10.823 -0.1193  1.6622  0.9443
  230ETHOX   O134648  12.773  20.705  10.926 -0.5618  0.3577 -0.7456
  230ETHOX   C134649  12.735  20.614  10.825  0.3350  0.0132  0.3220
  230ETHOX  H1134650  12.814  20.537  10.818  0.6382  0.2945  0.5722
  230ETHOX  H1334651  12.648  20.555  10.858  0.5531 -0.7136 -0.3798
  230ETHOX   C234652  12.697  20.674  10.690  0.0620  0.1877  0.4176
  230ETHOX  H2134653  12.647  20.772  10.708 -1.8908 -0.7831  0.5297
  230ETHOX  H2334654  12.627  20.621  10.623 -0.2301  2.8981 -1.6155
  231ETHOX   O134655  12.808  20.723  10.616  0.4962 -0.0641  0.3129
  231ETHOX   C134656  12.860  20.624  10.528  0.1533 -0.1004  0.2709
  231ETHOX  H1134657  12.786  20.550  10.492  1.2502 -0.2182 -1.8883
  231ETHOX  H1334658  12.931  20.573  10.596 -1.8322 -0.6164  2.0956
  231ETHOX   C234659  12.931  20.683  10.399  0.3535 -0.4928 -0.3897
  231ETHOX  H2134660  13.023  20.620  10.398  1.2552  0.7561  0.8606
  231ETHOX  H2334661  12.955  20.790  10.416  1.7406 -0.8302 -0.0200
  232ETHOX   O134662  12.844  20.661  10.283 -0.4089  0.1053  0.1000
  232ETHOX   C134663  12.891  20.732  10.173 -0.4283 -0.2445  0.6745
  232ETHOX  H1134664  12.803  20.752  10.108 -0.1161  1.6128  0.7619
  232ETHOX  H1334665  12.944  20.826  10.199 -0.5972 -0.4323  1.7523
  232ETHOX   C234666  13.003  20.655  10.096  0.5745  0.2316 -0.0515
  232ETHOX  H2134667  13.041  20.728  10.021 -1.3226  0.6158 -0.6957
  232ETHOX  H2334668  12.970  20.561  10.045  0.9090  1.3076 -2.3911
  233ETHOX   O134669  13.118  20.604  10.166 -0.5118 -0.0864  0.0771
  233ETHOX   C134670  13.225  20.563  10.080  0.1194 -0.4561  0.0246
  233ETHOX  H1134671  13.194  20.491  10.001 -0.3655  1.2751 -1.4219
  233ETHOX  H1334672  13.269  20.654  10.033 -0.5714 -0.6325 -0.9928
  233ETHOX   C234673  13.342  20.505  10.169  0.3518  0.0685 -0.2018
  233ETHOX  H2134674  13.429  20.479  10.105  0.5085  0.9925 -0.3660
  233ETHOX  H2334675  13.318  20.418  10.235 -1.6959  0.8185  0.1166
  234ETHOX   O134676  13.404  20.604  10.250 -0.0579 -0.3834  0.8364
  234ETHOX   C134677  13.525  20.552  10.317  0.4261 -0.6254  1.0740
  234ETHOX  H1134678  13.580  20.472  10.263  0.2749 -1.0020  1.4718
  234ETHOX  H1334679  13.598  20.635  10.334  0.1338  0.6216 -2.8758
  234ETHOX   C234680  13.475  20.506  10.453  0.4710  0.3829  0.4204
  234ETHOX  H2134681  13.558  20.465  10.514 -1.6468 -3.1147  1.2521
  234ETHOX  H2334682  13.392  20.432  10.453  0.9556 -0.1846 -0.6516
  235ETHOX   O134683  13.413  20.615  10.526  0.2824  0.0782 -0.8685
  235ETHOX   C134684  13.333  20.566  10.626 -0.5391 -0.2831  0.6261
  235ETHOX  H1134685  13.247  20.527  10.568  1.0188  0.7309 -2.6090
  235ETHOX  H1334686  13.384  20.477  10.670  0.4306 -0.6074 -1.0526
  235ETHOX   C234687  13.275  20.651  10.744  0.2193 -0.1355  0.0114
  235ETHOX  H2134688  13.355  20.710  10.795  0.0306  0.4720 -0.3968
  235ETHOX  H2334689  13.232  20.578  10.816 -0.1820 -1.3075 -1.3734
  236ETHOX   O134690  13.176  20.745  10.711 -0.2809  0.1546 -0.3042
  236ETHOX   C134691  13.230  20.872  10.688 -0.4425  0.2183  0.9109
  236ETHOX  H1134692  13.287  20.868  10.593  0.8293 -1.1651  1.6983
  236ETHOX  H1334693  13.296  20.905  10.771 -1.0862 -0.5802  1.7649
  236ETHOX   C234694  13.125  20.974  10.643  0.2443 -0.0304  1.1600
  236ETHOX  H2134695  13.062  20.932  10.561  1.8499  1.3347 -0.8804
  236ETHOX  H2334696  13.184  21.052  10.590  1.1786 -2.2736 -1.3204
  237ETHOX   O134697  13.045  21.028  10.749 -0.3906 -0.0408  0.2158
  237ETHOX   C134698  12.936  21.101  10.703  0.1500  0.1297  0.4724
  237ETHOX  H1134699  12.977  21.198  10.666  1.3182  0.2786  2.0792
  237ETHOX  H1334700  12.903  21.070  10.601 -0.7775  1.2625  0.4052
  237ETHOX   C234701  12.820  21.114  10.796  0.4127 -0.3871 -0.3966
  237ETHOX  H2134702  12.753  21.027  10.814  0.7564 -0.1576  2.5751
  237ETHOX  H2334703  12.752  21.192  10.756 -0.6703 -0.9306  0.3322
  238ETHOX   O134704  12.858  21.170  10.929 -0.1074 -0.1247  0.6103
  238ETHOX   C134705  12.747  21.193  11.012  0.0563 -0.2538 -0.9753
  238ETHOX  H1134706  12.715  21.100  11.063  0.2083  1.4184  2.4031
  238ETHOX  H1334707  12.672  21.241  10.946  0.1704 -2.0602 -2.5198
  238ETHOX   C234708  12.782  21.281  11.133 -0.1245  0.0538  0.2437
  238ETHOX  H2134709  12.888  21.258  11.157  0.8296  1.7514 -2.0156
  238ETHOX  H2334710  12.714  21.280  11.221  1.5560  0.2278  1.5983
  239ETHOX   O134711  12.781  21.419  11.099  0.0386  0.0708  0.1182
  239ETHOX   C134712  12.801  21.507  11.215 -0.8921  0.1266  1.1296
  239ETHOX  H1134713  12.727  21.495  11.297 -0.9157 -3.6119  0.7295
  239ETHOX  H1334714  12.901  21.497  11.263  0.3565  3.6515 -0.4722
  239ETHOX   C234715  12.788  21.654  11.171  0.0936  0.5757  0.4869
  239ETHOX  H2134716  12.836  21.701  11.259  0.7076  0.3193  0.2951
  239ETHOX  H2334717  12.858  21.667  11.085  1.5208 -1.4185  1.2880
  240ETHOX   O134718  12.662  21.695  11.147  0.2080 -0.3679 -0.2332
  240ETHOX   C134719  12.659  21.828  11.099  0.0022 -0.3387 -1.0182
  240ETHOX  H1134720  12.715  21.824  11.003  1.5395  2.6941 -0.3652
  240ETHOX  H1334721  12.721  21.892  11.165  0.5978 -0.5830 -1.3347
  240ETHOX   C234722  12.517  21.881  11.082  0.2952 -0.7832 -0.0693
  240ETHOX  H2134723  12.515  21.986  11.047  0.6063 -0.5358  0.6357
  240ETHOX  H2334724  12.453  21.878  11.172 -0.9693 -0.8510 -0.9511
  241ETHOX   O134725  12.456  21.821  10.968 -0.1895 -0.2239 -0.4983
  241ETHOX   C134726  12.315  21.857  10.960 -0.0123  0.4214  0.0815
  241ETHOX  H1134727  12.284  21.959  10.990 -1.6463 -0.6226  2.2250
  241ETHOX  H1334728  12.280  21.849  10.855 -1.6093  1.7462  0.4722
  241ETHOX   C234729  12.240  21.749  11.041 -0.1588  0.0728  0.1941
  241ETHOX  H2134730  12.291  21.652  11.023  0.0292 -0.2555  2.2847
  241ETHOX  H2334731  12.136  21.733  11.005  0.4219  0.1913 -1.6400
  242ETHOX   O134732  12.226  21.762  11.179  0.1411 -0.2888 -0.0001
  242ETHOX   C134733  12.185  21.635  11.242 -0.7299 -0.7667  0.1631
  242ETHOX  H1134734  12.271  21.564  11.244  1.5935  1.8841  2.0067
  242ETHOX  H1334735  12.104  21.592  11.179 -2.5768  0.8868  1.2826
  242ETHOX   C234736  12.122  21.652  11.375 -0.1283  0.1287  0.9174
  242ETHOX  H2134737  12.072  21.555  11.393 -1.4598  0.3972 -1.0587
  242ETHOX  H2334738  12.055  21.741  11.375  1.2224  1.2131  1.8297
  243ETHOX   O134739  12.225  21.665  11.473  0.2534  0.1900 -0.5849
  243ETHOX   C134740  12.174  21.656  11.603  0.2284  0.1693  0.0566
  243ETHOX  H1134741  12.101  21.738  11.620 -1.5537 -1.3523  0.1545
  243ETHOX  H1334742  12.123  21.559  11.624 -0.8287  0.7912  0.4367
  243ETHOX   C234743  12.285  21.648  11.706  0.3248  0.3243 -0.0368
  243ETHOX  H2134744  12.352  21.562  11.685  1.6433  1.6958 -1.7711
  243ETHOX  H2334745  12.248  21.623  11.808  0.7395 -1.9420 -0.3905
  244ETHOX   O134746  12.356  21.767  11.708 -0.0887 -0.5393  0.4484
  244ETHOX   C134747  12.462  21.768  11.808  0.1600  0.1223 -0.1202
  244ETHOX  H1134748  12.515  21.671  11.794  3.6764  2.3290 -5.4074
  244ETHOX  H1334749  12.418  21.760  11.910 -0.4506  2.1354 -0.1904
  244ETHOX   C234750  12.573  21.870  11.787 -0.0875  0.1902 -0.1550
  244ETHOX  H2134751  12.617  21.852  11.687  1.4364 -0.8399  0.6613
  244ETHOX  H2334752  12.649  21.867  11.868  0.2507  0.6172 -0.4545
  245ETHOX   O134753  12.520  21.999  11.799  0.1938  0.0348  0.0626
  245ETHOX   C134754  12.609  22.103  11.744 -0.6220  0.7468 -0.4767
  245ETHOX  H1134755  12.709  22.067  11.775 -0.0477 -0.6463 -3.5269
  245ETHOX  H1334756  12.608  22.094  11.633 -2.4289 -0.1073 -0.4268
  245ETHOX   C234757  12.564  22.235  11.800  0.0585 -0.4875 -0.5938
  245ETHOX  H2134758  12.455  22.255  11.797  0.5556  3.0701  0.5728
  245ETHOX  H2334759  12.620  22.320  11.755  0.5343  0.1984  1.2294
  246ETHOX   O134760  12.607  22.246  11.932  0.5665 -0.0716  0.1217
  246ETHOX   C134761  12.576  22.376  11.977  0.1152 -0.7918  0.2099
  246ETHOX  H1134762  12.476  22.408  11.940 -0.0572 -0.8655  0.6076
  246ETHOX  H1334763  12.645  22.447  11.926 -2.7479  1.5674 -0.6782
  246ETHOX   C234764  12.583  22.373  12.124  0.4921 -0.1275 -0.8799
  246ETHOX  H2134765  12.586  22.474  12.170  0.1361 -1.0033  1.1849
  246ETHOX  H2334766  12.685  22.342  12.157  0.7966  0.2918 -1.4080
  247ETHOX   O134767  12.482  22.302  12.193  0.4454  0.6165 -0.0297
  247ETHOX   C134768  12.361  22.377  12.205 -0.1240  0.7083  0.5662
  247ETHOX  H1134769  12.386  22.472  12.256 -0.9906  0.1007  2.1762
  247ETHOX  H1334770  12.326  22.407  12.104 -0.6491  0.1338  0.5680
  247ETHOX   C234771  12.245  22.302  12.278 -0.2911 -0.6917  0.5576
  247ETHOX  H2134772  12.147  22.352  12.263 -0.7079 -1.2598  1.2782
  247ETHOX  H2334773  12.227  22.215  12.212  0.7018 -0.2476 -0.3254
  248ETHOX   O134774  12.283  22.272  12.410 -0.9597 -0.4609 -0.1995
  248ETHOX   C134775  12.204  22.165  12.463  0.1584 -0.2904 -0.2026
  248ETHOX  H1134776  12.116  22.224  12.496  2.2245  1.3465  2.8183
  248ETHOX  H1334777  12.177  22.080  12.396 -2.4353 -0.1269  0.5217
  248ETHOX   C234778  12.276  22.104  12.584 -0.0148  0.5356  0.7562
  248ETHOX  H2134779  12.193  22.062  12.645  0.4577 -1.0120  0.3760
  248ETHOX  H2334780  12.331  22.178  12.645  2.4243 -0.8644  0.3794
  249ETHOX   O134781  12.355  21.999  12.531 -0.3729 -0.1068 -0.2910
  249ETHOX   C134782  12.446  21.946  12.627 -1.1035  0.4105 -0.0479
  249ETHOX  H1134783  12.461  22.020  12.708 -0.2800  1.1268 -0.8320
  249ETHOX  H1334784  12.405  21.856  12.677  0.2669 -0.8969 -1.1674
  249ETHOX   C234785  12.585  21.904  12.569 -0.4498  0.8085 -0.1178
  249ETHOX  H2134786  12.558  21.856  12.473 -0.6631  1.0740 -0.1929
  249ETHOX  H2334787  12.638  21.834  12.637  3.5899  2.7010 -1.0021
  250ETHOX   O134788  12.667  22.019  12.549  0.6292  0.5965  0.0576
  250ETHOX   C134789  12.806  21.998  12.532  0.2186  0.5551 -0.1729
  250ETHOX  H1134790  12.839  21.942  12.621 -2.7583 -1.9147 -0.4682
  250ETHOX  H1334791  12.820  21.922  12.452  0.3689 -1.2571  1.5178
  250ETHOX   C234792  12.874  22.136  12.508  1.1697 -0.3916  0.9520
  250ETHOX  H2134793  12.823  22.186  12.422 -0.4585  0.0906  2.1395
  250ETHOX  H2334794  12.979  22.121  12.474  2.0774  0.2494  3.3042
  251ETHOX   O134795  12.867  22.218  12.622  0.5076  0.1303  0.3607
  251ETHOX   C134796  12.949  22.333  12.602  0.0612  0.3885 -1.0821
  251ETHOX  H1134797  12.969  22.367  12.498  3.3873 -0.8407 -0.9481
  251ETHOX  H1334798  13.047  22.296  12.639 -0.5596  0.9447  1.2343
  251ETHOX   C234799  12.881  22.446  12.690  0.0331  0.0327  0.1682
  251ETHOX  H2134800  12.784  22.478  12.646 -1.3033  0.6890  3.3051
  251ETHOX  H2334801  12.945  22.536  12.706  0.4275 -0.4453  1.4480
  252ETHOX   O134802  12.862  22.397  12.818  0.1067 -0.2750 -0.2185
  252ETHOX   C134803  12.845  22.498  12.912  0.4592 -0.5499 -0.6240
  252ETHOX  H1134804  12.934  22.564  12.918  1.2580 -1.4532 -2.1198
  252ETHOX  H1334805  12.758  22.563  12.888  0.8530  0.1413 -0.2281
  252ETHOX   C234806  12.832  22.412  13.041 -0.4103  0.1527 -0.1464
  252ETHOX  H2134807  12.759  22.330  13.020 -1.1673 -0.1123  3.0170
  252ETHOX  H2334808  12.781  22.475  13.117  0.7926 -0.6482  1.3709
  253ETHOX   O134809  12.956  22.366  13.091  0.1286  0.2908  0.6031
  253ETHOX   C134810  12.948  22.310  13.221  0.1732  0.3869  0.1289
  253ETHOX  H1134811  12.873  22.228  13.215 -1.3716  1.8255 -2.2049
  253ETHOX  H1334812  12.917  22.378  13.302  0.1912 -0.5354  0.9338
  253ETHOX   C234813  13.084  22.253  13.264 -0.0998  0.0445 -0.2153
  253ETHOX  H2134814  13.124  22.189  13.182  1.2274  0.6700 -0.0819
  253ETHOX  H2334815  13.076  22.183  13.350  0.3254 -1.0326 -1.0205
  254ETHOX   O134816  13.181  22.346  13.298 -0.0995  0.2816 -0.0199
  254ETHOX   C134817  13.306  22.286  13.317 -0.0728  0.6245  0.5863
  254ETHOX  H1134818  13.293  22.217  13.403 -2.2154 -0.8990 -0.8714
  254ETHOX  H1334819  13.339  22.228  13.229 -0.3500 -2.0037  2.0936
  254ETHOX   C234820  13.408  22.395  13.355  0.7335  0.5324 -0.2176
  254ETHOX  H2134821  13.496  22.341  13.396  0.9603 -0.2633 -1.6957
  254ETHOX  H2334822  13.353  22.451  13.434  0.0240  0.5253 -0.6972
  255ETHOX   O134823  13.451  22.475  13.256 -0.0935 -0.7880 -0.0107
  255ETHOX   C134824  13.557  22.415  13.183  0.5059  0.0595  0.6225
  255ETHOX  H1134825  13.517  22.315  13.154 -0.1346  0.6655 -0.7111
  255ETHOX  H1334826  13.653  22.394  13.235  0.8325 -2.5405 -0.8517
  255ETHOX   C234827  13.581  22.488  13.049  0.3822  0.1226  0.3142
  255ETHOX  H2134828  13.486  22.525  13.006  0.5935 -0.7538 -0.9817
  255ETHOX  H2334829  13.624  22.416  12.975 -2.0041 -3.1175  1.8468
  256ETHOX   O134830  13.669  22.596  13.086 -0.0941  0.3034 -0.1689
  256ETHOX   C134831  13.798  22.577  13.032  0.1509 -0.3244  0.3331
  256ETHOX  H1134832  13.847  22.489  13.080  2.3130  0.5359 -0.1450
  256ETHOX  H1334833  13.792  22.570  12.921  0.5024 -0.7031  0.3332
  256ETHOX   C234834  13.895  22.699  13.068  0.0686  0.3455 -0.0556
  256ETHOX  H2134835  13.996  22.662  13.041  0.2737  1.0867 -0.3356
  256ETHOX  H2334836  13.891  22.734  13.173  0.9799 -0.6644  0.3258
  257ETHOX   O134837  13.874  22.804  12.975  0.0326 -0.2115  0.3416
  257ETHOX   C134838  13.737  22.845  12.968 -0.0643 -1.0838  0.1181
  257ETHOX  H1134839  13.705  22.844  13.074 -0.2939 -0.3776  0.0650
  257ETHOX  H1334840  13.678  22.781  12.900 -1.2965 -0.3765  0.4886
  257ETHOX   C234841  13.720  22.990  12.911 -0.0127  0.3130 -0.1736
  257ETHOX  H2134842  13.779  23.063  12.971 -2.0784  0.3205  2.0138
  257ETHOX  H2334843  13.620  23.039  12.922 -0.3974 -0.4547 -0.2197
  258ETHOX   O134844  13.774  22.991  12.780  0.4173 -0.3191 -0.2832
  258ETHOX   C134845  13.722  23.101  12.706  0.4231  0.4435  0.2470
  258ETHOX  H1134846  13.622  23.082  12.661  0.0741 -0.5194  1.3659
  258ETHOX  H1334847  13.720  23.195  12.765 -2.2243  1.9212 -1.9564
  258ETHOX   C234848  13.817  23.126  12.589  0.5399  0.6895  0.0451
  258ETHOX  H2134849  13.924  23.099  12.605  0.0970 -0.4221  1.3511
  258ETHOX  H2334850  13.829  23.235  12.574  2.8259  0.6264  1.0339
  259ETHOX   O134851  13.773  23.059  12.467 -0.1510 -0.7142 -0.1770
  259ETHOX   C134852  13.826  22.928  12.438 -0.2370  0.6008  0.4302
  259ETHOX  H1134853  13.936  22.921  12.443 -0.3069 -1.5818 -0.1895
  259ETHOX  H1334854  13.785  22.871  12.524 -0.0810 -1.5593 -0.8602
  259ETHOX   C234855  13.765  22.873  12.313 -0.2530 -0.0662  0.4039
  259ETHOX  H2134856  13.654  22.876  12.320 -0.2046  2.3647  1.0741
  259ETHOX  H2334857  13.796  22.767  12.305 -0.5018 -0.1215  0.1831
  260ETHOX   O134858  13.800  22.935  12.185 -0.0620 -0.0099 -0.1904
  260ETHOX   C134859  13.947  22.934  12.156  0.0147 -0.3290  0.5529
  260ETHOX  H1134860  14.005  22.989  12.233  0.9646 -1.9122  0.9963
  260ETHOX  H1334861  13.982  22.829  12.153  0.4821 -0.1631 -0.8968
  260ETHOX   C234862  13.962  23.003  12.023  0.4251 -0.1666 -0.7661
  260ETHOX  H2134863  13.884  22.967  11.952 -1.1667 -0.3965  1.0137
  260ETHOX  H2334864  14.056  22.970  11.975  1.5078  0.2555  0.9840
  261ETHOX   O134865  13.962  23.146  12.030  0.7966  0.4868  0.5257
  261ETHOX   C134866  13.994  23.213  11.906 -0.4962  0.5270  0.7793
  261ETHOX  H1134867  14.082  23.166  11.857 -2.3790 -2.2259 -0.1941
  261ETHOX  H1334868  13.912  23.205  11.831  0.3614 -0.3099 -0.1039
  261ETHOX   C234869  13.996  23.364  11.928 -0.0062  0.6922  0.1397
  261ETHOX  H2134870  13.903  23.383  11.985 -0.1515 -0.6427  0.3715
  261ETHOX  H2334871  13.987  23.420  11.833  0.8230  1.2742  0.3911
  262ETHOX   O134872  14.108  23.410  11.996 -0.1909  0.3093 -0.0347
  262ETHOX   C134873  14.136  23.546  11.957  0.6615  0.0350  0.1510
  262ETHOX  H1134874  14.146  23.557  11.847  0.2735  0.3184  0.1448
  262ETHOX  H1334875  14.239  23.558  11.997  0.7422 -1.4745  0.4898
  262ETHOX   C234876  14.031  23.658  11.991 -0.6057 -0.4275 -0.0401
  262ETHOX  H2134877  13.937  23.633  11.936 -0.9499 -1.6544  1.0490
  262ETHOX  H2334878  14.066  23.753  11.945 -0.2938 -0.1247  0.8034
  263ETHOX   O134879  14.004  23.683  12.126  0.0523 -0.1120  0.4670
  263ETHOX   C134880  13.911  23.791  12.154  0.4715  0.4669 -0.4913
  263ETHOX  H1134881  13.943  23.895  12.131 -0.8559  0.7784 -1.0487
  263ETHOX  H1334882  13.891  23.785  12.263  1.4136  1.0454 -0.2741
  263ETHOX   C234883  13.770  23.780  12.079 -0.0298 -0.0479 -0.1542
  263ETHOX  H2134884  13.784  23.808  11.973  2.5916 -0.0978  0.1152
  263ETHOX  H2334885  13.719  23.872  12.114 -1.0819 -0.0284 -1.6561
  264ETHOX   O134886  13.700  23.665  12.108 -0.4210  0.3025  0.0686
  264ETHOX   C134887  13.588  23.646  12.021 -0.2268 -0.2263  0.1574
  264ETHOX  H1134888  13.636  23.638  11.922  1.3569  1.3810  0.7529
  264ETHOX  H1334889  13.517  23.731  12.021 -1.4814 -1.2215 -0.8920
  264ETHOX   C234890  13.498  23.526  12.058  0.1025 -0.1835  0.0840
  264ETHOX  H2134891  13.416  23.542  11.985 -0.1782  0.2520  0.4911
  264ETHOX  H2334892  13.466  23.525  12.164  1.4913 -1.8876  0.5400
  265ETHOX   O134893  13.582  23.412  12.016 -0.1102 -0.2384  0.6007
  265ETHOX   C134894  13.521  23.300  12.059 -0.8202  0.5997 -0.0134
  265ETHOX  H1134895  13.526  23.293  12.170 -1.9660  1.0657  0.0856
  265ETHOX  H1334896  13.415  23.292  12.026 -1.3956 -0.0980  1.8449
  265ETHOX   C234897  13.601  23.178  12.011 -0.3083 -0.4739 -0.3947
  265ETHOX  H2134898  13.561  23.089  12.064 -1.5383 -0.4203 -1.1935
  265ETHOX  H2334899  13.706  23.191  12.043 -0.3178  0.0545 -0.5619
  265ETHOX   OZ34900  13.586  23.141  11.872 -0.1056 -0.1169  0.0366
  265ETHOX  HZ134901  13.647  23.070  11.855 -0.5696 -0.7999  1.0988
    1ETHOX   O134902   9.062   8.273  13.126  0.0799 -0.5893 -0.3914
    1ETHOX  HO134903   8.974   8.235  13.135 -0.7320  1.4396  1.2686
    1ETHOX   C134904   9.157   8.184  13.058 -0.3712 -0.4721 -0.8129
    1ETHOX  H1134905   9.174   8.100  13.128  0.2986  0.7546  0.5685
    1ETHOX  H1334906   9.250   8.245  13.060 -0.9559  0.4283  1.0054
    1ETHOX   C234907   9.115   8.134  12.919 -0.4308 -1.0629  0.0757
    1ETHOX  H2134908   9.007   8.148  12.901  0.3716  4.2290 -2.7260
    1ETHOX  H2334909   9.136   8.026  12.907 -1.2289 -1.0350 -1.9297
    2ETHOX   O134910   9.178   8.213  12.816  0.1722 -0.6495 -0.0642
    2ETHOX   C134911   9.110   8.199  12.688  0.6326 -0.3533  0.2343
    2ETHOX  H1134912   9.133   8.096  12.655  1.4874 -0.3515  0.7927
    2ETHOX  H1334913   9.001   8.212  12.702  0.2539 -1.5844 -1.3270
    2ETHOX   C234914   9.173   8.299  12.582  0.4187  0.1337 -0.2471
    2ETHOX  H2134915   9.178   8.393  12.639  0.5356  0.0714 -0.1548
    2ETHOX  H2334916   9.096   8.322  12.505  0.6537  1.9415  0.0168
    3ETHOX   O134917   9.303   8.257  12.538 -0.1387  0.0846 -0.2027
    3ETHOX   C134918   9.325   8.257  12.394  0.3712  1.0526  0.3168
    3ETHOX  H1134919   9.354   8.356  12.352 -1.6377  1.4561 -0.1968
    3ETHOX  H1334920   9.235   8.225  12.338  0.2312 -3.1633  2.5390
    3ETHOX   C234921   9.433   8.162  12.370 -0.4423 -0.4274 -0.2280
    3ETHOX  H2134922   9.525   8.212  12.405 -1.8297  1.9290  0.2263
    3ETHOX  H2334923   9.437   8.146  12.260 -0.5905  1.6932 -0.5883
    4ETHOX   O134924   9.414   8.030  12.433  0.5494  0.2529  0.8937
    4ETHOX   C134925   9.505   7.929  12.383 -0.6401 -0.1506  0.0690
    4ETHOX  H1134926   9.445   7.878  12.304 -0.3977 -1.4896  0.7236
    4ETHOX  H1334927   9.601   7.969  12.345 -1.7101  2.3969 -0.2091
    4ETHOX   C234928   9.541   7.826  12.494  0.0001 -0.7753  0.3563
    4ETHOX  H2134929   9.606   7.747  12.450 -0.2697 -0.3460 -0.8523
    4ETHOX  H2334930   9.455   7.765  12.530 -1.1723  1.4706  1.6129
    5ETHOX   O134931   9.608   7.891  12.601  0.3479 -0.0192 -0.0904
    5ETHOX   C134932   9.685   7.799  12.681  0.3911  0.0958 -0.3968
    5ETHOX  H1134933   9.720   7.711  12.622 -0.3264 -0.2037 -0.3897
    5ETHOX  H1334934   9.774   7.860  12.705 -1.0668  1.8372  0.7658
    5ETHOX   C234935   9.604   7.762  12.805 -0.1974  0.4585 -0.4649
    5ETHOX  H2134936   9.498   7.742  12.778 -1.2872  0.5951  3.0674
    5ETHOX  H2334937   9.609   7.852  12.870 -0.8180  1.2375 -1.4726
    6ETHOX   O134938   9.655   7.644  12.870 -0.1142 -0.7112 -0.3912
    6ETHOX   C134939   9.609   7.650  13.007  0.2863 -0.2361  0.5216
    6ETHOX  H1134940   9.624   7.751  13.051  1.2207 -0.7286  1.3815
    6ETHOX  H1334941   9.500   7.627  13.005  0.3645 -0.5879  0.0887
    6ETHOX   C234942   9.664   7.520  13.071  0.2572  1.0847 -0.1621
    6ETHOX  H2134943   9.775   7.524  13.083  0.1431  1.7584  0.8349
    6ETHOX  H2334944   9.641   7.444  12.994 -1.3653  0.8201  0.5409
    7ETHOX   O134945   9.596   7.475  13.191 -0.6416  0.0962  0.5935
    7ETHOX   C134946   9.643   7.545  13.306  0.5193  0.4301  0.4021
    7ETHOX  H1134947   9.745   7.511  13.331 -0.3887 -1.2776  2.0224
    7ETHOX  H1334948   9.646   7.654  13.286  0.5163  0.6255  1.4181
    7ETHOX   C234949   9.568   7.534  13.436  0.0062 -0.4412 -0.2449
    7ETHOX  H2134950   9.610   7.610  13.505 -4.4248 -0.1690  2.6406
    7ETHOX  H2334951   9.576   7.434  13.485 -1.7152 -0.0248  0.9967
    8ETHOX   O134952   9.428   7.564  13.421 -0.6246 -0.1487  0.2822
    8ETHOX   C134953   9.361   7.563  13.544 -0.0873  0.3252 -0.5094
    8ETHOX  H1134954   9.411   7.630  13.616 -1.0665  0.8154 -0.2657
    8ETHOX  H1334955   9.343   7.457  13.574 -0.5948  0.6502  0.3673
    8ETHOX   C234956   9.218   7.629  13.525 -0.4160 -0.2992 -0.5743
    8ETHOX  H2134957   9.164   7.613  13.621  1.1338 -0.3335  0.3188
    8ETHOX  H2334958   9.161   7.573  13.447 -0.6350 -0.3884 -0.3509
    9ETHOX   O134959   9.220   7.770  13.501 -0.3326  0.2105  0.5575
    9ETHOX   C134960   9.089   7.815  13.470  0.5217 -0.3423 -0.2955
    9ETHOX  H1134961   9.050   7.774  13.374  0.3639 -2.5745  0.6635
    9ETHOX  H1334962   9.009   7.786  13.541 -0.6812  0.8661 -1.1151
    9ETHOX   C234963   9.081   7.973  13.450  0.0419  0.0535 -0.3090
    9ETHOX  H2134964   8.989   7.994  13.392 -0.4554 -0.0712  0.4236
    9ETHOX  H2334965   9.171   8.011  13.397  0.5137  0.5920  0.8412
   10ETHOX   O134966   9.078   8.032  13.580  0.4745  0.0942 -0.1026
   10ETHOX   C134967   9.075   8.165  13.567 -0.2781  0.3000 -0.1503
   10ETHOX  H1134968   8.996   8.203  13.499 -3.2560 -0.1993  2.7960
   10ETHOX  H1334969   9.172   8.193  13.520 -0.5686  0.2992 -0.7564
   10ETHOX   C234970   9.065   8.235  13.704  0.1326 -0.0251 -0.3881
   10ETHOX  H2134971   8.971   8.208  13.758  0.5983 -2.2359 -0.5807
   10ETHOX  H2334972   9.061   8.342  13.674 -0.8122  0.7345  2.2076
   11ETHOX   O134973   9.177   8.213  13.785  0.1925 -0.0316 -1.0978
   11ETHOX   C134974   9.160   8.263  13.917  0.9975 -0.0364  0.4900
   11ETHOX  H1134975   9.104   8.359  13.917  1.2649  0.1581 -1.3723
   11ETHOX  H1334976   9.090   8.196  13.970 -1.4353  2.3267  0.4815
   11ETHOX   C234977   9.285   8.268  14.004 -0.6124  0.1954 -0.1730
   11ETHOX  H2134978   9.256   8.252  14.110 -1.2189  2.2597  0.0252
   11ETHOX  H2334979   9.350   8.189  13.961 -0.8239  0.5477 -1.1855
   12ETHOX   O134980   9.368   8.390  14.010 -0.3189 -0.4327  0.1186
   12ETHOX   C134981   9.458   8.403  13.902  0.3357 -0.1412  0.0381
   12ETHOX  H1134982   9.403   8.402  13.805  0.3241  3.1343 -0.1035
   12ETHOX  H1334983   9.528   8.316  13.904  1.0995  0.3575  4.0345
   12ETHOX   C234984   9.542   8.527  13.908 -0.1990  0.7473 -0.0755
   12ETHOX  H2134985   9.643   8.514  13.864  0.4357  0.0885  1.5282
   12ETHOX  H2334986   9.562   8.550  14.015 -0.3532  0.9966 -0.0988
   13ETHOX   O134987   9.461   8.631  13.850  0.0241 -0.1041 -0.6910
   13ETHOX   C134988   9.539   8.715  13.773 -0.4585 -0.4279 -0.0576
   13ETHOX  H1134989   9.602   8.773  13.844 -0.4736  0.1852 -0.5408
   13ETHOX  H1334990   9.611   8.651  13.718  1.9140  2.1363 -0.1650
   13ETHOX   C234991   9.450   8.807  13.685  0.3256 -0.0203  0.4968
   13ETHOX  H2134992   9.512   8.886  13.636 -1.8190  0.0041 -2.5065
   13ETHOX  H2334993   9.382   8.863  13.752  0.8285  1.2175  0.0162
   14ETHOX   O134994   9.375   8.727  13.585 -0.0020  0.1964 -0.1412
   14ETHOX   C134995   9.273   8.806  13.526 -0.3517  0.0260 -0.1151
   14ETHOX  H1134996   9.308   8.900  13.478 -0.9938  0.0000 -0.6488
   14ETHOX  H1334997   9.194   8.825  13.602  0.6606 -0.4570  1.0856
   14ETHOX   C234998   9.197   8.734  13.413  0.1543 -0.3065 -0.1808
   14ETHOX  H2134999   9.088   8.757  13.408 -0.2483 -0.4656  4.0305
   14ETHOX  H2335000   9.200   8.626  13.438 -1.3972 -0.2322  0.4522
   15ETHOX   O135001   9.262   8.758  13.294 -0.0211  1.0165 -0.1972
   15ETHOX   C135002   9.200   8.690  13.185  0.0486  1.2299  0.3306
   15ETHOX  H1135003   9.237   8.586  13.182 -0.4786  0.9677  1.9520
   15ETHOX  H1335004   9.090   8.689  13.203  0.0890 -2.9288  1.3000
   15ETHOX   C235005   9.234   8.765  13.050  0.2890 -0.4371  0.2991
   15ETHOX  H2135006   9.162   8.730  12.973 -0.3365 -2.6363  1.7692
   15ETHOX  H2335007   9.226   8.875  13.059 -1.0349 -0.5534  0.8180
   16ETHOX   O135008   9.363   8.737  12.998 -0.6490 -0.3424 -0.2210
   16ETHOX   C135009   9.396   8.790  12.869  0.0747  0.1243  0.3155
   16ETHOX  H1135010   9.327   8.745  12.795  0.3264 -1.0122  0.7464
   16ETHOX  H1335011   9.378   8.899  12.868 -1.1024 -0.0634 -0.1744
   16ETHOX   C235012   9.532   8.757  12.817 -0.4843  0.1294  0.2163
   16ETHOX  H2135013   9.610   8.793  12.887 -2.5608  2.4950  1.4758
   16ETHOX  H2335014   9.554   8.805  12.719 -0.9687  1.0912  0.5688
   17ETHOX   O135015   9.548   8.615  12.800  0.0632  0.5832 -1.2143
   17ETHOX   C135016   9.524   8.570  12.666  0.0638  0.8264  0.0363
   17ETHOX  H1135017   9.423   8.597  12.628 -0.3024 -1.7075 -1.0006
   17ETHOX  H1335018   9.603   8.613  12.600  1.0754  0.8232  1.2159
   17ETHOX   C235019   9.524   8.420  12.643  0.1186 -0.4774  0.5661
   17ETHOX  H2135020   9.500   8.413  12.534  0.8866  0.2026  0.3447
   17ETHOX  H2335021   9.450   8.375  12.711 -0.5756  1.9300  1.4932
   18ETHOX   O135022   9.655   8.377  12.664  0.3031 -0.2680  0.3158
   18ETHOX   C135023   9.649   8.243  12.698  0.1800 -0.0928  0.4356
   18ETHOX  H1135024   9.557   8.217  12.755 -0.5696  0.9467 -0.2657
   18ETHOX  H1335025   9.629   8.191  12.602  0.1271 -1.1143  0.9802
   18ETHOX   C235026   9.784   8.200  12.753 -0.1253 -0.2000 -0.3765
   18ETHOX  H2135027   9.872   8.251  12.709 -1.3608 -0.1140 -2.9096
   18ETHOX  H2335028   9.791   8.090  12.739 -1.0394 -0.5157  1.3324
   19ETHOX   O135029   9.786   8.212  12.893 -0.1095 -0.1345  0.4361
   19ETHOX   C135030   9.916   8.192  12.953 -0.5888  0.3235  1.3926
   19ETHOX  H1135031   9.963   8.285  12.915 -0.5965 -0.8842 -1.9147
   19ETHOX  H1335032   9.958   8.102  12.903  1.0827  2.7790 -2.0075
   19ETHOX   C235033   9.923   8.198  13.102  0.1924  1.0044  0.2356
   19ETHOX  H2135034   9.871   8.102  13.124 -0.0249  0.9791 -0.3687
   19ETHOX  H2335035   9.873   8.291  13.136 -1.7815 -0.0714  0.4632
   20ETHOX   O135036  10.062   8.184  13.142 -0.1552  0.3003  0.4676
   20ETHOX   C135037  10.071   8.181  13.289 -0.0157 -0.5352 -0.7362
   20ETHOX  H1135038  10.030   8.279  13.320 -3.1928 -1.7103 -0.8041
   20ETHOX  H1335039  10.006   8.106  13.338  0.0600  0.1443  0.4324
   20ETHOX   C235040  10.215   8.162  13.333  0.6750 -0.3944  0.1375
   20ETHOX  H2135041  10.259   8.082  13.270  0.1476 -0.7170  0.1699
   20ETHOX  H2335042  10.229   8.131  13.438  0.3636  2.3063  1.0629
   21ETHOX   O135043  10.295   8.278  13.312  0.1152  0.3067 -0.5540
   21ETHOX   C135044  10.437   8.260  13.336  0.4524 -0.3754 -0.5118
   21ETHOX  H1135045  10.458   8.184  13.415  0.9760  0.4919  0.1929
   21ETHOX  H1335046  10.486   8.354  13.368 -0.1647 -0.3052  0.2483
   21ETHOX   C235047  10.503   8.205  13.208 -0.4173  0.7857  0.5413
   21ETHOX  H2135048  10.613   8.219  13.210 -0.4574  1.4695 -1.0168
   21ETHOX  H2335049  10.465   8.258  13.118  0.1647 -0.5885 -0.5656
   22ETHOX   O135050  10.483   8.067  13.185 -0.6079 -0.6270  0.5614
   22ETHOX   C135051  10.513   8.032  13.052  0.1666 -0.1668  0.1542
   22ETHOX  H1135052  10.423   8.049  12.990 -0.3553 -0.0390  0.9367
   22ETHOX  H1335053  10.606   8.085  13.021  1.0309 -2.2496 -1.0463
   22ETHOX   C235054  10.542   7.883  13.049  0.4513  0.4329  0.8917
   22ETHOX  H2135055  10.445   7.835  13.074  0.5633 -0.3305 -0.0852
   22ETHOX  H2335056  10.568   7.859  12.944 -1.0509  1.0387  0.3599
   23ETHOX   O135057  10.649   7.850  13.135 -0.5327 -0.6533  0.5729
   23ETHOX   C135058  10.655   7.710  13.165 -0.0441 -0.2446 -0.4304
   23ETHOX  H1135059  10.655   7.649  13.073  2.1587 -1.7861  0.5112
   23ETHOX  H1335060  10.572   7.685  13.235 -0.5472 -0.5980 -1.1422
   23ETHOX   C235061  10.786   7.682  13.246 -0.8395  0.0914 -0.0319
   23ETHOX  H2135062  10.875   7.729  13.200 -1.8701  0.9886 -1.1824
   23ETHOX  H2335063  10.804   7.572  13.254  0.5143 -0.0611 -3.5949
   24ETHOX   O135064  10.774   7.731  13.377 -0.1787 -0.2020  0.1718
   24ETHOX   C135065  10.898   7.729  13.448  0.0260  0.3159  0.7034
   24ETHOX  H1135066  10.956   7.646  13.402  0.4964  0.9368  0.1516
   24ETHOX  H1335067  10.958   7.813  13.408  0.9778 -0.7970 -0.3165
   24ETHOX   C235068  10.899   7.720  13.595  0.0570  0.3592  0.9629
   24ETHOX  H2135069  10.831   7.792  13.647  0.0773 -0.7377  2.5792
   24ETHOX  H2335070  11.001   7.746  13.630  0.0212  1.6043  0.1968
   25ETHOX   O135071  10.868   7.588  13.637 -0.3430 -0.1100 -0.0632
   25ETHOX   C135072  10.729   7.571  13.641  0.0549  0.2478  0.2231
   25ETHOX  H1135073  10.695   7.549  13.538  0.0969  0.6468  0.1232
   25ETHOX  H1335074  10.678   7.663  13.678 -1.7989 -0.6204 -0.0410
   25ETHOX   C235075  10.674   7.457  13.728  0.0077 -0.4016  0.5689
   25ETHOX  H2135076  10.564   7.471  13.740  0.1139  0.2359  0.8118
   25ETHOX  H2335077  10.734   7.461  13.822  0.0440  1.7996  0.4907
   26ETHOX   O135078  10.701   7.327  13.666  0.7578  0.0774 -0.2556
   26ETHOX   C135079  10.602   7.226  13.697 -0.1683  0.1934 -0.4313
   26ETHOX  H1135080  10.577   7.233  13.805  3.7365 -0.7870  0.7135
   26ETHOX  H1335081  10.514   7.232  13.629  0.2264  1.5959 -0.8549
   26ETHOX   C235082  10.662   7.086  13.688  0.4381  0.4302 -0.4184
   26ETHOX  H2135083  10.736   7.067  13.608  1.5187 -0.2653  0.7095
   26ETHOX  H2335084  10.577   7.020  13.662  1.3391 -1.0206  0.1923
   27ETHOX   O135085  10.722   7.032  13.806  0.3486 -0.3218  0.3504
   27ETHOX   C135086  10.834   7.120  13.847 -0.3576  0.1744  0.4710
   27ETHOX  H1135087  10.778   7.206  13.890  0.3552 -0.6710  3.3277
   27ETHOX  H1335088  10.911   7.142  13.770 -1.5920  0.0367 -0.8297
   27ETHOX   C235089  10.903   7.068  13.968  0.4922  0.3204 -0.0443
   27ETHOX  H2135090  10.997   7.127  13.971  1.1100 -0.6664  0.9203
   27ETHOX  H2335091  10.922   6.959  13.964  0.1156  0.1201  2.2303
   28ETHOX   O135092  10.822   7.109  14.080  0.4069  0.0893 -0.1084
   28ETHOX   C135093  10.867   7.048  14.197 -0.5709 -0.3152 -0.4883
   28ETHOX  H1135094  10.821   6.947  14.201 -1.1912  0.0159  1.6517
   28ETHOX  H1335095  10.977   7.046  14.187 -0.7206  0.6931 -3.6164
   28ETHOX   C235096  10.814   7.121  14.312 -0.5172 -0.1171  0.6629
   28ETHOX  H2135097  10.819   7.232  14.298  0.1465  0.1111  2.4505
   28ETHOX  H2335098  10.885   7.087  14.390  0.1746 -1.1943 -0.4051
   29ETHOX   O135099  10.682   7.089  14.354  0.0673  0.4004 -0.0239
   29ETHOX   C135100  10.652   7.141  14.482 -0.8862  0.1919  0.3200
   29ETHOX  H1135101  10.653   7.252  14.475  1.9594  0.1953 -0.4109
   29ETHOX  H1335102  10.740   7.115  14.544 -0.4850 -0.6044 -0.5542
   29ETHOX   C235103  10.516   7.094  14.533  0.3358 -0.2486 -0.0145
   29ETHOX  H2135104  10.426   7.124  14.474 -0.4965 -0.8255  0.9302
   29ETHOX  H2335105  10.494   7.139  14.632 -3.4027  1.5607 -1.4612
   30ETHOX   O135106  10.500   6.953  14.544 -0.1417 -0.2296  0.5507
   30ETHOX   C135107  10.585   6.891  14.642  0.0953  0.2055  0.5244
   30ETHOX  H1135108  10.674   6.839  14.600 -0.3157  1.1449 -1.6221
   30ETHOX  H1335109  10.608   6.958  14.728 -1.8323  0.5189  0.8443
   30ETHOX   C235110  10.486   6.779  14.713 -0.2977 -0.3837  0.7276
   30ETHOX  H2135111  10.549   6.708  14.770  0.7042 -0.0325  0.0837
   30ETHOX  H2335112  10.456   6.713  14.629  0.1583 -0.6622  0.7800
   31ETHOX   O135113  10.374   6.832  14.777  0.0447  0.1102 -0.4589
   31ETHOX   C135114  10.399   6.859  14.915 -0.2086 -0.6051  0.1588
   31ETHOX  H1135115  10.366   6.775  14.979 -2.7586  0.0969 -0.1349
   31ETHOX  H1335116  10.506   6.872  14.942 -0.0727 -0.7667 -0.2832
   31ETHOX   C235117  10.319   6.977  14.963  0.2330 -0.1826  0.4561
   31ETHOX  H2135118  10.317   6.986  15.074 -0.5170  0.2780  0.4161
   31ETHOX  H2335119  10.214   6.979  14.927  0.9418  0.1775 -1.7421
   32ETHOX   O135120  10.382   7.093  14.905  0.0701 -0.0495  0.3672
   32ETHOX   C135121  10.310   7.207  14.931 -0.3098  0.1783  0.0826
   32ETHOX  H1135122  10.200   7.200  14.914 -0.0963  1.0891 -2.0656
   32ETHOX  H1335123  10.325   7.234  15.037  0.5351 -0.1860  0.0556
   32ETHOX   C235124  10.365   7.314  14.846  0.0086 -0.2624  0.2396
   32ETHOX  H2135125  10.475   7.322  14.860 -0.1764  0.6414  1.4431
   32ETHOX  H2335126  10.322   7.415  14.865 -0.6764 -0.0834 -1.9749
   33ETHOX   O135127  10.333   7.310  14.704  0.2066 -0.1248  0.2534
   33ETHOX   C135128  10.381   7.431  14.642  0.1917  0.0444 -0.4287
   33ETHOX  H1135129  10.341   7.522  14.691 -0.8137  0.3367 -1.7237
   33ETHOX  H1335130  10.491   7.444  14.638  0.0219  1.4163 -1.2283
   33ETHOX   C235131  10.340   7.446  14.494 -0.2594  0.7660 -0.3485
   33ETHOX  H2135132  10.233   7.474  14.477 -0.4693  0.2266  0.0524
   33ETHOX  H2335133  10.367   7.354  14.437 -3.0108  0.2825 -1.0531
   34ETHOX   O135134  10.405   7.563  14.441 -0.3610  0.0009  0.2634
   34ETHOX   C135135  10.372   7.562  14.305 -0.0732  0.1546  0.0342
   34ETHOX  H1135136  10.378   7.668  14.272  2.0675  0.2149  0.4975
   34ETHOX  H1335137  10.270   7.521  14.285 -1.0592  2.2902  0.4688
   34ETHOX   C235138  10.472   7.478  14.218  0.2597 -0.7799 -0.3843
   34ETHOX  H2135139  10.574   7.481  14.263 -0.3543  0.2944  0.9875
   34ETHOX  H2335140  10.479   7.527  14.119 -2.1437 -1.8049 -1.1261
   35ETHOX   O135141  10.444   7.337  14.194  0.3092  0.3381  0.5122
   35ETHOX   C135142  10.531   7.278  14.102 -0.0265 -0.0862  0.6384
   35ETHOX  H1135143  10.525   7.332  14.005  1.1932 -2.6678 -0.9968
   35ETHOX  H1335144  10.634   7.278  14.144  0.5596  0.0133 -0.7301
   35ETHOX   C235145  10.496   7.135  14.069  0.6003  0.7092  0.0512
   35ETHOX  H2135146  10.487   7.086  14.168 -0.6949 -0.7951 -0.7657
   35ETHOX  H2335147  10.578   7.097  14.004  0.8022  3.7432 -1.6372
   36ETHOX   O135148  10.378   7.125  13.991  0.0087  0.2881  0.2125
   36ETHOX   C135149  10.328   6.987  13.983 -0.9390  0.1018  0.7888
   36ETHOX  H1135150  10.323   6.945  14.085  0.0169 -1.3531  0.2690
   36ETHOX  H1335151  10.404   6.923  13.932  0.5456  0.4030  2.5112
   36ETHOX   C235152  10.195   6.970  13.919 -0.6483  0.0717  0.1386
   36ETHOX  H2135153  10.118   7.023  13.980  0.6711  1.8941  0.2935
   36ETHOX  H2335154  10.166   6.863  13.911 -0.3044 -0.0457  0.4361
   37ETHOX   O135155  10.188   7.024  13.787  0.4226  0.3001  0.3203
   37ETHOX   C135156  10.055   7.055  13.748  0.5926 -0.3400  0.0305
   37ETHOX  H1135157   9.988   7.062  13.836  1.6350 -0.9002  0.8937
   37ETHOX  H1335158  10.055   7.154  13.697  0.5799 -0.5818 -0.4419
   37ETHOX   C235159   9.993   6.942  13.655 -0.8003 -0.3824  0.1978
   37ETHOX  H2135160   9.989   6.847  13.712  0.5634 -1.0282 -0.7486
   37ETHOX  H2335161  10.049   6.920  13.562  0.8859 -1.9532  1.5415
   38ETHOX   O135162   9.865   6.986  13.622 -0.2194 -1.1409 -0.2797
   38ETHOX   C135163   9.806   6.897  13.530 -0.3772  0.3663  0.0511
   38ETHOX  H1135164   9.696   6.884  13.543 -0.2751 -2.5117 -1.2605
   38ETHOX  H1335165   9.850   6.796  13.543  0.9579  0.9245  0.0728
   38ETHOX   C235166   9.828   6.942  13.385 -0.4601 -0.8177 -0.3923
   38ETHOX  H2135167   9.816   6.852  13.321  3.7653 -1.2972 -0.7781
   38ETHOX  H2335168   9.931   6.980  13.367 -0.7066 -0.7097 -1.6396
   39ETHOX   O135169   9.735   7.043  13.341  0.0102  0.1492  0.5230
   39ETHOX   C135170   9.763   7.082  13.207  0.3959  0.1243  0.8763
   39ETHOX  H1135171   9.864   7.128  13.208  0.0758  0.9499 -0.6705
   39ETHOX  H1335172   9.759   6.995  13.138 -0.2592  2.0005 -1.6223
   39ETHOX   C235173   9.667   7.182  13.148 -0.3205  0.2036  0.4737
   39ETHOX  H2135174   9.722   7.235  13.068 -0.3669 -1.5329 -0.7499
   39ETHOX  H2335175   9.632   7.252  13.228 -0.2770 -1.4187  1.9848
   40ETHOX   O135176   9.552   7.122  13.087 -0.0762  0.2601 -0.0694
   40ETHOX   C135177   9.446   7.209  13.085  0.7130 -0.7185 -0.5698
   40ETHOX  H1135178   9.478   7.302  13.034 -2.0526  1.1081  0.7620
   40ETHOX  H1335179   9.409   7.236  13.187 -2.1929 -1.3000 -1.3843
   40ETHOX   C235180   9.329   7.135  13.009  0.0423  0.0204 -0.0810
   40ETHOX  H2135181   9.376   7.098  12.915  0.7662 -2.0936  1.0565
   40ETHOX  H2335182   9.251   7.213  12.991 -0.4924 -0.2009  1.1882
   41ETHOX   O135183   9.285   7.030  13.089 -0.2585  1.0160  0.1170
   41ETHOX   C135184   9.199   6.945  13.013  0.9982 -0.6073 -0.0994
   41ETHOX  H1135185   9.107   7.002  12.984 -0.0733 -2.0277  0.3876
   41ETHOX  H1335186   9.254   6.920  12.920  1.2050  2.5401 -0.9384
   41ETHOX   C235187   9.146   6.821  13.082 -0.1980  0.0329 -0.6340
   41ETHOX  H2135188   9.040   6.808  13.051 -0.3817  0.1823 -0.0731
   41ETHOX  H2335189   9.141   6.832  13.192 -1.2678 -0.6555 -0.6075
   42ETHOX   O135190   9.226   6.707  13.064  0.1412 -0.4948  0.0880
   42ETHOX   C135191   9.204   6.607  13.166 -0.5529 -0.3249  0.6296
   42ETHOX  H1135192   9.274   6.613  13.252  1.5401 -0.2096 -0.9946
   42ETHOX  H1335193   9.100   6.611  13.204 -1.2168 -0.3277 -1.0944
   42ETHOX   C235194   9.204   6.466  13.112  0.3774  0.1037 -0.0463
   42ETHOX  H2135195   9.178   6.389  13.187  1.6437  0.6065  0.9543
   42ETHOX  H2335196   9.309   6.442  13.082  0.9010 -1.2248  2.5451
   43ETHOX   O135197   9.126   6.460  12.998  0.5050 -0.1875  0.0103
   43ETHOX   C135198   9.157   6.330  12.939  0.3949 -0.4831 -0.6964
   43ETHOX  H1135199   9.246   6.339  12.873  0.8981 -0.2097  0.0124
   43ETHOX  H1335200   9.167   6.259  13.024 -2.2867 -0.0509  0.0567
   43ETHOX   C235201   9.030   6.294  12.850  1.1959 -0.2203 -0.8152
   43ETHOX  H2135202   8.938   6.311  12.910  1.9340  1.5985 -0.1106
   43ETHOX  H2335203   9.032   6.186  12.825 -0.8556 -0.0573 -1.8467
   44ETHOX   O135204   9.030   6.371  12.732  0.0529 -0.2225  0.1806
   44ETHOX   C135205   8.917   6.338  12.658  0.2348  0.4071 -0.1702
   44ETHOX  H1135206   8.918   6.229  12.636 -0.1162  0.6024 -1.2413
   44ETHOX  H1335207   8.824   6.369  12.711 -1.7459 -3.2497 -1.1611
   44ETHOX   C235208   8.929   6.411  12.524  0.0872  0.6485 -0.7599
   44ETHOX  H2135209   8.892   6.335  12.452  0.5961  0.1303 -0.4815
   44ETHOX  H2335210   9.039   6.410  12.504  1.0591  0.5842  3.5145
   45ETHOX   O135211   8.867   6.541  12.509  0.2992 -0.2956 -0.4022
   45ETHOX   C135212   8.895   6.601  12.381  0.6248 -0.8279  0.4309
   45ETHOX  H1135213   8.851   6.542  12.298 -1.0107 -1.7916  1.9056
   45ETHOX  H1335214   9.006   6.599  12.372  1.1648  1.8469  4.0069
   45ETHOX   C235215   8.835   6.746  12.368  0.3028  0.6732 -0.1429
   45ETHOX  H2135216   8.900   6.817  12.313  1.3365 -0.0018  0.1797
   45ETHOX  H2335217   8.847   6.779  12.473  2.0284 -0.3259  0.0204
   46ETHOX   O135218   8.703   6.762  12.328  0.0176 -0.2428  0.2500
   46ETHOX   C135219   8.616   6.709  12.424  0.0232 -0.4669 -0.2287
   46ETHOX  H1135220   8.632   6.600  12.440 -0.9358 -0.9081 -2.0376
   46ETHOX  H1335221   8.622   6.771  12.516 -1.0425  0.1962 -0.5881
   46ETHOX   C235222   8.477   6.740  12.361  0.7332 -0.4305  0.1093
   46ETHOX  H2135223   8.395   6.700  12.425 -0.9814  1.8686 -0.5391
   46ETHOX  H2335224   8.473   6.686  12.264 -1.0184 -0.4134  0.1417
   47ETHOX   O135225   8.448   6.879  12.345 -0.0042  0.0540 -0.3150
   47ETHOX   C135226   8.314   6.904  12.303 -0.2779 -0.0966 -1.2077
   47ETHOX  H1135227   8.238   6.838  12.351  1.1119 -2.7921 -2.5325
   47ETHOX  H1335228   8.313   6.879  12.195  0.2749  1.0220 -1.4863
   47ETHOX   C235229   8.281   7.051  12.346 -0.3695 -0.3252  0.6224
   47ETHOX  H2135230   8.307   7.079  12.450  0.9808  0.0705  0.1885
   47ETHOX  H2335231   8.172   7.058  12.323 -0.0132  1.0909 -0.8356
   48ETHOX   O135232   8.338   7.143  12.248 -0.1473 -0.1158  0.7625
   48ETHOX   C135233   8.290   7.277  12.258  0.2313  0.5667  0.8349
   48ETHOX  H1135234   8.180   7.274  12.275  0.2580  0.7443  1.0448
   48ETHOX  H1335235   8.338   7.325  12.346  0.5309  1.8828 -0.0142
   48ETHOX   C235236   8.325   7.350  12.126  0.4593 -0.1291  0.0502
   48ETHOX  H2135237   8.319   7.285  12.037 -0.5334  2.0131 -1.5555
   48ETHOX  H2335238   8.252   7.430  12.100  1.3174  0.2244 -1.3472
   49ETHOX   O135239   8.449   7.407  12.155 -0.4862  0.6693 -0.3666
   49ETHOX   C135240   8.533   7.419  12.039  0.1468  0.0986 -0.0285
   49ETHOX  H1135241   8.527   7.328  11.975 -1.5553  0.8492 -1.0164
   49ETHOX  H1335242   8.638   7.396  12.069 -0.5006 -2.2231  0.7358
   49ETHOX   C235243   8.525   7.555  11.955 -0.0298  0.0198  0.0238
   49ETHOX  H2135244   8.422   7.550  11.913  0.3367  0.5466 -0.9736
   49ETHOX  H2335245   8.588   7.552  11.864  0.5567  0.3990  0.4120
   50ETHOX   O135246   8.556   7.670  12.037  0.1179  0.2060  0.4148
   50ETHOX   C135247   8.446   7.713  12.119  0.3158  0.4946  0.1641
   50ETHOX  H1135248   8.363   7.741  12.050  2.5777  1.8453 -2.1935
   50ETHOX  H1335249   8.405   7.627  12.176  2.5145 -0.5058  0.3216
   50ETHOX   C235250   8.473   7.828  12.214 -0.5647  0.0359  0.0559
   50ETHOX  H2135251   8.555   7.794  12.281  1.0857  2.1092 -0.8017
   50ETHOX  H2335252   8.387   7.856  12.278  0.4477  1.9694  0.6674
   51ETHOX   O135253   8.517   7.940  12.139 -0.1555 -0.1610  0.1007
   51ETHOX   C135254   8.615   8.020  12.215  1.0345 -1.0403  0.0269
   51ETHOX  H1135255   8.711   7.966  12.230  1.0012 -0.6872  1.6567
   51ETHOX  H1335256   8.577   8.045  12.316  1.2339  0.7904 -0.3245
   51ETHOX   C235257   8.637   8.167  12.151  0.6942  0.0822  0.3753
   51ETHOX  H2135258   8.695   8.227  12.224 -0.1502 -0.1876  1.2887
   51ETHOX  H2335259   8.541   8.223  12.153 -0.7879 -2.2664  1.7169
   52ETHOX   O135260   8.701   8.166  12.023 -0.0352  0.2323 -0.0509
   52ETHOX   C135261   8.724   8.290  11.961  0.6029 -0.5074 -0.0862
   52ETHOX  H1135262   8.628   8.332  11.922  0.2462 -0.0911  1.2042
   52ETHOX  H1335263   8.764   8.355  12.041  2.0125 -0.7483 -0.5725
   52ETHOX   C235264   8.826   8.280  11.845 -0.0780 -0.5792  0.3670
   52ETHOX  H2135265   8.907   8.205  11.857  3.4419  3.0635  1.8101
   52ETHOX  H2335266   8.880   8.377  11.847 -0.7893 -0.1358 -1.1182
   53ETHOX   O135267   8.752   8.269  11.714 -0.5366  0.4360 -0.4988
   53ETHOX   C135268   8.835   8.272  11.604  0.0779 -0.5629  0.1594
   53ETHOX  H1135269   8.894   8.366  11.596 -1.3078  0.3976  0.8119
   53ETHOX  H1335270   8.900   8.182  11.601  0.7974 -0.0484  0.0596
   53ETHOX   C235271   8.747   8.269  11.473 -0.7020  0.1642  0.1376
   53ETHOX  H2135272   8.664   8.342  11.466  0.7052  1.7359 -1.1377
   53ETHOX  H2335273   8.719   8.163  11.455  1.1390 -0.2105 -0.7789
   54ETHOX   O135274   8.830   8.301  11.363 -0.8899 -0.5545 -0.2939
   54ETHOX   C135275   8.750   8.302  11.247 -0.8026 -0.2450 -0.1570
   54ETHOX  H1135276   8.642   8.312  11.269 -0.8223 -0.6153 -0.0694
   54ETHOX  H1335277   8.778   8.389  11.185 -1.6465  0.8767  0.9815
   54ETHOX   C235278   8.775   8.166  11.178  0.0012  0.0731 -0.3361
   54ETHOX  H2135279   8.686   8.139  11.118 -0.1354 -1.1831  0.3968
   54ETHOX  H2335280   8.792   8.095  11.262 -1.2851 -0.4692 -0.5199
   55ETHOX   O135281   8.899   8.159  11.108 -0.7962  0.4038 -0.2680
   55ETHOX   C135282   8.888   8.112  10.969  1.0024  0.7143 -0.3268
   55ETHOX  H1135283   8.855   8.006  10.971  0.3222  0.8930 -1.3821
   55ETHOX  H1335284   8.813   8.168  10.909 -0.6572 -1.4191 -0.3617
   55ETHOX   C235285   9.029   8.118  10.905  0.3289  0.2218  1.0315
   55ETHOX  H2135286   9.101   8.073  10.977  1.5538  1.5465  0.6749
   55ETHOX  H2335287   9.020   8.076  10.803  1.0772 -2.3237  1.9395
   56ETHOX   O135288   9.072   8.256  10.897  0.0872  0.1217  0.3202
   56ETHOX   C135289   9.199   8.275  10.837  0.4689  0.6673 -0.0302
   56ETHOX  H1135290   9.208   8.244  10.731 -3.5097 -0.8639 -0.1099
   56ETHOX  H1335291   9.279   8.214  10.883  0.6676 -0.5422 -1.8684
   56ETHOX   C235292   9.236   8.424  10.837 -0.0978  0.2188 -0.2367
   56ETHOX  H2135293   9.345   8.444  10.825 -0.1610 -0.4437 -2.2109
   56ETHOX  H2335294   9.207   8.467  10.935 -1.2014  1.3944 -1.0412
   57ETHOX   O135295   9.154   8.503  10.748  0.4922 -0.1630 -0.3810
   57ETHOX   C135296   9.196   8.642  10.743 -0.5192  0.4779  0.1109
   57ETHOX  H1135297   9.213   8.681  10.846  1.0244  1.0623 -0.3452
   57ETHOX  H1335298   9.296   8.634  10.695 -0.5795  0.2814  0.0141
   57ETHOX   C235299   9.098   8.715  10.657  0.2438  0.3421  0.6035
   57ETHOX  H2135300   9.121   8.823  10.648 -0.5208  0.3888 -1.7594
   57ETHOX  H2335301   8.999   8.708  10.707  0.3116 -0.9259  0.6003
   58ETHOX   O135302   9.083   8.671  10.528  0.0484 -0.5071  0.3802
   58ETHOX   C135303   9.191   8.723  10.449 -0.3271  0.3234 -0.2744
   58ETHOX  H1135304   9.288   8.680  10.483 -0.1368  1.7955  1.1479
   58ETHOX  H1335305   9.196   8.834  10.444 -0.0403  0.3433  0.4103
   58ETHOX   C235306   9.155   8.672  10.311  0.0477 -0.3336  0.1389
   58ETHOX  H2135307   9.125   8.565  10.312  0.2548 -0.3902  0.9607
   58ETHOX  H2335308   9.247   8.687  10.251 -0.9458 -0.7552 -1.5602
   59ETHOX   O135309   9.048   8.746  10.253 -0.1466  0.2536 -0.0127
   59ETHOX   C135310   9.026   8.690  10.119 -0.9712  0.6069  0.0083
   59ETHOX  H1135311   9.080   8.751  10.043 -1.8762  0.5278 -0.7272
   59ETHOX  H1335312   9.067   8.587  10.111  2.1111  1.8690 -2.8511
   59ETHOX   C235313   8.879   8.700  10.072 -0.8296  0.3483 -0.0921
   59ETHOX  H2135314   8.810   8.700  10.159  2.1438  0.0915  2.4102
   59ETHOX  H2335315   8.862   8.611  10.007  1.6719 -0.4496  0.2664
   60ETHOX   O135316   8.856   8.821   9.996  0.4342 -0.2770  0.3409
   60ETHOX   C135317   8.738   8.820   9.912 -0.5573 -0.4412 -0.2513
   60ETHOX  H1135318   8.653   8.781   9.972  0.3440  0.1676  1.4862
   60ETHOX  H1335319   8.750   8.752   9.825  1.9806 -0.5253  0.0753
   60ETHOX   C235320   8.715   8.956   9.851 -0.1385  0.4563  0.6290
   60ETHOX  H2135321   8.759   9.038   9.913  1.1607  1.3307 -1.3198
   60ETHOX  H2335322   8.605   8.961   9.844 -0.1772 -1.7610 -2.0197
   61ETHOX   O135323   8.776   8.970   9.721 -0.0907  0.5936 -0.3965
   61ETHOX   C135324   8.720   9.073   9.641 -0.6559 -0.0349 -0.1418
   61ETHOX  H1135325   8.611   9.093   9.636 -0.4988  0.6030 -1.5221
   61ETHOX  H1335326   8.769   9.170   9.663 -0.3767  0.2723 -1.9708
   61ETHOX   C235327   8.752   9.038   9.497  0.0592 -0.0088 -0.1874
   61ETHOX  H2135328   8.692   9.105   9.432  1.4573  1.3999 -0.0808
   61ETHOX  H2335329   8.731   8.931   9.475  2.1821 -0.6620  0.7107
   62ETHOX   O135330   8.893   9.063   9.478  0.3643  0.2914 -0.1905
   62ETHOX   C135331   8.922   9.065   9.339 -0.2677 -0.3858  0.6556
   62ETHOX  H1135332   8.867   9.141   9.280  0.4710 -0.8047 -0.6147
   62ETHOX  H1335333   8.904   8.962   9.302  1.6118  0.2291 -2.2960
   62ETHOX   C235334   9.066   9.103   9.319 -0.2225  0.0354  0.2456
   62ETHOX  H2135335   9.095   9.174   9.400 -1.0857  1.8682 -0.9868
   62ETHOX  H2335336   9.078   9.169   9.231 -3.6587  2.5461  1.4217
   63ETHOX   O135337   9.162   8.993   9.301  0.4139  0.0633  0.3469
   63ETHOX   C135338   9.296   9.031   9.330  0.1193  0.1523  0.3367
   63ETHOX  H1135339   9.334   9.071   9.233 -2.3353  0.3013 -0.6389
   63ETHOX  H1335340   9.304   9.095   9.420  1.5211  0.2156  0.1928
   63ETHOX   C235341   9.374   8.897   9.360  0.0428 -0.0821 -0.4248
   63ETHOX  H2135342   9.362   8.835   9.269  0.4766  2.0540 -2.0371
   63ETHOX  H2335343   9.334   8.834   9.442  0.7051 -1.3608 -1.0561
   64ETHOX   O135344   9.512   8.924   9.384 -0.1310  0.0110 -0.5954
   64ETHOX   C135345   9.587   8.914   9.267  0.4148 -0.9379  0.5882
   64ETHOX  H1135346   9.554   8.976   9.181  1.5087  1.0332  1.4949
   64ETHOX  H1335347   9.582   8.806   9.243 -0.1631 -0.9949  0.9336
   64ETHOX   C235348   9.734   8.950   9.304  0.3160  0.6919  0.4307
   64ETHOX  H2135349   9.811   8.916   9.231 -0.1581  0.2537  0.1345
   64ETHOX  H2335350   9.753   8.914   9.408 -3.6193 -2.0392  0.4199
   65ETHOX   O135351   9.739   9.093   9.296  0.0484  0.5682  0.5178
   65ETHOX   C135352   9.867   9.144   9.343  0.3752 -0.5003  0.1942
   65ETHOX  H1135353   9.881   9.136   9.453 -0.9696 -0.7389  0.3580
   65ETHOX  H1335354   9.945   9.083   9.292  0.1873  0.9215 -1.8952
   65ETHOX   C235355   9.895   9.288   9.303  0.2805  0.5652  0.2819
   65ETHOX  H2135356   9.868   9.316   9.199  1.8356 -0.7694 -0.5297
   65ETHOX  H2335357  10.004   9.310   9.311  0.8339 -1.1118 -1.6448
   66ETHOX   O135358   9.816   9.371   9.381 -0.5041 -0.1144  0.1606
   66ETHOX   C135359   9.841   9.513   9.361 -0.0621 -0.0145 -0.0206
   66ETHOX  H1135360   9.794   9.536   9.263 -1.9012 -3.9815 -0.2838
   66ETHOX  H1335361   9.949   9.526   9.342 -0.4192  0.3641 -2.0425
   66ETHOX   C235362   9.786   9.580   9.483  0.2430 -0.2218 -0.0804
   66ETHOX  H2135363   9.680   9.551   9.491  0.6690 -1.4128  1.7526
   66ETHOX  H2335364   9.790   9.691   9.476  0.6456  0.0879  3.2880
   67ETHOX   O135365   9.847   9.537   9.603  0.1748 -0.1702 -0.0208
   67ETHOX   C135366   9.772   9.585   9.718  0.4002 -0.1546 -0.4309
   67ETHOX  H1135367   9.762   9.696   9.716  0.4270 -0.1588 -0.9255
   67ETHOX  H1335368   9.670   9.541   9.712 -0.1739  1.3314 -2.6050
   67ETHOX   C235369   9.839   9.558   9.855  0.6803  0.1826  0.2605
   67ETHOX  H2135370   9.789   9.608   9.941 -1.6628 -1.6477  0.0479
   67ETHOX  H2335371   9.942   9.599   9.856  0.9604 -0.4947 -0.0860
   68ETHOX   O135372   9.834   9.420   9.886 -0.2898 -0.2417 -0.0818
   68ETHOX   C135373   9.942   9.382   9.977  0.0979 -0.2695 -0.3103
   68ETHOX  H1135374   9.958   9.469  10.044 -3.6633  2.1015 -2.0981
   68ETHOX  H1335375   9.903   9.303  10.045 -0.7892  1.2270  0.9910
   68ETHOX   C235376  10.069   9.337   9.900 -0.5242  1.4527  0.2855
   68ETHOX  H2135377  10.142   9.303   9.977 -0.5729 -1.1105 -0.7024
   68ETHOX  H2335378  10.116   9.421   9.844  2.3519 -1.8871 -2.7913
   69ETHOX   O135379  10.056   9.211   9.830 -0.1489  0.3784  0.1826
   69ETHOX   C135380  10.178   9.165   9.774  0.6335  0.2335 -0.3655
   69ETHOX  H1135381  10.236   9.252   9.736  0.8007  0.5336  0.5426
   69ETHOX  H1335382  10.236   9.110   9.851 -0.5917 -0.3110  0.1996
   69ETHOX   C235383  10.137   9.071   9.657 -0.0125  0.2695  0.1464
   69ETHOX  H2135384  10.235   9.058   9.607  0.1720  0.3739  0.4787
   69ETHOX  H2335385  10.063   9.117   9.588 -0.0699 -1.7607 -1.2398
   70ETHOX   O135386  10.100   8.937   9.697  0.6657 -0.4535 -0.3756
   70ETHOX   C135387  10.057   8.860   9.593  0.6777  0.2750  0.1763
   70ETHOX  H1135388   9.949   8.882   9.574  0.2755 -0.9763  0.8261
   70ETHOX  H1335389  10.112   8.890   9.502 -0.2609 -1.0386 -0.8701
   70ETHOX   C235390  10.072   8.706   9.628 -0.3512  0.0102 -0.0425
   70ETHOX  H2135391  10.157   8.689   9.697 -2.0693 -1.5997  1.8050
   70ETHOX  H2335392  10.088   8.645   9.536 -2.6752  1.3082 -1.4118
   71ETHOX   O135393   9.947   8.676   9.688  0.3500 -0.0715  0.6974
   71ETHOX   C135394   9.945   8.564   9.778  0.3549  0.1620  0.3754
   71ETHOX  H1135395   9.837   8.545   9.797  0.3508 -0.5627 -0.3488
   71ETHOX  H1335396  10.010   8.595   9.863  3.2389  1.5564 -2.1655
   71ETHOX   C235397   9.992   8.440   9.703  0.0502  0.3828 -0.1486
   71ETHOX  H2135398   9.956   8.450   9.598  0.3053  2.8284 -0.0475
   71ETHOX  H2335399   9.950   8.352   9.756  4.2221 -1.9621 -0.2731
   72ETHOX   O135400  10.137   8.430   9.711 -0.4246 -0.6182  0.4569
   72ETHOX   C135401  10.173   8.313   9.637 -0.4907  0.4406  0.2976
   72ETHOX  H1135402  10.162   8.214   9.688  0.0258 -1.6496 -3.2764
   72ETHOX  H1335403  10.110   8.304   9.546  1.1029  1.8280 -0.9929
   72ETHOX   C235404  10.320   8.322   9.590 -0.1322  0.0315  0.4736
   72ETHOX  H2135405  10.345   8.424   9.555 -1.8264  1.7033  3.6586
   72ETHOX  H2335406  10.333   8.255   9.503  1.6191 -1.4207  1.7740
   73ETHOX   O135407  10.401   8.284   9.700  0.4140  0.5314 -0.4014
   73ETHOX   C135408  10.490   8.177   9.664  0.3873  0.2825  0.4059
   73ETHOX  H1135409  10.563   8.222   9.594  3.2428 -2.8750  1.0915
   73ETHOX  H1335410  10.433   8.095   9.615 -0.0948  0.3683  0.8041
   73ETHOX   C235411  10.548   8.129   9.796 -0.1334  0.0482 -0.0460
   73ETHOX  H2135412  10.617   8.043   9.784 -0.0274  0.0210  0.7426
   73ETHOX  H2335413  10.469   8.101   9.869  0.6317 -0.0429  0.7679
   74ETHOX   O135414  10.627   8.234   9.847  0.0506  0.1288  0.8052
   74ETHOX   C135415  10.665   8.206   9.982 -0.2382 -0.7600 -0.6927
   74ETHOX  H1135416  10.573   8.176  10.035 -0.1427 -0.0137 -0.0975
   74ETHOX  H1335417  10.731   8.116   9.985  0.5837 -0.1686 -0.7960
   74ETHOX   C235418  10.720   8.329  10.056  0.2065  0.6141  0.5169
   74ETHOX  H2135419  10.738   8.307  10.164  1.9480  1.1125  0.3617
   74ETHOX  H2335420  10.659   8.420  10.044  1.6624  1.4624 -0.8740
   75ETHOX   O135421  10.844   8.359  10.002  0.0846 -0.0033 -0.1517
   75ETHOX   C135422  10.920   8.459  10.072  0.5190  0.4627  0.0368
   75ETHOX  H1135423  10.922   8.418  10.175 -1.1830  0.5131  0.1048
   75ETHOX  H1335424  10.871   8.559  10.067 -3.0206 -1.0973  0.7026
   75ETHOX   C235425  11.074   8.457  10.041 -0.4484  0.7791 -0.0262
   75ETHOX  H2135426  11.103   8.356  10.006  2.5844  1.6348 -0.3317
   75ETHOX  H2335427  11.139   8.496  10.123 -0.0546 -1.9399  1.0473
   76ETHOX   O135428  11.101   8.533   9.920  0.0678 -0.4745 -0.2322
   76ETHOX   C135429  11.235   8.504   9.872  0.3764  0.6481 -0.3442
   76ETHOX  H1135430  11.300   8.574   9.928 -0.9790  2.5370 -1.0139
   76ETHOX  H1335431  11.263   8.404   9.911 -1.2682  1.0094  1.9299
   76ETHOX   C235432  11.248   8.521   9.722  0.7241  0.8200 -0.8130
   76ETHOX  H2135433  11.355   8.520   9.694  0.1624 -1.5614 -3.3970
   76ETHOX  H2335434  11.208   8.621   9.696  2.0106  1.2255 -1.3146
   77ETHOX   O135435  11.186   8.415   9.654 -0.0913 -0.4253 -0.3783
   77ETHOX   C135436  11.202   8.426   9.511 -0.1640 -0.1750  0.2741
   77ETHOX  H1135437  11.307   8.402   9.484 -0.1988 -1.7233  1.3916
   77ETHOX  H1335438  11.177   8.530   9.481  0.9553  0.0314  0.0021
   77ETHOX   C235439  11.103   8.326   9.449 -0.4939 -0.4419 -0.6917
   77ETHOX  H2135440  11.021   8.329   9.523 -0.2356 -1.1939 -0.3631
   77ETHOX  H2335441  11.157   8.230   9.437 -1.2735 -0.9387 -0.2641
   78ETHOX   O135442  11.048   8.370   9.322 -0.3414 -0.5394 -0.3309
   78ETHOX   C135443  10.970   8.277   9.253  0.9954 -0.3912  0.0600
   78ETHOX  H1135444  10.980   8.317   9.150  0.1229 -1.2110 -0.3606
   78ETHOX  H1335445  11.012   8.174   9.253  2.5988  0.2160 -1.1722
   78ETHOX   C235446  10.814   8.269   9.279 -0.4545  0.2516  0.4103
   78ETHOX  H2135447  10.788   8.252   9.386 -2.1750  2.2497  0.3490
   78ETHOX  H2335448  10.773   8.178   9.230 -0.7442  0.9697 -0.7077
   79ETHOX   O135449  10.743   8.388   9.246 -0.4697 -0.0064  0.2443
   79ETHOX   C135450  10.599   8.376   9.256 -0.2285  0.9337  0.4334
   79ETHOX  H1135451  10.567   8.291   9.191  1.5627 -0.0063  0.6934
   79ETHOX  H1335452  10.564   8.359   9.360 -1.9102  0.9547 -0.1026
   79ETHOX   C235453  10.514   8.493   9.207 -0.0666  0.0075 -0.3555
   79ETHOX  H2135454  10.549   8.591   9.245 -2.2921  1.3839 -1.5790
   79ETHOX  H2335455  10.417   8.477   9.259  0.2829 -0.1839  0.2465
   80ETHOX   O135456  10.496   8.489   9.068 -0.4006  0.3385 -0.1776
   80ETHOX   C135457  10.434   8.599   9.009 -0.0173  0.3235  0.6722
   80ETHOX  H1135458  10.334   8.616   9.055 -0.5950 -0.6259 -0.1828
   80ETHOX  H1335459  10.495   8.691   9.016 -0.7219  1.0078 -1.4718
   80ETHOX   C235460  10.418   8.584   8.858 -0.5049  0.6198  0.3635
   80ETHOX  H2135461  10.353   8.668   8.827 -2.6804 -1.1207 -0.0584
   80ETHOX  H2335462  10.368   8.489   8.831 -0.6634  0.5382  0.9304
   81ETHOX   O135463  10.540   8.602   8.785  0.0454 -0.3491 -0.6179
   81ETHOX   C135464  10.515   8.632   8.646 -0.1686  0.8225 -0.2703
   81ETHOX  H1135465  10.409   8.605   8.627 -0.4455 -0.8400  3.0281
   81ETHOX  H1335466  10.524   8.743   8.648 -0.0114  0.8188  2.5300
   81ETHOX   C235467  10.606   8.556   8.551 -0.8301 -0.2199  0.1793
   81ETHOX  H2135468  10.613   8.602   8.450  3.4835  1.1813  0.8884
   81ETHOX  H2335469  10.711   8.555   8.589 -0.4759  1.1769 -0.7107
   82ETHOX   O135470  10.571   8.420   8.524  0.1460  0.2456  0.7928
   82ETHOX   C135471  10.662   8.354   8.440 -0.8149  0.3283 -0.2032
   82ETHOX  H1135472  10.763   8.354   8.485  0.6539  0.0997 -3.2408
   82ETHOX  H1335473  10.678   8.404   8.342  1.3644  1.5060  0.6862
   82ETHOX   C235474  10.626   8.211   8.423 -0.2758 -0.2419  1.0233
   82ETHOX  H2135475  10.592   8.167   8.519  1.6894 -1.1910  1.3329
   82ETHOX  H2335476  10.706   8.141   8.391 -0.3213 -0.1801  0.7751
   83ETHOX   O135477  10.520   8.204   8.327  0.1488 -0.3626  0.0573
   83ETHOX   C135478  10.459   8.079   8.305 -0.5660  0.1715 -0.1883
   83ETHOX  H1135479  10.533   8.010   8.261  0.7174  0.6698  1.0849
   83ETHOX  H1335480  10.433   8.031   8.402 -1.6196  2.0612  0.5218
   83ETHOX   C235481  10.330   8.079   8.222  0.4902 -0.1927  0.3165
   83ETHOX  H2135482  10.302   7.975   8.200 -1.1516  0.4866 -0.9794
   83ETHOX  H2335483  10.359   8.129   8.127  1.1016 -0.9230  0.1085
   84ETHOX   O135484  10.223   8.147   8.285  0.4888 -0.3833 -0.3462
   84ETHOX   C135485  10.230   8.291   8.258 -0.7285  0.7126 -0.0830
   84ETHOX  H1135486  10.203   8.304   8.151 -0.5629 -1.3253 -0.4163
   84ETHOX  H1335487  10.332   8.315   8.293 -0.7010 -0.4853  0.7103
   84ETHOX   C235488  10.118   8.344   8.346  0.1916 -0.0890 -0.0170
   84ETHOX  H2135489  10.118   8.455   8.351  1.1654 -0.1415  2.7571
   84ETHOX  H2335490  10.119   8.305   8.450 -2.0336 -0.0287  0.0853
   85ETHOX   O135491   9.995   8.307   8.289 -0.0520  0.4500 -0.1784
   85ETHOX   C135492   9.886   8.352   8.362 -0.0769 -0.0475  0.2228
   85ETHOX  H1135493   9.860   8.262   8.423  1.0533 -0.1504  0.5762
   85ETHOX  H1335494   9.903   8.439   8.429 -0.3219  0.1904 -0.0235
   85ETHOX   C235495   9.773   8.380   8.270  0.1876 -0.1976  0.6131
   85ETHOX  H2135496   9.809   8.455   8.196 -0.4402 -1.3950 -0.9620
   85ETHOX  H2335497   9.695   8.433   8.328  1.2485 -0.3568  2.2460
   86ETHOX   O135498   9.720   8.261   8.210  0.2817 -0.6015  0.0045
   86ETHOX   C135499   9.604   8.301   8.132  0.4171  0.2436  0.6570
   86ETHOX  H1135500   9.594   8.408   8.103 -3.4861 -0.2003 -0.1376
   86ETHOX  H1335501   9.517   8.294   8.201  0.1140  4.5986  1.0209
   86ETHOX   C235502   9.580   8.200   8.015  0.6437 -0.2263  0.6060
   86ETHOX  H2135503   9.481   8.215   7.967  1.4780  0.1524 -1.0758
   86ETHOX  H2335504   9.592   8.095   8.051 -0.9857 -0.9747 -0.8793
   87ETHOX   O135505   9.683   8.226   7.918 -0.3651  0.7970 -0.2093
   87ETHOX   C135506   9.677   8.134   7.813  0.1037  0.0328  0.3671
   87ETHOX  H1135507   9.707   8.031   7.842  1.2299  0.6556  1.4839
   87ETHOX  H1335508   9.579   8.136   7.759  0.8452 -1.0983 -1.0965
   87ETHOX   C235509   9.778   8.168   7.707  0.3436  0.7146  0.6674
   87ETHOX  H2135510   9.737   8.266   7.674  1.0036  0.7394 -0.1105
   87ETHOX  H2335511   9.772   8.100   7.619 -2.0810  0.9868  0.5660
   88ETHOX   O135512   9.914   8.182   7.756 -0.1396 -0.0734  0.4929
   88ETHOX   C135513   9.999   8.069   7.730  0.1151  0.2654  0.1667
   88ETHOX  H1135514  10.010   8.043   7.623  1.9665 -0.9768  0.6170
   88ETHOX  H1335515   9.946   7.986   7.783  1.1282  1.9000  4.1719
   88ETHOX   C235516  10.129   8.077   7.810  0.1162  0.6241 -0.2142
   88ETHOX  H2135517  10.174   7.979   7.785 -1.3395  0.1794 -1.2199
   88ETHOX  H2335518  10.105   8.095   7.917  0.5552  0.8482 -0.1534
   89ETHOX   O135519  10.200   8.182   7.753  0.1110 -0.0257  0.3043
   89ETHOX   C135520  10.334   8.176   7.795 -0.5120 -0.2256 -0.3212
   89ETHOX  H1135521  10.332   8.162   7.905 -0.2077  1.6378 -0.0481
   89ETHOX  H1335522  10.379   8.085   7.749 -0.4529  0.5518 -1.8736
   89ETHOX   C235523  10.413   8.293   7.750  0.2864 -0.5064  0.5022
   89ETHOX  H2135524  10.385   8.321   7.646  2.4551 -2.0223 -0.5861
   89ETHOX  H2335525  10.518   8.259   7.736 -0.1296 -1.1559 -1.3187
   90ETHOX   O135526  10.407   8.415   7.818 -0.0528 -0.3043 -0.5849
   90ETHOX   C135527  10.495   8.408   7.935 -0.1064  0.1367  0.8912
   90ETHOX  H1135528  10.462   8.327   8.004  1.3850  0.8633  2.5560
   90ETHOX  H1335529  10.594   8.387   7.889 -1.0043 -0.4973 -0.8215
   90ETHOX   C235530  10.510   8.540   8.001 -0.3817  0.3320  0.0256
   90ETHOX  H2135531  10.535   8.616   7.924 -0.2406 -0.7331 -1.0063
   90ETHOX  H2335532  10.597   8.528   8.069 -0.5694 -1.3712 -0.0155
   91ETHOX   O135533  10.387   8.568   8.075 -0.2552 -0.0972 -0.2032
   91ETHOX   C135534  10.417   8.618   8.207 -0.1388  0.2463 -0.5965
   91ETHOX  H1135535  10.430   8.534   8.278 -0.7050 -1.6672 -2.6528
   91ETHOX  H1335536  10.514   8.673   8.208  0.8920 -1.4248  1.8382
   91ETHOX   C235537  10.316   8.709   8.257  0.5391  0.2623  0.5553
   91ETHOX  H2135538  10.220   8.653   8.264  0.9656 -0.5664 -0.1000
   91ETHOX  H2335539  10.305   8.796   8.189  0.6555  0.8468  1.2671
   92ETHOX   O135540  10.341   8.757   8.386  0.3201  0.5883  0.4716
   92ETHOX   C135541  10.242   8.858   8.427  0.4555 -0.3183  0.1837
   92ETHOX  H1135542  10.247   8.938   8.350  0.4741  0.4055  0.9280
   92ETHOX  H1335543  10.145   8.805   8.423  0.8462 -1.1144  1.0742
   92ETHOX   C235544  10.273   8.920   8.567  0.3791  0.1975 -0.0905
   92ETHOX  H2135545  10.322   8.845   8.633 -1.1541  0.4440  1.4025
   92ETHOX  H2335546  10.172   8.945   8.607  0.2155  0.0665 -0.4207
   93ETHOX   O135547  10.343   9.042   8.544 -0.1188  0.6297 -0.6696
   93ETHOX   C135548  10.393   9.084   8.669 -0.6967  0.3624  1.1795
   93ETHOX  H1135549  10.446   9.002   8.721 -1.9204 -0.5395  1.0376
   93ETHOX  H1335550  10.302   9.104   8.730 -2.1168 -1.2672 -0.2872
   93ETHOX   C235551  10.500   9.195   8.657  0.3776  0.3580 -0.0767
   93ETHOX  H2135552  10.536   9.220   8.760  1.4247 -0.0819 -0.3253
   93ETHOX  H2335553  10.446   9.284   8.618 -0.8887 -0.9868 -1.4915
   94ETHOX   O135554  10.614   9.155   8.577 -0.4288  0.5996 -0.0664
   94ETHOX   C135555  10.725   9.245   8.592 -0.3081 -0.1647  0.7690
   94ETHOX  H1135556  10.699   9.331   8.525 -1.2546 -0.5565  0.6165
   94ETHOX  H1335557  10.723   9.292   8.693  0.1677 -0.6653  1.0126
   94ETHOX   C235558  10.867   9.189   8.560 -0.1745  1.0579  0.8607
   94ETHOX  H2135559  10.943   9.269   8.548  0.0208  0.6525 -0.8724
   94ETHOX  H2335560  10.857   9.127   8.469  0.9563  2.1780 -0.0473
   95ETHOX   O135561  10.886   9.114   8.676  0.6649  0.3336  0.7881
   95ETHOX   C135562  10.857   8.976   8.651  0.4319 -0.6563 -0.7682
   95ETHOX  H1135563  10.937   8.930   8.589  0.2362  1.0820 -2.4201
   95ETHOX  H1335564  10.760   8.965   8.597  0.9256 -1.7780 -1.4722
   95ETHOX   C235565  10.842   8.910   8.792 -0.3994 -0.0230  0.0355
   95ETHOX  H2135566  10.946   8.901   8.828  0.4826  1.1351 -2.0495
   95ETHOX  H2335567  10.817   8.804   8.775  1.2329 -0.6501  1.2687
   96ETHOX   O135568  10.761   8.974   8.891  0.2961 -0.2960 -0.4782
   96ETHOX   C135569  10.723   8.880   8.991 -0.2655 -0.5750  0.5653
   96ETHOX  H1135570  10.661   8.793   8.960 -0.1393 -1.7111  3.1994
   96ETHOX  H1335571  10.813   8.841   9.044 -0.3806 -1.3736  0.1822
   96ETHOX   C235572  10.625   8.956   9.085 -0.0227 -0.8704 -0.5729
   96ETHOX  H2135573  10.579   8.881   9.154  0.1800 -1.2012 -0.7957
   96ETHOX  H2335574  10.549   9.014   9.029  1.4558  0.2775 -1.4434
   97ETHOX   O135575  10.689   9.052   9.174  0.2000  0.3357 -0.2989
   97ETHOX   C135576  10.757   8.985   9.282 -0.2126  0.1991 -0.2226
   97ETHOX  H1135577  10.853   8.938   9.251 -0.2362 -1.0207  1.4521
   97ETHOX  H1335578  10.698   8.909   9.337  0.5120 -0.5567 -0.4654
   97ETHOX   C235579  10.794   9.087   9.395  0.8285 -0.4847  0.2478
   97ETHOX  H2135580  10.854   9.171   9.354 -1.3557  0.1888 -1.8481
   97ETHOX  H2335581  10.852   9.028   9.469  0.0708  0.1763  1.4062
   98ETHOX   O135582  10.672   9.142   9.456 -0.2334 -0.2468  0.3825
   98ETHOX   C135583  10.693   9.223   9.577  0.0581  0.7737  0.5487
   98ETHOX  H1135584  10.598   9.224   9.635  0.3084 -2.5365  1.2114
   98ETHOX  H1335585  10.763   9.166   9.641 -1.3167 -1.0498  0.5359
   98ETHOX   C235586  10.753   9.360   9.550  0.3081 -0.5443  0.4073
   98ETHOX  H2135587  10.712   9.408   9.458  0.5754  0.9899  1.0549
   98ETHOX  H2335588  10.861   9.340   9.534  0.3677  1.2645 -2.2375
   99ETHOX   O135589  10.730   9.452   9.657 -0.1682 -0.3157  0.0718
   99ETHOX   C135590  10.787   9.577   9.638 -0.2614 -0.0654 -0.2267
   99ETHOX  H1135591  10.739   9.628   9.552 -0.6811 -2.3921 -1.4558
   99ETHOX  H1335592  10.896   9.567   9.619  0.1762 -0.6314  2.2707
   99ETHOX   C235593  10.790   9.664   9.757  0.5401 -0.1517 -0.8345
   99ETHOX  H2135594  10.869   9.741   9.746 -1.7866  2.4684 -0.5563
   99ETHOX  H2335595  10.807   9.598   9.845 -0.8778  1.3884  0.6985
  100ETHOX   O135596  10.667   9.736   9.775  0.1753 -0.1954 -0.3858
  100ETHOX   C135597  10.671   9.824   9.886 -0.5962  0.5468  0.4161
  100ETHOX  H1135598  10.564   9.853   9.899 -0.6355 -0.3638  2.3987
  100ETHOX  H1335599  10.717   9.788   9.980  2.6729  2.9024 -0.1374
  100ETHOX   C235600  10.745   9.963   9.854 -0.6141 -0.2841  0.2568
  100ETHOX  H2135601  10.849   9.942   9.821 -1.3882 -0.8480 -1.9876
  100ETHOX  H2335602  10.758  10.036   9.937  0.1002  0.1058 -0.1898
  101PROXS   O135603  10.676  10.047   9.763  0.1945  0.0437 -0.1709
  101PROXS   C135604  10.663   9.989   9.631 -0.2222 -0.1486  0.0082
  101PROXS  H1135605  10.755   9.934   9.602  0.1043 -0.5058  1.6029
  101PROXS  H1335606  10.577   9.921   9.615 -1.2726  1.0216  0.5458
  101PROXS   C235607  10.666  10.106   9.524  0.2759 -0.3694  0.2456
  101PROXS  H2135608  10.774  10.118   9.501 -0.2276  0.3811 -1.9707
  101PROXS   C335609  10.609  10.237   9.582 -0.7435 -0.3974  0.9094
  101PROXS  H3135610  10.525  10.227   9.654 -0.0769  1.3921  1.9848
  101PROXS  H3235611  10.690  10.264   9.654  0.4572  0.4311 -0.6942
  101PROXS  H3335612  10.599  10.323   9.513  0.1256 -2.0797 -1.4267
  102PROXS   O135613  10.598  10.072   9.409 -0.0094 -0.2137  0.1897
  102PROXS   C135614  10.670   9.986   9.323 -0.1832  0.2136  0.3800
  102PROXS  H1135615  10.769  10.030   9.300 -1.7919  4.3648  0.4615
  102PROXS  H1335616  10.696   9.895   9.380 -0.6644  0.6999  1.3978
  102PROXS   C235617  10.590   9.943   9.194 -1.0205  0.5637  0.1303
  102PROXS  H2135618  10.487   9.921   9.230 -0.3510 -3.3327  0.1242
  102PROXS   C335619  10.647   9.809   9.134  0.1278 -0.1446  0.4105
  102PROXS  H3135620  10.746   9.786   9.177 -0.3235 -1.2166  0.9140
  102PROXS  H3235621  10.577   9.723   9.144  2.4095 -1.8888  2.4792
  102PROXS  H3335622  10.676   9.818   9.027  2.4449 -0.8151  0.9449
  103PROXR   O135623  10.601  10.040   9.094  0.3310 -0.4635  0.8106
  103PROXR   C135624  10.496  10.032   8.995 -0.3907  0.0324 -0.0401
  103PROXR  H1135625  10.539  10.042   8.893  2.0661  1.1627  1.0158
  103PROXR  H1335626  10.457   9.928   8.990 -1.0177  0.2596 -0.0317
  103PROXR   C235627  10.391  10.141   9.017 -0.5890 -0.8373 -0.5457
  103PROXR  H2135628  10.344  10.117   9.115  1.3065  1.3881  1.0287
  103PROXR   C335629  10.301  10.158   8.904 -0.5785  0.7471 -0.0536
  103PROXR  H3135630  10.346  10.195   8.809 -1.7513  1.2026 -0.4516
  103PROXR  H3235631  10.260  10.056   8.884 -0.4350 -0.0211  3.0822
  103PROXR  H3335632  10.225  10.234   8.930  0.5241  1.0887  2.3801
  104PROXS   O135633  10.446  10.271   9.031 -0.2308  0.1017  0.0562
  104PROXS   C135634  10.463  10.301   9.169  0.1252 -0.1368 -0.5488
  104PROXS  H1135635  10.357  10.306   9.204 -0.8254  1.6163 -3.3698
  104PROXS  H1335636  10.532  10.228   9.216 -0.8434 -0.3369  0.6165
  104PROXS   C235637  10.523  10.435   9.166 -0.1609  0.3258 -0.4554
  104PROXS  H2135638  10.458  10.498   9.102 -2.4211 -1.3569  0.0702
  104PROXS   C335639  10.670  10.425   9.112 -0.3830 -0.1036 -0.3521
  104PROXS  H3135640  10.726  10.380   9.197 -0.1376  0.3602 -0.2642
  104PROXS  H3235641  10.674  10.364   9.019  1.9992  2.1067 -1.8307
  104PROXS  H3335642  10.697  10.530   9.092 -2.1198  0.4398 -0.0237
  105PROXS   O135643  10.530  10.482   9.298 -0.0504 -0.4654 -0.2535
  105PROXS   C135644  10.575  10.619   9.316  0.4372  0.2435 -0.0143
  105PROXS  H1135645  10.663  10.642   9.252  1.6998  1.7970  2.1669
  105PROXS  H1335646  10.492  10.687   9.288 -1.0122 -1.9694 -1.3947
  105PROXS   C235647  10.626  10.644   9.463 -0.1053 -0.4696 -0.2405
  105PROXS  H2135648  10.715  10.581   9.482  0.8069  0.5405 -0.9916
  105PROXS   C335649  10.526  10.609   9.581  0.3341 -1.0748  0.5498
  105PROXS  H3135650  10.461  10.698   9.599 -1.8806 -1.4056 -4.2374
  105PROXS  H3235651  10.468  10.523   9.543  1.4786 -1.0094 -1.4799
  105PROXS  H3335652  10.593  10.583   9.665  1.4208 -0.5592 -0.1351
  106PROXS   O135653  10.646  10.789   9.474  0.1493  0.3917  0.3196
  106PROXS   C135654  10.727  10.824   9.584 -0.1966  0.1793  0.2128
  106PROXS  H1135655  10.664  10.821   9.676 -1.6436  1.8267 -0.6536
  106PROXS  H1335656  10.812  10.755   9.600 -0.4942 -1.5550 -4.3158
  106PROXS   C235657  10.771  10.968   9.573 -0.1349 -0.3680  0.1061
  106PROXS  H2135658  10.684  11.024   9.533  0.9528  0.8842 -0.5796
  106PROXS   C335659  10.878  10.982   9.458  0.0282 -0.0456 -0.4136
  106PROXS  H3135660  10.831  10.938   9.368 -2.0052 -0.1325  0.6190
  106PROXS  H3235661  10.885  11.092   9.445  1.8757 -0.2804 -1.7856
  106PROXS  H3335662  10.974  10.935   9.489 -0.9915 -3.1529 -1.5371
  107PROXR   O135663  10.807  11.025   9.697 -0.6402 -0.3252 -0.2180
  107PROXR   C135664  10.707  11.119   9.735 -0.3559  0.4215 -0.7236
  107PROXR  H1135665  10.689  11.200   9.660  0.4238  3.0718  1.7416
  107PROXR  H1335666  10.610  11.067   9.730 -0.9082  1.4678 -1.3309
  107PROXR   C235667  10.741  11.178   9.881  0.1430 -0.4945  0.3908
  107PROXR  H2135668  10.767  11.102   9.958  0.3905 -0.2970  0.5059
  107PROXR   C335669  10.617  11.257   9.932 -0.1929  0.2448  0.6112
  107PROXR  H3135670  10.626  11.307  10.031 -1.3512  1.3436  0.1811
  107PROXR  H3235671  10.582  11.336   9.863 -1.7571 -1.2702 -0.4269
  107PROXR  H3335672  10.527  11.191   9.941 -0.2974  0.4157  0.8095
  108PROXS   O135673  10.849  11.272   9.868 -0.1766  0.3157  0.3602
  108PROXS   C135674  10.973  11.203   9.875 -0.3989  0.3713  0.0457
  108PROXS  H1135675  10.977  11.118   9.946 -1.8811  1.0607  1.0032
  108PROXS  H1335676  11.010  11.161   9.779  2.6031 -0.0496  1.2841
  108PROXS   C235677  11.086  11.290   9.924  0.2290 -0.0609 -0.3767
  108PROXS  H2135678  11.055  11.340  10.019  0.1406 -0.3399 -0.2603
  108PROXS   C335679  11.111  11.408   9.822 -0.2599  0.6315 -0.2857
  108PROXS  H3135680  11.013  11.459   9.808 -0.3997  0.1627 -1.0923
  108PROXS  H3235681  11.190  11.477   9.860 -0.1882 -0.3102  1.3735
  108PROXS  H3335682  11.136  11.365   9.723 -2.3415  2.3003 -1.6181
  109PROXS   O135683  11.209  11.209   9.937  0.2327 -0.8794 -0.9718
  109PROXS   C135684  11.299  11.288  10.007  0.1711 -0.2123  0.5081
  109PROXS  H1135685  11.340  11.361   9.934  1.0885 -0.4047  0.8188
  109PROXS  H1335686  11.262  11.343  10.096  1.1262 -1.2242  1.5602
  109PROXS   C235687  11.411  11.196  10.053 -0.4906 -0.1913  0.3610
  109PROXS  H2135688  11.473  11.168   9.965 -0.3124  2.1180 -0.3062
  109PROXS   C335689  11.349  11.066  10.116 -0.2052  0.2355  0.2619
  109PROXS  H3135690  11.273  11.072  10.197 -0.8372 -2.8906  0.0441
  109PROXS  H3235691  11.295  11.018  10.031  0.6282  1.5657 -1.0569
  109PROXS  H3335692  11.431  11.000  10.150 -0.1109 -1.0108 -2.1317
  110PROXR   O135693  11.485  11.266  10.151  0.5031 -0.1755 -0.7970
  110PROXR   C135694  11.613  11.304  10.113  0.0301  0.3510 -0.4366
  110PROXR  H1135695  11.613  11.353  10.013 -1.9449  2.1418  0.3605
  110PROXR  H1335696  11.654  11.381  10.182 -0.5732 -0.9741  1.4857
  110PROXR   C235697  11.718  11.186  10.125 -0.1170  0.5451  0.4128
  110PROXR  H2135698  11.686  11.112  10.049  0.8816 -0.2755  0.7768
  110PROXR   C335699  11.721  11.123  10.265  0.2153  0.1189  0.2520
  110PROXR  H3135700  11.620  11.095  10.304 -0.5052  2.4223  0.1868
  110PROXR  H3235701  11.791  11.037  10.257 -2.2470 -2.0155 -0.1145
  110PROXR  H3335702  11.768  11.198  10.331 -1.4063  0.7105  0.8019
  111PROXS   O135703  11.847  11.234  10.093 -0.2113  0.4505 -0.2758
  111PROXS   C135704  11.883  11.213   9.957  0.3424 -0.2831  0.7137
  111PROXS  H1135705  11.795  11.223   9.891 -0.4215  1.3238  1.9007
  111PROXS  H1335706  11.958  11.289   9.927  0.4153 -0.2277  1.0293
  111PROXS   C235707  11.947  11.072   9.939  0.3410  0.3173  0.0492
  111PROXS  H2135708  11.868  10.997   9.958  1.4453 -1.2993 -1.4921
  111PROXS   C335709  12.064  11.054  10.033 -0.5638 -0.0316 -0.4501
  111PROXS  H3135710  12.022  11.078  10.133  0.1085  0.6794 -0.3289
  111PROXS  H3235711  12.112  10.954  10.039  1.0509  0.7459  0.0585
  111PROXS  H3335712  12.145  11.127  10.013  1.4873 -1.5428  1.8012
  112PROXR   O135713  11.985  11.050   9.803 -0.1886 -0.2795 -0.0872
  112PROXR   C135714  11.884  11.064   9.703 -0.4477  0.4805 -1.0341
  112PROXR  H1135715  11.788  11.025   9.742  0.1200 -0.0263 -0.1263
  112PROXR  H1335716  11.874  11.171   9.675  0.1099  0.3074 -1.9645
  112PROXR   C235717  11.936  11.002   9.568 -0.6783  0.3144  0.3418
  112PROXR  H2135718  12.042  11.028   9.544 -0.5640  0.5059  1.0444
  112PROXR   C335719  11.847  11.056   9.446 -0.2891 -0.1156  0.4168
  112PROXR  H3135720  11.865  11.162   9.418 -3.2910 -0.3161 -3.0030
  112PROXR  H3235721  11.856  11.009   9.346 -0.4742 -1.2033  0.9026
  112PROXR  H3335722  11.741  11.047   9.477 -0.7906 -0.1405 -1.2034
  113PROXS   O135723  11.928  10.860   9.575 -0.2215 -0.3717 -0.0724
  113PROXS   C135724  12.009  10.795   9.477  0.1363  0.2817 -0.4119
  113PROXS  H1135725  11.966  10.824   9.379  1.5849  1.2834 -0.7736
  113PROXS  H1335726  12.115  10.825   9.494  0.0427 -0.4218  1.7130
  113PROXS   C235727  12.001  10.642   9.494 -0.2565  0.1671  0.0531
  113PROXS  H2135728  11.949  10.624   9.591 -2.6022  3.8573 -0.3447
  113PROXS   C335729  12.134  10.565   9.489  0.8227 -0.0695  0.0436
  113PROXS  H3135730  12.131  10.458   9.516  0.5548  0.3762  1.9156
  113PROXS  H3235731  12.187  10.573   9.391  2.3791  0.0086  0.8581
  113PROXS  H3335732  12.213  10.599   9.559  1.1138 -1.1275  0.2338
  114PROXR   O135733  11.922  10.583   9.394  0.0487 -0.4048  0.0765
  114PROXR   C135734  11.786  10.609   9.424 -1.2922  0.0716  0.3210
  114PROXR  H1135735  11.761  10.568   9.524  0.4137  2.2792  1.7561
  114PROXR  H1335736  11.768  10.718   9.436  0.5224  0.6511 -1.6208
  114PROXR   C235737  11.697  10.554   9.311 -0.1107 -1.0081 -0.0417
  114PROXR  H2135738  11.728  10.450   9.287  0.1088 -1.0873  0.5504
  114PROXR   C335739  11.718  10.635   9.178 -0.2579 -0.3910  0.2216
  114PROXR  H3135740  11.698  10.744   9.187 -0.4016 -0.5590  2.3608
  114PROXR  H3235741  11.825  10.622   9.151 -0.4231 -0.4945 -0.4055
  114PROXR  H3335742  11.639  10.592   9.112  0.8738 -1.0980 -0.7089
  115PROXR   O135743  11.566  10.559   9.362  0.1329 -0.0888  0.7947
  115PROXR   C135744  11.478  10.469   9.289 -0.1133 -0.1620  0.4043
  115PROXR  H1135745  11.412  10.526   9.220  0.8390  0.7774  0.2497
  115PROXR  H1335746  11.537  10.395   9.232 -0.1678  0.3598 -0.3434
  115PROXR   C235747  11.388  10.400   9.386  0.7189 -0.2377  1.1443
  115PROXR  H2135748  11.328  10.479   9.437 -1.0169  0.7366 -2.1800
  115PROXR   C335749  11.475  10.308   9.475 -0.1185  0.0818 -0.2596
  115PROXR  H3135750  11.413  10.240   9.537 -2.4989  1.2895 -1.1796
  115PROXR  H3235751  11.543  10.254   9.405 -0.0542  1.0887 -1.0004
  115PROXR  H3335752  11.535  10.375   9.540 -0.2552 -1.1421  1.1868
  116PROXS   O135753  11.297  10.324   9.312  0.2258  0.1094 -0.0536
  116PROXS   C135754  11.180  10.279   9.386 -0.3195  0.0139 -0.5672
  116PROXS  H1135755  11.202  10.266   9.494  2.1994  1.7482 -0.7833
  116PROXS  H1335756  11.100  10.356   9.384 -0.0077  0.3268 -1.3174
  116PROXS   C235757  11.121  10.161   9.315 -0.0023  0.0621  0.2762
  116PROXS  H2135758  11.192  10.084   9.277 -0.7678  0.4524 -2.1098
  116PROXS   C335759  11.038  10.196   9.189  0.2097 -1.1182 -0.3072
  116PROXS  H3135760  11.094  10.248   9.108 -0.7366  0.4521  0.0092
  116PROXS  H3235761  10.989  10.103   9.154 -1.7030 -1.4827  2.9495
  116PROXS  H3335762  10.956  10.265   9.217  1.2862  0.4972 -0.9845
  117PROXS   O135763  11.038  10.088   9.405  0.2958 -0.8680 -0.0974
  117PROXS   C135764  11.124  10.000   9.483  0.2797 -0.0122  1.0829
  117PROXS  H1135765  11.229  10.032   9.499  0.9687 -0.7158 -1.5255
  117PROXS  H1335766  11.078   9.985   9.583 -0.2418  0.0013  0.8524
  117PROXS   C235767  11.121   9.863   9.409  0.1714 -0.2009 -0.1756
  117PROXS  H2135768  11.143   9.865   9.300 -1.1179  3.0550 -0.4923
  117PROXS   C335769  10.980   9.796   9.430 -0.3418  0.0500 -0.1238
  117PROXS  H3135770  10.890   9.857   9.406 -0.5787 -0.2438  0.0051
  117PROXS  H3235771  10.967   9.705   9.367 -2.2255  0.3424 -0.2079
  117PROXS  H3335772  10.975   9.776   9.540  0.1971 -0.2934 -0.1610
  118PROXR   O135773  11.224   9.778   9.472 -0.0507 -0.1169 -0.4856
  118PROXR   C135774  11.223   9.638   9.432 -0.2100 -0.5555  0.1493
  118PROXR  H1135775  11.137   9.574   9.460 -0.8846  0.0447 -0.5138
  118PROXR  H1335776  11.218   9.622   9.322 -0.8670  0.2618  0.0520
  118PROXR   C235777  11.352   9.555   9.474  0.4661  0.0842  0.7409
  118PROXR  H2135778  11.337   9.451   9.438  0.3956  0.5939 -0.7583
  118PROXR   C335779  11.383   9.554   9.627  0.3064 -0.1060 -0.4497
  118PROXR  H3135780  11.463   9.485   9.661 -0.5364  0.5179  3.1720
  118PROXR  H3235781  11.402   9.658   9.661 -0.3645  0.0643 -0.5938
  118PROXR  H3335782  11.290   9.514   9.672  0.2030  0.1580 -0.4280
  119PROXR   O135783  11.474   9.614   9.420  1.0238 -0.0585 -0.2535
  119PROXR   C135784  11.481   9.600   9.280 -0.2613 -0.4579 -0.8704
  119PROXR  H1135785  11.473   9.493   9.252  2.0377 -1.4655  1.8948
  119PROXR  H1335786  11.403   9.663   9.231 -0.2141 -0.9511 -1.5978
  119PROXR   C235787  11.604   9.656   9.218  0.8559 -0.1590  0.4883
  119PROXR  H2135788  11.585   9.647   9.109  0.9660  3.3823  0.0632
  119PROXR   C335789  11.733   9.584   9.273 -0.6091  0.5184  1.2443
  119PROXR  H3135790  11.722   9.474   9.268  1.8213  0.2610 -0.5461
  119PROXR  H3235791  11.818   9.619   9.210  0.2867 -1.8179  1.0544
  119PROXR  H3335792  11.746   9.623   9.376  2.1218 -0.7541  1.4878
  120PROXS   O135793  11.615   9.795   9.254  0.8127  0.6269  0.2858
  120PROXS   C135794  11.669   9.876   9.156 -0.0320  0.3433  0.0041
  120PROXS  H1135795  11.779   9.859   9.152 -0.1867 -0.4220 -1.6782
  120PROXS  H1335796  11.626   9.859   9.055 -1.0238  2.5227  0.0008
  120PROXS   C235797  11.639  10.027   9.185  0.4469  0.6330 -0.1163
  120PROXS  H2135798  11.680  10.045   9.286  1.9322 -0.7315 -0.4345
  120PROXS   C335799  11.495  10.069   9.176  0.4054 -0.5318 -0.6058
  120PROXS  H3135800  11.478  10.177   9.197 -0.1079 -0.7209 -0.0265
  120PROXS  H3235801  11.452  10.052   9.075  2.2006 -0.0730 -1.4842
  120PROXS  H3335802  11.431  10.017   9.251  1.2524 -2.2826 -1.0453
  121PROXS   O135803  11.703  10.112   9.093  0.3249 -0.7540  0.2032
  121PROXS   C135804  11.841  10.123   9.134  0.2884  0.3556 -0.2626
  121PROXS  H1135805  11.849  10.146   9.242 -0.1619  1.1550 -0.3938
  121PROXS  H1335806  11.890  10.025   9.114 -1.1783 -0.2509 -1.0962
  121PROXS   C235807  11.908  10.238   9.046 -0.3018 -0.6164 -0.0920
  121PROXS  H2135808  11.869  10.330   9.096  1.0360 -1.5358  2.8288
  121PROXS   C335809  11.873  10.234   8.897 -0.5369 -0.1776  0.6456
  121PROXS  H3135810  11.763  10.226   8.882 -0.1694 -2.6713 -1.4124
  121PROXS  H3235811  11.900  10.321   8.833 -0.0365 -1.6576 -1.2178
  121PROXS  H3335812  11.923  10.152   8.842 -0.1349  0.8870 -0.6494
  122PROXS   O135813  12.050  10.244   9.047  0.1591  0.7311  0.7485
  122PROXS   C135814  12.097  10.289   9.172  0.5937  0.5742 -0.1070
  122PROXS  H1135815  12.043  10.378   9.209  0.1680 -0.4122  1.7619
  122PROXS  H1335816  12.085  10.224   9.261 -0.6308  0.8288 -0.0774
  122PROXS   C235817  12.251  10.327   9.162  0.6861  0.7158  0.0237
  122PROXS  H2135818  12.254  10.418   9.098  1.0090  1.8262  1.5520
  122PROXS   C335819  12.341  10.218   9.104 -0.6839  0.4623  0.5081
  122PROXS  H3135820  12.429  10.265   9.056  0.2002 -0.6942  0.9629
  122PROXS  H3235821  12.379  10.152   9.184 -1.7062 -1.6671 -0.6597
  122PROXS  H3335822  12.278  10.155   9.036 -1.1923  2.8484 -1.3724
  123PROXS   O135823  12.298  10.347   9.294  0.3370  0.3468  0.7714
  123PROXS   C135824  12.421  10.422   9.294  0.2376  0.0990 -0.2108
  123PROXS  H1135825  12.472  10.434   9.196  0.0235  1.2285 -0.1991
  123PROXS  H1335826  12.393  10.527   9.314 -1.1983  0.0242 -1.6534
  123PROXS   C235827  12.527  10.374   9.397  0.1241  0.0303 -0.1133
  123PROXS  H2135828  12.573  10.278   9.364  0.9676  0.3374  0.1410
  123PROXS   C335829  12.457  10.352   9.532  0.2523 -0.0920 -0.0395
  123PROXS  H3135830  12.433  10.449   9.580 -1.7228 -0.8554  0.6229
  123PROXS  H3235831  12.358  10.304   9.516  0.3684  0.3265 -2.3228
  123PROXS  H3335832  12.513  10.294   9.608  0.1859 -2.2909 -1.5518
  124PROXR   O135833  12.624  10.475   9.409 -0.0936  0.4762  0.0109
  124PROXR   C135834  12.754  10.433   9.453  0.1472  0.2290 -0.2980
  124PROXR  H1135835  12.755  10.358   9.535 -0.9463 -0.3010 -0.7448
  124PROXR  H1335836  12.791  10.375   9.366 -2.7611 -0.2611 -1.3236
  124PROXR   C235837  12.848  10.552   9.481 -0.3454  0.7661 -0.2111
  124PROXR  H2135838  12.824  10.640   9.417  0.0623  0.6273 -0.5546
  124PROXR   C335839  12.994  10.515   9.458  0.0085 -0.2413  0.8581
  124PROXR  H3135840  13.018  10.430   9.526  0.0507 -0.8026  0.1510
  124PROXR  H3235841  13.025  10.493   9.354  0.5315 -0.9807  1.1573
  124PROXR  H3335842  13.065  10.595   9.490  3.1673 -2.0368 -1.1297
  125PROXS   O135843  12.836  10.597   9.615  0.4666  0.1517 -0.6154
  125PROXS   C135844  12.709  10.666   9.636 -0.3872 -0.1641 -0.1621
  125PROXS  H1135845  12.701  10.752   9.566 -0.0334 -0.9077 -1.1409
  125PROXS  H1335846  12.627  10.593   9.620 -1.8344  1.0812  1.2239
  125PROXS   C235847  12.694  10.712   9.788  1.0796 -0.1882  0.1439
  125PROXS  H2135848  12.769  10.791   9.808  0.8406  0.0133  0.2480
  125PROXS   C335849  12.731  10.597   9.882  0.4880  0.0635 -0.1265
  125PROXS  H3135850  12.654  10.518   9.873  1.9277 -1.4557  0.4743
  125PROXS  H3235851  12.830  10.548   9.869  0.4505  0.3506 -1.6991
  125PROXS  H3335852  12.744  10.627   9.988  0.5426 -2.1287  0.5239
  126PROXS   O135853  12.558  10.754   9.824 -0.3977  0.0278  0.4426
  126PROXS   C135854  12.542  10.898   9.827  0.5195  0.1398  0.1059
  126PROXS  H1135855  12.593  10.927   9.921  1.1238 -0.8944  0.1109
  126PROXS  H1335856  12.596  10.947   9.742  1.9773 -0.4106  0.6854
  126PROXS   C235857  12.395  10.950   9.837  0.3819 -0.0274  0.7142
  126PROXS  H2135858  12.348  10.946   9.938 -0.7092  3.0526  0.4531
  126PROXS   C335859  12.308  10.875   9.735  0.3948 -0.1704  0.7737
  126PROXS  H3135860  12.355  10.880   9.634  0.4177 -2.0062  0.6508
  126PROXS  H3235861  12.308  10.766   9.757 -3.3940 -0.6274 -0.7887
  126PROXS  H3335862  12.202  10.906   9.728 -0.3483 -2.2166  2.0113
  127PROXR   O135863  12.391  11.078   9.786 -0.5193 -0.2825  0.4100
  127PROXR   C135864  12.418  11.178   9.880 -0.3512  0.2915  0.0862
  127PROXR  H1135865  12.341  11.167   9.959 -1.1561 -0.0200 -0.7165
  127PROXR  H1335866  12.518  11.163   9.926 -0.3837  0.1122  0.0987
  127PROXR   C235867  12.403  11.325   9.832 -0.0800  0.1833  0.2277
  127PROXR  H2135868  12.299  11.337   9.797  0.1945  1.0518 -0.3054
  127PROXR   C335869  12.492  11.357   9.709  0.2565  0.4164 -0.3887
  127PROXR  H3135870  12.597  11.360   9.745  0.8156 -1.5548 -1.7258
  127PROXR  H3235871  12.481  11.277   9.633 -0.6302  1.4850 -1.4351
  127PROXR  H3335872  12.452  11.447   9.657 -0.6308 -0.4619 -1.2747
  128PROXR   O135873  12.436  11.423   9.932 -0.0526 -0.5009 -0.4364
  128PROXR   C135874  12.344  11.444  10.038 -0.0476  0.3909  0.1897
  128PROXR  H1135875  12.316  11.550  10.050  1.9675  1.0345 -0.3933
  128PROXR  H1335876  12.252  11.393  10.003 -0.3103  0.8979  0.1348
  128PROXR   C235877  12.396  11.396  10.175  0.1077  0.5185 -0.2828
  128PROXR  H2135878  12.485  11.334  10.154 -0.1869 -0.1947  0.4886
  128PROXR   C335879  12.290  11.324  10.262  0.2641 -0.1968 -0.1652
  128PROXR  H3135880  12.207  11.396  10.284 -0.9045 -1.6782  0.4586
  128PROXR  H3235881  12.248  11.232  10.216 -0.5986  0.3522 -0.5260
  128PROXR  H3335882  12.339  11.292  10.356  0.7416  0.8407 -0.0394
  129PROXS   O135883  12.438  11.508  10.252 -0.0337  0.2551  0.1339
  129PROXS   C135884  12.568  11.555  10.215  1.2148  0.2176 -0.7526
  129PROXS  H1135885  12.636  11.480  10.169  1.3966 -0.2911  0.3018
  129PROXS  H1335886  12.550  11.633  10.138  0.4624  0.8025 -0.0043
  129PROXS   C235887  12.644  11.597  10.338 -0.7992  0.3213 -0.7265
  129PROXS  H2135888  12.564  11.631  10.408 -0.5353  0.4118 -0.4634
  129PROXS   C335889  12.741  11.709  10.307 -0.1605  0.2874  0.0135
  129PROXS  H3135890  12.829  11.666  10.256 -0.9903 -2.2969  0.6250
  129PROXS  H3235891  12.686  11.775  10.237 -1.7181 -1.2452 -0.2503
  129PROXS  H3335892  12.785  11.766  10.392  2.0532 -0.5879 -0.4671
  130PROXS   O135893  12.716  11.491  10.397  0.0503 -0.5475 -0.4945
  130PROXS   C135894  12.645  11.430  10.504  0.0656  0.1062 -0.9674
  130PROXS  H1135895  12.645  11.502  10.588 -0.9682  1.9027 -2.4296
  130PROXS  H1335896  12.540  11.405  10.477 -0.7613  1.5062  0.7582
  130PROXS   C235897  12.712  11.300  10.562  0.3090 -0.0727 -0.0322
  130PROXS  H2135898  12.816  11.325  10.593  0.5034 -1.2072  0.2753
  130PROXS   C335899  12.722  11.188  10.451  0.3309 -0.6380 -0.5495
  130PROXS  H3135900  12.768  11.095  10.491 -0.6146 -0.6676  0.5501
  130PROXS  H3235901  12.619  11.164  10.416 -0.1496 -0.0104  0.3836
  130PROXS  H3335902  12.784  11.226  10.367  0.1505  1.7813  0.3265
  131PROXS   O135903  12.643  11.268  10.671  0.6521  0.4238 -0.3969
  131PROXS   C135904  12.722  11.223  10.783 -0.9507 -0.5048 -0.6857
  131PROXS  H1135905  12.811  11.166  10.749 -1.1961 -2.9972  2.4294
  131PROXS  H1335906  12.755  11.312  10.840 -0.9480 -0.5701 -0.5878
  131PROXS   C235907  12.649  11.123  10.874 -0.5490 -0.2381 -0.5276
  131PROXS  H2135908  12.633  11.031  10.813  1.5600 -0.4560 -0.8276
  131PROXS   C335909  12.518  11.185  10.920 -0.1843  0.0928 -0.4666
  131PROXS  H3135910  12.475  11.114  10.992 -1.0816  1.0158 -0.0667
  131PROXS  H3235911  12.532  11.285  10.968 -0.4716 -0.4272  0.7222
  131PROXS  H3335912  12.444  11.199  10.838 -1.1212 -2.5956 -0.1467
  132PROXS   O135913  12.737  11.088  10.977 -0.6704  0.2282  0.2727
  132PROXS   C135914  12.705  10.959  11.029  0.1056 -0.3345 -0.0496
  132PROXS  H1135915  12.597  10.937  11.017 -0.1913 -1.3566  3.3728
  132PROXS  H1335916  12.754  10.892  10.955 -3.7130 -0.5646 -2.6455
  132PROXS   C235917  12.738  10.946  11.175 -0.3292 -0.2495  0.1441
  132PROXS  H2135918  12.835  10.994  11.201 -0.8964  1.1981 -0.3113
  132PROXS   C335919  12.717  10.803  11.220 -0.2259  0.3240  0.2102
  132PROXS  H3135920  12.797  10.736  11.182  0.2038  0.9261  0.0261
  132PROXS  H3235921  12.706  10.795  11.330 -1.1199 -1.2334  0.0256
  132PROXS  H3335922  12.623  10.762  11.178 -0.8154 -0.1014  1.8691
  133PROXS   O135923  12.633  11.020  11.239 -0.3233 -0.7170  0.4748
  133PROXS   C135924  12.687  11.146  11.286  0.1301 -0.1995  0.1631
  133PROXS  H1135925  12.770  11.130  11.358  1.4921  0.6504 -1.1697
  133PROXS  H1335926  12.722  11.213  11.205 -0.1369 -0.5687 -0.2655
  133PROXS   C235927  12.573  11.227  11.367 -0.3697 -0.0433 -0.0216
  133PROXS  H2135928  12.533  11.165  11.450 -3.0386 -0.0613 -1.2105
  133PROXS   C335929  12.454  11.248  11.266 -0.4563 -0.0619 -0.0626
  133PROXS  H3135930  12.433  11.156  11.207  2.3056  0.2973 -1.7983
  133PROXS  H3235931  12.359  11.288  11.307  0.3077  2.8222 -0.9033
  133PROXS  H3335932  12.483  11.334  11.203  2.5613 -1.0959 -0.2823
  134PROXS   O135933  12.634  11.352  11.414 -0.3209  0.0246 -0.7017
  134PROXS   C135934  12.558  11.419  11.514  0.8723 -0.1594  0.3771
  134PROXS  H1135935  12.482  11.491  11.476 -0.8679  0.3819  4.2949
  134PROXS  H1335936  12.508  11.345  11.580  0.6538  0.6072  1.1035
  134PROXS   C235937  12.654  11.504  11.600  0.7202  0.1942 -0.6062
  134PROXS  H2135938  12.705  11.580  11.537  0.5508  0.3507 -0.5541
  134PROXS   C335939  12.763  11.428  11.654 -0.4626 -0.0763 -1.0048
  134PROXS  H3135940  12.820  11.367  11.581 -0.0695 -1.3515  0.3242
  134PROXS  H3235941  12.837  11.494  11.705 -2.6222  0.3420  1.7929
  134PROXS  H3335942  12.719  11.361  11.731 -0.2655  0.7785 -0.1263
  135PROXS   O135943  12.580  11.575  11.701  0.3734 -0.0034 -0.5985
  135PROXS   C135944  12.631  11.706  11.715 -0.0657 -0.2776  0.7761
  135PROXS  H1135945  12.607  11.753  11.812  0.0555  0.5202  0.4236
  135PROXS  H1335946  12.740  11.715  11.699 -0.1065 -0.5502  0.3031
  135PROXS   C235947  12.570  11.812  11.610  0.1120  0.5708 -0.0405
  135PROXS  H2135948  12.606  11.792  11.507 -1.4598  2.9437 -1.1300
  135PROXS   C335949  12.618  11.963  11.633  0.2866 -0.4325 -0.0146
  135PROXS  H3135950  12.555  12.031  11.571 -0.8438 -0.5975  0.9352
  135PROXS  H3235951  12.611  11.989  11.740 -3.6001  0.2923 -0.2964
  135PROXS  H3335952  12.726  11.968  11.604 -0.2923 -0.7712 -2.5185
  136PROXS   O135953  12.429  11.804  11.615  0.5989 -0.5301  0.0590
  136PROXS   C135954  12.368  11.852  11.497 -0.6049 -0.0157 -0.3156
  136PROXS  H1135955  12.382  11.962  11.497  0.2304 -0.1096  0.1313
  136PROXS  H1335956  12.409  11.800  11.407  0.9443  2.9179 -1.4386
  136PROXS   C235957  12.219  11.818  11.490  0.4363 -0.1502  0.0287
  136PROXS  H2135958  12.154  11.880  11.555  0.4279  0.0737 -0.1937
  136PROXS   C335959  12.198  11.671  11.504  0.2234  0.3444  1.0797
  136PROXS  H3135960  12.092  11.640  11.519  0.1102  1.3035  2.3854
  136PROXS  H3235961  12.244  11.619  11.417 -1.9908  0.4668 -0.2566
  136PROXS  H3335962  12.245  11.638  11.598 -0.0919  0.1749  1.1815
  137PROXS   O135963  12.193  11.844  11.355 -0.0330  0.3914  0.4087
  137PROXS   C135964  12.064  11.906  11.321  0.0299 -0.3995  0.1000
  137PROXS  H1135965  11.986  11.851  11.379 -1.3990 -0.4825 -1.8044
  137PROXS  H1335966  12.065  12.014  11.349  0.4951 -0.4663  0.3560
  137PROXS   C235967  12.036  11.906  11.173  0.0240  0.4262 -0.6171
  137PROXS  H2135968  12.055  11.803  11.135 -0.9055 -0.2046  0.5393
  137PROXS   C335969  12.128  11.995  11.096  1.1775 -0.3641 -0.0844
  137PROXS  H3135970  12.160  12.089  11.146  1.5095  0.0898 -1.1436
  137PROXS  H3235971  12.222  11.940  11.072  0.5082 -1.1369 -0.9956
  137PROXS  H3335972  12.081  12.027  11.001 -2.6243 -0.1592  1.6803
  138PROXR   O135973  11.895  11.945  11.158 -0.5310  0.4519 -0.0038
  138PROXR   C135974  11.800  11.844  11.192 -0.3076  0.2568 -0.0481
  138PROXR  H1135975  11.832  11.747  11.148  1.1802  0.0192  1.4758
  138PROXR  H1335976  11.797  11.832  11.302 -0.3459  0.7393  0.0042
  138PROXR   C235977  11.653  11.871  11.137  0.2186  0.1228 -0.2505
  138PROXR  H2135978  11.650  11.888  11.028 -1.9052  0.6268 -0.1429
  138PROXR   C335979  11.606  11.999  11.194  0.1646 -0.1427  0.7175
  138PROXR  H3135980  11.563  12.002  11.296 -0.8589  1.1385  0.2864
  138PROXR  H3235981  11.677  12.082  11.176 -1.3624  0.6786 -2.4234
  138PROXR  H3335982  11.507  12.015  11.145 -0.9454 -3.0849  1.7976
  139PROXS   O135983  11.569  11.759  11.175  0.1487 -0.0446 -0.5917
  139PROXS   C135984  11.591  11.637  11.107  0.0354  0.5399 -0.1945
  139PROXS  H1135985  11.698  11.611  11.087 -0.3202 -0.1918 -1.1885
  139PROXS  H1335986  11.555  11.555  11.172  0.8478 -0.0674 -0.4853
  139PROXS   C235987  11.514  11.623  10.977 -0.3408 -0.5913  0.1468
  139PROXS  H2135988  11.534  11.713  10.915 -0.6621  0.8244  1.9885
  139PROXS   C335989  11.359  11.597  10.996  0.2207  0.0471  0.1294
  139PROXS  H3135990  11.310  11.597  10.896 -0.4626 -0.1733  0.4512
  139PROXS  H3235991  11.346  11.495  11.038 -2.6625 -0.4691 -1.7197
  139PROXS  H3335992  11.306  11.667  11.064  0.9566 -2.2504  3.2988
  140PROXR   O135993  11.580  11.520  10.912  0.3697  0.7354 -0.1856
  140PROXR   C135994  11.526  11.495  10.783  0.5688 -0.2538 -0.2559
  140PROXR  H1135995  11.429  11.441  10.790  0.5658 -0.0826  1.1701
  140PROXR  H1335996  11.512  11.588  10.723 -0.5216  0.4002  0.9577
  140PROXR   C235997  11.639  11.411  10.727 -0.5315 -0.4050  0.3429
  140PROXR  H2135998  11.674  11.335  10.801  1.3583  0.4543  0.4059
  140PROXR   C335999  11.763  11.491  10.689  0.4793 -0.2856 -0.2894
  140PROXR  H3136000  11.737  11.563  10.609 -0.8785  1.0125  1.2541
  140PROXR  H3236001  11.808  11.549  10.773  2.1172 -0.8896 -0.7012
  140PROXR  H3336002  11.840  11.421  10.649  0.2475 -1.0211  0.5032
  141PROXS   O136003  11.593  11.341  10.613  0.0692 -0.4419 -0.6115
  141PROXS   C136004  11.533  11.212  10.647  0.3867 -0.7933 -0.6892
  141PROXS  H1136005  11.612  11.137  10.668  0.7061 -0.2250  0.1896
  141PROXS  H1336006  11.484  11.222  10.746  0.2433  0.4448 -0.8688
  141PROXS   C236007  11.437  11.153  10.535  0.0421  0.0182 -0.5832
  141PROXS  H2136008  11.479  11.097  10.449 -1.7524 -0.8134 -0.9694
  141PROXS   C336009  11.364  11.270  10.471 -0.4303 -0.2230  0.1858
  141PROXS  H3136010  11.430  11.346  10.424 -1.1868  0.9867  1.0416
  141PROXS  H3236011  11.299  11.236  10.387 -0.5906 -1.5807  0.8300
  141PROXS  H3336012  11.294  11.310  10.547 -2.6862  0.2800 -2.0156
  142PROXS   O136013  11.333  11.079  10.603 -0.7645 -0.3129  0.0242
  142PROXS   C136014  11.258  10.988  10.515  0.1071  0.0920  0.5686
  142PROXS  H1136015  11.202  11.040  10.435  1.0927  1.2361  0.5981
  142PROXS  H1336016  11.331  10.916  10.473 -1.5003 -1.6148  0.5700
  142PROXS   C236017  11.150  10.904  10.582 -0.3962 -0.0205  0.1732
  142PROXS  H2136018  11.186  10.839  10.665 -0.4919 -2.0239 -1.2550
  142PROXS   C336019  11.080  10.819  10.473 -0.4445 -0.5610  0.0712
  142PROXS  H3136020  10.999  10.754  10.514 -1.7637  0.7757 -0.3075
  142PROXS  H3236021  11.030  10.889  10.402  0.8662 -0.3077 -0.6279
  142PROXS  H3336022  11.144  10.757  10.407 -0.4499  0.8980 -1.3628
  143PROXS   O136023  11.043  10.987  10.630  0.0303  0.3526 -0.2460
  143PROXS   C136024  11.069  11.041  10.760  0.1245 -0.1385 -0.2506
  143PROXS  H1136025  11.080  10.948  10.820  1.6801  0.7028  0.8525
  143PROXS  H1336026  11.173  11.078  10.767  1.4343 -3.1379 -1.9648
  143PROXS   C236027  10.962  11.146  10.795 -0.9052 -0.2776  0.3178
  143PROXS  H2136028  10.858  11.110  10.777 -1.0932  0.2434  0.3510
  143PROXS   C336029  10.986  11.271  10.709  0.4698 -0.3708  0.0704
  143PROXS  H3136030  11.092  11.268  10.674  0.1384 -1.0296 -0.9159
  143PROXS  H3236031  10.919  11.279  10.621 -0.2433 -0.0820  0.6371
  143PROXS  H3336032  10.964  11.359  10.772  1.2284 -0.1004 -0.0319
  144PROXS   O136033  10.977  11.183  10.929 -0.1267  0.8405 -0.2453
  144PROXS   C136034  10.936  11.092  11.029  0.5462 -0.1881 -0.3050
  144PROXS  H1136035  10.840  11.045  11.000  0.6521 -2.0523  2.0103
  144PROXS  H1336036  11.008  11.007  11.033  1.4105  0.4087 -2.3381
  144PROXS   C236037  10.937  11.165  11.165 -0.2523 -0.1393  0.3663
  144PROXS  H2136038  10.854  11.238  11.171 -0.6827 -0.6164  0.3062
  144PROXS   C336039  11.072  11.234  11.202 -0.0232 -0.0703  0.1798
  144PROXS  H3136040  11.053  11.281  11.301  0.2631  1.1130 -0.3189
  144PROXS  H3236041  11.156  11.162  11.206  0.6350  0.6816 -0.0400
  144PROXS  H3336042  11.096  11.321  11.138  1.1918 -0.2886  0.3150
  145PROXR   O136043  10.911  11.069  11.264 -0.0242  0.0091 -0.6354
  145PROXR   C136044  10.770  11.055  11.293  0.0553  0.1198 -0.5400
  145PROXR  H1136045  10.744  11.143  11.355 -1.9370 -0.8871  0.1111
  145PROXR  H1336046  10.707  11.044  11.202 -0.1726 -1.5436 -0.2164
  145PROXR   C236047  10.760  10.926  11.378  0.5107  0.0994  0.0188
  145PROXR  H2136048  10.816  10.947  11.472  1.3651  1.5615 -0.7845
  145PROXR   C336049  10.812  10.797  11.312 -0.9769  0.3459  0.4078
  145PROXR  H3136050  10.776  10.782  11.207 -0.1560 -0.2015  0.1911
  145PROXR  H3236051  10.923  10.801  11.308 -0.9184 -1.0104  0.1288
  145PROXR  H3336052  10.768  10.713  11.370 -0.2503  0.4011  1.0402
  146PROXS   O136053  10.626  10.894  11.403  0.0380  0.4316  0.0762
  146PROXS   C136054  10.548  11.001  11.461  0.1980  0.3930  0.2136
  146PROXS  H1136055  10.597  11.027  11.557 -0.0439 -0.5832  0.6030
  146PROXS  H1336056  10.527  11.084  11.390  1.1558  0.1663 -0.3598
  146PROXS   C236057  10.406  10.943  11.502  0.0415 -0.2551 -0.0135
  146PROXS  H2136058  10.417  10.868  11.584 -2.2688 -0.2432  0.3733
  146PROXS   C336059  10.318  10.891  11.380 -0.1818 -0.4137  0.0801
  146PROXS  H3136060  10.226  10.841  11.417  0.3176 -2.6595 -1.5186
  146PROXS  H3236061  10.286  10.969  11.308 -2.4946 -1.5639 -0.2393
  146PROXS  H3336062  10.374  10.812  11.324  2.3665  1.3929 -0.0997
  147PROXR   O136063  10.326  11.049  11.551 -0.3175  0.5970 -0.2356
  147PROXR   C136064  10.364  11.097  11.677 -0.0235  0.6329 -0.6244
  147PROXR  H1136065  10.424  11.022  11.734 -1.6389 -0.1379  0.1158
  147PROXR  H1336066  10.434  11.182  11.664  1.0498 -0.3093 -1.2474
  147PROXR   C236067  10.259  11.150  11.785  0.0824 -0.7657 -0.6080
  147PROXR  H2136068  10.198  11.060  11.810 -2.0142 -0.0923 -2.8865
  147PROXR   C336069  10.160  11.256  11.725  0.4104  0.4138 -0.6613
  147PROXR  H3136070  10.124  11.220  11.626  1.3751 -0.2669 -0.7838
  147PROXR  H3236071  10.079  11.277  11.797  0.3364  1.3983 -1.0126
  147PROXR  H3336072  10.206  11.357  11.720 -0.9224  1.0271 -1.0390
  148PROXR   O136073  10.331  11.189  11.900  0.3280 -0.5175 -0.3675
  148PROXR   C136074  10.257  11.190  12.020 -0.1813 -0.1142 -0.1328
  148PROXR  H1136075  10.162  11.246  12.006 -0.9055 -0.7520  1.8548
  148PROXR  H1336076  10.228  11.088  12.053  0.8318 -0.6446 -0.8547
  148PROXR   C236077  10.350  11.255  12.127 -0.2150 -0.0385  0.8492
  148PROXR  H2136078  10.381  11.353  12.084 -0.8009 -0.8001 -1.4490
  148PROXR   C336079  10.476  11.180  12.160  0.0474 -0.1440  0.5860
  148PROXR  H3136080  10.486  11.096  12.089 -2.2850 -0.3311  0.3885
  148PROXR  H3236081  10.569  11.240  12.154  0.6753 -1.1206  0.5181
  148PROXR  H3336082  10.475  11.128  12.258 -1.5940  0.1328  0.7436
  149PROXR   O136083  10.278  11.269  12.247 -0.0971  0.7244  0.0022
  149PROXR   C136084  10.336  11.366  12.333  0.0022 -0.2992  0.4237
  149PROXR  H1136085  10.443  11.348  12.356  0.6192  2.2138 -0.2265
  149PROXR  H1336086  10.338  11.471  12.298 -0.5793 -0.3691  0.1693
  149PROXR   C236087  10.264  11.358  12.478  0.2408  0.3024  0.5159
  149PROXR  H2136088  10.282  11.259  12.525 -1.3689 -0.6537 -0.7684
  149PROXR   C336089  10.108  11.373  12.471  0.0393  0.3487  0.3238
  149PROXR  H3136090  10.069  11.378  12.575  1.2286  0.5874  0.7793
  149PROXR  H3236091  10.061  11.458  12.417 -0.6195 -1.2468 -1.7425
  149PROXR  H3336092  10.069  11.286  12.414  0.9573  1.8900 -2.8716
  150PROXS   O136093  10.300  11.458  12.562  0.0982 -0.2571  0.0283
  150PROXS   C136094  10.439  11.457  12.604  0.4571 -0.0222  0.0707
  150PROXS  H1136095  10.457  11.370  12.671  0.1780 -0.8967 -0.9584
  150PROXS  H1336096  10.511  11.438  12.521  1.3270  0.7355  0.6322
  150PROXS   C236097  10.478  11.583  12.684  0.5803 -0.1519  0.4449
  150PROXS  H2136098  10.408  11.590  12.770 -1.5052  0.8051 -1.2139
  150PROXS   C336099  10.447  11.708  12.597  0.2812 -0.0336 -0.5819
  150PROXS  H3136100  10.513  11.707  12.507 -0.7777 -1.7281 -1.4040
  150PROXS  H3236101  10.339  11.710  12.573 -0.1516 -0.7895  1.1507
  150PROXS  H3336102  10.481  11.803  12.642 -0.8009  0.0329  0.1142
  151PROXR   O136103  10.619  11.577  12.720 -0.3756 -0.2988  0.0610
  151PROXR   C136104  10.644  11.669  12.828  0.1256  0.3690  0.3272
  151PROXR  H1136105  10.635  11.774  12.792  0.4125 -0.1410 -1.3119
  151PROXR  H1336106  10.568  11.663  12.908  0.3925  1.0926  0.6485
  151PROXR   C236107  10.785  11.639  12.886  0.3679  0.3062  0.0284
  151PROXR  H2136108  10.799  11.529  12.890 -0.9194  0.1166 -0.4188
  151PROXR   C336109  10.799  11.693  13.023  0.1276 -0.5571  0.8208
  151PROXR  H3136110  10.800  11.803  13.035  0.2328 -0.6551  1.8062
  151PROXR  H3236111  10.722  11.665  13.098  0.1386 -1.0724  0.6462
  151PROXR  H3336112  10.900  11.675  13.066  0.5328  1.6685  0.9261
  152PROXR   O136113  10.887  11.708  12.807  0.1494 -0.2084 -0.1069
  152PROXR   C136114  10.939  11.625  12.709  0.3294 -0.0616  0.6395
  152PROXR  H1136115  10.986  11.543  12.766 -0.4651  0.5395  2.2305
  152PROXR  H1336116  10.853  11.590  12.648 -1.1914  1.5311  1.7637
  152PROXR   C236117  11.050  11.703  12.622  0.1654 -0.0104  0.2090
  152PROXR  H2136118  11.115  11.748  12.699  1.5807 -0.0494 -0.9238
  152PROXR   C336119  10.993  11.823  12.531 -0.8365 -0.1029 -0.3092
  152PROXR  H3136120  10.928  11.879  12.601  2.3652  0.6638  2.3077
  152PROXR  H3236121  11.074  11.883  12.486 -2.0834  1.7414 -0.1905
  152PROXR  H3336122  10.933  11.782  12.447 -2.8957  1.8494  0.1207
  153PROXR   O136123  11.124  11.615  12.548 -0.1397  0.1275  0.3410
  153PROXR   C136124  11.243  11.672  12.487  0.3877 -0.3692 -0.1768
  153PROXR  H1136125  11.209  11.735  12.402  0.8276 -1.2264 -1.0026
  153PROXR  H1336126  11.305  11.728  12.560  1.5984 -0.6091 -1.0035
  153PROXR   C236127  11.336  11.563  12.420 -0.3242 -0.0016 -0.2744
  153PROXR  H2136128  11.356  11.488  12.500 -1.3704  1.2077  1.1934
  153PROXR   C336129  11.469  11.615  12.367 -0.0476 -0.2176  0.5201
  153PROXR  H3136130  11.522  11.678  12.442 -0.6069  0.2157  0.5590
  153PROXR  H3236131  11.525  11.521  12.345  0.2762 -0.2498  1.4229
  153PROXR  H3336132  11.449  11.678  12.278 -1.0181  0.9728  1.5490
  154PROXS   O136133  11.275  11.504  12.314 -0.3380 -0.2228  0.0185
  154PROXS   C136134  11.211  11.381  12.345 -0.2770 -0.3492  0.1847
  154PROXS  H1136135  11.286  11.302  12.365 -1.1146 -0.4453  3.4105
  154PROXS  H1336136  11.153  11.400  12.438  1.1777  1.1829  0.8475
  154PROXS   C236137  11.112  11.344  12.233  0.5455 -0.1957 -0.2967
  154PROXS  H2136138  11.180  11.308  12.153  1.7371 -0.2174  0.6874
  154PROXS   C336139  11.042  11.465  12.166 -0.1477 -0.2296 -0.5323
  154PROXS  H3136140  11.096  11.517  12.084 -2.5715  1.1608 -1.3730
  154PROXS  H3236141  10.943  11.437  12.123 -1.1870  0.0359  1.5629
  154PROXS  H3336142  11.026  11.550  12.235  0.8051 -1.6394  1.5060
  155PROXR   O136143  11.025  11.239  12.274 -0.1363 -0.2660  0.3824
  155PROXR   C136144  10.996  11.146  12.173  0.2578  0.6674  0.5212
  155PROXR  H1136145  10.971  11.208  12.084  0.6452  2.7286  1.7664
  155PROXR  H1336146  11.091  11.091  12.158 -0.6769 -0.7940 -0.2552
  155PROXR   C236147  10.881  11.052  12.203 -0.0345  0.0762  0.6416
  155PROXR  H2136148  10.790  11.113  12.218 -2.2284 -2.6288 -0.7904
  155PROXR   C336149  10.899  10.964  12.334  0.4210  0.2453  0.2837
  155PROXR  H3136150  10.976  10.888  12.308 -0.1772 -0.7201  1.2419
  155PROXR  H3236151  10.934  11.029  12.418 -0.0705  0.9118 -0.0188
  155PROXR  H3336152  10.803  10.925  12.373  0.6189  1.5767  2.2642
  156PROXS   O136153  10.881  10.976  12.084  0.5150 -0.1519  0.2433
  156PROXS   C136154  10.756  10.912  12.064  0.3406  0.4991  0.6709
  156PROXS  H1136155  10.765  10.807  12.099  4.3811  0.4587  0.0858
  156PROXS  H1336156  10.677  10.967  12.120  1.6028  0.6350  2.4214
  156PROXS   C236157  10.727  10.930  11.908 -0.0613 -0.4838 -0.0036
  156PROXS  H2136158  10.808  10.882  11.850  0.0083  0.4263 -0.6875
  156PROXS   C336159  10.719  11.078  11.892 -0.2710 -1.1490 -0.5849
  156PROXS  H3136160  10.641  11.126  11.955  1.1485  1.5003 -0.7144
  156PROXS  H3236161  10.814  11.121  11.929 -0.9087 -0.4956  0.3245
  156PROXS  H3336162  10.701  11.122  11.792 -0.8219 -0.7229 -0.3049
  157PROXS   O136163  10.603  10.872  11.872  0.5995 -0.4937  0.0540
  157PROXS   C136164  10.618  10.736  11.823  0.0489  0.5445  0.3791
  157PROXS  H1136165  10.672  10.739  11.726 -0.8338 -3.8323 -0.4821
  157PROXS  H1336166  10.690  10.681  11.888  2.7021 -0.1652 -2.8768
  157PROXS   C236167  10.481  10.673  11.817  0.4473  0.2338  0.1090
  157PROXS  H2136168  10.411  10.749  11.778 -1.5892 -1.6603 -0.1080
  157PROXS   C336169  10.436  10.615  11.950  0.6402 -0.0286 -1.2506
  157PROXS  H3136170  10.356  10.539  11.937 -1.0425  1.3937  0.4373
  157PROXS  H3236171  10.525  10.560  11.987  1.1242  1.2605 -0.4498
  157PROXS  H3336172  10.396  10.698  12.012  2.1560  0.4458 -0.8589
  158PROXR   O136173  10.497  10.564  11.723  0.0986  0.2130  0.2106
  158PROXR   C136174  10.372  10.542  11.653 -0.1558 -0.3639  0.3801
  158PROXR  H1136175  10.280  10.515  11.710 -0.9033 -0.5117 -0.8474
  158PROXR  H1336176  10.343  10.642  11.614 -0.6764 -1.0224 -0.9961
  158PROXR   C236177  10.390  10.451  11.531 -0.1253  0.7553 -1.1539
  158PROXR  H2136178  10.426  10.353  11.569 -1.3745  1.1497  1.2265
  158PROXR   C336179  10.493  10.510  11.434 -0.5160  0.2492 -0.4478
  158PROXR  H3136180  10.595  10.527  11.474 -0.3198  2.5282 -1.7488
  158PROXR  H3236181  10.511  10.443  11.347  3.7412  0.2927  0.2020
  158PROXR  H3336182  10.465  10.614  11.409  1.9881  1.0557 -0.1440
  159PROXR   O136183  10.258  10.425  11.478 -0.2037  0.3225 -0.5311
  159PROXR   C136184  10.271  10.326  11.370 -0.0419 -0.9266  0.0511
  159PROXR  H1136185  10.277  10.392  11.281  1.5502  0.9758  1.4749
  159PROXR  H1336186  10.369  10.273  11.374  0.7102  0.2946 -1.3097
  159PROXR   C236187  10.154  10.231  11.371  0.0308  0.2314 -0.4598
  159PROXR  H2136188  10.056  10.282  11.367 -0.3193 -0.3798  0.1410
  159PROXR   C336189  10.155  10.150  11.498  0.2639 -0.2565  0.3603
  159PROXR  H3136190  10.159  10.212  11.591  0.0933  1.2410 -0.5925
  159PROXR  H3236191  10.056  10.103  11.519  0.4269 -1.2092 -0.9263
  159PROXR  H3336192  10.233  10.072  11.504  0.2212 -0.3648 -0.4496
  160PROXS   O136193  10.162  10.138  11.266  0.0171  0.2895 -0.0380
  160PROXS   C136194  10.122  10.199  11.141  0.2380  0.1758 -0.1413
  160PROXS  H1136195  10.015  10.208  11.170  0.9092  0.8347  2.4596
  160PROXS  H1336196  10.170  10.296  11.118 -1.2203  0.8848 -0.2921
  160PROXS   C236197  10.155  10.114  11.018 -0.0679 -0.2951  0.2621
  160PROXS  H2136198  10.110  10.014  11.037  2.0841 -0.9842  2.1891
  160PROXS   C336199  10.307  10.095  11.006 -0.2284  0.3242  0.0937
  160PROXS  H3136200  10.355  10.052  10.916  2.5369  0.0196  1.5969
  160PROXS  H3236201  10.360  10.191  11.021  2.0327 -0.6250 -1.3884
  160PROXS  H3336202  10.340  10.021  11.083 -1.0504 -0.8883 -0.6772
  161PROXR   O136203  10.106  10.179  10.900  0.5587 -0.3754  0.8890
  161PROXR   C136204   9.968  10.178  10.892  0.1715  0.6116  0.8232
  161PROXR  H1136205   9.927  10.075  10.900  2.2774 -0.9479 -4.2068
  161PROXR  H1336206   9.924  10.245  10.969 -1.0470  0.4465  0.3009
  161PROXR   C236207   9.914  10.236  10.755  0.2840 -0.0522 -0.0926
  161PROXR  H2136208   9.941  10.161  10.677 -2.0186 -1.0050 -0.0507
  161PROXR   C336209   9.964  10.371  10.710 -0.4386  0.3508 -0.4694
  161PROXR  H3136210   9.914  10.453  10.767  0.0797  0.2594  0.1294
  161PROXR  H3236211  10.075  10.374  10.714 -0.3436 -1.7309 -0.6604
  161PROXR  H3336212   9.929  10.386  10.606 -1.7285  0.6590 -0.0217
  162PROXR   O136213   9.772  10.245  10.760  0.1394 -0.4662  0.7501
  162PROXR   C136214   9.698  10.127  10.764  0.4747  0.4372 -0.2283
  162PROXR  H1136215   9.734  10.059  10.845  0.9392 -1.3155 -1.8394
  162PROXR  H1336216   9.596  10.161  10.788  0.3684  0.9985 -1.4156
  162PROXR   C236217   9.703  10.059  10.625  0.0897  0.0422  0.8275
  162PROXR  H2136218   9.804  10.018  10.605 -0.3626 -0.3592 -0.7869
  162PROXR   C336219   9.670  10.154  10.508  0.4248 -0.1550  0.6226
  162PROXR  H3136220   9.744  10.237  10.509  1.5210 -1.0775 -0.1470
  162PROXR  H3236221   9.672  10.103  10.409  2.3995  0.5011  0.2730
  162PROXR  H3336222   9.571  10.203  10.514 -0.3279 -1.6534  0.8097
  163PROXS   O136223   9.607   9.953  10.618  0.4831 -0.7241 -0.5243
  163PROXS   C136224   9.666   9.823  10.639  0.0321 -0.0947  0.7282
  163PROXS  H1136225   9.741   9.805  10.559 -0.9928  3.1204 -1.1272
  163PROXS  H1336226   9.724   9.802  10.732  1.5524 -1.1981 -0.4146
  163PROXS   C236227   9.563   9.705  10.612 -0.5379 -0.2307 -0.1300
  163PROXS  H2136228   9.518   9.727  10.513  0.5293 -2.3943 -1.1625
  163PROXS   C336229   9.452   9.726  10.711  0.7481 -0.0470 -0.4316
  163PROXS  H3136230   9.490   9.714  10.814  1.7498 -1.1760 -0.9224
  163PROXS  H3236231   9.410   9.828  10.696 -0.3201 -0.7097 -2.2140
  163PROXS  H3336232   9.365   9.660  10.693  1.1237 -0.6392 -0.0975
  164PROXR   O136233   9.630   9.580  10.619  0.2403  0.1434  0.2976
  164PROXR   C136234   9.549   9.477  10.569 -0.6843  0.5680  0.6434
  164PROXR  H1136235   9.577   9.384  10.623  0.4073 -1.5468 -3.1903
  164PROXR  H1336236   9.441   9.488  10.594 -0.7049  0.4527  0.6088
  164PROXR   C236237   9.566   9.453  10.412  0.8332  0.2148  0.6722
  164PROXR  H2136238   9.561   9.344  10.392 -0.7244  0.3102  0.4408
  164PROXR   C336239   9.693   9.511  10.360  0.0530 -0.2915 -0.3705
  164PROXR  H3136240   9.693   9.619  10.385 -1.5276 -0.3871  0.1503
  164PROXR  H3236241   9.772   9.452  10.412 -0.2390 -0.5355 -0.2046
  164PROXR  H3336242   9.713   9.493  10.252  1.2541 -0.6846 -0.1034
  165PROXR   O136243   9.459   9.521  10.347  0.5218 -0.3386 -0.3472
  165PROXR   C136244   9.337   9.456  10.356 -0.3568 -0.3828  1.0223
  165PROXR  H1136245   9.344   9.356  10.307  0.7322  0.7676 -1.3184
  165PROXR  H1336246   9.311   9.422  10.459  2.3387 -3.0382  0.9547
  165PROXR   C236247   9.230   9.547  10.294  0.2034 -0.3100  0.6556
  165PROXR  H2136248   9.278   9.610  10.216 -1.1876  1.4528  1.1402
  165PROXR   C336249   9.173   9.635  10.400 -0.3346 -0.3587  0.1663
  165PROXR  H3136250   9.258   9.697  10.436 -1.5726 -0.4748  3.5826
  165PROXR  H3236251   9.089   9.700  10.367 -1.1892 -0.9520  1.1232
  165PROXR  H3336252   9.145   9.584  10.494  2.5654 -1.2417  0.6481
  166ETHOX   O136253   9.123   9.475  10.234 -0.1432 -0.0428  0.4677
  166ETHOX   C136254   9.160   9.410  10.106 -0.6914 -0.1435 -0.9517
  166ETHOX  H1136255   9.236   9.332  10.125 -0.0170  1.2741  3.1389
  166ETHOX  H1336256   9.210   9.490  10.046 -1.4419 -0.6806 -2.3317
  166ETHOX   C236257   9.049   9.350  10.020  0.6688  0.3631  0.9850
  166ETHOX  H2136258   8.990   9.270  10.070 -2.4662  1.6901 -0.3040
  166ETHOX  H2336259   9.087   9.314   9.922 -0.6343 -0.0438  0.5976
  167ETHOX   O136260   8.950   9.459  10.004  0.3230 -0.3123  0.5722
  167ETHOX   C136261   8.833   9.424   9.930  0.7306 -0.9941  0.2341
  167ETHOX  H1136262   8.848   9.348   9.851  0.6028  0.7665 -1.5821
  167ETHOX  H1336263   8.765   9.368   9.996 -1.3381  0.2503 -0.7327
  167ETHOX   C236264   8.772   9.549   9.878 -0.7434 -0.8634 -0.2578
  167ETHOX  H2136265   8.760   9.626   9.958  2.7667 -0.2894 -0.1100
  167ETHOX  H2336266   8.675   9.526   9.831 -1.7459 -1.1799  1.8350
  168ETHOX   O136267   8.840   9.598   9.761  0.5030 -0.1198 -0.0986
  168ETHOX   C136268   8.832   9.742   9.737 -0.0315 -0.4560 -0.4391
  168ETHOX  H1136269   8.851   9.791   9.835 -1.3471 -1.7692  0.5148
  168ETHOX  H1336270   8.735   9.773   9.692  0.2298 -0.6906 -1.1823
  168ETHOX   C236271   8.941   9.783   9.639 -0.7328  0.0231  0.3263
  168ETHOX  H2136272   8.902   9.877   9.596  0.2591  0.2058 -0.2082
  168ETHOX  H2336273   8.949   9.717   9.550  1.2036  2.3990 -1.3679
  169ETHOX   O136274   9.068   9.817   9.697 -0.3584  0.2865 -0.2528
  169ETHOX   C136275   9.175   9.814   9.595  0.4165 -0.8961  0.3926
  169ETHOX  H1136276   9.279   9.832   9.630  0.1369  1.4375  0.1390
  169ETHOX  H1336277   9.170   9.715   9.545 -2.7436 -0.3466 -0.5997
  169ETHOX   C236278   9.161   9.935   9.488 -0.7307  0.1151  0.1936
  169ETHOX  H2136279   9.076   9.919   9.419 -1.3333  0.7780  0.7725
  169ETHOX  H2336280   9.253   9.920   9.428 -0.7269 -1.4441  0.5322
  170ETHOX   O136281   9.160  10.070   9.547  0.1069 -0.0408 -0.5869
  170ETHOX   C136282   9.093  10.162   9.458  0.0034 -0.6874 -0.5291
  170ETHOX  H1136283   8.985  10.153   9.481 -0.6852  2.0716 -2.1997
  170ETHOX  H1336284   9.120  10.136   9.353  0.9100 -1.3916 -0.1345
  170ETHOX   C236285   9.131  10.306   9.495  0.4295  0.9735  0.0476
  170ETHOX  H2136286   9.157  10.298   9.603  1.2003 -0.9900 -0.2352
  170ETHOX  H2336287   9.046  10.376   9.494 -1.2109 -0.7842  2.9725
  171ETHOX   O136288   9.242  10.358   9.419 -0.3577 -0.0985 -0.1223
  171ETHOX   C136289   9.229  10.497   9.396 -0.4865 -0.2866 -0.3930
  171ETHOX  H1136290   9.124  10.532   9.402  0.0913  1.4115  1.1769
  171ETHOX  H1336291   9.287  10.550   9.475  0.0756 -0.3869 -0.7313
  171ETHOX   C236292   9.276  10.540   9.257  0.2229 -0.2311 -0.2652
  171ETHOX  H2136293   9.356  10.474   9.217 -3.1468 -3.9173 -1.6162
  171ETHOX  H2336294   9.311  10.645   9.261 -2.2512  0.6417  0.2928
  172ETHOX   O136295   9.164  10.526   9.169 -0.5737  0.9480  0.3152
  172ETHOX   C136296   9.134  10.393   9.127  0.4340  0.2709 -1.2917
  172ETHOX  H1136297   9.057  10.358   9.198  0.8691  0.4493 -0.7266
  172ETHOX  H1336298   9.216  10.317   9.131 -0.2084 -0.4847 -1.9745
  172ETHOX   C236299   9.064  10.398   8.995 -0.0693 -0.4451  0.1427
  172ETHOX  H2136300   8.973  10.459   9.011  1.6385  1.9035  1.4275
  172ETHOX  H2336301   9.024  10.295   8.979 -0.5605 -0.0504 -1.3123
  173ETHOX   O136302   9.137  10.421   8.881 -0.6009 -0.0588 -0.8034
  173ETHOX   C136303   9.086  10.516   8.797  0.7925 -0.5018  0.0761
  173ETHOX  H1136304   9.002  10.481   8.734  0.1567  0.3544  0.4231
  173ETHOX  H1336305   9.057  10.600   8.864  0.5101 -1.2681  0.9402
  173ETHOX   C236306   9.197  10.553   8.689  0.4533  0.0407 -0.9375
  173ETHOX  H2136307   9.156  10.642   8.636  0.5172 -0.1185 -1.2586
  173ETHOX  H2336308   9.296  10.567   8.736  2.1885  0.1088 -4.3180
  174ETHOX   O136309   9.206  10.449   8.592 -0.0990 -0.0742 -0.3029
  174ETHOX   C136310   9.288  10.482   8.480  0.5254  0.4617 -0.0642
  174ETHOX  H1136311   9.248  10.561   8.414  0.6868  1.2474  0.7621
  174ETHOX  H1336312   9.386  10.515   8.518  1.2523 -0.2625 -1.2481
  174ETHOX   C236313   9.321  10.368   8.382  0.3821 -0.5469  0.0324
  174ETHOX  H2136314   9.361  10.413   8.289 -0.0005  1.0925  0.6293
  174ETHOX  H2336315   9.228  10.312   8.357 -0.1697  0.1043  0.5991
  175ETHOX   O136316   9.423  10.281   8.433 -0.4462  0.0605  0.2647
  175ETHOX   C136317   9.416  10.158   8.365 -0.1172 -0.2029  1.0684
  175ETHOX  H1136318   9.320  10.103   8.361  1.4864 -3.1308 -2.3391
  175ETHOX  H1336319   9.447  10.172   8.260  2.4535 -1.4773  1.5880
  175ETHOX   C236320   9.525  10.062   8.422  0.0418 -0.3905 -1.3340
  175ETHOX  H2136321   9.620  10.120   8.423 -0.7261  0.9049 -1.2632
  175ETHOX  H2336322   9.515   9.981   8.347 -2.7057 -1.5837  0.1670
  176ETHOX   O136323   9.502   9.990   8.546 -0.0414 -0.5013  0.4286
  176ETHOX   C136324   9.596   9.878   8.558 -0.4943  0.4935  0.3726
  176ETHOX  H1136325   9.579   9.813   8.469  0.9792  0.7304 -0.1172
  176ETHOX  H1336326   9.697   9.923   8.556 -0.2125 -0.0035  2.0755
  176ETHOX   C236327   9.581   9.805   8.694 -0.1990 -1.2540  0.2096
  176ETHOX  H2136328   9.639   9.711   8.680  1.0493 -0.2323 -1.8672
  176ETHOX  H2336329   9.479   9.773   8.725  0.2096  0.2097  3.4867
  177ETHOX   O136330   9.642   9.878   8.809 -0.0182  0.2338  0.0724
  177ETHOX   C136331   9.557   9.984   8.857  0.4421  0.2366  0.2064
  177ETHOX  H1136332   9.451   9.955   8.842  0.3881  0.9225 -0.9349
  177ETHOX  H1336333   9.577  10.076   8.798 -1.3165  0.2906 -0.3634
  177ETHOX   C236334   9.579  10.009   9.010  0.1978 -1.3744  0.7204
  177ETHOX  H2136335   9.521  10.100   9.035 -0.6368 -1.3577 -1.0994
  177ETHOX  H2336336   9.687  10.023   9.030  0.3094 -1.2196  0.0423
  178ETHOX   O136337   9.547   9.890   9.077 -0.1053  0.3281 -0.3499
  178ETHOX   C136338   9.545   9.907   9.214  0.0173  0.0572 -0.2672
  178ETHOX  H1136339   9.644   9.949   9.240  0.0730  1.2065 -2.1332
  178ETHOX  H1336340   9.464   9.981   9.233  0.8267  0.9374 -0.1904
  178ETHOX   C236341   9.514   9.778   9.298 -0.4546  0.2210  0.0008
  178ETHOX  H2136342   9.540   9.798   9.404 -1.5257  1.9837 -0.0287
  178ETHOX  H2336343   9.582   9.695   9.270  0.7100  0.0542  2.9195
  179ETHOX   O136344   9.375   9.747   9.272 -0.3174  0.1851  0.3263
  179ETHOX   C136345   9.334   9.611   9.309 -0.2770 -0.5159 -0.1980
  179ETHOX  H1136346   9.346   9.602   9.419 -0.6486  1.0591 -0.0152
  179ETHOX  H1336347   9.398   9.536   9.257  0.6512  0.0166  0.1689
  179ETHOX   C236348   9.186   9.587   9.266  0.1170 -0.3564  0.5376
  179ETHOX  H2136349   9.118   9.666   9.304  0.9149  0.4697  0.2883
  179ETHOX  H2336350   9.152   9.497   9.323 -0.1236  0.1676  1.2407
  180ETHOX   O136351   9.183   9.579   9.120  0.3192 -0.3973 -0.0345
  180ETHOX   C136352   9.147   9.702   9.064  1.7139  0.0533  0.0612
  180ETHOX  H1136353   9.044   9.723   9.101  2.2506  0.4105  1.3885
  180ETHOX  H1336354   9.208   9.784   9.106  3.1962 -1.0066  0.0333
  180ETHOX   C236355   9.151   9.703   8.910  0.3330  0.5552  0.2822
  180ETHOX  H2136356   9.075   9.632   8.872  0.4012 -1.2261  3.2029
  180ETHOX  H2336357   9.243   9.653   8.873  1.6239  2.9672  0.0556
  181ETHOX   O136358   9.156   9.825   8.830 -0.3285 -0.1068 -0.3151
  181ETHOX   C136359   9.131   9.803   8.691  0.6174  0.5680 -0.4574
  181ETHOX  H1136360   9.033   9.751   8.683  0.4891  0.6027  0.7571
  181ETHOX  H1336361   9.202   9.724   8.658 -1.8659 -1.2895 -1.7193
  181ETHOX   C236362   9.130   9.921   8.606  0.1743  0.3415 -0.0780
  181ETHOX  H2136363   9.119   9.896   8.498 -1.2601 -0.2098  0.1667
  181ETHOX  H2336364   9.225   9.978   8.599  1.0040 -0.8831  0.6740
  182ETHOX   O136365   9.030  10.012   8.644 -0.1554  0.3212 -0.0540
  182ETHOX   C136366   9.027  10.127   8.566 -0.3206  0.1424 -0.4537
  182ETHOX  H1136367   9.126  10.177   8.572 -0.0864 -0.2949 -0.6242
  182ETHOX  H1336368   8.999  10.101   8.462 -1.3562 -0.0656 -0.1330
  182ETHOX   C236369   8.901  10.202   8.614  0.2527 -0.0656 -0.1054
  182ETHOX  H2136370   8.907  10.299   8.560  2.7793 -0.0518  0.0582
  182ETHOX  H2336371   8.908  10.229   8.721 -2.2400  1.7356 -0.2893
  183ETHOX   O136372   8.784  10.130   8.584  0.1233 -0.0423  0.8035
  183ETHOX   C136373   8.663  10.193   8.631 -0.2391 -0.3253 -0.3761
  183ETHOX  H1136374   8.657  10.289   8.575  0.1286  0.0374  0.1890
  183ETHOX  H1336375   8.664  10.209   8.741  1.2158 -0.8316 -0.2983
  183ETHOX   C236376   8.539  10.106   8.592  0.1265 -0.8983 -0.0555
  183ETHOX  H2136377   8.532  10.079   8.484 -1.3829  0.6515 -0.3773
  183ETHOX  H2336378   8.466  10.183   8.623  0.6206 -0.1658 -0.6571
  184ETHOX   O136379   8.514   9.990   8.665  0.4601 -0.2174  0.2932
  184ETHOX   C136380   8.383   9.934   8.654  0.4809 -0.2766  0.2986
  184ETHOX  H1136381   8.308   9.998   8.705  0.5286 -1.8486  2.4445
  184ETHOX  H1336382   8.352   9.925   8.547  0.1085 -0.1597  0.3937
  184ETHOX   C236383   8.380   9.795   8.715 -0.8053  0.4302  1.0244
  184ETHOX  H2136384   8.273   9.766   8.720 -0.3277 -1.3520  1.6634
  184ETHOX  H2336385   8.423   9.801   8.817 -2.2001  1.0405  1.6125
  185ETHOX   O136386   8.453   9.707   8.633  0.4070 -0.2334  0.5085
  185ETHOX   C136387   8.487   9.589   8.704 -0.3466  0.4485  0.0464
  185ETHOX  H1136388   8.533   9.621   8.800 -1.5313  1.4365  0.3020
  185ETHOX  H1336389   8.395   9.527   8.717 -0.5718  0.7510 -0.1053
  185ETHOX   C236390   8.590   9.517   8.614  0.6513 -0.7029  0.4041
  185ETHOX  H2136391   8.646   9.599   8.565  1.0214  0.7000  2.9909
  185ETHOX  H2336392   8.530   9.452   8.547  0.7366 -0.8091  0.4305
  186ETHOX   O136393   8.686   9.453   8.699  0.5296  1.0362  0.5083
  186ETHOX   C136394   8.626   9.333   8.762 -0.4023  0.7017  0.2021
  186ETHOX  H1136395   8.539   9.366   8.823 -1.0408 -0.4667 -0.0633
  186ETHOX  H1336396   8.581   9.259   8.693 -0.1839 -0.9417  1.7407
  186ETHOX   C236397   8.730   9.261   8.850 -0.0862 -1.0450  0.9719
  186ETHOX  H2136398   8.821   9.233   8.793 -1.2481 -0.8391 -1.0710
  186ETHOX  H2336399   8.678   9.169   8.886  0.4005 -0.9971  1.8327
  187ETHOX   O136400   8.762   9.351   8.961  0.2751 -0.4342  0.6739
  187ETHOX   C136401   8.885   9.313   9.023  0.0854  0.1686 -0.1208
  187ETHOX  H1136402   8.864   9.213   9.066  1.3152 -0.2685 -0.4831
  187ETHOX  H1336403   8.970   9.310   8.951 -0.8128 -3.7217 -1.2616
  187ETHOX   C236404   8.907   9.412   9.135  0.2658  0.6104  0.5722
  187ETHOX  H2136405   8.902   9.512   9.087  0.4309  1.2091  1.7911
  187ETHOX  H2336406   9.006   9.397   9.182 -0.2849  1.0625  1.9229
  188ETHOX   O136407   8.810   9.394   9.244 -0.3265 -0.5830  0.4031
  188ETHOX   C136408   8.843   9.489   9.346 -0.0248 -0.1705  0.1895
  188ETHOX  H1136409   8.856   9.588   9.298 -1.9780  1.0837  2.0591
  188ETHOX  H1336410   8.930   9.453   9.405  0.2640  0.3542  0.0795
  188ETHOX   C236411   8.734   9.492   9.446  0.6948  0.2264 -0.5986
  188ETHOX  H2136412   8.767   9.540   9.541 -0.2928  0.7893 -0.5253
  188ETHOX  H2336413   8.709   9.386   9.466  2.6663 -0.2350 -0.3489
  189ETHOX   O136414   8.617   9.560   9.417 -0.4299 -0.0030 -0.3247
  189ETHOX   C136415   8.506   9.528   9.504  0.5322 -0.0159 -0.1739
  189ETHOX  H1136416   8.487   9.419   9.506 -0.4292  0.1541  0.4598
  189ETHOX  H1336417   8.526   9.562   9.608 -0.7020 -1.4788  0.5832
  189ETHOX   C236418   8.374   9.595   9.457  0.2081  0.1836  0.4541
  189ETHOX  H2136419   8.285   9.543   9.498 -0.5734  0.8279 -0.3964
  189ETHOX  H2336420   8.368   9.580   9.347  0.4826  0.3843  0.4096
  190ETHOX   O136421   8.374   9.732   9.497 -0.6001 -0.1697 -0.5581
  190ETHOX   C136422   8.276   9.809   9.437  0.2782 -0.0829  0.5411
  190ETHOX  H1136423   8.197   9.744   9.392  0.3029  0.4139 -0.2382
  190ETHOX  H1336424   8.323   9.871   9.358 -0.2193  0.8753  0.9822
  190ETHOX   C236425   8.202   9.905   9.525 -0.1719  0.2891 -0.0342
  190ETHOX  H2136426   8.151   9.832   9.591  2.3860 -1.2192  0.3986
  190ETHOX  H2336427   8.133   9.957   9.455  1.7112  3.0831 -0.0124
  191ETHOX   O136428   8.289   9.995   9.598 -0.4748  0.2067  0.0279
  191ETHOX   C136429   8.222  10.065   9.693  0.6727  0.4025 -0.5660
  191ETHOX  H1136430   8.124  10.022   9.726  0.3526  1.3057 -0.2921
  191ETHOX  H1336431   8.292  10.056   9.778 -1.1992 -0.7313  0.9617
  191ETHOX   C236432   8.205  10.207   9.643  0.1110 -0.3932  0.0490
  191ETHOX  H2136433   8.304  10.245   9.610 -0.8909  3.5666  1.1209
  191ETHOX  H2336434   8.180  10.270   9.731  0.0147 -1.4017  0.7583
  192ETHOX   O136435   8.107  10.219   9.540  0.4325  0.0716 -0.2703
  192ETHOX   C136436   8.077  10.357   9.503 -0.0029 -0.2127  0.4101
  192ETHOX  H1136437   8.167  10.414   9.474  0.9881 -2.1495 -0.5539
  192ETHOX  H1336438   8.038  10.408   9.593 -0.0167  1.7647 -0.6619
  192ETHOX   C236439   7.975  10.361   9.386 -0.5321 -0.4882  0.6369
  192ETHOX  H2136440   7.924  10.460   9.384  1.9785  0.9145  0.9918
  192ETHOX  H2336441   7.896  10.286   9.407 -2.2246  1.2828  0.9475
  193ETHOX   O136442   8.035  10.336   9.253  0.6874 -0.2336 -0.1866
  193ETHOX   C136443   7.932  10.279   9.167 -0.0564  0.3541 -0.3373
  193ETHOX  H1136444   7.872  10.207   9.228  1.1740  0.8991  1.6433
  193ETHOX  H1336445   7.863  10.359   9.135 -1.0956 -0.2646  0.2846
  193ETHOX   C236446   7.996  10.200   9.047 -0.5917 -0.0748 -1.1320
  193ETHOX  H2136447   8.062  10.265   8.985 -0.8921 -0.0862 -1.4735
  193ETHOX  H2336448   7.919  10.148   8.986  0.4425 -2.8825 -0.1823
  194ETHOX   O136449   8.076  10.098   9.099  0.2448 -0.3346 -0.4257
  194ETHOX   C136450   8.163  10.043   9.006 -1.1876 -0.0552  0.3093
  194ETHOX  H1136451   8.233  10.122   8.970 -1.0524  2.2386  4.8983
  194ETHOX  H1336452   8.110  10.001   8.917 -1.3530 -1.0432  0.8621
  194ETHOX   C236453   8.251   9.924   9.050 -0.2842 -0.5068 -0.2347
  194ETHOX  H2136454   8.278   9.954   9.153  0.1260 -1.9399  0.0899
  194ETHOX  H2336455   8.345   9.912   8.992 -1.1117 -3.1325 -1.1753
  195ETHOX   O136456   8.183   9.803   9.060  0.0134 -0.8468 -0.3893
  195ETHOX   C136457   8.271   9.698   9.089 -0.1976 -0.3199  0.2282
  195ETHOX  H1136458   8.341   9.696   9.003 -0.8985 -0.0923 -0.3550
  195ETHOX  H1336459   8.317   9.704   9.190  0.7417 -0.5195 -0.1789
  195ETHOX   C236460   8.200   9.562   9.078 -0.0255  0.7265  0.1492
  195ETHOX  H2136461   8.115   9.560   9.149 -2.3528 -0.0975 -2.4827
  195ETHOX  H2336462   8.268   9.482   9.116 -0.7315 -0.4278 -0.9302
  196ETHOX   O136463   8.161   9.533   8.945  0.6212  0.1320 -0.1268
  196ETHOX   C136464   8.079   9.413   8.932 -0.1683  0.2034 -0.8839
  196ETHOX  H1136465   8.127   9.319   8.965  0.9653  0.2289 -2.3760
  196ETHOX  H1336466   7.990   9.430   8.997  0.3406 -0.4288  0.0039
  196ETHOX   C236467   8.029   9.388   8.793  0.1257 -0.3313  0.5892
  196ETHOX  H2136468   7.969   9.467   8.745  1.3933 -0.9187 -2.1434
  196ETHOX  H2336469   7.954   9.306   8.789 -1.3259  0.9755  0.0490
  197ETHOX   O136470   8.148   9.361   8.713  0.5290  0.3374  0.1351
  197ETHOX   C136471   8.120   9.372   8.574  0.1389  0.0502 -0.3250
  197ETHOX  H1136472   8.021   9.328   8.551  0.1729  0.8864 -2.3237
  197ETHOX  H1336473   8.106   9.477   8.539 -0.0027  0.0397 -0.3032
  197ETHOX   C236474   8.235   9.317   8.491  0.3256  0.7662 -0.7443
  197ETHOX  H2136475   8.332   9.354   8.531  0.9420 -0.4154 -1.0891
  197ETHOX  H2336476   8.219   9.343   8.384  0.3365  1.1623 -0.6502
  198ETHOX   O136477   8.232   9.174   8.509 -0.0123  0.1220  0.7220
  198ETHOX   C136478   8.322   9.118   8.415 -0.2237  0.7164  0.1425
  198ETHOX  H1136479   8.281   9.095   8.314  0.4309  2.3892 -0.5449
  198ETHOX  H1336480   8.408   9.186   8.393  0.1830 -0.0566 -0.7509
  198ETHOX   C236481   8.393   8.992   8.459  0.1860 -0.4433  0.7003
  198ETHOX  H2136482   8.445   8.951   8.370  0.2436  2.8997 -0.9945
  198ETHOX  H2336483   8.319   8.912   8.481  0.6973 -0.9542  0.5570
  199ETHOX   O136484   8.489   9.008   8.567  0.0737 -0.3196  0.1974
  199ETHOX   C136485   8.513   8.880   8.628  0.4160  0.0756  1.1149
  199ETHOX  H1136486   8.555   8.817   8.547  0.7316  1.4848  0.1297
  199ETHOX  H1336487   8.412   8.841   8.654  0.3883 -0.0976  0.7577
  199ETHOX   C236488   8.599   8.871   8.756 -0.1298  0.3385 -0.4784
  199ETHOX  H2136489   8.586   8.767   8.792 -0.3824  0.8399  0.9545
  199ETHOX  H2336490   8.553   8.931   8.837  2.2423  0.4253  0.9099
  200ETHOX   O136491   8.736   8.903   8.740  0.2915 -0.0384 -0.3363
  200ETHOX   C136492   8.808   8.876   8.858  0.2716 -0.9592 -0.3845
  200ETHOX  H1136493   8.772   8.958   8.924 -0.8580 -0.8894 -1.0727
  200ETHOX  H1336494   8.784   8.779   8.907 -0.7073 -0.3339  0.4228
  200ETHOX   C236495   8.959   8.903   8.851 -0.0545  0.9189  0.5457
  200ETHOX  H2136496   8.998   8.862   8.755  0.6794  1.8239  0.4458
  200ETHOX  H2336497   9.010   8.858   8.938 -1.7343  0.0981  1.1516
  201ETHOX   O136498   8.994   9.037   8.859 -0.9071  0.4667  0.1046
  201ETHOX   C136499   9.121   9.069   8.791  0.3363 -0.0339 -0.3520
  201ETHOX  H1136500   9.099   9.084   8.683 -2.1127  1.8173  0.3087
  201ETHOX  H1336501   9.186   8.979   8.798 -0.2098 -0.3126  1.4688
  201ETHOX   C236502   9.198   9.197   8.845  0.0224  0.4652  0.3135
  201ETHOX  H2136503   9.126   9.279   8.826 -1.1714 -0.3378  1.1981
  201ETHOX  H2336504   9.291   9.211   8.785  0.7046 -0.7003  1.0482
  202ETHOX   O136505   9.238   9.180   8.983  0.4246  0.2403  0.6043
  202ETHOX   C136506   9.300   9.287   9.046 -0.7164 -0.1977  0.5020
  202ETHOX  H1136507   9.291   9.389   9.003 -0.2505 -0.0191  0.8363
  202ETHOX  H1336508   9.265   9.278   9.151  1.0589 -1.6066  1.0086
  202ETHOX   C236509   9.456   9.276   9.052 -0.1975 -0.5025 -0.0446
  202ETHOX  H2136510   9.493   9.181   9.096 -1.1581 -0.8449  0.0535
  202ETHOX  H2336511   9.485   9.357   9.121 -2.6748 -0.0006  0.5246
  203ETHOX   O136512   9.528   9.298   8.935  1.2172 -0.1821 -0.1885
  203ETHOX   C136513   9.665   9.269   8.961 -0.0289 -0.5653 -0.2350
  203ETHOX  H1136514   9.676   9.159   8.969  2.1723 -0.2623  2.9336
  203ETHOX  H1336515   9.701   9.311   9.058 -0.1150  1.6978 -1.1135
  203ETHOX   C236516   9.767   9.319   8.855  0.4629  0.2958  0.7509
  203ETHOX  H2136517   9.753   9.429   8.846  0.2099  0.3153  1.3850
  203ETHOX  H2336518   9.750   9.272   8.756  0.1896  1.4584  0.2258
  204ETHOX   O136519   9.899   9.296   8.912  0.1515  0.0192  0.0235
  204ETHOX   C136520   9.928   9.161   8.933 -0.1726  0.7206 -0.7483
  204ETHOX  H1136521   9.861   9.121   9.012  0.1751  3.2816  0.9458
  204ETHOX  H1336522   9.920   9.100   8.840  0.0075  0.6369 -0.7100
  204ETHOX   C236523  10.071   9.146   8.975  0.4187 -0.5571 -0.5807
  204ETHOX  H2136524  10.128   9.207   8.902 -1.3467  0.8473 -0.8586
  204ETHOX  H2336525  10.099   9.042   8.949 -0.6749 -0.8886 -0.4478
  205ETHOX   O136526  10.118   9.165   9.111  0.4647 -0.4070 -0.5010
  205ETHOX   C136527  10.246   9.121   9.130 -0.1093 -0.5180 -0.3097
  205ETHOX  H1136528  10.307   9.164   9.047 -0.6572 -1.4285 -1.2148
  205ETHOX  H1336529  10.249   9.010   9.120  0.6288 -0.5085 -0.2488
  205ETHOX   C236530  10.296   9.159   9.270  0.0545  0.5445  0.1382
  205ETHOX  H2136531  10.385   9.095   9.293  0.6176  0.9558 -0.8311
  205ETHOX  H2336532  10.213   9.151   9.343  2.6854 -1.8041  3.2097
  206ETHOX   O136533  10.340   9.293   9.283 -0.7018 -0.5752 -0.2484
  206ETHOX   C136534  10.375   9.330   9.418  0.1112  0.6719 -0.2496
  206ETHOX  H1136535  10.282   9.320   9.478  0.3046 -0.8570 -0.1486
  206ETHOX  H1336536  10.449   9.253   9.447  0.4792  0.4316 -1.7301
  206ETHOX   C236537  10.434   9.467   9.423 -0.5875  0.5236 -0.6371
  206ETHOX  H2136538  10.466   9.486   9.527 -0.6688  2.1449 -0.8897
  206ETHOX  H2336539  10.517   9.467   9.349 -0.0821  2.1910 -0.0940
  207ETHOX   O136540  10.344   9.566   9.397 -0.6948  0.0526  0.3976
  207ETHOX   C136541  10.380   9.699   9.436 -0.1802  0.7598  0.6041
  207ETHOX  H1136542  10.436   9.749   9.355  0.5403 -1.1670 -0.1568
  207ETHOX  H1336543  10.435   9.691   9.532 -0.5415 -0.0968  0.7466
  207ETHOX   C236544  10.245   9.772   9.472 -0.0503  0.0337  0.1003
  207ETHOX  H2136545  10.189   9.703   9.540 -2.0735  1.2971 -0.2149
  207ETHOX  H2336546  10.190   9.796   9.379  3.2904  1.4897 -1.6809
  208ETHOX   O136547  10.283   9.884   9.548  0.5759 -0.5823 -0.6367
  208ETHOX   C136548  10.166   9.931   9.619 -0.2433 -0.1555 -0.4945
  208ETHOX  H1136549  10.082   9.938   9.546 -1.8988  0.0970  1.3778
  208ETHOX  H1336550  10.140   9.850   9.690  1.2808 -0.7506 -0.5629
  208ETHOX   C236551  10.189  10.068   9.695 -0.1370 -0.5273  0.1331
  208ETHOX  H2136552  10.098  10.104   9.748 -1.6354 -2.0147 -1.2728
  208ETHOX  H2336553  10.230  10.149   9.631  0.0489 -0.1473  0.7309
  209ETHOX   O136554  10.282  10.039   9.805 -0.2815  0.1764  0.1097
  209ETHOX   C136555  10.322  10.158   9.870  0.0645 -0.2664  0.4899
  209ETHOX  H1136556  10.236  10.210   9.919 -1.8420 -0.8064 -2.0533
  209ETHOX  H1336557  10.370  10.228   9.799 -0.5421 -1.1661 -0.8475
  209ETHOX   C236558  10.420  10.120   9.982  0.2105 -0.3560  0.3530
  209ETHOX  H2136559  10.515  10.080   9.940 -0.0234 -0.2497 -0.2844
  209ETHOX  H2336560  10.360  10.056  10.050 -1.7141 -0.3640 -1.2464
  210ETHOX   O136561  10.459  10.245  10.041  0.0923  0.2646  0.1651
  210ETHOX   C136562  10.574  10.228  10.127 -0.1175 -0.0688  0.2307
  210ETHOX  H1136563  10.658  10.177  10.075  2.1133  0.7622  2.7565
  210ETHOX  H1336564  10.604  10.333  10.148 -0.8644  0.6887 -2.1259
  210ETHOX   C236565  10.557  10.164  10.269  0.1556  0.0889  0.6793
  210ETHOX  H2136566  10.455  10.188  10.304 -0.2277 -0.1726 -0.2357
  210ETHOX  H2336567  10.629  10.199  10.346  0.4152 -1.2301  1.0589
  211ETHOX   O136568  10.565  10.025  10.258  0.0426  0.4176 -0.0246
  211ETHOX   C136569  10.468   9.957  10.338  0.6392  0.3291  0.8457
  211ETHOX  H1136570  10.470   9.993  10.443  0.9127  0.6048  0.7484
  211ETHOX  H1336571  10.370   9.993  10.299  0.8626  0.6188  0.5378
  211ETHOX   C236572  10.492   9.807  10.330 -0.2885 -0.1622 -0.3210
  211ETHOX  H2136573  10.586   9.791  10.386 -1.5903 -1.2767  1.6521
  211ETHOX  H2336574  10.484   9.765  10.227 -2.9471 -2.4444  0.6834
  212ETHOX   O136575  10.387   9.750  10.405  0.2519 -0.4224 -0.1359
  212ETHOX   C136576  10.407   9.607  10.423  0.0080 -0.1989 -0.6686
  212ETHOX  H1136577  10.437   9.550  10.333 -2.9371 -4.1618  0.6195
  212ETHOX  H1336578  10.485   9.607  10.502 -0.5842 -0.3852 -0.0723
  212ETHOX   C236579  10.278   9.554  10.469  0.2740 -0.6198 -0.0662
  212ETHOX  H2136580  10.217   9.617  10.537  0.8032  1.8570 -1.7330
  212ETHOX  H2336581  10.292   9.455  10.516  0.7113 -0.9599 -0.8921
  213ETHOX   O136582  10.194   9.535  10.354 -0.3319 -0.0647 -0.5322
  213ETHOX   C136583  10.060   9.572  10.375  0.6256 -0.0782 -0.9800
  213ETHOX  H1136584  10.004   9.495  10.319 -0.1564 -0.6069  0.4610
  213ETHOX  H1336585  10.027   9.570  10.481  0.7834  1.4664 -0.8821
  213ETHOX   C236586  10.026   9.695  10.296 -0.0035  0.6433 -0.2543
  213ETHOX  H2136587  10.085   9.782  10.331 -1.6124  0.7812  2.3317
  213ETHOX  H2336588   9.922   9.730  10.311 -0.3202 -0.5942  0.6208
  214ETHOX   O136589  10.040   9.673  10.156 -0.1725  0.8222 -0.1680
  214ETHOX   C136590  10.164   9.735  10.118  0.4970 -0.4646 -0.3537
  214ETHOX  H1136591  10.250   9.690  10.173 -0.0911 -1.5413 -0.2951
  214ETHOX  H1336592  10.154   9.842  10.149 -2.1351 -0.6285 -0.4531
  214ETHOX   C236593  10.185   9.742   9.969  0.5205 -0.9867  0.0924
  214ETHOX  H2136594  10.243   9.833   9.942 -2.7046  0.7551 -1.4700
  214ETHOX  H2336595  10.086   9.758   9.922  0.5318 -1.8088 -0.2344
  215ETHOX   O136596  10.229   9.619   9.914  0.2954 -0.0046 -0.0141
  215ETHOX   C136597  10.371   9.617   9.908 -0.2273  0.4307  0.3585
  215ETHOX  H1136598  10.394   9.696   9.833 -0.9220  0.6999  0.4196
  215ETHOX  H1336599  10.416   9.622  10.009 -3.7826 -0.8830  2.1801
  215ETHOX   C236600  10.431   9.482   9.841 -0.0186 -0.6743  0.0334
  215ETHOX  H2136601  10.539   9.489   9.813 -0.5250 -1.6216 -2.3674
  215ETHOX  H2336602  10.373   9.471   9.747 -0.6578  3.7051 -0.3001
  216ETHOX   O136603  10.430   9.365   9.930  0.0314 -0.4191  0.7601
  216ETHOX   C136604  10.516   9.262   9.880 -0.1001  0.0294 -0.6363
  216ETHOX  H1136605  10.612   9.299   9.838 -0.8592  1.5208 -1.1652
  216ETHOX  H1336606  10.468   9.201   9.800 -0.7715 -0.1566 -0.1029
  216ETHOX   C236607  10.543   9.163   9.993 -0.8135 -0.4014 -0.6306
  216ETHOX  H2136608  10.450   9.111  10.027 -1.3217  1.1274  0.4238
  216ETHOX  H2336609  10.567   9.233  10.075 -1.5524 -0.3138 -0.4747
  217ETHOX   O136610  10.650   9.083   9.952 -0.2602  0.4077 -0.2585
  217ETHOX   C136611  10.733   9.030  10.061 -0.7077 -0.8303 -0.2006
  217ETHOX  H1136612  10.782   9.110  10.121 -1.3677  0.3796 -1.2088
  217ETHOX  H1336613  10.654   8.975  10.116 -1.6262  0.8402  0.2178
  217ETHOX   C236614  10.831   8.925  10.020 -0.7946  0.5782 -0.3874
  217ETHOX  H2136615  10.761   8.846   9.984 -3.5107  2.5874  0.1607
  217ETHOX  H2336616  10.882   8.911  10.117 -1.8629  2.4723  0.5064
  218ETHOX   O136617  10.930   8.965   9.921 -0.0345  0.0223 -0.0751
  218ETHOX   C136618  11.010   8.854   9.886 -0.3867 -0.4161 -0.2980
  218ETHOX  H1136619  11.067   8.804   9.966  0.0727 -0.2122 -0.4962
  218ETHOX  H1336620  11.088   8.895   9.819 -1.4098 -0.4877 -1.5987
  218ETHOX   C236621  10.941   8.753   9.791 -0.5871 -0.0060 -0.3823
  218ETHOX  H2136622  10.854   8.705   9.840 -2.6991  2.5511 -1.3232
  218ETHOX  H2336623  11.022   8.681   9.766 -1.3634 -1.1925  0.4445
  219ETHOX   O136624  10.895   8.815   9.676 -0.0856 -0.2037  0.2342
  219ETHOX   C136625  10.877   8.721   9.573 -0.0282 -0.2147 -0.0270
  219ETHOX  H1136626  10.836   8.770   9.482  0.8099  0.1902 -0.1941
  219ETHOX  H1336627  10.976   8.694   9.533 -0.5050 -0.0262 -1.3681
  219ETHOX   C236628  10.792   8.596   9.609 -0.6720 -0.0939  0.2867
  219ETHOX  H2136629  10.850   8.531   9.678 -2.1783  0.1145  1.8084
  219ETHOX  H2336630  10.779   8.537   9.516 -0.3018 -0.8367  0.6919
  220ETHOX   O136631  10.667   8.624   9.656  0.0663 -0.3279 -0.1262
  220ETHOX   C136632  10.613   8.529   9.750  0.1023 -0.3345 -0.2435
  220ETHOX  H1136633  10.694   8.495   9.819 -0.5010 -2.3813 -0.4561
  220ETHOX  H1336634  10.608   8.445   9.677  0.1553  2.2734 -3.5115
  220ETHOX   C236635  10.484   8.572   9.825  0.2314  0.5962 -0.0571
  220ETHOX  H2136636  10.441   8.486   9.881  1.2762  0.2510  0.2395
  220ETHOX  H2336637  10.409   8.606   9.750  0.3108 -0.4003 -0.6087
  221ETHOX   O136638  10.523   8.676   9.911  0.2010 -0.2814 -0.1987
  221ETHOX   C136639  10.434   8.790   9.903  0.2408 -0.4473 -0.0570
  221ETHOX  H1136640  10.474   8.869   9.970 -1.7980  1.1200 -0.6048
  221ETHOX  H1336641  10.429   8.826   9.798  0.7448 -2.1679 -0.7060
  221ETHOX   C236642  10.291   8.758   9.963 -0.4571  0.3537 -0.3017
  221ETHOX  H2136643  10.232   8.683   9.906 -1.4747 -0.2469  1.4263
  221ETHOX  H2336644  10.234   8.852   9.950 -3.4751 -1.4504 -1.3032
  222ETHOX   O136645  10.316   8.718  10.099 -0.3569 -0.3285 -0.4195
  222ETHOX   C136646  10.191   8.685  10.159 -0.8914 -0.2496 -0.1593
  222ETHOX  H1136647  10.189   8.720  10.264  0.1402  1.8301 -0.7594
  222ETHOX  H1336648  10.118   8.750  10.105  0.0736  0.6037 -0.4798
  222ETHOX   C236649  10.168   8.540  10.139 -0.0595 -0.3192  0.2478
  222ETHOX  H2136650  10.162   8.511  10.032  0.8371  0.6072 -0.0754
  222ETHOX  H2336651  10.071   8.501  10.175  0.8891 -1.9683  1.1271
  223ETHOX   O136652  10.280   8.474  10.199  0.0455 -0.0800 -0.0350
  223ETHOX   C136653  10.271   8.334  10.186  0.2406 -0.6275 -0.2185
  223ETHOX  H1136654  10.211   8.314  10.094  1.3984  0.5724 -1.2705
  223ETHOX  H1336655  10.375   8.294  10.181  0.9360  0.8144  1.6190
  223ETHOX   C236656  10.203   8.256  10.301 -0.3083 -0.3592 -0.6141
  223ETHOX  H2136657  10.233   8.298  10.400  0.9987 -1.5051 -0.4977
  223ETHOX  H2336658  10.233   8.149  10.293 -2.2286 -0.9176 -0.7842
  224ETHOX   O136659  10.063   8.264  10.298  0.0684  0.1069  0.3764
  224ETHOX   C136660   9.990   8.204  10.404 -0.2463 -0.0850  0.3631
  224ETHOX  H1136661  10.026   8.100  10.422 -0.6739 -0.8906 -2.8013
  224ETHOX  H1336662  10.004   8.266  10.496 -2.4847  0.7739  0.1755
  224ETHOX   C236663   9.842   8.213  10.358  0.5094 -0.2121 -0.1236
  224ETHOX  H2136664   9.825   8.317  10.322  0.2316  0.0385  0.7015
  224ETHOX  H2336665   9.775   8.187  10.443  1.1283 -0.2647  0.3515
  225ETHOX   O136666   9.814   8.132  10.247 -0.0948 -0.8824  0.3563
  225ETHOX   C136667   9.674   8.115  10.223  0.6123  0.8187  0.3911
  225ETHOX  H1136668   9.623   8.126  10.321 -1.1246  0.9445 -0.4964
  225ETHOX  H1336669   9.653   8.014  10.183 -1.6266  0.9807  1.0494
  225ETHOX   C236670   9.608   8.216  10.130 -0.6236  0.2057  0.0289
  225ETHOX  H2136671   9.593   8.311  10.185 -2.3936  0.4217 -0.7419
  225ETHOX  H2336672   9.503   8.190  10.103 -0.3564  1.6049 -2.7463
  226ETHOX   O136673   9.665   8.234  10.001  0.2118 -0.0458 -0.1645
  226ETHOX   C136674   9.575   8.247   9.896  0.5749 -0.0410  0.5492
  226ETHOX  H1136675   9.512   8.156   9.887  0.6665  0.1360 -3.9350
  226ETHOX  H1336676   9.506   8.328   9.927  0.7148  0.7232 -1.0654
  226ETHOX   C236677   9.653   8.268   9.773  0.0825 -0.2011  0.3122
  226ETHOX  H2136678   9.733   8.193   9.756  0.4378  0.5415 -1.5263
  226ETHOX  H2336679   9.710   8.364   9.779  0.7845 -0.4933 -1.2236
  227ETHOX   O136680   9.569   8.267   9.660 -0.4990  0.0824  0.1042
  227ETHOX   C136681   9.645   8.277   9.539  0.2821  0.0157 -0.1903
  227ETHOX  H1136682   9.718   8.193   9.529  1.1186  0.8097 -0.9764
  227ETHOX  H1336683   9.703   8.371   9.553  0.3520 -0.1198  0.5072
  227ETHOX   C236684   9.555   8.287   9.410 -0.5581 -0.5481  0.2212
  227ETHOX  H2136685   9.492   8.197   9.392 -2.3617  0.9254 -1.1914
  227ETHOX  H2336686   9.622   8.295   9.322 -0.2139 -1.3867  0.3962
  228ETHOX   O136687   9.471   8.403   9.398 -0.0051 -0.1046  0.1848
  228ETHOX   C136688   9.349   8.365   9.330  0.0928 -0.0997  0.3763
  228ETHOX  H1136689   9.373   8.313   9.235  0.8323  1.5557 -0.3924
  228ETHOX  H1336690   9.285   8.296   9.389 -2.0844 -0.6566 -2.4145
  228ETHOX   C236691   9.266   8.492   9.289 -0.0188  0.4705 -0.7790
  228ETHOX  H2136692   9.251   8.554   9.379 -0.4317 -0.8095  0.0717
  228ETHOX  H2336693   9.168   8.463   9.245 -0.7821  0.7321  0.7185
  229ETHOX   O136694   9.337   8.559   9.182  0.4357 -0.2061 -0.1455
  229ETHOX   C136695   9.254   8.651   9.106  0.5243  0.2987 -0.6957
  229ETHOX  H1136696   9.200   8.714   9.180 -1.2353  1.0910 -2.5319
  229ETHOX  H1336697   9.178   8.595   9.046 -0.3530 -1.1708  1.6490
  229ETHOX   C236698   9.332   8.739   9.004 -0.7420  0.7257 -0.1522
  229ETHOX  H2136699   9.418   8.782   9.059 -1.6365  0.9953  1.0918
  229ETHOX  H2336700   9.262   8.821   8.974  1.1033  2.7522  0.7902
  230ETHOX   O136701   9.379   8.664   8.894  0.5477 -0.1493 -0.5665
  230ETHOX   C136702   9.496   8.711   8.830 -0.4412 -0.0537  0.1848
  230ETHOX  H1136703   9.583   8.718   8.899 -2.1015 -0.6487  2.4663
  230ETHOX  H1336704   9.521   8.630   8.759 -2.4778 -0.2538 -0.3567
  230ETHOX   C236705   9.467   8.830   8.734  0.0416 -0.2497  0.3930
  230ETHOX  H2136706   9.553   8.815   8.665  0.6277 -0.0006  1.0620
  230ETHOX  H2336707   9.464   8.926   8.789  0.5192 -0.8039  1.4274
  231ETHOX   O136708   9.348   8.821   8.654 -0.1301  0.0930  0.0077
  231ETHOX   C136709   9.373   8.911   8.541  0.3599 -0.5164 -0.2074
  231ETHOX  H1136710   9.466   8.873   8.494  0.8205 -0.0684  0.3366
  231ETHOX  H1336711   9.389   9.015   8.576 -1.0126 -0.0098 -1.0059
  231ETHOX   C236712   9.269   8.918   8.427  0.7543 -0.7210 -0.1752
  231ETHOX  H2136713   9.243   8.815   8.394  2.3063 -0.4591 -2.4577
  231ETHOX  H2336714   9.313   8.964   8.336  0.5941 -0.5869 -0.1863
  232ETHOX   O136715   9.149   8.998   8.459  0.0367  0.3760 -0.4247
  232ETHOX   C136716   9.021   8.931   8.447  0.1666  0.3080  0.2240
  232ETHOX  H1136717   9.011   8.883   8.347  0.9161  0.1169  0.2350
  232ETHOX  H1336718   9.019   8.845   8.518 -0.2035 -0.7871 -1.0600
  232ETHOX   C236719   8.900   9.009   8.481 -0.2847  0.5437  0.7619
  232ETHOX  H2136720   8.886   9.027   8.589  0.3454 -2.2798  1.4087
  232ETHOX  H2336721   8.807   8.953   8.455 -0.2802  0.4570  0.9342
  233ETHOX   O136722   8.891   9.130   8.406  0.0364  0.2438  0.0794
  233ETHOX   C136723   8.757   9.173   8.418  0.1059 -0.7205  0.0130
  233ETHOX  H1136724   8.675   9.117   8.368 -1.4408  2.0031 -0.7453
  233ETHOX  H1336725   8.732   9.185   8.526  0.0084  0.8796 -0.1656
  233ETHOX   C236726   8.753   9.313   8.353  0.5010 -0.0604 -0.8285
  233ETHOX  H2136727   8.821   9.306   8.266  3.0761  0.1948  1.0350
  233ETHOX  H2336728   8.798   9.384   8.426 -0.6687 -0.0003 -0.1393
  234ETHOX   O136729   8.630   9.360   8.310  0.1736 -0.0783 -0.1792
  234ETHOX   C136730   8.629   9.499   8.276 -0.6504  0.0480  0.0300
  234ETHOX  H1136731   8.676   9.556   8.358  0.8830  1.6983 -1.9118
  234ETHOX  H1336732   8.686   9.515   8.182 -0.7170 -1.7366 -0.3625
  234ETHOX   C236733   8.485   9.563   8.267 -0.3562 -0.5290 -0.2239
  234ETHOX  H2136734   8.496   9.673   8.278  1.4273 -0.5300 -1.5634
  234ETHOX  H2336735   8.428   9.525   8.355 -1.6068 -0.0145 -0.7952
  235ETHOX   O136736   8.427   9.534   8.143 -0.2708  0.9811 -0.1498
  235ETHOX   C136737   8.311   9.612   8.121 -0.3743 -0.4052 -0.6115
  235ETHOX  H1136738   8.311   9.711   8.171  1.2027  0.2520 -1.8519
  235ETHOX  H1336739   8.312   9.634   8.013 -1.5512  0.2411 -0.5113
  235ETHOX   C236740   8.182   9.529   8.153  1.0565 -0.1520 -0.0545
  235ETHOX  H2136741   8.207   9.421   8.159 -3.0051 -1.2878 -0.5604
  235ETHOX  H2336742   8.104   9.523   8.074  0.0801  0.0335  0.8716
  236ETHOX   O136743   8.132   9.567   8.281  0.2078 -0.2257  0.3855
  236ETHOX   C136744   8.052   9.682   8.276 -0.2821 -0.4726 -0.6032
  236ETHOX  H1136745   7.966   9.670   8.206 -0.8485 -0.5491  0.0953
  236ETHOX  H1336746   8.105   9.770   8.236 -1.5893  1.3020  1.3867
  236ETHOX   C236747   8.003   9.717   8.417  0.0179 -0.2408  0.4622
  236ETHOX  H2136748   7.952   9.816   8.417 -1.5281 -0.9471  2.8132
  236ETHOX  H2336749   8.087   9.738   8.487  0.2739  0.6072 -0.0747
  237ETHOX   O136750   7.900   9.633   8.466  0.2327 -0.5271 -0.3716
  237ETHOX   C136751   7.843   9.680   8.587 -0.1275 -0.0692  0.4790
  237ETHOX  H1136752   7.916   9.657   8.668 -0.6340  0.5229  1.1153
  237ETHOX  H1336753   7.815   9.788   8.580 -0.8982 -0.2846  0.0778
  237ETHOX   C236754   7.713   9.603   8.615 -0.1649 -0.2865  0.0680
  237ETHOX  H2136755   7.636   9.638   8.543 -0.7506 -0.6898  0.4867
  237ETHOX  H2336756   7.676   9.617   8.719  1.0590 -2.1086  0.7923
  238ETHOX   O136757   7.738   9.463   8.585 -0.1736  0.3007 -0.1437
  238ETHOX   C136758   7.682   9.378   8.671 -0.2700 -0.4622 -0.2199
  238ETHOX  H1136759   7.574   9.401   8.687  0.4460  4.2746 -0.9214
  238ETHOX  H1336760   7.730   9.411   8.765  0.0519 -0.5413 -0.3568
  238ETHOX   C236761   7.705   9.232   8.638 -0.6164  0.2884 -0.3328
  238ETHOX  H2136762   7.673   9.153   8.710  0.5125 -0.5063 -0.6674
  238ETHOX  H2336763   7.815   9.224   8.625 -0.4155 -0.5257  1.6286
  239ETHOX   O136764   7.651   9.196   8.511 -0.2369  0.4521  0.5368
  239ETHOX   C136765   7.605   9.057   8.500  0.4576  0.6452  0.6885
  239ETHOX  H1136766   7.680   8.987   8.542  0.8934  0.4273 -0.4294
  239ETHOX  H1336767   7.523   9.032   8.571 -0.0331 -0.7118 -0.3214
  239ETHOX   C236768   7.583   9.015   8.355 -0.5795 -0.3950 -0.2933
  239ETHOX  H2136769   7.669   9.023   8.286  0.0192  1.2715  0.5701
  239ETHOX  H2336770   7.578   8.905   8.363 -2.6419 -0.2179  1.9001
  240ETHOX   O136771   7.472   9.067   8.283  0.7066 -0.2067  0.0752
  240ETHOX   C136772   7.346   9.021   8.341 -0.0369 -0.7102  0.8181
  240ETHOX  H1136773   7.351   9.038   8.450  1.3627  2.3448  0.3905
  240ETHOX  H1336774   7.348   8.911   8.329  0.5851 -0.6443  0.2562
  240ETHOX   C236775   7.231   9.087   8.265 -0.0670 -0.4743  0.2508
  240ETHOX  H2136776   7.141   9.023   8.278  1.4672 -2.4603  1.7212
  240ETHOX  H2336777   7.248   9.072   8.156  1.6984 -0.7273  0.5353
  241ETHOX   O136778   7.210   9.232   8.309 -0.2081  0.1598 -0.0696
  241ETHOX   C136779   7.142   9.314   8.215  0.0974 -0.2667 -0.3460
  241ETHOX  H1136780   7.193   9.307   8.116 -0.1035 -0.8908 -0.4069
  241ETHOX  H1336781   7.037   9.277   8.208 -0.3439  0.9923 -0.8183
  241ETHOX   C236782   7.140   9.460   8.256 -0.2838 -0.3968  0.3367
  241ETHOX  H2136783   7.072   9.518   8.190  1.1856 -0.2735 -1.1148
  241ETHOX  H2336784   7.243   9.497   8.274 -1.2074  2.6571 -0.0469
  242ETHOX   O136785   7.076   9.468   8.385 -0.4029  0.0926 -0.3275
  242ETHOX   C136786   7.099   9.596   8.438 -0.5685  0.3261 -0.0587
  242ETHOX  H1136787   7.000   9.644   8.454 -0.8199 -0.3506  0.4706
  242ETHOX  H1336788   7.174   9.657   8.383  0.9410 -2.0414 -0.7473
  242ETHOX   C236789   7.170   9.562   8.570  0.4851 -0.0620  0.9263
  242ETHOX  H2136790   7.219   9.655   8.606 -0.5138  1.1241 -0.6833
  242ETHOX  H2336791   7.254   9.501   8.530  1.5085  2.6590 -1.4698
  243ETHOX   O136792   7.094   9.501   8.672 -0.0879  0.5546  0.8686
  243ETHOX   C136793   7.169   9.435   8.773  0.0077  0.0384  0.2959
  243ETHOX  H1136794   7.221   9.352   8.720  0.0004  0.3127 -0.1539
  243ETHOX  H1336795   7.233   9.515   8.816  0.4132 -0.6054  0.8860
  243ETHOX   C236796   7.078   9.359   8.873  0.2264 -0.9071  0.0222
  243ETHOX  H2136797   7.140   9.270   8.901  1.7659  0.4630  1.1814
  243ETHOX  H2336798   7.005   9.315   8.802  1.1485 -0.0541 -1.5178
  244ETHOX   O136799   7.027   9.427   8.992 -0.2171  0.2311  0.6087
  244ETHOX   C136800   6.927   9.525   8.962 -0.7605 -0.2709  0.4371
  244ETHOX  H1136801   6.828   9.475   8.957 -0.6634 -0.4978  0.7096
  244ETHOX  H1336802   6.949   9.592   8.877 -1.1704  0.1492  0.6565
  244ETHOX   C236803   6.922   9.632   9.075 -0.7714  0.0334  0.6474
  244ETHOX  H2136804   6.939   9.580   9.172 -0.3857  0.9199  1.0671
  244ETHOX  H2336805   6.821   9.675   9.055 -1.2590 -2.1080 -2.1710
  245ETHOX   O136806   7.019   9.742   9.062 -0.0692  0.0936 -0.2665
  245ETHOX   C136807   7.146   9.695   9.095 -0.6707 -0.3036 -0.1189
  245ETHOX  H1136808   7.155   9.664   9.201 -1.2512  0.7504  0.2634
  245ETHOX  H1336809   7.178   9.606   9.037  0.5253 -1.0619  1.6375
  245ETHOX   C236810   7.246   9.809   9.075  0.2137 -0.1333 -0.0667
  245ETHOX  H2136811   7.336   9.801   9.139 -1.2434  0.5592  2.1921
  245ETHOX  H2336812   7.200   9.907   9.097 -1.9541 -1.0759 -0.0694
  246ETHOX   O136813   7.292   9.786   8.939 -0.0416 -0.0553  0.1103
  246ETHOX   C136814   7.358   9.902   8.893  0.3371 -0.5323  0.3906
  246ETHOX  H1136815   7.434   9.926   8.971 -2.1093  2.4623  2.0302
  246ETHOX  H1336816   7.288   9.988   8.895  1.6844  0.6256  2.5774
  246ETHOX   C236817   7.415   9.881   8.751  0.0291  0.4059 -0.4074
  246ETHOX  H2136818   7.473   9.787   8.736  2.3148  1.5831  0.5908
  246ETHOX  H2336819   7.483   9.967   8.737  0.6276  0.0230  0.1127
  247ETHOX   O136820   7.304   9.897   8.664  0.0755 -0.6590 -0.1964
  247ETHOX   C136821   7.348   9.911   8.525 -0.1622 -0.2196  0.4464
  247ETHOX  H1136822   7.436   9.854   8.489 -0.8579 -1.0271 -0.0015
  247ETHOX  H1336823   7.260   9.884   8.463 -0.9008  0.3172  1.2352
  247ETHOX   C236824   7.363  10.064   8.507  0.4492  0.1376  0.8753
  247ETHOX  H2136825   7.312  10.081   8.410  3.1348  2.9747 -0.2219
  247ETHOX  H2336826   7.306  10.117   8.586 -2.4149  2.5542 -2.5028
  248ETHOX   O136827   7.498  10.111   8.502  0.0519 -0.6872 -0.2134
  248ETHOX   C136828   7.490  10.253   8.489 -0.4283  0.1154 -0.1667
  248ETHOX  H1136829   7.418  10.291   8.413  0.4328  1.4235 -0.3653
  248ETHOX  H1336830   7.447  10.278   8.588  2.4120 -1.0013  1.4466
  248ETHOX   C236831   7.627  10.323   8.469  0.2997  0.4938 -0.3606
  248ETHOX  H2136832   7.609  10.433   8.463  1.5276  0.8747  1.8156
  248ETHOX  H2336833   7.670  10.292   8.372 -1.3957  0.3442 -1.0895
  249ETHOX   O136834   7.728  10.314   8.574  0.3902  0.1553  0.0714
  249ETHOX   C136835   7.679  10.358   8.696  0.5229 -0.1665  0.3735
  249ETHOX  H1136836   7.601  10.436   8.680  2.1932  1.0701 -2.3285
  249ETHOX  H1336837   7.634  10.266   8.740  0.5173 -0.2592  0.1752
  249ETHOX   C236838   7.783  10.400   8.792 -0.2940 -0.3018  0.0520
  249ETHOX  H2136839   7.848  10.314   8.816 -1.1141 -0.7253  0.8038
  249ETHOX  H2336840   7.751  10.425   8.895  0.6477  3.3742 -0.4234
  250ETHOX   O136841   7.859  10.508   8.740 -0.0934 -0.3352  0.0636
  250ETHOX   C136842   7.993  10.496   8.785 -0.0098 -0.1916  0.5530
  250ETHOX  H1136843   7.994  10.493   8.896 -1.5364  5.1874  0.9525
  250ETHOX  H1336844   8.035  10.397   8.755  0.1465 -0.7368  2.4436
  250ETHOX   C236845   8.103  10.600   8.748  0.2468  0.0460  0.4994
  250ETHOX  H2136846   8.099  10.610   8.637 -2.2123 -0.1890  0.5320
  250ETHOX  H2336847   8.201  10.551   8.771  0.7286  0.4565 -0.5994
  251ETHOX   O136848   8.085  10.723   8.816  0.3742  0.0212 -0.4528
  251ETHOX   C136849   7.993  10.807   8.747  0.0794  0.0690 -0.2453
  251ETHOX  H1136850   7.894  10.767   8.774  1.0926 -4.0880 -1.9574
  251ETHOX  H1336851   7.997  10.795   8.637 -1.6864 -2.6452 -0.1093
  251ETHOX   C236852   8.002  10.963   8.775  0.1714  0.3040 -0.6082
  251ETHOX  H2136853   7.991  10.962   8.885  1.2689 -0.2339 -0.4939
  251ETHOX  H2336854   7.914  11.021   8.739  1.7296  1.4455 -2.7970
  252ETHOX   O136855   8.115  11.039   8.732  0.6389  0.3785  0.3348
  252ETHOX   C136856   8.091  11.177   8.738  0.6579 -0.2677 -0.2737
  252ETHOX  H1136857   7.990  11.206   8.700  0.5204  0.1371  0.3731
  252ETHOX  H1336858   8.068  11.201   8.844 -0.3812 -0.0660 -0.5287
  252ETHOX   C236859   8.200  11.270   8.684  0.4681  0.2986 -0.1984
  252ETHOX  H2136860   8.295  11.254   8.740  0.8052 -2.4497 -1.4149
  252ETHOX  H2336861   8.160  11.367   8.720 -0.0118 -0.7406  2.3169
  253ETHOX   O136862   8.221  11.277   8.543 -0.1311  0.1483  0.2460
  253ETHOX   C136863   8.237  11.149   8.486  0.0191 -0.5623  0.1927
  253ETHOX  H1136864   8.149  11.083   8.501  0.4174 -0.8497  1.3159
  253ETHOX  H1336865   8.332  11.110   8.527  0.7123 -2.5471 -2.9919
  253ETHOX   C236866   8.272  11.183   8.341 -0.2034  0.1732  0.1306
  253ETHOX  H2136867   8.328  11.101   8.292  1.8063  0.0000  2.5160
  253ETHOX  H2336868   8.342  11.268   8.348  0.7515 -0.7505  4.1174
  254ETHOX   O136869   8.158  11.220   8.266  0.4335 -0.1311  0.1385
  254ETHOX   C136870   8.192  11.309   8.161 -0.2993  0.2380 -0.1014
  254ETHOX  H1136871   8.246  11.397   8.201  4.0864 -1.8737 -0.7283
  254ETHOX  H1336872   8.259  11.255   8.091  0.1660  0.2927  0.2929
  254ETHOX   C236873   8.064  11.350   8.095 -0.5710  0.2439  0.2332
  254ETHOX  H2136874   8.096  11.440   8.039  1.6830 -0.5730  0.1053
  254ETHOX  H2336875   7.984  11.390   8.161 -0.8438  0.8221 -0.4346
  255ETHOX   O136876   8.018  11.255   8.000 -0.2971  0.9660  0.4117
  255ETHOX   C136877   7.966  11.133   8.053 -0.3549  0.6923  0.4710
  255ETHOX  H1136878   7.886  11.153   8.128  1.2260  0.1239  2.4127
  255ETHOX  H1336879   8.051  11.083   8.105 -1.4466 -0.5827  1.0967
  255ETHOX   C236880   7.908  11.028   7.949 -0.8724 -0.6632  0.3741
  255ETHOX  H2136881   7.851  11.088   7.876 -0.9157 -0.1664  0.8079
  255ETHOX  H2336882   7.842  10.958   8.004 -1.8866  0.1596  0.2279
  256ETHOX   O136883   8.009  10.968   7.871 -0.0163  0.0362 -0.6371
  256ETHOX   C136884   7.963  10.850   7.810 -0.0822  0.4807 -0.2925
  256ETHOX  H1136885   7.943  10.782   7.895  2.3266 -0.0167 -0.0367
  256ETHOX  H1336886   7.877  10.870   7.744  0.4562  1.5306 -0.7016
  256ETHOX   C236887   8.070  10.775   7.733  0.0371  0.8061 -0.0199
  256ETHOX  H2136888   8.046  10.666   7.729 -1.1712  1.0080  0.9081
  256ETHOX  H2336889   8.170  10.799   7.775  0.1725 -0.4739  0.4326
  257ETHOX   O136890   8.064  10.823   7.600 -0.0533  0.2364 -0.2991
  257ETHOX   C136891   8.168  10.772   7.520  0.3269 -0.1416 -0.0435
  257ETHOX  H1136892   8.160  10.662   7.507  2.1968 -0.0729 -2.6853
  257ETHOX  H1336893   8.269  10.785   7.565 -0.1232  1.5550  0.5711
  257ETHOX   C236894   8.167  10.828   7.377  0.7692  0.5592 -1.1852
  257ETHOX  H2136895   8.259  10.798   7.322  1.4463 -1.3779  0.8487
  257ETHOX  H2336896   8.163  10.937   7.397 -0.7900  0.4123 -0.5768
  258ETHOX   O136897   8.043  10.789   7.313  0.0880  0.1482  0.1721
  258ETHOX   C136898   8.017  10.872   7.206 -0.5070 -0.1025 -0.3917
  258ETHOX  H1136899   7.985  10.971   7.246  2.8212  0.8486  0.2927
  258ETHOX  H1336900   8.102  10.900   7.140 -0.2139 -3.0014 -1.3746
  258ETHOX   C236901   7.915  10.799   7.114 -0.4781 -0.1756 -0.9121
  258ETHOX  H2136902   7.873  10.876   7.047  0.0435 -0.7067 -1.8667
  258ETHOX  H2336903   7.834  10.747   7.170 -2.1063  0.6557 -2.4289
  259ETHOX   O136904   7.954  10.698   7.020  0.1523  0.5100 -0.3930
  259ETHOX   C136905   7.863  10.686   6.914 -0.5139 -0.8254  0.1188
  259ETHOX  H1136906   7.769  10.649   6.962 -0.1724  0.0020  1.4709
  259ETHOX  H1336907   7.847  10.787   6.869  2.8921 -0.0490  0.3910
  259ETHOX   C236908   7.902  10.593   6.797 -0.2044  0.3921  0.2356
  259ETHOX  H2136909   7.819  10.587   6.724  0.0429  1.8112 -0.1935
  259ETHOX  H2336910   7.916  10.493   6.843  1.4153  0.2002 -0.6008
  260ETHOX   O136911   8.023  10.634   6.729  0.4338 -0.8195 -0.1294
  260ETHOX   C136912   8.021  10.577   6.598  0.6231 -0.2676  0.4895
  260ETHOX  H1136913   7.969  10.479   6.599 -0.1388  0.1179 -0.2953
  260ETHOX  H1336914   7.946  10.647   6.556 -0.0840  0.2222  2.4392
  260ETHOX   C236915   8.157  10.585   6.531 -0.7565 -0.0451 -0.1424
  260ETHOX  H2136916   8.209  10.679   6.560  1.7489 -1.1667 -0.7324
  260ETHOX  H2336917   8.134  10.588   6.422  0.8049 -2.2222 -0.6018
  261ETHOX   O136918   8.230  10.466   6.555 -0.3244 -0.5750 -0.6107
  261ETHOX   C136919   8.358  10.463   6.501 -0.2474  0.4640 -0.4290
  261ETHOX  H1136920   8.428  10.539   6.543  1.0357 -0.9981  0.1574
  261ETHOX  H1336921   8.397  10.366   6.538  0.1353  0.3418 -1.1456
  261ETHOX   C236922   8.362  10.453   6.351  0.4438  0.3197 -0.2503
  261ETHOX  H2136923   8.379  10.557   6.314 -1.5410  1.7025  2.3743
  261ETHOX  H2336924   8.267  10.413   6.312  1.5870 -1.2305 -1.5529
  262ETHOX   O136925   8.463  10.362   6.317 -0.2492 -0.2091  0.2034
  262ETHOX   C136926   8.506  10.387   6.188 -0.2983  0.7686  0.7230
  262ETHOX  H1136927   8.421  10.412   6.120  0.5658  0.0898 -0.6537
  262ETHOX  H1336928   8.529  10.285   6.151 -1.3732  0.5695  0.5677
  262ETHOX   C236929   8.621  10.479   6.179 -0.5740 -0.5068  0.4051
  262ETHOX  H2136930   8.675  10.480   6.082 -0.4646  1.4416  0.4369
  262ETHOX  H2336931   8.695  10.465   6.261 -0.3260  0.0282  0.2758
  263ETHOX   O136932   8.563  10.615   6.179  0.0750 -0.4801  0.0563
  263ETHOX   C136933   8.635  10.717   6.253 -0.4843  0.0033  0.1900
  263ETHOX  H1136934   8.725  10.740   6.193 -2.7647  0.1539 -3.4947
  263ETHOX  H1336935   8.675  10.663   6.342 -0.1327 -0.1068 -0.0322
  263ETHOX   C236936   8.548  10.832   6.317  0.0009 -0.2140 -0.0870
  263ETHOX  H2136937   8.603  10.900   6.386  0.6332  0.2155 -0.9944
  263ETHOX  H2336938   8.473  10.784   6.383  1.7447 -1.1304  1.3261
  264ETHOX   O136939   8.472  10.908   6.218 -0.5435  0.6711  0.2954
  264ETHOX   C136940   8.406  11.016   6.276  0.2264 -0.3202 -0.6988
  264ETHOX  H1136941   8.467  11.101   6.314 -1.0080  0.3546 -0.1287
  264ETHOX  H1336942   8.335  10.967   6.346 -2.0296  0.8001 -2.0617
  264ETHOX   C236943   8.313  11.073   6.180 -0.1300  0.0058  0.0449
  264ETHOX  H2136944   8.231  11.126   6.233 -0.3190 -2.0120  1.8892
  264ETHOX  H2336945   8.267  10.991   6.121  0.0195 -1.1333  1.4596
  265ETHOX   O136946   8.372  11.166   6.089  0.3064  0.0148  0.6198
  265ETHOX   C136947   8.276  11.231   6.014 -0.7884 -0.1179  0.6395
  265ETHOX  H1136948   8.224  11.156   5.951 -2.7570 -1.8836  4.1031
  265ETHOX  H1336949   8.210  11.288   6.083 -3.7775 -1.3139 -1.0456
  265ETHOX   C236950   8.350  11.335   5.926 -0.6984  0.2614 -0.4593
  265ETHOX  H2136951   8.427  11.394   5.981 -3.3642  2.9830  0.6776
  265ETHOX  H2336952   8.275  11.407   5.888 -1.0806  0.1378  0.0412
  265ETHOX   OZ36953   8.393  11.260   5.809  0.1378 -0.6319 -0.4464
  265ETHOX  HZ136954   8.486  11.285   5.799  0.4422 -1.8517 -0.8335
    1ETHOX   O136955  16.212  17.017   7.975 -0.3770  0.2905  0.3825
    1ETHOX  HO136956  16.146  17.087   7.973 -0.1212  0.5368 -1.9242
    1ETHOX   C136957  16.177  16.934   8.087 -0.1614 -0.7663 -0.0833
    1ETHOX  H1136958  16.070  16.906   8.100 -0.0267 -1.4215 -0.3079
    1ETHOX  H1336959  16.219  16.976   8.180 -0.8900 -0.6499  0.2048
    1ETHOX   C236960  16.257  16.803   8.073  0.2122 -0.0247  0.6858
    1ETHOX  H2136961  16.237  16.750   7.978  0.7164  1.6332 -0.3997
    1ETHOX  H2336962  16.226  16.726   8.146  0.2426 -0.1193  0.5974
    2ETHOX   O136963  16.393  16.841   8.103  0.8443 -0.4448 -0.4655
    2ETHOX   C136964  16.491  16.755   8.055  0.2066  0.6649  0.1787
    2ETHOX  H1136965  16.468  16.647   8.047  3.4220 -0.0828 -0.5757
    2ETHOX  H1336966  16.504  16.808   7.958 -1.3637  1.8090  0.5609
    2ETHOX   C236967  16.617  16.770   8.146  0.0512  0.0043  0.3844
    2ETHOX  H2136968  16.641  16.875   8.173  0.9885 -0.1853  0.2961
    2ETHOX  H2336969  16.702  16.717   8.098 -0.8270  2.0918 -3.9292
    3ETHOX   O136970  16.587  16.701   8.264  0.2819 -0.4126 -0.4873
    3ETHOX   C136971  16.702  16.696   8.351  0.6954  0.5228 -0.8227
    3ETHOX  H1136972  16.755  16.793   8.355  0.3330  0.7631 -1.6654
    3ETHOX  H1336973  16.763  16.609   8.320 -0.1376 -1.2618  2.0634
    3ETHOX   C236974  16.659  16.655   8.500  0.5519 -0.4080  0.3625
    3ETHOX  H2136975  16.756  16.644   8.553  0.1939 -1.1921  0.8729
    3ETHOX  H2336976  16.600  16.561   8.499  0.8462 -0.6673 -2.6964
    4ETHOX   O136977  16.588  16.760   8.569  0.3193  0.3753  0.3635
    4ETHOX   C136978  16.600  16.753   8.710  0.2094 -0.9820  0.2058
    4ETHOX  H1136979  16.548  16.661   8.743  2.4589 -1.4517  2.8864
    4ETHOX  H1336980  16.706  16.750   8.744  0.3998 -1.3864 -0.4209
    4ETHOX   C236981  16.544  16.891   8.753  0.0932  1.0143 -0.2191
    4ETHOX  H2136982  16.547  16.903   8.863 -0.7848 -0.2196 -0.0386
    4ETHOX  H2336983  16.440  16.907   8.719 -0.5753 -0.6990  0.8805
    5ETHOX   O136984  16.630  16.996   8.708 -0.1619 -0.3233 -0.2538
    5ETHOX   C136985  16.605  17.123   8.773 -0.0388  0.5527 -0.4781
    5ETHOX  H1136986  16.500  17.158   8.760 -0.3707  0.6431  1.9276
    5ETHOX  H1336987  16.623  17.107   8.881 -0.1570  0.0583 -0.5325
    5ETHOX   C236988  16.696  17.238   8.736 -0.6305  0.7391  0.4519
    5ETHOX  H2136989  16.661  17.334   8.779 -0.6907 -0.4928  3.3607
    5ETHOX  H2336990  16.695  17.261   8.627  3.0682  2.2886  0.5997
    6ETHOX   O136991  16.820  17.215   8.798 -0.4688 -0.1659  0.1471
    6ETHOX   C136992  16.902  17.331   8.772 -0.2044  0.0144  0.2932
    6ETHOX  H1136993  16.895  17.357   8.664  1.2986  1.0932  0.4178
    6ETHOX  H1336994  16.871  17.411   8.843 -2.3502 -0.7995  0.3559
    6ETHOX   C236995  17.049  17.309   8.812  0.6300  0.0892  0.0578
    6ETHOX  H2136996  17.103  17.395   8.769  0.0802  0.2347 -0.3524
    6ETHOX  H2336997  17.074  17.215   8.759  0.7858 -1.4070  2.5862
    7ETHOX   O136998  17.090  17.296   8.945  0.6403  0.1690 -0.4904
    7ETHOX   C136999  17.227  17.265   8.954 -0.9557  0.0192 -0.3909
    7ETHOX  H1137000  17.288  17.310   8.874  1.4920 -1.4468  0.5341
    7ETHOX  H1337001  17.272  17.290   9.053 -0.9945  0.2685 -0.4373
    7ETHOX   C237002  17.249  17.112   8.951  0.0462 -0.8190  0.6902
    7ETHOX  H2137003  17.360  17.105   8.954  0.0831 -1.9403 -1.6173
    7ETHOX  H2337004  17.201  17.065   8.863 -0.2339  0.5458  0.0996
    8ETHOX   O137005  17.194  17.060   9.078 -1.1542 -0.1346  0.2607
    8ETHOX   C137006  17.186  16.919   9.077  0.5362 -0.0484  0.0233
    8ETHOX  H1137007  17.283  16.870   9.053  1.2908 -0.1705  2.9209
    8ETHOX  H1337008  17.117  16.890   8.996 -0.9313  2.3842  0.2892
    8ETHOX   C237009  17.133  16.879   9.219 -0.2396 -0.1092 -0.6388
    8ETHOX  H2137010  17.118  16.769   9.220 -0.1951 -0.1268  0.7784
    8ETHOX  H2337011  17.043  16.940   9.245  0.1207 -0.5623  1.9995
    9ETHOX   O137012  17.228  16.902   9.321  0.6059 -0.4691 -0.7108
    9ETHOX   C137013  17.186  16.869   9.450 -0.0780  0.7760  0.0151
    9ETHOX  H1137014  17.212  16.961   9.507  3.0329  1.2950 -2.0087
    9ETHOX  H1337015  17.076  16.853   9.447 -0.1430  0.9434  1.1020
    9ETHOX   C237016  17.254  16.739   9.495 -0.1718 -0.5027 -0.0973
    9ETHOX  H2137017  17.241  16.666   9.413  0.6653  1.5851 -2.1916
    9ETHOX  H2337018  17.190  16.717   9.583 -0.2373  0.0546 -0.0029
   10ETHOX   O137019  17.395  16.756   9.526 -0.4018  0.0233  0.1872
   10ETHOX   C137020  17.464  16.628   9.541 -0.4197  0.3079  0.1289
   10ETHOX  H1137021  17.433  16.569   9.452  0.0803 -0.3019  0.3531
   10ETHOX  H1337022  17.433  16.568   9.629 -0.2461 -0.6507 -0.4456
   10ETHOX   C237023  17.618  16.624   9.547  0.0312 -1.3393 -0.1652
   10ETHOX  H2137024  17.642  16.516   9.554 -1.4660 -1.5582  2.3951
   10ETHOX  H2337025  17.646  16.671   9.643 -1.9128  0.3865 -0.3693
   11ETHOX   O137026  17.690  16.683   9.438  0.3437 -0.6987 -0.4386
   11ETHOX   C137027  17.833  16.671   9.457  0.1030  0.8078 -0.5370
   11ETHOX  H1137028  17.853  16.710   9.559  0.2086 -1.1776  0.2495
   11ETHOX  H1337029  17.865  16.566   9.471 -1.1958  0.5802  0.8864
   11ETHOX   C237030  17.921  16.728   9.344 -0.2373  0.1479  0.0849
   11ETHOX  H2137031  17.912  16.839   9.338  0.8850  0.2485 -0.1080
   11ETHOX  H2337032  18.030  16.715   9.365  0.3575  0.3412 -2.5171
   12ETHOX   O137033  17.891  16.667   9.222 -0.0892 -0.0938 -0.4086
   12ETHOX   C137034  17.993  16.682   9.124 -0.3217  0.0410 -0.0260
   12ETHOX  H1137035  18.085  16.639   9.170 -0.9040  0.9874  2.1353
   12ETHOX  H1337036  18.003  16.788   9.094 -1.8070  0.0269 -0.6402
   12ETHOX   C237037  17.959  16.599   9.002 -0.2731  0.3542 -0.2870
   12ETHOX  H2137038  18.043  16.583   8.931 -0.2552 -2.6595  0.3149
   12ETHOX  H2337039  17.872  16.648   8.952 -1.4048 -0.2737  1.0020
   13ETHOX   O137040  17.926  16.465   9.052 -0.7021 -0.3562  0.0686
   13ETHOX   C137041  17.879  16.376   8.943 -0.5738 -0.1155  0.0182
   13ETHOX  H1137042  17.797  16.422   8.883  1.0889  0.0591 -2.2582
   13ETHOX  H1337043  17.961  16.362   8.870 -1.1533 -0.7271 -0.5229
   13ETHOX   C237044  17.816  16.249   8.999  0.2228 -0.7129 -0.0801
   13ETHOX  H2137045  17.884  16.198   9.071 -1.5951 -0.4165  1.9516
   13ETHOX  H2337046  17.799  16.175   8.919  4.0139 -1.0509 -0.7619
   14ETHOX   O137047  17.693  16.291   9.056 -0.1746  0.4369 -0.5818
   14ETHOX   C137048  17.597  16.188   9.053 -0.2353  0.0543  0.2150
   14ETHOX  H1137049  17.626  16.104   9.120  0.7392  0.8332  0.8035
   14ETHOX  H1337050  17.569  16.157   8.950 -1.5598  1.7648  0.0125
   14ETHOX   C237051  17.472  16.248   9.107 -0.3820  0.5951 -0.3341
   14ETHOX  H2137052  17.384  16.188   9.075 -0.1258  0.0524 -0.0548
   14ETHOX  H2337053  17.462  16.351   9.067 -1.2068  0.1492 -1.3097
   15ETHOX   O137054  17.466  16.249   9.251  0.6916 -0.0789 -0.2096
   15ETHOX   C137055  17.368  16.332   9.295  0.4268 -0.0929 -0.5137
   15ETHOX  H1137056  17.349  16.327   9.404 -0.8301  0.2234 -0.7003
   15ETHOX  H1337057  17.384  16.435   9.257 -3.5067  0.4100 -1.2499
   15ETHOX   C237058  17.220  16.281   9.246 -0.7698 -1.1248  0.2944
   15ETHOX  H2137059  17.141  16.354   9.274 -0.1633 -0.5606  0.5563
   15ETHOX  H2337060  17.214  16.280   9.135 -0.8926  0.4394  0.2677
   16ETHOX   O137061  17.192  16.151   9.294  0.2098  0.4538  0.2782
   16ETHOX   C137062  17.124  16.067   9.200 -0.7484  0.6245 -0.1091
   16ETHOX  H1137063  17.052  16.119   9.133 -3.9487 -0.1661  2.4423
   16ETHOX  H1337064  17.207  16.027   9.137 -0.6875 -4.5870  2.6951
   16ETHOX   C237065  17.057  15.953   9.279  0.4058 -0.1176 -1.2918
   16ETHOX  H2137066  17.130  15.910   9.351  0.2245  0.0575 -1.0027
   16ETHOX  H2337067  17.012  15.881   9.208 -0.2452  1.2852 -2.3645
   17ETHOX   O137068  16.949  16.019   9.355  0.1878  0.3528  0.6143
   17ETHOX   C137069  16.908  15.927   9.456 -0.4720  0.1802  0.2831
   17ETHOX  H1137070  16.894  15.824   9.417 -0.7256  0.3906 -0.2009
   17ETHOX  H1337071  16.992  15.908   9.525  0.4100  0.0339 -0.7909
   17ETHOX   C237072  16.794  15.988   9.543 -0.3052  0.1607  0.1472
   17ETHOX  H2137073  16.829  16.092   9.561 -1.9808  0.5702  1.2983
   17ETHOX  H2337074  16.788  15.947   9.646  0.4327  0.5242  0.3392
   18ETHOX   O137075  16.669  15.995   9.483  0.7594  0.5295 -0.5090
   18ETHOX   C137076  16.558  16.014   9.573 -0.3968 -0.5938 -0.3036
   18ETHOX  H1137077  16.560  15.936   9.652  1.1823 -0.0477  0.2362
   18ETHOX  H1337078  16.571  16.118   9.608 -2.9625  1.0177 -3.5757
   18ETHOX   C237079  16.412  16.005   9.513  0.6947 -0.2730 -0.6446
   18ETHOX  H2137080  16.400  16.063   9.418 -0.0254 -2.1585 -1.7638
   18ETHOX  H2337081  16.339  16.047   9.585  0.9503  1.1401 -1.1740
   19ETHOX   O137082  16.379  15.872   9.482 -0.3129  0.2442 -0.1209
   19ETHOX   C137083  16.242  15.862   9.433 -0.0161 -0.3780 -0.6314
   19ETHOX  H1137084  16.214  15.956   9.381 -1.8731 -0.8969 -0.6564
   19ETHOX  H1337085  16.175  15.854   9.521  2.1106 -1.4331  0.9860
   19ETHOX   C237086  16.225  15.741   9.340  0.2617 -0.1949 -0.2009
   19ETHOX  H2137087  16.290  15.758   9.251 -0.1368  0.1848 -0.4217
   19ETHOX  H2337088  16.124  15.734   9.294  0.6662 -1.1969 -1.0099
   20ETHOX   O137089  16.266  15.608   9.390 -0.3198  0.3192  0.1816
   20ETHOX   C137090  16.250  15.498   9.305 -0.1577  0.1309  0.3903
   20ETHOX  H1137091  16.151  15.507   9.254  0.1870  1.3674 -0.0999
   20ETHOX  H1337092  16.327  15.497   9.224 -1.2546 -0.2399 -0.6815
   20ETHOX   C237093  16.242  15.368   9.388 -0.3874  0.1191  0.7119
   20ETHOX  H2137094  16.198  15.290   9.322 -0.6161  2.7064 -2.4201
   20ETHOX  H2337095  16.178  15.386   9.477  0.4578  1.0236  1.1507
   21ETHOX   O137096  16.366  15.318   9.434 -0.1694 -0.5373  0.0426
   21ETHOX   C137097  16.447  15.269   9.325 -0.1364  0.0584 -0.0930
   21ETHOX  H1137098  16.484  15.359   9.272  0.9974  0.9584  2.1194
   21ETHOX  H1337099  16.380  15.206   9.262  0.0492 -0.1447 -0.0890
   21ETHOX   C237100  16.570  15.196   9.370 -0.6104  0.2258  0.0682
   21ETHOX  H2137101  16.627  15.258   9.443 -0.2250 -0.8073  0.6643
   21ETHOX  H2337102  16.639  15.187   9.283 -0.3819  2.2283 -0.0142
   22ETHOX   O137103  16.557  15.063   9.420 -0.5302 -1.0703 -0.4449
   22ETHOX   C137104  16.518  15.066   9.557  0.5056  0.4626 -0.5429
   22ETHOX  H1137105  16.575  15.141   9.616 -1.6885 -1.2503  4.3043
   22ETHOX  H1337106  16.411  15.095   9.557 -0.1419 -1.5724  1.8293
   22ETHOX   C237107  16.555  14.929   9.615 -0.3473  0.1138 -0.7061
   22ETHOX  H2137108  16.493  14.923   9.707  2.5903  0.1011  1.3917
   22ETHOX  H2337109  16.528  14.841   9.553  0.3029 -0.9693  0.5181
   23ETHOX   O137110  16.690  14.907   9.671 -0.1201 -0.3183  1.0772
   23ETHOX   C137111  16.745  14.780   9.631  0.6631 -0.1713  0.3708
   23ETHOX  H1137112  16.758  14.790   9.521 -1.0483  1.3754  0.2617
   23ETHOX  H1337113  16.666  14.703   9.640 -0.1485  0.0928 -3.1403
   23ETHOX   C237114  16.866  14.749   9.720  0.6929 -0.1281  0.8387
   23ETHOX  H2137115  16.941  14.829   9.734  1.0236 -0.1656 -0.5819
   23ETHOX  H2337116  16.929  14.673   9.670 -1.8915 -1.1579 -1.1033
   24ETHOX   O137117  16.835  14.700   9.843 -0.2047  0.8142 -0.1394
   24ETHOX   C137118  16.953  14.665   9.912  0.3091 -0.0919  0.3594
   24ETHOX  H1137119  17.032  14.619   9.849 -0.6765  1.2813 -2.0449
   24ETHOX  H1337120  16.990  14.758   9.960 -1.5187  1.2787 -0.7404
   24ETHOX   C237121  16.901  14.561  10.016 -0.7296 -0.5568 -0.2865
   24ETHOX  H2137122  16.800  14.575  10.060 -0.8996 -0.2247 -0.7749
   24ETHOX  H2337123  16.956  14.592  10.107 -0.9701 -1.5081  0.1931
   25ETHOX   O137124  16.928  14.426   9.980 -0.4630 -0.6637  0.0372
   25ETHOX   C137125  16.927  14.346  10.096 -0.0893  0.3759  0.3501
   25ETHOX  H1137126  16.831  14.364  10.149 -0.6567  0.9468 -0.8190
   25ETHOX  H1337127  17.016  14.371  10.157  1.5454 -1.1843 -1.2577
   25ETHOX   C237128  16.937  14.202  10.041 -0.1981  0.1039 -0.6339
   25ETHOX  H2137129  16.977  14.138  10.123  0.1815 -1.5718 -2.0618
   25ETHOX  H2337130  17.021  14.215   9.970  0.1707  1.0897 -0.0396
   26ETHOX   O137131  16.822  14.143   9.979  0.2508 -0.2196  1.0825
   26ETHOX   C137132  16.741  14.085  10.075  0.0614  0.6229  0.3694
   26ETHOX  H1137133  16.807  14.024  10.140 -1.2181 -1.0758  0.1360
   26ETHOX  H1337134  16.699  14.162  10.144  1.6262  0.3929  1.6544
   26ETHOX   C237135  16.641  13.988  10.025  0.5243 -0.0823  0.3911
   26ETHOX  H2137136  16.588  13.935  10.107  0.2055  1.1601  1.0154
   26ETHOX  H2337137  16.696  13.914   9.963  1.4214 -0.4225  1.5635
   27ETHOX   O137138  16.549  14.065   9.947 -0.8726 -0.0978  0.2897
   27ETHOX   C137139  16.454  13.982   9.886 -0.3392  1.1816  0.0471
   27ETHOX  H1137140  16.427  13.898   9.953  0.9991  0.8794  0.2437
   27ETHOX  H1337141  16.503  13.940   9.796 -0.6021 -1.2219  0.9548
   27ETHOX   C237142  16.324  14.054   9.845  0.4055  0.2489 -0.1914
   27ETHOX  H2137143  16.291  13.981   9.768 -1.8124  1.4599 -0.4903
   27ETHOX  H2337144  16.362  14.152   9.809  1.1967  0.4508  1.1495
   28ETHOX   O137145  16.240  14.068   9.962 -0.0349 -0.1552 -0.5711
   28ETHOX   C137146  16.224  14.209  10.002 -0.5408  0.5084 -0.7014
   28ETHOX  H1137147  16.230  14.268   9.908 -2.8286 -0.7809 -1.7593
   28ETHOX  H1337148  16.125  14.236  10.045 -1.2501  0.2524 -2.0998
   28ETHOX   C237149  16.340  14.274  10.084 -0.3209 -0.3176  0.0343
   28ETHOX  H2137150  16.324  14.383  10.098 -0.2938 -0.2120 -0.7220
   28ETHOX  H2337151  16.438  14.256  10.036  1.2101 -0.9378  3.1237
   29ETHOX   O137152  16.348  14.215  10.214 -0.2927  0.4967 -0.3590
   29ETHOX   C137153  16.418  14.294  10.310 -0.3927 -0.2335  0.6696
   29ETHOX  H1137154  16.359  14.386  10.332  0.3032  0.7596 -1.3435
   29ETHOX  H1337155  16.515  14.327  10.266  1.4140 -1.4371  3.4698
   29ETHOX   C237156  16.444  14.219  10.444 -0.4208  0.6121 -0.4460
   29ETHOX  H2137157  16.345  14.181  10.476  0.3696 -0.9933  0.2486
   29ETHOX  H2337158  16.502  14.284  10.513  2.5580 -1.8010 -0.4357
   30ETHOX   O137159  16.529  14.107  10.405  0.4620  0.1540 -0.2508
   30ETHOX   C137160  16.572  14.040  10.524  0.5559  0.1303  0.7136
   30ETHOX  H1137161  16.633  14.108  10.589 -1.1437 -0.5360  3.1636
   30ETHOX  H1337162  16.488  14.012  10.590  1.1296 -0.2713  1.2841
   30ETHOX   C237163  16.639  13.909  10.484  0.1399 -0.3384  0.8247
   30ETHOX  H2137164  16.573  13.872  10.402 -1.6894  3.7551  0.1739
   30ETHOX  H2337165  16.633  13.835  10.567 -1.4536 -0.4757  0.6244
   31ETHOX   O137166  16.775  13.929  10.427  0.2271  0.0276 -0.4081
   31ETHOX   C137167  16.843  13.810  10.392 -0.4414  0.0822 -0.3483
   31ETHOX  H1137168  16.862  13.744  10.480 -3.6834 -0.1236  0.3265
   31ETHOX  H1337169  16.783  13.750  10.320 -1.5911 -0.9442  1.3525
   31ETHOX   C237170  16.979  13.841  10.335  0.4495  0.6573 -0.2361
   31ETHOX  H2137171  16.964  13.931  10.272 -0.5912 -0.5459 -1.7738
   31ETHOX  H2337172  17.012  13.757  10.271 -1.1761 -0.6710  0.5991
   32ETHOX   O137173  17.075  13.866  10.435  0.4080 -0.7066  0.3591
   32ETHOX   C137174  17.055  13.996  10.496  0.2390 -0.4408  1.1672
   32ETHOX  H1137175  17.040  14.079  10.423 -2.4900 -0.3161  1.7437
   32ETHOX  H1337176  16.966  13.992  10.563 -0.5872  2.8886  0.4235
   32ETHOX   C237177  17.167  14.057  10.586  0.5585  0.4755 -0.2019
   32ETHOX  H2137178  17.169  13.993  10.676  3.0425 -0.2684 -0.7014
   32ETHOX  H2337179  17.138  14.161  10.613 -0.4997 -0.3364  2.0072
   33ETHOX   O137180  17.294  14.062  10.521  0.3709 -0.1672 -0.1541
   33ETHOX   C137181  17.397  14.100  10.611 -0.2869 -0.2308  0.8424
   33ETHOX  H1137182  17.487  14.141  10.560  0.7954  0.6976  3.3211
   33ETHOX  H1337183  17.356  14.170  10.687 -0.3766  1.7414 -0.9522
   33ETHOX   C237184  17.465  13.985  10.701 -0.2194  0.2216  0.0735
   33ETHOX  H2137185  17.387  13.941  10.767 -1.8800  0.6418 -1.5146
   33ETHOX  H2337186  17.553  14.026  10.755  0.9877 -2.1360  0.0085
   34ETHOX   O137187  17.531  13.886  10.621 -0.0617  0.1324 -0.0853
   34ETHOX   C137188  17.597  13.789  10.704  0.0579  0.4489 -0.4994
   34ETHOX  H1137189  17.521  13.719  10.743 -0.1935 -0.0474 -1.8469
   34ETHOX  H1337190  17.630  13.852  10.790  0.4866  1.8333 -1.6394
   34ETHOX   C237191  17.720  13.719  10.650  0.2913 -0.5381  0.1321
   34ETHOX  H2137192  17.778  13.779  10.577  1.5847  1.2193  2.4645
   34ETHOX  H2337193  17.688  13.623  10.603  0.5874 -0.2453 -0.6687
   35ETHOX   O137194  17.810  13.686  10.759  0.4585 -0.0080 -0.3846
   35ETHOX   C137195  17.938  13.634  10.714  0.2219  0.6891  0.2096
   35ETHOX  H1137196  17.964  13.549  10.781  2.9708  1.1017 -0.2305
   35ETHOX  H1337197  17.926  13.588  10.614 -0.8361  2.4147 -0.4998
   35ETHOX   C237198  18.049  13.737  10.708 -0.4533  0.0320 -0.1590
   35ETHOX  H2137199  18.004  13.835  10.679 -1.0368 -0.0547  0.4383
   35ETHOX  H2337200  18.134  13.707  10.643  0.4339 -0.1173  1.0450
   36ETHOX   O137201  18.104  13.755  10.842 -0.2945  0.2631  0.0197
   36ETHOX   C137202  18.236  13.799  10.840 -0.1844 -1.3898  0.6427
   36ETHOX  H1137203  18.247  13.887  10.773  1.5629 -2.8105 -1.0680
   36ETHOX  H1337204  18.306  13.722  10.801  0.7016 -0.8967  1.2533
   36ETHOX   C237205  18.285  13.845  10.982 -0.0114 -1.0600 -0.6794
   36ETHOX  H2137206  18.209  13.917  11.019  1.7446  0.5689 -0.1125
   36ETHOX  H2337207  18.380  13.899  10.963 -1.7460  3.4681  2.1094
   37ETHOX   O137208  18.311  13.751  11.087  0.0337  0.3813  0.1452
   37ETHOX   C137209  18.341  13.812  11.218  0.1330 -0.2323  0.4723
   37ETHOX  H1137210  18.415  13.892  11.194  1.5120 -2.1826 -2.3101
   37ETHOX  H1337211  18.245  13.858  11.250  0.9481  1.2004  0.9697
   37ETHOX   C237212  18.392  13.715  11.322 -0.0271 -0.0875 -0.2912
   37ETHOX  H2137213  18.492  13.676  11.294  0.5690  0.0521  1.4975
   37ETHOX  H2337214  18.318  13.636  11.349  0.2672 -0.5165 -0.7150
   38ETHOX   O137215  18.410  13.787  11.444  0.3617  0.3293 -0.7061
   38ETHOX   C137216  18.456  13.714  11.555 -0.1825  0.2664  0.6423
   38ETHOX  H1137217  18.541  13.657  11.512 -0.4533 -0.2122  0.7361
   38ETHOX  H1337218  18.379  13.639  11.582  0.2676 -1.3919 -2.2748
   38ETHOX   C237219  18.511  13.795  11.674  0.3846 -0.3733 -0.5907
   38ETHOX  H2137220  18.584  13.873  11.644 -0.8458  0.6764 -0.9579
   38ETHOX  H2337221  18.555  13.728  11.751 -3.2550 -2.0189  0.3000
   39ETHOX   O137222  18.398  13.858  11.728 -0.1141 -0.1946 -0.4596
   39ETHOX   C137223  18.431  13.952  11.833 -0.0213  0.2822 -0.6599
   39ETHOX  H1137224  18.507  14.019  11.789  0.7860 -0.5075 -0.5072
   39ETHOX  H1337225  18.338  14.010  11.849 -0.5688 -0.3775 -1.3559
   39ETHOX   C237226  18.478  13.897  11.970 -0.1645 -0.1316  0.1311
   39ETHOX  H2137227  18.507  13.979  12.040  1.0792  0.4603 -1.0555
   39ETHOX  H2337228  18.563  13.829  11.947  0.7974  0.9900  0.2897
   40ETHOX   O137229  18.370  13.830  12.032 -0.2009 -0.3226  0.1613
   40ETHOX   C137230  18.364  13.691  11.986  0.4966  0.4361  0.0343
   40ETHOX  H1137231  18.447  13.630  12.029 -0.3626 -2.3953 -2.0222
   40ETHOX  H1337232  18.359  13.682  11.875 -0.4698  1.1921  0.0059
   40ETHOX   C237233  18.236  13.628  12.043 -0.0078 -0.2305 -0.5920
   40ETHOX  H2137234  18.232  13.525  12.002  1.0952 -1.0473  1.2454
   40ETHOX  H2337235  18.143  13.681  12.013 -1.3787 -1.9185  0.4905
   41ETHOX   O137236  18.233  13.617  12.188 -0.1747  0.6763 -0.3873
   41ETHOX   C137237  18.100  13.586  12.231 -0.9777 -0.1077  0.3106
   41ETHOX  H1137238  18.026  13.656  12.186 -0.7140 -0.9413 -1.5151
   41ETHOX  H1337239  18.064  13.485  12.199 -0.8046  0.1584 -0.7567
   41ETHOX   C237240  18.088  13.585  12.388 -0.5475 -0.3104  0.3028
   41ETHOX  H2137241  18.163  13.511  12.420 -0.2698 -0.6194 -0.9938
   41ETHOX  H2337242  17.987  13.552  12.422 -0.0969 -0.8263  1.1675
   42ETHOX   O137243  18.134  13.713  12.435  0.7269  0.1368 -0.5177
   42ETHOX   C137244  18.124  13.727  12.573 -0.2688 -0.0656 -0.5350
   42ETHOX  H1137245  18.049  13.660  12.620 -0.9109  1.8809  1.4323
   42ETHOX  H1337246  18.218  13.695  12.622 -0.7364 -2.1242 -0.8996
   42ETHOX   C237247  18.098  13.877  12.596  0.6380  0.5101 -0.4508
   42ETHOX  H2137248  18.179  13.934  12.546 -0.2335  4.0618  1.8000
   42ETHOX  H2337249  18.103  13.893  12.706  0.1006  0.9030 -0.4747
   43ETHOX   O137250  17.973  13.931  12.560  0.6443 -0.1731 -0.7554
   43ETHOX   C137251  17.850  13.858  12.586  0.2792 -0.1800  0.3818
   43ETHOX  H1137252  17.847  13.773  12.514  0.5431  1.6473 -1.9368
   43ETHOX  H1337253  17.843  13.805  12.683  0.4879 -0.3389  0.3121
   43ETHOX   C237254  17.729  13.946  12.553 -0.3680 -0.1761  0.5653
   43ETHOX  H2137255  17.641  13.878  12.548 -0.5152  0.0318  0.3154
   43ETHOX  H2337256  17.750  13.982  12.450 -0.4079 -1.0345  0.2459
   44ETHOX   O137257  17.710  14.055  12.638 -0.1045  0.3274 -0.0029
   44ETHOX   C137258  17.584  14.112  12.595 -0.6888  0.1462  0.3691
   44ETHOX  H1137259  17.583  14.127  12.485  0.9615  1.9028  0.5365
   44ETHOX  H1337260  17.516  14.026  12.612 -0.5414  0.0299  0.3724
   44ETHOX   C237261  17.527  14.243  12.650 -0.5370 -0.2877 -0.2511
   44ETHOX  H2137262  17.579  14.265  12.745 -1.4755  0.8396  0.0353
   44ETHOX  H2337263  17.422  14.228  12.683 -0.2615  0.7767  1.2031
   45ETHOX   O137264  17.548  14.358  12.569 -0.0052  0.1496  1.1528
   45ETHOX   C137265  17.497  14.471  12.635 -0.9810 -0.0024  0.0944
   45ETHOX  H1137266  17.575  14.541  12.597  1.8786 -2.9054  0.1556
   45ETHOX  H1337267  17.508  14.468  12.745 -2.5871  0.4698  0.2937
   45ETHOX   C237268  17.362  14.511  12.584  0.3390  0.7745  0.1167
   45ETHOX  H2137269  17.370  14.544  12.478  0.9182  1.2553  0.3036
   45ETHOX  H2337270  17.324  14.592  12.650 -3.0481  1.1717 -2.0544
   46ETHOX   O137271  17.274  14.394  12.584 -0.5435  0.3933 -0.1134
   46ETHOX   C137272  17.146  14.438  12.573 -0.2042 -0.2676 -0.3340
   46ETHOX  H1137273  17.125  14.496  12.665 -2.8891  1.5468 -1.9472
   46ETHOX  H1337274  17.139  14.510  12.488 -1.0882 -1.3228 -1.1940
   46ETHOX   C237275  17.045  14.326  12.560  0.0804 -0.0447 -0.3382
   46ETHOX  H2137276  17.071  14.262  12.474 -0.0888  1.2219 -1.3661
   46ETHOX  H2337277  16.938  14.353  12.544 -0.6584 -0.6638  2.8813
   47ETHOX   O137278  17.042  14.247  12.682  0.2659 -0.1430 -0.7761
   47ETHOX   C137279  16.944  14.149  12.675 -0.6769 -0.1105  0.9094
   47ETHOX  H1137280  16.982  14.075  12.603  0.8438  0.4547  1.0947
   47ETHOX  H1337281  16.847  14.197  12.650 -0.0929  0.4319 -0.3824
   47ETHOX   C237282  16.931  14.096  12.817  0.2931 -0.2188 -0.4002
   47ETHOX  H2137283  17.030  14.064  12.858  0.9427 -0.6177 -2.1800
   47ETHOX  H2337284  16.870  14.003  12.812 -0.5221  0.3779 -2.0480
   48ETHOX   O137285  16.865  14.185  12.908 -0.5516 -0.0601 -0.0860
   48ETHOX   C137286  16.829  14.119  13.030  0.3033  0.7659 -0.5200
   48ETHOX  H1137287  16.740  14.064  12.992 -2.1076  2.2292  2.5096
   48ETHOX  H1337288  16.910  14.047  13.052 -0.2706 -0.7870 -3.1480
   48ETHOX   C237289  16.790  14.219  13.143  1.2198  0.6355 -0.8326
   48ETHOX  H2137290  16.717  14.290  13.098  0.3695  1.0176  1.0447
   48ETHOX  H2337291  16.740  14.165  13.226  1.3661 -0.5583 -1.4895
   49ETHOX   O137292  16.909  14.290  13.190  0.5790  0.2048  0.1904
   49ETHOX   C137293  17.008  14.197  13.235  0.0871  0.5270  0.5229
   49ETHOX  H1137294  17.090  14.259  13.279 -0.2439  1.2437  0.1433
   49ETHOX  H1337295  17.050  14.147  13.146  0.2105 -1.6585  1.7371
   49ETHOX   C237296  16.961  14.112  13.352 -0.5416 -0.0845 -0.0152
   49ETHOX  H2137297  16.895  14.177  13.411  2.7747  0.8218  3.0222
   49ETHOX  H2337298  17.051  14.088  13.412 -1.2865 -1.8785  0.4639
   50ETHOX   O137299  16.888  13.988  13.323 -0.0362  0.3163 -0.1199
   50ETHOX   C137300  16.826  13.935  13.441  0.5156  0.2531  0.5841
   50ETHOX  H1137301  16.818  13.825  13.429  0.3327  0.4364 -1.3241
   50ETHOX  H1337302  16.898  13.949  13.524 -0.1285 -1.5203  1.4890
   50ETHOX   C237303  16.690  14.000  13.476 -0.6742  0.9409  0.8091
   50ETHOX  H2137304  16.615  13.979  13.397 -1.2098  0.4662  1.4339
   50ETHOX  H2337305  16.707  14.108  13.496 -0.0036  0.2922  4.3898
   51ETHOX   O137306  16.649  13.941  13.591 -0.1520 -0.6752 -0.4270
   51ETHOX   C137307  16.520  13.986  13.627  0.4369  0.2518 -0.6376
   51ETHOX  H1137308  16.461  13.961  13.536 -1.3458  0.5087  0.4003
   51ETHOX  H1337309  16.516  14.095  13.647  0.5639  0.1173  0.1668
   51ETHOX   C237310  16.476  13.908  13.755  0.0758 -0.6030 -0.0432
   51ETHOX  H2137311  16.538  13.942  13.841  0.5850  0.7868 -0.9295
   51ETHOX  H2337312  16.497  13.800  13.741 -1.6173 -0.6379 -3.2002
   52ETHOX   O137313  16.343  13.942  13.776 -0.8084 -0.3131  1.0711
   52ETHOX   C137314  16.269  13.842  13.850  0.3842  0.0930 -0.6782
   52ETHOX  H1137315  16.255  13.749  13.792  1.9634  0.3284 -1.4734
   52ETHOX  H1337316  16.316  13.824  13.949  1.9960  0.2311 -1.3970
   52ETHOX   C237317  16.129  13.886  13.886  0.5143 -0.2758 -0.1298
   52ETHOX  H2137318  16.060  13.800  13.874  0.9580 -0.8109  0.9921
   52ETHOX  H2337319  16.088  13.964  13.819  1.3224 -0.0624 -0.3806
   53ETHOX   O137320  16.127  13.930  14.027 -0.2873 -0.1744  0.0368
   53ETHOX   C137321  16.022  14.020  14.045 -0.6362  0.0706  0.3129
   53ETHOX  H1137322  16.055  14.118  14.003  3.0380  0.4279  3.5316
   53ETHOX  H1337323  15.934  13.989  13.984 -0.2226  0.9861 -0.7942
   53ETHOX   C237324  15.976  14.039  14.192 -0.2577 -0.2988 -0.1255
   53ETHOX  H2137325  15.906  14.125  14.182 -0.8783 -0.8047 -0.2146
   53ETHOX  H2337326  16.062  14.073  14.254 -0.7698  2.2160 -0.6872
   54ETHOX   O137327  15.921  13.922  14.243  0.3650  0.0939  0.0323
   54ETHOX   C137328  15.867  13.940  14.373  0.1551  0.2781 -0.3767
   54ETHOX  H1137329  15.947  13.961  14.447  1.0382  0.1348 -1.2671
   54ETHOX  H1337330  15.791  14.021  14.374  0.4139  0.5200 -0.4359
   54ETHOX   C237331  15.780  13.819  14.415 -0.0689  0.6062 -0.2174
   54ETHOX  H2137332  15.740  13.821  14.519 -0.7247 -0.6168 -0.4254
   54ETHOX  H2337333  15.837  13.724  14.405  0.2044  0.9131 -1.7765
   55ETHOX   O137334  15.665  13.823  14.332  0.0277  0.0636 -0.0688
   55ETHOX   C137335  15.564  13.725  14.370  0.1873  0.0046 -0.3621
   55ETHOX  H1137336  15.600  13.625  14.340  2.6806  0.7677 -0.1396
   55ETHOX  H1337337  15.556  13.727  14.481  0.8707  1.9494 -0.3017
   55ETHOX   C237338  15.436  13.752  14.297  0.8991  0.4332  0.1733
   55ETHOX  H2137339  15.406  13.855  14.327  1.5886  0.8618 -0.5817
   55ETHOX  H2337340  15.448  13.747  14.186 -0.8174  1.8759 -0.1317
   56ETHOX   O137341  15.322  13.672  14.316 -0.6593  0.4318  0.3749
   56ETHOX   C137342  15.200  13.749  14.307 -0.1134 -0.0790  0.0100
   56ETHOX  H1137343  15.206  13.828  14.230  0.4601  0.5960  0.7315
   56ETHOX  H1337344  15.193  13.798  14.407 -0.9594  1.1545 -0.6266
   56ETHOX   C237345  15.071  13.663  14.296 -0.4299 -0.4281 -0.3783
   56ETHOX  H2137346  14.985  13.733  14.293  0.3050  0.4976 -0.1251
   56ETHOX  H2337347  15.062  13.600  14.387 -2.3239 -1.2126 -1.0550
   57ETHOX   O137348  15.058  13.587  14.172 -0.5076  0.4235 -0.5545
   57ETHOX   C137349  14.947  13.496  14.175 -0.0145 -0.2976  0.6328
   57ETHOX  H1137350  14.853  13.552  14.194 -0.2254  1.0796 -3.5683
   57ETHOX  H1337351  14.925  13.454  14.075 -1.2872  0.3419  0.6288
   57ETHOX   C237352  14.960  13.370  14.265  0.1410  1.0834 -0.1634
   57ETHOX  H2137353  14.856  13.359  14.302  0.8569  1.3820  2.1011
   57ETHOX  H2337354  15.013  13.393  14.359 -0.5652 -0.9374  0.7633
   58ETHOX   O137355  15.016  13.254  14.201  0.0545  0.0600  0.1274
   58ETHOX   C137356  15.022  13.133  14.279 -0.2772 -0.7768 -0.4507
   58ETHOX  H1137357  14.914  13.108  14.293 -0.2771  0.2643  2.0867
   58ETHOX  H1337358  15.065  13.154  14.380  1.4994 -0.0792 -1.3128
   58ETHOX   C237359  15.102  13.030  14.203  0.3807 -0.1199  0.8492
   58ETHOX  H2137360  15.186  13.080  14.150 -0.7775  0.8930 -0.0881
   58ETHOX  H2337361  15.036  12.977  14.132  1.5269  0.1502 -0.4708
   59ETHOX   O137362  15.164  12.941  14.285 -0.2923 -0.0815 -0.3784
   59ETHOX   C137363  15.250  12.843  14.214 -0.4907  0.3992  0.3102
   59ETHOX  H1137364  15.199  12.805  14.123  1.3288 -0.3415 -0.4666
   59ETHOX  H1337365  15.346  12.886  14.176 -1.2033  1.2663 -0.5664
   59ETHOX   C237366  15.278  12.710  14.291 -0.1121  0.1182  0.2620
   59ETHOX  H2137367  15.339  12.646  14.224 -1.0953  0.8209 -1.3688
   59ETHOX  H2337368  15.183  12.661  14.320  0.6155 -1.5939 -0.1370
   60ETHOX   O137369  15.352  12.750  14.402 -0.2883  0.0621  0.5671
   60ETHOX   C137370  15.431  12.640  14.457  0.8106  0.1453  0.4673
   60ETHOX  H1137371  15.501  12.605  14.378  0.0453  0.5483 -0.3961
   60ETHOX  H1337372  15.364  12.559  14.490  0.3565 -0.2421 -1.3218
   60ETHOX   C237373  15.527  12.687  14.580  0.2246 -0.0590  0.8746
   60ETHOX  H2137374  15.572  12.588  14.602 -1.6945 -0.6940  2.2073
   60ETHOX  H2337375  15.459  12.733  14.655 -3.1364  0.4072 -2.1660
   61ETHOX   O137376  15.639  12.769  14.535 -0.1359  0.5269 -0.2387
   61ETHOX   C137377  15.710  12.808  14.653 -1.0421 -0.0128  0.1313
   61ETHOX  H1137378  15.652  12.881  14.712 -1.4288  1.2095 -1.6695
   61ETHOX  H1337379  15.737  12.721  14.717 -1.1815 -0.3415 -0.2493
   61ETHOX   C237380  15.832  12.882  14.605 -0.5148 -0.5061 -0.1606
   61ETHOX  H2137381  15.888  12.937  14.684 -0.8929  0.9852 -0.8963
   61ETHOX  H2337382  15.795  12.959  14.534 -1.3375  1.1892  1.9637
   62ETHOX   O137383  15.921  12.788  14.548 -0.1374  0.0074  0.0844
   62ETHOX   C137384  16.049  12.842  14.521 -0.4991 -0.0508  0.7311
   62ETHOX  H1137385  16.110  12.873  14.608  0.0626  0.1407  0.2821
   62ETHOX  H1337386  16.033  12.934  14.460  0.0994 -0.6494 -0.3784
   62ETHOX   C237387  16.143  12.747  14.438  0.2101 -0.9002  0.4582
   62ETHOX  H2137388  16.225  12.809  14.395 -0.7018 -0.8348 -1.2677
   62ETHOX  H2337389  16.085  12.702  14.355  0.4059 -1.8109  0.8073
   63ETHOX   O137390  16.198  12.655  14.527  0.3955 -0.2485  0.6487
   63ETHOX   C137391  16.252  12.554  14.450 -0.0602  0.5599 -0.9148
   63ETHOX  H1137392  16.181  12.503  14.381  1.0292 -1.3412 -0.6969
   63ETHOX  H1337393  16.342  12.578  14.388  0.4081  1.6225  0.1371
   63ETHOX   C237394  16.294  12.442  14.539 -0.0762  0.3516 -0.0390
   63ETHOX  H2137395  16.359  12.480  14.621  0.4012  1.2054 -0.7928
   63ETHOX  H2337396  16.351  12.372  14.474  0.5802  0.2137  0.6661
   64ETHOX   O137397  16.185  12.363  14.586 -0.0176  0.3356 -0.3457
   64ETHOX   C137398  16.233  12.246  14.658  0.6373 -0.1504  0.0822
   64ETHOX  H1137399  16.159  12.218  14.736 -0.7081 -0.2877 -1.1904
   64ETHOX  H1337400  16.330  12.284  14.696  1.3825 -0.2786 -1.5969
   64ETHOX   C237401  16.267  12.124  14.576 -0.4213  0.1638  0.0821
   64ETHOX  H2137402  16.315  12.049  14.643  0.6847  2.7521  2.4083
   64ETHOX  H2337403  16.338  12.146  14.494 -1.9699  2.3049 -0.7720
   65ETHOX   O137404  16.146  12.081  14.511  0.5538  0.2399  0.3361
   65ETHOX   C137405  16.173  12.004  14.393 -0.6465  0.4991 -0.6938
   65ETHOX  H1137406  16.233  12.064  14.322  0.8356  1.1282  1.0160
   65ETHOX  H1337407  16.231  11.918  14.433 -0.7216  1.2234  1.0611
   65ETHOX   C237408  16.048  11.945  14.332 -0.5947 -0.1022 -0.1391
   65ETHOX  H2137409  16.004  11.882  14.412 -0.8153 -1.7512 -1.5065
   65ETHOX  H2337410  16.076  11.884  14.244  1.7026  1.4977 -0.5952
   66ETHOX   O137411  15.968  12.057  14.305 -0.0072 -0.8318  0.3027
   66ETHOX   C137412  15.835  12.015  14.285 -0.5289 -0.5977 -0.3334
   66ETHOX  H1137413  15.797  11.941  14.359 -1.5213 -0.4735 -0.7005
   66ETHOX  H1337414  15.839  11.973  14.182  3.1044 -0.1527 -0.4943
   66ETHOX   C237415  15.746  12.137  14.294  0.1539  0.5316  0.8146
   66ETHOX  H2137416  15.660  12.120  14.225  0.9838  0.2481 -0.1682
   66ETHOX  H2337417  15.797  12.231  14.264  0.2598  0.8036  1.8280
   67ETHOX   O137418  15.692  12.145  14.425  0.7673 -0.3902 -0.0578
   67ETHOX   C137419  15.616  12.264  14.439  0.1099 -0.2994 -0.0715
   67ETHOX  H1137420  15.687  12.349  14.445  0.8502 -0.8428 -0.9435
   67ETHOX  H1337421  15.555  12.279  14.347  1.4815  2.5757 -0.5965
   67ETHOX   C237422  15.529  12.258  14.569  0.9096 -0.0367  0.2175
   67ETHOX  H2137423  15.505  12.362  14.602  0.7294  0.5960 -1.7788
   67ETHOX  H2337424  15.593  12.220  14.652 -1.8911 -0.4763  2.3410
   68ETHOX   O137425  15.409  12.180  14.555 -0.0387 -0.4086 -0.3769
   68ETHOX   C137426  15.300  12.257  14.528  0.6650  0.4631 -0.5186
   68ETHOX  H1137427  15.287  12.308  14.625  0.3920  1.7421 -1.2063
   68ETHOX  H1337428  15.327  12.336  14.454  2.4172 -0.0466 -0.4742
   68ETHOX   C237429  15.190  12.166  14.485 -0.1271 -0.1598 -0.0202
   68ETHOX  H2137430  15.144  12.124  14.576 -0.4078  0.6049  0.2018
   68ETHOX  H2337431  15.225  12.070  14.441 -0.8441 -1.1666  1.5283
   69ETHOX   O137432  15.079  12.233  14.422 -0.3846  0.6058  0.1955
   69ETHOX   C137433  15.085  12.221  14.282 -0.4619  0.6484  0.5255
   69ETHOX  H1137434  15.185  12.244  14.240 -0.5201 -0.5625 -0.3217
   69ETHOX  H1337435  15.079  12.111  14.269  3.9678  0.2191  0.6900
   69ETHOX   C237436  14.971  12.304  14.220 -0.9445  0.9039  0.0077
   69ETHOX  H2137437  14.874  12.297  14.274 -0.3620  0.7492  1.0763
   69ETHOX  H2337438  14.972  12.275  14.113 -0.2995 -0.7002  0.4132
   70ETHOX   O137439  15.017  12.437  14.205  0.7935  0.1284  0.4361
   70ETHOX   C137440  14.916  12.532  14.224 -0.0241  0.6585 -1.1884
   70ETHOX  H1137441  14.836  12.479  14.280  0.7581 -0.7074 -1.3237
   70ETHOX  H1337442  14.958  12.619  14.279 -2.4965  1.3346 -0.2481
   70ETHOX   C237443  14.861  12.567  14.088 -0.0190  0.2804 -0.4280
   70ETHOX  H2137444  14.767  12.625  14.098 -0.9771 -0.5471 -3.7320
   70ETHOX  H2337445  14.836  12.475  14.033 -0.8763  0.5547 -0.5160
   71ETHOX   O137446  14.950  12.654  14.016  0.1776 -0.0946 -0.2549
   71ETHOX   C137447  14.897  12.697  13.886  0.6270 -0.3917 -1.1657
   71ETHOX  H1137448  14.805  12.760  13.894  1.6040  1.0983 -1.2722
   71ETHOX  H1337449  14.875  12.617  13.812  1.5544  0.3926 -2.3351
   71ETHOX   C237450  15.004  12.788  13.820 -0.5686 -0.2998 -0.0301
   71ETHOX  H2137451  15.013  12.890  13.863  0.7200 -0.6308  0.5401
   71ETHOX  H2337452  14.975  12.793  13.713  0.7030 -0.0365 -0.3834
   72ETHOX   O137453  15.138  12.727  13.838  0.6043  0.2540 -0.3391
   72ETHOX   C137454  15.243  12.818  13.798 -0.8368 -0.1439 -0.2053
   72ETHOX  H1137455  15.231  12.827  13.688 -0.5824 -0.7757 -0.2882
   72ETHOX  H1337456  15.229  12.917  13.847 -0.1537 -0.3758  0.4852
   72ETHOX   C237457  15.380  12.767  13.829  0.4050  0.6905  0.2912
   72ETHOX  H2137458  15.438  12.831  13.759 -1.3246  1.5606 -0.4009
   72ETHOX  H2337459  15.381  12.659  13.808 -0.4147  0.7134  0.1102
   73ETHOX   O137460  15.428  12.812  13.957  0.3962  0.3755  0.3623
   73ETHOX   C137461  15.567  12.771  13.983  0.1782  0.2705 -0.3634
   73ETHOX  H1137462  15.640  12.804  13.906  0.2980 -0.3872 -0.5433
   73ETHOX  H1337463  15.566  12.660  13.987  2.2175  0.2516  1.7599
   73ETHOX   C237464  15.631  12.804  14.123 -1.2575 -0.6088 -0.1058
   73ETHOX  H2137465  15.728  12.752  14.137 -0.4496  1.1311  1.1135
   73ETHOX  H2337466  15.562  12.767  14.202  0.5374  0.6638  2.1763
   74ETHOX   O137467  15.659  12.946  14.143  0.4387  0.1369 -0.5493
   74ETHOX   C137468  15.704  12.968  14.273  0.5122 -0.6970  0.4283
   74ETHOX  H1137469  15.616  12.967  14.342 -0.3174 -0.2349 -0.5864
   74ETHOX  H1337470  15.775  12.891  14.309 -3.0254 -5.3386 -1.5054
   74ETHOX   C237471  15.781  13.102  14.288 -0.0281  0.4132  0.0468
   74ETHOX  H2137472  15.800  13.115  14.397 -0.8788 -1.2839  0.4331
   74ETHOX  H2337473  15.721  13.181  14.238  0.6946  0.9597  0.0359
   75ETHOX   O137474  15.911  13.105  14.231 -0.6898  0.2672 -0.1414
   75ETHOX   C137475  15.968  13.233  14.253  0.0036  0.0852 -0.6891
   75ETHOX  H1137476  15.887  13.300  14.287 -1.6177 -1.7130 -0.8234
   75ETHOX  H1337477  16.014  13.274  14.161 -1.1682  2.3355 -0.3226
   75ETHOX   C237478  16.083  13.223  14.350 -0.2001 -0.1282 -0.4978
   75ETHOX  H2137479  16.136  13.321  14.353 -1.3045  0.4932 -0.4630
   75ETHOX  H2337480  16.150  13.135  14.339  2.8554  1.6211  2.0894
   76ETHOX   O137481  16.038  13.210  14.489 -0.8569 -0.5797  0.9189
   76ETHOX   C137482  16.132  13.251  14.579  0.2841  0.2359  0.1424
   76ETHOX  H1137483  16.230  13.211  14.546 -1.0556 -3.2380 -0.0448
   76ETHOX  H1337484  16.147  13.360  14.570  1.6563  0.0788  0.3224
   76ETHOX   C237485  16.100  13.223  14.721 -0.3665  0.0277 -0.5978
   76ETHOX  H2137486  15.997  13.258  14.742 -0.2435 -0.2906  0.6110
   76ETHOX  H2337487  16.170  13.288  14.777 -1.0739 -0.7188  1.2375
   77ETHOX   O137488  16.103  13.089  14.757 -0.6154  0.4368 -0.1601
   77ETHOX   C137489  16.050  13.069  14.890 -0.3238  0.6144 -0.0261
   77ETHOX  H1137490  15.940  13.058  14.880 -0.0919 -1.6541 -0.7717
   77ETHOX  H1337491  16.077  13.160  14.947 -0.6695  0.1738  0.8638
   77ETHOX   C237492  16.121  12.959  14.967  0.4157  0.4403 -0.1848
   77ETHOX  H2137493  16.124  12.869  14.901 -0.3253 -0.0875  0.4873
   77ETHOX  H2337494  16.060  12.928  15.055  2.1985 -1.1713  0.5714
   78ETHOX   O137495  16.252  12.988  15.015 -0.1633 -0.0689 -0.3294
   78ETHOX   C137496  16.284  12.896  15.120  0.2992  0.0830 -0.0738
   78ETHOX  H1137497  16.200  12.901  15.192 -0.6060 -0.2606 -1.0676
   78ETHOX  H1337498  16.290  12.794  15.076 -4.2144  0.3247 -1.8492
   78ETHOX   C237499  16.403  12.934  15.200  0.8191 -0.3422  0.1597
   78ETHOX  H2137500  16.421  12.862  15.282  2.3494 -0.5359 -0.3192
   78ETHOX  H2337501  16.394  13.031  15.254  0.6843  0.1187 -0.6852
   79ETHOX   O137502  16.534  12.926  15.131  0.4009  0.5067 -0.5413
   79ETHOX   C137503  16.538  13.030  15.034 -0.3048  0.2214 -0.0809
   79ETHOX  H1137504  16.468  13.009  14.950 -0.0747 -1.8036  0.1848
   79ETHOX  H1337505  16.500  13.119  15.088  0.7531 -0.8631  2.6073
   79ETHOX   C237506  16.674  13.062  14.978  0.0558 -0.1471  0.7096
   79ETHOX  H2137507  16.676  13.132  14.892  0.3521 -0.4503  0.4708
   79ETHOX  H2337508  16.717  12.967  14.942  0.0030 -0.3153  1.0836
   80ETHOX   O137509  16.754  13.119  15.076  0.1413 -0.6087 -0.1602
   80ETHOX   C137510  16.890  13.136  15.045  0.1826  0.1203  0.1600
   80ETHOX  H1137511  16.937  13.041  15.010  1.3661  0.3689  1.0256
   80ETHOX  H1337512  16.889  13.223  14.977  0.3757  1.3195  1.6442
   80ETHOX   C237513  16.973  13.182  15.165  0.2784 -0.0453  0.6887
   80ETHOX  H2137514  16.917  13.266  15.212  1.5946  0.1615  1.9676
   80ETHOX  H2337515  17.071  13.230  15.143  0.8666 -1.1908  0.7276
   81ETHOX   O137516  16.994  13.080  15.256 -0.4384 -0.0325  0.1778
   81ETHOX   C137517  17.082  13.117  15.368 -1.4538  0.9074 -0.3389
   81ETHOX  H1137518  17.094  13.226  15.382  1.8690  0.5158  1.0836
   81ETHOX  H1337519  17.034  13.083  15.462  0.5090 -0.2039  0.3325
   81ETHOX   C237520  17.226  13.053  15.343  0.1469 -0.2172 -0.2544
   81ETHOX  H2137521  17.280  13.094  15.255  1.7046 -0.4326  0.5743
   81ETHOX  H2337522  17.287  13.080  15.432  0.3321  0.7434 -0.6624
   82ETHOX   O137523  17.225  12.907  15.326  0.2626  0.1369 -0.2810
   82ETHOX   C137524  17.236  12.848  15.458  0.0436 -0.0336 -0.5766
   82ETHOX  H1137525  17.160  12.889  15.528  0.3208 -0.4075 -0.0437
   82ETHOX  H1337526  17.335  12.869  15.504  0.1828  0.3783 -1.0535
   82ETHOX   C237527  17.212  12.696  15.444 -0.1285 -0.2233  0.5806
   82ETHOX  H2137528  17.127  12.665  15.378  1.3935 -0.1112 -1.5544
   82ETHOX  H2337529  17.196  12.652  15.544  0.3578  0.9178  1.1720
   83ETHOX   O137530  17.331  12.645  15.390 -0.5139 -0.1189  0.6884
   83ETHOX   C137531  17.307  12.527  15.306 -0.2037 -1.0785 -0.2224
   83ETHOX  H1137532  17.266  12.440  15.363 -2.1923  0.1249  0.2791
   83ETHOX  H1337533  17.227  12.549  15.232 -0.0238 -0.2451 -0.1729
   83ETHOX   C237534  17.437  12.479  15.232 -0.0350  0.0650 -0.1479
   83ETHOX  H2137535  17.523  12.491  15.301  0.0939 -1.1536 -0.0730
   83ETHOX  H2337536  17.458  12.545  15.145 -1.5109  0.4965 -0.2022
   84ETHOX   O137537  17.432  12.345  15.177  0.4930  0.1141  0.0047
   84ETHOX   C137538  17.532  12.332  15.071 -0.5881  0.1273 -0.4475
   84ETHOX  H1137539  17.632  12.321  15.118  0.0663  3.0122 -1.0042
   84ETHOX  H1337540  17.542  12.426  15.012  2.2675  1.2285  1.5532
   84ETHOX   C237541  17.501  12.216  14.980  0.7301  0.1959 -0.2778
   84ETHOX  H2137542  17.518  12.115  15.024  0.7550 -0.1894 -1.1361
   84ETHOX  H2337543  17.570  12.218  14.893  0.4810  1.8371 -0.4656
   85ETHOX   O137544  17.363  12.226  14.943 -0.2070  0.2080 -0.4638
   85ETHOX   C137545  17.326  12.147  14.832  0.4187  0.6000  0.9882
   85ETHOX  H1137546  17.359  12.207  14.744  0.6274  0.7013  1.1364
   85ETHOX  H1337547  17.374  12.047  14.836 -0.7319  0.0339  1.2089
   85ETHOX   C237548  17.173  12.143  14.818  0.2458 -1.2000  1.0263
   85ETHOX  H2137549  17.130  12.102  14.724  0.8181  0.3629  0.0468
   85ETHOX  H2337550  17.132  12.245  14.828 -0.6291 -1.6073  1.7811
   86ETHOX   O137551  17.112  12.078  14.926  0.1967  0.2513 -0.3395
   86ETHOX   C137552  16.968  12.095  14.934  0.0321 -0.4750 -0.3081
   86ETHOX  H1137553  16.918  12.043  14.850  0.7098  0.8498 -1.5755
   86ETHOX  H1337554  16.936  12.201  14.928 -0.1292 -0.5740 -1.2824
   86ETHOX   C237555  16.907  12.032  15.057  0.6459  0.2163  0.0559
   86ETHOX  H2137556  16.804  12.068  15.078  0.1486 -1.6873  1.1810
   86ETHOX  H2337557  16.963  12.072  15.145 -1.0250  0.7217  0.9485
   87ETHOX   O137558  16.936  11.892  15.041 -0.1848 -0.0178  0.0911
   87ETHOX   C137559  16.823  11.815  15.086  0.4153  0.1549  0.6063
   87ETHOX  H1137560  16.774  11.869  15.170  0.4021  0.9827  0.0738
   87ETHOX  H1337561  16.749  11.814  15.002  0.4043 -0.6816  0.6113
   87ETHOX   C237562  16.864  11.676  15.126 -0.3391  0.6840  0.7575
   87ETHOX  H2137563  16.777  11.624  15.173  0.0906  0.1533  0.9790
   87ETHOX  H2337564  16.942  11.679  15.205 -0.3266  0.4626  0.7559
   88ETHOX   O137565  16.916  11.603  15.016 -0.2015  0.1850  0.1235
   88ETHOX   C137566  16.977  11.483  15.056  0.4779  0.2127  0.1119
   88ETHOX  H1137567  16.924  11.428  15.136 -0.6144 -0.0192 -0.7494
   88ETHOX  H1337568  17.078  11.507  15.098 -0.0039  1.5665  0.5652
   88ETHOX   C237569  16.996  11.393  14.931  0.4202  0.3861  0.0968
   88ETHOX  H2137570  17.041  11.452  14.848 -0.5556 -0.2584 -0.9221
   88ETHOX  H2337571  16.892  11.362  14.907 -0.2510  0.9054  2.0921
   89ETHOX   O137572  17.076  11.280  14.957 -0.1842  0.4131  0.3468
   89ETHOX   C137573  17.000  11.163  14.990 -0.5918  0.6341 -0.5968
   89ETHOX  H1137574  16.946  11.203  15.079  0.6184  1.6386 -0.2792
   89ETHOX  H1337575  16.933  11.126  14.910 -2.1680 -0.7653  1.2532
   89ETHOX   C237576  17.098  11.054  15.042  0.4801 -0.1675  0.5887
   89ETHOX  H2137577  17.043  10.973  15.094 -1.7263 -0.1053 -1.5012
   89ETHOX  H2337578  17.158  11.091  15.128  0.8059 -2.5978  1.4960
   90ETHOX   O137579  17.178  10.986  14.939  0.2666  0.3690  0.0196
   90ETHOX   C137580  17.312  10.960  14.981  0.5022  0.0114 -0.5100
   90ETHOX  H1137581  17.345  11.051  15.035  0.4574  1.4417 -2.7738
   90ETHOX  H1337582  17.316  10.876  15.053  0.4307 -0.5992 -1.2039
   90ETHOX   C237583  17.404  10.927  14.872 -1.0488 -0.0057  0.0605
   90ETHOX  H2137584  17.368  10.842  14.811  0.2697 -2.0826  1.9823
   90ETHOX  H2337585  17.503  10.899  14.915 -0.9199 -0.5198 -0.5604
   91ETHOX   O137586  17.433  11.038  14.783  0.4352 -0.4257  0.1487
   91ETHOX   C137587  17.507  11.009  14.669  0.9125 -0.0566 -0.5287
   91ETHOX  H1137588  17.571  11.091  14.631  0.0570 -0.9706 -4.5178
   91ETHOX  H1337589  17.579  10.927  14.689  1.8753  1.2299  1.5274
   91ETHOX   C237590  17.420  10.979  14.535 -0.4369  0.2603  0.4872
   91ETHOX  H2137591  17.361  10.885  14.543  0.9359 -0.7039 -0.2400
   91ETHOX  H2337592  17.493  10.953  14.456 -0.5142  0.6277  0.2904
   92ETHOX   O137593  17.335  11.083  14.490 -0.3887  0.0753  0.1042
   92ETHOX   C137594  17.256  11.038  14.380  0.1728  0.6095 -0.5799
   92ETHOX  H1137595  17.316  10.985  14.302  1.6402 -0.2256  1.0335
   92ETHOX  H1337596  17.183  10.968  14.426  0.2256 -0.1465 -1.6258
   92ETHOX   C237597  17.180  11.150  14.318  0.0090  0.1821 -0.3656
   92ETHOX  H2137598  17.122  11.188  14.406 -0.6114 -2.0162  0.2280
   92ETHOX  H2337599  17.111  11.095  14.251  1.7176 -3.7373  0.7919
   93ETHOX   O137600  17.250  11.245  14.247 -0.4215 -0.3961  0.9272
   93ETHOX   C137601  17.185  11.369  14.235 -0.1889  0.9193 -0.0314
   93ETHOX  H1137602  17.241  11.445  14.176 -0.4594  1.0798 -0.0848
   93ETHOX  H1337603  17.165  11.412  14.336  1.7224  3.1185 -0.4978
   93ETHOX   C237604  17.053  11.354  14.158  0.1716 -0.4226 -0.1478
   93ETHOX  H2137605  17.000  11.452  14.163 -1.4223 -1.2997  0.8439
   93ETHOX  H2337606  16.995  11.277  14.213  2.6625 -3.4385 -1.4505
   94ETHOX   O137607  17.067  11.322  14.021 -0.3884 -0.1067 -0.4012
   94ETHOX   C137608  16.952  11.345  13.944 -0.0824 -0.5369  0.5584
   94ETHOX  H1137609  16.908  11.444  13.968 -1.3986 -1.0885  0.4999
   94ETHOX  H1337610  16.989  11.342  13.839  0.3329  1.3418  0.6193
   94ETHOX   C237611  16.842  11.239  13.955 -0.2029 -0.5835  0.3403
   94ETHOX  H2137612  16.815  11.239  14.063 -0.9055  1.1758  0.2011
   94ETHOX  H2337613  16.870  11.139  13.916 -0.8117 -1.0668  1.1153
   95ETHOX   O137614  16.734  11.289  13.877 -0.0702 -0.1192  0.0780
   95ETHOX   C137615  16.612  11.213  13.890 -0.5725  1.2920  0.0605
   95ETHOX  H1137616  16.582  11.221  13.997 -1.6220 -0.6365 -0.0618
   95ETHOX  H1337617  16.640  11.109  13.863 -0.4608  0.9943  1.2614
   95ETHOX   C237618  16.496  11.252  13.806 -0.0303  0.7485 -0.4133
   95ETHOX  H2137619  16.510  11.243  13.696  0.2451 -0.8604 -0.2632
   95ETHOX  H2337620  16.480  11.362  13.814  0.7674  0.9348 -1.1989
   96ETHOX   O137621  16.382  11.168  13.844  0.1395 -0.1628 -0.2044
   96ETHOX   C137622  16.265  11.208  13.766  0.5024  0.1254 -0.4713
   96ETHOX  H1137623  16.251  11.318  13.761  0.3440  0.1811  0.8800
   96ETHOX  H1337624  16.267  11.171  13.661 -1.3392  1.4088 -1.0074
   96ETHOX   C237625  16.131  11.163  13.829 -1.0433  0.0949 -0.3444
   96ETHOX  H2137626  16.053  11.190  13.755 -0.9529  0.2527 -0.3829
   96ETHOX  H2337627  16.104  11.225  13.917 -0.0728 -1.1911  0.9028
   97ETHOX   O137628  16.123  11.017  13.857  0.6662  0.2855 -0.6134
   97ETHOX   C137629  16.003  10.985  13.930 -0.2397  1.0060  0.6355
   97ETHOX  H1137630  15.919  11.043  13.884 -0.5902 -0.3310 -0.4705
   97ETHOX  H1337631  16.000  11.008  14.039 -0.3426  1.0236  0.6299
   97ETHOX   C237632  15.986  10.833  13.926 -0.9885  0.4234  1.0202
   97ETHOX  H2137633  16.063  10.784  13.989 -0.3480  0.2155  0.0776
   97ETHOX  H2337634  15.995  10.801  13.820  0.3412  2.1182  0.5792
   98ETHOX   O137635  15.860  10.795  13.976  0.1584 -0.7101 -0.3598
   98ETHOX   C137636  15.757  10.826  13.886 -0.2979 -0.4380  0.0410
   98ETHOX  H1137637  15.722  10.924  13.925  1.3199 -0.0069  0.4667
   98ETHOX  H1337638  15.792  10.841  13.782 -1.2097 -2.3687 -0.5949
   98ETHOX   C237639  15.655  10.716  13.873  0.6796  0.6433  0.2386
   98ETHOX  H2137640  15.695  10.628  13.818  0.3422 -0.3428  1.5026
   98ETHOX  H2337641  15.566  10.758  13.821  0.0440 -0.8883  0.0429
   99ETHOX   O137642  15.614  10.674  14.004  0.4943  0.5494  0.1440
   99ETHOX   C137643  15.546  10.551  13.998 -0.7596 -0.3910  0.1768
   99ETHOX  H1137644  15.558  10.516  14.103  0.7414  1.0733  0.5407
   99ETHOX  H1337645  15.597  10.483  13.926  0.7824  1.2180 -0.3103
   99ETHOX   C237646  15.400  10.557  13.974  0.0398 -0.2221  0.3192
   99ETHOX  H2137647  15.358  10.655  14.004 -4.3392 -1.0832 -2.1506
   99ETHOX  H2337648  15.352  10.480  14.037 -0.3310 -0.6593 -0.4800
  100ETHOX   O137649  15.371  10.532  13.838  0.3042 -0.0751 -0.2010
  100ETHOX   C137650  15.234  10.539  13.814  0.2954  0.1962 -0.4815
  100ETHOX  H1137651  15.193  10.443  13.853  2.5999  0.4541  3.0839
  100ETHOX  H1337652  15.181  10.603  13.888  0.3701 -2.5620  2.2036
  100ETHOX   C237653  15.201  10.560  13.668 -0.4521 -0.0657  0.4480
  100ETHOX  H2137654  15.270  10.633  13.621 -2.7365  0.8025 -1.7612
  100ETHOX  H2337655  15.100  10.604  13.651 -0.3321 -0.5262 -1.6149
  101PROXS   O137656  15.187  10.440  13.595  0.3494  0.1022 -0.4645
  101PROXS   C137657  15.198  10.461  13.453 -0.2078 -0.5165  0.7757
  101PROXS  H1137658  15.286  10.522  13.424 -1.0072  0.0049 -0.6169
  101PROXS  H1337659  15.205  10.358  13.413 -1.9556 -0.7845  1.0566
  101PROXS   C237660  15.079  10.532  13.377  0.7208  0.0766  0.0699
  101PROXS  H2137661  14.987  10.482  13.415  1.6469 -1.5905  0.2476
  101PROXS   C337662  15.098  10.510  13.221  0.1953  1.0417 -0.3097
  101PROXS  H3137663  15.102  10.400  13.208  1.4914  0.8650  1.1986
  101PROXS  H3237664  15.010  10.553  13.169  0.1537  0.6414 -0.5715
  101PROXS  H3337665  15.185  10.565  13.179  0.7370  0.0238 -0.5666
  102PROXS   O137666  15.070  10.667  13.409  0.3750  0.3447 -0.3274
  102PROXS   C137667  14.955  10.732  13.350  0.2367  0.0831 -0.3735
  102PROXS  H1137668  14.958  10.736  13.239 -0.2327 -1.8889 -0.4894
  102PROXS  H1337669  14.864  10.684  13.390  0.1774 -0.7812 -1.5005
  102PROXS   C237670  14.943  10.875  13.415 -0.0392 -0.1251 -0.3982
  102PROXS  H2137671  15.039  10.929  13.403 -1.3298  2.4474  0.0613
  102PROXS   C337672  14.925  10.886  13.570 -0.1385 -0.1505  0.0681
  102PROXS  H3137673  14.821  10.864  13.603 -1.1977  0.9047 -2.2890
  102PROXS  H3237674  14.991  10.808  13.612 -2.6071 -2.4321 -0.0224
  102PROXS  H3337675  14.956  10.988  13.602  0.0853  0.3838 -1.7301
  103PROXR   O137676  14.858  10.948  13.330  0.5095 -0.4158  0.0757
  103PROXR   C137677  14.816  11.079  13.370  0.3160  0.2452 -0.0736
  103PROXR  H1137678  14.744  11.066  13.453 -1.1731  1.8943 -1.0461
  103PROXR  H1337679  14.906  11.134  13.403  0.0478 -0.3408  1.6953
  103PROXR   C237680  14.742  11.146  13.252 -0.0385  0.0434  0.1425
  103PROXR  H2137681  14.673  11.068  13.213 -0.8787  1.3430 -1.0533
  103PROXR   C337682  14.842  11.166  13.138  0.1524 -0.5613  0.7884
  103PROXR  H3137683  14.913  11.247  13.164  1.1180 -0.3759 -2.0639
  103PROXR  H3237684  14.906  11.080  13.110 -0.0529 -0.4708  0.0035
  103PROXR  H3337685  14.789  11.214  13.052 -1.0004 -0.7788  1.3585
  104PROXS   O137686  14.659  11.252  13.298  0.8480  0.2516  0.1602
  104PROXS   C137687  14.742  11.348  13.371  0.0521 -0.2353 -0.6674
  104PROXS  H1137688  14.709  11.349  13.477  1.4271 -0.4539 -0.2243
  104PROXS  H1337689  14.850  11.321  13.366  0.2394  0.4081 -0.2548
  104PROXS   C237690  14.714  11.495  13.309 -0.2942  0.4808 -0.3920
  104PROXS  H2137691  14.608  11.527  13.322 -1.0224 -0.9621 -2.2128
  104PROXS   C337692  14.740  11.501  13.163  0.7326 -0.1684  0.0607
  104PROXS  H3137693  14.846  11.482  13.134  0.2984 -2.4856 -0.1737
  104PROXS  H3237694  14.677  11.429  13.108  0.0100  0.0672  0.5748
  104PROXS  H3337695  14.710  11.604  13.134 -0.5469 -0.2341  1.0596
  105PROXS   O137696  14.807  11.582  13.363 -0.2090 -0.1303 -0.1186
  105PROXS   C137697  14.770  11.634  13.485  0.6665 -0.3636 -0.0112
  105PROXS  H1137698  14.664  11.665  13.485  0.0264 -2.2252  2.6039
  105PROXS  H1337699  14.778  11.552  13.560  1.1436  0.3566  0.7475
  105PROXS   C237700  14.860  11.750  13.542 -0.1893 -0.1993  0.5494
  105PROXS  H2137701  14.961  11.727  13.502  0.0325  1.3677  0.1482
  105PROXS   C337702  14.851  11.752  13.694 -0.1894  0.1509 -0.1875
  105PROXS  H3137703  14.742  11.773  13.705 -0.3621  0.6273 -2.3835
  105PROXS  H3237704  14.868  11.659  13.751 -0.8394  1.1949  1.8138
  105PROXS  H3337705  14.903  11.839  13.739 -1.5301  1.1785 -0.5537
  106PROXS   O137706  14.814  11.879  13.502 -0.6208 -0.3579 -0.8093
  106PROXS   C137707  14.833  11.909  13.363 -0.2977  0.1035 -0.2442
  106PROXS  H1137708  14.868  11.824  13.301  0.6429 -1.3998  2.2036
  106PROXS  H1337709  14.743  11.939  13.306  0.2294 -0.5339 -1.4570
  106PROXS   C237710  14.954  12.013  13.351  0.0367  0.8660 -0.5953
  106PROXS  H2137711  15.036  11.964  13.408 -1.5139 -1.7494 -0.4141
  106PROXS   C337712  14.936  12.148  13.421  0.0986 -0.6785  0.1687
  106PROXS  H3137713  14.925  12.132  13.530 -2.1210 -1.3327 -0.0874
  106PROXS  H3237714  15.027  12.208  13.398  0.0091  0.1224  1.7992
  106PROXS  H3337715  14.850  12.203  13.376 -0.9587  0.8059  3.7041
  107PROXR   O137716  14.996  12.026  13.212 -0.3682  0.9893 -0.7974
  107PROXR   C137717  15.141  12.042  13.208  0.8028  0.4539 -0.3660
  107PROXR  H1137718  15.149  12.153  13.212 -1.4870  0.6461  0.6875
  107PROXR  H1337719  15.199  12.010  13.296 -1.3059  0.0968  0.9801
  107PROXR   C237720  15.183  11.965  13.081 -0.5625 -1.0762 -0.2345
  107PROXR  H2137721  15.136  12.012  12.992  0.2152 -0.0719 -0.1287
  107PROXR   C337722  15.151  11.817  13.093  0.1847 -0.1253 -0.3138
  107PROXR  H3137723  15.047  11.797  13.057  0.0826  0.1564 -0.1782
  107PROXR  H3237724  15.217  11.760  13.024  1.2894  1.4694 -0.6100
  107PROXR  H3337725  15.157  11.780  13.198  0.0047 -0.0211 -0.2645
  108PROXS   O137726  15.321  11.971  13.066 -0.4027 -0.0543 -0.2274
  108PROXS   C137727  15.362  12.068  12.971  0.5478  0.1361  0.5552
  108PROXS  H1137728  15.311  12.047  12.875  0.5660 -2.8339  1.0884
  108PROXS  H1337729  15.321  12.169  12.993  1.3153  0.4155  0.7473
  108PROXS   C237730  15.516  12.079  12.963 -0.4124  0.5470 -0.3887
  108PROXS  H2137731  15.564  12.084  13.063 -0.3971 -0.4278 -0.3409
  108PROXS   C337732  15.571  12.200  12.885  0.4115  0.4683 -0.6064
  108PROXS  H3137733  15.681  12.190  12.878  0.6217  1.2090  1.1615
  108PROXS  H3237734  15.523  12.223  12.787 -0.3064  0.5384 -0.2462
  108PROXS  H3337735  15.543  12.285  12.950 -0.6920 -1.3471  1.4295
  109PROXS   O137736  15.569  11.971  12.890 -0.2881 -0.4189  0.0462
  109PROXS   C137737  15.583  11.854  12.965 -0.1547 -0.3007  1.4249
  109PROXS  H1137738  15.664  11.857  13.041  0.9704 -0.9997  0.3067
  109PROXS  H1337739  15.486  11.828  13.012 -0.7385 -0.2503  0.2937
  109PROXS   C237740  15.625  11.748  12.867  0.1856  0.0341  0.0946
  109PROXS  H2137741  15.692  11.798  12.794  1.0766  0.3359  1.0885
  109PROXS   C337742  15.503  11.682  12.791  0.2876  0.2497 -0.2194
  109PROXS  H3137743  15.461  11.593  12.845 -0.3792 -0.8623 -2.4536
  109PROXS  H3237744  15.416  11.749  12.779 -0.8998 -1.1341  0.2853
  109PROXS  H3337745  15.527  11.650  12.688 -2.6908  0.1114 -0.9574
  110PROXR   O137746  15.692  11.642  12.938 -0.2480  0.2070  0.4106
  110PROXR   C137747  15.790  11.583  12.853 -0.4395  0.4120 -0.3444
  110PROXR  H1137748  15.744  11.568  12.754 -1.1660  0.5800 -0.0377
  110PROXR  H1337749  15.860  11.667  12.833 -1.0504  1.3418  1.2019
  110PROXR   C237750  15.848  11.458  12.917  0.2016  0.2376  0.1149
  110PROXR  H2137751  15.836  11.473  13.026 -0.2136  0.5823  0.0264
  110PROXR   C337752  15.996  11.438  12.870  0.3970  0.2586 -0.5581
  110PROXR  H3137753  16.001  11.435  12.759 -1.0949  2.0765 -0.7200
  110PROXR  H3237754  16.057  11.528  12.892 -0.1164  0.7620 -1.1804
  110PROXR  H3337755  16.045  11.350  12.918  3.0649  1.8532 -0.1313
  111PROXS   O137756  15.767  11.343  12.872  0.0593  0.8295  0.1012
  111PROXS   C137757  15.653  11.330  12.954 -0.0121  0.1140  0.2514
  111PROXS  H1137758  15.681  11.313  13.060 -0.0433  2.6161  0.7216
  111PROXS  H1337759  15.589  11.420  12.939 -0.0261  0.4329  2.0236
  111PROXS   C237760  15.572  11.216  12.890 -0.4001  0.1057  0.5753
  111PROXS  H2137761  15.632  11.123  12.885  1.2605  1.1761  0.0711
  111PROXS   C337762  15.522  11.248  12.748 -0.1295  0.0913 -0.0561
  111PROXS  H3137763  15.481  11.351  12.749  1.5881  0.8567 -1.7419
  111PROXS  H3237764  15.600  11.241  12.669 -0.8525 -1.5461 -0.6737
  111PROXS  H3337765  15.441  11.179  12.717 -2.5845  2.3801  0.8907
  112PROXR   O137766  15.450  11.198  12.970  0.1365  0.7391  0.0972
  112PROXR   C137767  15.397  11.061  12.967 -0.3612 -0.0935 -0.8444
  112PROXR  H1137768  15.396  11.038  12.858  2.8759 -2.5680 -0.4842
  112PROXR  H1337769  15.466  10.987  13.012 -1.7604 -1.3408 -0.6833
  112PROXR   C237770  15.258  11.065  13.033 -0.5344 -0.1779 -0.2368
  112PROXR  H2137771  15.249  11.147  13.108 -0.6702  0.1099 -0.5604
  112PROXR   C337772  15.224  10.927  13.101 -0.0737  0.3774 -0.3939
  112PROXR  H3137773  15.240  10.843  13.030 -0.6988 -1.5001  1.5719
  112PROXR  H3237774  15.287  10.898  13.189 -0.9265  0.6895  0.3374
  112PROXR  H3337775  15.117  10.924  13.130  0.3016 -0.3975  1.0451
  113PROXS   O137776  15.164  11.078  12.929  0.3671  0.6845  0.2438
  113PROXS   C137777  15.162  11.207  12.873 -0.8367 -0.2253 -0.1885
  113PROXS  H1137778  15.154  11.276  12.960 -1.9889 -1.6307  0.8518
  113PROXS  H1337779  15.262  11.215  12.825 -0.9377 -1.3610 -0.6157
  113PROXS   C237780  15.048  11.222  12.769  0.6364 -0.3892 -0.3470
  113PROXS  H2137781  14.951  11.200  12.817  1.4906  2.3380  3.0607
  113PROXS   C337782  15.078  11.141  12.643 -0.0148  0.0789 -0.3651
  113PROXS  H3137783  14.991  11.149  12.575  0.4226 -1.1016 -1.1023
  113PROXS  H3237784  15.165  11.193  12.599 -0.5672  1.6266  0.3104
  113PROXS  H3337785  15.097  11.034  12.666 -2.1559  0.2113  2.4839
  114PROXR   O137786  15.032  11.353  12.720 -0.5712  0.2095 -0.3231
  114PROXR   C137787  14.965  11.448  12.806  0.0240  0.3436 -0.5079
  114PROXR  H1137788  14.856  11.429  12.807  0.0538  0.0173  2.1487
  114PROXR  H1337789  14.975  11.440  12.916 -0.3349  1.1193 -0.4084
  114PROXR   C237790  14.997  11.592  12.769 -0.6366  0.0484  0.0021
  114PROXR  H2137791  14.964  11.615  12.665  0.9848  0.2741 -0.4828
  114PROXR   C337792  15.153  11.611  12.775 -0.3760  0.2504 -0.1855
  114PROXR  H3137793  15.190  11.714  12.758  0.5567 -0.4092 -2.6056
  114PROXR  H3237794  15.178  11.570  12.875 -1.0463 -2.6011 -1.0805
  114PROXR  H3337795  15.204  11.546  12.700  0.1219  1.2467 -0.7368
  115PROXR   O137796  14.929  11.674  12.867  0.1332  0.5049 -0.4230
  115PROXR   C137797  14.895  11.807  12.822 -0.0701  0.2646  0.5885
  115PROXR  H1137798  14.977  11.881  12.817  0.0511  0.1779  1.1969
  115PROXR  H1337799  14.858  11.802  12.717 -0.2180  2.1825  0.5197
  115PROXR   C237800  14.779  11.866  12.909 -0.0091  0.1880  0.3800
  115PROXR  H2137801  14.810  11.866  13.016  0.4818 -1.7189  0.2860
  115PROXR   C337802  14.644  11.791  12.891  0.3536  0.3674  0.4107
  115PROXR  H3137803  14.660  11.682  12.906  1.1950  0.4029 -0.1853
  115PROXR  H3237804  14.570  11.812  12.971 -0.0292  0.9716 -0.0896
  115PROXR  H3337805  14.608  11.815  12.788  1.5302  0.6100  0.0394
  116PROXS   O137806  14.770  12.004  12.879  0.6400  0.2832 -0.3470
  116PROXS   C137807  14.713  12.077  12.985  0.1910 -0.0495  0.4708
  116PROXS  H1137808  14.613  12.034  13.007 -0.1106  0.5825  0.3368
  116PROXS  H1337809  14.781  12.074  13.074  0.6119  3.0628  0.3726
  116PROXS   C237810  14.703  12.226  12.945  0.2426 -0.0899  0.4321
  116PROXS  H2137811  14.629  12.243  12.864  1.0631 -1.8237 -0.7286
  116PROXS   C337812  14.841  12.289  12.899 -0.5859  0.0038  0.0877
  116PROXS  H3137813  14.907  12.308  12.986 -0.2240 -1.7543  0.2437
  116PROXS  H3237814  14.898  12.231  12.824  0.9675  0.0934  1.1568
  116PROXS  H3337815  14.829  12.392  12.858  0.6044  0.9576  1.9890
  117PROXS   O137816  14.658  12.293  13.059 -0.1468  0.0049  0.3411
  117PROXS   C137817  14.516  12.292  13.078  0.1022  0.0230  0.0399
  117PROXS  H1137818  14.466  12.381  13.035 -0.6222 -0.2829  0.2419
  117PROXS  H1337819  14.456  12.213  13.028 -0.0161  0.9047 -1.2780
  117PROXS   C237820  14.482  12.285  13.232  0.2083 -0.6406  0.5206
  117PROXS  H2137821  14.537  12.367  13.284  0.3500 -0.9557  0.8737
  117PROXS   C337822  14.525  12.154  13.285 -0.1541  0.2296  0.0260
  117PROXS  H3137823  14.462  12.079  13.233  0.5769 -0.0402 -0.4849
  117PROXS  H3237824  14.629  12.140  13.249  0.0841  0.4631  0.6009
  117PROXS  H3337825  14.518  12.143  13.396  1.3647  1.0621  0.2422
  118PROXR   O137826  14.339  12.311  13.252  0.9060  0.1146  0.0496
  118PROXR   C137827  14.296  12.309  13.383 -0.0534 -0.5861 -0.3469
  118PROXR  H1137828  14.260  12.208  13.410 -0.8896  0.0415  0.9919
  118PROXR  H1337829  14.386  12.328  13.446  0.6743 -1.7953 -0.9772
  118PROXR   C237830  14.181  12.412  13.406  0.2028 -0.5737  0.3313
  118PROXR  H2137831  14.099  12.384  13.337  0.6275 -1.8229  0.3032
  118PROXR   C337832  14.219  12.564  13.379 -0.2156 -0.4272  0.1760
  118PROXR  H3137833  14.133  12.632  13.398  0.7739  1.8352 -2.7290
  118PROXR  H3237834  14.299  12.590  13.453  0.4658 -0.2735 -0.6042
  118PROXR  H3337835  14.266  12.595  13.283 -0.2191  0.5284  0.4662
  119PROXR   O137836  14.121  12.386  13.527 -0.3177 -0.2943  1.1088
  119PROXR   C137837  14.218  12.403  13.631  0.6081  0.5444 -0.3982
  119PROXR  H1137838  14.317  12.448  13.605  2.4479 -2.2096  1.3353
  119PROXR  H1337839  14.166  12.468  13.705 -0.3890  2.4880 -2.6445
  119PROXR   C237840  14.261  12.266  13.703  0.5923 -0.0881  0.6773
  119PROXR  H2137841  14.310  12.195  13.633 -1.1062 -0.4007 -0.2482
  119PROXR   C337842  14.135  12.201  13.778 -0.7407  0.4454  0.5473
  119PROXR  H3137843  14.154  12.095  13.806  1.0970  0.7891  0.7376
  119PROXR  H3237844  14.104  12.257  13.869 -1.2715  0.7285  0.1913
  119PROXR  H3337845  14.051  12.197  13.706 -0.1738  1.6214 -0.1951
  120PROXS   O137846  14.367  12.300  13.784  0.1810  0.0450  0.3176
  120PROXS   C137847  14.430  12.190  13.847  0.1011 -0.1628 -0.3353
  120PROXS  H1137848  14.365  12.143  13.924 -0.4859  0.4265 -0.4619
  120PROXS  H1337849  14.456  12.124  13.761 -1.1221 -0.3762 -0.5543
  120PROXS   C237850  14.552  12.238  13.928  0.3198  0.1313  0.2130
  120PROXS  H2137851  14.519  12.304  14.011 -1.4699 -0.2125 -0.1983
  120PROXS   C337852  14.665  12.301  13.847 -0.3918 -0.4856  0.2435
  120PROXS  H3137853  14.739  12.347  13.915  0.0748 -0.1067 -0.4999
  120PROXS  H3237854  14.695  12.221  13.775 -0.2877 -0.1927 -0.0439
  120PROXS  H3337855  14.622  12.372  13.773 -0.3336 -1.3836 -0.6825
  121PROXS   O137856  14.610  12.121  13.984 -0.2073  0.2528  0.4583
  121PROXS   C137857  14.627  12.138  14.119  0.3828  0.2917 -0.3758
  121PROXS  H1137858  14.694  12.225  14.138  1.9311 -1.0296  0.5136
  121PROXS  H1337859  14.523  12.144  14.158  0.9034  0.8178  0.9955
  121PROXS   C237860  14.688  12.013  14.190  0.4458  0.2828 -0.0862
  121PROXS  H2137861  14.630  11.923  14.160 -0.2048  1.4060 -2.3748
  121PROXS   C337862  14.689  12.027  14.345 -0.4533 -0.2851  0.2398
  121PROXS  H3137863  14.587  12.041  14.387 -0.6041  0.5348 -0.3960
  121PROXS  H3237864  14.723  11.931  14.391 -0.9900 -1.6782 -2.0679
  121PROXS  H3337865  14.751  12.116  14.367 -1.2662  0.4161 -0.2325
  122PROXS   O137866  14.819  11.993  14.142 -0.1265 -0.1720 -0.3101
  122PROXS   C137867  14.871  11.857  14.155 -0.0267  0.4056 -0.1498
  122PROXS  H1137868  14.942  11.855  14.241 -1.9636  0.3884  1.5267
  122PROXS  H1337869  14.787  11.786  14.173  0.3147 -0.0978 -0.4989
  122PROXS   C237870  14.929  11.803  14.017  0.7686  0.0556 -0.2674
  122PROXS  H2137871  14.856  11.843  13.943  0.8158  3.1107  1.1588
  122PROXS   C337872  14.952  11.649  14.025  0.3116 -0.0044  0.2114
  122PROXS  H3137873  14.976  11.615  13.922  1.2846  1.1547  0.0244
  122PROXS  H3237874  15.037  11.633  14.096  0.0399  1.4179  0.8959
  122PROXS  H3337875  14.862  11.589  14.048  0.8179 -1.2946 -1.0114
  123PROXS   O137876  15.057  11.861  13.986 -0.2924 -0.7447 -0.3126
  123PROXS   C137877  15.057  11.993  13.935 -0.4663  0.3802 -0.4805
  123PROXS  H1137878  14.961  12.011  13.881 -0.6237  0.1442 -0.2813
  123PROXS  H1337879  15.074  12.066  14.017  1.4018 -2.4910  1.8637
  123PROXS   C237880  15.194  11.997  13.852  0.3386  0.4423  0.1273
  123PROXS  H2137881  15.179  11.937  13.760  0.6885 -0.5083  0.6742
  123PROXS   C337882  15.322  11.954  13.928 -0.3596 -0.0782  0.6090
  123PROXS  H3137883  15.318  11.851  13.970  1.7311 -1.1430 -1.5771
  123PROXS  H3237884  15.409  11.956  13.860  0.5851 -1.2054  1.7293
  123PROXS  H3337885  15.340  12.030  14.007  0.1914 -0.1456  0.5484
  124PROXR   O137886  15.232  12.128  13.809 -0.1518  0.1573  0.2359
  124PROXR   C137887  15.129  12.205  13.751  0.2560  0.5823 -0.1208
  124PROXR  H1137888  15.061  12.140  13.692  0.0831 -0.5648  1.3061
  124PROXR  H1337889  15.076  12.240  13.842 -1.7444 -0.4109 -0.8275
  124PROXR   C237890  15.161  12.330  13.673 -0.6449 -0.5770  0.2855
  124PROXR  H2137891  15.234  12.389  13.734 -1.3455  1.3138 -0.6322
  124PROXR   C337892  15.034  12.422  13.648  0.5817  0.2555  0.0608
  124PROXR  H3137893  14.986  12.385  13.555  0.0187 -1.3921  0.9664
  124PROXR  H3237894  14.974  12.399  13.739  0.1388  0.7795 -0.1020
  124PROXR  H3337895  15.054  12.531  13.640  1.2964  0.3967  2.6116
  125PROXS   O137896  15.230  12.301  13.549  0.4513 -0.3966  0.8135
  125PROXS   C137897  15.294  12.420  13.492  0.5274  0.0206  0.6826
  125PROXS  H1137898  15.239  12.513  13.466  0.4080 -0.3961 -0.6094
  125PROXS  H1337899  15.378  12.452  13.558 -0.9125  0.9868  2.1381
  125PROXS   C237900  15.345  12.372  13.350 -0.0139 -0.3449 -0.2552
  125PROXS  H2137901  15.256  12.337  13.293 -0.6180  1.6232 -0.6013
  125PROXS   C337902  15.458  12.267  13.360 -0.3846  0.2426 -0.3581
  125PROXS  H3137903  15.534  12.310  13.428  1.8369  0.6992 -2.9427
  125PROXS  H3237904  15.403  12.185  13.410 -2.9487  0.7888 -2.0613
  125PROXS  H3337905  15.501  12.234  13.263 -2.5699 -0.9370 -1.0181
  126PROXS   O137906  15.392  12.487  13.285 -0.4332  0.0575  0.1046
  126PROXS   C137907  15.423  12.460  13.149  0.2392 -0.4822  0.0700
  126PROXS  H1137908  15.524  12.420  13.129  1.0225  1.1875  0.5782
  126PROXS  H1337909  15.356  12.383  13.105 -0.1213  0.3498 -0.8876
  126PROXS   C237910  15.416  12.596  13.073  0.4351  0.2433  0.1017
  126PROXS  H2137911  15.514  12.644  13.093  0.5847  0.5468 -1.2625
  126PROXS   C337912  15.300  12.690  13.113 -0.0760  0.1500 -0.4371
  126PROXS  H3137913  15.315  12.788  13.064 -2.1934  0.7340  0.0161
  126PROXS  H3237914  15.205  12.646  13.077 -1.0008  0.2788  1.6555
  126PROXS  H3337915  15.301  12.709  13.223 -0.5322  0.1942 -0.4405
  127PROXR   O137916  15.418  12.562  12.934  0.0778 -0.0952 -0.1929
  127PROXR   C137917  15.421  12.681  12.845 -0.1395 -0.0530 -0.0207
  127PROXR  H1137918  15.331  12.746  12.850 -0.4675 -0.5555  0.9084
  127PROXR  H1337919  15.507  12.742  12.881 -0.6704  0.7956 -0.1654
  127PROXR   C237920  15.439  12.631  12.699 -0.6348  0.0957  0.1561
  127PROXR  H2137921  15.518  12.553  12.703 -0.3376  0.3329 -0.7786
  127PROXR   C337922  15.485  12.740  12.598  0.4966  0.6664  0.0813
  127PROXR  H3137923  15.482  12.702  12.494 -2.2175  1.9883 -0.4011
  127PROXR  H3237924  15.419  12.829  12.597  0.7737  0.8818 -1.6712
  127PROXR  H3337925  15.588  12.774  12.624  0.9629  0.0456 -0.8776
  128PROXR   O137926  15.319  12.572  12.643 -1.2013  0.3112 -0.1330
  128PROXR   C137927  15.318  12.429  12.669 -1.1298 -0.6204  0.0775
  128PROXR  H1137928  15.400  12.394  12.603 -0.7222  1.7598 -0.7832
  128PROXR  H1337929  15.336  12.402  12.776  0.4484 -0.7447 -0.1913
  128PROXR   C237930  15.176  12.390  12.613  0.3736  0.7684  0.1578
  128PROXR  H2137931  15.178  12.406  12.503 -1.0662 -2.0775 -0.3937
  128PROXR   C337932  15.056  12.462  12.681  0.4289  0.7024  0.2622
  128PROXR  H3137933  15.075  12.430  12.786  0.1765 -1.8432 -0.3989
  128PROXR  H3237934  15.060  12.572  12.665  1.0251  1.0056  2.1599
  128PROXR  H3337935  14.962  12.416  12.644  0.7138 -0.9693  1.5097
  129PROXS   O137936  15.156  12.246  12.625  0.8143 -0.1897 -0.5726
  129PROXS   C137937  15.250  12.161  12.561  0.1488 -0.8041 -0.1367
  129PROXS  H1137938  15.307  12.219  12.485  0.5561  0.1088  0.8329
  129PROXS  H1337939  15.324  12.135  12.640 -0.7093  4.6459  3.0215
  129PROXS   C237940  15.195  12.031  12.498 -0.0539 -0.2851 -0.0277
  129PROXS  H2137941  15.138  11.975  12.575  1.3448 -0.0790  1.2025
  129PROXS   C337942  15.302  11.935  12.462  0.3595  0.6268 -0.1398
  129PROXS  H3137943  15.382  11.928  12.538  0.6406  0.1645 -0.4677
  129PROXS  H3237944  15.272  11.828  12.461  1.7349  0.2229 -0.6736
  129PROXS  H3337945  15.352  11.965  12.368  0.5727 -1.1897 -0.6553
  130PROXS   O137946  15.113  12.059  12.382  0.0760 -0.2571 -0.3028
  130PROXS   C137947  15.011  12.152  12.411  0.2086 -0.6566  0.4956
  130PROXS  H1137948  14.968  12.143  12.513 -1.4937 -0.7099 -0.1918
  130PROXS  H1337949  15.044  12.256  12.395  0.4984 -0.8043  0.1192
  130PROXS   C237950  14.890  12.135  12.316 -0.1706  0.8358  0.0282
  130PROXS  H2137951  14.854  12.030  12.313  1.1855  0.3800 -1.9859
  130PROXS   C337952  14.915  12.180  12.172 -0.6860  0.0298 -0.1026
  130PROXS  H3137953  14.828  12.205  12.109 -1.0113 -0.3638  0.1842
  130PROXS  H3237954  14.971  12.276  12.172  0.8551 -0.7231 -3.7061
  130PROXS  H3337955  14.979  12.099  12.130 -0.0153  0.7525 -0.4894
  131PROXS   O137956  14.791  12.222  12.366  0.1327  0.1865 -0.0246
  131PROXS   C137957  14.711  12.164  12.469  0.1018  0.2233 -0.1166
  131PROXS  H1137958  14.677  12.065  12.432  2.0164  0.0259 -1.5280
  131PROXS  H1337959  14.754  12.148  12.570 -2.0541  0.7989  0.9431
  131PROXS   C237960  14.594  12.265  12.511 -0.1379  0.5813  0.1683
  131PROXS  H2137961  14.535  12.278  12.418 -0.0205  2.2154  0.2895
  131PROXS   C337962  14.654  12.397  12.554  0.0889  0.1455 -0.4913
  131PROXS  H3137963  14.569  12.460  12.588 -0.3251 -0.6293 -0.0593
  131PROXS  H3237964  14.729  12.371  12.632 -2.1407 -1.8713  1.1517
  131PROXS  H3337965  14.699  12.458  12.473 -0.3422  0.0458 -0.8083
  132PROXS   O137966  14.517  12.204  12.610  0.0438 -0.3529 -0.1040
  132PROXS   C137967  14.386  12.242  12.604  0.4637  1.0091  0.3640
  132PROXS  H1137968  14.378  12.352  12.588  1.2792  0.9639 -0.4578
  132PROXS  H1337969  14.343  12.201  12.510  1.9979  0.3172 -0.0778
  132PROXS   C237970  14.316  12.203  12.733 -0.1160  0.0802  0.3977
  132PROXS  H2137971  14.360  12.264  12.815 -0.9737  0.6844  0.4186
  132PROXS   C337972  14.316  12.056  12.776 -0.0787  0.3600 -0.1957
  132PROXS  H3137973  14.409  12.002  12.807  0.0111 -0.4933 -1.8335
  132PROXS  H3237974  14.249  12.044  12.863  1.7635  0.1453  1.2457
  132PROXS  H3337975  14.269  11.993  12.697 -0.5341 -0.8112  0.9825
  133PROXS   O137976  14.172  12.247  12.728 -0.0774  0.0269 -0.2877
  133PROXS   C137977  14.112  12.251  12.859 -0.5388  0.2014  0.6285
  133PROXS  H1137978  14.100  12.150  12.903 -0.8108 -0.1246 -0.1775
  133PROXS  H1337979  14.178  12.312  12.924  2.0289  0.3176 -1.8845
  133PROXS   C237980  13.971  12.320  12.845  0.9602  0.4420 -0.1931
  133PROXS  H2137981  13.980  12.407  12.777 -1.8704  2.4564  1.7790
  133PROXS   C337982  13.924  12.369  12.985  0.1294 -0.0360  0.0492
  133PROXS  H3137983  13.954  12.286  13.052  1.0022 -0.1486 -0.4650
  133PROXS  H3237984  13.979  12.461  13.014  0.6008 -0.1016 -0.5980
  133PROXS  H3337985  13.817  12.393  12.999  0.6559  1.5723  1.7406
  134PROXS   O137986  13.877  12.222  12.791 -0.1265 -0.1125  0.0860
  134PROXS   C137987  13.905  12.160  12.660  0.3428 -0.3594 -0.4248
  134PROXS  H1137988  13.976  12.224  12.603  0.7743 -1.4973 -1.1882
  134PROXS  H1337989  13.962  12.065  12.670  2.6437  0.6243 -2.8848
  134PROXS   C237990  13.771  12.138  12.595  0.3367  0.1705 -0.1832
  134PROXS  H2137991  13.706  12.225  12.618 -3.4611 -2.4913  0.2099
  134PROXS   C337992  13.699  12.016  12.653  0.5069 -0.3037  0.1477
  134PROXS  H3137993  13.592  12.013  12.622 -0.1093 -0.7786  2.1970
  134PROXS  H3237994  13.754  11.930  12.609 -1.2290 -0.2742 -2.3300
  134PROXS  H3337995  13.690  12.021  12.763  1.7449  0.8452  0.2111
  135PROXS   O137996  13.783  12.126  12.454 -0.3742 -0.1363  0.0907
  135PROXS   C137997  13.765  12.250  12.390  0.1485 -0.1097  0.3584
  135PROXS  H1137998  13.662  12.288  12.406  0.4485  0.3038  1.3718
  135PROXS  H1337999  13.835  12.326  12.432  2.3822 -2.0344  0.3353
  135PROXS   C238000  13.791  12.238  12.244 -0.2460 -0.1249  0.3873
  135PROXS  H2138001  13.715  12.170  12.200 -2.4149  2.7768 -0.6779
  135PROXS   C338002  13.933  12.188  12.216 -0.2653  0.2424  0.1955
  135PROXS  H3138003  14.013  12.263  12.231  0.8153 -1.1435  1.6565
  135PROXS  H3238004  13.959  12.106  12.286 -0.3038  1.5812  1.8468
  135PROXS  H3338005  13.939  12.156  12.110 -0.4809 -0.0030  0.2564
  136PROXS   O138006  13.773  12.368  12.179  0.2217  0.6443 -0.1211
  136PROXS   C138007  13.639  12.403  12.160 -0.7829 -0.4970  0.0344
  136PROXS  H1138008  13.579  12.320  12.116  0.6174 -0.7892 -1.4283
  136PROXS  H1338009  13.595  12.427  12.259  1.4865 -2.1560  1.5613
  136PROXS   C238010  13.633  12.518  12.053  0.1454  0.6916 -0.8127
  136PROXS  H2138011  13.684  12.472  11.966 -1.4772  0.1966 -1.5375
  136PROXS   C338012  13.708  12.642  12.108  0.0118  0.4850 -0.2490
  136PROXS  H3138013  13.816  12.627  12.131  0.3204 -0.7330 -2.2714
  136PROXS  H3238014  13.706  12.731  12.042  2.0409 -0.6756 -2.0084
  136PROXS  H3338015  13.655  12.660  12.204  0.8649  0.6934  0.1935
  137PROXS   O138016  13.497  12.546  12.034  0.1805 -0.2663 -0.4895
  137PROXS   C138017  13.468  12.641  11.925  0.0965  0.1899  0.4097
  137PROXS  H1138018  13.535  12.729  11.927 -1.8593  1.7522  1.0149
  137PROXS  H1338019  13.489  12.601  11.824  0.0552  2.7154 -0.6762
  137PROXS   C238020  13.318  12.679  11.931 -0.2330 -0.1768  0.3668
  137PROXS  H2138021  13.286  12.684  12.038 -2.0714 -4.8370  0.2519
  137PROXS   C338022  13.224  12.579  11.869 -0.2089  0.2456  0.2186
  137PROXS  H3138023  13.251  12.583  11.761  1.9875 -0.4452  0.6971
  137PROXS  H3238024  13.245  12.477  11.908 -0.7577  1.0916  2.9426
  137PROXS  H3338025  13.118  12.609  11.886 -0.4768  0.3572 -1.4099
  138PROXR   O138026  13.301  12.794  11.856 -1.0383 -0.2026 -0.4339
  138PROXR   C138027  13.262  12.908  11.936 -0.1998  0.0459  0.8321
  138PROXR  H1138028  13.211  12.976  11.864 -1.1049 -0.2811  1.1485
  138PROXR  H1338029  13.184  12.879  12.009 -0.0247 -1.3414  0.5019
  138PROXR   C238030  13.376  12.978  11.997 -0.2781  0.0354  0.4478
  138PROXR  H2138031  13.434  12.909  12.062 -1.9406 -0.3661  1.5332
  138PROXR   C338032  13.331  13.096  12.092 -0.1939 -0.3390  0.2774
  138PROXR  H3138033  13.287  13.172  12.024 -0.3621 -1.5585 -1.0332
  138PROXR  H3238034  13.263  13.070  12.176 -2.4944  1.9295 -0.7252
  138PROXR  H3338035  13.423  13.140  12.135  0.9810 -1.8306 -0.5883
  139PROXS   O138036  13.457  13.035  11.893  0.0297  0.3713 -0.1213
  139PROXS   C138037  13.597  13.046  11.920 -0.5600 -0.3564 -0.0722
  139PROXS  H1138038  13.613  13.106  12.012  2.1378 -0.3037 -0.4683
  139PROXS  H1338039  13.634  12.942  11.934  0.3048 -0.0155  0.2570
  139PROXS   C238040  13.683  13.107  11.815 -0.4962 -0.3937  0.0880
  139PROXS  H2138041  13.648  13.210  11.789  0.6656 -0.3119 -1.2320
  139PROXS   C338042  13.696  13.013  11.692  0.2821 -0.4716 -0.1647
  139PROXS  H3138043  13.721  12.911  11.728  0.7384 -0.0620  0.7140
  139PROXS  H3238044  13.592  13.005  11.652  0.1353 -0.2412  0.1636
  139PROXS  H3338045  13.763  13.060  11.617 -0.4422 -1.5179 -1.4963
  140PROXR   O138046  13.812  13.134  11.870  0.7246 -0.2058 -0.3442
  140PROXR   C138047  13.891  13.227  11.795  0.0256  0.1318 -0.7034
  140PROXR  H1138048  13.861  13.237  11.689 -0.1180  3.2261 -0.4698
  140PROXR  H1338049  13.874  13.328  11.836 -1.1135  0.5640 -2.1661
  140PROXR   C238050  14.041  13.203  11.818 -0.1731  0.7838  0.4408
  140PROXR  H2138051  14.062  13.183  11.925  1.1740 -0.7833 -0.0840
  140PROXR   C338052  14.121  13.319  11.773 -0.0201  0.1630  0.6491
  140PROXR  H3138053  14.225  13.316  11.813  0.7226 -0.8499 -1.2145
  140PROXR  H3238054  14.125  13.327  11.662 -4.1377  0.9775  0.3966
  140PROXR  H3338055  14.081  13.419  11.799 -1.9073 -0.5461  0.6367
  141PROXS   O138056  14.075  13.083  11.751  0.0287  0.2762  0.2228
  141PROXS   C138057  14.060  12.964  11.821  0.0573  0.2331 -0.2942
  141PROXS  H1138058  14.121  12.968  11.914 -0.5076  0.9955  0.0642
  141PROXS  H1338059  13.955  12.958  11.859  0.5388 -1.5331  0.8955
  141PROXS   C238060  14.113  12.853  11.735 -0.2637  0.2040  0.8216
  141PROXS  H2138061  14.220  12.874  11.709  0.3804 -0.2574  2.9305
  141PROXS   C338062  14.040  12.833  11.598 -0.0771  0.3363  0.3263
  141PROXS  H3138063  14.079  12.752  11.534 -2.0082  0.0242 -0.5111
  141PROXS  H3238064  13.938  12.795  11.617 -0.1950  0.3219 -0.3356
  141PROXS  H3338065  14.033  12.926  11.538 -0.5087 -0.0168 -0.1711
  142PROXS   O138066  14.101  12.728  11.797  0.5420 -0.2173  0.1745
  142PROXS   C138067  14.209  12.697  11.882 -0.6917  0.1755 -0.4295
  142PROXS  H1138068  14.308  12.680  11.835  1.5465 -0.2240  3.8921
  142PROXS  H1338069  14.218  12.781  11.954  1.9377  0.1043 -0.5643
  142PROXS   C238070  14.188  12.565  11.965 -0.1009  0.2176 -0.8273
  142PROXS  H2138071  14.124  12.498  11.905  0.6444 -0.6397 -0.6832
  142PROXS   C338072  14.115  12.583  12.105  0.2619  0.8062  0.3097
  142PROXS  H3138073  14.171  12.658  12.166 -0.2434  1.1513  0.3548
  142PROXS  H3238074  14.009  12.611  12.086 -0.7115 -1.5083  1.9553
  142PROXS  H3338075  14.105  12.483  12.151 -2.4304  1.0905  0.4638
  143PROXS   O138076  14.311  12.493  11.973 -0.0349  0.0850 -0.0254
  143PROXS   C138077  14.296  12.363  12.028 -0.2089 -0.0770 -0.1630
  143PROXS  H1138078  14.259  12.362  12.133 -0.2286  0.0444 -0.1688
  143PROXS  H1338079  14.215  12.311  11.974 -0.3139 -1.7371  1.4790
  143PROXS   C238080  14.423  12.278  12.028 -0.4075  0.2771 -0.2784
  143PROXS  H2138081  14.496  12.320  12.101 -0.4426  1.8987 -1.1379
  143PROXS   C338082  14.491  12.259  11.888  0.0079 -0.0470  0.6556
  143PROXS  H3138083  14.565  12.177  11.894  1.1921  1.0357  1.4917
  143PROXS  H3238084  14.412  12.232  11.815  0.1151  0.8063  0.2132
  143PROXS  H3338085  14.535  12.355  11.855 -3.4079  1.0922 -1.0794
  144PROXS   O138086  14.394  12.149  12.082  0.0817  0.6809  0.5199
  144PROXS   C138087  14.500  12.083  12.144 -0.4403  0.3188 -1.0616
  144PROXS  H1138088  14.585  12.065  12.075  1.1546  2.6063  0.1512
  144PROXS  H1338089  14.539  12.139  12.232  0.3253  0.0173 -1.1982
  144PROXS   C238090  14.462  11.937  12.191 -0.3636  0.0598  0.2887
  144PROXS  H2138091  14.435  11.882  12.098  1.1109 -0.3503  0.0716
  144PROXS   C338092  14.350  11.932  12.297  0.1638  0.7135 -0.4638
  144PROXS  H3138093  14.252  11.971  12.263 -1.0034 -0.8261  0.9462
  144PROXS  H3238094  14.323  11.830  12.331  0.0830  1.6876  2.7399
  144PROXS  H3338095  14.380  11.994  12.385 -0.0432  1.8993 -1.2114
  145PROXR   O138096  14.586  11.876  12.234 -0.5980 -0.0075  0.0215
  145PROXR   C138097  14.588  11.733  12.246 -0.2151 -0.1426  0.2725
  145PROXR  H1138098  14.491  11.700  12.290  1.2407 -3.5384  1.2251
  145PROXR  H1338099  14.599  11.689  12.144  0.1419 -1.0344  0.6851
  145PROXR   C238100  14.688  11.688  12.358  0.5176 -0.2057  0.7638
  145PROXR  H2138101  14.665  11.739  12.454  0.9382  1.7713 -0.1324
  145PROXR   C338102  14.832  11.722  12.306 -0.6153  0.1127 -0.2348
  145PROXR  H3138103  14.852  11.659  12.217 -0.1058  0.9866 -0.7501
  145PROXR  H3238104  14.842  11.831  12.286 -0.3755 -0.0444 -0.9925
  145PROXR  H3338105  14.899  11.706  12.393 -1.0175  2.3786  0.5741
  146PROXS   O138106  14.682  11.542  12.365 -0.9239  0.3990  0.2301
  146PROXS   C138107  14.588  11.496  12.459  0.1540  0.0749 -0.5286
  146PROXS  H1138108  14.630  11.528  12.557 -0.2864  0.8803 -0.5946
  146PROXS  H1338109  14.487  11.542  12.452  0.0903  0.0492  0.1494
  146PROXS   C238110  14.574  11.346  12.446 -0.8207 -0.2844 -0.0674
  146PROXS  H2138111  14.672  11.297  12.431 -1.1389 -1.8192  2.2795
  146PROXS   C338112  14.484  11.291  12.334  0.2290 -0.7712 -0.2809
  146PROXS  H3138113  14.387  11.347  12.337  0.2373 -0.7776  0.4872
  146PROXS  H3238114  14.525  11.309  12.233  1.4388  1.6470  0.5670
  146PROXS  H3338115  14.458  11.185  12.356 -1.5691 -0.1718  0.7351
  147PROXR   O138116  14.515  11.301  12.563 -0.0008 -0.0498  0.4481
  147PROXR   C138117  14.607  11.265  12.668  0.1182  0.2678  0.4638
  147PROXR  H1138118  14.691  11.204  12.629  0.0809 -0.2074  1.1108
  147PROXR  H1338119  14.655  11.353  12.714  0.8361  0.0136  0.2113
  147PROXR   C238120  14.528  11.183  12.770 -0.5952 -0.1585  0.1350
  147PROXR  H2138121  14.471  11.106  12.716 -1.3328  0.5497 -0.1185
  147PROXR   C338122  14.420  11.261  12.842  0.0044  0.1584 -0.0266
  147PROXR  H3138123  14.458  11.356  12.885 -1.3195 -0.8433  3.7591
  147PROXR  H3238124  14.349  11.296  12.764  1.9480  1.4016 -1.3135
  147PROXR  H3338125  14.360  11.198  12.911 -0.7573  1.1564  0.2504
  148PROXR   O138126  14.623  11.129  12.858 -0.4282  0.0528 -0.4525
  148PROXR   C138127  14.568  11.021  12.925  0.1871 -0.0341 -0.4969
  148PROXR  H1138128  14.543  11.060  13.026 -0.9796 -1.1587 -0.3210
  148PROXR  H1338129  14.482  10.971  12.877 -1.5722  1.5137  0.8983
  148PROXR   C238130  14.666  10.905  12.950 -0.6866  0.4407  0.4521
  148PROXR  H2138131  14.751  10.947  13.009  0.8021 -1.3559 -0.3201
  148PROXR   C338132  14.727  10.849  12.825  0.1372  0.9779  0.6643
  148PROXR  H3138133  14.651  10.807  12.755  1.1423  1.3020 -0.6592
  148PROXR  H3238134  14.782  10.924  12.764  3.3155 -1.2318  0.5456
  148PROXR  H3338135  14.803  10.772  12.848  1.6610  1.9294 -0.9849
  149PROXR   O138136  14.603  10.801  13.024  0.2308  0.1520 -0.3261
  149PROXR   C138137  14.689  10.707  13.091  0.7459 -0.3998  0.0742
  149PROXR  H1138138  14.744  10.635  13.026  2.4966 -0.8130  1.9287
  149PROXR  H1338139  14.770  10.763  13.141  1.3169 -1.4139  0.3100
  149PROXR   C238140  14.617  10.619  13.206 -0.0994  0.1085 -0.2336
  149PROXR  H2138141  14.535  10.564  13.154 -0.0026 -0.1619 -0.0991
  149PROXR   C338142  14.562  10.711  13.320  1.1303 -0.1929  0.0896
  149PROXR  H3138143  14.515  10.800  13.273  0.8631 -0.2363  0.2717
  149PROXR  H3238144  14.495  10.661  13.394  0.5398  1.3877  0.6608
  149PROXR  H3338145  14.648  10.749  13.379  1.4656 -0.3361 -0.3023
  150PROXS   O138146  14.702  10.525  13.273  0.0551 -0.1047  0.1085
  150PROXS   C138147  14.623  10.415  13.324 -0.0032 -0.1035 -0.0982
  150PROXS  H1138148  14.548  10.455  13.395 -0.7622 -0.2919 -0.7724
  150PROXS  H1338149  14.569  10.357  13.246  0.6897 -0.4206 -0.3527
  150PROXS   C238150  14.713  10.314  13.406  0.4241  0.1201  0.5112
  150PROXS  H2138151  14.751  10.371  13.493  1.0979  1.5692 -0.6914
  150PROXS   C338152  14.833  10.268  13.332 -0.0816 -0.2414  0.5232
  150PROXS  H3138153  14.909  10.210  13.389  1.0073  0.1806 -0.4461
  150PROXS  H3238154  14.795  10.193  13.259 -0.3377 -0.1236  0.5337
  150PROXS  H3338155  14.889  10.344  13.273 -0.3156 -0.3006  0.2238
  151PROXR   O138156  14.636  10.206  13.447  0.5748 -0.2384 -0.0005
  151PROXR   C138157  14.536  10.226  13.547 -0.1670  0.6718  0.1353
  151PROXR  H1138158  14.591  10.269  13.633  2.3111 -1.9494 -0.0002
  151PROXR  H1338159  14.445  10.278  13.509 -0.6110 -0.9373 -1.1200
  151PROXR   C238160  14.493  10.090  13.591  0.0836 -0.6188  1.0274
  151PROXR  H2138161  14.580  10.024  13.610 -1.5240 -3.5194 -0.8310
  151PROXR   C338162  14.400  10.018  13.495  0.1297 -0.3512  0.1152
  151PROXR  H3138163  14.311  10.080  13.472  0.3292  0.0267  0.3521
  151PROXR  H3238164  14.453   9.999  13.399 -0.8527  1.4402 -0.8173
  151PROXR  H3338165  14.370   9.917  13.531 -1.7163 -0.0057 -0.3595
  152PROXR   O138166  14.424  10.103  13.713  0.0727  0.3798  0.5105
  152PROXR   C138167  14.504  10.072  13.828 -0.0875  0.4484  0.5234
  152PROXR  H1138168  14.528   9.964  13.835  1.2807  0.2850 -3.6655
  152PROXR  H1338169  14.604  10.116  13.811  0.3961 -0.3812  1.1982
  152PROXR   C238170  14.452  10.134  13.960 -1.1421  0.1201 -0.0573
  152PROXR  H2138171  14.346  10.102  13.971 -0.0567 -3.2674  2.4180
  152PROXR   C338172  14.462  10.286  13.966  0.2103  0.2507  0.1056
  152PROXR  H3138173  14.565  10.323  13.946 -0.8382  3.3678 -0.1581
  152PROXR  H3238174  14.397  10.331  13.887  0.9918 -2.2810 -2.1323
  152PROXR  H3338175  14.426  10.329  14.062 -0.9730  0.0510 -0.2230
  153PROXR   O138176  14.520  10.075  14.071 -0.1231 -1.0380 -0.0289
  153PROXR   C138177  14.453  10.077  14.189  0.3141  0.0821 -0.0585
  153PROXR  H1138178  14.362  10.141  14.183  0.5697  0.5363  0.6468
  153PROXR  H1338179  14.414   9.975  14.208 -1.3619  1.1540  3.1021
  153PROXR   C238180  14.541  10.116  14.307  1.0589 -0.5169  0.3487
  153PROXR  H2138181  14.586  10.214  14.285  0.5081 -0.2399  0.4368
  153PROXR   C338182  14.659  10.028  14.324 -0.5793  0.5915  0.0259
  153PROXR  H3138183  14.628   9.940  14.383 -0.9295  0.5366 -0.2310
  153PROXR  H3238184  14.687   9.985  14.225 -0.4016  3.1884 -1.1246
  153PROXR  H3338185  14.748  10.069  14.375  0.9913 -0.5355 -1.6419
  154PROXS   O138186  14.459  10.128  14.421  0.1599  0.1710 -0.1429
  154PROXS   C138187  14.516  10.195  14.527 -0.5132  0.0546 -0.5873
  154PROXS  H1138188  14.547  10.119  14.602 -0.5250 -0.1564 -0.7951
  154PROXS  H1338189  14.602  10.256  14.493 -0.8256 -0.1003 -1.7141
  154PROXS   C238190  14.407  10.285  14.585 -0.6495  0.3146  0.0891
  154PROXS  H2138191  14.351  10.212  14.647 -0.9278  0.1640 -0.3369
  154PROXS   C338192  14.311  10.348  14.484  0.9919 -0.3159  0.1316
  154PROXS  H3138193  14.208  10.307  14.494  0.2832  1.1141 -0.9668
  154PROXS  H3238194  14.304  10.459  14.489 -0.2622 -0.3199 -0.7926
  154PROXS  H3338195  14.335  10.333  14.377 -2.7159  0.9552 -1.0423
  155PROXR   O138196  14.475  10.377  14.668 -0.5399  0.1328  0.2881
  155PROXR   C138197  14.388  10.435  14.761 -0.8686  0.7988  0.1476
  155PROXR  H1138198  14.293  10.478  14.721 -0.8841  0.9623  0.3585
  155PROXR  H1338199  14.369  10.358  14.839 -1.9118  1.1709  0.2830
  155PROXR   C238200  14.461  10.558  14.830 -0.4665  0.2571  0.3474
  155PROXR  H2138201  14.567  10.528  14.846  0.1635  1.0421 -1.9261
  155PROXR   C338202  14.409  10.591  14.958  0.2145  0.0998  0.1460
  155PROXR  H3138203  14.482  10.653  15.014  0.4976  0.1545 -0.2806
  155PROXR  H3238204  14.318  10.654  14.953  0.4691  0.5258  0.8311
  155PROXR  H3338205  14.372  10.505  15.018  0.9147 -0.8804 -0.7680
  156PROXS   O138206  14.452  10.670  14.741  0.0560 -0.2346  0.4030
  156PROXS   C138207  14.538  10.667  14.622  0.1190  0.6514 -1.1349
  156PROXS  H1138208  14.514  10.576  14.563  0.6410 -2.1449  2.5600
  156PROXS  H1338209  14.512  10.754  14.558 -0.1566 -0.0048 -1.9346
  156PROXS   C238210  14.690  10.674  14.651  0.0115  0.6503  0.0899
  156PROXS  H2138211  14.723  10.593  14.721  0.5986  0.3340 -0.5452
  156PROXS   C338212  14.731  10.818  14.688  0.4774 -0.2623  0.0684
  156PROXS  H3138213  14.672  10.855  14.775  1.2454 -0.1669  0.5585
  156PROXS  H3238214  14.838  10.841  14.707  0.3844  2.6574 -2.0505
  156PROXS  H3338215  14.697  10.882  14.603  0.0357  0.3536  0.6908
  157PROXS   O138216  14.765  10.656  14.529 -0.0531 -0.2217 -0.1231
  157PROXS   C138217  14.787  10.527  14.480  0.1770 -0.3503  0.2707
  157PROXS  H1138218  14.890  10.509  14.517  0.6410 -1.1334 -1.3126
  157PROXS  H1338219  14.711  10.457  14.521 -1.3451  1.0966  0.0379
  157PROXS   C238220  14.791  10.520  14.326  0.3723 -0.1988 -0.0680
  157PROXS  H2138221  14.862  10.601  14.299 -2.1194  1.9180 -0.7323
  157PROXS   C338222  14.656  10.533  14.258 -0.2588  0.7445 -0.2914
  157PROXS  H3138223  14.589  10.606  14.308 -0.1804  0.1139  0.7634
  157PROXS  H3238224  14.676  10.585  14.163  2.0724  0.6228  0.0806
  157PROXS  H3338225  14.612  10.433  14.236  0.8348 -0.2465  1.7119
  158PROXR   O138226  14.850  10.393  14.288 -0.2231  0.1726  0.6777
  158PROXR   C138227  14.863  10.382  14.146 -0.3214  0.0993 -0.4794
  158PROXR  H1138228  14.774  10.332  14.103 -2.1857 -0.5859  3.6744
  158PROXR  H1338229  14.875  10.477  14.090 -2.8899  0.9801  0.3427
  158PROXR   C238230  14.982  10.292  14.099 -0.4543  0.9274  0.1754
  158PROXR  H2138231  14.958  10.186  14.124 -2.1662  0.9642 -1.1441
  158PROXR   C338232  15.118  10.322  14.155 -0.2317  0.6116  0.2001
  158PROXR  H3138233  15.101  10.318  14.265 -0.6945  0.3629  0.1244
  158PROXR  H3238234  15.187  10.242  14.122 -0.7914  0.3741 -0.4314
  158PROXR  H3338235  15.154  10.419  14.114  0.2216  0.6995  0.8008
  159PROXR   O138236  14.991  10.295  13.957 -0.3915 -0.8495  0.5009
  159PROXR   C138237  15.062  10.175  13.905  0.5191  0.4264 -0.0513
  159PROXR  H1138238  15.171  10.185  13.923  0.5162 -1.5915  1.4450
  159PROXR  H1338239  15.041  10.079  13.956 -1.5429  0.9124  0.1112
  159PROXR   C238240  15.025  10.159  13.748 -0.4075  0.1420  0.1127
  159PROXR  H2138241  15.042  10.261  13.709  2.4817  1.3897  3.9731
  159PROXR   C338242  14.878  10.137  13.742  0.5511  0.2723 -0.5014
  159PROXR  H3138243  14.844  10.116  13.638  2.9501  2.4839 -1.8530
  159PROXR  H3238244  14.854  10.045  13.799 -0.0732 -1.3293 -3.1669
  159PROXR  H3338245  14.819  10.221  13.786  0.8254 -0.1588  0.7068
  160PROXS   O138246  15.098  10.053  13.686 -0.3108  0.2759 -0.1036
  160PROXS   C138247  15.233  10.083  13.672  0.7406  0.3005  0.1052
  160PROXS  H1138248  15.247  10.189  13.641  3.2065 -0.7082 -2.8235
  160PROXS  H1338249  15.287  10.057  13.765 -0.9575  1.1374  1.3788
  160PROXS   C238250  15.301   9.999  13.558 -0.0720 -0.1429 -0.0584
  160PROXS  H2138251  15.248  10.016  13.462 -0.8061 -1.7188  0.0306
  160PROXS   C338252  15.315   9.847  13.586  0.2386 -0.2632  1.0183
  160PROXS  H3138253  15.383   9.795  13.514 -1.5785 -0.4947 -0.6210
  160PROXS  H3238254  15.356   9.833  13.688  3.6847  0.1302 -0.1557
  160PROXS  H3338255  15.218   9.793  13.586 -0.3391  0.5280 -2.5805
  161PROXR   O138256  15.438  10.043  13.544  0.1672 -0.6465  0.0098
  161PROXR   C138257  15.450  10.142  13.441 -0.5078 -0.6315 -0.1009
  161PROXR  H1138258  15.370  10.219  13.451  0.5684  0.3165  1.4679
  161PROXR  H1338259  15.541  10.199  13.470  1.0908 -3.6224  1.1829
  161PROXR   C238260  15.466  10.077  13.303 -0.4418 -0.4091  0.0046
  161PROXR  H2138261  15.371  10.021  13.287 -0.3245 -1.2202  1.8908
  161PROXR   C338262  15.588   9.987  13.299  0.2983  0.9474 -0.9208
  161PROXR  H3138263  15.596   9.917  13.385  1.6649 -1.0310 -2.5596
  161PROXR  H3238264  15.579   9.923  13.208  0.1475 -0.4607  0.0510
  161PROXR  H3338265  15.686  10.035  13.278  2.5880 -2.5806  0.8331
  162PROXR   O138266  15.470  10.178  13.206 -0.7541 -0.0996 -0.2844
  162PROXR   C138267  15.459  10.137  13.069  0.2793  0.0060 -0.4660
  162PROXR  H1138268  15.556  10.169  13.025 -0.4790  0.8930 -1.5631
  162PROXR  H1338269  15.454  10.026  13.067 -1.4329  0.0581 -0.3282
  162PROXR   C238270  15.342  10.199  12.993  0.2587  0.3089 -0.2673
  162PROXR  H2138271  15.361  10.179  12.885  0.7937  2.2279 -0.5543
  162PROXR   C338272  15.342  10.356  13.020  0.2033  0.7163  0.3598
  162PROXR  H3138273  15.314  10.358  13.127  1.7301  0.5961  0.7905
  162PROXR  H3238274  15.444  10.400  13.015  0.8822  0.0221  4.6278
  162PROXR  H3338275  15.256  10.392  12.960  1.9829  1.0568 -2.1530
  163PROXS   O138276  15.219  10.138  13.031  0.0411  0.4146 -0.5024
  163PROXS   C138277  15.197  10.004  12.980 -0.1623  0.2540  0.5298
  163PROXS  H1138278  15.190  10.006  12.870  2.2885 -0.8184  0.2844
  163PROXS  H1338279  15.274   9.933  13.016  0.2315  0.7192  0.6231
  163PROXS   C238280  15.060   9.959  13.043  0.1273  0.0071  0.1242
  163PROXS  H2138281  14.974  10.027  13.024 -1.1228 -1.2567  1.0824
  163PROXS   C338282  15.067   9.939  13.195  0.5283 -0.0509 -0.4086
  163PROXS  H3138283  15.140   9.860  13.223 -0.4874 -0.8740 -0.0138
  163PROXS  H3238284  15.083  10.036  13.247  0.0043 -0.3079  0.2476
  163PROXS  H3338285  14.971   9.903  13.237  1.9685  0.2007  3.5233
  164PROXR   O138286  15.038   9.826  13.004  0.1479 -0.6488 -0.0490
  164PROXR   C138287  14.966   9.814  12.877  0.7408 -0.2686  0.3762
  164PROXR  H1138288  15.008   9.900  12.819  0.2460  1.4601  2.4322
  164PROXR  H1338289  14.981   9.718  12.824  0.1136  0.5083 -1.2982
  164PROXR   C238290  14.809   9.822  12.887  0.1594 -0.9771 -0.2411
  164PROXR  H2138291  14.774   9.921  12.923 -3.5951 -2.7226  1.5756
  164PROXR   C338292  14.761   9.726  12.996  0.2374  0.5636  1.1125
  164PROXR  H3138293  14.651   9.716  12.997  0.2470  0.4642  1.0889
  164PROXR  H3238294  14.802   9.624  12.978  0.3389  1.0021 -1.5177
  164PROXR  H3338295  14.801   9.765  13.092 -0.2644 -1.9237  2.4202
  165PROXR   O138296  14.736   9.788  12.769 -0.1022 -0.2571  1.2924
  165PROXR   C138297  14.748   9.876  12.655 -0.4818  0.1429 -0.4845
  165PROXR  H1138298  14.838   9.941  12.665 -0.2732 -0.3414  1.1625
  165PROXR  H1338299  14.766   9.808  12.569 -0.8008  0.7681 -1.0571
  165PROXR   C238300  14.627   9.953  12.629 -0.3872 -0.4293  0.3988
  165PROXR  H2138301  14.623  10.023  12.715 -0.9362 -0.5260  0.4512
  165PROXR   C338302  14.500   9.875  12.630  0.5885 -0.3911  0.5140
  165PROXR  H3138303  14.485   9.807  12.544 -1.4869 -1.7456  1.8425
  165PROXR  H3238304  14.488   9.808  12.717 -2.2146  0.5077  0.9222
  165PROXR  H3338305  14.411   9.942  12.633  0.3236 -0.7488  0.7302
  166ETHOX   O138306  14.637  10.030  12.504  0.1595  0.0818 -0.2179
  166ETHOX   C138307  14.581  10.161  12.497 -0.5755 -0.5249  0.1101
  166ETHOX  H1138308  14.490  10.156  12.560 -0.3421 -2.5815  0.3543
  166ETHOX  H1338309  14.568  10.197  12.393  1.3868 -0.8105 -0.2717
  166ETHOX   C238310  14.675  10.270  12.559 -0.0296  0.8408  0.6754
  166ETHOX  H2138311  14.775  10.253  12.515 -1.4753 -0.3032 -2.5028
  166ETHOX  H2338312  14.674  10.274  12.670 -0.0799  1.1240  0.6658
  167ETHOX   O138313  14.619  10.400  12.533 -0.1907 -0.0077  0.4549
  167ETHOX   C138314  14.663  10.506  12.610 -0.5043 -0.2694  0.4303
  167ETHOX  H1138315  14.579  10.578  12.614 -0.0216  0.3064  0.3545
  167ETHOX  H1338316  14.673  10.473  12.716 -2.1465 -1.4243  0.2604
  167ETHOX   C238317  14.784  10.566  12.543  0.3115  0.0553 -0.2829
  167ETHOX  H2138318  14.760  10.606  12.442 -0.2364  0.7416  0.1135
  167ETHOX  H2338319  14.856  10.482  12.528  0.5218  0.3280 -0.8499
  168ETHOX   O138320  14.862  10.651  12.620 -0.0837 -0.4253 -0.0419
  168ETHOX   C138321  14.954  10.717  12.527  0.5382  0.2241 -0.2532
  168ETHOX  H1138322  14.884  10.785  12.473 -1.8280 -2.1889 -0.4827
  168ETHOX  H1338323  14.984  10.658  12.438 -0.5882  1.0014 -1.1754
  168ETHOX   C238324  15.069  10.795  12.588  0.1336  0.1218 -0.4497
  168ETHOX  H2138325  15.026  10.843  12.679  0.7394  0.3038 -0.2565
  168ETHOX  H2338326  15.111  10.870  12.518 -0.3148  0.8708  0.0688
  169ETHOX   O138327  15.166  10.705  12.628 -0.1105 -0.1747 -0.3949
  169ETHOX   C138328  15.275  10.786  12.673  0.0564 -0.3656  0.4474
  169ETHOX  H1138329  15.300  10.869  12.602 -2.1040  2.3690  2.6389
  169ETHOX  H1338330  15.246  10.849  12.760 -0.9662 -0.1094 -0.0599
  169ETHOX   C238331  15.396  10.690  12.694 -0.4073 -0.0326 -0.6269
  169ETHOX  H2138332  15.442  10.655  12.599 -1.3797 -2.0752 -0.4011
  169ETHOX  H2338333  15.368  10.599  12.751  2.0538  0.2334  1.1757
  170ETHOX   O138334  15.491  10.766  12.774 -0.3798  0.3781  0.2141
  170ETHOX   C138335  15.586  10.686  12.843 -0.2717  0.9646  0.6923
  170ETHOX  H1138336  15.622  10.603  12.779 -2.6895 -1.2175  1.9905
  170ETHOX  H1338337  15.528  10.631  12.919 -0.3660  1.2512  0.8287
  170ETHOX   C238338  15.700  10.775  12.895  0.5541  0.2148  0.0933
  170ETHOX  H2138339  15.745  10.712  12.975 -0.2075 -0.9129 -0.3455
  170ETHOX  H2338340  15.671  10.875  12.933  0.0980  0.8439 -1.8294
  171ETHOX   O138341  15.797  10.805  12.790  0.4343  0.2042  0.0503
  171ETHOX   C138342  15.928  10.768  12.817  0.5244  0.3259 -0.0936
  171ETHOX  H1138343  15.952  10.798  12.921  0.4084 -0.8805  0.3000
  171ETHOX  H1338344  15.930  10.657  12.824 -2.6298  0.2517  1.3234
  171ETHOX   C238345  16.020  10.849  12.726  1.0992 -0.2149 -0.1459
  171ETHOX  H2138346  16.117  10.863  12.777  0.9097  0.7720 -0.0351
  171ETHOX  H2338347  15.995  10.957  12.735  0.8261 -0.2099 -0.8319
  172ETHOX   O138348  16.024  10.832  12.583  0.4253  0.4364 -0.4322
  172ETHOX   C138349  16.130  10.741  12.540 -0.5541  0.1288 -0.0952
  172ETHOX  H1138350  16.150  10.670  12.624  0.6413  0.6824  0.1041
  172ETHOX  H1338351  16.227  10.788  12.514  0.8570 -1.3511  2.0664
  172ETHOX   C238352  16.098  10.667  12.407  0.5388 -0.1843  0.1916
  172ETHOX  H2138353  15.996  10.625  12.406  0.4543  0.0206 -0.1460
  172ETHOX  H2338354  16.179  10.593  12.388 -0.0330 -0.4536 -1.3963
  173ETHOX   O138355  16.097  10.760  12.295  0.0609  0.7359 -0.0707
  173ETHOX   C138356  16.049  10.700  12.173  0.7202 -0.0976  0.1909
  173ETHOX  H1138357  16.111  10.730  12.086 -1.3884  0.6138 -1.1291
  173ETHOX  H1338358  16.047  10.589  12.176 -2.5327 -0.1257  1.0277
  173ETHOX   C238359  15.905  10.754  12.145 -0.0415  0.4364  0.7913
  173ETHOX  H2138360  15.838  10.733  12.231 -1.8647  1.1246 -0.4008
  173ETHOX  H2338361  15.897  10.864  12.135 -0.5680  0.3725  0.4664
  174ETHOX   O138362  15.851  10.698  12.021  0.6481  0.8040 -0.2154
  174ETHOX   C138363  15.711  10.728  12.016 -0.0430 -0.0033 -0.9718
  174ETHOX  H1138364  15.658  10.679  12.100  0.5700  2.9764  1.3445
  174ETHOX  H1338365  15.698  10.839  12.022 -1.9543 -0.1076 -2.2658
  174ETHOX   C238366  15.647  10.692  11.877 -0.8859 -0.3906 -0.1254
  174ETHOX  H2138367  15.538  10.711  11.882 -0.4264  2.4456  0.7912
  174ETHOX  H2338368  15.668  10.585  11.855  0.9140  0.1765 -1.4883
  175ETHOX   O138369  15.701  10.758  11.763 -0.1660  0.2193 -0.7943
  175ETHOX   C138370  15.620  10.854  11.705 -0.3956 -0.2429 -0.0247
  175ETHOX  H1138371  15.515  10.821  11.691 -0.7229  0.1725  1.3039
  175ETHOX  H1338372  15.611  10.942  11.772 -0.9438  0.4023 -0.9330
  175ETHOX   C238373  15.664  10.910  11.565  0.3896  0.2869  0.4215
  175ETHOX  H2138374  15.767  10.950  11.573  0.8945 -0.8149 -0.2245
  175ETHOX  H2338375  15.595  10.991  11.535 -1.2154 -0.5515  1.6473
  176ETHOX   O138376  15.652  10.824  11.450 -0.6058  0.0883 -0.1093
  176ETHOX   C138377  15.750  10.860  11.354  0.1349 -0.0684 -0.3709
  176ETHOX  H1138378  15.733  10.969  11.347 -2.3397 -0.4182 -0.7890
  176ETHOX  H1338379  15.855  10.843  11.385  0.4305  0.7637 -0.8963
  176ETHOX   C238380  15.723  10.807  11.218  0.4574 -0.2792  0.7535
  176ETHOX  H2138381  15.769  10.869  11.139 -1.8673 -1.6327 -1.8412
  176ETHOX  H2338382  15.615  10.811  11.191 -0.0278  3.6126  2.5822
  177ETHOX   O138383  15.777  10.674  11.197 -0.5610 -0.1294 -0.0422
  177ETHOX   C138384  15.741  10.629  11.071  0.0504  0.4729 -0.9636
  177ETHOX  H1138385  15.789  10.690  10.991  1.0132 -1.0976 -1.6285
  177ETHOX  H1338386  15.631  10.634  11.053  0.0119 -1.2933 -1.4181
  177ETHOX   C238387  15.796  10.485  11.054  0.2600  0.0698  0.4163
  177ETHOX  H2138388  15.907  10.481  11.058  0.3224 -2.5691 -1.3473
  177ETHOX  H2338389  15.770  10.447  10.953 -0.5923  0.7666  0.3685
  178ETHOX   O138390  15.738  10.393  11.149  0.0081 -0.0338  0.4526
  178ETHOX   C138391  15.832  10.295  11.186 -0.1791  0.0361  0.2138
  178ETHOX  H1138392  15.861  10.253  11.087  1.7161  2.4785 -0.3502
  178ETHOX  H1338393  15.922  10.343  11.228  0.7053  0.1564 -1.7086
  178ETHOX   C238394  15.784  10.185  11.282  0.7938 -0.4548 -0.1211
  178ETHOX  H2138395  15.721  10.238  11.357  0.5945 -1.9482  0.8149
  178ETHOX  H2338396  15.874  10.149  11.336 -0.3771 -0.9147  1.6021
  179ETHOX   O138397  15.724  10.069  11.227 -0.7935  0.0888 -0.2041
  179ETHOX   C138398  15.664   9.991  11.331 -0.1352 -0.9164 -0.0125
  179ETHOX  H1138399  15.601  10.065  11.386  2.1193  1.2379 -0.1242
  179ETHOX  H1338400  15.744   9.957  11.401 -0.7069  0.6793  1.4879
  179ETHOX   C238401  15.568   9.885  11.291 -0.6046  1.2274  0.1531
  179ETHOX  H2138402  15.487   9.926  11.227  0.1728  1.1889 -0.8731
  179ETHOX  H2338403  15.531   9.843  11.388  0.5167  1.4006  0.6798
  180ETHOX   O138404  15.642   9.778  11.227 -0.2055  0.2878 -0.2243
  180ETHOX   C138405  15.574   9.652  11.214  1.2273 -0.3479  0.0007
  180ETHOX  H1138406  15.662   9.588  11.194  1.1986  0.2489 -2.3097
  180ETHOX  H1338407  15.538   9.614  11.312 -0.1086 -0.5458 -0.5390
  180ETHOX   C238408  15.462   9.643  11.103 -0.0605  0.4757 -0.2958
  180ETHOX  H2138409  15.438   9.534  11.105  1.9225 -0.0030  2.3027
  180ETHOX  H2338410  15.485   9.673  10.999  1.3820 -0.7536 -0.3607
  181ETHOX   O138411  15.348   9.723  11.141 -0.0562 -0.4508 -0.0606
  181ETHOX   C138412  15.239   9.725  11.054 -0.0010  0.4322 -0.3753
  181ETHOX  H1138413  15.163   9.796  11.094  0.9619  2.2666 -1.6744
  181ETHOX  H1338414  15.201   9.621  11.042  0.9337  0.0199  0.1876
  181ETHOX   C238415  15.266   9.785  10.915  0.2840 -0.1496  0.0564
  181ETHOX  H2138416  15.309   9.708  10.847  2.1836  0.3364  0.6344
  181ETHOX  H2338417  15.343   9.863  10.933 -1.5160  1.4990  0.9735
  182ETHOX   O138418  15.140   9.824  10.852 -0.1240 -0.0870  0.2228
  182ETHOX   C138419  15.158   9.926  10.760 -0.1567  0.2031  0.7042
  182ETHOX  H1138420  15.173  10.021  10.816  4.2700  0.5163 -0.6460
  182ETHOX  H1338421  15.254   9.912  10.707 -0.1025  0.8806  0.6118
  182ETHOX   C238422  15.031   9.926  10.670  0.2651 -0.0690  0.1916
  182ETHOX  H2138423  15.043  10.003  10.590  1.5184  0.6452  1.0283
  182ETHOX  H2338424  14.938   9.926  10.731  0.4666 -0.8450  0.5131
  183ETHOX   O138425  15.033   9.791  10.620 -0.7367  0.2925  0.3139
  183ETHOX   C138426  14.904   9.747  10.569 -1.1202 -0.0169  0.0614
  183ETHOX  H1138427  14.880   9.797  10.473 -0.1011  0.9833  0.2991
  183ETHOX  H1338428  14.823   9.761  10.643 -0.9308  3.1333 -0.1892
  183ETHOX   C238429  14.915   9.601  10.528  0.9460 -0.1240  0.5849
  183ETHOX  H2138430  15.018   9.595  10.486  0.8822  0.6938  0.2983
  183ETHOX  H2338431  14.862   9.571  10.435 -0.3393 -1.2000  1.6312
  184ETHOX   O138432  14.912   9.499  10.628 -0.4934 -0.5005 -0.3356
  184ETHOX   C138433  14.929   9.369  10.577 -0.0166 -0.3410  0.3850
  184ETHOX  H1138434  14.833   9.338  10.531 -0.0455 -0.4945  0.5491
  184ETHOX  H1338435  15.000   9.367  10.491 -0.7113 -1.8427 -0.1785
  184ETHOX   C238436  14.964   9.268  10.681 -0.0095 -0.0005 -0.1171
  184ETHOX  H2138437  15.036   9.310  10.754 -0.4548 -1.2495  1.0829
  184ETHOX  H2338438  15.014   9.178  10.639 -2.0988 -2.2502  1.8959
  185ETHOX   O138439  14.848   9.238  10.755 -0.4351  0.3527 -0.2702
  185ETHOX   C138440  14.869   9.122  10.831  0.3692 -0.7183 -0.2535
  185ETHOX  H1138441  14.898   9.041  10.761 -1.0288  0.5132 -2.3497
  185ETHOX  H1338442  14.952   9.146  10.901 -0.8225 -1.2429  1.3984
  185ETHOX   C238443  14.748   9.075  10.920 -0.2601 -0.4617  0.1920
  185ETHOX  H2138444  14.789   8.987  10.974  1.0979  0.1226  0.1630
  185ETHOX  H2338445  14.657   9.048  10.861 -0.5885 -1.4558  1.1293
  186ETHOX   O138446  14.704   9.163  11.019 -0.0565  0.1519 -0.2736
  186ETHOX   C138447  14.625   9.268  10.967 -0.6253 -0.2678  0.8352
  186ETHOX  H1138448  14.661   9.305  10.869  1.9595 -1.3821  1.2881
  186ETHOX  H1338449  14.518   9.237  10.964 -0.3220 -1.3035 -0.8847
  186ETHOX   C238450  14.639   9.389  11.060  0.3121 -0.4381  0.3214
  186ETHOX  H2138451  14.625   9.489  11.015  1.4875 -0.1261  0.6107
  186ETHOX  H2338452  14.747   9.388  11.085  0.4739 -1.0823 -0.3529
  187ETHOX   O138453  14.558   9.369  11.174 -0.3312  0.6839  0.0620
  187ETHOX   C138454  14.431   9.430  11.178 -0.2987 -0.0699 -0.2569
  187ETHOX  H1138455  14.432   9.519  11.112 -1.5499 -0.4998 -0.8906
  187ETHOX  H1338456  14.353   9.361  11.140 -0.2594  0.4365 -1.2838
  187ETHOX   C238457  14.391   9.474  11.324  0.0246  0.0220 -0.0610
  187ETHOX  H2138458  14.292   9.525  11.321 -1.1775 -2.0219  1.9397
  187ETHOX  H2338459  14.469   9.547  11.356  2.4299 -1.8818 -1.2902
  188ETHOX   O138460  14.387   9.348  11.403  0.0852  0.2747 -0.1563
  188ETHOX   C138461  14.340   9.367  11.537  0.7506  0.3332 -0.0154
  188ETHOX  H1138462  14.232   9.393  11.534  1.0972  1.8378 -0.1051
  188ETHOX  H1338463  14.392   9.454  11.582  1.6170 -0.0198 -0.3080
  188ETHOX   C238464  14.343   9.234  11.613  0.2606 -0.1889  0.0223
  188ETHOX  H2138465  14.433   9.175  11.587 -0.5134 -1.0300 -0.8291
  188ETHOX  H2338466  14.264   9.164  11.578  0.4165  0.0399 -0.8246
  189ETHOX   O138467  14.331   9.272  11.749 -0.3224 -0.7432 -0.0943
  189ETHOX   C138468  14.302   9.161  11.835 -0.2686 -0.3616  0.1683
  189ETHOX  H1138469  14.201   9.121  11.815 -0.7732  0.2750  1.3065
  189ETHOX  H1338470  14.378   9.084  11.810  0.5238 -0.4639  2.5551
  189ETHOX   C238471  14.321   9.232  11.975  0.3770  0.0240 -0.0186
  189ETHOX  H2138472  14.279   9.158  12.047  2.1446  1.3622  2.5179
  189ETHOX  H2338473  14.246   9.314  11.979 -1.5274 -1.5611 -1.1020
  190ETHOX   O138474  14.452   9.256  12.017 -0.2994 -0.7025 -0.1756
  190ETHOX   C138475  14.446   9.342  12.130  0.1003 -0.2793  0.6119
  190ETHOX  H1138476  14.372   9.293  12.197 -2.2128  1.4820 -0.5091
  190ETHOX  H1338477  14.408   9.443  12.103 -1.0383 -0.6481  0.7764
  190ETHOX   C238478  14.574   9.385  12.197 -0.2881  0.1854  0.0055
  190ETHOX  H2138479  14.629   9.463  12.139 -0.0649  0.7673  0.9715
  190ETHOX  H2338480  14.647   9.301  12.200 -0.2786  0.1551 -0.7640
  191ETHOX   O138481  14.560   9.424  12.332 -0.3477 -0.7332  0.1899
  191ETHOX   C138482  14.683   9.466  12.387  0.7839  1.1758  0.0069
  191ETHOX  H1138483  14.756   9.382  12.381 -1.9820 -1.3265 -1.7122
  191ETHOX  H1338484  14.734   9.555  12.344 -1.9138  2.3997 -0.8309
  191ETHOX   C238485  14.670   9.514  12.526  0.0660 -0.0298 -0.7165
  191ETHOX  H2138486  14.606   9.604  12.535  0.6251  0.3165 -0.1829
  191ETHOX  H2338487  14.765   9.537  12.578 -0.7822 -1.2194  1.5012
  192ETHOX   O138488  14.605   9.413  12.606 -0.2427  0.1211 -0.2093
  192ETHOX   C138489  14.585   9.452  12.742  0.3448 -0.2208 -0.0767
  192ETHOX  H1138490  14.540   9.552  12.760 -1.4969 -0.8994 -0.6180
  192ETHOX  H1338491  14.677   9.454  12.803  1.8966  0.3764 -2.3227
  192ETHOX   C238492  14.478   9.351  12.784 -0.6736  0.1235  0.2626
  192ETHOX  H2138493  14.400   9.336  12.706 -2.1413 -1.8574  1.9990
  192ETHOX  H2338494  14.416   9.375  12.872 -0.0471 -0.0590  0.7603
  193ETHOX   O138495  14.534   9.222  12.794  0.4914  0.1107  0.0704
  193ETHOX   C138496  14.588   9.193  12.927 -0.5600 -0.1656  0.9906
  193ETHOX  H1138497  14.692   9.231  12.931  0.0735 -1.7512  0.5145
  193ETHOX  H1338498  14.528   9.238  13.009 -2.8140 -1.9107  0.4134
  193ETHOX   C238499  14.595   9.045  12.970 -0.5449 -0.0962 -0.6728
  193ETHOX  H2138500  14.703   9.021  12.973 -0.4718  0.1437 -1.2475
  193ETHOX  H2338501  14.540   8.985  12.894  1.1611 -1.6694 -0.7368
  194ETHOX   O138502  14.533   9.018  13.099  0.5621 -0.5442  0.5792
  194ETHOX   C138503  14.515   8.884  13.120 -0.5799 -0.1105  0.3878
  194ETHOX  H1138504  14.464   8.824  13.042  0.8862 -0.2978 -0.4672
  194ETHOX  H1338505  14.448   8.866  13.207 -0.6898  1.7304  0.7214
  194ETHOX   C238506  14.649   8.816  13.143  0.8177  0.1156  0.2581
  194ETHOX  H2138507  14.627   8.718  13.189 -1.4855  0.6153  0.3710
  194ETHOX  H2338508  14.689   8.894  13.211 -1.8889  1.6556  0.2154
  195ETHOX   O138509  14.735   8.790  13.035 -0.5080  0.1801 -0.0435
  195ETHOX   C138510  14.847   8.708  13.077 -0.6918  0.0534  0.1933
  195ETHOX  H1138511  14.877   8.752  13.174  0.4770 -0.1916 -0.0481
  195ETHOX  H1338512  14.813   8.603  13.085  0.6198 -0.4215 -0.1821
  195ETHOX   C238513  14.963   8.714  12.974  1.4902 -0.1910  0.1990
  195ETHOX  H2138514  15.053   8.679  13.029  1.4607  1.3080  1.2730
  195ETHOX  H2338515  14.994   8.819  12.954 -2.7929  1.8189  2.6901
  196ETHOX   O138516  14.960   8.631  12.855  0.5958  0.1013 -0.1623
  196ETHOX   C138517  15.063   8.670  12.763  0.3287 -0.4789 -0.1115
  196ETHOX  H1138518  15.074   8.781  12.755 -1.3333 -0.2198  0.8198
  196ETHOX  H1338519  15.162   8.629  12.792  0.1253 -0.6130  0.3969
  196ETHOX   C238520  15.023   8.621  12.623 -0.4261  0.5607  0.1627
  196ETHOX  H2138521  14.990   8.515  12.626  0.0869  0.3127 -1.6205
  196ETHOX  H2338522  15.112   8.628  12.557 -0.1806  2.6763  0.6525
  197ETHOX   O138523  14.925   8.698  12.568 -0.1719  0.0627  0.0087
  197ETHOX   C138524  14.888   8.653  12.439  0.0414 -0.2810 -0.5918
  197ETHOX  H1138525  14.976   8.649  12.371  0.6175  3.1360 -0.2402
  197ETHOX  H1338526  14.834   8.556  12.440 -2.3955  1.0085  0.1412
  197ETHOX   C238527  14.807   8.767  12.370 -0.3651 -0.5842 -0.4702
  197ETHOX  H2138528  14.730   8.797  12.444  1.0968  0.2271  0.7732
  197ETHOX  H2338529  14.751   8.729  12.282 -0.0837 -1.0402 -0.4554
  198ETHOX   O138530  14.890   8.878  12.331 -0.2311  0.5802  0.6940
  198ETHOX   C138531  14.835   9.004  12.313  0.0847 -0.1515 -0.0665
  198ETHOX  H1138532  14.892   9.060  12.236 -0.7782  2.7471  1.2745
  198ETHOX  H1338533  14.733   9.005  12.268 -0.4632 -0.9313  1.0894
  198ETHOX   C238534  14.826   9.088  12.442  0.2598 -0.2907  1.1367
  198ETHOX  H2138535  14.754   9.040  12.512 -3.2842 -0.5145 -2.2883
  198ETHOX  H2338536  14.781   9.181  12.403  2.6459  1.0991  1.4971
  199ETHOX   O138537  14.951   9.116  12.495  0.2957 -0.1558  0.0374
  199ETHOX   C138538  14.938   9.205  12.608 -0.0176  0.7237 -0.3921
  199ETHOX  H1138539  14.947   9.139  12.697 -2.3434  1.3063  0.3539
  199ETHOX  H1338540  14.839   9.256  12.609  0.0604  1.0244 -2.5832
  199ETHOX   C238541  15.034   9.322  12.605 -0.6239  0.2410 -0.2052
  199ETHOX  H2138542  15.137   9.281  12.611 -1.5572 -2.1082  1.3869
  199ETHOX  H2338543  15.015   9.379  12.698  1.0814 -0.1019  0.3895
  200ETHOX   O138544  15.004   9.410  12.492  0.0245 -0.5701 -0.3628
  200ETHOX   C138545  15.081   9.529  12.499 -0.7568  0.8322  0.9284
  200ETHOX  H1138546  15.058   9.582  12.593  2.7329  2.0728  1.2303
  200ETHOX  H1338547  15.190   9.504  12.501 -0.7918  0.5247 -0.2148
  200ETHOX   C238548  15.052   9.624  12.376  0.3559 -0.5515 -0.0414
  200ETHOX  H2138549  14.941   9.635  12.375  0.4780  0.9887  0.7483
  200ETHOX  H2338550  15.069   9.593  12.270  2.0774  3.2658 -1.0627
  201ETHOX   O138551  15.121   9.752  12.391 -0.1270  0.5119  0.1474
  201ETHOX   C138552  15.146   9.805  12.259 -0.1562 -0.6177  0.0238
  201ETHOX  H1138553  15.062   9.786  12.189 -1.3095 -0.7342  1.4112
  201ETHOX  H1338554  15.239   9.766  12.212  0.7160  0.4852  0.7836
  201ETHOX   C238555  15.162   9.960  12.262 -0.4080 -0.5335 -0.4251
  201ETHOX  H2138556  15.197  10.002  12.165 -0.2323  0.0234 -0.1259
  201ETHOX  H2338557  15.240   9.980  12.339  0.4707  3.0273 -2.0461
  202ETHOX   O138558  15.046  10.031  12.306 -0.0662  0.5290  0.2951
  202ETHOX   C138559  15.063  10.167  12.322  0.0840 -0.0997  0.3517
  202ETHOX  H1138560  15.123  10.215  12.242 -0.4557  0.6173  0.3700
  202ETHOX  H1338561  14.963  10.213  12.336  0.6213  0.7789  1.3814
  202ETHOX   C238562  15.141  10.193  12.450  0.6288 -0.5373  0.2626
  202ETHOX  H2138563  15.161  10.301  12.463 -1.0205 -0.1844 -0.0081
  202ETHOX  H2338564  15.229  10.124  12.452  1.2237  0.1945 -0.2486
  203ETHOX   O138565  15.050  10.152  12.547 -0.4577 -0.7651  0.5505
  203ETHOX   C138566  15.085  10.192  12.683  0.3985 -0.0740  0.4315
  203ETHOX  H1138567  15.195  10.181  12.693  0.3058  0.1797  1.9212
  203ETHOX  H1338568  15.044  10.127  12.763  0.8185  0.5593  1.1788
  203ETHOX   C238569  15.036  10.324  12.718 -0.7584  0.3780 -0.0599
  203ETHOX  H2138570  15.040  10.395  12.633  1.0861 -0.5754 -0.8273
  203ETHOX  H2338571  15.100  10.363  12.800  0.8620 -2.1016 -0.0255
  204ETHOX   O138572  14.900  10.319  12.757 -0.4415  0.3418  0.4062
  204ETHOX   C138573  14.890  10.309  12.900 -1.0120  0.1663 -0.4585
  204ETHOX  H1138574  14.946  10.218  12.932 -0.9501 -0.1393 -1.3863
  204ETHOX  H1338575  14.945  10.393  12.947  0.7123 -0.4187 -1.3359
  204ETHOX   C238576  14.741  10.298  12.960  0.0476  0.4487 -0.1077
  204ETHOX  H2138577  14.686  10.381  12.912  0.3723  0.3891 -0.5878
  204ETHOX  H2338578  14.749  10.310  13.070 -0.9716 -0.8981  0.1264
  205ETHOX   O138579  14.694  10.170  12.935  0.6347  0.1754  0.7127
  205ETHOX   C138580  14.567  10.139  12.981 -0.1120 -0.2782 -0.4586
  205ETHOX  H1138581  14.555  10.161  13.089 -2.4250  1.1856 -0.9566
  205ETHOX  H1338582  14.561  10.029  12.971 -0.3757 -0.2859 -0.2282
  205ETHOX   C238583  14.465  10.206  12.891  0.1842  0.1782 -0.2002
  205ETHOX  H2138584  14.371  10.146  12.899  1.8061 -2.4414  0.5126
  205ETHOX  H2338585  14.510  10.207  12.789 -0.9578  1.7803 -0.7245
  206ETHOX   O138586  14.432  10.344  12.917 -0.8769 -0.1695 -0.0974
  206ETHOX   C138587  14.339  10.401  12.828  0.3863  0.5898  0.5639
  206ETHOX  H1138588  14.376  10.377  12.725 -0.0151  2.1225  0.0397
  206ETHOX  H1338589  14.238  10.357  12.843  1.7156 -2.4110  1.5464
  206ETHOX   C238590  14.330  10.557  12.843 -0.0817  0.4049  0.5673
  206ETHOX  H2138591  14.435  10.591  12.852  0.1305  0.4540 -1.4880
  206ETHOX  H2338592  14.284  10.603  12.753 -0.1416  0.4250  0.6083
  207ETHOX   O138593  14.252  10.600  12.956 -0.1895  0.0143  0.4275
  207ETHOX   C138594  14.270  10.735  12.992  0.0590 -0.3687 -0.2153
  207ETHOX  H1138595  14.222  10.801  12.917 -0.7815 -0.4545  0.2230
  207ETHOX  H1338596  14.379  10.753  12.997  0.2184 -1.5636  1.3731
  207ETHOX   C238597  14.213  10.771  13.133 -0.8823 -0.2893  1.0529
  207ETHOX  H2138598  14.256  10.869  13.164 -2.7788  0.2685  2.0997
  207ETHOX  H2338599  14.257  10.701  13.207 -0.0041  0.3975  1.1944
  208ETHOX   O138600  14.074  10.780  13.143  0.1306 -0.4272  0.0631
  208ETHOX   C138601  14.012  10.650  13.131 -0.3897 -0.1674 -0.2370
  208ETHOX  H1138602  14.039  10.612  13.030  0.7447  0.9464 -0.3643
  208ETHOX  H1338603  14.063  10.578  13.199  0.6347 -0.1694 -0.9788
  208ETHOX   C238604  13.862  10.656  13.150  0.1785 -0.2495 -0.0104
  208ETHOX  H2138605  13.828  10.568  13.092  2.1923  0.8261 -3.0806
  208ETHOX  H2338606  13.820  10.739  13.090 -1.5511 -0.2049  1.1791
  209ETHOX   O138607  13.820  10.661  13.290 -0.4871  0.4788  0.2854
  209ETHOX   C138608  13.719  10.764  13.309 -0.3856 -0.2579  0.1981
  209ETHOX  H1138609  13.633  10.732  13.247  0.2532 -2.7485  0.4906
  209ETHOX  H1338610  13.747  10.861  13.262 -1.1257  0.4675  1.1992
  209ETHOX   C238611  13.676  10.785  13.460 -0.2893 -0.0971  0.1146
  209ETHOX  H2138612  13.694  10.697  13.524  0.8636  0.4251  0.5318
  209ETHOX  H2338613  13.566  10.801  13.462 -0.3305  0.0512 -1.4660
  210ETHOX   O138614  13.735  10.899  13.522 -0.5468  0.0986  0.2448
  210ETHOX   C138615  13.877  10.892  13.513 -0.4092 -0.0706 -0.3005
  210ETHOX  H1138616  13.901  10.792  13.553 -0.7835  0.0087  0.1240
  210ETHOX  H1338617  13.920  10.908  13.411 -0.5009  0.9287 -0.1876
  210ETHOX   C238618  13.948  11.000  13.602 -0.1836  0.2793 -0.5249
  210ETHOX  H2138619  13.908  10.991  13.705 -0.0004 -0.9325 -0.5496
  210ETHOX  H2338620  13.921  11.099  13.560  1.2654 -0.0092 -2.2488
  211ETHOX   O138621  14.087  10.984  13.600 -0.1111 -0.0140  0.2185
  211ETHOX   C138622  14.151  11.097  13.657 -1.2521  0.1359  1.2389
  211ETHOX  H1138623  14.120  11.187  13.599 -1.4608 -0.9204 -0.3609
  211ETHOX  H1338624  14.125  11.106  13.765  0.4001 -0.9982  1.7754
  211ETHOX   C238625  14.299  11.062  13.644  0.7466  0.7279  0.4610
  211ETHOX  H2138626  14.329  11.048  13.538 -1.0756  0.6007 -0.0700
  211ETHOX  H2338627  14.319  10.966  13.697 -2.3839  1.2356  2.8151
  212ETHOX   O138628  14.374  11.160  13.709 -0.3924 -0.3754  0.1363
  212ETHOX   C138629  14.512  11.143  13.676  0.6769 -0.5899 -0.1351
  212ETHOX  H1138630  14.543  11.038  13.693  2.4733  0.1068  1.2868
  212ETHOX  H1338631  14.520  11.162  13.567 -0.6561  3.1544  0.2788
  212ETHOX   C238632  14.594  11.236  13.761 -0.3558  0.1510  0.1008
  212ETHOX  H2138633  14.573  11.211  13.867 -0.8589  1.5777  0.3543
  212ETHOX  H2338634  14.564  11.342  13.746 -0.9455 -0.1308 -0.7744
  213ETHOX   O138635  14.737  11.224  13.738  0.3788 -0.4013  0.0777
  213ETHOX   C138636  14.798  11.318  13.823  0.0523 -0.8779  0.0953
  213ETHOX  H1138637  14.760  11.417  13.791  1.2233 -0.0131  1.2861
  213ETHOX  H1338638  14.775  11.302  13.930 -1.1887 -1.0075 -0.1801
  213ETHOX   C238639  14.955  11.316  13.791 -0.3271 -0.6409  1.1630
  213ETHOX  H2138640  14.987  11.209  13.787 -2.4543 -1.2939 -0.8501
  213ETHOX  H2338641  15.011  11.366  13.872 -1.0239 -1.4997  2.2049
  214ETHOX   O138642  14.974  11.389  13.674  0.3183  0.2118  0.3104
  214ETHOX   C138643  15.089  11.344  13.604  0.3447  0.2610 -0.4650
  214ETHOX  H1138644  15.068  11.240  13.573  0.8996 -0.3916  1.2139
  214ETHOX  H1338645  15.175  11.339  13.675 -0.0545 -2.0967 -0.0651
  214ETHOX   C238646  15.114  11.435  13.482  0.3344  0.0590 -0.1576
  214ETHOX  H2138647  15.132  11.537  13.523  1.4093 -0.7781  1.6109
  214ETHOX  H2338648  15.021  11.438  13.422 -0.5551 -0.8251  1.1224
  215ETHOX   O138649  15.215  11.386  13.397 -0.7268 -0.2322 -0.0523
  215ETHOX   C138650  15.228  11.472  13.285 -0.0311  0.0750 -0.0470
  215ETHOX  H1138651  15.154  11.459  13.203  0.0382  1.6472 -0.3852
  215ETHOX  H1338652  15.215  11.578  13.316 -1.5739  0.8030 -2.8707
  215ETHOX   C238653  15.368  11.439  13.214  0.1259 -0.5157 -0.4013
  215ETHOX  H2138654  15.380  11.488  13.116  2.5916  1.1865  0.6736
  215ETHOX  H2338655  15.361  11.332  13.185 -0.7035 -0.8220  0.8156
  216ETHOX   O138656  15.485  11.456  13.295 -0.4293  0.6796  0.3013
  216ETHOX   C138657  15.548  11.582  13.273  0.1141  0.3852 -0.2255
  216ETHOX  H1138658  15.476  11.664  13.253 -0.5790 -0.2411 -0.3236
  216ETHOX  H1338659  15.634  11.575  13.203  1.9363  1.8882  1.7173
  216ETHOX   C238660  15.621  11.631  13.401  0.2425 -0.3799  0.1839
  216ETHOX  H2138661  15.693  11.713  13.380  1.8499 -2.4560 -3.4551
  216ETHOX  H2338662  15.687  11.546  13.429 -0.8276 -1.3128 -0.0422
  217ETHOX   O138663  15.532  11.676  13.509 -0.4016  0.1625 -0.0169
  217ETHOX   C138664  15.496  11.573  13.601  0.5063 -0.2697  0.8419
  217ETHOX  H1138665  15.436  11.495  13.548 -0.3076 -1.1009  2.8837
  217ETHOX  H1338666  15.592  11.528  13.635  0.0984 -0.4949  1.7309
  217ETHOX   C238667  15.413  11.618  13.713  0.2290 -0.6433 -0.2230
  217ETHOX  H2138668  15.314  11.660  13.684 -0.9035 -0.4747  3.4418
  217ETHOX  H2338669  15.476  11.691  13.768  0.6913 -0.1016 -1.4344
  218ETHOX   O138670  15.382  11.505  13.791  0.5900 -0.4043 -0.3740
  218ETHOX   C138671  15.295  11.531  13.895  0.1423  0.2405 -0.5520
  218ETHOX  H1138672  15.196  11.557  13.853  0.6520  1.4387 -1.0530
  218ETHOX  H1338673  15.316  11.623  13.954 -0.9969 -0.8514  1.6957
  218ETHOX   C238674  15.299  11.413  13.997 -0.1737  0.1553  0.5660
  218ETHOX  H2138675  15.246  11.431  14.093 -2.1992  0.6688 -0.5899
  218ETHOX  H2338676  15.407  11.398  14.018  0.4374 -0.0837 -2.2645
  219ETHOX   O138677  15.253  11.298  13.930  0.0777  0.7909 -0.2707
  219ETHOX   C138678  15.286  11.172  13.987  0.6367 -0.3792  0.1966
  219ETHOX  H1138679  15.396  11.161  14.003  0.6825 -1.0002 -0.4712
  219ETHOX  H1338680  15.244  11.161  14.089  1.6781  0.2911  0.7190
  219ETHOX   C238681  15.239  11.050  13.908 -0.3525 -0.1504  0.3757
  219ETHOX  H2138682  15.131  11.057  13.880 -0.5511 -3.7331 -0.1231
  219ETHOX  H2338683  15.250  10.952  13.958  0.3549 -0.4941 -0.4239
  220ETHOX   O138684  15.327  11.041  13.794 -0.4144  0.0555  0.4084
  220ETHOX   C138685  15.267  10.964  13.694 -0.8743  0.2991  0.4405
  220ETHOX  H1138686  15.177  11.021  13.664 -0.8294  1.0363  1.6041
  220ETHOX  H1338687  15.238  10.864  13.732 -1.7550  0.2733 -0.2866
  220ETHOX   C238688  15.352  10.947  13.564 -0.1642 -0.6717 -0.4558
  220ETHOX  H2138689  15.409  11.043  13.564  1.8664 -1.8106  0.9077
  220ETHOX  H2338690  15.290  10.943  13.472 -0.7765 -1.1294 -0.0286
  221ETHOX   O138691  15.444  10.839  13.578  0.1636  0.1698 -0.2502
  221ETHOX   C138692  15.541  10.845  13.479 -0.0152 -0.1036  0.3503
  221ETHOX  H1138693  15.500  10.864  13.377  1.8185 -3.7389 -1.2407
  221ETHOX  H1338694  15.610  10.932  13.492 -1.7267  1.4623 -0.5023
  221ETHOX   C238695  15.620  10.717  13.481  0.4395  0.1272 -0.3235
  221ETHOX  H2138696  15.634  10.694  13.589  1.0066 -0.5757 -0.5338
  221ETHOX  H2338697  15.721  10.724  13.433  0.5213 -2.1834 -0.6250
  222ETHOX   O138698  15.553  10.609  13.425 -0.1145  0.5541 -0.0092
  222ETHOX   C138699  15.579  10.588  13.283  0.4671 -1.6381 -0.7116
  222ETHOX  H1138700  15.479  10.559  13.245 -0.8368 -0.5992  1.7640
  222ETHOX  H1338701  15.610  10.687  13.241 -0.6368 -1.4450 -1.0913
  222ETHOX   C238702  15.678  10.484  13.249  0.7897  0.3353  0.5010
  222ETHOX  H2138703  15.667  10.449  13.144  0.5974  1.6880  0.0571
  222ETHOX  H2338704  15.666  10.392  13.311 -0.5373 -0.1150 -0.3879
  223ETHOX   O138705  15.807  10.542  13.249 -0.4494  0.5415  0.3048
  223ETHOX   C138706  15.908  10.449  13.233 -0.0538 -0.4820  0.5489
  223ETHOX  H1138707  15.898  10.367  13.307  0.5325 -0.5496  0.5635
  223ETHOX  H1338708  15.898  10.410  13.130  1.5977 -1.4505  0.7173
  223ETHOX   C238709  16.052  10.510  13.243 -0.0587  0.4871 -0.1401
  223ETHOX  H2138710  16.077  10.580  13.160  0.0639 -1.7561 -2.1106
  223ETHOX  H2338711  16.120  10.423  13.253  0.3469  0.8113 -0.0562
  224ETHOX   O138712  16.044  10.575  13.369 -0.8433  0.1141 -0.6578
  224ETHOX   C138713  16.177  10.633  13.391 -0.7497 -0.0344 -0.0410
  224ETHOX  H1138714  16.247  10.549  13.411 -0.5292  0.5344  1.7253
  224ETHOX  H1338715  16.214  10.680  13.298  1.5011  0.6668  1.1500
  224ETHOX   C238716  16.187  10.737  13.496 -0.3536 -0.0131  0.4409
  224ETHOX  H2138717  16.290  10.774  13.517 -0.0955 -0.2376 -0.3948
  224ETHOX  H2338718  16.133  10.694  13.583  0.2871 -0.4388  0.6397
  225ETHOX   O138719  16.120  10.850  13.441  0.6206 -0.3148 -0.1856
  225ETHOX   C138720  16.093  10.940  13.543  0.1373 -0.2592 -0.0292
  225ETHOX  H1138721  16.176  10.955  13.615  0.0277  1.1993 -0.1696
  225ETHOX  H1338722  15.994  10.912  13.585 -0.0462 -0.0133 -0.2854
  225ETHOX   C238723  16.077  11.074  13.462  0.0016  0.9588 -0.6085
  225ETHOX  H2138724  16.059  11.157  13.533 -1.1524  0.0138  0.2399
  225ETHOX  H2338725  15.990  11.067  13.393 -0.0930 -1.1933 -0.3203
  226ETHOX   O138726  16.192  11.099  13.376 -0.3452 -0.2252 -0.0503
  226ETHOX   C138727  16.200  11.241  13.350 -0.5005  0.5301  0.5912
  226ETHOX  H1138728  16.176  11.291  13.446 -1.0829 -0.4649  0.9826
  226ETHOX  H1338729  16.305  11.266  13.322 -1.2899  2.8552 -0.5117
  226ETHOX   C238730  16.107  11.285  13.241  0.5668 -0.1390 -0.0481
  226ETHOX  H2138731  16.029  11.212  13.211 -1.8262  2.3335 -0.1948
  226ETHOX  H2338732  16.161  11.300  13.145  2.7871 -2.3409  0.7560
  227ETHOX   O138733  16.050  11.407  13.286 -0.3993 -0.1407  0.1549
  227ETHOX   C138734  16.125  11.525  13.251 -0.2747  0.8865 -0.2089
  227ETHOX  H1138735  16.122  11.532  13.140 -3.5311 -1.8924 -0.4907
  227ETHOX  H1338736  16.235  11.516  13.265 -0.0553  2.2001 -0.9391
  227ETHOX   C238737  16.089  11.642  13.341  0.0440  0.4020  0.5056
  227ETHOX  H2138738  16.063  11.604  13.442  2.1978 -0.0998  0.9281
  227ETHOX  H2338739  16.005  11.703  13.304  0.9407  0.9307 -0.7318
  228ETHOX   O138740  16.193  11.734  13.362  0.0721  0.1253  0.4580
  228ETHOX   C138741  16.168  11.821  13.470  0.4957  0.5511  0.4010
  228ETHOX  H1138742  16.080  11.885  13.451 -1.0481 -1.3496  0.8020
  228ETHOX  H1338743  16.142  11.759  13.558 -0.0052  0.7456  0.3873
  228ETHOX   C238744  16.298  11.894  13.502  0.0456 -0.2260  0.1376
  228ETHOX  H2138745  16.267  11.958  13.587 -2.3700 -0.9367 -0.1323
  228ETHOX  H2338746  16.329  11.954  13.414  0.9739 -0.0456  0.5814
  229ETHOX   O138747  16.404  11.809  13.557  0.3935 -0.0567  0.5628
  229ETHOX   C138748  16.530  11.877  13.580  0.1061 -0.1702 -0.4430
  229ETHOX  H1138749  16.511  11.967  13.642  2.5005 -0.4957  0.8924
  229ETHOX  H1338750  16.573  11.910  13.483 -1.5194  0.7815 -0.8862
  229ETHOX   C238751  16.624  11.768  13.645 -0.3657  0.5564 -0.6079
  229ETHOX  H2138752  16.572  11.723  13.732 -1.5059  0.5027 -1.3034
  229ETHOX  H2338753  16.710  11.828  13.683 -0.9044  2.1554 -1.7866
  230ETHOX   O138754  16.670  11.668  13.552  0.1984  0.0938  0.8929
  230ETHOX   C138755  16.757  11.583  13.626 -0.0470 -0.1907  0.1976
  230ETHOX  H1138756  16.822  11.642  13.694  0.5501 -1.1062  0.4383
  230ETHOX  H1338757  16.709  11.501  13.685  2.9798 -1.9385  0.4285
  230ETHOX   C238758  16.865  11.516  13.548  0.3342  0.6657  0.7159
  230ETHOX  H2138759  16.943  11.471  13.613  0.6501  1.3447  0.8156
  230ETHOX  H2338760  16.916  11.583  13.476 -0.2970  1.8557  1.3486
  231ETHOX   O138761  16.805  11.412  13.467  0.2480  0.4956 -0.2985
  231ETHOX   C138762  16.810  11.286  13.530  0.3037  0.3435 -0.4255
  231ETHOX  H1138763  16.777  11.292  13.635  0.1017  0.2636 -0.4852
  231ETHOX  H1338764  16.919  11.266  13.541  0.7514  2.1753 -1.0810
  231ETHOX   C238765  16.742  11.167  13.453  0.0908  0.2827  0.2085
  231ETHOX  H2138766  16.780  11.076  13.505  4.1426  0.8627 -1.3064
  231ETHOX  H2338767  16.787  11.164  13.352  0.3002  0.1541  0.3040
  232ETHOX   O138768  16.598  11.179  13.452 -0.0365  0.0009 -0.2942
  232ETHOX   C138769  16.530  11.075  13.374  0.4085  0.5445 -0.2231
  232ETHOX  H1138770  16.581  10.977  13.384 -0.0143  0.4463  1.3321
  232ETHOX  H1338771  16.425  11.067  13.410  1.1913 -0.0967  2.1304
  232ETHOX   C238772  16.538  11.111  13.225 -0.4065  0.3520 -0.2903
  232ETHOX  H2138773  16.526  11.221  13.218 -0.0476  0.4409  0.3618
  232ETHOX  H2338774  16.463  11.063  13.158 -1.6229  1.5407  0.1829
  233ETHOX   O138775  16.661  11.055  13.184 -0.3911 -0.7053 -0.2557
  233ETHOX   C138776  16.699  11.095  13.049 -0.3114  0.2247 -0.5407
  233ETHOX  H1138777  16.727  11.002  12.995  0.6566  0.7610 -0.9879
  233ETHOX  H1338778  16.611  11.151  13.010  0.2083  2.4223  1.2122
  233ETHOX   C238779  16.821  11.192  13.040  0.1322 -0.1674 -0.4226
  233ETHOX  H2138780  16.801  11.284  13.099 -1.7724 -1.1075  0.4818
  233ETHOX  H2338781  16.825  11.221  12.932 -1.0487  2.7729  0.2159
  234ETHOX   O138782  16.946  11.133  13.077 -0.1930 -0.2793 -0.1510
  234ETHOX   C138783  17.045  11.237  13.081  0.2104 -0.0609 -0.3880
  234ETHOX  H1138784  17.064  11.281  12.981  1.4344  0.2432 -0.0404
  234ETHOX  H1338785  17.010  11.323  13.141 -0.4853  1.1142 -2.3680
  234ETHOX   C238786  17.174  11.187  13.140 -0.9714 -0.2072  0.4618
  234ETHOX  H2138787  17.163  11.152  13.245 -2.9840  0.1923  0.4380
  234ETHOX  H2338788  17.257  11.259  13.127 -0.1096 -0.4482  3.7873
  235ETHOX   O138789  17.203  11.068  13.064 -0.3107 -0.1062 -0.0764
  235ETHOX   C138790  17.277  10.975  13.136  0.1620  0.3078  0.6103
  235ETHOX  H1138791  17.347  11.027  13.205 -0.8209  0.9187  1.1628
  235ETHOX  H1338792  17.203  10.912  13.189 -0.5607  0.6276  0.0070
  235ETHOX   C238793  17.352  10.885  13.036 -0.0143 -0.0056 -0.3114
  235ETHOX  H2138794  17.429  10.824  13.087  0.1601  1.6432  1.5310
  235ETHOX  H2338795  17.385  10.952  12.954 -0.3135 -0.6290 -0.9492
  236ETHOX   O138796  17.256  10.791  12.985 -0.1448 -0.2173 -0.1718
  236ETHOX   C138797  17.323  10.706  12.899  0.2164 -0.2445 -0.1263
  236ETHOX  H1138798  17.408  10.667  12.959 -0.4194 -1.3911  0.0716
  236ETHOX  H1338799  17.368  10.762  12.814 -0.7067 -0.1414 -0.5536
  236ETHOX   C238800  17.233  10.589  12.852  0.1922  0.0823 -0.4816
  236ETHOX  H2138801  17.270  10.531  12.765  1.1946  0.6983 -0.4767
  236ETHOX  H2338802  17.138  10.640  12.826 -0.4862 -0.1832  1.2918
  237ETHOX   O138803  17.194  10.508  12.971  0.3183 -0.4575  0.5858
  237ETHOX   C138804  17.140  10.378  12.939  0.3040  0.5918  0.1276
  237ETHOX  H1138805  17.221  10.317  12.894 -0.3352 -0.1821  0.0047
  237ETHOX  H1338806  17.111  10.318  13.028 -1.3571 -0.8377 -1.2987
  237ETHOX   C238807  17.017  10.378  12.843  0.6970  0.4292 -0.5744
  237ETHOX  H2138808  16.947  10.456  12.880  1.0633 -0.4458  2.2316
  237ETHOX  H2338809  16.967  10.280  12.858  0.8021  0.2043 -1.6297
  238ETHOX   O138810  17.043  10.384  12.699 -0.0879  0.1424  0.2845
  238ETHOX   C138811  16.933  10.411  12.614  0.0749  0.8831  0.1421
  238ETHOX  H1138812  16.847  10.344  12.635  1.0519 -1.3113 -2.3408
  238ETHOX  H1338813  16.962  10.399  12.507 -1.7986 -0.8703 -0.2383
  238ETHOX   C238814  16.889  10.562  12.633  0.0138  0.5529 -0.2602
  238ETHOX  H2138815  16.853  10.578  12.737 -0.3724 -1.0679 -0.1053
  238ETHOX  H2338816  16.797  10.572  12.570  0.9194  1.0130 -1.5516
  239ETHOX   O138817  16.986  10.651  12.587 -0.5420  0.1350 -0.0183
  239ETHOX   C138818  16.933  10.781  12.605  0.4419 -0.5163  0.2120
  239ETHOX  H1138819  16.849  10.783  12.532 -0.3015 -0.0439  1.0645
  239ETHOX  H1338820  16.888  10.793  12.706  1.8053  1.2000  0.6723
  239ETHOX   C238821  17.026  10.898  12.581 -0.1503 -0.2510  0.4775
  239ETHOX  H2138822  16.976  10.997  12.580 -1.1103 -0.7201  0.5979
  239ETHOX  H2338823  17.114  10.893  12.648 -1.8384 -0.7399  2.7789
  240ETHOX   O138824  17.072  10.874  12.450 -0.1020 -0.7635 -0.2903
  240ETHOX   C138825  17.205  10.929  12.431 -0.1602  0.2732  0.5402
  240ETHOX  H1138826  17.279  10.869  12.487 -2.1703 -0.6839  2.3246
  240ETHOX  H1338827  17.215  11.029  12.479  0.6069  0.3927  0.1466
  240ETHOX   C238828  17.220  10.949  12.270 -0.2056  0.0754  0.3366
  240ETHOX  H2138829  17.278  11.043  12.259 -1.1568  0.7027  0.5903
  240ETHOX  H2338830  17.124  10.954  12.215 -0.4327  2.8528  0.8581
  241ETHOX   O138831  17.292  10.831  12.223  0.1741  0.2476 -0.6621
  241ETHOX   C138832  17.357  10.853  12.101 -0.3581 -0.4201 -0.0660
  241ETHOX  H1138833  17.287  10.896  12.025  0.5306 -1.8120 -1.7575
  241ETHOX  H1338834  17.431  10.933  12.119 -1.6140  1.0590 -1.1710
  241ETHOX   C238835  17.438  10.728  12.040  0.0869 -0.1993  0.8484
  241ETHOX  H2138836  17.422  10.734  11.930 -1.6051 -1.4430  0.9856
  241ETHOX  H2338837  17.398  10.630  12.072  0.6794 -0.0548  2.1036
  242ETHOX   O138838  17.580  10.726  12.065  0.1405 -0.2027  0.3198
  242ETHOX   C138839  17.652  10.615  12.007  0.0340  0.4275  0.7785
  242ETHOX  H1138840  17.756  10.645  11.983  0.3415 -0.6836  0.6662
  242ETHOX  H1338841  17.603  10.576  11.915  1.9223 -0.6267  0.1565
  242ETHOX   C238842  17.662  10.505  12.111  0.0032  0.3269  0.0282
  242ETHOX  H2138843  17.558  10.474  12.133 -0.3473  1.5994  0.2466
  242ETHOX  H2338844  17.704  10.537  12.209 -0.8147  0.1122  0.4597
  243ETHOX   O138845  17.739  10.392  12.066  0.5694 -0.0563 -0.1191
  243ETHOX   C138846  17.742  10.282  12.168 -0.2094  0.4796 -0.1168
  243ETHOX  H1138847  17.812  10.320  12.245 -1.2793  2.5048 -0.0668
  243ETHOX  H1338848  17.645  10.252  12.212  0.3452  1.9334  2.2877
  243ETHOX   C238849  17.805  10.161  12.096 -0.7108 -0.3381 -0.4866
  243ETHOX  H2138850  17.861  10.109  12.176 -3.3859 -0.0796  1.7013
  243ETHOX  H2338851  17.886  10.202  12.033 -0.1837  0.2220  0.5384
  244ETHOX   O138852  17.725  10.075  12.019  0.3027  0.3522 -0.7989
  244ETHOX   C138853  17.805   9.971  11.966  0.1647  0.3833  0.3333
  244ETHOX  H1138854  17.816   9.900  12.050 -2.4983  2.2178  2.3870
  244ETHOX  H1338855  17.906  10.008  11.935 -0.4066  1.0969 -0.7571
  244ETHOX   C238856  17.741   9.899  11.851 -0.0779  0.5508  0.1025
  244ETHOX  H2138857  17.639   9.858  11.872  0.1655  0.5033  1.2840
  244ETHOX  H2338858  17.799   9.804  11.844  1.6503  1.3585  2.2769
  245ETHOX   O138859  17.740   9.972  11.728 -0.2525 -0.4976  0.1868
  245ETHOX   C138860  17.646   9.919  11.628 -0.2328  0.8528  0.3637
  245ETHOX  H1138861  17.688   9.832  11.574 -0.3687  0.0747  1.5008
  245ETHOX  H1338862  17.545   9.901  11.670  0.0840 -2.5288 -0.0727
  245ETHOX   C238863  17.619  10.031  11.527 -0.0223  0.0310 -0.4576
  245ETHOX  H2138864  17.599  10.126  11.581  0.0303  0.0616 -0.4919
  245ETHOX  H2338865  17.530  10.019  11.462 -1.1060  3.3993  0.2013
  246ETHOX   O138866  17.741  10.054  11.449 -0.1136 -0.8248  0.1830
  246ETHOX   C138867  17.714  10.162  11.355 -0.3128  0.1306 -0.2991
  246ETHOX  H1138868  17.697  10.252  11.417  0.6529 -0.7157  1.2780
  246ETHOX  H1338869  17.623  10.147  11.293 -1.9042  0.2288  1.8897
  246ETHOX   C238870  17.825  10.181  11.253  0.5551 -0.0790 -0.0409
  246ETHOX  H2138871  17.789  10.238  11.165  0.7314  0.9292  0.5090
  246ETHOX  H2338872  17.854  10.083  11.210 -1.1296 -0.8699  0.5298
  247ETHOX   O138873  17.923  10.263  11.310 -0.1358  0.2563 -0.9612
  247ETHOX   C138874  18.050  10.256  11.247  0.2895  0.1732  0.1010
  247ETHOX  H1138875  18.135  10.271  11.316  1.1824 -0.2978 -0.8656
  247ETHOX  H1338876  18.058  10.153  11.207  0.4129  0.3246 -0.2715
  247ETHOX   C238877  18.057  10.355  11.123 -0.0030 -0.1178 -0.2674
  247ETHOX  H2138878  18.139  10.329  11.051  1.6404 -0.7962  1.7291
  247ETHOX  H2338879  17.956  10.355  11.077  0.3814 -0.1371 -1.1454
  248ETHOX   O138880  18.083  10.487  11.170  0.2550 -0.3081 -0.1351
  248ETHOX   C138881  18.040  10.589  11.078 -0.2104  0.3521 -0.7406
  248ETHOX  H1138882  18.101  10.679  11.097  2.5093 -1.6718  0.8691
  248ETHOX  H1338883  18.072  10.564  10.975  2.5984  2.7181 -0.5679
  248ETHOX   C238884  17.894  10.617  11.091 -0.0121 -0.2599 -0.6098
  248ETHOX  H2138885  17.821  10.534  11.093 -1.7701  1.2393  0.4384
  248ETHOX  H2338886  17.858  10.683  11.009 -0.9814 -0.2470 -0.1855
  249ETHOX   O138887  17.877  10.687  11.211 -0.2872 -0.0180 -0.2351
  249ETHOX   C138888  17.740  10.712  11.244 -0.2363 -0.1183  0.5571
  249ETHOX  H1138889  17.692  10.779  11.170  0.7715  0.1651  0.1449
  249ETHOX  H1338890  17.688  10.614  11.239  0.0029 -0.1616 -2.8799
  249ETHOX   C238891  17.722  10.775  11.389 -0.3060 -0.5299  0.1592
  249ETHOX  H2138892  17.802  10.743  11.458 -1.0388  0.7602  1.6684
  249ETHOX  H2338893  17.620  10.744  11.420 -0.5204  0.2542  0.2643
  250ETHOX   O138894  17.719  10.916  11.369  0.0928 -0.5114 -0.3494
  250ETHOX   C138895  17.722  10.992  11.490 -1.1893  0.4698 -0.3549
  250ETHOX  H1138896  17.653  10.946  11.565  0.4385 -1.5492  0.0070
  250ETHOX  H1338897  17.826  10.990  11.529 -1.5191  1.3275  0.6281
  250ETHOX   C238898  17.703  11.145  11.479  0.6922  0.0884 -0.3507
  250ETHOX  H2138899  17.760  11.185  11.392 -0.6514 -1.2027 -1.8820
  250ETHOX  H2338900  17.731  11.204  11.569  0.6039  2.3332 -1.7385
  251ETHOX   O138901  17.571  11.192  11.458  0.3919  0.1688 -0.7180
  251ETHOX   C138902  17.510  11.142  11.337  0.5946 -0.4498 -0.0353
  251ETHOX  H1138903  17.507  11.031  11.340 -0.1353 -0.4225  0.2903
  251ETHOX  H1338904  17.586  11.161  11.258 -0.1906  2.0832 -0.2653
  251ETHOX   C238905  17.371  11.196  11.299  0.2024 -0.4137  0.1757
  251ETHOX  H2138906  17.298  11.171  11.379  0.1058 -3.2717 -0.6564
  251ETHOX  H2338907  17.329  11.130  11.219 -2.6307 -0.3504  1.5048
  252ETHOX   O138908  17.362  11.325  11.247  0.0793  0.1391  0.4067
  252ETHOX   C138909  17.226  11.367  11.221  0.4805  0.2667 -0.0169
  252ETHOX  H1138910  17.163  11.276  11.212  1.2926 -0.3949  0.7555
  252ETHOX  H1338911  17.194  11.412  11.318 -0.8879  1.1708 -0.8651
  252ETHOX   C238912  17.206  11.456  11.101  0.6829  0.5040 -0.1601
  252ETHOX  H2138913  17.273  11.543  11.114  1.1052 -0.2020  3.3405
  252ETHOX  H2338914  17.104  11.500  11.100  1.0888  1.4674 -0.9084
  253ETHOX   O138915  17.246  11.390  10.980  0.2125  1.0978 -0.3373
  253ETHOX   C138916  17.204  11.470  10.875 -0.0354 -0.3481  0.4676
  253ETHOX  H1138917  17.247  11.572  10.886  1.6787 -0.7598 -1.7063
  253ETHOX  H1338918  17.093  11.470  10.870 -0.0291 -0.6909  0.2798
  253ETHOX   C238919  17.268  11.427  10.740 -0.0765 -0.8383 -0.2181
  253ETHOX  H2138920  17.218  11.472  10.652  0.3316  3.8930  1.6812
  253ETHOX  H2338921  17.264  11.317  10.727  0.7099 -0.8100 -0.7834
  254ETHOX   O138922  17.407  11.464  10.739  0.4585 -0.0867  0.4115
  254ETHOX   C138923  17.470  11.398  10.632  0.3937  0.2519 -0.1426
  254ETHOX  H1138924  17.479  11.294  10.669 -1.2627 -1.9350 -5.0065
  254ETHOX  H1338925  17.408  11.393  10.540  1.2502  1.9772 -0.8739
  254ETHOX   C238926  17.598  11.472  10.606 -0.2474  0.3081 -0.4875
  254ETHOX  H2138927  17.651  11.397  10.544 -0.3302  1.1997 -1.6767
  254ETHOX  H2338928  17.654  11.497  10.699  0.7944  0.6749 -1.1970
  255ETHOX   O138929  17.587  11.593  10.532  0.4264 -0.3166  0.1308
  255ETHOX   C138930  17.720  11.627  10.484  0.1741 -0.5700 -0.1526
  255ETHOX  H1138931  17.758  11.535  10.433 -1.4080 -1.1828 -0.2728
  255ETHOX  H1338932  17.786  11.661  10.567  3.0231  0.6265 -2.6860
  255ETHOX   C238933  17.726  11.736  10.376 -0.3936 -0.8375  0.6030
  255ETHOX  H2138934  17.684  11.829  10.420  1.7488  1.1389 -1.2717
  255ETHOX  H2338935  17.664  11.697  10.292 -0.9004 -2.3112  1.6219
  256ETHOX   O138936  17.857  11.764  10.339 -0.0519  0.1006 -0.3723
  256ETHOX   C138937  17.853  11.863  10.239  0.2542  0.9040 -0.4869
  256ETHOX  H1138938  17.808  11.818  10.148 -1.2746  1.2831  0.0649
  256ETHOX  H1338939  17.783  11.941  10.274 -1.2101 -0.7532  0.4361
  256ETHOX   C238940  17.988  11.926  10.214 -0.0356  0.2063  0.3361
  256ETHOX  H2138941  17.991  11.985  10.120 -2.0135  0.5423  0.4511
  256ETHOX  H2338942  18.074  11.855  10.212  0.6736  1.0608 -1.5522
  257ETHOX   O138943  18.008  12.018  10.318 -0.0259 -0.1620  0.1602
  257ETHOX   C138944  18.099  12.121  10.272 -0.0355  0.1605  0.1206
  257ETHOX  H1138945  18.060  12.177  10.184 -2.2075 -0.9302  0.3128
  257ETHOX  H1338946  18.198  12.075  10.251  0.8670  1.6692  0.9204
  257ETHOX   C238947  18.116  12.215  10.393 -0.5468  0.1417  0.0563
  257ETHOX  H2138948  18.205  12.281  10.388  0.7129 -1.4672  0.5305
  257ETHOX  H2338949  18.134  12.173  10.495 -0.7109  2.5334  1.1318
  258ETHOX   O138950  18.003  12.297  10.406 -0.6136 -0.0428 -0.1072
  258ETHOX   C138951  18.016  12.385  10.515  0.0017  0.1193  0.2667
  258ETHOX  H1138952  18.058  12.328  10.600 -1.7310  0.0413  1.1249
  258ETHOX  H1338953  18.082  12.471  10.490  0.1639 -0.5099 -1.6400
  258ETHOX   C238954  17.869  12.422  10.543 -0.5311 -0.1079 -0.4014
  258ETHOX  H2138955  17.821  12.433  10.444  1.5374  0.7546 -1.3798
  258ETHOX  H2338956  17.875  12.520  10.597  0.8492 -0.9430  1.0482
  259ETHOX   O138957  17.803  12.323  10.629  0.4393  0.0668  0.6497
  259ETHOX   C138958  17.750  12.216  10.542  0.4403  0.9221 -0.4830
  259ETHOX  H1138959  17.674  12.244  10.465 -0.1562 -0.3125 -0.3684
  259ETHOX  H1338960  17.833  12.170  10.484 -1.0689 -0.7962 -1.3847
  259ETHOX   C238961  17.678  12.117  10.629 -0.1773  0.3256 -0.0017
  259ETHOX  H2138962  17.587  12.073  10.583 -0.6465 -0.2063  1.3621
  259ETHOX  H2338963  17.627  12.177  10.708  2.0760  0.3967  1.4796
  260ETHOX   O138964  17.753  12.015  10.687  0.0117 -0.3385 -0.4286
  260ETHOX   C138965  17.692  11.959  10.808  0.5172  0.2675 -0.1372
  260ETHOX  H1138966  17.771  11.900  10.859 -0.1593 -2.0184 -1.5728
  260ETHOX  H1338967  17.643  12.036  10.871 -0.3755  1.7036 -2.4409
  260ETHOX   C238968  17.581  11.854  10.777  0.6003  0.2990  1.0516
  260ETHOX  H2138969  17.551  11.796  10.867  2.2003  1.1968  2.1934
  260ETHOX  H2338970  17.610  11.783  10.696  0.1152  1.1956  0.0636
  261ETHOX   O138971  17.459  11.911  10.727  0.4111  0.2458 -0.0776
  261ETHOX   C138972  17.353  11.820  10.740  0.6947  0.0200  0.2562
  261ETHOX  H1138973  17.375  11.726  10.685 -2.9328 -0.8299  0.0085
  261ETHOX  H1338974  17.336  11.786  10.844  0.5296 -1.9887 -0.3912
  261ETHOX   C238975  17.234  11.884  10.667  0.5381 -1.1296 -0.5836
  261ETHOX  H2138976  17.163  11.801  10.647 -0.7195 -0.6790  1.7282
  261ETHOX  H2338977  17.278  11.909  10.568  0.2943 -0.4287 -0.5168
  262ETHOX   O138978  17.171  11.996  10.725  0.0457  0.2113 -0.0123
  262ETHOX   C138979  17.079  12.051  10.641 -0.3404 -0.7996 -0.0466
  262ETHOX  H1138980  17.016  11.966  10.605  0.1441 -0.5147 -1.6141
  262ETHOX  H1338981  17.134  12.103  10.560  2.8204 -1.6032  1.4204
  262ETHOX   C238982  16.998  12.148  10.727 -0.0057  0.5285  0.0484
  262ETHOX  H2138983  16.942  12.094  10.806  1.0627 -0.9762 -0.1886
  262ETHOX  H2338984  16.925  12.197  10.660  0.6761 -0.4524 -1.4525
  263ETHOX   O138985  17.092  12.237  10.781 -0.3676 -0.0471  0.3948
  263ETHOX   C138986  17.030  12.335  10.868  0.2744 -0.1681 -0.0271
  263ETHOX  H1138987  16.999  12.281  10.960 -0.4149 -0.1606 -0.2444
  263ETHOX  H1338988  16.936  12.371  10.820 -0.6769  1.6813  2.9211
  263ETHOX   C238989  17.134  12.443  10.885 -0.0661 -0.2117 -0.5671
  263ETHOX  H2138990  17.224  12.399  10.933 -0.7609  1.6599  2.7639
  263ETHOX  H2338991  17.098  12.504  10.970  2.0566 -1.1905  1.1433
  264ETHOX   O138992  17.168  12.513  10.767 -0.4057 -0.4972  0.0556
  264ETHOX   C138993  17.289  12.587  10.794  0.7813  0.5890 -0.1702
  264ETHOX  H1138994  17.379  12.524  10.807  0.5305  0.3806  0.6004
  264ETHOX  H1338995  17.268  12.638  10.891 -0.7597  2.2494 -1.3080
  264ETHOX   C238996  17.315  12.688  10.689  0.0287 -0.2474  0.0853
  264ETHOX  H2138997  17.320  12.650  10.585 -2.4528  2.7367 -1.2839
  264ETHOX  H2338998  17.409  12.743  10.708 -0.8965  1.2433  0.5691
  265ETHOX   O138999  17.211  12.786  10.703 -0.4541 -0.0349  0.0430
  265ETHOX   C139000  17.204  12.883  10.602 -0.4207  0.3686 -0.0999
  265ETHOX  H1139001  17.309  12.912  10.577  0.0636 -1.0467  0.1947
  265ETHOX  H1339002  17.180  12.833  10.506 -0.5347  1.5138 -0.6847
  265ETHOX   C239003  17.124  12.997  10.643  0.2594 -0.5515 -0.0213
  265ETHOX  H2139004  17.127  13.090  10.582  0.5286 -0.5021  0.0603
  265ETHOX  H2339005  17.147  13.029  10.747 -0.3800 -0.5981  0.1358
  265ETHOX   OZ39006  16.986  12.964  10.634  0.0396  0.0012 -0.0433
  265ETHOX  HZ139007  16.945  13.051  10.639  1.1977  0.6935 -1.5942
    1ETHOX   O139008   6.388  12.717  11.786 -0.0633 -0.4491  0.0300
    1ETHOX  HO139009   6.381  12.757  11.699  0.2807  1.9088  1.0034
    1ETHOX   C139010   6.316  12.595  11.778  0.1993  0.0769  0.0317
    1ETHOX  H1139011   6.209  12.620  11.763 -0.2963 -1.8811  0.0488
    1ETHOX  H1339012   6.317  12.549  11.879 -0.5510 -0.3576 -0.1546
    1ETHOX   C239013   6.369  12.498  11.675 -0.6447 -0.2577 -0.7906
    1ETHOX  H2139014   6.303  12.409  11.684 -1.0681  0.0745 -0.5889
    1ETHOX  H2339015   6.476  12.470  11.685 -0.4695  0.5813 -0.1948
    2ETHOX   O139016   6.338  12.550  11.546 -0.2541 -0.0026 -0.8338
    2ETHOX   C139017   6.369  12.455  11.448 -0.4757  0.1368  0.2753
    2ETHOX  H1139018   6.471  12.414  11.466  0.0806  1.4484  0.2006
    2ETHOX  H1339019   6.295  12.372  11.442  0.4708 -0.6510 -0.8698
    2ETHOX   C239020   6.380  12.513  11.307 -0.4521  0.1801  0.6085
    2ETHOX  H2139021   6.438  12.442  11.244  0.7547 -0.0503  1.9302
    2ETHOX  H2339022   6.430  12.612  11.307 -1.0139  0.4846  2.0784
    3ETHOX   O139023   6.255  12.527  11.240 -0.4487 -0.0042 -0.7795
    3ETHOX   C139024   6.272  12.561  11.104 -0.5004  0.1745 -1.0522
    3ETHOX  H1139025   6.316  12.470  11.059 -0.0325 -1.9245  3.1062
    3ETHOX  H1339026   6.344  12.645  11.114  0.0349 -0.4391  0.4974
    3ETHOX   C239027   6.143  12.624  11.048 -0.2144  0.2178  0.3888
    3ETHOX  H2139028   6.152  12.678  10.951 -1.7499  1.3836  0.8664
    3ETHOX  H2339029   6.121  12.709  11.116  1.1547  1.5251 -0.7123
    4ETHOX   O139030   6.031  12.541  11.055 -0.1231 -0.1281  0.0158
    4ETHOX   C139031   5.911  12.617  11.033  1.2692 -0.2269  0.4029
    4ETHOX  H1139032   5.933  12.704  10.967 -1.5093 -0.0652 -0.4508
    4ETHOX  H1339033   5.832  12.560  10.978  0.3954  0.1795  1.2088
    4ETHOX   C239034   5.841  12.662  11.165 -0.2413 -0.3568  0.1966
    4ETHOX  H2139035   5.838  12.575  11.235 -1.1176 -0.1467  0.4298
    4ETHOX  H2339036   5.737  12.695  11.147  0.4479  1.0810 -1.4571
    5ETHOX   O139037   5.900  12.771  11.234  0.5071 -0.3997 -0.1249
    5ETHOX   C139038   5.832  12.794  11.359 -0.3038 -0.3683 -0.7339
    5ETHOX  H1139039   5.725  12.796  11.329 -0.4359 -0.7323 -0.2952
    5ETHOX  H1339040   5.844  12.718  11.440  1.4287 -0.6769 -1.2489
    5ETHOX   C239041   5.889  12.919  11.430  0.0022 -0.3284  0.4201
    5ETHOX  H2139042   5.989  12.897  11.472  0.1964 -0.1403  0.0611
    5ETHOX  H2339043   5.813  12.939  11.509 -0.1093  1.6135 -0.1356
    6ETHOX   O139044   5.889  13.037  11.350 -0.0760 -0.6363  0.5542
    6ETHOX   C139045   6.027  13.064  11.309  0.2241  0.0164  0.2434
    6ETHOX  H1139046   6.079  13.109  11.396  2.4679 -0.7557 -0.6238
    6ETHOX  H1339047   6.081  12.972  11.278 -0.3161  0.1157 -1.0599
    6ETHOX   C239048   6.020  13.170  11.196 -0.4669  0.0046  0.6465
    6ETHOX  H2139049   5.952  13.126  11.121  0.3325 -0.7829  0.3721
    6ETHOX  H2339050   6.121  13.188  11.152 -1.1049  1.3427 -0.3571
    7ETHOX   O139051   5.983  13.296  11.244 -0.1559  0.3365  0.0211
    7ETHOX   C139052   5.969  13.401  11.144  0.7013 -0.5799  0.0495
    7ETHOX  H1139053   6.063  13.422  11.089 -1.3496  2.0004 -2.8153
    7ETHOX  H1339054   5.889  13.372  11.071 -0.4925  0.0144  1.0734
    7ETHOX   C239055   5.936  13.531  11.223 -0.0384 -0.3071  0.2286
    7ETHOX  H2139056   5.844  13.511  11.280 -0.2568  0.4290  0.1388
    7ETHOX  H2339057   5.919  13.617  11.155  1.3932 -0.9955 -1.0834
    8ETHOX   O139058   6.038  13.558  11.317 -0.0647  0.2098  0.2500
    8ETHOX   C139059   6.021  13.686  11.377 -0.0310 -0.5414 -0.4300
    8ETHOX  H1139060   5.930  13.679  11.441 -0.3167 -1.3448 -0.9148
    8ETHOX  H1339061   6.004  13.767  11.303  1.4413 -0.4601 -0.7173
    8ETHOX   C239062   6.144  13.714  11.462 -0.4921  0.0003  0.0304
    8ETHOX  H2139063   6.161  13.814  11.508  0.8709 -0.7525  1.2689
    8ETHOX  H2339064   6.229  13.694  11.393 -0.9218 -1.2997 -0.1556
    9ETHOX   O139065   6.146  13.623  11.569  0.0862  0.4743 -0.4700
    9ETHOX   C139066   6.071  13.679  11.675 -0.3557  0.2051  0.7539
    9ETHOX  H1139067   6.100  13.781  11.709  0.8624 -0.2029  1.0125
    9ETHOX  H1339068   5.967  13.676  11.636 -0.2377 -0.5508  0.4805
    9ETHOX   C239069   6.067  13.593  11.803 -0.5693  0.1875 -0.2011
    9ETHOX  H2139070   6.061  13.490  11.763  0.2920  1.3060 -3.5147
    9ETHOX  H2339071   5.979  13.611  11.868  0.5399  0.8748  1.1833
   10ETHOX   O139072   6.182  13.607  11.891  0.2044  0.0103 -0.6168
   10ETHOX   C139073   6.170  13.546  12.016 -0.1800  0.2365 -0.0571
   10ETHOX  H1139074   6.071  13.568  12.062 -0.2874 -2.0353  0.9671
   10ETHOX  H1339075   6.243  13.596  12.082 -2.2071  0.5115  2.1304
   10ETHOX   C239076   6.174  13.397  12.014 -0.9528 -0.2340  0.3992
   10ETHOX  H2139077   6.104  13.355  11.939 -1.4863  1.0302  0.1561
   10ETHOX  H2339078   6.154  13.355  12.114  2.7876 -0.8288  1.0453
   11ETHOX   O139079   6.309  13.365  11.987  0.0713  0.3028 -0.1095
   11ETHOX   C139080   6.316  13.266  11.888  0.1863 -0.5223  0.6742
   11ETHOX  H1139081   6.272  13.171  11.926 -0.4350  0.2351  1.9411
   11ETHOX  H1339082   6.250  13.303  11.807  0.7951 -3.6997 -1.4334
   11ETHOX   C239083   6.464  13.243  11.846  0.6425  0.5083  0.6599
   11ETHOX  H2139084   6.462  13.170  11.762  0.2489 -0.9056  1.8588
   11ETHOX  H2339085   6.514  13.331  11.799  1.8414 -0.6519 -0.3141
   12ETHOX   O139086   6.550  13.177  11.945  0.5167 -0.1732 -0.2114
   12ETHOX   C139087   6.682  13.157  11.891  0.3705  0.1824 -0.2328
   12ETHOX  H1139088   6.717  13.248  11.838 -1.0020  0.2578 -1.0514
   12ETHOX  H1339089   6.690  13.078  11.814  0.0372  0.8934 -1.0146
   12ETHOX   C239090   6.782  13.131  12.012  0.4626 -0.5793  0.0859
   12ETHOX  H2139091   6.875  13.095  11.965  0.2242  1.2221 -1.8953
   12ETHOX  H2339092   6.740  13.059  12.086  0.9913  0.2719  1.2568
   13ETHOX   O139093   6.814  13.246  12.094  0.0163 -0.4467 -0.3337
   13ETHOX   C139094   6.934  13.230  12.169  0.1987  0.0862 -0.2229
   13ETHOX  H1139095   7.018  13.208  12.100  0.6573  0.0313  0.3398
   13ETHOX  H1339096   6.966  13.324  12.219 -1.3616 -0.1253  1.2805
   13ETHOX   C239097   6.926  13.122  12.278  0.2236 -0.4023  0.5795
   13ETHOX  H2139098   6.829  13.135  12.331  0.0952 -1.0675  0.5081
   13ETHOX  H2339099   6.995  13.136  12.364 -0.1634  2.0809  0.5620
   14ETHOX   O139100   6.919  12.982  12.230 -0.2118  0.1691  0.3816
   14ETHOX   C139101   6.904  12.891  12.340 -0.5209 -0.3379  0.4301
   14ETHOX  H1139102   6.826  12.938  12.404 -0.9024  0.0226 -0.2844
   14ETHOX  H1339103   6.994  12.893  12.405 -0.9404  1.1856  1.0223
   14ETHOX   C239104   6.865  12.752  12.286  0.4028  0.2541  0.4482
   14ETHOX  H2139105   6.786  12.769  12.210  0.1649  1.5465  0.9501
   14ETHOX  H2339106   6.823  12.704  12.377  0.0656  1.5945  1.0363
   15ETHOX   O139107   6.983  12.701  12.228  0.4011 -0.2166  0.6137
   15ETHOX   C139108   6.967  12.571  12.173 -1.5435 -0.0910 -0.1274
   15ETHOX  H1139109   6.893  12.575  12.091 -0.4149 -0.4017 -1.1956
   15ETHOX  H1339110   7.062  12.532  12.131 -0.8027  1.9485 -0.4900
   15ETHOX   C239111   6.921  12.476  12.284  0.3143 -0.1385  0.6517
   15ETHOX  H2139112   6.819  12.500  12.322 -1.6528 -1.4390 -3.2440
   15ETHOX  H2339113   6.937  12.377  12.236  1.8057  1.3324 -2.1322
   16ETHOX   O139114   7.001  12.471  12.396  0.3257  0.5918 -0.6873
   16ETHOX   C139115   6.949  12.383  12.490 -0.0482 -0.3869  0.5093
   16ETHOX  H1139116   6.852  12.424  12.525 -1.6457 -2.4679 -1.2332
   16ETHOX  H1339117   6.919  12.291  12.435  0.1348  0.1095 -0.4494
   16ETHOX   C239118   7.050  12.318  12.590 -0.0780 -0.0867  0.1119
   16ETHOX  H2139119   7.147  12.314  12.536  2.0633  1.5640  3.5060
   16ETHOX  H2339120   7.016  12.218  12.624  0.3787 -1.4539 -3.0957
   17ETHOX   O139121   7.072  12.401  12.696  0.0020 -0.8296  0.0648
   17ETHOX   C139122   6.965  12.393  12.790 -0.5296  0.2110  0.6934
   17ETHOX  H1139123   6.864  12.401  12.746  1.0334  0.9731 -3.1649
   17ETHOX  H1339124   6.979  12.307  12.859 -0.3403 -1.4563 -1.3251
   17ETHOX   C239125   6.981  12.506  12.900 -0.1236  0.6616  0.3178
   17ETHOX  H2139126   6.902  12.482  12.975 -0.6797 -1.2410 -0.8231
   17ETHOX  H2339127   6.958  12.605  12.855 -1.8276 -0.3508 -1.1312
   18ETHOX   O139128   7.103  12.498  12.976  0.1547  0.1919 -0.0373
   18ETHOX   C139129   7.117  12.608  13.063 -0.3730  0.0079 -0.5336
   18ETHOX  H1139130   7.209  12.588  13.123 -1.6734 -2.3694  0.7992
   18ETHOX  H1339131   7.133  12.699  13.001  1.3054 -0.0990 -0.3043
   18ETHOX   C239132   7.001  12.629  13.162 -0.4021 -0.2011  0.0909
   18ETHOX  H2139133   6.899  12.642  13.119 -0.0293  2.3063 -0.1396
   18ETHOX  H2339134   7.038  12.720  13.214  0.2335 -0.0047 -0.7008
   19ETHOX   O139135   7.007  12.525  13.267  0.4213  0.3889  0.9502
   19ETHOX   C139136   6.890  12.519  13.341 -0.1583  0.4773  0.0755
   19ETHOX  H1139137   6.800  12.515  13.276  1.0935 -1.2949 -1.6624
   19ETHOX  H1339138   6.884  12.616  13.395 -0.3940 -0.1097  1.1222
   19ETHOX   C239139   6.894  12.414  13.459  0.1377 -0.3954 -0.2677
   19ETHOX  H2139140   6.802  12.426  13.521 -0.3812 -0.4282 -1.0039
   19ETHOX  H2339141   6.984  12.433  13.521  1.2155 -2.4948 -1.0997
   20ETHOX   O139142   6.884  12.281  13.416  0.9072  0.2627  0.1846
   20ETHOX   C139143   6.913  12.188  13.527  0.4910 -0.6471 -0.9012
   20ETHOX  H1139144   7.011  12.216  13.572  0.1708  0.8837 -1.1159
   20ETHOX  H1339145   6.834  12.204  13.603  0.4720 -0.7487 -0.8992
   20ETHOX   C239146   6.921  12.043  13.476  0.1919  0.2477  0.0192
   20ETHOX  H2139147   6.947  11.978  13.562 -3.6294 -0.4601  0.8101
   20ETHOX  H2339148   6.999  12.026  13.399 -0.2290 -2.5990  0.1090
   21ETHOX   O139149   6.795  12.000  13.419  0.5953  0.1682  0.0936
   21ETHOX   C139150   6.786  11.867  13.376  0.9779  0.2093  0.0588
   21ETHOX  H1139151   6.882  11.831  13.333  0.6793  0.6832 -1.0352
   21ETHOX  H1339152   6.709  11.871  13.296  1.9319  2.1805 -0.8506
   21ETHOX   C239153   6.732  11.764  13.476 -0.4472  0.6322 -0.4681
   21ETHOX  H2139154   6.791  11.777  13.570  0.9069  0.8395 -1.3234
   21ETHOX  H2339155   6.749  11.663  13.435  0.4087  0.8827 -0.7467
   22ETHOX   O139156   6.599  11.788  13.509 -0.3305  0.0571 -0.2054
   22ETHOX   C139157   6.538  11.693  13.593  0.2407  0.6981 -0.3806
   22ETHOX  H1139158   6.515  11.598  13.540 -1.4838 -0.0507  1.5562
   22ETHOX  H1339159   6.603  11.684  13.683 -0.3089  0.8714  0.0373
   22ETHOX   C239160   6.404  11.746  13.647  0.2949  0.2472 -0.3186
   22ETHOX  H2139161   6.362  11.663  13.707 -0.9218 -0.9103 -2.6158
   22ETHOX  H2339162   6.419  11.840  13.703  0.4728  0.4547 -0.7060
   23ETHOX   O139163   6.301  11.775  13.549 -0.6962 -0.2233 -0.2658
   23ETHOX   C139164   6.175  11.797  13.612 -0.2629  0.2698 -0.3117
   23ETHOX  H1139165   6.175  11.891  13.672 -0.9417 -0.4720  0.9020
   23ETHOX  H1339166   6.142  11.717  13.681 -0.1744  1.5942  1.3465
   23ETHOX   C239167   6.073  11.790  13.507  0.2965 -0.0019 -0.6067
   23ETHOX  H2139168   6.116  11.809  13.407  0.4214  0.1665 -0.5217
   23ETHOX  H2339169   5.993  11.863  13.532 -0.5500 -1.4653  1.2370
   24ETHOX   O139170   6.014  11.658  13.500  0.4645  0.5232 -0.1719
   24ETHOX   C139171   5.887  11.658  13.442  0.3215  0.0185  0.1025
   24ETHOX  H1139172   5.822  11.714  13.514 -0.3940  1.3913 -1.5270
   24ETHOX  H1339173   5.894  11.711  13.345  1.8886  1.6727  1.0639
   24ETHOX   C239174   5.837  11.514  13.416  0.1873 -0.1211  0.5783
   24ETHOX  H2139175   5.911  11.460  13.353 -0.1812  1.6516 -1.4591
   24ETHOX  H2339176   5.747  11.503  13.351 -1.4910  1.0901  2.5486
   25ETHOX   O139177   5.827  11.447  13.539  0.0961 -0.5112  0.1803
   25ETHOX   C139178   5.794  11.307  13.521  0.6905  0.1684  0.2181
   25ETHOX  H1139179   5.857  11.268  13.439  0.2239 -0.8395  0.3248
   25ETHOX  H1339180   5.689  11.293  13.490  1.3045 -0.3810 -1.7260
   25ETHOX   C239181   5.813  11.225  13.648  0.6514 -0.1526  0.4159
   25ETHOX  H2139182   5.898  11.272  13.703  1.9887 -1.1734 -0.6972
   25ETHOX  H2339183   5.836  11.121  13.618  0.3785 -0.6373  1.8510
   26ETHOX   O139184   5.697  11.222  13.731 -0.3496  0.2345  0.0087
   26ETHOX   C139185   5.605  11.124  13.689 -0.1329  0.3109  0.0809
   26ETHOX  H1139186   5.571  11.138  13.584 -0.3670  2.9341  0.4628
   26ETHOX  H1339187   5.661  11.027  13.684  0.2529  0.5759 -1.6480
   26ETHOX   C239188   5.479  11.115  13.776 -0.3982  0.3155  0.2282
   26ETHOX  H2139189   5.395  11.072  13.717  0.8929  1.8367 -2.9351
   26ETHOX  H2339190   5.450  11.218  13.804 -0.8289  0.1085  0.5632
   27ETHOX   O139191   5.501  11.050  13.902 -0.7506  0.0781 -0.5288
   27ETHOX   C139192   5.378  11.026  13.978 -0.0627  0.5271  0.4021
   27ETHOX  H1139193   5.299  10.981  13.913  1.3839  0.2419 -1.2168
   27ETHOX  H1339194   5.331  11.123  14.007  0.1525  0.6408  0.3717
   27ETHOX   C239195   5.404  10.939  14.101  0.9619 -0.2271 -0.2289
   27ETHOX  H2139196   5.457  10.846  14.072  2.3127  0.2363  0.6469
   27ETHOX  H2339197   5.307  10.930  14.154  1.5410  0.0341  0.9283
   28ETHOX   O139198   5.489  11.014  14.198  0.1726 -0.2289 -0.0099
   28ETHOX   C139199   5.521  10.948  14.318 -0.3053 -0.0023 -0.3917
   28ETHOX  H1139200   5.432  10.889  14.350  0.3617 -0.3282  0.9657
   28ETHOX  H1339201   5.600  10.875  14.289 -0.1739 -0.0841  0.1577
   28ETHOX   C239202   5.571  11.028  14.440 -0.0670  0.6903  0.4361
   28ETHOX  H2139203   5.550  10.979  14.537  1.7418 -1.9342 -0.3976
   28ETHOX  H2339204   5.522  11.128  14.437  0.9911  1.2102 -1.0695
   29ETHOX   O139205   5.707  11.053  14.434 -0.3747 -0.1095 -0.3907
   29ETHOX   C139206   5.769  11.058  14.559  0.7018  0.7330 -0.5900
   29ETHOX  H1139207   5.758  10.958  14.606  2.6914  1.3664  1.4146
   29ETHOX  H1339208   5.710  11.124  14.626 -1.0453 -0.9324 -0.3881
   29ETHOX   C239209   5.916  11.079  14.565  0.3382  0.4530 -0.1801
   29ETHOX  H2139210   5.953  11.001  14.496 -1.5706 -0.7457  0.0872
   29ETHOX  H2339211   5.954  11.071  14.669  1.0939 -0.4663 -0.5225
   30ETHOX   O139212   5.952  11.208  14.521  0.3648 -0.0046 -0.1747
   30ETHOX   C139213   6.093  11.227  14.517  0.6212 -0.7230 -0.6110
   30ETHOX  H1139214   6.142  11.215  14.616 -0.4278 -0.2135 -0.0036
   30ETHOX  H1339215   6.135  11.169  14.432 -2.3246  0.8582 -3.3237
   30ETHOX   C239216   6.108  11.381  14.489 -0.5511  0.3008  0.5927
   30ETHOX  H2139217   6.216  11.397  14.511 -0.7003  0.0287  1.5721
   30ETHOX  H2339218   6.043  11.438  14.559  1.3419  0.1658  2.5693
   31ETHOX   O139219   6.066  11.416  14.358 -0.0507  0.4298 -0.0399
   31ETHOX   C139220   6.084  11.556  14.339  0.6461 -0.6646 -0.3945
   31ETHOX  H1139221   6.010  11.600  14.409  1.2466 -0.8263  0.3528
   31ETHOX  H1339222   6.189  11.569  14.371  0.0229 -0.4542  1.6698
   31ETHOX   C239223   6.075  11.618  14.198  0.0304  0.4661  0.0674
   31ETHOX  H2139224   6.069  11.728  14.215  0.7303  0.5544 -0.1942
   31ETHOX  H2339225   5.975  11.584  14.164 -0.3767 -0.8127  2.3645
   32ETHOX   O139226   6.185  11.575  14.129 -0.5515 -0.1563 -0.7904
   32ETHOX   C139227   6.219  11.663  14.031 -0.4537  0.2613 -0.0979
   32ETHOX  H1139228   6.156  11.643  13.942 -0.9260  0.7523  0.1206
   32ETHOX  H1339229   6.203  11.770  14.055 -1.8252  0.2750 -0.9519
   32ETHOX   C239230   6.366  11.663  13.999  0.1513 -0.5661  0.0809
   32ETHOX  H2139231   6.396  11.738  13.923  2.1166  0.3812  1.6988
   32ETHOX  H2339232   6.396  11.562  13.965 -1.2702 -1.7910  2.2199
   33ETHOX   O139233   6.433  11.696  14.120 -0.4589  0.0922  0.3740
   33ETHOX   C139234   6.580  11.682  14.108  0.3086  0.1521  0.1193
   33ETHOX  H1139235   6.596  11.579  14.071 -1.3756  0.3886 -1.3834
   33ETHOX  H1339236   6.621  11.755  14.035  2.0518 -1.0893 -0.2170
   33ETHOX   C239237   6.651  11.711  14.241 -0.4584  0.7385  0.0288
   33ETHOX  H2139238   6.756  11.676  14.231 -0.2487  0.7787  1.7777
   33ETHOX  H2339239   6.603  11.661  14.328  0.9309 -1.4159 -0.3648
   34ETHOX   O139240   6.652  11.851  14.259  0.0796 -0.3174 -0.4804
   34ETHOX   C139241   6.725  11.896  14.373  0.4873  0.6196  0.0843
   34ETHOX  H1139242   6.834  11.881  14.362  0.2597 -1.8859  0.5944
   34ETHOX  H1339243   6.698  11.853  14.472 -0.8327  0.7466 -0.2021
   34ETHOX   C239244   6.710  12.049  14.392 -0.3952  0.7387  0.1864
   34ETHOX  H2139245   6.752  12.076  14.491 -3.3304  1.5172  1.3110
   34ETHOX  H2339246   6.609  12.095  14.395  0.0601  1.7089  2.4980
   35ETHOX   O139247   6.780  12.127  14.302 -0.1458  0.4946  0.0136
   35ETHOX   C139248   6.761  12.270  14.313 -0.0566  0.2740 -0.2951
   35ETHOX  H1139249   6.656  12.279  14.349 -0.1923 -3.3003  0.5206
   35ETHOX  H1339250   6.825  12.308  14.395 -0.9063  0.1948  0.4122
   35ETHOX   C239251   6.787  12.342  14.182  0.2062  0.0673  0.1941
   35ETHOX  H2139252   6.892  12.316  14.156 -0.6658  0.7433 -5.1978
   35ETHOX  H2339253   6.798  12.451  14.200 -1.4341  0.2046  0.4787
   36ETHOX   O139254   6.697  12.319  14.074  0.0328 -0.1406 -0.0761
   36ETHOX   C139255   6.726  12.391  13.958 -0.2979  0.2608  0.5014
   36ETHOX  H1139256   6.818  12.337  13.928  1.1633  0.8571  3.5357
   36ETHOX  H1339257   6.768  12.491  13.984  0.4843  0.5165 -1.5395
   36ETHOX   C239258   6.625  12.380  13.846  0.2746  0.3188  0.8104
   36ETHOX  H2139259   6.588  12.275  13.847 -2.6009  1.0129 -3.8682
   36ETHOX  H2339260   6.673  12.387  13.746  1.3604  0.2586  1.3156
   37ETHOX   O139261   6.516  12.466  13.860  0.2957  0.4018 -0.4478
   37ETHOX   C139262   6.553  12.595  13.836 -0.3470 -0.0637 -0.5430
   37ETHOX  H1139263   6.526  12.658  13.924 -0.1221  0.9882 -1.2119
   37ETHOX  H1339264   6.664  12.601  13.825 -0.1479 -4.7477 -3.5425
   37ETHOX   C239265   6.477  12.650  13.709 -0.9202 -0.2528  0.0303
   37ETHOX  H2139266   6.483  12.759  13.726  1.4959 -0.3400 -0.0423
   37ETHOX  H2339267   6.369  12.620  13.710 -0.1911 -3.2435  0.4274
   38ETHOX   O139268   6.542  12.611  13.591 -0.6905  0.3342  0.1584
   38ETHOX   C139269   6.528  12.694  13.481 -0.0115 -1.0699 -0.8190
   38ETHOX  H1139270   6.423  12.731  13.480  0.3201  0.5069  3.4139
   38ETHOX  H1339271   6.530  12.631  13.389 -1.0626 -0.0802 -1.5430
   38ETHOX   C239272   6.631  12.812  13.473 -0.4107  0.2617  0.8648
   38ETHOX  H2139273   6.636  12.845  13.366 -0.9681  1.0067  1.0572
   38ETHOX  H2339274   6.728  12.780  13.517 -0.9330 -4.0775 -0.6754
   39ETHOX   O139275   6.574  12.923  13.547 -0.5922 -0.6373  0.3866
   39ETHOX   C139276   6.653  13.042  13.542  0.9756 -0.5297  0.2925
   39ETHOX  H1139277   6.759  13.008  13.549  0.3726 -3.1556 -1.7882
   39ETHOX  H1339278   6.642  13.089  13.442  1.5502  0.4626  0.6840
   39ETHOX   C239279   6.614  13.143  13.647 -0.2247  0.3334  0.0458
   39ETHOX  H2139280   6.507  13.146  13.676 -0.3204  0.2391 -0.2918
   39ETHOX  H2339281   6.635  13.245  13.608 -0.3572  0.2539 -0.2330
   40ETHOX   O139282   6.689  13.108  13.767  0.3087 -0.0083  0.5681
   40ETHOX   C139283   6.644  13.182  13.876  0.4175  0.3540 -0.3681
   40ETHOX  H1139284   6.536  13.166  13.894  0.5033  2.0691  2.1106
   40ETHOX  H1339285   6.670  13.288  13.855 -1.7812  0.8726 -0.6302
   40ETHOX   C239286   6.723  13.139  14.006  0.3171  0.6028  0.4076
   40ETHOX  H2139287   6.729  13.028  14.010 -2.5231  0.2263 -1.7595
   40ETHOX  H2339288   6.656  13.158  14.093 -1.5825 -2.4561 -0.2263
   41ETHOX   O139289   6.849  13.197  14.021 -0.0418 -0.3358  0.0013
   41ETHOX   C139290   6.829  13.314  14.101  0.3189 -0.3918  0.8404
   41ETHOX  H1139291   6.736  13.360  14.063  0.8657  0.5586  0.6030
   41ETHOX  H1339292   6.821  13.279  14.206  1.2869 -1.1361  0.6820
   41ETHOX   C239293   6.941  13.419  14.102 -0.3315 -0.6488  0.5416
   41ETHOX  H2139294   7.030  13.378  14.155  0.0141  0.0787  0.5327
   41ETHOX  H2339295   6.910  13.511  14.155  0.5858 -0.6801  1.1665
   42ETHOX   O139296   6.974  13.458  13.964  0.0291  0.4366 -0.0786
   42ETHOX   C139297   7.095  13.535  13.961  0.4209 -0.2672 -0.5962
   42ETHOX  H1139298   7.077  13.629  14.019 -0.5074 -2.1258  2.3447
   42ETHOX  H1339299   7.179  13.486  14.016  1.1674  2.8540  1.3260
   42ETHOX   C239300   7.150  13.577  13.821  0.7404  0.3004  0.7410
   42ETHOX  H2139301   7.135  13.488  13.757  0.2692  1.5494 -0.9409
   42ETHOX  H2339302   7.254  13.615  13.828  1.8662 -2.2869 -0.7050
   43ETHOX   O139303   7.060  13.671  13.764 -0.4085  0.2812  0.0256
   43ETHOX   C139304   7.083  13.684  13.624  0.3980 -0.3470 -0.0274
   43ETHOX  H1139305   7.180  13.724  13.589  0.2148 -0.0864 -0.2424
   43ETHOX  H1339306   7.078  13.584  13.576  0.7043 -0.7114  0.6868
   43ETHOX   C239307   6.977  13.775  13.571  0.4281 -0.2452 -0.9971
   43ETHOX  H2139308   6.979  13.799  13.462 -1.0868  1.1425 -0.7569
   43ETHOX  H2339309   6.980  13.874  13.621  3.0913  0.1050 -1.6767
   44ETHOX   O139310   6.851  13.727  13.597  0.2455 -0.5070  0.4959
   44ETHOX   C139311   6.746  13.824  13.582  0.3094  0.6848 -0.2534
   44ETHOX  H1139312   6.763  13.888  13.492  0.9839 -0.8720 -1.2700
   44ETHOX  H1339313   6.651  13.768  13.573  0.2568  0.8205 -0.5787
   44ETHOX   C239314   6.744  13.917  13.702 -0.1290  0.3437 -0.1419
   44ETHOX  H2139315   6.828  13.990  13.702  0.1493  0.0842  2.2323
   44ETHOX  H2339316   6.758  13.865  13.798 -0.2656  1.0617  0.2779
   45ETHOX   O139317   6.614  13.973  13.719 -0.3713  0.3923  0.5398
   45ETHOX   C139318   6.625  14.107  13.762 -0.7922 -0.1959  0.2131
   45ETHOX  H1139319   6.638  14.160  13.666  0.3535 -0.8875 -0.0304
   45ETHOX  H1339320   6.704  14.120  13.839 -2.5294  2.3294  1.7288
   45ETHOX   C239321   6.493  14.153  13.837  0.3152  0.0677  0.4761
   45ETHOX  H2139322   6.509  14.245  13.898 -0.3988 -0.9111  2.1889
   45ETHOX  H2339323   6.477  14.072  13.911  3.1007 -1.3843 -0.3607
   46ETHOX   O139324   6.370  14.153  13.761  0.0819  0.3353 -0.4512
   46ETHOX   C139325   6.267  14.221  13.835  0.0883 -0.2815  0.3281
   46ETHOX  H1139326   6.167  14.177  13.817 -0.3676  0.4225  1.0634
   46ETHOX  H1339327   6.276  14.215  13.946 -0.6493  3.8785  0.7898
   46ETHOX   C239328   6.257  14.375  13.812 -0.7250 -0.0583  0.5525
   46ETHOX  H2139329   6.361  14.405  13.838  0.5544 -3.9022  0.4064
   46ETHOX  H2339330   6.180  14.412  13.883  0.1808  3.2270 -0.0154
   47ETHOX   O139331   6.226  14.424  13.678 -0.5248  0.1923 -0.1070
   47ETHOX   C139332   6.214  14.565  13.656  0.4613 -0.1079  0.4475
   47ETHOX  H1139333   6.300  14.626  13.692 -1.0962  2.0658  0.7189
   47ETHOX  H1339334   6.122  14.599  13.709  1.3922 -0.0157  2.0532
   47ETHOX   C239335   6.194  14.577  13.507 -0.0134 -0.7273 -0.8025
   47ETHOX  H2139336   6.151  14.674  13.473 -0.1421 -1.0378 -1.5230
   47ETHOX  H2339337   6.121  14.504  13.469 -0.3437 -0.4422 -0.7256
   48ETHOX   O139338   6.318  14.537  13.452  0.0842  0.2255  0.3675
   48ETHOX   C139339   6.365  14.638  13.366 -0.1592 -0.2668 -0.1803
   48ETHOX  H1139340   6.288  14.664  13.290 -0.4349  1.5678  0.6740
   48ETHOX  H1339341   6.374  14.718  13.442 -1.1441 -1.6849  1.4971
   48ETHOX   C239342   6.500  14.614  13.293 -0.4270  0.0909 -0.4638
   48ETHOX  H2139343   6.579  14.617  13.371 -0.3043 -1.1844 -0.5193
   48ETHOX  H2339344   6.499  14.517  13.240 -0.7763  1.1530 -2.5100
   49ETHOX   O139345   6.533  14.713  13.203  0.0182  0.2680  0.2957
   49ETHOX   C139346   6.659  14.688  13.139 -0.1145 -0.5557  0.2579
   49ETHOX  H1139347   6.649  14.605  13.067  1.9789 -0.6193 -0.0149
   49ETHOX  H1339348   6.728  14.655  13.220 -2.1686 -2.4845  1.3317
   49ETHOX   C239349   6.712  14.807  13.059 -0.6527 -1.0351 -0.2350
   49ETHOX  H2139350   6.638  14.854  12.992  0.2075  1.2398  0.3038
   49ETHOX  H2339351   6.790  14.765  12.991  1.4052 -0.2252  1.4977
   50ETHOX   O139352   6.769  14.901  13.149 -0.5661  0.3938 -0.5136
   50ETHOX   C139353   6.791  15.027  13.087  0.1572  0.0380 -0.6611
   50ETHOX  H1139354   6.708  15.057  13.019  1.9333 -1.6402 -3.8357
   50ETHOX  H1339355   6.799  15.096  13.173  0.5339 -0.9440  0.1092
   50ETHOX   C239356   6.907  15.043  13.003  0.3903  0.4040 -0.3614
   50ETHOX  H2139357   6.998  14.999  13.048 -0.1946  0.2201  0.6630
   50ETHOX  H2339358   6.921  15.153  12.988 -0.5125  0.3058 -2.3041
   51ETHOX   O139359   6.898  14.990  12.874  1.0780 -0.4586  0.0184
   51ETHOX   C139360   7.000  15.034  12.785 -0.3394  0.4881 -0.3992
   51ETHOX  H1139361   7.099  15.009  12.829 -0.7938  1.8309  1.5293
   51ETHOX  H1339362   6.991  15.144  12.775 -1.5716  0.4686  0.2887
   51ETHOX   C239363   6.973  14.963  12.653 -0.3719 -0.0174  0.1710
   51ETHOX  H2139364   6.939  14.857  12.658  1.6654 -0.8150 -1.4688
   51ETHOX  H2339365   7.067  14.974  12.593 -0.2703  2.7124  0.7055
   52ETHOX   O139366   6.872  15.041  12.580  0.0430  0.3488  0.4063
   52ETHOX   C139367   6.837  14.979  12.458 -0.0192 -0.5413  0.1530
   52ETHOX  H1139368   6.922  14.952  12.391  0.1564 -0.9544  0.5396
   52ETHOX  H1339369   6.781  14.884  12.473  0.6242 -1.3636 -2.1384
   52ETHOX   C239370   6.739  15.065  12.371  0.2351 -0.2338  0.0013
   52ETHOX  H2139371   6.724  15.015  12.273 -0.6917 -0.5092  0.2712
   52ETHOX  H2339372   6.791  15.162  12.360  0.5661 -0.4154 -0.0453
   53ETHOX   O139373   6.607  15.067  12.435 -0.4189 -0.3041 -0.1498
   53ETHOX   C139374   6.508  15.121  12.360 -0.0955  0.0125  1.0314
   53ETHOX  H1139375   6.483  15.055  12.275 -0.3016  1.8656 -0.4234
   53ETHOX  H1339376   6.419  15.123  12.427  0.8314  3.5093  2.3797
   53ETHOX   C239377   6.535  15.267  12.325  0.2521 -0.1043  0.9225
   53ETHOX  H2139378   6.593  15.317  12.405  1.9780  0.8721 -0.8563
   53ETHOX  H2339379   6.442  15.327  12.320  0.7333  0.7072  1.4013
   54ETHOX   O139380   6.613  15.274  12.202  0.6144 -0.0217 -0.7303
   54ETHOX   C139381   6.635  15.417  12.170 -0.1249 -0.7216 -0.7528
   54ETHOX  H1139382   6.550  15.486  12.189 -0.2781 -0.9364 -0.6587
   54ETHOX  H1339383   6.716  15.451  12.238 -1.0171  3.3501 -1.4550
   54ETHOX   C239384   6.689  15.422  12.027  0.5275  0.3070  0.5768
   54ETHOX  H2139385   6.761  15.339  12.011  0.8165  0.9667 -2.0997
   54ETHOX  H2339386   6.734  15.522  12.005 -3.0392  2.2751  1.5296
   55ETHOX   O139387   6.581  15.407  11.933 -0.2742 -0.2884  0.0413
   55ETHOX   C139388   6.575  15.279  11.875  0.4411  0.2103 -0.3557
   55ETHOX  H1139389   6.664  15.253  11.814  0.3980  0.6303 -0.6057
   55ETHOX  H1339390   6.576  15.204  11.956  1.8209  1.5129  0.8881
   55ETHOX   C239391   6.450  15.251  11.784 -0.0273  0.2806 -0.2323
   55ETHOX  H2139392   6.362  15.281  11.845 -0.3128  0.3295 -0.6619
   55ETHOX  H2339393   6.446  15.315  11.693  1.2231  1.3495  0.4245
   56ETHOX   O139394   6.433  15.119  11.738 -0.0334 -0.5371 -0.4235
   56ETHOX   C139395   6.305  15.107  11.683  0.2256  1.2198 -0.2161
   56ETHOX  H1139396   6.282  15.158  11.587 -1.8914 -0.9985 -0.9752
   56ETHOX  H1339397   6.224  15.139  11.753  0.2817  1.3792 -0.2228
   56ETHOX   C239398   6.274  14.952  11.660  0.9382 -0.5394  0.6125
   56ETHOX  H2139399   6.168  14.922  11.645  0.7641  1.0088 -1.7157
   56ETHOX  H2339400   6.313  14.905  11.753 -1.2224  1.3578  2.6088
   57ETHOX   O139401   6.339  14.893  11.551 -0.3246 -0.0040 -0.1723
   57ETHOX   C139402   6.318  14.754  11.534 -0.3845 -0.1805 -0.6083
   57ETHOX  H1139403   6.350  14.701  11.627 -1.5529  0.5263  0.2251
   57ETHOX  H1339404   6.208  14.736  11.524 -0.6790  1.2046 -0.1403
   57ETHOX   C239405   6.397  14.687  11.422  0.6391  0.4364 -0.1940
   57ETHOX  H2139406   6.371  14.739  11.328 -0.4838 -2.8459 -1.8534
   57ETHOX  H2339407   6.353  14.586  11.411  1.4022 -0.2633  2.4057
   58ETHOX   O139408   6.534  14.668  11.449 -0.2760 -0.5458 -0.2198
   58ETHOX   C139409   6.593  14.599  11.345 -0.2160 -0.0280  0.3648
   58ETHOX  H1139410   6.556  14.643  11.251 -0.8890 -3.9987 -1.4344
   58ETHOX  H1339411   6.552  14.496  11.334  0.3671 -0.5582  2.6517
   58ETHOX   C239412   6.745  14.603  11.342  0.6230  0.7615  1.0811
   58ETHOX  H2139413   6.777  14.545  11.253 -1.4018  0.8176  0.2633
   58ETHOX  H2339414   6.790  14.551  11.429  2.3877 -1.9207 -1.2343
   59ETHOX   O139415   6.802  14.728  11.320 -0.8886 -0.6097  0.4646
   59ETHOX   C139416   6.943  14.727  11.341 -0.1608  0.2667  0.3056
   59ETHOX  H1139417   6.954  14.726  11.452  0.2269  0.4227  0.2693
   59ETHOX  H1339418   6.986  14.633  11.302 -3.3381 -1.2153  0.0404
   59ETHOX   C239419   7.015  14.843  11.278  0.1651  0.0644 -0.0785
   59ETHOX  H2139420   7.121  14.851  11.310 -0.1884  2.1120  0.7192
   59ETHOX  H2339421   6.970  14.938  11.314 -2.7534  0.7244 -4.5922
   60ETHOX   O139422   7.012  14.826  11.134 -0.6920  0.2952  0.2639
   60ETHOX   C139423   7.067  14.945  11.073  0.7194  0.0884  0.4453
   60ETHOX  H1139424   7.167  14.958  11.119 -0.0950  2.4261  1.6917
   60ETHOX  H1339425   6.998  15.028  11.098  1.9123  0.5229  2.4662
   60ETHOX   C239426   7.073  14.921  10.925  0.3636 -0.6701  0.0229
   60ETHOX  H2139427   7.106  15.011  10.868 -0.0567 -0.7497 -0.3496
   60ETHOX  H2339428   6.968  14.894  10.899  0.6788 -0.6465 -1.2930
   61ETHOX   O139429   7.165  14.819  10.897 -0.1360  0.7068 -0.0404
   61ETHOX   C139430   7.168  14.795  10.755  0.4520  0.4501 -0.4761
   61ETHOX  H1139431   7.075  14.738  10.733  1.2909 -1.3634  0.4887
   61ETHOX  H1339432   7.168  14.886  10.692  1.7189 -1.6642 -3.7840
   61ETHOX   C239433   7.287  14.704  10.715 -0.1713 -0.1703 -0.3811
   61ETHOX  H2139434   7.381  14.758  10.742 -0.5670  0.5415 -0.4282
   61ETHOX  H2339435   7.293  14.706  10.604 -1.0081 -1.1241 -0.4519
   62ETHOX   O139436   7.284  14.564  10.761 -0.8656 -0.8300 -0.8328
   62ETHOX   C139437   7.323  14.545  10.892  0.2439 -0.3004 -0.0083
   62ETHOX  H1139438   7.282  14.630  10.951  0.3298  0.7976 -1.4815
   62ETHOX  H1339439   7.434  14.536  10.898  0.3240  0.0303 -0.8674
   62ETHOX   C239440   7.241  14.433  10.966 -0.0717  0.2502  0.4322
   62ETHOX  H2139441   7.254  14.446  11.076 -0.5203  0.6787  0.4416
   62ETHOX  H2339442   7.278  14.335  10.932 -0.0771  0.7045 -0.9636
   63ETHOX   O139443   7.098  14.443  10.938 -0.1844 -0.1800 -1.0179
   63ETHOX   C139444   7.030  14.528  11.033 -0.0681  0.2322  0.0692
   63ETHOX  H1139445   7.027  14.476  11.131 -1.0443 -0.3845 -0.2725
   63ETHOX  H1339446   7.093  14.619  11.040 -0.1989  0.1972  3.0559
   63ETHOX   C239447   6.891  14.578  10.987 -0.5818 -0.2373 -0.0493
   63ETHOX  H2139448   6.895  14.622  10.885 -1.2454 -3.9442 -1.8320
   63ETHOX  H2339449   6.853  14.647  11.065 -0.7181 -3.0216  2.5056
   64ETHOX   O139450   6.794  14.469  10.982  0.1936  0.6100 -0.5190
   64ETHOX   C139451   6.663  14.517  10.956 -0.7254  0.6803  0.5086
   64ETHOX  H1139452   6.669  14.568  10.857  2.3697 -2.2508 -1.0153
   64ETHOX  H1339453   6.618  14.584  11.033 -3.9384  1.3732 -1.7294
   64ETHOX   C239454   6.567  14.389  10.937  0.1565 -0.0063 -0.3392
   64ETHOX  H2139455   6.612  14.312  10.870 -0.4312  0.4348 -1.2641
   64ETHOX  H2339456   6.466  14.411  10.894 -0.0315 -3.3116 -1.9095
   65ETHOX   O139457   6.526  14.342  11.068 -0.0719  0.3599 -0.1328
   65ETHOX   C139458   6.616  14.242  11.127 -0.2450  0.2839  0.0482
   65ETHOX  H1139459   6.658  14.177  11.049  1.0617 -0.3584  1.2444
   65ETHOX  H1339460   6.705  14.295  11.166  0.1961 -0.6986  0.3947
   65ETHOX   C239461   6.547  14.163  11.236  0.0929 -0.1065  0.4038
   65ETHOX  H2139462   6.614  14.078  11.262 -0.3737 -0.9454 -1.0277
   65ETHOX  H2339463   6.453  14.116  11.198 -0.7219  1.1344  0.8180
   66ETHOX   O139464   6.532  14.250  11.350  0.1448  0.4451 -0.1623
   66ETHOX   C139465   6.439  14.189  11.438  0.4335  0.0028 -0.5648
   66ETHOX  H1139466   6.493  14.124  11.510 -0.5325  0.9401  1.0752
   66ETHOX  H1339467   6.358  14.129  11.390  0.2900  0.4294 -0.8632
   66ETHOX   C239468   6.368  14.289  11.536  0.1238  0.4628  0.2418
   66ETHOX  H2139469   6.448  14.356  11.574  1.3298  0.4622 -2.0743
   66ETHOX  H2339470   6.321  14.228  11.616  1.0637 -3.0528 -1.6691
   67ETHOX   O139471   6.271  14.373  11.467  0.1378 -0.3069  0.2611
   67ETHOX   C139472   6.149  14.316  11.467  0.4149 -0.0655 -0.1198
   67ETHOX  H1139473   6.156  14.219  11.412  1.7241 -1.0680  1.7084
   67ETHOX  H1339474   6.110  14.293  11.568  2.3369 -0.1119  0.6419
   67ETHOX   C239475   6.030  14.398  11.407  0.3462 -0.1403  0.0024
   67ETHOX  H2139476   5.946  14.332  11.377  1.8633 -1.8155 -0.6924
   67ETHOX  H2339477   6.070  14.456  11.321  0.4870 -3.4902 -2.4005
   68ETHOX   O139478   5.979  14.502  11.498  0.4319  0.4769  0.2082
   68ETHOX   C139479   5.942  14.620  11.430 -1.1116 -0.2885 -0.0202
   68ETHOX  H1139480   6.039  14.669  11.406 -1.2396  0.1012  0.2680
   68ETHOX  H1339481   5.884  14.600  11.337 -2.1510  4.4151 -0.6017
   68ETHOX   C239482   5.854  14.709  11.519 -0.0948 -0.5058 -0.3056
   68ETHOX  H2139483   5.770  14.641  11.545  1.0932 -1.3558  1.4999
   68ETHOX  H2339484   5.820  14.805  11.475  0.4921 -0.6393 -1.0726
   69ETHOX   O139485   5.929  14.751  11.636  0.4789  0.3409  0.6893
   69ETHOX   C139486   5.842  14.800  11.734 -0.5443 -0.6479  0.2445
   69ETHOX  H1139487   5.781  14.884  11.694  0.6547  0.2904  0.3065
   69ETHOX  H1339488   5.774  14.716  11.762 -2.8907  0.8938 -0.5189
   69ETHOX   C239489   5.899  14.871  11.862 -0.4508  0.1656  0.0449
   69ETHOX  H2139490   5.847  14.967  11.879  1.6256  1.0621  1.7628
   69ETHOX  H2339491   6.001  14.915  11.854 -0.6350  0.3500 -1.6774
   70ETHOX   O139492   5.905  14.787  11.977  0.5140  0.0323  0.7896
   70ETHOX   C139493   5.985  14.840  12.084  0.2483  0.2030 -0.1715
   70ETHOX  H1139494   6.083  14.862  12.037  0.3043  0.3430  0.0084
   70ETHOX  H1339495   5.951  14.942  12.113  1.4764  0.5165  0.2281
   70ETHOX   C239496   5.996  14.741  12.205  0.3822 -0.4245  0.2895
   70ETHOX  H2139497   5.890  14.732  12.239 -0.8414 -1.4634 -3.3281
   70ETHOX  H2339498   6.051  14.791  12.287  0.9055 -0.1431 -0.2283
   71ETHOX   O139499   6.043  14.607  12.183 -0.2789 -0.2131 -0.2878
   71ETHOX   C139500   6.100  14.542  12.293  0.3608 -0.1474 -0.0971
   71ETHOX  H1139501   6.033  14.564  12.379 -1.3550 -3.1318 -0.5101
   71ETHOX  H1339502   6.194  14.597  12.313  0.9105 -1.0505 -0.1428
   71ETHOX   C239503   6.134  14.392  12.288  0.0271 -0.7793  0.8763
   71ETHOX  H2139504   6.152  14.361  12.393 -0.3668  0.6092  1.3833
   71ETHOX  H2339505   6.226  14.375  12.228 -0.5000  1.9191 -0.9025
   72ETHOX   O139506   6.020  14.331  12.240  0.3268  0.3015  0.0515
   72ETHOX   C139507   6.047  14.189  12.225  0.1859  0.1339  0.6681
   72ETHOX  H1139508   6.146  14.168  12.179 -0.0063 -0.6797  0.6139
   72ETHOX  H1339509   6.044  14.150  12.329  1.6506 -1.0188  0.3145
   72ETHOX   C239510   5.938  14.118  12.143 -0.1015  0.0358 -0.4403
   72ETHOX  H2139511   5.979  14.015  12.154  0.8939  0.5117  0.4781
   72ETHOX  H2339512   5.935  14.150  12.037  1.4356 -0.3907 -0.6340
   73ETHOX   O139513   5.812  14.127  12.204 -0.2137  0.2692 -0.7807
   73ETHOX   C139514   5.718  14.048  12.144 -0.2150  0.8460 -0.3649
   73ETHOX  H1139515   5.761  13.948  12.122 -3.4839 -1.0730  1.2849
   73ETHOX  H1339516   5.697  14.100  12.048  2.0152  2.4748 -0.0428
   73ETHOX   C239517   5.595  14.031  12.246 -0.8031 -1.0771  0.2456
   73ETHOX  H2139518   5.514  13.979  12.191 -0.0873 -0.8504 -1.0726
   73ETHOX  H2339519   5.568  14.136  12.270  2.5718  0.3521 -1.4179
   74ETHOX   O139520   5.646  13.962  12.351 -0.7488  0.7695  0.5522
   74ETHOX   C139521   5.548  13.944  12.457  0.3967  0.1218 -0.2267
   74ETHOX  H1139522   5.480  14.032  12.465 -1.5441 -1.4436  1.3313
   74ETHOX  H1339523   5.475  13.867  12.426 -0.2509  0.7789 -0.3538
   74ETHOX   C239524   5.622  13.938  12.595 -0.0400 -1.0027 -0.4626
   74ETHOX  H2139525   5.716  13.878  12.596  1.0287  0.5239 -1.9528
   74ETHOX  H2339526   5.549  13.890  12.662 -1.5222 -0.2962 -1.5194
   75ETHOX   O139527   5.660  14.068  12.645 -1.1010 -0.2567 -0.3414
   75ETHOX   C139528   5.789  14.111  12.595  0.7777  0.0484 -0.8819
   75ETHOX  H1139529   5.790  14.103  12.484  0.3116  1.8060 -1.0423
   75ETHOX  H1339530   5.867  14.036  12.621  0.5488  0.1758  0.2185
   75ETHOX   C239531   5.838  14.247  12.633  0.5308 -0.3921  0.6827
   75ETHOX  H2139532   5.944  14.252  12.600  0.3429 -1.2808 -0.1077
   75ETHOX  H2339533   5.843  14.261  12.743  1.8519  0.0747  0.5829
   76ETHOX   O139534   5.758  14.351  12.575  0.4017  0.8204  0.0809
   76ETHOX   C139535   5.811  14.485  12.598 -0.0415  0.2190  0.2340
   76ETHOX  H1139536   5.922  14.482  12.605  0.0502  1.6468 -0.2819
   76ETHOX  H1339537   5.779  14.550  12.514  1.0077  2.1527  1.2524
   76ETHOX   C239538   5.760  14.556  12.726 -0.0215 -0.2595  0.0475
   76ETHOX  H2139539   5.649  14.570  12.724  0.1049  0.8499 -0.1830
   76ETHOX  H2339540   5.812  14.654  12.725  0.8988 -0.6789  1.8529
   77ETHOX   O139541   5.799  14.496  12.849 -0.6959  0.2192 -0.2651
   77ETHOX   C139542   5.806  14.585  12.960 -0.0929 -0.1745  0.6083
   77ETHOX  H1139543   5.706  14.622  12.990  1.5453  2.3961  3.3291
   77ETHOX  H1339544   5.860  14.679  12.938 -1.7003  0.4381 -0.9557
   77ETHOX   C239545   5.879  14.515  13.075  0.5525  0.3369  0.2366
   77ETHOX  H2139546   5.830  14.416  13.085 -1.0445  1.0168 -0.5998
   77ETHOX  H2339547   5.863  14.575  13.167  1.5155 -0.1835  0.7671
   78ETHOX   O139548   6.017  14.507  13.051  0.2014 -0.3703 -0.2496
   78ETHOX   C139549   6.089  14.441  13.160 -0.2333  0.1100  0.6092
   78ETHOX  H1139550   6.085  14.503  13.253  2.0544  2.1409 -0.5191
   78ETHOX  H1339551   6.043  14.344  13.185  0.9977 -1.0890 -1.4976
   78ETHOX   C239552   6.232  14.421  13.124  0.3942  0.4941 -0.3337
   78ETHOX  H2139553   6.272  14.379  13.219  1.1294 -3.6008 -2.2430
   78ETHOX  H2339554   6.279  14.520  13.102 -1.0478  1.6848  1.5832
   79ETHOX   O139555   6.242  14.317  13.023 -0.5505  0.0378  0.2526
   79ETHOX   C139556   6.381  14.295  12.984  0.2014 -0.5568  0.0939
   79ETHOX  H1139557   6.443  14.258  13.069  2.3761  1.5397 -0.4912
   79ETHOX  H1339558   6.382  14.215  12.906 -0.5479 -0.5698  0.0905
   79ETHOX   C239559   6.456  14.415  12.913 -1.0867 -0.2947  0.7140
   79ETHOX  H2139560   6.563  14.388  12.904 -0.4675  2.2787 -0.8216
   79ETHOX  H2339561   6.448  14.510  12.971  1.6367  0.5500 -0.1405
   80ETHOX   O139562   6.396  14.439  12.783  0.1720  0.1111 -0.2224
   80ETHOX   C139563   6.464  14.538  12.708  0.4912  0.6068  0.1302
   80ETHOX  H1139564   6.438  14.640  12.744 -0.4824  0.3239  0.2424
   80ETHOX  H1339565   6.573  14.517  12.707  0.6827  1.2311  2.3303
   80ETHOX   C239566   6.409  14.541  12.568 -0.3366 -0.4215 -0.2577
   80ETHOX  H2139567   6.444  14.633  12.516  0.6058 -0.5557  0.1130
   80ETHOX  H2339568   6.298  14.532  12.567 -0.3763 -0.1255  0.9062
   81ETHOX   O139569   6.462  14.431  12.488 -0.5152  0.8428 -0.2737
   81ETHOX   C139570   6.490  14.474  12.350 -0.2800 -0.3578 -0.1825
   81ETHOX  H1139571   6.393  14.495  12.299 -0.8945 -1.2965  0.5615
   81ETHOX  H1339572   6.538  14.574  12.355 -2.2821  0.9255 -3.3638
   81ETHOX   C239573   6.574  14.379  12.265  0.8012 -0.7512 -0.8568
   81ETHOX  H2139574   6.518  14.284  12.259 -3.1117  1.2968 -0.1406
   81ETHOX  H2339575   6.576  14.420  12.162 -0.4533 -3.7719 -2.1752
   82ETHOX   O139576   6.697  14.368  12.342  0.5953 -0.5490 -0.0401
   82ETHOX   C139577   6.803  14.326  12.254 -0.2438  0.1685  0.0056
   82ETHOX  H1139578   6.825  14.387  12.164 -1.0479 -1.3882 -1.2842
   82ETHOX  H1339579   6.771  14.228  12.214  1.9032 -2.2138  3.6343
   82ETHOX   C239580   6.942  14.298  12.330  0.0783 -1.1225  0.6380
   82ETHOX  H2139581   7.015  14.256  12.258 -2.4230 -0.5451 -2.4438
   82ETHOX  H2339582   6.937  14.227  12.415  1.3372  0.5412  2.2001
   83ETHOX   O139583   6.994  14.417  12.388 -0.2567 -0.0134  0.1504
   83ETHOX   C139584   7.135  14.410  12.405  0.3692 -0.2341 -0.4828
   83ETHOX  H1139585   7.169  14.313  12.447 -0.7044 -0.2470  0.4027
   83ETHOX  H1339586   7.189  14.431  12.310  2.5625  0.7668  0.9035
   83ETHOX   C239587   7.167  14.527  12.503  0.0590  0.2066  0.0074
   83ETHOX  H2139588   7.105  14.617  12.488  1.4075  1.2559  0.5479
   83ETHOX  H2339589   7.273  14.555  12.488  0.1909  0.1059  0.6933
   84ETHOX   O139590   7.152  14.480  12.636 -0.0272 -0.1373  0.7362
   84ETHOX   C139591   7.169  14.581  12.733 -0.6435  0.6601 -0.0797
   84ETHOX  H1139592   7.126  14.546  12.829 -0.8986  0.7970 -0.1454
   84ETHOX  H1339593   7.113  14.674  12.709 -1.0690  0.6280  0.7546
   84ETHOX   C239594   7.321  14.598  12.757 -1.0118 -0.2178 -0.1637
   84ETHOX  H2139595   7.370  14.667  12.685  1.5442 -2.6258 -0.9147
   84ETHOX  H2339596   7.366  14.497  12.744  0.8244  0.6568 -1.0051
   85ETHOX   O139597   7.345  14.649  12.893 -0.4209 -0.0953 -0.1375
   85ETHOX   C139598   7.476  14.642  12.935  0.4789 -0.6960  0.0651
   85ETHOX  H1139599   7.484  14.677  13.040 -0.8553  0.8821 -0.3078
   85ETHOX  H1339600   7.504  14.535  12.928 -2.0938 -1.6217  2.1130
   85ETHOX   C239601   7.578  14.720  12.847 -0.3084 -0.6507  0.4828
   85ETHOX  H2139602   7.579  14.680  12.744  1.1022  2.1549 -0.6839
   85ETHOX  H2339603   7.678  14.701  12.891 -0.1630  1.1057  1.0003
   86ETHOX   O139604   7.565  14.864  12.831  0.6728 -0.1937  0.0991
   86ETHOX   C139605   7.595  14.934  12.945  0.3827 -0.2290 -0.7773
   86ETHOX  H1139606   7.627  14.862  13.023 -1.3330 -0.0699  0.1141
   86ETHOX  H1339607   7.508  14.985  12.991  2.0010  0.4024  1.7571
   86ETHOX   C239608   7.690  15.048  12.920 -0.0778  0.1944  0.0066
   86ETHOX  H2139609   7.768  15.016  12.847  1.0050  1.4715  0.5533
   86ETHOX  H2339610   7.740  15.073  13.016 -0.1568  0.3983 -0.0037
   87ETHOX   O139611   7.628  15.162  12.866  0.4876  0.2566  0.1190
   87ETHOX   C139612   7.714  15.273  12.864  0.0713 -0.1228  0.4435
   87ETHOX  H1139613   7.774  15.282  12.957 -1.3077  1.2510  1.2172
   87ETHOX  H1339614   7.773  15.255  12.771 -1.4251 -0.1676 -0.5216
   87ETHOX   C239615   7.647  15.409  12.837  0.4266  0.3679  0.3486
   87ETHOX  H2139616   7.713  15.498  12.840 -0.7118  1.2798 -0.8852
   87ETHOX  H2339617   7.585  15.433  12.926  1.0672  2.1672  0.3580
   88ETHOX   O139618   7.574  15.416  12.711  0.8150  0.0826  0.2985
   88ETHOX   C139619   7.524  15.552  12.695  0.3063 -0.2178 -0.0506
   88ETHOX  H1139620   7.608  15.621  12.675  0.4375 -0.6025 -0.8620
   88ETHOX  H1339621   7.470  15.583  12.787  0.4699  1.5416 -0.5146
   88ETHOX   C239622   7.435  15.555  12.571  0.1633 -0.0967 -0.2181
   88ETHOX  H2139623   7.489  15.499  12.492 -1.3774 -0.3626 -1.1353
   88ETHOX  H2339624   7.417  15.657  12.531  1.5948 -0.1485 -1.0620
   89ETHOX   O139625   7.310  15.479  12.597 -0.2518 -0.1925 -0.0170
   89ETHOX   C139626   7.225  15.484  12.483 -0.1873 -0.0466 -0.3185
   89ETHOX  H1139627   7.194  15.590  12.471 -2.6758 -0.7555 -0.8487
   89ETHOX  H1339628   7.280  15.447  12.394 -0.7178 -0.4512 -0.4863
   89ETHOX   C239629   7.109  15.385  12.494  0.0122  0.1013 -0.0124
   89ETHOX  H2139630   7.146  15.290  12.539  0.8140  0.1654 -0.5172
   89ETHOX  H2339631   7.063  15.372  12.394 -1.4365  2.4912  0.2513
   90ETHOX   O139632   7.012  15.448  12.568 -0.1902 -0.4420 -0.1457
   90ETHOX   C139633   6.901  15.366  12.593  0.1736  0.6285 -0.3078
   90ETHOX  H1139634   6.826  15.356  12.511 -0.9863  0.2734  0.7734
   90ETHOX  H1339635   6.942  15.263  12.605  0.6864  0.8520 -0.1052
   90ETHOX   C239636   6.842  15.391  12.729 -0.4575  0.3584 -0.2255
   90ETHOX  H2139637   6.922  15.396  12.807  0.3727  0.2620 -1.0557
   90ETHOX  H2339638   6.773  15.311  12.761 -0.3184 -0.0100 -0.8296
   91ETHOX   O139639   6.764  15.511  12.731 -0.2754 -0.4390  0.2367
   91ETHOX   C139640   6.703  15.535  12.851 -0.2866  0.4901  0.0154
   91ETHOX  H1139641   6.619  15.463  12.858  1.0515 -0.9871  4.1551
   91ETHOX  H1339642   6.780  15.520  12.930 -0.1723  2.2428  0.2974
   91ETHOX   C239643   6.647  15.677  12.871 -0.3962 -0.2458  0.4102
   91ETHOX  H2139644   6.606  15.672  12.974  0.7485  0.9485  0.9623
   91ETHOX  H2339645   6.571  15.697  12.793  0.7034  1.5305 -0.2679
   92ETHOX   O139646   6.752  15.768  12.873 -0.0362 -0.1685 -0.6919
   92ETHOX   C139647   6.710  15.908  12.890  0.1873  0.3160  0.8339
   92ETHOX  H1139648   6.666  15.950  12.797  0.3013  1.2619  1.2006
   92ETHOX  H1339649   6.632  15.904  12.970 -0.0783 -1.1323  0.5385
   92ETHOX   C239650   6.824  16.000  12.930 -0.2062  0.7508  0.1617
   92ETHOX  H2139651   6.785  16.104  12.936  0.4876  1.0518 -0.3464
   92ETHOX  H2339652   6.907  16.004  12.856  1.4268 -1.3803  1.7573
   93ETHOX   O139653   6.882  15.961  13.050  0.4615  0.1067 -0.4544
   93ETHOX   C139654   6.999  16.029  13.090  0.3442 -0.1219  0.1399
   93ETHOX  H1139655   6.973  16.134  13.114 -2.1789 -0.2658 -1.5526
   93ETHOX  H1339656   7.075  16.027  13.008  0.1929  2.6130 -0.1466
   93ETHOX   C239657   7.064  15.963  13.216  0.1057 -0.8934  0.0571
   93ETHOX  H2139658   6.993  15.953  13.301 -0.0835  2.1830  0.3712
   93ETHOX  H2339659   7.147  16.030  13.247 -0.9347 -0.8301  3.0196
   94ETHOX   O139660   7.116  15.836  13.186  0.1196 -0.0887  0.9298
   94ETHOX   C139661   7.156  15.771  13.301 -0.2325  0.6510  0.0967
   94ETHOX  H1139662   7.204  15.839  13.374 -0.4761  0.3818  0.5075
   94ETHOX  H1339663   7.064  15.733  13.350 -0.6306 -0.1104 -1.1655
   94ETHOX   C239664   7.244  15.645  13.266  0.3033 -0.5065  0.1445
   94ETHOX  H2139665   7.200  15.582  13.186 -1.3149  1.5810 -0.7161
   94ETHOX  H2339666   7.252  15.582  13.357  0.3969  1.6749  1.7526
   95ETHOX   O139667   7.368  15.693  13.222 -0.2446  0.0282  0.0124
   95ETHOX   C139668   7.449  15.600  13.151 -0.1845 -0.1022  0.5598
   95ETHOX  H1139669   7.395  15.558  13.063  0.5841 -1.1321  0.5615
   95ETHOX  H1339670   7.473  15.519  13.224 -0.8546  0.6399  1.6374
   95ETHOX   C239671   7.577  15.671  13.093  0.6909 -0.3759  0.1663
   95ETHOX  H2139672   7.633  15.596  13.032 -0.2711  0.1405 -1.4243
   95ETHOX  H2339673   7.635  15.713  13.178 -1.5426  0.3802  1.3774
   96ETHOX   O139674   7.535  15.769  12.992  0.1486  0.0027  0.0604
   96ETHOX   C139675   7.651  15.811  12.919 -0.0063 -0.0716  0.3737
   96ETHOX  H1139676   7.726  15.731  12.900 -1.3958 -1.6259  1.1610
   96ETHOX  H1339677   7.608  15.850  12.825 -0.4126 -2.0543 -0.3096
   96ETHOX   C239678   7.726  15.927  12.992  0.5712 -0.0040 -0.0145
   96ETHOX  H2139679   7.656  15.997  13.042  0.5230  2.2625 -2.9244
   96ETHOX  H2339680   7.777  15.988  12.914  1.4880 -0.8134 -0.0585
   97ETHOX   O139681   7.817  15.873  13.083  0.4407  0.0218 -0.4473
   97ETHOX   C139682   7.913  15.959  13.131 -0.4283  0.5155 -0.0104
   97ETHOX  H1139683   7.852  16.035  13.185 -1.2632 -0.1025 -0.0708
   97ETHOX  H1339684   7.971  16.008  13.050  0.6138 -1.8453 -0.7758
   97ETHOX   C239685   8.017  15.893  13.225  0.5173 -1.5581 -0.1357
   97ETHOX  H2139686   7.962  15.839  13.305 -0.0427  0.8014  1.1523
   97ETHOX  H2339687   8.066  15.982  13.270 -1.0427 -0.2366 -0.9436
   98ETHOX   O139688   8.103  15.800  13.163 -0.6629 -0.2649  0.4694
   98ETHOX   C139689   8.187  15.732  13.256  0.6040  0.1043 -0.1728
   98ETHOX  H1139690   8.264  15.804  13.289  1.7930 -1.3538  0.3094
   98ETHOX  H1339691   8.129  15.686  13.339 -0.6269  0.2734 -0.9151
   98ETHOX   C239692   8.276  15.627  13.189 -0.3321 -0.2434 -0.4453
   98ETHOX  H2139693   8.348  15.584  13.262  0.3784  1.1082 -0.3313
   98ETHOX  H2339694   8.337  15.682  13.114  2.0344 -0.9304  0.8509
   99ETHOX   O139695   8.214  15.516  13.125 -0.1409 -0.6199  0.1320
   99ETHOX   C139696   8.309  15.453  13.046  0.2596 -0.1985  0.5531
   99ETHOX  H1139697   8.399  15.442  13.110 -0.6797  1.6073  2.3081
   99ETHOX  H1339698   8.343  15.511  12.958 -0.5908  0.1307  0.4335
   99ETHOX   C239699   8.266  15.311  13.005  0.1499 -0.2038 -0.4009
   99ETHOX  H2139700   8.218  15.262  13.092  0.3432 -0.5609 -0.4905
   99ETHOX  H2339701   8.358  15.251  12.985  1.1321  0.6578  1.2366
  100ETHOX   O139702   8.185  15.327  12.884  0.4897  0.1164  0.4514
  100ETHOX   C139703   8.115  15.205  12.859  0.0063  0.8091 -0.0481
  100ETHOX  H1139704   8.179  15.117  12.879 -0.3759  0.3531 -0.7919
  100ETHOX  H1339705   8.032  15.195  12.931 -1.3381  0.4493 -1.5955
  100ETHOX   C239706   8.062  15.198  12.713  0.6002  0.2410  0.0279
  100ETHOX  H2139707   7.991  15.282  12.697  1.2963  0.7069 -0.6781
  100ETHOX  H2339708   7.993  15.111  12.707 -0.0160  0.7217  0.1216
  101PROXS   O139709   8.166  15.198  12.606  0.5517  0.1295  0.6918
  101PROXS   C139710   8.097  15.182  12.480 -0.0467  0.2804 -0.2968
  101PROXS  H1139711   8.019  15.104  12.466 -1.6859  2.1698 -2.5857
  101PROXS  H1339712   8.033  15.272  12.467  0.1474  0.7787  1.8696
  101PROXS   C239713   8.197  15.176  12.359 -0.2998 -0.2664 -0.1398
  101PROXS  H2139714   8.280  15.246  12.384 -0.0312 -1.4890  2.8855
  101PROXS   C339715   8.131  15.211  12.220 -0.5135  0.2018 -0.7042
  101PROXS  H3139716   8.051  15.143  12.183 -1.1036  1.7693 -2.4867
  101PROXS  H3239717   8.088  15.312  12.235  1.5944  1.1656 -0.8212
  101PROXS  H3339718   8.204  15.212  12.136  1.4154  0.8615  0.9082
  102PROXS   O139719   8.243  15.046  12.325 -0.2867  1.0570 -0.5315
  102PROXS   C139720   8.340  14.995  12.422 -0.1622  0.0497 -0.2485
  102PROXS  H1139721   8.316  15.028  12.525 -2.0265  1.2493 -1.0056
  102PROXS  H1339722   8.334  14.884  12.431  0.7973 -0.0819 -1.0911
  102PROXS   C239723   8.484  15.039  12.380 -0.7333  0.8311  0.0616
  102PROXS  H2139724   8.480  15.148  12.397 -1.2355  1.3047 -2.6524
  102PROXS   C339725   8.520  15.001  12.235  0.9309  0.3823  0.1186
  102PROXS  H3139726   8.510  14.892  12.217  1.6215  0.1041  1.2951
  102PROXS  H3239727   8.448  15.055  12.171  0.1970  1.7117  1.9894
  102PROXS  H3339728   8.624  15.033  12.210  2.0042 -2.3807  0.6862
  103PROXR   O139729   8.587  14.973  12.463  0.3685  0.2616 -0.0918
  103PROXR   C139730   8.710  15.049  12.479  0.4074  0.5757  0.0317
  103PROXR  H1139731   8.766  15.051  12.383 -1.3161 -2.0418 -1.1247
  103PROXR  H1339732   8.678  15.151  12.510 -1.0565  0.1929 -0.1105
  103PROXR   C239733   8.811  14.987  12.571 -0.2340 -0.6296 -0.1799
  103PROXR  H2139734   8.817  14.876  12.569 -0.9688 -0.7811  2.2556
  103PROXR   C339735   8.764  15.019  12.716  0.2754 -0.4307 -0.3815
  103PROXR  H3139736   8.824  14.963  12.791 -1.2128 -0.4009  0.8781
  103PROXR  H3239737   8.771  15.128  12.736  0.5790 -0.3839 -0.7435
  103PROXR  H3339738   8.659  14.983  12.721 -0.6662  1.9965 -1.3896
  104PROXS   O139739   8.938  15.053  12.545 -0.5651 -0.1650 -0.3540
  104PROXS   C139740   9.037  15.001  12.628 -0.5973  0.8318 -0.8562
  104PROXS  H1139741   9.069  15.072  12.707  2.3170 -0.2148 -0.9968
  104PROXS  H1339742   9.004  14.903  12.667 -0.4559  1.5748  1.2714
  104PROXS   C239743   9.169  14.980  12.544  0.0894  0.0101 -0.3118
  104PROXS  H2139744   9.203  15.082  12.516 -0.1047  0.8364  2.1815
  104PROXS   C339745   9.146  14.886  12.428  0.0663 -0.1096  0.4047
  104PROXS  H3139746   9.223  14.890  12.348  1.0571 -1.3247  1.2505
  104PROXS  H3239747   9.141  14.777  12.451  2.4144 -0.4457 -0.4167
  104PROXS  H3339748   9.057  14.925  12.374  1.8936  1.0264 -1.9730
  105PROXS   O139749   9.266  14.912  12.628  0.5387  0.4537 -0.2959
  105PROXS   C139750   9.406  14.918  12.586 -0.1697 -0.6336  0.0966
  105PROXS  H1139751   9.423  14.843  12.506  0.1167 -1.1247  0.6067
  105PROXS  H1339752   9.433  15.016  12.542 -0.8337 -1.1801 -1.5878
  105PROXS   C239753   9.503  14.877  12.707  0.9190  0.3889 -0.1324
  105PROXS  H2139754   9.486  14.769  12.726  0.3945  0.3303 -0.8875
  105PROXS   C339755   9.482  14.963  12.830 -0.2341 -0.7315 -0.2305
  105PROXS  H3139756   9.462  15.066  12.793 -0.9166 -1.4199 -1.8739
  105PROXS  H3239757   9.385  14.941  12.878 -0.6970  1.6153  0.0179
  105PROXS  H3339758   9.566  14.961  12.903 -1.0634  1.1224  0.8335
  106PROXS   O139759   9.636  14.910  12.672  0.7315  0.5350 -0.3882
  106PROXS   C139760   9.688  14.814  12.581 -1.0520  0.1378  0.2872
  106PROXS  H1139761   9.625  14.786  12.494 -0.9032  0.1155  0.1863
  106PROXS  H1339762   9.773  14.874  12.540 -1.2939  0.7923  0.7243
  106PROXS   C239763   9.742  14.680  12.659  0.3580  0.8738 -0.0966
  106PROXS  H2139764   9.657  14.630  12.710 -0.3178  0.9578 -1.0986
  106PROXS   C339765   9.858  14.706  12.754  0.3739  0.5664 -0.3318
  106PROXS  H3139766   9.937  14.759  12.696  0.1570 -0.8162 -1.9768
  106PROXS  H3239767   9.839  14.763  12.847 -1.7546 -0.3222 -0.1785
  106PROXS  H3339768   9.905  14.610  12.786  2.3581  1.6864  0.2773
  107PROXR   O139769   9.797  14.584  12.564  0.3964  0.8151  0.0297
  107PROXR   C139770   9.691  14.519  12.486 -0.3619 -0.0703  0.2078
  107PROXR  H1139771   9.623  14.470  12.559  0.5398 -0.6055  0.7226
  107PROXR  H1339772   9.624  14.595  12.441  0.1930  0.8213  0.8381
  107PROXR   C239773   9.754  14.433  12.379 -0.4194  0.1217 -0.2455
  107PROXR  H2139774   9.834  14.377  12.432 -0.5533  2.3029  2.5134
  107PROXR   C339775   9.816  14.522  12.275  0.3088 -0.1127  0.5883
  107PROXR  H3139776   9.915  14.562  12.308 -0.4054  2.8980 -0.5603
  107PROXR  H3239777   9.833  14.474  12.176  0.3401  2.4711 -0.7382
  107PROXR  H3339778   9.762  14.615  12.248  1.8851 -0.0186 -2.7175
  108PROXS   O139779   9.658  14.366  12.305 -0.5087  0.3493  0.0386
  108PROXS   C139780   9.714  14.253  12.243 -0.1053  0.2120  0.0330
  108PROXS  H1139781   9.707  14.273  12.134  1.2009 -0.3767 -0.1912
  108PROXS  H1339782   9.819  14.223  12.265 -0.6059 -1.1048  0.7701
  108PROXS   C239783   9.628  14.126  12.272  0.2631  0.2651 -0.2978
  108PROXS  H2139784   9.518  14.139  12.271  0.2139 -0.1483 -0.6237
  108PROXS   C339785   9.654  14.079  12.418  0.0869 -0.3836  0.6798
  108PROXS  H3139786   9.611  14.149  12.493 -1.8111 -1.5431  0.7278
  108PROXS  H3239787   9.611  13.982  12.448  0.2843 -0.4387  0.7867
  108PROXS  H3339788   9.764  14.088  12.427 -0.0640  3.8216  0.5569
  109PROXS   O139789   9.674  14.020  12.191  0.4914 -0.0661  0.3530
  109PROXS   C139790   9.567  13.920  12.168  0.3944 -0.6737 -0.4834
  109PROXS  H1139791   9.529  13.889  12.268  0.3961  1.4955  0.2330
  109PROXS  H1339792   9.482  13.948  12.103  0.4583 -0.1348 -0.3401
  109PROXS   C239793   9.622  13.798  12.101 -0.3510 -0.1951  0.5361
  109PROXS  H2139794   9.707  13.767  12.165 -0.1269 -0.3268  0.1730
  109PROXS   C339795   9.674  13.826  11.963 -0.0912  0.1266  0.2365
  109PROXS  H3139796   9.762  13.892  11.977 -0.6081  0.9032 -0.0492
  109PROXS  H3239797   9.707  13.734  11.911  0.0158  0.6452 -0.6473
  109PROXS  H3339798   9.593  13.872  11.901  0.5799 -1.5160 -2.0005
  110PROXR   O139799   9.524  13.686  12.105  0.5212 -0.0975 -0.2012
  110PROXR   C139800   9.577  13.557  12.079  0.4323  0.7313 -0.1106
  110PROXR  H1139801   9.486  13.494  12.074 -0.0922  1.5416 -1.0097
  110PROXR  H1339802   9.621  13.558  11.977  1.5951  0.3826  0.3593
  110PROXR   C239803   9.679  13.501  12.179 -0.2549  0.4486  0.0302
  110PROXR  H2139804   9.766  13.570  12.174 -1.5910  2.1290 -1.0953
  110PROXR   C339805   9.727  13.363  12.142  0.3665 -0.9430  0.0229
  110PROXR  H3139806   9.772  13.368  12.041  0.2904 -0.3405  0.0130
  110PROXR  H3239807   9.790  13.323  12.225  0.2431  0.8952  1.0469
  110PROXR  H3339808   9.639  13.297  12.130 -0.3251 -0.2541  1.1571
  111PROXS   O139809   9.618  13.487  12.312  0.6900  0.3455  0.1100
  111PROXS   C139810   9.711  13.493  12.413  0.1422 -0.4079 -0.1590
  111PROXS  H1139811   9.739  13.386  12.425  0.9744 -0.0691  1.0659
  111PROXS  H1339812   9.800  13.548  12.376  0.3536 -1.4273 -1.2198
  111PROXS   C239813   9.661  13.543  12.549 -0.0670 -0.5004  0.9104
  111PROXS  H2139814   9.578  13.476  12.580 -0.1741 -0.2108  1.2469
  111PROXS   C339815   9.610  13.689  12.541  0.0024  0.0485 -0.2578
  111PROXS  H3139816   9.552  13.715  12.633 -0.2353  0.0240 -0.3997
  111PROXS  H3239817   9.700  13.752  12.523  0.5739 -0.8452 -0.5919
  111PROXS  H3339818   9.547  13.707  12.451  1.2399  1.5924 -0.8714
  112PROXR   O139819   9.768  13.539  12.638 -0.0310 -0.3808  0.7507
  112PROXR   C139820   9.722  13.542  12.775 -0.4013  0.4218 -0.4838
  112PROXR  H1139821   9.724  13.648  12.808  0.3510  1.4194 -3.3695
  112PROXR  H1339822   9.620  13.497  12.774 -0.9670  1.4435 -4.0688
  112PROXR   C239823   9.811  13.457  12.873  0.4336  0.4537  0.0458
  112PROXR  H2139824   9.919  13.476  12.856  1.6690 -4.6610  0.5898
  112PROXR   C339825   9.782  13.310  12.852 -0.6051  0.9525 -0.2032
  112PROXR  H3139826   9.813  13.287  12.747 -1.0720  1.0732 -0.3693
  112PROXR  H3239827   9.837  13.244  12.923  1.7116  1.6494 -1.2365
  112PROXR  H3339828   9.676  13.283  12.871 -0.6373  0.7896 -0.5859
  113PROXS   O139829   9.773  13.493  13.005  0.5843  0.7699 -0.0559
  113PROXS   C139830   9.886  13.493  13.092  0.4630  0.0498  0.2759
  113PROXS  H1139831   9.949  13.402  13.093  0.3962 -0.0038  1.0581
  113PROXS  H1339832   9.956  13.571  13.056  2.5174 -1.2924  1.2244
  113PROXS   C239833   9.840  13.534  13.234  0.8955  0.3137 -0.0758
  113PROXS  H2139834   9.775  13.455  13.279 -0.7009  2.2336  1.1819
  113PROXS   C339835   9.761  13.665  13.216  0.1470  0.3273  0.3032
  113PROXS  H3139836   9.741  13.709  13.316  2.4027  0.3495  0.8109
  113PROXS  H3239837   9.815  13.736  13.150 -1.3042 -0.0443 -1.3467
  113PROXS  H3339838   9.665  13.637  13.168  0.9759  1.2838 -2.0612
  114PROXR   O139839   9.952  13.572  13.318 -0.0392  0.4916 -0.5429
  114PROXR   C139840  10.022  13.455  13.363  0.6544 -0.1450  0.1479
  114PROXR  H1139841   9.956  13.381  13.413  1.4223 -1.2340 -0.3809
  114PROXR  H1339842  10.065  13.399  13.277 -1.7672  0.0575 -1.2716
  114PROXR   C239843  10.143  13.503  13.444 -0.7847  0.0402 -0.3636
  114PROXR  H2139844  10.108  13.566  13.529 -1.1082 -1.2760  0.5188
  114PROXR   C339845  10.246  13.582  13.358  0.5271 -0.4794  0.2388
  114PROXR  H3139846  10.317  13.631  13.428  0.5419 -0.7303  0.4042
  114PROXR  H3239847  10.302  13.520  13.285 -0.1249 -1.6238  0.6870
  114PROXR  H3339848  10.190  13.667  13.314  0.8953 -0.2863  0.1305
  115PROXR   O139849  10.205  13.392  13.504 -0.1834  0.2418  0.4379
  115PROXR   C139850  10.244  13.424  13.638  0.0372  0.5305 -0.3658
  115PROXR  H1139851  10.308  13.514  13.645  0.7814 -0.0978  1.3569
  115PROXR  H1339852  10.152  13.445  13.697 -0.1787 -1.0314 -0.1093
  115PROXR   C239853  10.308  13.300  13.707  0.0894 -0.7313 -0.0942
  115PROXR  H2139854  10.393  13.263  13.645  0.1336 -0.5560 -0.1369
  115PROXR   C339855  10.198  13.184  13.706 -0.0826  0.5864 -0.4339
  115PROXR  H3139856  10.157  13.168  13.603 -0.3402  1.3450 -0.4606
  115PROXR  H3239857  10.237  13.086  13.738 -1.8706 -1.5977 -4.2073
  115PROXR  H3339858  10.108  13.207  13.767 -2.4551 -2.6365 -2.3668
  116PROXS   O139859  10.353  13.340  13.838 -0.1164  0.2898 -0.0125
  116PROXS   C139860  10.421  13.241  13.914 -0.1329  0.2235  0.4661
  116PROXS  H1139861  10.351  13.174  13.969  2.9093 -3.4961  0.2184
  116PROXS  H1339862  10.492  13.185  13.852 -0.3400 -1.3009  1.5489
  116PROXS   C239863  10.517  13.320  14.015 -0.1862 -0.0897 -0.2342
  116PROXS  H2139864  10.454  13.376  14.087 -0.7793  0.4255 -1.1445
  116PROXS   C339865  10.617  13.429  13.959  0.0122  0.0507 -0.2943
  116PROXS  H3139866  10.678  13.381  13.880  1.4806  1.4127 -0.0554
  116PROXS  H3239867  10.554  13.504  13.907 -0.4075 -0.3574 -0.3746
  116PROXS  H3339868  10.686  13.472  14.035 -0.1233  2.4807 -1.4782
  117PROXS   O139869  10.596  13.224  14.088  0.7025 -0.0958  0.1095
  117PROXS   C139870  10.537  13.174  14.203  0.0272  0.1940 -0.3053
  117PROXS  H1139871  10.544  13.256  14.278  0.6889  1.3223 -1.5310
  117PROXS  H1339872  10.435  13.134  14.187  0.0107  0.2903 -0.4479
  117PROXS   C239873  10.622  13.059  14.258 -0.7456  0.2149  0.7121
  117PROXS  H2139874  10.727  13.091  14.240 -0.1964 -2.1546 -0.8291
  117PROXS   C339875  10.600  12.930  14.172  0.1391 -0.2019  0.0373
  117PROXS  H3139876  10.620  12.958  14.066  0.9816  0.1698  0.2862
  117PROXS  H3239877  10.658  12.842  14.208 -0.2692 -1.2973 -1.8595
  117PROXS  H3339878  10.494  12.897  14.171 -0.3631  1.2849  0.5682
  118PROXR   O139879  10.588  13.044  14.395 -0.1163 -0.2384  0.7004
  118PROXR   C139880  10.692  12.990  14.478  0.4090  0.2093  0.8821
  118PROXR  H1139881  10.735  12.904  14.423  1.2717  1.2921 -0.1691
  118PROXR  H1339882  10.769  13.066  14.501  1.6270 -0.9275  0.6450
  118PROXR   C239883  10.634  12.936  14.607 -0.2342  0.1069 -0.0923
  118PROXR  H2139884  10.556  12.858  14.592  0.0127 -0.4024  1.1315
  118PROXR   C339885  10.570  13.042  14.696 -0.5958  0.2291 -0.0543
  118PROXR  H3139886  10.650  13.103  14.743 -0.2974 -0.4756  0.3622
  118PROXR  H3239887  10.504  13.107  14.634  1.3204  2.9743  0.6054
  118PROXR  H3339888  10.517  13.013  14.790 -0.3094  0.7987  0.2901
  119PROXR   O139889  10.743  12.873  14.669 -0.0932 -0.0396 -0.3496
  119PROXR   C139890  10.706  12.774  14.766  0.4181  0.4076 -0.0381
  119PROXR  H1139891  10.610  12.797  14.817  0.3407  0.0638 -0.0231
  119PROXR  H1339892  10.678  12.689  14.700 -2.2125 -0.4192  1.9898
  119PROXR   C239893  10.817  12.729  14.872  0.2168  0.1833  1.1497
  119PROXR  H2139894  10.835  12.824  14.927  1.0977  1.2142 -0.8512
  119PROXR   C339895  10.935  12.689  14.788 -0.3837 -0.1515 -0.5536
  119PROXR  H3139896  11.026  12.669  14.849 -0.9378 -0.7176  0.1133
  119PROXR  H3239897  10.897  12.598  14.737 -1.9610  0.8667 -1.2602
  119PROXR  H3339898  10.960  12.753  14.701 -0.3057 -1.4161 -1.4877
  120PROXS   O139899  10.761  12.629  14.951 -0.1707  0.6447  0.3134
  120PROXS   C139900  10.836  12.603  15.073  0.1622  0.4277 -0.4883
  120PROXS  H1139901  10.940  12.578  15.044  0.7296  0.1842  1.5703
  120PROXS  H1339902  10.842  12.699  15.128  0.3016  1.1112 -1.6592
  120PROXS   C239903  10.770  12.488  15.160 -0.1805 -0.2608  0.5888
  120PROXS  H2139904  10.668  12.516  15.194 -0.1582  2.7014 -1.3578
  120PROXS   C339905  10.851  12.478  15.289  0.1574 -0.4637  0.3288
  120PROXS  H3139906  10.948  12.434  15.260 -0.2723 -0.3316 -1.4053
  120PROXS  H3239907  10.860  12.584  15.323 -2.1544  0.6480 -2.1955
  120PROXS  H3339908  10.804  12.422  15.373  0.1679  0.8720  1.2609
  121PROXS   O139909  10.766  12.369  15.086 -0.0310  0.3087 -0.6194
  121PROXS   C139910  10.678  12.274  15.148 -0.0461 -0.1532 -0.4772
  121PROXS  H1139911  10.701  12.177  15.098 -0.2766  0.1729 -1.2364
  121PROXS  H1339912  10.693  12.261  15.257  0.9863  0.1884 -0.5694
  121PROXS   C239913  10.523  12.293  15.119 -0.1803  0.3595  0.4097
  121PROXS  H2139914  10.494  12.397  15.141 -1.6684 -0.2516  1.4833
  121PROXS   C339915  10.453  12.206  15.224  0.3082  0.1129  0.2112
  121PROXS  H3139916  10.497  12.226  15.324  0.9833  1.7112 -0.3734
  121PROXS  H3239917  10.347  12.239  15.220  0.6731  1.4682  0.9085
  121PROXS  H3339918  10.459  12.098  15.199 -0.3731 -0.0725  0.8035
  122PROXS   O139919  10.484  12.257  14.984 -0.1265  0.7845 -0.3084
  122PROXS   C139920  10.520  12.347  14.878  0.0360  0.1097 -0.5727
  122PROXS  H1139921  10.518  12.456  14.903  0.1532 -0.4752  2.4543
  122PROXS  H1339922  10.629  12.341  14.858  1.0517  3.3077  2.6673
  122PROXS   C239923  10.432  12.311  14.758  0.8107 -0.4560 -0.2948
  122PROXS  H2139924  10.326  12.326  14.788 -0.4760 -2.8789 -3.1431
  122PROXS   C339925  10.447  12.161  14.711  0.1585 -0.1417 -0.0269
  122PROXS  H3139926  10.413  12.098  14.797 -0.5867  0.3859  0.0727
  122PROXS  H3239927  10.374  12.151  14.628 -1.4729  1.0671  1.2055
  122PROXS  H3339928  10.556  12.147  14.693  0.6689  1.3372  1.5569
  123PROXS   O139929  10.457  12.403  14.655  0.7919  0.2157  0.0267
  123PROXS   C139930  10.393  12.375  14.531 -0.3332  0.1333  0.1304
  123PROXS  H1139931  10.458  12.295  14.489 -0.0368 -0.5088  1.7487
  123PROXS  H1339932  10.289  12.338  14.540 -0.4750 -0.6283 -3.1097
  123PROXS   C239933  10.394  12.498  14.431  0.5041  0.5712 -0.1113
  123PROXS  H2139934  10.493  12.549  14.430 -0.7962  3.3100  0.2408
  123PROXS   C339935  10.296  12.609  14.467 -0.5211  0.8147  0.3644
  123PROXS  H3139936  10.291  12.686  14.388 -2.4763  1.1684  0.7821
  123PROXS  H3239937  10.194  12.571  14.487 -0.4581  0.1828 -0.4491
  123PROXS  H3339938  10.343  12.662  14.553 -1.7375  2.1180  0.2509
  124PROXR   O139939  10.350  12.452  14.300 -0.2783 -0.0765  0.0622
  124PROXR   C139940  10.421  12.523  14.200  0.6933  0.7537  0.4618
  124PROXR  H1139941  10.410  12.630  14.231 -0.2725  0.4164  1.3598
  124PROXR  H1339942  10.523  12.482  14.189  0.3531 -0.7160  2.2102
  124PROXR   C239943  10.344  12.501  14.068 -0.4998 -0.4960 -0.3612
  124PROXR  H2139944  10.244  12.549  14.068 -1.9048 -3.2276 -1.3058
  124PROXR   C339945  10.326  12.351  14.028  0.0650  0.0087  0.0052
  124PROXR  H3139946  10.231  12.334  13.974  0.5695 -0.3846 -0.7954
  124PROXR  H3239947  10.418  12.309  13.981  0.9212  0.7109  1.0002
  124PROXR  H3339948  10.319  12.296  14.124  1.2217  0.8077  0.5669
  125PROXS   O139949  10.426  12.567  13.972 -0.3607  0.9182  0.4491
  125PROXS   C139950  10.361  12.591  13.847  0.0861 -0.6814 -0.1101
  125PROXS  H1139951  10.383  12.503  13.782  2.0739  0.2994 -0.8377
  125PROXS  H1339952  10.251  12.597  13.863  0.0137  1.2791 -1.0240
  125PROXS   C239953  10.410  12.720  13.776 -0.2386  0.2297 -0.1281
  125PROXS  H2139954  10.517  12.711  13.748 -0.8323 -0.7419 -2.3226
  125PROXS   C339955  10.384  12.839  13.867 -0.0425  0.8155  0.0459
  125PROXS  H3139956  10.421  12.815  13.969 -1.6546 -0.9774  0.2730
  125PROXS  H3239957  10.418  12.938  13.829 -0.5745  0.1631 -2.2509
  125PROXS  H3339958  10.274  12.844  13.878 -0.0402 -0.1167  0.5419
  126PROXS   O139959  10.336  12.734  13.659  0.2271  0.5526  0.6174
  126PROXS   C139960  10.387  12.832  13.563  0.8093 -0.5405 -0.4546
  126PROXS  H1139961  10.302  12.891  13.523 -0.2137 -1.1257  0.7840
  126PROXS  H1339962  10.467  12.900  13.599  0.2601  0.2036 -0.6128
  126PROXS   C239963  10.454  12.765  13.443 -0.5143  0.7893  0.1520
  126PROXS  H2139964  10.376  12.709  13.387 -0.9761  1.3110  0.2614
  126PROXS   C339965  10.568  12.673  13.478 -0.2289  0.6561 -0.3859
  126PROXS  H3139966  10.542  12.600  13.558  1.7098 -0.0601 -0.3494
  126PROXS  H3239967  10.616  12.626  13.389  0.5555  0.9340 -0.1172
  126PROXS  H3339968  10.653  12.721  13.530 -0.4150 -0.5056  1.0690
  127PROXR   O139969  10.512  12.866  13.364  0.0351  0.0946  0.3797
  127PROXR   C139970  10.413  12.929  13.283  0.5165 -0.1975  0.2554
  127PROXR  H1139971  10.365  12.860  13.210 -2.1463  1.6336  0.1463
  127PROXR  H1339972  10.322  12.962  13.338 -1.8209  1.8317 -4.2413
  127PROXR   C239973  10.458  13.066  13.219 -1.1218 -0.3455 -0.2796
  127PROXR  H2139974  10.540  13.041  13.148  0.0333 -3.4638  1.8756
  127PROXR   C339975  10.509  13.172  13.322 -0.1326  0.0829 -0.4279
  127PROXR  H3139976  10.527  13.270  13.273 -0.5221 -1.2332 -3.4589
  127PROXR  H3239977  10.438  13.197  13.403 -0.4563  1.5098 -1.1108
  127PROXR  H3339978  10.605  13.136  13.365  0.5524 -0.9406 -2.6603
  128PROXR   O139979  10.346  13.123  13.152  0.2371 -0.2978 -0.1343
  128PROXR   C139980  10.380  13.209  13.046 -0.0448 -0.0051 -0.4330
  128PROXR  H1139981  10.438  13.297  13.081  1.4096 -0.1573 -2.3144
  128PROXR  H1339982  10.431  13.149  12.968 -3.2939 -0.8704 -2.0864
  128PROXR   C239983  10.245  13.263  12.970  0.1113  0.1153 -0.0510
  128PROXR  H2139984  10.166  13.289  13.044 -0.2208  0.1196 -0.4018
  128PROXR   C339985  10.190  13.164  12.857  0.2854 -0.3117  0.3525
  128PROXR  H3139986  10.169  13.060  12.891  0.5463 -0.1530  1.0181
  128PROXR  H3239987  10.094  13.207  12.821  1.2685  1.4269 -0.3493
  128PROXR  H3339988  10.265  13.157  12.775 -0.1496  2.2810 -0.3528
  129PROXS   O139989  10.273  13.379  12.890  0.3447 -0.5932  0.0934
  129PROXS   C139990  10.263  13.494  12.976 -0.4806 -0.0537  0.1737
  129PROXS  H1139991  10.159  13.532  12.961 -0.3134  0.0979 -0.6925
  129PROXS  H1339992  10.262  13.473  13.085 -0.7402  0.7570  0.3350
  129PROXS   C239993  10.370  13.594  12.940  0.0955  0.2271 -0.3581
  129PROXS  H2139994  10.371  13.617  12.832 -2.8993  2.4551 -0.0399
  129PROXS   C339995  10.507  13.548  12.989  0.7553  0.3959  0.2552
  129PROXS  H3139996  10.583  13.625  12.967  1.4007 -0.0172  0.9902
  129PROXS  H3239997  10.499  13.546  13.100 -1.7877  0.4227  0.1359
  129PROXS  H3339998  10.525  13.450  12.939 -1.6562  0.0772 -0.1155
  130PROXS   O139999  10.340  13.715  13.002 -0.1906 -0.5294  0.1308
  130PROXS   C140000  10.238  13.797  12.941  0.0640  0.2933  0.3896
  130PROXS  H1140001  10.249  13.783  12.831 -1.1136 -3.1100  0.5699
  130PROXS  H1340002  10.135  13.768  12.968  0.3106  1.4668  2.8753
  130PROXS   C240003  10.265  13.941  12.989 -0.2362  0.4184  0.4517
  130PROXS  H2140004  10.369  13.970  12.964  0.1728 -1.3094 -0.0030
  130PROXS   C340005  10.225  13.952  13.133 -0.0203 -0.2821 -0.0393
  130PROXS  H3140006  10.118  13.924  13.142 -0.4422  0.6939 -1.6621
  130PROXS  H3240007  10.284  13.879  13.192 -0.9618 -1.5246 -0.5844
  130PROXS  H3340008  10.222  14.054  13.175 -1.7435 -0.1555 -0.4013
  131PROXS   O140009  10.180  14.039  12.931  0.5006  0.6113  0.2091
  131PROXS   C140010  10.225  14.092  12.806  0.0285  0.4219 -0.8658
  131PROXS  H1140011  10.313  14.160  12.813  2.0104 -1.9431 -1.5293
  131PROXS  H1340012  10.255  14.007  12.741 -1.7785  0.1828 -1.4212
  131PROXS   C240013  10.107  14.168  12.741 -0.0290  0.2922  0.1117
  131PROXS  H2140014  10.069  14.243  12.814 -0.7767 -0.3102  0.3556
  131PROXS   C340015   9.989  14.071  12.721 -0.2878  1.0646  0.3097
  131PROXS  H3140016  10.030  13.990  12.658  0.6780 -0.5108  2.8287
  131PROXS  H3240017   9.959  14.028  12.818 -4.5908  0.6015 -1.0121
  131PROXS  H3340018   9.901  14.120  12.674  0.2374  1.3982 -0.3586
  132PROXS   O140019  10.142  14.226  12.616  0.0400  0.0262 -0.2008
  132PROXS   C140020  10.211  14.348  12.618 -0.2553  0.2842 -0.2099
  132PROXS  H1140021  10.191  14.398  12.715 -0.7737  1.8951 -1.1117
  132PROXS  H1340022  10.316  14.320  12.594 -0.7021 -0.8199 -0.9713
  132PROXS   C240023  10.167  14.455  12.519 -0.1420 -0.4310  0.1122
  132PROXS  H2140024  10.062  14.484  12.537  0.5067  1.7963  0.5564
  132PROXS   C340025  10.176  14.396  12.373  0.6798 -0.0147 -0.9288
  132PROXS  H3140026  10.177  14.475  12.295  0.4461  1.3871  0.4412
  132PROXS  H3240027  10.269  14.335  12.374 -0.6238 -2.1837  1.5292
  132PROXS  H3340028  10.097  14.322  12.349  1.0074 -1.0553  1.0430
  133PROXS   O140029  10.249  14.568  12.529  0.2091  0.0483  0.5825
  133PROXS   C140030  10.207  14.674  12.614  0.1230  0.3323 -0.1062
  133PROXS  H1140031  10.119  14.725  12.570  0.9833  0.9790 -1.1423
  133PROXS  H1340032  10.166  14.630  12.708 -0.1873 -3.3522 -1.7722
  133PROXS   C240033  10.320  14.771  12.634 -0.1072  0.1304  0.0182
  133PROXS  H2140034  10.341  14.820  12.537 -1.0384 -0.2703 -0.3933
  133PROXS   C340035  10.448  14.709  12.697 -0.1583 -0.1873 -0.6891
  133PROXS  H3140036  10.424  14.644  12.784 -0.1130  0.3625 -0.2602
  133PROXS  H3240037  10.504  14.642  12.628 -0.2161 -1.3617  0.3588
  133PROXS  H3340038  10.523  14.783  12.732 -1.4522  0.0715  1.7504
  134PROXS   O140039  10.283  14.876  12.727  0.4747 -0.1408  0.5161
  134PROXS   C140040  10.209  14.975  12.652 -0.1947  0.0380 -0.2707
  134PROXS  H1140041  10.288  15.007  12.581  0.7352  1.6374  1.4097
  134PROXS  H1340042  10.114  14.939  12.607  0.3067 -0.2673 -1.1233
  134PROXS   C240043  10.173  15.094  12.749  0.0652  0.1336  0.9855
  134PROXS  H2140044  10.269  15.123  12.798  0.4202 -1.7765  1.5214
  134PROXS   C340045  10.071  15.043  12.854 -0.2840 -0.0407  0.0545
  134PROXS  H3140046  10.043  15.119  12.929  2.5528  0.4998  0.6715
  134PROXS  H3240047   9.978  15.012  12.802  0.3203 -0.7942 -0.6048
  134PROXS  H3340048  10.108  14.956  12.913  0.2312 -0.6043 -1.0742
  135PROXS   O140049  10.130  15.202  12.666  0.7863  0.1218  0.3763
  135PROXS   C140050  10.159  15.328  12.723  0.0199  0.3992  0.0722
  135PROXS  H1140051  10.094  15.354  12.809 -0.3871  0.1407 -0.1528
  135PROXS  H1340052  10.266  15.343  12.751  0.8210 -1.0467 -1.9104
  135PROXS   C240053  10.136  15.441  12.621 -0.5487 -0.3560 -0.1641
  135PROXS  H2140054  10.029  15.446  12.589 -0.9577  1.4053  1.3253
  135PROXS   C340055  10.220  15.441  12.489  0.1134  0.6415  0.5427
  135PROXS  H3140056  10.210  15.349  12.428 -1.1762  0.2645  1.2773
  135PROXS  H3240057  10.172  15.520  12.428 -0.4191 -0.2929 -0.2955
  135PROXS  H3340058  10.324  15.473  12.510  0.7918 -1.0334 -0.0609
  136PROXS   O140059  10.172  15.563  12.688  0.0017 -0.1395  0.1549
  136PROXS   C140060  10.063  15.630  12.754  0.2225  0.2392 -0.4745
  136PROXS  H1140061   9.986  15.658  12.679 -0.4857  1.9323  0.8258
  136PROXS  H1340062  10.014  15.567  12.831  0.3075  1.7604  0.8711
  136PROXS   C240063  10.126  15.750  12.829  0.3507  1.0602  0.6253
  136PROXS  H2140064  10.180  15.810  12.753  0.0417  0.3229 -0.1888
  136PROXS   C340065  10.234  15.704  12.932 -0.5094 -0.0487  0.0036
  136PROXS  H3140066  10.312  15.644  12.880 -0.9222 -0.3767 -0.2479
  136PROXS  H3240067  10.290  15.795  12.962  0.9757 -0.6574 -0.8524
  136PROXS  H3340068  10.189  15.639  13.010 -2.8373 -0.2665 -1.3987
  137PROXS   O140069  10.015  15.822  12.886  0.2402  0.1092  0.3561
  137PROXS   C140070  10.050  15.936  12.958 -0.8276 -0.9962  0.4051
  137PROXS  H1140071  10.147  15.930  13.013 -1.3816  0.2634  1.5853
  137PROXS  H1340072  10.069  16.009  12.876 -1.7188 -2.1958 -0.9277
  137PROXS   C240073   9.938  15.998  13.043 -0.0354  0.3805  0.4740
  137PROXS  H2140074   9.919  15.926  13.126  0.6130  1.3802  1.5156
  137PROXS   C340075   9.808  16.025  12.967 -0.6633  0.1629  0.4800
  137PROXS  H3140076   9.823  16.112  12.899 -0.0339 -0.9155 -0.7988
  137PROXS  H3240077   9.776  15.937  12.908 -0.9174 -0.1688  1.1055
  137PROXS  H3340078   9.724  16.040  13.039 -1.4004 -0.9408 -0.1184
  138PROXR   O140079   9.986  16.123  13.093 -0.2558  1.1567 -0.1191
  138PROXR   C140080  10.087  16.111  13.199 -0.3822 -0.1271  0.1934
  138PROXR  H1140081  10.045  16.052  13.283  0.8792  0.8215  1.5488
  138PROXR  H1340082  10.186  16.072  13.167  0.6785  0.8726  2.1053
  138PROXR   C240083  10.116  16.258  13.257 -0.0434  0.2448  0.2311
  138PROXR  H2140084  10.025  16.300  13.306  1.1294  0.8416  1.9800
  138PROXR   C340085  10.187  16.343  13.139  0.1939 -0.2083 -0.1425
  138PROXR  H3140086  10.131  16.340  13.043 -1.6850 -2.1433  0.9111
  138PROXR  H3240087  10.194  16.446  13.179  0.1029 -1.1041  2.3669
  138PROXR  H3340088  10.292  16.312  13.126 -0.3512 -1.6867 -1.2847
  139PROXS   O140089  10.226  16.253  13.348 -0.0493 -0.4527  0.4222
  139PROXS   C140090  10.208  16.174  13.466 -0.0498  0.4507  0.6339
  139PROXS  H1140091  10.106  16.184  13.509 -0.8888 -0.2549 -1.0989
  139PROXS  H1340092  10.214  16.067  13.437 -1.6319  0.3756  0.5182
  139PROXS   C240093  10.318  16.211  13.564 -0.2567 -0.4541 -0.0757
  139PROXS  H2140094  10.299  16.317  13.591  2.1245  0.0545 -0.2123
  139PROXS   C340095  10.453  16.194  13.497  0.4225 -0.1767  0.2325
  139PROXS  H3140096  10.491  16.090  13.489 -0.7285 -0.5802 -0.2190
  139PROXS  H3240097  10.454  16.235  13.394 -1.3998 -0.7134 -0.0343
  139PROXS  H3340098  10.540  16.234  13.552  1.1069 -1.2530 -0.0393
  140PROXR   O140099  10.307  16.131  13.678  0.1821 -0.1330  0.1403
  140PROXR   C140100  10.391  16.181  13.786  0.8707  0.1283  0.0086
  140PROXR  H1140101  10.497  16.171  13.753  0.5874 -1.6918 -0.4691
  140PROXR  H1340102  10.367  16.283  13.821  2.7236  0.7861 -0.4982
  140PROXR   C240103  10.362  16.087  13.906  0.4312 -0.2844  0.1230
  140PROXR  H2140104  10.380  15.990  13.855 -0.8555 -1.0183  1.0119
  140PROXR   C340105  10.221  16.102  13.952  0.0355  0.4716 -0.3360
  140PROXR  H3140106  10.208  16.206  13.989  3.8702  0.3009  2.0177
  140PROXR  H3240107  10.150  16.069  13.872 -0.6228 -1.3921  0.9567
  140PROXR  H3340108  10.202  16.038  14.041  0.4760 -1.9029 -1.8403
  141PROXS   O140109  10.452  16.117  14.013 -0.1763 -0.1461 -0.3072
  141PROXS   C140110  10.578  16.043  14.008 -0.1868 -0.3789  0.6549
  141PROXS  H1140111  10.557  15.935  14.001  0.9539 -0.5079 -1.5272
  141PROXS  H1340112  10.637  16.064  13.916  1.0013 -0.3080  1.4071
  141PROXS   C240113  10.652  16.080  14.137 -0.1646 -0.0048 -0.3569
  141PROXS  H2140114  10.586  16.060  14.224 -1.5662  1.2177 -1.1073
  141PROXS   C340115  10.682  16.229  14.133 -0.1756  0.2742 -0.4618
  141PROXS  H3140116  10.739  16.270  14.220 -0.5258  0.7173 -0.4338
  141PROXS  H3240117  10.749  16.251  14.047  1.5217 -1.9304  0.2099
  141PROXS  H3340118  10.589  16.286  14.114 -1.8528 -1.9532  0.5891
  142PROXS   O140119  10.772  15.999  14.137 -0.3269 -0.2708  0.4398
  142PROXS   C140120  10.837  15.985  14.261  0.0547  0.4514  0.4886
  142PROXS  H1140121  10.861  16.080  14.313  3.8331 -0.3094  0.4230
  142PROXS  H1340122  10.778  15.922  14.331  2.3023 -0.8854  1.3034
  142PROXS   C240123  10.969  15.916  14.230 -0.2732 -0.1033 -0.0825
  142PROXS  H2140124  11.030  15.980  14.162  2.0011 -1.7169  0.3100
  142PROXS   C340125  10.940  15.777  14.162  0.4205 -0.9498 -0.1309
  142PROXS  H3140126  11.027  15.708  14.164 -0.3186 -1.9081 -0.5483
  142PROXS  H3240127  10.860  15.731  14.225 -0.8229 -0.6753 -1.4550
  142PROXS  H3340128  10.897  15.795  14.062 -0.7888 -0.8890  0.3832
  143PROXS   O140129  11.045  15.893  14.350 -0.0423 -0.3092 -0.3478
  143PROXS   C140130  11.187  15.870  14.329  0.0837  0.8769  0.5387
  143PROXS  H1140131  11.200  15.789  14.254  3.3828  1.2259  0.6051
  143PROXS  H1340132  11.212  15.970  14.286  0.3846  0.5723 -0.0083
  143PROXS   C240133  11.275  15.874  14.454 -0.1859  0.0722  0.0527
  143PROXS  H2140134  11.252  15.960  14.520  0.6220  0.1681  0.2172
  143PROXS   C340135  11.417  15.868  14.415 -0.7996  0.1267 -0.2714
  143PROXS  H3140136  11.491  15.881  14.497 -0.7757 -0.8276 -0.1279
  143PROXS  H3240137  11.449  15.777  14.359 -0.9956 -0.9275  1.2652
  143PROXS  H3340138  11.444  15.948  14.343  1.1037 -0.1406  0.0807
  144PROXS   O140139  11.235  15.759  14.526  0.4549  0.2567 -0.5782
  144PROXS   C140140  11.316  15.733  14.643 -0.2151 -0.5398  0.3799
  144PROXS  H1140141  11.417  15.698  14.616  0.8588 -0.1393  3.5026
  144PROXS  H1340142  11.317  15.826  14.703 -1.2294 -1.1700  1.4327
  144PROXS   C240143  11.243  15.635  14.734 -0.7354  0.2462 -0.4480
  144PROXS  H2140144  11.145  15.679  14.763 -2.4474 -3.8158  0.5922
  144PROXS   C340145  11.319  15.624  14.860  0.5362 -0.0658  0.1897
  144PROXS  H3140146  11.330  15.725  14.904  1.8904 -0.0212 -0.2027
  144PROXS  H3240147  11.282  15.547  14.931  0.3222 -0.6080 -0.4976
  144PROXS  H3340148  11.427  15.614  14.835  0.1270 -0.2309 -1.6705
  145PROXR   O140149  11.236  15.504  14.680 -0.6513  0.3163 -0.3786
  145PROXR   C140150  11.134  15.484  14.587  0.1418 -0.0621  0.9082
  145PROXR  H1140151  11.056  15.560  14.609  1.2325  0.7227  2.2281
  145PROXR  H1340152  11.177  15.501  14.486  0.2845 -0.3227  0.9231
  145PROXR   C240153  11.072  15.344  14.583  0.5270 -0.7149  0.0430
  145PROXR  H2140154  11.030  15.337  14.685  0.4832 -1.0172  0.0070
  145PROXR   C340155  11.170  15.225  14.562  0.1966 -0.4255  0.3891
  145PROXR  H3140156  11.123  15.125  14.552  1.1224 -0.7150 -1.3900
  145PROXR  H3240157  11.224  15.239  14.466  0.1009 -0.0877  0.3832
  145PROXR  H3340158  11.249  15.230  14.640  1.1220 -2.1192 -0.3843
  146PROXS   O140159  10.975  15.339  14.480  0.1188  0.0481 -0.4823
  146PROXS   C140160  10.873  15.251  14.509 -0.4094 -0.1606 -0.1694
  146PROXS  H1140161  10.894  15.143  14.520 -0.3965 -0.0711  0.7458
  146PROXS  H1340162  10.832  15.284  14.607 -0.0471  1.2163 -0.4581
  146PROXS   C240163  10.753  15.272  14.408  0.2613  0.7480 -0.2775
  146PROXS  H2140164  10.795  15.255  14.306  0.4362  1.0292 -0.2534
  146PROXS   C340165  10.700  15.410  14.416  0.2844  0.2122 -0.6166
  146PROXS  H3140166  10.661  15.428  14.518  0.1487  0.3211 -0.6880
  146PROXS  H3240167  10.773  15.486  14.381 -0.3518  1.2546  0.2576
  146PROXS  H3340168  10.621  15.430  14.341  0.4633 -0.8401 -1.1108
  147PROXR   O140169  10.649  15.178  14.423  0.1117  0.2066 -0.3784
  147PROXR   C140170  10.682  15.045  14.378  0.2841 -0.0237  0.2722
  147PROXR  H1140171  10.650  15.039  14.272 -2.0159  1.1629  0.8359
  147PROXR  H1340172  10.792  15.026  14.385  0.9767  2.9750 -0.8540
  147PROXR   C240173  10.598  14.932  14.441  0.4917 -0.2764 -0.4053
  147PROXR  H2140174  10.494  14.966  14.427  1.1901  1.5279 -1.6347
  147PROXR   C340175  10.627  14.918  14.585 -0.3358 -0.4619 -0.1387
  147PROXR  H3140176  10.563  14.836  14.624  0.7724 -0.1400  2.5404
  147PROXR  H3240177  10.735  14.898  14.603 -0.3061  1.2003  1.7995
  147PROXR  H3340178  10.600  15.012  14.637  0.5957 -0.5495  0.5180
  148PROXR   O140179  10.613  14.819  14.368 -0.0963 -0.0836 -0.0408
  148PROXR   C140180  10.506  14.733  14.352 -0.3338 -0.2700  0.1974
  148PROXR  H1140181  10.489  14.664  14.437  0.7987  0.7456  1.2890
  148PROXR  H1340182  10.411  14.787  14.330 -0.4416 -0.7068 -0.4391
  148PROXR   C240183  10.519  14.629  14.233  0.1533  0.3305  0.1339
  148PROXR  H2140184  10.603  14.562  14.259 -0.3873  0.3255  2.0409
  148PROXR   C340185  10.527  14.697  14.104  0.3548  0.5761 -0.3032
  148PROXR  H3140186  10.632  14.733  14.092  0.8171 -1.0356 -1.3770
  148PROXR  H3240187  10.508  14.621  14.025  1.0576  0.9009 -0.7979
  148PROXR  H3340188  10.469  14.790  14.086 -1.3897 -0.6471 -1.2665
  149PROXR   O140189  10.397  14.547  14.237 -0.6400  0.1133 -0.1435
  149PROXR   C140190  10.427  14.418  14.177 -0.2885  0.4355  1.0591
  149PROXR  H1140191  10.500  14.417  14.093  0.0773 -0.6417  1.3779
  149PROXR  H1340192  10.483  14.369  14.259 -0.6656  2.1358  2.4008
  149PROXR   C240193  10.307  14.328  14.125 -0.6237 -1.0747  0.6575
  149PROXR  H2140194  10.214  14.337  14.187 -1.4292 -0.1466 -0.6399
  149PROXR   C340195  10.359  14.188  14.111 -0.0274 -0.0207  0.3619
  149PROXR  H3140196  10.462  14.192  14.070  0.4793  2.6341  1.6853
  149PROXR  H3240197  10.357  14.136  14.209  4.3782 -0.2399  0.5368
  149PROXR  H3340198  10.294  14.136  14.038  0.5260 -1.0425  0.5825
  150PROXS   O140199  10.272  14.359  13.985  0.3464 -0.2058 -0.0585
  150PROXS   C140200  10.189  14.474  13.975 -0.9512  0.5044 -0.4168
  150PROXS  H1140201  10.121  14.482  14.062  0.5959  2.6220  0.7072
  150PROXS  H1340202  10.253  14.563  13.991 -1.3357  0.6563  0.2767
  150PROXS   C240203  10.104  14.480  13.847  0.5773  0.2005  0.1927
  150PROXS  H2140204  10.024  14.403  13.845  1.6145 -0.8995 -0.5783
  150PROXS   C340205  10.181  14.470  13.712  0.4411  0.0452 -0.1834
  150PROXS  H3140206  10.249  14.557  13.714  1.5039 -0.5293 -3.7840
  150PROXS  H3240207  10.243  14.377  13.711 -0.2262 -0.4084 -0.1819
  150PROXS  H3340208  10.111  14.471  13.626  0.1645 -0.0873  0.0395
  151PROXR   O140209  10.041  14.614  13.841  0.0851  0.0641  0.4347
  151PROXR   C140210   9.911  14.604  13.781  0.1732 -0.7157 -0.7483
  151PROXR  H1140211   9.934  14.628  13.674  3.4075  0.6895  0.1338
  151PROXR  H1340212   9.860  14.506  13.777  2.0986 -1.8042 -0.0623
  151PROXR   C240213   9.819  14.723  13.827  0.5051 -0.0158 -0.6612
  151PROXR  H2140214   9.875  14.809  13.784  2.6293 -0.1898  1.5150
  151PROXR   C340215   9.807  14.747  13.978 -0.2821 -0.4521  0.1734
  151PROXR  H3140216   9.750  14.840  13.999 -0.1943 -0.1788 -0.7588
  151PROXR  H3240217   9.758  14.663  14.032  0.2430 -0.5250  0.5466
  151PROXR  H3340218   9.908  14.765  14.020  0.5815 -0.5361 -1.7705
  152PROXR   O140219   9.692  14.713  13.765  0.0377  0.0253 -0.1556
  152PROXR   C140220   9.612  14.824  13.795  0.0910 -0.1736 -0.0157
  152PROXR  H1140221   9.540  14.807  13.878  1.1764  1.8729  1.4057
  152PROXR  H1340222   9.680  14.907  13.824  2.4983 -1.8226 -0.6361
  152PROXR   C240223   9.517  14.861  13.675  0.0559  0.2597  0.4567
  152PROXR  H2140224   9.582  14.855  13.585 -1.1028 -0.7784 -0.3493
  152PROXR   C340225   9.463  15.008  13.691  0.1328  0.2957 -0.4116
  152PROXR  H3140226   9.548  15.061  13.739  0.6839  0.0935 -1.1573
  152PROXR  H3240227   9.434  15.057  13.596  0.0419  0.8362 -0.1092
  152PROXR  H3340228   9.373  15.010  13.757  1.3276  1.1046  1.2695
  153PROXR   O140229   9.400  14.780  13.666 -0.1914 -0.0724 -0.0810
  153PROXR   C140230   9.412  14.642  13.625 -0.1168 -0.0178  1.0859
  153PROXR  H1140231   9.470  14.646  13.530 -1.3909 -0.0612  0.2618
  153PROXR  H1340232   9.474  14.581  13.693 -1.6059 -1.6277  1.0984
  153PROXR   C240233   9.265  14.586  13.597 -0.0170 -0.4904 -0.4552
  153PROXR  H2140234   9.205  14.675  13.567 -0.8007 -0.9318 -0.1992
  153PROXR   C340235   9.202  14.523  13.718 -0.3560  0.1989  0.9418
  153PROXR  H3140236   9.199  14.583  13.811 -0.3133  1.3603  0.2037
  153PROXR  H3240237   9.111  14.465  13.689  0.9248 -0.3355 -2.5714
  153PROXR  H3340238   9.280  14.448  13.745  0.4437  0.1425 -1.3152
  154PROXS   O140239   9.267  14.484  13.498 -0.3113  0.1904  0.4354
  154PROXS   C140240   9.234  14.530  13.368  0.4499  0.4372  0.5157
  154PROXS  H1140241   9.148  14.598  13.386 -0.1863 -0.8330  2.6288
  154PROXS  H1340242   9.320  14.589  13.329  1.2746 -1.3070 -0.4558
  154PROXS   C240243   9.188  14.412  13.278  0.1857 -0.1719  0.6938
  154PROXS  H2140244   9.091  14.383  13.323  0.9339  0.7538  3.0687
  154PROXS   C340245   9.268  14.281  13.282 -0.1004  0.5272  0.2508
  154PROXS  H3140246   9.282  14.245  13.387  0.2302 -0.5970 -0.1619
  154PROXS  H3240247   9.212  14.199  13.232  2.2044 -0.5203 -0.7325
  154PROXS  H3340248   9.367  14.294  13.233 -0.6353  2.2578 -0.4584
  155PROXR   O140249   9.179  14.458  13.140 -0.1372  0.4203  0.8992
  155PROXR   C140250   9.062  14.532  13.120 -0.2242 -0.5221  0.0328
  155PROXR  H1140251   8.974  14.478  13.159 -1.1477  2.1962  2.0591
  155PROXR  H1340252   9.069  14.627  13.178  0.3744 -1.0403  0.8237
  155PROXR   C240253   9.040  14.571  12.973 -0.1340  0.0042  0.7427
  155PROXR  H2140254   9.047  14.473  12.921  2.2662  0.2167  0.5431
  155PROXR   C340255   9.143  14.672  12.910 -0.0436  0.4813  0.3597
  155PROXR  H3140256   9.132  14.771  12.958 -3.3004 -0.4045  1.7611
  155PROXR  H3240257   9.244  14.637  12.939  0.5320  2.6918  1.2171
  155PROXR  H3340258   9.137  14.679  12.800  1.1617 -1.0711  0.1543
  156PROXS   O140259   8.903  14.617  12.964 -0.2139  0.1330  0.5769
  156PROXS   C140260   8.838  14.612  12.836  0.3471  0.1117 -0.1894
  156PROXS  H1140261   8.889  14.679  12.764 -0.7459  0.5115 -0.6202
  156PROXS  H1340262   8.837  14.511  12.790 -0.4243  0.9071 -2.0349
  156PROXS   C240263   8.691  14.661  12.850 -0.3181  0.5736  0.0176
  156PROXS  H2140264   8.638  14.579  12.902 -1.3527  0.1511 -1.6046
  156PROXS   C340265   8.625  14.675  12.704 -0.0133  0.1857 -0.6606
  156PROXS  H3140266   8.514  14.675  12.708  0.0086  1.4795  1.2115
  156PROXS  H3240267   8.660  14.758  12.639 -0.2023 -1.1405 -2.5356
  156PROXS  H3340268   8.658  14.579  12.660  1.4421 -1.3068  3.2114
  157PROXS   O140269   8.698  14.785  12.916 -0.2349 -0.3055 -0.0468
  157PROXS   C140270   8.598  14.805  13.012  0.4655 -0.8684  0.0222
  157PROXS  H1140271   8.564  14.910  13.024 -0.3101 -1.0340 -0.6241
  157PROXS  H1340272   8.505  14.751  12.982 -0.9318  0.7645  1.2613
  157PROXS   C240273   8.648  14.760  13.151  0.7887  0.1365 -0.3694
  157PROXS  H2140274   8.691  14.660  13.126 -2.5896 -1.3944 -0.6179
  157PROXS   C340275   8.535  14.739  13.253  0.7673 -0.5940 -0.0309
  157PROXS  H3140276   8.476  14.649  13.224  0.6136  0.1142 -2.1061
  157PROXS  H3240277   8.587  14.718  13.348  1.1004  2.3321  0.5314
  157PROXS  H3340278   8.476  14.833  13.247  0.8912 -0.5777 -1.6754
  158PROXR   O140279   8.734  14.856  13.214 -0.0809  0.0155 -0.1543
  158PROXR   C140280   8.868  14.848  13.170 -0.1972 -0.2942  0.3660
  158PROXR  H1140281   8.904  14.749  13.206 -3.8039 -1.4806  1.1962
  158PROXR  H1340282   8.872  14.859  13.059 -0.0262  1.8872  0.5510
  158PROXR   C240283   8.944  14.971  13.223 -0.0148 -0.2710 -0.1058
  158PROXR  H2140284   8.906  14.980  13.327 -0.2452 -1.0226 -0.1204
  158PROXR   C340285   8.909  15.100  13.146 -0.2692 -0.0028 -0.6888
  158PROXR  H3140286   8.947  15.106  13.042 -1.9853  0.2642 -1.3227
  158PROXR  H3240287   8.798  15.098  13.136 -0.4098  0.5757  0.4942
  158PROXR  H3340288   8.934  15.192  13.203 -1.5565 -1.0296  1.7027
  159PROXR   O140289   9.086  14.946  13.215 -0.4017 -0.3589  0.3621
  159PROXR   C140290   9.160  15.059  13.253 -0.6319 -0.9484  0.1065
  159PROXR  H1140291   9.161  15.135  13.172  1.1666 -0.2564  0.7215
  159PROXR  H1340292   9.124  15.083  13.356 -0.4252 -2.3608  0.5413
  159PROXR   C240293   9.306  15.012  13.277 -0.5113 -0.0131  0.0556
  159PROXR  H2140294   9.348  14.979  13.180 -0.4900  1.4060 -0.4376
  159PROXR   C340295   9.311  14.887  13.372 -0.4208  0.3335  0.0410
  159PROXR  H3140296   9.244  14.808  13.333 -1.0059  0.6642  0.3645
  159PROXR  H3240297   9.419  14.863  13.387 -0.5723 -0.1576  0.3704
  159PROXR  H3340298   9.274  14.919  13.472  0.2203  0.8579  0.1170
  160PROXS   O140299   9.382  15.115  13.339 -0.0921 -0.8378 -0.1269
  160PROXS   C140300   9.418  15.217  13.245 -0.1663 -0.6087 -0.3594
  160PROXS  H1140301   9.487  15.167  13.173 -1.2945 -3.8874  0.6369
  160PROXS  H1340302   9.324  15.265  13.211 -0.7218 -1.4041  0.0349
  160PROXS   C240303   9.489  15.333  13.314  0.2092 -0.7868 -0.0466
  160PROXS  H2140304   9.435  15.366  13.405  0.3931 -3.6416  1.2105
  160PROXS   C340305   9.517  15.446  13.215  1.2943  0.1202  0.1733
  160PROXS  H3140306   9.576  15.406  13.129 -0.6005 -2.2112 -0.1774
  160PROXS  H3240307   9.425  15.496  13.178  2.4357  2.4954  0.4274
  160PROXS  H3340308   9.578  15.520  13.269  0.7191 -0.8341  2.2365
  161PROXR   O140309   9.614  15.278  13.353 -0.8142  0.1776 -0.1349
  161PROXR   C140310   9.675  15.328  13.473  0.5360  0.2009  0.5035
  161PROXR  H1140311   9.674  15.439  13.466 -0.7996  0.2194  0.5780
  161PROXR  H1340312   9.614  15.305  13.563  1.9148 -0.8550  1.1930
  161PROXR   C240313   9.811  15.261  13.496  0.0298  0.1160  0.4550
  161PROXR  H2140314   9.889  15.295  13.425  0.3827 -0.5765  0.5028
  161PROXR   C340315   9.804  15.105  13.495  0.3082 -0.5980 -0.3403
  161PROXR  H3140316   9.738  15.073  13.579  0.4845  0.7278  0.3270
  161PROXR  H3240317   9.759  15.062  13.403 -0.4510 -0.3246 -0.1088
  161PROXR  H3340318   9.897  15.054  13.526  2.5814  2.2793 -1.9909
  162PROXR   O140319   9.868  15.294  13.621 -0.0853  0.6663  0.1970
  162PROXR   C140320   9.909  15.434  13.640  0.1254  0.1062 -0.1613
  162PROXR  H1140321   9.927  15.488  13.544  2.0019  0.6602  0.4532
  162PROXR  H1340322   9.821  15.492  13.675  1.9732  2.0985  1.5489
  162PROXR   C240323  10.026  15.457  13.731  0.2046  0.0472 -0.5028
  162PROXR  H2140324  10.113  15.406  13.684 -1.0595 -1.8635 -0.8659
  162PROXR   C340325   9.993  15.393  13.878 -0.3431  0.5114  0.1887
  162PROXR  H3140326   9.988  15.283  13.866  0.7900  0.4003  0.5231
  162PROXR  H3240327  10.074  15.416  13.951 -0.6737  1.6523  0.2148
  162PROXR  H3340328   9.903  15.442  13.920  0.0304 -1.8414  4.2208
  163PROXS   O140329  10.051  15.595  13.736  0.2089  0.2243 -0.0207
  163PROXS   C140330  10.141  15.645  13.639  0.3710  0.4217 -0.4816
  163PROXS  H1140331  10.209  15.567  13.598  1.9238  1.7525 -0.5346
  163PROXS  H1340332  10.077  15.692  13.562 -0.1875 -0.7293 -0.7439
  163PROXS   C240333  10.232  15.756  13.689  0.0258  0.2993  0.0108
  163PROXS  H2140334  10.171  15.833  13.742 -1.8983 -1.0291 -0.1827
  163PROXS   C340335  10.314  15.812  13.582 -0.0973 -0.4599 -0.2293
  163PROXS  H3140336  10.251  15.848  13.498 -0.2475  1.1123  0.5275
  163PROXS  H3240337  10.384  15.891  13.618 -1.5754  1.2962 -1.0422
  163PROXS  H3340338  10.377  15.730  13.540 -0.2074  0.3113 -1.9681
  164PROXR   O140339  10.325  15.706  13.784 -0.2411  0.3183  0.2158
  164PROXR   C140340  10.275  15.727  13.917  0.1297 -0.1326 -0.4622
  164PROXR  H1140341  10.278  15.832  13.951  1.6322 -0.2617 -0.1208
  164PROXR  H1340342  10.170  15.692  13.931 -0.0451  0.8481  0.9312
  164PROXR   C240343  10.364  15.637  14.017  0.1722 -0.3195  0.1899
  164PROXR  H2140344  10.464  15.687  14.016 -0.5614  1.1815 -0.8897
  164PROXR   C340345  10.386  15.490  13.975 -0.2739 -0.3246 -0.1759
  164PROXR  H3140346  10.435  15.487  13.875 -0.5313 -2.2133 -0.2956
  164PROXR  H3240347  10.451  15.436  14.047 -1.5258  0.3125  1.4799
  164PROXR  H3340348  10.290  15.434  13.968  1.1505 -3.0671  0.5062
  165PROXR   O140349  10.322  15.659  14.153  0.2373 -0.2566 -0.4335
  165PROXR   C140350  10.402  15.607  14.258  0.1024  0.5230  0.3387
  165PROXR  H1140351  10.393  15.497  14.274  3.0172  0.1663  0.0443
  165PROXR  H1340352  10.509  15.629  14.240 -0.0686  0.3020 -1.0625
  165PROXR   C240353  10.370  15.681  14.390 -1.7249  0.0765  0.1169
  165PROXR  H2140354  10.267  15.662  14.429 -2.1758  2.0042 -0.0280
  165PROXR   C340355  10.382  15.834  14.363  0.7076  0.7723 -0.4154
  165PROXR  H3140356  10.311  15.889  14.430  0.7685  1.1462 -0.6548
  165PROXR  H3240357  10.486  15.871  14.370  1.1747 -0.7342  1.1184
  165PROXR  H3340358  10.346  15.856  14.260  2.3567  2.9557 -0.6084
  166ETHOX   O140359  10.459  15.636  14.485  0.2662  0.0424 -0.5088
  166ETHOX   C140360  10.439  15.696  14.614 -0.6155  0.1548 -0.0792
  166ETHOX  H1140361  10.333  15.683  14.644 -1.0443 -0.0979 -1.6264
  166ETHOX  H1340362  10.465  15.803  14.599 -2.0327  0.5624  0.2284
  166ETHOX   C240363  10.545  15.642  14.729 -0.0949  0.8537  0.0336
  166ETHOX  H2140364  10.546  15.531  14.720 -0.4960  0.4396  3.4690
  166ETHOX  H2340365  10.486  15.650  14.824  1.8585 -0.9386  1.5001
  167ETHOX   O140366  10.671  15.710  14.746  0.4689 -0.4218 -0.1229
  167ETHOX   C140367  10.747  15.699  14.621  0.0877  0.1848 -0.0335
  167ETHOX  H1140368  10.772  15.592  14.599 -1.9864 -0.4248  0.4137
  167ETHOX  H1340369  10.688  15.736  14.534 -0.2033  1.1792  0.5705
  167ETHOX   C240370  10.874  15.775  14.638  0.4699 -0.5943 -0.4813
  167ETHOX  H2140371  10.937  15.776  14.546  0.5454  0.5802 -0.4420
  167ETHOX  H2340372  10.934  15.739  14.724 -0.4844  1.6187  1.2193
  168ETHOX   O140373  10.843  15.912  14.673 -0.0176  0.7219  0.2805
  168ETHOX   C140374  10.950  16.009  14.675 -0.3739 -0.5794  0.6680
  168ETHOX  H1140375  10.975  16.045  14.572  0.7635 -3.7699 -0.2897
  168ETHOX  H1340376  11.045  15.968  14.714 -0.5764 -0.8018  0.9298
  168ETHOX   C240377  10.914  16.121  14.774 -0.9461  0.1057 -0.0438
  168ETHOX  H2140378  11.007  16.181  14.787 -1.9266  1.1418  2.7218
  168ETHOX  H2340379  10.875  16.077  14.868 -2.0063 -0.0298 -0.5298
  169ETHOX   O140380  10.818  16.216  14.726 -0.1002 -0.1273  0.2105
  169ETHOX   C140381  10.750  16.291  14.830  0.2122  0.1634 -0.2059
  169ETHOX  H1140382  10.671  16.332  14.763 -0.6405 -0.4481  0.4001
  169ETHOX  H1340383  10.693  16.223  14.897  0.4487  0.2865  0.1212
  169ETHOX   C240384  10.827  16.406  14.890 -0.2004 -0.2356  0.0865
  169ETHOX  H2140385  10.880  16.455  14.805 -0.9629  0.4813  0.0121
  169ETHOX  H2340386  10.911  16.373  14.955 -0.1678  0.5517  0.4534
  170ETHOX   O140387  10.740  16.507  14.945  0.4585 -0.0103 -0.0692
  170ETHOX   C140388  10.810  16.593  15.029  0.2617  0.6424 -0.0838
  170ETHOX  H1140389  10.913  16.612  14.990  0.9814  2.2594  2.3569
  170ETHOX  H1340390  10.817  16.545  15.128  3.2186 -0.3576 -0.6750
  170ETHOX   C240391  10.734  16.731  15.043  0.4346  0.8141  0.1422
  170ETHOX  H2140392  10.785  16.801  15.114 -1.5248  0.4184  2.0514
  170ETHOX  H2340393  10.635  16.707  15.086  0.4119 -0.1714 -0.4298
  171ETHOX   O140394  10.706  16.800  14.925  0.3577  0.3122 -0.7161
  171ETHOX   C140395  10.649  16.926  14.950 -0.1776 -0.0588 -0.2802
  171ETHOX  H1140396  10.543  16.909  14.979 -0.6048  1.7757 -0.6446
  171ETHOX  H1340397  10.704  16.972  15.034  0.1376  0.9755 -1.0416
  171ETHOX   C240398  10.657  17.006  14.821  0.0344 -0.4149 -0.0733
  171ETHOX  H2140399  10.572  17.077  14.814  1.0865  0.8733 -0.4523
  171ETHOX  H2340400  10.670  16.939  14.733  1.0331 -0.3344 -0.0054
  172ETHOX   O140401  10.792  17.074  14.820  0.9205  0.5664  0.2240
  172ETHOX   C140402  10.812  17.158  14.705 -0.7885 -0.0416  0.6092
  172ETHOX  H1140403  10.742  17.244  14.708 -0.6363  0.1349 -0.6495
  172ETHOX  H1340404  10.795  17.097  14.614  0.8581  1.7142 -0.9410
  172ETHOX   C240405  10.952  17.224  14.705  0.4184  0.0904  0.8126
  172ETHOX  H2140406  10.958  17.267  14.807 -1.1093 -1.2714  1.5278
  172ETHOX  H2340407  10.960  17.312  14.637 -1.2664 -0.2064  0.1724
  173ETHOX   O140408  11.054  17.124  14.685  0.0605  0.0697 -0.0830
  173ETHOX   C140409  11.183  17.189  14.684 -0.1496 -0.0814  0.5976
  173ETHOX  H1140410  11.207  17.225  14.582  0.3149 -0.6511  0.4987
  173ETHOX  H1340411  11.186  17.279  14.748 -0.7620  1.1745 -1.0651
  173ETHOX   C240412  11.299  17.092  14.720 -0.3348 -0.3529  0.4719
  173ETHOX  H2140413  11.262  16.989  14.702 -1.4255  0.1694 -0.3833
  173ETHOX  H2340414  11.382  17.124  14.653  0.2179 -0.2352  1.1973
  174ETHOX   O140415  11.333  17.113  14.858  0.0281  0.3187 -0.4997
  174ETHOX   C140416  11.446  17.037  14.888 -0.7218  0.1090  0.0270
  174ETHOX  H1140417  11.427  16.929  14.869  1.2198 -0.1436 -0.6298
  174ETHOX  H1340418  11.521  17.068  14.813 -1.0828  0.8954 -0.0270
  174ETHOX   C240419  11.494  17.052  15.035 -0.2681 -0.1521 -0.2948
  174ETHOX  H2140420  11.513  17.158  15.063 -1.3213 -0.7902  3.3633
  174ETHOX  H2340421  11.591  17.000  15.045 -1.2224 -2.4241 -1.9421
  175ETHOX   O140422  11.397  16.989  15.120  0.1130  0.6447  0.3640
  175ETHOX   C140423  11.465  16.906  15.211 -0.0347  0.3824 -0.2427
  175ETHOX  H1140424  11.525  16.824  15.166 -3.2756 -2.7597  0.6975
  175ETHOX  H1340425  11.538  16.967  15.269 -1.5907  2.3668 -0.2662
  175ETHOX   C240426  11.365  16.839  15.303 -0.1813 -0.2275  0.6949
  175ETHOX  H2140427  11.298  16.774  15.242 -2.0185  0.7947  1.5230
  175ETHOX  H2340428  11.306  16.919  15.354  1.3484  1.9526 -0.7618
  176ETHOX   O140429  11.437  16.755  15.390 -0.1938  0.3637 -0.0789
  176ETHOX   C140430  11.346  16.686  15.472 -0.1331 -0.9929  0.2923
  176ETHOX  H1140431  11.304  16.772  15.529  1.3118 -0.0723  0.0232
  176ETHOX  H1340432  11.266  16.653  15.402  0.2121  2.8604 -2.2326
  176ETHOX   C240433  11.386  16.580  15.571 -1.0592 -0.1221  0.0049
  176ETHOX  H2140434  11.319  16.578  15.660  0.5730 -2.2530  1.3181
  176ETHOX  H2340435  11.487  16.602  15.611 -2.0712  1.6721  1.7441
  177ETHOX   O140436  11.392  16.452  15.510 -0.0119  0.3070  0.3084
  177ETHOX   C140437  11.431  16.344  15.594 -0.2817  0.2952 -0.3173
  177ETHOX  H1140438  11.361  16.334  15.680 -2.7112 -0.7743 -2.3098
  177ETHOX  H1340439  11.531  16.368  15.637 -0.2054  0.9990 -0.8709
  177ETHOX   C240440  11.441  16.214  15.517  0.1767 -0.2755 -0.7017
  177ETHOX  H2140441  11.345  16.190  15.466  0.6564  0.6244 -2.0961
  177ETHOX  H2340442  11.463  16.132  15.588 -2.0887  0.5661  1.1237
  178ETHOX   O140443  11.536  16.221  15.411 -0.0495  0.2305 -0.1695
  178ETHOX   C140444  11.560  16.092  15.361  0.0382 -0.0997  0.3372
  178ETHOX  H1140445  11.595  16.034  15.449  1.4453 -1.0763 -0.8076
  178ETHOX  H1340446  11.467  16.042  15.326 -1.5794  2.2826  0.9484
  178ETHOX   C240447  11.677  16.090  15.261 -0.4939 -0.5907 -0.5525
  178ETHOX  H2140448  11.663  16.162  15.177 -0.1460 -0.3921 -0.4392
  178ETHOX  H2340449  11.689  15.988  15.219 -1.0672 -1.2521  0.8547
  179ETHOX   O140450  11.802  16.133  15.325  0.3582 -0.2449  0.5649
  179ETHOX   C140451  11.913  16.096  15.248  0.4591  0.0431  0.1275
  179ETHOX  H1140452  11.891  16.083  15.140  2.2667 -1.3944 -0.1268
  179ETHOX  H1340453  11.958  16.002  15.287 -2.9044  0.0446  4.7917
  179ETHOX   C240454  12.014  16.208  15.269 -0.2775 -0.8981  0.5277
  179ETHOX  H2140455  12.110  16.165  15.235 -0.6872 -0.3474 -1.4626
  179ETHOX  H2340456  12.020  16.231  15.377 -1.0830 -1.5648  0.7210
  180ETHOX   O140457  11.997  16.335  15.195  0.5286 -0.0095 -0.6801
  180ETHOX   C140458  12.108  16.423  15.216  0.3741  0.6664  0.2321
  180ETHOX  H1140459  12.127  16.428  15.325 -0.2270  0.5847  0.3471
  180ETHOX  H1340460  12.194  16.364  15.177 -1.2612 -2.3859  0.9294
  180ETHOX   C240461  12.083  16.550  15.134  0.0593 -0.5069  0.0692
  180ETHOX  H2140462  12.163  16.628  15.133 -0.4776  0.0557  0.1875
  180ETHOX  H2340463  11.997  16.601  15.182  1.9760  0.3818  2.7729
  181ETHOX   O140464  12.045  16.519  14.998  0.8902 -0.1070 -0.4006
  181ETHOX   C140465  12.027  16.639  14.919  0.3936 -0.1144 -0.2662
  181ETHOX  H1140466  12.126  16.690  14.919  0.6921 -0.6194  1.2706
  181ETHOX  H1340467  11.964  16.719  14.965  2.4418  0.5825  1.5139
  181ETHOX   C240468  11.989  16.603  14.776 -0.1958  0.1892  0.5081
  181ETHOX  H2140469  12.079  16.548  14.739  0.9644  1.8661  0.6991
  181ETHOX  H2340470  11.981  16.697  14.717  1.4471 -0.3290 -0.6292
  182ETHOX   O140471  11.874  16.531  14.770  0.4958  0.2289  0.5130
  182ETHOX   C140472  11.768  16.628  14.755  0.7481 -0.1841  0.2988
  182ETHOX  H1140473  11.682  16.588  14.814  0.7305  2.7892  2.5306
  182ETHOX  H1340474  11.798  16.728  14.794  0.5269  0.2998 -0.7306
  182ETHOX   C240475  11.733  16.647  14.610  0.2082  0.3506 -0.6901
  182ETHOX  H2140476  11.627  16.680  14.613  0.2475  0.4568  2.2568
  182ETHOX  H2340477  11.729  16.547  14.560 -0.8792 -1.0667  2.0246
  183ETHOX   O140478  11.805  16.750  14.544 -0.0651 -0.8149  0.0873
  183ETHOX   C140479  11.760  16.770  14.405  0.7847  0.3838 -0.4557
  183ETHOX  H1140480  11.652  16.794  14.402  0.5187 -0.3177  1.7377
  183ETHOX  H1340481  11.773  16.665  14.369 -1.2690 -0.0870  0.0589
  183ETHOX   C240482  11.856  16.866  14.334 -0.7429 -0.5952 -0.5364
  183ETHOX  H2140483  11.835  16.871  14.225 -0.8585 -2.2652 -0.6209
  183ETHOX  H2340484  11.960  16.827  14.346 -0.8065 -0.6794 -0.2463
  184ETHOX   O140485  11.851  17.000  14.390 -0.3861  0.1684  0.3719
  184ETHOX   C140486  11.953  17.021  14.487  0.0954  0.1418 -0.2251
  184ETHOX  H1140487  11.919  16.957  14.571  0.4465  0.2870  0.0230
  184ETHOX  H1340488  12.049  16.982  14.449 -0.7619 -0.4696 -1.8836
  184ETHOX   C240489  11.972  17.164  14.526 -0.2498  0.4396 -0.3432
  184ETHOX  H2140490  12.007  17.165  14.632 -2.7553 -1.5158  0.6038
  184ETHOX  H2340491  11.869  17.206  14.533 -1.6164 -2.1995 -2.6679
  185ETHOX   O140492  12.067  17.240  14.456  0.6507  1.0305  0.4057
  185ETHOX   C140493  12.026  17.284  14.325 -0.0829  0.5435  0.5619
  185ETHOX  H1140494  11.993  17.197  14.263 -2.1350  1.2400  0.5936
  185ETHOX  H1340495  11.940  17.353  14.338 -0.9830 -0.3036 -0.5946
  185ETHOX   C240496  12.143  17.353  14.254  0.5603  0.2172  0.1888
  185ETHOX  H2140497  12.219  17.376  14.332  0.2447  1.8127  0.0582
  185ETHOX  H2340498  12.112  17.445  14.200 -2.4195 -1.2231 -0.7882
  186ETHOX   O140499  12.194  17.270  14.150  0.0731 -0.3707 -0.0002
  186ETHOX   C140500  12.264  17.157  14.201 -0.0624  0.1142 -1.0688
  186ETHOX  H1140501  12.346  17.201  14.262  1.0165 -0.2194 -2.2340
  186ETHOX  H1340502  12.188  17.104  14.262  2.0538 -2.0091 -0.1390
  186ETHOX   C240503  12.317  17.075  14.080 -0.2757 -0.3214  0.5579
  186ETHOX  H2140504  12.382  16.992  14.114  1.8210  1.8948  2.3483
  186ETHOX  H2340505  12.373  17.148  14.017  0.0739 -0.0409  1.1898
  187ETHOX   O140506  12.211  17.021  14.008  0.0986 -0.1892 -0.8311
  187ETHOX   C140507  12.253  16.901  13.945 -0.4177 -0.0266  0.0334
  187ETHOX  H1140508  12.212  16.896  13.841 -2.1460 -0.3203  0.6961
  187ETHOX  H1340509  12.364  16.901  13.936 -0.4012 -2.8007 -0.6527
  187ETHOX   C240510  12.190  16.782  14.023 -0.3921  0.3795 -0.8203
  187ETHOX  H2140511  12.216  16.788  14.131  1.6774 -1.6113 -1.1326
  187ETHOX  H2340512  12.229  16.684  13.989 -1.1336  0.6289 -2.5020
  188ETHOX   O140513  12.050  16.787  14.004  0.4125 -0.0871  0.7138
  188ETHOX   C140514  11.991  16.665  14.041 -0.4072  0.6160  0.4819
  188ETHOX  H1140515  11.979  16.654  14.151 -1.4012  0.6275  0.3818
  188ETHOX  H1340516  12.062  16.588  14.004 -3.0886 -0.4718 -3.0136
  188ETHOX   C240517  11.853  16.655  13.970  0.2630  0.5681 -0.0337
  188ETHOX  H2140518  11.814  16.551  13.962  0.1748  0.7492 -2.3822
  188ETHOX  H2340519  11.862  16.691  13.866  2.3225  0.1533 -0.0416
  189ETHOX   O140520  11.759  16.735  14.036 -0.3837 -0.1765 -0.3566
  189ETHOX   C140521  11.629  16.707  13.997  0.5316  0.0727 -0.2163
  189ETHOX  H1140522  11.619  16.737  13.891  0.1426 -2.3017 -0.9080
  189ETHOX  H1340523  11.603  16.599  14.000 -2.2789  0.6209 -1.5193
  189ETHOX   C240524  11.522  16.786  14.086  0.6089 -0.0498  0.5542
  189ETHOX  H2140525  11.427  16.769  14.030  1.2084  1.1993 -0.9109
  189ETHOX  H2340526  11.548  16.893  14.071 -0.0541 -0.1576 -1.7550
  190ETHOX   O140527  11.504  16.749  14.223  0.3496 -0.0342  0.9681
  190ETHOX   C140528  11.436  16.623  14.237 -0.2745 -0.2476  0.5689
  190ETHOX  H1140529  11.462  16.593  14.341  2.6249  1.4934  0.4302
  190ETHOX  H1340530  11.468  16.549  14.161 -0.5105 -0.4203  0.6373
  190ETHOX   C240531  11.281  16.631  14.237  0.4800 -0.2610 -0.0627
  190ETHOX  H2140532  11.235  16.530  14.244 -0.8474  0.1390 -2.0798
  190ETHOX  H2340533  11.244  16.676  14.142  0.5635 -2.0890 -0.9932
  191ETHOX   O140534  11.238  16.701  14.357 -0.2321 -0.1494  0.7251
  191ETHOX   C140535  11.100  16.723  14.348  0.3552  0.2367 -0.0735
  191ETHOX  H1140536  11.077  16.794  14.265 -1.5254 -2.2562 -1.8251
  191ETHOX  H1340537  11.046  16.629  14.324  0.2304  0.3183 -0.1108
  191ETHOX   C240538  11.044  16.782  14.478  0.5124 -0.2559  0.5341
  191ETHOX  H2140539  10.953  16.838  14.445 -2.1251 -3.6400  1.4598
  191ETHOX  H2340540  11.108  16.864  14.516  1.2956 -0.9181  0.6640
  192ETHOX   O140541  11.017  16.680  14.579 -0.1628 -0.2710  0.9366
  192ETHOX   C140542  10.967  16.727  14.701 -0.0773  0.3468  0.1065
  192ETHOX  H1140543  10.882  16.663  14.734  0.1586 -0.9243 -1.5888
  192ETHOX  H1340544  10.926  16.830  14.693  0.4102  0.4265 -2.5150
  192ETHOX   C240545  11.076  16.725  14.815 -0.1697  0.6981 -0.2645
  192ETHOX  H2140546  11.032  16.788  14.895  1.6349  1.7088 -0.0371
  192ETHOX  H2340547  11.170  16.772  14.781  0.6514  0.3856  1.4512
  193ETHOX   O140548  11.108  16.593  14.863 -0.1298  0.4600 -0.5605
  193ETHOX   C140549  11.223  16.613  14.940 -0.2669  0.6428 -0.7372
  193ETHOX  H1140550  11.315  16.635  14.881  0.7646  1.5866  1.1219
  193ETHOX  H1340551  11.206  16.696  15.012  1.5538  1.4921 -1.2141
  193ETHOX   C240552  11.252  16.487  15.022 -0.0577  0.0910  0.2370
  193ETHOX  H2140553  11.154  16.461  15.068  0.0362 -3.3917 -1.1768
  193ETHOX  H2340554  11.335  16.506  15.093 -0.4104  0.3876  0.5751
  194ETHOX   O140555  11.291  16.372  14.948 -0.3582  0.2867 -0.4645
  194ETHOX   C140556  11.325  16.263  15.035 -0.1877 -0.1914 -0.7371
  194ETHOX  H1140557  11.259  16.265  15.124  1.6910 -3.6617  0.9194
  194ETHOX  H1340558  11.425  16.278  15.081 -1.1201 -1.5252  1.9544
  194ETHOX   C240559  11.301  16.122  14.981 -0.2540 -0.0589 -0.2763
  194ETHOX  H2140560  11.361  16.056  15.048 -0.1616  0.5845  0.2825
  194ETHOX  H2340561  11.344  16.107  14.880  2.0707 -0.8086  0.7455
  195ETHOX   O140562  11.172  16.072  15.003  0.5955  0.7895  0.7596
  195ETHOX   C140563  11.170  15.929  14.998  0.3338  0.1164 -0.1522
  195ETHOX  H1140564  11.181  15.892  14.893 -2.8473 -0.8496 -0.2685
  195ETHOX  H1340565  11.257  15.889  15.054 -0.9612 -2.5600  0.1017
  195ETHOX   C240566  11.038  15.863  15.038  0.4305  0.7956 -0.1848
  195ETHOX  H2140567  10.966  15.895  14.960 -1.7138  2.0814  2.1582
  195ETHOX  H2340568  11.011  15.890  15.142  1.7410 -2.1812  1.0145
  196ETHOX   O140569  11.061  15.724  15.039  0.4075  0.0383  0.1121
  196ETHOX   C140570  10.943  15.649  15.040 -0.5620 -0.2368  0.0996
  196ETHOX  H1140571  10.885  15.687  15.127  1.1988  2.1497  0.3475
  196ETHOX  H1340572  10.886  15.664  14.946  1.7298  1.7916 -1.0840
  196ETHOX   C240573  10.986  15.496  15.041 -0.2498  0.4227  0.0777
  196ETHOX  H2140574  11.056  15.464  15.122 -0.1073 -1.6714 -0.7850
  196ETHOX  H2340575  11.039  15.481  14.944  0.5747 -0.6449  0.6672
  197ETHOX   O140576  10.873  15.410  15.042 -0.3737 -0.1333  0.1591
  197ETHOX   C140577  10.829  15.382  14.912 -0.2631  0.3060  0.0417
  197ETHOX  H1140578  10.815  15.475  14.853 -1.5176 -0.0138 -0.1909
  197ETHOX  H1340579  10.898  15.307  14.869 -3.5129 -1.9990 -1.4890
  197ETHOX   C240580  10.693  15.305  14.920 -0.5916  0.3077 -0.0002
  197ETHOX  H2140581  10.710  15.210  14.974  1.9540 -0.3859 -1.8408
  197ETHOX  H2340582  10.660  15.275  14.817  0.0895  0.0038 -0.1329
  198ETHOX   O140583  10.599  15.385  14.983 -0.0059  0.2715  0.7307
  198ETHOX   C140584  10.482  15.313  15.009  0.3259  0.8743  0.5212
  198ETHOX  H1140585  10.488  15.202  15.007 -0.1717  0.8274  1.1668
  198ETHOX  H1340586  10.431  15.345  15.102  0.7229  1.6115  0.4928
  198ETHOX   C240587  10.378  15.354  14.900 -0.0836 -0.5122 -0.0204
  198ETHOX  H2140588  10.357  15.462  14.913 -0.2509 -0.7678  2.2673
  198ETHOX  H2340589  10.281  15.310  14.930 -1.2228  1.3574 -0.8211
  199ETHOX   O140590  10.414  15.308  14.775 -0.2020 -0.0951  0.1056
  199ETHOX   C140591  10.307  15.304  14.680 -0.4505 -0.2222  0.3025
  199ETHOX  H1140592  10.255  15.402  14.687 -0.1970 -0.1787  2.3109
  199ETHOX  H1340593  10.247  15.213  14.703  0.7425 -1.1645 -0.2009
  199ETHOX   C240594  10.359  15.293  14.543  0.3688  0.4772  0.2544
  199ETHOX  H2140595  10.438  15.215  14.553  0.6378  0.4693 -1.6842
  199ETHOX  H2340596  10.415  15.379  14.501  0.8347  0.2057  0.3106
  200ETHOX   O140597  10.249  15.242  14.466 -0.2653  0.0306  0.3413
  200ETHOX   C140598  10.286  15.209  14.328  1.1484  0.9405  0.1416
  200ETHOX  H1140599  10.308  15.304  14.275 -0.3809  1.5537  0.5466
  200ETHOX  H1340600  10.377  15.147  14.317  0.2157 -0.1984 -1.9677
  200ETHOX   C240601  10.176  15.139  14.249 -0.1812 -0.6143 -0.8380
  200ETHOX  H2140602  10.207  15.128  14.143 -0.1363 -2.2153 -0.6864
  200ETHOX  H2340603  10.086  15.203  14.259  1.4427  2.5194 -3.8614
  201ETHOX   O140604  10.166  15.002  14.297  0.2701  0.3396 -0.2405
  201ETHOX   C140605  10.090  14.916  14.211 -0.1811  0.2730 -0.0398
  201ETHOX  H1140606  10.134  14.916  14.109 -0.1369 -0.1202 -0.0225
  201ETHOX  H1340607   9.986  14.952  14.191  0.1448  1.5986  0.5318
  201ETHOX   C240608  10.076  14.776  14.271 -0.3764 -0.3925 -1.0101
  201ETHOX  H2140609  10.179  14.743  14.297  0.3247  1.0012 -1.8621
  201ETHOX  H2340610  10.033  14.705  14.198 -2.0068 -0.2990 -0.2011
  202ETHOX   O140611   9.993  14.774  14.392  0.2037  0.9105 -0.0150
  202ETHOX   C140612   9.960  14.638  14.422  1.1987 -0.4438  0.0593
  202ETHOX  H1140613   9.897  14.641  14.513  1.1607  0.7263  0.0066
  202ETHOX  H1340614   9.907  14.586  14.340  1.2310 -4.7911  2.5168
  202ETHOX   C240615  10.079  14.548  14.448 -0.2347  0.9728 -0.0827
  202ETHOX  H2140616  10.169  14.557  14.383  0.6532  0.0294  0.9498
  202ETHOX  H2340617  10.042  14.451  14.411  0.6690  0.6817 -0.2635
  203ETHOX   O140618  10.129  14.528  14.576 -0.6605  0.3944  0.3477
  203ETHOX   C140619  10.184  14.646  14.640 -0.1535  0.4100  0.0763
  203ETHOX  H1140620  10.118  14.735  14.626 -1.7548 -0.3711  2.0287
  203ETHOX  H1340621  10.286  14.657  14.597  0.9083 -3.3151  1.2272
  203ETHOX   C240622  10.197  14.622  14.795 -0.0657  0.2715  0.5645
  203ETHOX  H2140623  10.283  14.686  14.821  0.9094 -0.5259 -0.5576
  203ETHOX  H2340624  10.216  14.514  14.817  0.2055 -0.0419 -1.0478
  204ETHOX   O140625  10.081  14.645  14.869  0.4802 -0.1918  0.3917
  204ETHOX   C140626  10.106  14.604  15.006  0.0205  0.2470 -0.2235
  204ETHOX  H1140627  10.183  14.525  15.017  0.4391  0.5215 -1.1282
  204ETHOX  H1340628  10.128  14.693  15.068 -1.4139  0.6952 -0.3201
  204ETHOX   C240629   9.981  14.541  15.073  0.1542  1.2306 -0.2529
  204ETHOX  H2140630   9.891  14.602  15.051 -0.2362 -0.0506 -2.5563
  204ETHOX  H2340631   9.999  14.529  15.182 -3.1463 -2.3720  0.1033
  205ETHOX   O140632   9.962  14.408  15.031  0.1291  0.4879  0.3817
  205ETHOX   C140633   9.839  14.360  15.076  0.6420 -0.5189  0.1028
  205ETHOX  H1140634   9.753  14.428  15.054  1.3461  0.7636  1.1208
  205ETHOX  H1340635   9.839  14.346  15.187  0.4297  0.2581  0.2100
  205ETHOX   C240636   9.807  14.223  15.006 -0.5255 -0.2155 -0.2426
  205ETHOX  H2140637   9.746  14.158  15.072  0.0591 -1.5879 -1.0114
  205ETHOX  H2340638   9.898  14.170  14.971 -0.8491  0.1138 -1.6408
  206ETHOX   O140639   9.732  14.247  14.889  0.1129  0.2169  0.5899
  206ETHOX   C140640   9.725  14.130  14.817  0.1357 -0.0559  0.4242
  206ETHOX  H1140641   9.826  14.089  14.799  0.1529 -0.6628  1.7390
  206ETHOX  H1340642   9.693  14.055  14.892 -2.9736  0.1588 -0.5436
  206ETHOX   C240643   9.640  14.158  14.692 -0.4567 -0.6405 -0.1984
  206ETHOX  H2140644   9.687  14.244  14.640 -0.2487  0.8371  2.2896
  206ETHOX  H2340645   9.627  14.069  14.627 -1.0342 -0.7713  0.0836
  207ETHOX   O140646   9.514  14.193  14.737 -0.2748  0.4119  0.1850
  207ETHOX   C140647   9.417  14.202  14.634 -0.4826 -0.4087  0.3979
  207ETHOX  H1140648   9.416  14.097  14.598 -0.6873 -0.4022  0.3830
  207ETHOX  H1340649   9.449  14.286  14.569 -2.5774  1.3224  1.4839
  207ETHOX   C240650   9.276  14.218  14.690 -0.2200  1.0356  0.5616
  207ETHOX  H2140651   9.260  14.146  14.774  1.8801 -0.8883 -0.5792
  207ETHOX  H2340652   9.204  14.198  14.607  0.9708 -0.4335 -0.1720
  208ETHOX   O140653   9.248  14.349  14.725  0.2022  0.0852  0.1015
  208ETHOX   C140654   9.111  14.377  14.737 -0.8625  0.8547  0.1157
  208ETHOX  H1140655   9.066  14.366  14.635  0.1324 -1.0361 -0.1657
  208ETHOX  H1340656   9.057  14.306  14.803  1.3840 -1.4462 -0.3603
  208ETHOX   C240657   9.090  14.520  14.775  0.1815  0.5580 -0.1680
  208ETHOX  H2140658   9.148  14.556  14.863 -0.0671  0.8410 -0.1156
  208ETHOX  H2340659   8.982  14.528  14.801  0.6569 -1.0579  2.6823
  209ETHOX   O140660   9.122  14.605  14.663  0.3292 -0.1146  0.0431
  209ETHOX   C140661   9.210  14.711  14.700 -0.1777  0.0075  0.6051
  209ETHOX  H1140662   9.300  14.671  14.752  1.0584  2.3927  0.4123
  209ETHOX  H1340663   9.148  14.768  14.772 -0.2096 -0.4020  0.9076
  209ETHOX   C240664   9.245  14.789  14.568 -0.4498  0.6107 -0.4823
  209ETHOX  H2140665   9.273  14.893  14.594  1.2392  0.7240 -2.5162
  209ETHOX  H2340666   9.161  14.793  14.495 -0.8751 -3.0343 -0.3787
  210ETHOX   O140667   9.360  14.730  14.497 -0.0778 -0.2344 -0.2822
  210ETHOX   C140668   9.329  14.598  14.456  0.5405  0.5839 -0.6822
  210ETHOX  H1140669   9.399  14.544  14.524 -1.8161 -0.2130  1.2750
  210ETHOX  H1340670   9.226  14.568  14.483  1.1195 -0.0417  0.9980
  210ETHOX   C240671   9.370  14.573  14.308 -0.1059  0.3851  0.6684
  210ETHOX  H2140672   9.345  14.471  14.270 -1.2686  0.7974  0.2837
  210ETHOX  H2340673   9.480  14.588  14.305  0.2665 -2.0512 -0.7605
  211ETHOX   O140674   9.303  14.655  14.215 -0.1405 -0.0429  0.2736
  211ETHOX   C140675   9.380  14.670  14.097 -0.1600 -0.0333 -0.1377
  211ETHOX  H1140676   9.335  14.753  14.036 -1.7305  0.1591  1.2023
  211ETHOX  H1340677   9.482  14.705  14.125 -0.1199  1.5864 -2.0474
  211ETHOX   C240678   9.387  14.544  14.006  0.0980  0.0787 -0.4337
  211ETHOX  H2140679   9.417  14.567  13.901 -0.1976  0.1295 -0.5072
  211ETHOX  H2340680   9.281  14.510  14.003  0.8617 -2.4725 -0.9172
  212ETHOX   O140681   9.468  14.435  14.050  0.3716  0.5528 -0.4150
  212ETHOX   C140682   9.462  14.332  13.944  0.1021  0.4577 -0.1178
  212ETHOX  H1140683   9.355  14.312  13.922  0.5565 -1.7707 -0.4613
  212ETHOX  H1340684   9.507  14.373  13.851 -1.0746  1.5181 -0.2433
  212ETHOX   C240685   9.519  14.206  14.008  0.1593  0.6893  0.0785
  212ETHOX  H2140686   9.493  14.117  13.947 -0.2286  0.3279  0.7500
  212ETHOX  H2340687   9.472  14.197  14.109 -0.5410  1.3117 -0.1850
  213ETHOX   O140688   9.661  14.198  14.022  0.2062 -0.0183 -0.5814
  213ETHOX   C140689   9.728  14.188  13.900 -0.5059 -0.4188  0.3193
  213ETHOX  H1140690   9.690  14.095  13.853 -0.9321 -0.5019  0.8230
  213ETHOX  H1340691   9.734  14.287  13.851  0.0419 -0.1896  0.8299
  213ETHOX   C240692   9.876  14.164  13.928 -0.4186 -0.0196  0.6376
  213ETHOX  H2140693   9.878  14.065  13.979  1.6988  0.3023  1.2764
  213ETHOX  H2340694   9.918  14.250  13.984 -1.4854  0.9870 -0.0716
  214ETHOX   O140695   9.926  14.151  13.793  0.1972 -0.5003  0.0956
  214ETHOX   C140696  10.060  14.115  13.781  0.0124 -0.4949 -0.2150
  214ETHOX  H1140697  10.073  14.010  13.816 -0.5259 -1.0531 -1.6027
  214ETHOX  H1340698  10.112  14.188  13.847  2.0288 -0.9896 -1.1719
  214ETHOX   C240699  10.114  14.129  13.643 -0.1535 -0.3817 -0.1607
  214ETHOX  H2140700  10.225  14.134  13.648 -0.2298  0.1172  1.7881
  214ETHOX  H2340701  10.062  14.216  13.598  0.2320  0.9948  1.9247
  215ETHOX   O140702  10.083  14.015  13.553 -0.3753  0.2342 -0.3586
  215ETHOX   C140703   9.947  14.000  13.522 -0.3685 -0.2323  0.4178
  215ETHOX  H1140704   9.900  13.935  13.599  0.2740 -0.1673  0.8735
  215ETHOX  H1340705   9.890  14.095  13.514  0.2124  0.2927  2.0892
  215ETHOX   C240706   9.919  13.931  13.386 -0.0008  0.3801  0.3476
  215ETHOX  H2140707   9.822  13.880  13.407  1.0492 -1.3772  1.2194
  215ETHOX  H2340708  10.000  13.858  13.365 -0.5618  0.1453 -1.1372
  216ETHOX   O140709   9.918  14.011  13.270 -0.2966 -1.1485 -0.4163
  216ETHOX   C140710   9.802  14.081  13.229  0.1416  0.2935 -1.1405
  216ETHOX  H1140711   9.707  14.025  13.245 -0.3482  0.9935 -1.5140
  216ETHOX  H1340712   9.817  14.103  13.121  0.6584  2.7853 -0.6099
  216ETHOX   C240713   9.781  14.219  13.292 -0.2461 -0.8788 -0.2538
  216ETHOX  H2140714   9.723  14.283  13.222 -1.7630 -1.8692  0.0379
  216ETHOX  H2340715   9.872  14.275  13.322  0.2402 -2.1675  0.7457
  217ETHOX   O140716   9.694  14.213  13.402  0.1424 -0.1639 -0.2130
  217ETHOX   C140717   9.641  14.342  13.442  0.5179  0.3893  0.5127
  217ETHOX  H1140718   9.615  14.400  13.351  1.8790 -2.4493 -1.8370
  217ETHOX  H1340719   9.554  14.325  13.510 -0.9430  0.6379 -1.2069
  217ETHOX   C240720   9.740  14.431  13.521 -0.3358 -1.0268 -0.7475
  217ETHOX  H2140721   9.782  14.368  13.602 -0.4970  1.1726  1.1240
  217ETHOX  H2340722   9.694  14.517  13.574  1.5656  0.4964 -1.4532
  218ETHOX   O140723   9.839  14.485  13.441  0.3505 -0.0403 -0.1382
  218ETHOX   C140724   9.802  14.602  13.376  0.5023  0.2943  0.0743
  218ETHOX  H1140725   9.863  14.687  13.413 -0.0915  0.1638  1.3928
  218ETHOX  H1340726   9.699  14.623  13.413 -0.3065 -1.7759 -0.8291
  218ETHOX   C240727   9.814  14.598  13.219  0.1506  0.6270  0.1847
  218ETHOX  H2140728   9.749  14.516  13.181  0.5869  0.8058 -1.0122
  218ETHOX  H2340729   9.916  14.567  13.186 -0.5979 -0.3056 -1.3434
  219ETHOX   O140730   9.765  14.719  13.163 -0.3887  0.0498  0.2566
  219ETHOX   C140731   9.869  14.815  13.142  0.8441  0.5263 -0.0042
  219ETHOX  H1140732   9.947  14.817  13.221  1.7976 -0.5744 -0.8844
  219ETHOX  H1340733   9.915  14.786  13.045  1.3023  1.9949 -0.2412
  219ETHOX   C240734   9.799  14.946  13.120  0.6970 -0.1809 -0.0434
  219ETHOX  H2140735   9.728  14.961  13.204  0.4726 -0.3431 -0.2054
  219ETHOX  H2340736   9.733  14.955  13.031  1.4692 -0.0546 -0.6218
  220ETHOX   O140737   9.905  15.040  13.134  0.0885  0.3556  0.1375
  220ETHOX   C140738   9.869  15.177  13.129  0.4617  0.2562 -0.6799
  220ETHOX  H1140739   9.777  15.195  13.190  0.6270 -0.9501 -0.0307
  220ETHOX  H1340740   9.857  15.210  13.024  2.8676  1.4352 -0.6495
  220ETHOX   C240741   9.980  15.259  13.179 -0.4191  0.8069 -1.0608
  220ETHOX  H2140742  10.068  15.239  13.115 -0.6818 -3.6705 -0.3276
  220ETHOX  H2340743   9.998  15.219  13.281 -1.2527  0.5721 -0.9936
  221ETHOX   O140744   9.940  15.399  13.193 -0.0962  0.0451 -0.2900
  221ETHOX   C140745  10.045  15.481  13.241 -0.0012  0.5172  0.1454
  221ETHOX  H1140746  10.056  15.460  13.349  1.3840  3.3359  0.6423
  221ETHOX  H1340747  10.137  15.456  13.183 -1.5809 -3.0514 -1.1200
  221ETHOX   C240748  10.014  15.634  13.234 -0.6966  0.6026  0.6727
  221ETHOX  H2140749   9.967  15.648  13.135 -0.8697 -0.1093  0.6493
  221ETHOX  H2340750  10.116  15.679  13.238  0.0790 -1.0862  0.4779
  222ETHOX   O140751   9.946  15.685  13.341  0.0892  0.0525 -0.2130
  222ETHOX   C140752   9.801  15.672  13.328 -0.9873  0.2513 -0.3515
  222ETHOX  H1140753   9.781  15.715  13.227 -0.2562  0.4423 -0.4212
  222ETHOX  H1340754   9.768  15.567  13.315 -0.2079  0.2026 -2.4086
  222ETHOX   C240755   9.731  15.749  13.439  0.2455 -0.0885 -0.3538
  222ETHOX  H2140756   9.773  15.852  13.442  1.3204 -0.5136 -0.1429
  222ETHOX  H2340757   9.741  15.691  13.533  0.9700  1.0380  0.2917
  223ETHOX   O140758   9.592  15.762  13.407 -0.5711 -0.0932 -0.2827
  223ETHOX   C140759   9.519  15.820  13.521  0.6270 -0.7263  0.7721
  223ETHOX  H1140760   9.585  15.868  13.597 -0.3279 -0.8036  1.6755
  223ETHOX  H1340761   9.445  15.895  13.485 -0.3981 -1.5630  1.0894
  223ETHOX   C240762   9.432  15.714  13.581 -0.1600  0.4305  0.2445
  223ETHOX  H2140763   9.373  15.673  13.497 -0.9592  0.6570  0.6810
  223ETHOX  H2340764   9.356  15.755  13.651  0.1795 -0.3468  1.0862
  224ETHOX   O140765   9.493  15.611  13.653  0.1670 -0.0636  0.0100
  224ETHOX   C140766   9.408  15.518  13.708 -0.4294 -0.3770  0.0552
  224ETHOX  H1140767   9.317  15.568  13.749 -0.1595 -2.0613  3.0166
  224ETHOX  H1340768   9.374  15.439  13.638  0.3436  1.8097 -2.9886
  224ETHOX   C240769   9.484  15.451  13.829  0.3412 -0.1149  0.4901
  224ETHOX  H2140770   9.483  15.521  13.915 -2.5539  1.6317 -0.8153
  224ETHOX  H2340771   9.590  15.440  13.798 -0.6838 -0.0911 -3.5255
  225ETHOX   O140772   9.416  15.329  13.866  0.2237  0.3427  0.0194
  225ETHOX   C140773   9.300  15.343  13.945 -0.5391 -0.2153 -0.1787
  225ETHOX  H1140774   9.222  15.400  13.892  0.4442 -0.5399 -2.0560
  225ETHOX  H1340775   9.319  15.394  14.042 -2.2369  1.5501 -0.7207
  225ETHOX   C240776   9.243  15.202  13.981  0.1534 -0.1293 -0.2158
  225ETHOX  H2140777   9.226  15.151  13.884  0.6134  1.2489 -1.0493
  225ETHOX  H2340778   9.148  15.213  14.037  1.3744 -0.2797  2.0287
  226ETHOX   O140779   9.321  15.116  14.066 -0.0309  0.0152 -0.4056
  226ETHOX   C140780   9.281  15.134  14.204 -0.0820  0.4655 -0.2861
  226ETHOX  H1140781   9.264  15.242  14.221  0.5297  0.3068  1.4898
  226ETHOX  H1340782   9.185  15.081  14.216  0.6978 -1.2488 -1.2086
  226ETHOX   C240783   9.381  15.073  14.300  0.0311 -0.0203 -0.1808
  226ETHOX  H2140784   9.404  14.967  14.275 -0.4172  0.0190 -0.7768
  226ETHOX  H2340785   9.333  15.064  14.400  1.6917 -1.9065  0.5181
  227ETHOX   O140786   9.508  15.146  14.316  0.3026 -0.2549  0.0009
  227ETHOX   C140787   9.599  15.071  14.390 -0.3191 -0.1386 -0.0015
  227ETHOX  H1140788   9.596  14.966  14.355 -1.2536 -0.3935  0.7857
  227ETHOX  H1340789   9.574  15.072  14.499  1.8976  0.7172  0.5600
  227ETHOX   C240790   9.740  15.123  14.372  0.5543  0.0064 -0.3197
  227ETHOX  H2140791   9.762  15.150  14.266  0.7034  1.9822  0.1913
  227ETHOX  H2340792   9.808  15.045  14.412 -2.2004 -1.4457  1.8860
  228ETHOX   O140793   9.748  15.247  14.445 -0.2571  0.9952  0.1161
  228ETHOX   C140794   9.874  15.259  14.496  0.8102  0.2974 -0.2493
  228ETHOX  H1140795   9.885  15.188  14.581 -0.7377 -0.1399 -0.3944
  228ETHOX  H1340796   9.956  15.233  14.426  2.7315 -1.7108  2.4965
  228ETHOX   C240797   9.897  15.408  14.543  0.2817 -0.3123  0.2238
  228ETHOX  H2140798  10.001  15.404  14.582  0.2499 -0.4058  0.3005
  228ETHOX  H2340799   9.828  15.443  14.624 -0.7546  0.4352 -0.9346
  229ETHOX   O140800   9.893  15.498  14.430 -0.4071 -0.2947  0.0231
  229ETHOX   C140801  10.012  15.500  14.347  0.8532  0.2987  0.0539
  229ETHOX  H1140802  10.030  15.400  14.302 -2.1385 -0.9187  1.3101
  229ETHOX  H1340803  10.095  15.518  14.418  2.1385  0.8729 -1.5362
  229ETHOX   C240804  10.003  15.615  14.244  0.4209  0.3568 -0.0404
  229ETHOX  H2140805   9.907  15.602  14.190  0.4688  1.3263 -0.3783
  229ETHOX  H2340806  10.087  15.606  14.171 -0.0011  0.7193 -0.5735
  230ETHOX   O140807  10.014  15.735  14.314  0.0718 -0.2539 -0.1409
  230ETHOX   C140808   9.996  15.844  14.226 -0.1752 -0.1700  0.0400
  230ETHOX  H1140809  10.075  15.825  14.150 -0.0126  2.3116 -0.4921
  230ETHOX  H1340810   9.900  15.834  14.171 -0.0797 -0.8783 -0.0117
  230ETHOX   C240811   9.995  15.974  14.295  0.1465 -0.7468 -0.1997
  230ETHOX  H2140812  10.007  16.046  14.212  1.7801 -3.4576 -2.4790
  230ETHOX  H2340813  10.083  15.970  14.363 -0.9247 -3.1085  1.1746
  231ETHOX   O140814   9.887  15.977  14.390  0.3668 -0.3624 -0.4137
  231ETHOX   C140815   9.866  16.104  14.446 -0.8597 -0.4546  0.8211
  231ETHOX  H1140816   9.852  16.172  14.359  0.5689  1.1493  1.7707
  231ETHOX  H1340817   9.956  16.134  14.504  0.0895  0.6435 -1.1195
  231ETHOX   C240818   9.738  16.120  14.535  0.0158  0.0930  0.0817
  231ETHOX  H2140819   9.641  16.080  14.497  0.4087 -1.7117  0.8626
  231ETHOX  H2340820   9.729  16.230  14.525 -1.7197 -0.1090 -0.9929
  232ETHOX   O140821   9.745  16.061  14.664 -0.3032 -0.0832  0.6156
  232ETHOX   C140822   9.717  15.923  14.666  0.7768 -0.5021  0.0520
  232ETHOX  H1140823   9.612  15.897  14.638  1.5461 -4.3140  0.1480
  232ETHOX  H1340824   9.778  15.862  14.596 -0.0424 -1.9577  0.5422
  232ETHOX   C240825   9.749  15.871  14.803 -0.1649 -0.2376  0.0092
  232ETHOX  H2140826   9.718  15.765  14.807  1.2687 -0.6729  0.2572
  232ETHOX  H2340827   9.678  15.927  14.867 -1.1460 -1.2987 -0.1262
  233ETHOX   O140828   9.888  15.880  14.836  0.2729  0.2446  0.0687
  233ETHOX   C140829   9.924  15.996  14.909  0.2140 -0.1587  0.0110
  233ETHOX  H1140830   9.915  16.082  14.840  1.1681 -0.0421  0.0237
  233ETHOX  H1340831   9.843  16.010  14.984  1.4035  1.1784  1.0828
  233ETHOX   C240832  10.062  15.976  14.966  0.4937 -0.3069  0.0994
  233ETHOX  H2140833  10.074  15.876  15.014 -0.7039 -0.1208  0.8068
  233ETHOX  H2340834  10.077  16.055  15.043 -1.1793 -0.6227  0.7864
  234ETHOX   O140835  10.160  15.996  14.871  0.4259 -0.5845 -0.0677
  234ETHOX   C140836  10.286  15.963  14.926 -0.6878 -0.6963 -0.0237
  234ETHOX  H1140837  10.292  15.943  15.035 -2.3577  0.3371  0.2846
  234ETHOX  H1340838  10.302  15.858  14.892 -1.5231 -1.3275  1.4430
  234ETHOX   C240839  10.401  16.058  14.882  0.0687 -0.1498 -0.0242
  234ETHOX  H2140840  10.496  16.027  14.931  0.0077  0.4092  0.4633
  234ETHOX  H2340841  10.381  16.163  14.912 -0.2382 -0.4872  1.0103
  235ETHOX   O140842  10.399  16.060  14.745 -0.3891  0.5233  0.1639
  235ETHOX   C140843  10.504  16.136  14.693 -0.8917  0.5650  1.2507
  235ETHOX  H1140844  10.509  16.233  14.746  0.6784  0.8742  0.6057
  235ETHOX  H1340845  10.604  16.088  14.699 -0.1185  1.4171 -2.2100
  235ETHOX   C240846  10.494  16.173  14.541  0.5947 -0.2903  1.0232
  235ETHOX  H2140847  10.503  16.082  14.477  1.6445  0.9449 -0.6817
  235ETHOX  H2340848  10.571  16.245  14.507  0.3404 -1.0605 -1.3731
  236ETHOX   O140849  10.371  16.240  14.508  0.3640  0.5120 -0.8054
  236ETHOX   C140850  10.361  16.383  14.548 -0.3585 -0.2496 -0.2221
  236ETHOX  H1140851  10.405  16.407  14.647 -0.4382  0.9764 -0.4670
  236ETHOX  H1340852  10.254  16.411  14.556  0.0170  1.4316 -0.7792
  236ETHOX   C240853  10.426  16.485  14.446  0.0069 -0.0584  0.9716
  236ETHOX  H2140854  10.532  16.454  14.435 -0.5038 -1.9968  1.0834
  236ETHOX  H2340855  10.418  16.590  14.481 -1.1772 -0.2144  1.2015
  237ETHOX   O140856  10.371  16.467  14.313  0.4877  0.3360 -0.3009
  237ETHOX   C140857  10.430  16.557  14.220 -0.4554 -0.4789 -0.4559
  237ETHOX  H1140858  10.432  16.664  14.251  3.1786 -1.0187  1.7756
  237ETHOX  H1340859  10.538  16.530  14.213  0.4536  3.0003 -2.1600
  237ETHOX   C240860  10.369  16.527  14.084 -1.1037 -0.4189  0.1209
  237ETHOX  H2140861  10.344  16.420  14.073 -0.4796 -0.5215 -0.3237
  237ETHOX  H2340862  10.447  16.551  14.009 -0.2052 -3.7445 -0.1382
  238ETHOX   O140863  10.250  16.604  14.060 -0.4620  0.2704 -0.4296
  238ETHOX   C140864  10.168  16.547  13.962  0.3139 -0.5202 -0.7327
  238ETHOX  H1140865  10.133  16.445  13.987 -1.9516  0.3966  0.0497
  238ETHOX  H1340866  10.225  16.538  13.867 -0.1498 -2.2885 -0.8806
  238ETHOX   C240867  10.041  16.634  13.937  0.6931  0.6699 -0.2579
  238ETHOX  H2140868   9.983  16.605  13.847  0.8444 -0.2880 -0.0508
  238ETHOX  H2340869  10.081  16.734  13.909  3.4642  0.2830  1.8734
  239ETHOX   O140870   9.958  16.638  14.054  0.4778  0.2268  0.3840
  239ETHOX   C140871   9.864  16.745  14.044  0.3546  0.3760 -0.0141
  239ETHOX  H1140872   9.908  16.846  14.031 -1.4201  1.1729 -0.2000
  239ETHOX  H1340873   9.796  16.741  13.956 -0.0564  2.3275  0.1767
  239ETHOX   C240874   9.753  16.768  14.152  0.4190  0.8270  0.2785
  239ETHOX  H2140875   9.702  16.863  14.129 -0.5578  0.2499 -0.0086
  239ETHOX  H2340876   9.672  16.692  14.162 -0.2677  1.3876 -0.8515
  240ETHOX   O140877   9.806  16.772  14.283 -0.4631 -0.4243  0.3137
  240ETHOX   C140878   9.724  16.845  14.366  0.3952  0.1223  0.0194
  240ETHOX  H1140879   9.615  16.831  14.350  0.0959  2.6516 -0.6135
  240ETHOX  H1340880   9.748  16.951  14.343  2.5085 -0.4979 -0.8324
  240ETHOX   C240881   9.745  16.822  14.518 -0.6160 -0.4773  0.1748
  240ETHOX  H2140882   9.681  16.890  14.578 -0.5480 -0.3973  0.1576
  240ETHOX  H2340883   9.854  16.828  14.541 -0.5155 -3.4938  0.9059
  241ETHOX   O140884   9.705  16.686  14.562  0.0258 -0.1251  0.5120
  241ETHOX   C140885   9.676  16.687  14.704  0.3821 -0.1101  0.1470
  241ETHOX  H1140886   9.772  16.704  14.757  0.3578  1.0923 -0.1630
  241ETHOX  H1340887   9.607  16.768  14.735  0.8752 -0.0638  1.1563
  241ETHOX   C240888   9.617  16.562  14.759 -0.0292  0.4068  0.1403
  241ETHOX  H2140889   9.549  16.516  14.683 -0.7112 -1.5339  1.8364
  241ETHOX  H2340890   9.551  16.585  14.845  0.3101 -2.0094  1.1127
  242ETHOX   O140891   9.723  16.477  14.807  0.2283 -0.5777 -0.0259
  242ETHOX   C140892   9.660  16.363  14.875 -0.4416 -0.0528  0.6319
  242ETHOX  H1140893   9.626  16.291  14.797  0.8198 -0.9072  0.8442
  242ETHOX  H1340894   9.567  16.390  14.930 -0.2675  0.0097  0.8974
  242ETHOX   C240895   9.749  16.302  14.985 -0.0604 -0.6922 -0.5827
  242ETHOX  H2140896   9.845  16.282  14.934  1.0466 -1.5816  1.6889
  242ETHOX  H2340897   9.696  16.212  15.023  0.0608 -1.0403 -1.2271
  243ETHOX   O140898   9.775  16.394  15.093 -0.6300  0.0992  0.0021
  243ETHOX   C140899   9.848  16.332  15.201 -0.2416  0.1102 -0.2118
  243ETHOX  H1140900   9.766  16.304  15.272 -0.0300 -1.3429 -0.5226
  243ETHOX  H1340901   9.904  16.246  15.161  0.0051  1.0623 -2.0450
  243ETHOX   C240902   9.933  16.439  15.269  0.1309 -0.1415 -0.2287
  243ETHOX  H2140903  10.003  16.489  15.198  1.1142  1.5281  1.7930
  243ETHOX  H2340904   9.989  16.383  15.347 -0.2315  0.3303  0.3753
  244ETHOX   O140905   9.866  16.541  15.345 -0.3505  0.8696 -0.3399
  244ETHOX   C140906   9.803  16.493  15.462 -0.4633  0.3033 -0.2671
  244ETHOX  H1140907   9.886  16.459  15.527 -2.3200 -2.6884  0.7298
  244ETHOX  H1340908   9.752  16.396  15.447  2.4947 -1.5950  1.0112
  244ETHOX   C240909   9.713  16.593  15.533  0.1631 -0.9915  0.2146
  244ETHOX  H2140910   9.786  16.673  15.559 -1.5180  1.1063 -1.0961
  244ETHOX  H2340911   9.659  16.553  15.622  1.1430 -0.8456  0.8801
  245ETHOX   O140912   9.609  16.646  15.439  0.3947  0.0357 -0.1835
  245ETHOX   C140913   9.543  16.762  15.487 -0.6913 -0.9085  0.4565
  245ETHOX  H1140914   9.522  16.744  15.594 -0.3500 -0.5696  0.5791
  245ETHOX  H1340915   9.620  16.842  15.490 -0.7979 -0.8235  0.9147
  245ETHOX   C240916   9.430  16.800  15.389  0.5204  0.5438 -0.2624
  245ETHOX  H2140917   9.454  16.792  15.281 -1.0662 -0.6001 -0.5627
  245ETHOX  H2340918   9.405  16.905  15.417 -1.4214 -0.0352  0.3246
  246ETHOX   O140919   9.317  16.714  15.412  0.0113 -0.7024  0.2780
  246ETHOX   C140920   9.229  16.750  15.311 -0.2310  0.0689 -0.4754
  246ETHOX  H1140921   9.272  16.716  15.215  0.8038 -0.9607  0.3272
  246ETHOX  H1340922   9.222  16.860  15.303  0.6468  0.0488 -1.9339
  246ETHOX   C240923   9.090  16.701  15.326 -0.1779  0.2634  0.1573
  246ETHOX  H2140924   9.024  16.750  15.251 -0.8759 -1.6695 -0.5491
  246ETHOX  H2340925   9.062  16.735  15.428  0.5041 -0.2950  0.5360
  247ETHOX   O140926   9.072  16.559  15.324 -0.2211 -0.1278  0.7574
  247ETHOX   C140927   8.949  16.534  15.390 -0.5978  0.4179 -0.0802
  247ETHOX  H1140928   8.954  16.562  15.497  0.2381 -0.0526  0.0083
  247ETHOX  H1340929   8.873  16.612  15.367 -0.8020  0.7570  1.6425
  247ETHOX   C240930   8.886  16.399  15.390  0.7145 -0.3520 -0.3315
  247ETHOX  H2140931   8.948  16.327  15.447 -1.4455 -0.9524  1.4178
  247ETHOX  H2340932   8.789  16.405  15.444  0.0365  0.2372 -1.5700
  248ETHOX   O140933   8.853  16.353  15.262 -0.6574  0.4609 -0.1690
  248ETHOX   C140934   8.771  16.239  15.269  0.5355  0.0750  1.0322
  248ETHOX  H1140935   8.831  16.153  15.307  0.7736 -0.1518  0.1664
  248ETHOX  H1340936   8.682  16.254  15.335 -0.7334 -1.1442 -0.3140
  248ETHOX   C240937   8.728  16.203  15.120  0.3287 -0.6202  0.2014
  248ETHOX  H2140938   8.665  16.112  15.123  0.3442 -0.6043  2.0583
  248ETHOX  H2340939   8.815  16.184  15.054  1.0493 -0.5824  1.1176
  249ETHOX   O140940   8.651  16.312  15.068 -0.2347 -0.1476 -0.0947
  249ETHOX   C140941   8.551  16.270  14.982 -0.3668 -0.3105 -0.1778
  249ETHOX  H1140942   8.597  16.217  14.896  0.4342  3.4257 -2.2276
  249ETHOX  H1340943   8.476  16.208  15.037  0.1679 -0.1410  0.7584
  249ETHOX   C240944   8.484  16.395  14.926  0.3702  0.3985  0.2357
  249ETHOX  H2140945   8.410  16.364  14.848  0.6970  0.1744  0.0105
  249ETHOX  H2340946   8.560  16.455  14.871  1.6196 -1.4494 -0.1430
  250ETHOX   O140947   8.421  16.483  15.013 -0.0410 -0.1682  0.2938
  250ETHOX   C140948   8.409  16.618  14.963 -0.2622  0.5342  0.0469
  250ETHOX  H1140949   8.501  16.655  14.913 -1.0044  2.4714  0.0178
  250ETHOX  H1340950   8.326  16.628  14.891 -0.5298 -0.8620  0.1403
  250ETHOX   C240951   8.374  16.714  15.071 -0.1767 -0.3340 -0.2657
  250ETHOX  H2140952   8.307  16.671  15.148 -0.8747  1.8969  0.4640
  250ETHOX  H2340953   8.320  16.789  15.010  0.5601 -0.2127 -0.7836
  251ETHOX   O140954   8.487  16.784  15.126  0.0428 -0.6452  0.8613
  251ETHOX   C140955   8.448  16.918  15.172  0.2352  0.0616  0.0481
  251ETHOX  H1140956   8.361  16.906  15.240  0.6513  0.5021  0.6733
  251ETHOX  H1340957   8.402  16.985  15.096 -2.1142  0.7485  1.9403
  251ETHOX   C240958   8.557  16.992  15.239 -0.3355 -0.0785 -0.4408
  251ETHOX  H2140959   8.637  17.028  15.171  0.4634 -0.4405  0.2951
  251ETHOX  H2340960   8.599  16.922  15.315 -2.7272  1.0676  2.1284
  252ETHOX   O140961   8.518  17.105  15.323  1.2256 -0.6820 -0.0504
  252ETHOX   C140962   8.633  17.162  15.387  0.2071  0.2990 -0.1759
  252ETHOX  H1140963   8.669  17.099  15.470 -0.1669  0.2180 -0.0731
  252ETHOX  H1340964   8.713  17.170  15.309  1.9626  1.1738  1.6217
  252ETHOX   C240965   8.604  17.308  15.441 -0.3435  0.4724 -0.5073
  252ETHOX  H2140966   8.534  17.361  15.374  0.5746 -0.2407 -2.0870
  252ETHOX  H2340967   8.695  17.371  15.453  0.3864 -0.7069  0.4180
  253ETHOX   O140968   8.553  17.305  15.576 -0.3027 -0.1936 -0.1560
  253ETHOX   C140969   8.530  17.432  15.633  0.1078 -0.3255 -0.7954
  253ETHOX  H1140970   8.470  17.496  15.564 -0.8251 -1.0270 -0.6531
  253ETHOX  H1340971   8.630  17.480  15.638 -0.5527  1.0608 -0.3133
  253ETHOX   C240972   8.472  17.439  15.769 -0.0196  0.0698 -0.0483
  253ETHOX  H2140973   8.486  17.538  15.819 -1.2109  0.0357  0.3888
  253ETHOX  H2340974   8.507  17.357  15.835 -1.1958 -2.5847 -2.5110
  254ETHOX   O140975   8.330  17.419  15.748 -0.1484  0.1170 -0.3938
  254ETHOX   C140976   8.258  17.394  15.871 -0.2958  0.0632  0.0632
  254ETHOX  H1140977   8.298  17.305  15.923  1.6067  0.8285 -0.0261
  254ETHOX  H1340978   8.255  17.490  15.925  0.9020  0.4888 -0.5848
  254ETHOX   C240979   8.110  17.368  15.829 -0.1252 -0.5887  0.2667
  254ETHOX  H2140980   8.047  17.318  15.906  0.7162  0.9724  2.0652
  254ETHOX  H2340981   8.108  17.296  15.745 -2.3914 -0.9359  0.5511
  255ETHOX   O140982   8.047  17.485  15.791  0.0845 -0.2831 -0.5256
  255ETHOX   C140983   7.905  17.464  15.772 -0.6696 -0.5102 -0.5581
  255ETHOX  H1140984   7.880  17.357  15.759  0.8618 -0.7207 -2.4048
  255ETHOX  H1340985   7.873  17.522  15.682  0.4634  0.5707 -0.2859
  255ETHOX   C240986   7.837  17.525  15.901  0.1252  0.2492 -0.1622
  255ETHOX  H2140987   7.877  17.477  15.993  0.8542  0.6844 -0.2376
  255ETHOX  H2340988   7.730  17.503  15.884  0.1235 -0.3324  0.5862
  256ETHOX   O140989   7.859  17.664  15.910 -0.7837  0.9670  0.4057
  256ETHOX   C140990   7.809  17.711  16.032 -0.0796  0.6012 -0.2060
  256ETHOX  H1140991   7.719  17.655  16.064 -0.5616  0.9695 -0.8866
  256ETHOX  H1340992   7.902  17.704  16.092  1.2654 -1.4840 -2.3928
  256ETHOX   C240993   7.777  17.861  16.037  0.3080 -0.6754  0.6142
  256ETHOX  H2140994   7.856  17.918  15.984  1.1875 -2.0404  0.4176
  256ETHOX  H2340995   7.778  17.902  16.141 -1.5454 -1.2712  0.8996
  257ETHOX   O140996   7.658  17.901  15.976  0.4075 -0.0689 -0.0379
  257ETHOX   C140997   7.640  18.040  15.947 -0.2025  0.3776  0.0902
  257ETHOX  H1140998   7.693  18.062  15.852  2.4583  1.5090  1.7286
  257ETHOX  H1340999   7.684  18.101  16.028  0.0207  0.2093  0.0964
  257ETHOX   C241000   7.485  18.080  15.941 -0.3298  0.5041 -0.1358
  257ETHOX  H2141001   7.434  18.052  16.036  0.4547 -0.5007  0.0139
  257ETHOX  H2341002   7.435  18.015  15.867 -0.3392 -0.1087  0.4005
  258ETHOX   O141003   7.465  18.216  15.911  0.7395 -0.0574  0.5937
  258ETHOX   C141004   7.329  18.250  15.943 -0.2177 -0.0539  0.4114
  258ETHOX  H1141005   7.257  18.221  15.864  0.2560  1.2849 -0.5393
  258ETHOX  H1341006   7.307  18.195  16.037  1.9733 -3.2924 -0.8019
  258ETHOX   C241007   7.298  18.401  15.956  0.6333  0.1112 -0.8025
  258ETHOX  H2141008   7.197  18.420  15.914 -0.8413 -0.6709  2.0838
  258ETHOX  H2341009   7.365  18.462  15.893  0.9101 -0.1178 -0.7351
  259ETHOX   O141010   7.297  18.441  16.099 -0.5477 -0.4916  0.5696
  259ETHOX   C141011   7.286  18.591  16.097 -0.0088  0.6289  0.9120
  259ETHOX  H1141012   7.361  18.638  16.030 -0.8570  0.2874 -0.3174
  259ETHOX  H1341013   7.188  18.621  16.054 -1.0927 -1.7191  1.6160
  259ETHOX   C241014   7.308  18.637  16.237  0.0903  0.3549  0.4353
  259ETHOX  H2141015   7.351  18.740  16.240  0.9794 -0.0244  0.8655
  259ETHOX  H2341016   7.387  18.574  16.282 -1.6336 -0.3085  2.6688
  260ETHOX   O141017   7.191  18.632  16.321  0.1639 -0.6029  1.1727
  260ETHOX   C141018   7.221  18.684  16.447  0.4159 -0.0557 -0.1770
  260ETHOX  H1141019   7.319  18.645  16.480 -0.0952 -1.2299 -0.0019
  260ETHOX  H1341020   7.213  18.795  16.440 -2.8258 -0.1684  0.0773
  260ETHOX   C241021   7.107  18.649  16.546 -0.0161  0.5155 -0.5738
  260ETHOX  H2141022   7.141  18.692  16.643  1.0310 -1.1426 -0.1558
  260ETHOX  H2341023   7.096  18.539  16.556  0.3106  0.5891  0.8716
  261ETHOX   O141024   6.987  18.703  16.502 -0.0449  0.5153  0.0750
  261ETHOX   C141025   6.873  18.644  16.571  0.4785 -0.2166  0.1002
  261ETHOX  H1141026   6.852  18.538  16.544 -2.1233  0.3341 -0.3517
  261ETHOX  H1341027   6.892  18.662  16.679 -0.2948  1.3145  0.0040
  261ETHOX   C241028   6.749  18.736  16.529 -0.2653  0.2636 -0.3523
  261ETHOX  H2141029   6.780  18.842  16.522  0.5043  0.0140 -0.9380
  261ETHOX  H2341030   6.667  18.739  16.604  0.6928  0.6603  0.7218
  262ETHOX   O141031   6.693  18.693  16.410  0.0216  0.1008 -0.6785
  262ETHOX   C141032   6.584  18.776  16.364 -0.7490  0.7111  0.3778
  262ETHOX  H1141033   6.639  18.871  16.346  1.2705 -0.6622 -1.2880
  262ETHOX  H1341034   6.503  18.784  16.439 -1.2333  1.3722 -0.2037
  262ETHOX   C241035   6.523  18.727  16.230 -0.2787 -0.2674  0.8666
  262ETHOX  H2141036   6.601  18.705  16.154 -0.7296 -0.2252  0.3848
  262ETHOX  H2341037   6.464  18.815  16.196  0.7244 -0.4844 -1.7011
  263ETHOX   O141038   6.439  18.614  16.260  0.3980  0.6631  0.1656
  263ETHOX   C141039   6.427  18.535  16.145 -0.5043  0.4531  0.6665
  263ETHOX  H1141040   6.529  18.499  16.118 -0.8830 -0.0612 -0.0797
  263ETHOX  H1341041   6.380  18.596  16.065  1.4891  0.8100 -0.3047
  263ETHOX   C241042   6.336  18.413  16.162  0.2295 -1.0136 -0.7999
  263ETHOX  H2141043   6.235  18.449  16.191 -0.5757 -2.3633 -1.7731
  263ETHOX  H2341044   6.376  18.341  16.236 -1.5529 -0.5116  0.7415
  264ETHOX   O141045   6.321  18.342  16.038 -0.0221  0.6208 -0.6512
  264ETHOX   C141046   6.235  18.223  16.042  0.0319 -0.2847 -0.6497
  264ETHOX  H1141047   6.222  18.191  16.147 -0.7170  0.3701 -0.5363
  264ETHOX  H1341048   6.289  18.142  15.988 -0.0668 -0.0715 -1.0738
  264ETHOX   C241049   6.094  18.240  15.987 -0.0135 -0.7006  0.0987
  264ETHOX  H2141050   6.041  18.318  16.045  0.7701 -0.3175  0.3027
  264ETHOX  H2341051   6.035  18.146  15.997 -0.4986 -0.2528  1.7756
  265ETHOX   O141052   6.090  18.287  15.850  0.4405 -0.2071  0.3268
  265ETHOX   C141053   6.078  18.180  15.757  0.1810 -0.0901 -0.8678
  265ETHOX  H1141054   6.176  18.128  15.749  1.0580  1.4566 -0.6572
  265ETHOX  H1341055   6.001  18.106  15.785  0.9375  0.6481  4.1813
  265ETHOX   C241056   6.061  18.233  15.617 -0.3317 -0.2560 -0.1323
  265ETHOX  H2141057   6.078  18.149  15.546 -0.3590  0.2441 -0.7346
  265ETHOX  H2341058   6.145  18.303  15.598  1.4397 -1.8331  1.4187
  265ETHOX   OZ41059   5.935  18.289  15.593  0.2574 -0.0805 -0.6691
  265ETHOX  HZ141060   5.941  18.291  15.497 -0.8706 -1.8723 -0.8340
    1ETHOX   O141061  15.112   8.297  10.876  0.1571  0.4457 -0.3057
    1ETHOX  HO141062  15.207   8.295  10.889 -0.0893 -0.1015  1.9112
    1ETHOX   C141063  15.077   8.428  10.839 -0.0114  0.7805 -0.7019
    1ETHOX  H1141064  15.120   8.454  10.740  1.7461  1.5656  0.2215
    1ETHOX  H1341065  15.112   8.494  10.921 -0.8511  1.0240 -0.5273
    1ETHOX   C241066  14.925   8.456  10.833 -0.2809 -0.4676 -0.2896
    1ETHOX  H2141067  14.866   8.386  10.770  0.1090 -2.0193  1.0021
    1ETHOX  H2341068  14.916   8.554  10.781 -1.2012 -0.9733 -1.1321
    2ETHOX   O141069  14.850   8.462  10.962 -0.7117 -0.0608  0.1613
    2ETHOX   C141070  14.861   8.587  11.032  0.0733 -0.0136 -0.0584
    2ETHOX  H1141071  14.966   8.619  11.016  0.4725 -1.7845 -1.3321
    2ETHOX  H1341072  14.809   8.665  10.972  3.6597  0.7075 -2.5672
    2ETHOX   C241073  14.843   8.593  11.188  0.1623  0.6248 -0.3431
    2ETHOX  H2141074  14.750   8.546  11.225  0.3495  2.2685  2.5600
    2ETHOX  H2341075  14.844   8.699  11.221 -0.2869  0.6047 -0.2608
    3ETHOX   O141076  14.957   8.530  11.253 -0.1724  0.0697  0.4593
    3ETHOX   C141077  14.963   8.387  11.239 -0.2667  0.3942  0.0735
    3ETHOX  H1141078  14.964   8.346  11.136 -0.4001 -3.0567  1.3207
    3ETHOX  H1341079  14.874   8.347  11.292 -2.1299  0.8598 -2.5284
    3ETHOX   C241080  15.092   8.328  11.303  0.6869 -0.6718  0.0395
    3ETHOX  H2141081  15.068   8.228  11.344 -1.2943 -0.5789 -0.8204
    3ETHOX  H2341082  15.126   8.390  11.389 -1.4670 -0.1763  0.5715
    4ETHOX   O141083  15.197   8.323  11.210 -0.0179  0.4396 -0.7485
    4ETHOX   C141084  15.273   8.447  11.223 -0.2499 -0.2205  0.2605
    4ETHOX  H1141085  15.220   8.534  11.179  1.7020  0.4776 -0.7991
    4ETHOX  H1341086  15.309   8.457  11.328  1.2477 -1.2901 -0.1256
    4ETHOX   C241087  15.388   8.432  11.134 -0.9668  0.1485 -0.2088
    4ETHOX  H2141088  15.450   8.343  11.157  2.3010  1.7025 -2.1716
    4ETHOX  H2341089  15.454   8.517  11.160 -0.6659  0.2348 -1.1916
    5ETHOX   O141090  15.361   8.441  10.991  0.3778 -0.3453 -0.1078
    5ETHOX   C141091  15.486   8.435  10.919 -0.7673 -0.2667 -0.2247
    5ETHOX  H1141092  15.527   8.538  10.911 -1.7556  0.1862  0.3317
    5ETHOX  H1341093  15.561   8.360  10.953  1.0441  1.0495 -1.1864
    5ETHOX   C241094  15.450   8.388  10.775 -0.7971 -0.3309  0.9041
    5ETHOX  H2141095  15.537   8.409  10.710 -1.1513 -0.2618  0.4451
    5ETHOX  H2341096  15.371   8.456  10.737  0.3512  0.4066 -0.2193
    6ETHOX   O141097  15.418   8.245  10.755  0.0819  0.4477 -0.2293
    6ETHOX   C141098  15.393   8.202  10.614 -0.3720  0.6053  0.1723
    6ETHOX  H1141099  15.293   8.231  10.576 -0.5976  1.0477  1.0977
    6ETHOX  H1341100  15.468   8.254  10.549  0.0667 -0.8930 -0.5584
    6ETHOX   C241101  15.415   8.047  10.576 -0.6162  0.5253  0.0007
    6ETHOX  H2141102  15.345   8.004  10.501  0.9808 -2.2888 -0.0034
    6ETHOX  H2341103  15.381   7.992  10.666  2.0245 -1.5811 -0.1721
    7ETHOX   O141104  15.553   8.004  10.554  0.4055 -0.0705 -0.0970
    7ETHOX   C141105  15.567   7.870  10.607  0.2556 -0.5256  0.4091
    7ETHOX  H1141106  15.570   7.882  10.718 -1.4175  0.1721  0.4071
    7ETHOX  H1341107  15.482   7.803  10.586  0.4582 -0.6085 -0.1598
    7ETHOX   C241108  15.700   7.798  10.572 -0.1906 -0.2808  0.0368
    7ETHOX  H2141109  15.719   7.714  10.642  0.2351  1.0792  1.6490
    7ETHOX  H2341110  15.782   7.872  10.586 -1.3913  0.7427  2.1098
    8ETHOX   O141111  15.695   7.746  10.440  0.5078  0.6257 -0.1064
    8ETHOX   C141112  15.817   7.694  10.391 -0.6041 -0.0621  0.4004
    8ETHOX  H1141113  15.865   7.651  10.481 -1.5584 -1.5352  0.2432
    8ETHOX  H1341114  15.884   7.774  10.351 -0.0847 -0.4023  0.5834
    8ETHOX   C241115  15.807   7.581  10.282  0.6256 -0.3871 -0.1256
    8ETHOX  H2141116  15.905   7.560  10.233  0.3935  0.8970 -1.2121
    8ETHOX  H2341117  15.744   7.617  10.198 -1.5770 -1.7982  0.8458
    9ETHOX   O141118  15.754   7.452  10.327 -0.8936 -0.4462  0.5815
    9ETHOX   C141119  15.611   7.451  10.312 -0.3337  0.7017 -0.1392
    9ETHOX  H1141120  15.573   7.530  10.381  1.0968 -0.4520  2.0976
    9ETHOX  H1341121  15.590   7.473  10.205 -0.0695 -1.9431 -0.8030
    9ETHOX   C241122  15.550   7.319  10.349 -0.8282  0.3142 -0.2911
    9ETHOX  H2141123  15.604   7.228  10.315 -2.4210 -1.0444  0.6664
    9ETHOX  H2341124  15.446   7.320  10.309 -0.8412  1.5285 -0.2453
   10ETHOX   O141125  15.540   7.309  10.491  0.6879 -0.1142 -0.0386
   10ETHOX   C141126  15.506   7.178  10.537 -0.9072 -0.2570  0.6050
   10ETHOX  H1141127  15.591   7.108  10.526  0.6499  1.1935  2.6249
   10ETHOX  H1341128  15.422   7.149  10.471 -0.4614 -0.3255  0.0678
   10ETHOX   C241129  15.475   7.175  10.687 -0.0542 -0.3549  0.3851
   10ETHOX  H2141130  15.578   7.188  10.725  0.2996 -0.7679 -0.4097
   10ETHOX  H2341131  15.429   7.078  10.717 -0.4167 -1.3898 -3.1004
   11ETHOX   O141132  15.378   7.270  10.733  0.1487 -0.0639  0.4451
   11ETHOX   C141133  15.378   7.287  10.869  0.4973  0.5284 -0.9772
   11ETHOX  H1141134  15.318   7.206  10.915  0.2308  2.2813  2.0873
   11ETHOX  H1341135  15.480   7.281  10.913  0.1762  1.3823 -0.0731
   11ETHOX   C241136  15.297   7.415  10.918 -0.1437  0.3085  0.6229
   11ETHOX  H2141137  15.199   7.410  10.867 -1.6134  0.0856  3.2668
   11ETHOX  H2341138  15.276   7.409  11.027 -0.9549  0.3963  0.4756
   12ETHOX   O141139  15.378   7.527  10.884  0.5016  0.1989 -0.8427
   12ETHOX   C141140  15.307   7.642  10.935  0.3206 -0.1133 -0.5479
   12ETHOX  H1141141  15.253   7.623  11.031  0.8224 -2.1658 -0.6249
   12ETHOX  H1341142  15.224   7.661  10.864  0.5726 -1.3143 -1.1820
   12ETHOX   C241143  15.394   7.767  10.939 -0.0127 -0.0196  0.1717
   12ETHOX  H2141144  15.328   7.856  10.952  0.9773  0.6991  0.4103
   12ETHOX  H2341145  15.462   7.771  10.851  0.6905  3.0029  0.7445
   13ETHOX   O141146  15.478   7.784  11.053 -0.6237 -0.0142  0.4537
   13ETHOX   C141147  15.573   7.891  11.039 -0.1404 -0.8023  0.1809
   13ETHOX  H1141148  15.658   7.850  10.981  0.0384 -1.8823  1.1662
   13ETHOX  H1341149  15.523   7.975  10.987 -0.9829 -1.7730 -0.5895
   13ETHOX   C241150  15.631   7.936  11.180 -0.2412  0.2642 -0.0023
   13ETHOX  H2141151  15.727   7.989  11.163  1.3900 -1.8759  1.9481
   13ETHOX  H2341152  15.640   7.851  11.250  1.5661  2.3914  2.5663
   14ETHOX   O141153  15.530   8.016  11.233 -0.3622  0.3270 -0.1291
   14ETHOX   C141154  15.566   8.099  11.342 -0.4456 -0.6401  0.3979
   14ETHOX  H1141155  15.626   8.182  11.300 -1.6948  0.1815  0.1741
   14ETHOX  H1341156  15.628   8.043  11.415 -0.0657 -1.0024 -0.1985
   14ETHOX   C241157  15.447   8.171  11.401  0.5687 -0.7218  0.2506
   14ETHOX  H2141158  15.381   8.199  11.316  2.2384  1.5121 -0.3869
   14ETHOX  H2341159  15.480   8.267  11.445 -0.7182 -0.5226  0.8442
   15ETHOX   O141160  15.388   8.097  11.515 -0.6639  0.7860 -0.8136
   15ETHOX   C141161  15.303   7.992  11.463 -0.3046 -0.5866  0.1330
   15ETHOX  H1141162  15.223   8.033  11.398  0.7610 -0.9050 -1.4400
   15ETHOX  H1341163  15.360   7.917  11.405 -0.8191 -1.8729  1.2440
   15ETHOX   C241164  15.232   7.917  11.578  0.2807  0.5381 -0.0294
   15ETHOX  H2141165  15.231   7.811  11.545 -0.8588  0.3246  0.6372
   15ETHOX  H2341166  15.296   7.929  11.669  2.1847  0.5684 -1.3225
   16ETHOX   O141167  15.096   7.965  11.603  0.1690  0.6891 -0.8965
   16ETHOX   C141168  15.026   7.868  11.677  0.0877  0.3256  0.4038
   16ETHOX  H1141169  15.004   7.783  11.610  0.3266  0.4369  0.1865
   16ETHOX  H1341170  15.091   7.837  11.761  2.8550 -1.3008 -2.1551
   16ETHOX   C241171  14.891   7.920  11.730 -0.2708 -0.1773 -0.6845
   16ETHOX  H2141172  14.901   8.010  11.796  0.6514 -0.9322  0.2318
   16ETHOX  H2341173  14.847   7.844  11.797 -1.4636  2.3870  1.6724
   17ETHOX   O141174  14.809   7.953  11.622  0.4881  0.0823  0.7687
   17ETHOX   C141175  14.696   8.030  11.671 -0.0419  0.4236 -0.2499
   17ETHOX  H1141176  14.661   7.974  11.761  1.6830  0.8476  0.7229
   17ETHOX  H1341177  14.720   8.132  11.707 -1.4562  0.4904  0.6215
   17ETHOX   C241178  14.580   8.046  11.576  0.7311  0.2530 -0.5750
   17ETHOX  H2141179  14.492   8.073  11.638  1.8059  1.8079  0.3187
   17ETHOX  H2341180  14.567   7.946  11.527 -1.0392 -0.6986  1.6451
   18ETHOX   O141181  14.610   8.146  11.481 -0.1863 -0.3968  0.2839
   18ETHOX   C141182  14.505   8.178  11.383  0.1015 -0.6907 -0.0431
   18ETHOX  H1141183  14.443   8.087  11.363  2.1432 -1.8653 -1.3599
   18ETHOX  H1341184  14.434   8.250  11.428 -1.8200 -0.5601 -3.0007
   18ETHOX   C241185  14.564   8.234  11.255  0.0864 -0.1952 -0.7051
   18ETHOX  H2141186  14.638   8.317  11.262 -0.7464  0.5364 -0.3492
   18ETHOX  H2341187  14.482   8.265  11.187  1.5618 -0.1121 -2.5619
   19ETHOX   O141188  14.625   8.126  11.180 -0.0085 -0.3823  0.2749
   19ETHOX   C141189  14.687   8.177  11.060  0.6042 -0.0594 -0.1921
   19ETHOX  H1141190  14.747   8.268  11.079 -1.9942  2.3335 -2.6397
   19ETHOX  H1341191  14.607   8.199  10.987 -0.8973 -1.9389  0.7927
   19ETHOX   C241192  14.787   8.080  10.987 -0.5895 -0.8394 -0.3277
   19ETHOX  H2141193  14.860   8.046  11.064 -0.5284 -1.8293 -0.8157
   19ETHOX  H2341194  14.846   8.118  10.901  0.1091 -0.1837  0.4185
   20ETHOX   O141195  14.723   7.966  10.935 -0.7107  0.3884  0.4156
   20ETHOX   C141196  14.793   7.887  10.837  0.5230 -0.4780 -0.5375
   20ETHOX  H1141197  14.804   7.941  10.740  1.1569  0.5395  0.0835
   20ETHOX  H1341198  14.891   7.862  10.883  0.1269  0.2458  0.7474
   20ETHOX   C241199  14.714   7.763  10.803  0.3020  0.0392 -0.6813
   20ETHOX  H2141200  14.707   7.710  10.899  2.0645 -1.8778 -1.5435
   20ETHOX  H2341201  14.768   7.698  10.731  2.8113 -1.1909  2.1210
   21ETHOX   O141202  14.588   7.793  10.751  0.4730 -0.1837 -0.3331
   21ETHOX   C141203  14.520   7.678  10.715 -0.4689  0.3226  0.2939
   21ETHOX  H1141204  14.412   7.688  10.739 -0.4148 -0.6361  0.9999
   21ETHOX  H1341205  14.555   7.593  10.778  0.6752 -0.8123 -1.7289
   21ETHOX   C241206  14.540   7.630  10.569 -0.1926 -0.1892  0.2546
   21ETHOX  H2141207  14.503   7.526  10.553 -2.1229  0.0983  2.3746
   21ETHOX  H2341208  14.649   7.643  10.553 -0.2503  0.9631  0.7195
   22ETHOX   O141209  14.472   7.712  10.477 -0.2046  0.0626 -0.1190
   22ETHOX   C141210  14.497   7.674  10.338 -0.5345 -0.1663 -0.5806
   22ETHOX  H1141211  14.601   7.641  10.316 -1.0980 -0.8702 -2.3752
   22ETHOX  H1341212  14.438   7.584  10.312  0.6091 -1.2892  0.5362
   22ETHOX   C241213  14.472   7.797  10.253  0.1441 -0.0823 -0.2386
   22ETHOX  H2141214  14.467   7.764  10.147 -0.5699 -1.4694  0.2007
   22ETHOX  H2341215  14.367   7.829  10.274  0.3502  1.0065 -0.7724
   23ETHOX   O141216  14.570   7.900  10.263 -0.2001  0.5976 -0.1716
   23ETHOX   C141217  14.531   8.006  10.180 -0.1381  0.0491  0.0336
   23ETHOX  H1141218  14.425   8.027  10.206  0.1344 -0.7091  1.9159
   23ETHOX  H1341219  14.543   7.979  10.073  2.8524  0.9017  0.0600
   23ETHOX   C241220  14.606   8.138  10.206  0.3342  0.5789 -0.2598
   23ETHOX  H2141221  14.713   8.109  10.209  0.3989  0.4714 -2.1267
   23ETHOX  H2341222  14.576   8.191  10.299  1.8813  1.6033 -0.3032
   24ETHOX   O141223  14.611   8.220  10.094  0.1151 -0.6062  0.3158
   24ETHOX   C141224  14.691   8.336  10.121  0.2647 -0.1797  0.0669
   24ETHOX  H1141225  14.679   8.367  10.227 -0.4110 -1.5751  0.4283
   24ETHOX  H1341226  14.794   8.296  10.131  0.7282  0.3872 -1.9899
   24ETHOX   C241227  14.686   8.455  10.030  0.0182  1.0654 -0.7795
   24ETHOX  H2141228  14.748   8.529  10.084 -0.2984  0.8914 -0.1713
   24ETHOX  H2341229  14.579   8.484  10.035  0.1078  1.1971  0.5658
   25ETHOX   O141230  14.732   8.443   9.897 -0.0307  0.1754 -1.2141
   25ETHOX   C141231  14.684   8.550   9.815  0.7854  0.9623 -0.4230
   25ETHOX  H1141232  14.682   8.644   9.875  1.5439  0.3089  0.6483
   25ETHOX  H1341233  14.576   8.532   9.795  0.1533  4.3669 -0.6773
   25ETHOX   C241234  14.737   8.554   9.673 -0.6228 -0.3613  0.5178
   25ETHOX  H2141235  14.675   8.627   9.617  1.2301  1.0886  0.2303
   25ETHOX  H2341236  14.731   8.451   9.631 -0.0613 -1.0223  1.9889
   26ETHOX   O141237  14.869   8.608   9.652  0.2074  0.4422  0.0477
   26ETHOX   C141238  14.967   8.513   9.699  0.5344 -0.9207  0.4027
   26ETHOX  H1141239  14.957   8.469   9.800 -0.1357 -1.3973  0.1341
   26ETHOX  H1341240  14.966   8.425   9.632 -1.4630 -1.0192  0.4960
   26ETHOX   C241241  15.103   8.584   9.700 -0.1740 -0.1381 -0.1401
   26ETHOX  H2141242  15.122   8.612   9.594 -0.6684 -0.9694 -0.4582
   26ETHOX  H2341243  15.185   8.519   9.737 -1.2807 -0.3414  2.0890
   27ETHOX   O141244  15.108   8.698   9.791 -0.1879 -0.3499 -0.4368
   27ETHOX   C141245  15.234   8.764   9.781  0.3849  0.6776  0.0807
   27ETHOX  H1141246  15.254   8.776   9.673 -1.7884  0.7166 -0.3641
   27ETHOX  H1341247  15.309   8.696   9.827  0.8465 -0.9682 -2.8557
   27ETHOX   C241248  15.238   8.908   9.826  0.3227 -1.0201 -0.4298
   27ETHOX  H2141249  15.141   8.956   9.802  0.4299 -0.5857 -0.0009
   27ETHOX  H2341250  15.325   8.952   9.772 -0.9418  1.1870 -0.7866
   28ETHOX   O141251  15.268   8.910   9.970 -0.1375  0.2785  0.2261
   28ETHOX   C141252  15.261   9.046  10.019 -0.0984  0.3688 -0.6741
   28ETHOX  H1141253  15.179   9.105   9.973  0.5246 -0.9031 -3.6421
   28ETHOX  H1341254  15.245   9.042  10.129 -1.6814  1.5717 -0.8241
   28ETHOX   C241255  15.396   9.113  10.008  0.6099 -0.3968 -0.0015
   28ETHOX  H2141256  15.474   9.039  10.037  1.0766  0.6409  1.5182
   28ETHOX  H2341257  15.406   9.203  10.072  1.1216  1.1471 -2.1134
   29ETHOX   O141258  15.426   9.166   9.877  0.4839 -0.1193  0.2061
   29ETHOX   C141259  15.551   9.238   9.874 -0.3864 -0.4119  0.2027
   29ETHOX  H1141260  15.639   9.183   9.913 -0.1329  0.5472  1.0355
   29ETHOX  H1341261  15.530   9.322   9.944  0.2319 -0.4832  0.4795
   29ETHOX   C241262  15.575   9.284   9.728 -0.2906  0.0271 -0.7124
   29ETHOX  H2141263  15.637   9.376   9.732 -1.5104  0.8318  1.2702
   29ETHOX  H2341264  15.481   9.315   9.679 -0.3850  0.6142 -0.1720
   30ETHOX   O141265  15.645   9.177   9.665 -0.0575  0.1803 -0.4263
   30ETHOX   C141266  15.621   9.168   9.525  0.2418 -0.6498 -0.4509
   30ETHOX  H1141267  15.608   9.272   9.488 -1.5257  0.5961  3.1961
   30ETHOX  H1341268  15.700   9.109   9.475 -0.9198 -1.8087 -0.9670
   30ETHOX   C241269  15.482   9.100   9.494 -0.3043  0.2792  0.6200
   30ETHOX  H2141270  15.470   9.006   9.551 -0.4705 -0.7855 -1.0896
   30ETHOX  H2341271  15.476   9.089   9.383  0.5238  2.3554  0.3111
   31ETHOX   O141272  15.384   9.194   9.530 -0.7215 -0.1662 -0.1546
   31ETHOX   C141273  15.248   9.133   9.529 -0.4673  0.2674 -0.4459
   31ETHOX  H1141274  15.215   9.090   9.432  0.2430  0.6138 -0.8478
   31ETHOX  H1341275  15.248   9.044   9.595  1.6115  1.2792  1.0206
   31ETHOX   C241276  15.148   9.235   9.585 -0.5705 -0.3407  0.8337
   31ETHOX  H2141277  15.192   9.287   9.673 -0.4600  2.7421 -0.8739
   31ETHOX  H2341278  15.055   9.193   9.627 -3.2920  3.2056 -1.0635
   32ETHOX   O141279  15.123   9.337   9.493 -0.0630  0.2726 -0.2062
   32ETHOX   C141280  15.006   9.305   9.420  0.4052  0.0208  0.7124
   32ETHOX  H1141281  15.023   9.216   9.355 -0.0329  1.3057 -1.2404
   32ETHOX  H1341282  14.921   9.280   9.487 -0.4594 -0.6928 -0.6138
   32ETHOX   C241283  14.972   9.421   9.328  0.1046 -0.1567  0.6499
   32ETHOX  H2141284  14.912   9.394   9.238  1.8480  1.5660 -1.1002
   32ETHOX  H2341285  15.070   9.439   9.280  1.0050 -2.4885  1.4470
   33ETHOX   O141286  14.938   9.535   9.406  0.2631  0.5812  0.6622
   33ETHOX   C141287  14.794   9.531   9.423  0.1059 -0.1612 -0.2162
   33ETHOX  H1141288  14.738   9.507   9.330 -1.4765  1.9324  0.1044
   33ETHOX  H1341289  14.778   9.450   9.497 -1.9882  0.0567 -0.3635
   33ETHOX   C241290  14.738   9.666   9.467 -0.7337  0.1750 -0.1293
   33ETHOX  H2141291  14.628   9.652   9.458 -0.5924 -1.7021  0.5884
   33ETHOX  H2341292  14.768   9.758   9.413 -0.8535 -0.4884 -1.3453
   34ETHOX   O141293  14.777   9.701   9.597  0.4265 -0.1880 -0.1243
   34ETHOX   C141294  14.677   9.730   9.693  0.0963 -0.3249 -0.6572
   34ETHOX  H1141295  14.604   9.648   9.707  0.4730 -0.5982 -0.2852
   34ETHOX  H1341296  14.626   9.818   9.647  0.3451 -0.5296 -1.3308
   34ETHOX   C241297  14.747   9.777   9.816 -0.3687 -0.0325  0.2768
   34ETHOX  H2141298  14.671   9.835   9.874 -1.4846  0.7155 -1.8454
   34ETHOX  H2341299  14.838   9.837   9.796  0.0196  0.1264  2.3021
   35ETHOX   O141300  14.783   9.664   9.896 -0.2270  0.2751  0.2046
   35ETHOX   C141301  14.819   9.706  10.023 -0.0348 -0.3017 -0.1691
   35ETHOX  H1141302  14.917   9.758  10.029 -0.5926  0.9680 -1.5353
   35ETHOX  H1341303  14.744   9.764  10.081  0.7471 -0.3369  0.9251
   35ETHOX   C241304  14.836   9.589  10.118  0.2740  0.7329  0.5265
   35ETHOX  H2141305  14.748   9.524  10.099  1.0666 -0.0391 -0.6769
   35ETHOX  H2341306  14.831   9.639  10.217 -2.0906 -1.3027  1.5291
   36ETHOX   O141307  14.968   9.517  10.109 -0.4811  0.4907 -0.2118
   36ETHOX   C141308  14.969   9.392  10.172 -0.8973 -0.2775  0.6209
   36ETHOX  H1141309  14.927   9.414  10.272 -0.9296  2.9678  0.0024
   36ETHOX  H1341310  15.076   9.365  10.184 -0.9020 -0.6565 -0.0641
   36ETHOX   C241311  14.881   9.275  10.111  0.1333  0.3041  0.2526
   36ETHOX  H2141312  14.926   9.175  10.129  2.7852  1.0119 -1.7427
   36ETHOX  H2341313  14.882   9.283  10.000  1.3718  1.8388  0.3413
   37ETHOX   O141314  14.744   9.264  10.160 -0.2974 -0.2805  0.3574
   37ETHOX   C141315  14.715   9.163  10.254 -0.6128  0.3861 -0.3271
   37ETHOX  H1141316  14.739   9.067  10.204 -2.1757 -0.2641  0.1420
   37ETHOX  H1341317  14.794   9.169  10.332 -0.5923 -1.7298 -0.1219
   37ETHOX   C241318  14.570   9.167  10.303  0.6103  0.6551 -0.9216
   37ETHOX  H2141319  14.537   9.270  10.326 -3.6154 -0.6510 -0.3662
   37ETHOX  H2341320  14.576   9.107  10.396 -0.7657 -1.5018 -2.1236
   38ETHOX   O141321  14.475   9.091  10.225  0.3881  0.0069 -0.2891
   38ETHOX   C141322  14.340   9.122  10.264 -0.9637 -0.3550  0.7704
   38ETHOX  H1141323  14.322   9.231  10.253 -0.8569 -0.3159  0.9668
   38ETHOX  H1341324  14.329   9.090  10.370  1.4585  1.6668  1.7589
   38ETHOX   C241325  14.256   9.045  10.165 -0.1305  0.3184  0.2028
   38ETHOX  H2141326  14.266   9.062  10.056 -0.5136 -0.8330 -0.0247
   38ETHOX  H2341327  14.152   9.068  10.199 -0.8140 -1.2623 -0.7372
   39ETHOX   O141328  14.264   8.899  10.198  0.3803 -0.5791 -0.0823
   39ETHOX   C141329  14.161   8.820  10.141 -0.2595 -0.1166  0.6196
   39ETHOX  H1141330  14.090   8.805  10.225  0.2685 -0.7622  0.9581
   39ETHOX  H1341331  14.107   8.882  10.066 -1.8699 -1.8208  0.3074
   39ETHOX   C241332  14.192   8.680  10.089  0.4586 -0.6825 -0.1818
   39ETHOX  H2141333  14.279   8.668  10.021  0.5438  0.7384 -0.3659
   39ETHOX  H2341334  14.112   8.628  10.032  0.5873  0.8065 -1.8286
   40ETHOX   O141335  14.215   8.594  10.200 -0.1451 -0.3813  0.2875
   40ETHOX   C141336  14.318   8.495  10.164 -0.3631 -0.9800 -0.2154
   40ETHOX  H1141337  14.413   8.550  10.184  1.0066 -3.0511 -0.7179
   40ETHOX  H1341338  14.319   8.473  10.055  1.5275  0.0860 -0.4531
   40ETHOX   C241339  14.317   8.372  10.250  0.3485 -0.0827  0.6486
   40ETHOX  H2141340  14.283   8.407  10.350 -1.8004 -0.1321 -0.0131
   40ETHOX  H2341341  14.420   8.330  10.253  0.5119  0.0742 -1.4955
   41ETHOX   O141342  14.234   8.268  10.203  0.4052 -0.1786 -0.2852
   41ETHOX   C141343  14.204   8.178  10.310 -0.0769  0.2130  0.5232
   41ETHOX  H1141344  14.301   8.132  10.339 -0.2224 -0.8561 -0.6339
   41ETHOX  H1341345  14.164   8.224  10.403  1.4856 -0.6365  1.6637
   41ETHOX   C241346  14.110   8.058  10.283  0.7891  0.4496 -0.9939
   41ETHOX  H2141347  14.005   8.094  10.283  0.1917 -1.0369  1.6311
   41ETHOX  H2341348  14.106   7.999  10.377 -1.5749  1.2617 -0.5366
   42ETHOX   O141349  14.148   7.979  10.169  0.2477 -0.1649  0.1196
   42ETHOX   C141350  14.071   7.865  10.170  0.4174 -0.3161 -0.0285
   42ETHOX  H1141351  14.082   7.809  10.266 -2.6408  0.9805  1.2113
   42ETHOX  H1341352  13.966   7.901  10.161 -0.2983 -2.3842 -0.4919
   42ETHOX   C241353  14.094   7.777  10.045 -0.2084 -0.4114  0.5632
   42ETHOX  H2141354  14.108   7.849   9.961  0.9166  3.0124  3.4167
   42ETHOX  H2341355  14.008   7.710  10.028  0.4965 -1.3111  0.4584
   43ETHOX   O141356  14.218   7.717  10.063  0.1763  0.8122 -0.2903
   43ETHOX   C141357  14.235   7.613   9.974  0.5986  0.0202  1.1648
   43ETHOX  H1141358  14.146   7.547   9.973  0.6506 -0.0733 -0.2791
   43ETHOX  H1341359  14.241   7.654   9.871  2.6153 -0.4352  1.0615
   43ETHOX   C241360  14.357   7.532   9.998  0.0470 -0.3509  0.8182
   43ETHOX  H2141361  14.352   7.445   9.928  3.1179 -0.9349  1.1505
   43ETHOX  H2341362  14.358   7.505  10.105  2.6315  1.0465  1.2422
   44ETHOX   O141363  14.480   7.611   9.950 -0.0204 -0.1831 -0.6305
   44ETHOX   C141364  14.608   7.547   9.969 -0.4028  0.5448  0.1539
   44ETHOX  H1141365  14.677   7.633   9.985 -3.1710  2.8362  0.7124
   44ETHOX  H1341366  14.590   7.473  10.049 -0.1630  0.7104  0.3599
   44ETHOX   C241367  14.640   7.467   9.832  0.3149  0.0593 -0.1401
   44ETHOX  H2141368  14.555   7.395   9.827 -0.7400  1.3507 -1.6352
   44ETHOX  H2341369  14.736   7.413   9.845 -0.2172 -0.7957  0.3653
   45ETHOX   O141370  14.645   7.547   9.718  0.0477 -0.4297 -0.5304
   45ETHOX   C141371  14.753   7.641   9.727 -0.1951 -0.3149  0.6831
   45ETHOX  H1141372  14.846   7.581   9.735  0.5744  0.4423 -1.6370
   45ETHOX  H1341373  14.753   7.714   9.812 -0.8443 -0.0170  0.4320
   45ETHOX   C241374  14.771   7.733   9.604  0.0793  0.7392 -0.8731
   45ETHOX  H2141375  14.757   7.674   9.511 -2.0824 -1.1398  0.5505
   45ETHOX  H2341376  14.873   7.777   9.595  1.4801 -2.1983 -0.6662
   46ETHOX   O141377  14.672   7.836   9.614  0.8213  0.0934  0.1558
   46ETHOX   C141378  14.714   7.946   9.531  0.0389  0.3859 -0.2864
   46ETHOX  H1141379  14.651   8.033   9.557  1.1962  0.9619  0.6533
   46ETHOX  H1341380  14.818   7.985   9.538 -0.3345  1.4694 -0.6174
   46ETHOX   C241381  14.701   7.928   9.375  0.4676  0.8820 -0.4768
   46ETHOX  H2141382  14.733   8.017   9.317 -1.7045  2.2371  0.2812
   46ETHOX  H2341383  14.593   7.909   9.354  0.3142 -0.1090  1.0297
   47ETHOX   O141384  14.784   7.823   9.325 -0.5931  0.2391 -0.1740
   47ETHOX   C141385  14.756   7.790   9.188 -0.4517 -0.2146  0.5125
   47ETHOX  H1141386  14.770   7.876   9.119 -1.3362 -0.2997  0.2096
   47ETHOX  H1341387  14.652   7.752   9.176 -0.9831  1.4240 -0.4352
   47ETHOX   C241388  14.839   7.671   9.129 -0.1673 -0.4157  0.6664
   47ETHOX  H2141389  14.797   7.665   9.026 -0.4542  0.0861  0.7541
   47ETHOX  H2341390  14.822   7.572   9.176  0.9901 -0.9613  0.0020
   48ETHOX   O141391  14.984   7.693   9.118  0.0207 -0.2101 -0.3683
   48ETHOX   C141392  15.047   7.602   9.027  0.0893 -0.0639  0.1749
   48ETHOX  H1141393  15.009   7.497   9.030  2.0365 -0.8335 -0.5086
   48ETHOX  H1341394  15.027   7.632   8.922 -0.9004 -1.7882 -0.1680
   48ETHOX   C241395  15.203   7.608   9.039 -0.9971  0.0419 -0.0070
   48ETHOX  H2141396  15.249   7.528   8.977 -2.5228 -0.1675 -0.9260
   48ETHOX  H2341397  15.252   7.698   8.996  1.0625 -1.2639 -0.5332
   49ETHOX   O141398  15.242   7.589   9.176  0.2603  0.1384  0.2114
   49ETHOX   C141399  15.381   7.571   9.199 -0.1021 -0.1683  0.1734
   49ETHOX  H1141400  15.449   7.649   9.158  0.3518 -0.7659 -0.2364
   49ETHOX  H1341401  15.423   7.482   9.148  0.0519  0.2158 -0.3787
   49ETHOX   C241402  15.394   7.558   9.351 -0.0642  0.0728 -0.1505
   49ETHOX  H2141403  15.361   7.653   9.400 -1.7624 -0.8053  0.4658
   49ETHOX  H2341404  15.501   7.553   9.381 -0.5412  0.2363  1.7537
   50ETHOX   O141405  15.321   7.439   9.397  0.2953  0.0200  0.1220
   50ETHOX   C141406  15.334   7.412   9.533 -0.4877  0.2488 -0.6980
   50ETHOX  H1141407  15.343   7.500   9.600  1.3704 -0.2699 -0.2141
   50ETHOX  H1341408  15.239   7.362   9.560 -1.2597  1.9025 -0.2383
   50ETHOX   C241409  15.433   7.298   9.545  0.2594 -0.0052 -0.1905
   50ETHOX  H2141410  15.397   7.210   9.488  1.6257  0.3773 -1.6879
   50ETHOX  H2341411  15.453   7.270   9.651  0.7808 -0.0699 -0.3032
   51ETHOX   O141412  15.557   7.345   9.501  0.0961 -0.6968  0.3792
   51ETHOX   C141413  15.625   7.414   9.606  0.4908 -0.9435  0.6383
   51ETHOX  H1141414  15.649   7.345   9.689  1.2039 -3.2956 -1.4017
   51ETHOX  H1341415  15.564   7.498   9.645  3.1629  1.9794 -0.9972
   51ETHOX   C241416  15.767   7.472   9.569 -0.4445 -0.3112 -0.7268
   51ETHOX  H2141417  15.816   7.387   9.516  1.5936 -1.4326  2.5704
   51ETHOX  H2341418  15.829   7.490   9.660 -1.2727  0.2274 -0.2575
   52ETHOX   O141419  15.751   7.590   9.489  0.4721 -0.2019  0.6216
   52ETHOX   C141420  15.871   7.622   9.414  0.0589 -0.3477  0.2580
   52ETHOX  H1141421  15.964   7.621   9.475  0.4289  0.2286 -0.2761
   52ETHOX  H1341422  15.883   7.536   9.346  1.9644  0.3387 -0.3311
   52ETHOX   C241423  15.868   7.758   9.341  0.6636 -0.2497 -0.0513
   52ETHOX  H2141424  15.785   7.769   9.269 -1.1542 -0.7202  1.8559
   52ETHOX  H2341425  15.964   7.765   9.286  1.8147  2.0040  2.0455
   53ETHOX   O141426  15.873   7.860   9.439 -0.1349 -0.3415 -0.2771
   53ETHOX   C141427  15.898   7.991   9.388  0.1249  0.6241  0.0200
   53ETHOX  H1141428  15.994   7.991   9.332  0.0503  1.9141 -0.1396
   53ETHOX  H1341429  15.828   8.024   9.307 -0.3501  0.2721  0.2886
   53ETHOX   C241430  15.910   8.086   9.506 -0.9065 -0.0834  0.4590
   53ETHOX  H2141431  15.950   8.181   9.464  0.8419 -0.9507  0.0563
   53ETHOX  H2341432  15.983   8.046   9.579 -0.0727 -0.0390 -0.3209
   54ETHOX   O141433  15.789   8.124   9.570  0.6854 -0.3765 -0.2377
   54ETHOX   C141434  15.799   8.229   9.661 -0.2545 -0.1187 -0.7629
   54ETHOX  H1141435  15.893   8.215   9.718 -0.3580  1.5787 -0.1216
   54ETHOX  H1341436  15.803   8.324   9.602  0.1806  1.3763  1.5275
   54ETHOX   C241437  15.680   8.249   9.749 -1.2786  0.5269  0.1475
   54ETHOX  H2141438  15.712   8.339   9.806  1.7788 -0.7483  0.6339
   54ETHOX  H2341439  15.671   8.174   9.831  0.2900 -1.9065 -1.7630
   55ETHOX   O141440  15.560   8.274   9.677  0.1709  0.0970 -0.1298
   55ETHOX   C141441  15.450   8.267   9.763  0.2884  0.3220  0.1114
   55ETHOX  H1141442  15.459   8.171   9.818 -1.9845  0.0046  0.0486
   55ETHOX  H1341443  15.466   8.350   9.835 -0.1640  1.1223 -0.6910
   55ETHOX   C241444  15.306   8.270   9.719  0.7752  0.6584  0.3583
   55ETHOX  H2141445  15.245   8.270   9.812  0.3777 -3.0136  0.2241
   55ETHOX  H2341446  15.292   8.363   9.659  1.7946  0.4757 -0.1964
   56ETHOX   O141447  15.270   8.154   9.642  0.0370  0.4395  0.3775
   56ETHOX   C141448  15.136   8.157   9.596  0.7648  0.0047 -0.8766
   56ETHOX  H1141449  15.126   8.104   9.498  0.3375  1.7574 -1.8236
   56ETHOX  H1341450  15.118   8.263   9.569  3.0196  1.1890  1.8888
   56ETHOX   C241451  15.033   8.110   9.695  0.0500 -0.0239 -0.0150
   56ETHOX  H2141452  15.075   8.118   9.798 -3.0363  1.6310  1.2255
   56ETHOX  H2341453  15.025   8.001   9.676 -0.2984 -0.8240  3.7671
   57ETHOX   O141454  14.911   8.178   9.698  0.0149  0.2007  0.0069
   57ETHOX   C141455  14.843   8.171   9.818  0.1219 -0.3543  0.0062
   57ETHOX  H1141456  14.884   8.245   9.890 -2.6107  2.1066 -0.7654
   57ETHOX  H1341457  14.743   8.210   9.790 -0.1849  0.6037  2.1942
   57ETHOX   C241458  14.817   8.040   9.899 -0.4155  0.2563  0.4471
   57ETHOX  H2141459  14.803   7.956   9.828  2.7465 -1.2494  1.4267
   57ETHOX  H2341460  14.732   8.041   9.970 -0.9107 -2.6021 -0.0177
   58ETHOX   O141461  14.928   8.017   9.988 -0.4199 -0.0240  0.0927
   58ETHOX   C141462  14.954   7.885  10.023  0.0945 -0.4703  0.2293
   58ETHOX  H1141463  14.873   7.824   9.976 -0.4777  0.1865  0.3568
   58ETHOX  H1341464  14.933   7.880  10.132  1.2647  0.7459  0.5396
   58ETHOX   C241465  15.101   7.852   9.987 -0.0243  0.4251  0.1484
   58ETHOX  H2141466  15.118   7.872   9.879 -1.3587  0.4380 -0.0750
   58ETHOX  H2341467  15.114   7.743  10.004 -0.9681  0.3443  0.4544
   59ETHOX   O141468  15.186   7.933  10.066  0.3764  0.4652  0.0095
   59ETHOX   C141469  15.316   7.929  10.023 -0.4141 -0.8448  0.4296
   59ETHOX  H1141470  15.360   7.828  10.021 -0.8048 -1.0351  0.9498
   59ETHOX  H1341471  15.309   7.966   9.919 -0.1658 -1.9110  0.0273
   59ETHOX   C241472  15.410   8.024  10.106 -0.0843 -0.2741  0.0393
   59ETHOX  H2141473  15.519   8.014  10.090  0.4116  0.7890  2.2751
   59ETHOX  H2341474  15.383   7.998  10.211 -3.0956 -0.0255 -0.5699
   60ETHOX   O141475  15.388   8.163  10.085  0.3412  0.2939 -0.1914
   60ETHOX   C141476  15.448   8.258  10.173  0.1193 -0.2022 -0.4543
   60ETHOX  H1141477  15.558   8.272  10.161 -0.2000  2.7361 -0.6895
   60ETHOX  H1341478  15.447   8.227  10.279  0.8559 -0.6740 -0.5751
   60ETHOX   C241479  15.406   8.402  10.144  0.1432  0.2523 -0.6337
   60ETHOX  H2141480  15.400   8.459  10.239 -0.5645  0.5731 -0.8607
   60ETHOX  H2341481  15.302   8.405  10.103 -0.4699 -1.2816  0.7218
   61ETHOX   O141482  15.500   8.470  10.062  0.3821 -0.2467 -0.2566
   61ETHOX   C141483  15.478   8.611  10.039 -0.0677  0.2770  0.8698
   61ETHOX  H1141484  15.520   8.639   9.940 -2.3940 -2.3737 -1.0583
   61ETHOX  H1341485  15.368   8.621  10.028 -0.0206 -0.8076 -1.0677
   61ETHOX   C241486  15.540   8.703  10.144  0.8540  0.2610 -0.0043
   61ETHOX  H2141487  15.498   8.666  10.241 -3.4283 -0.9468 -2.0749
   61ETHOX  H2341488  15.502   8.808  10.146 -0.1496 -0.0847  1.7823
   62ETHOX   O141489  15.682   8.711  10.158 -0.1018  0.0414  0.8172
   62ETHOX   C141490  15.726   8.760  10.287 -0.4252 -0.4992  0.2911
   62ETHOX  H1141491  15.827   8.717  10.303 -0.5130 -1.0779 -0.5926
   62ETHOX  H1341492  15.658   8.720  10.366  1.3874 -2.2594  1.0293
   62ETHOX   C241493  15.742   8.906  10.286 -0.4556  0.7139  0.0946
   62ETHOX  H2141494  15.815   8.935  10.208  0.5791  0.2400  0.8562
   62ETHOX  H2341495  15.785   8.938  10.383  0.5826  1.2291 -0.5271
   63ETHOX   O141496  15.630   8.991  10.261  0.4084  1.1690  0.1767
   63ETHOX   C141497  15.652   9.133  10.294  0.2460 -0.2576  0.5575
   63ETHOX  H1141498  15.562   9.190  10.265 -0.5438 -1.4141  0.6831
   63ETHOX  H1341499  15.660   9.144  10.404 -1.4249 -1.9459  0.9016
   63ETHOX   C241500  15.768   9.196  10.224 -0.1566  0.3251  0.6283
   63ETHOX  H2141501  15.782   9.301  10.258  2.5448  0.1322  0.3315
   63ETHOX  H2341502  15.773   9.212  10.114  3.6555  0.3594  0.6642
   64ETHOX   O141503  15.895   9.141  10.264  0.3281  0.2038  0.0392
   64ETHOX   C141504  15.993   9.165  10.167  0.4739 -0.0170  0.5917
   64ETHOX  H1141505  16.004   9.274  10.146 -0.5162  0.4335  2.2558
   64ETHOX  H1341506  15.970   9.120  10.068 -0.7711  0.2796  0.7231
   64ETHOX   C241507  16.125   9.103  10.203 -0.0123 -0.3169  0.4997
   64ETHOX  H2141508  16.190   9.098  10.113 -0.2439 -1.9108  0.4015
   64ETHOX  H2341509  16.109   8.997  10.232 -1.9958  0.4014  2.2876
   65ETHOX   O141510  16.197   9.164  10.305 -0.2642 -0.5326  0.7932
   65ETHOX   C141511  16.340   9.135  10.301  0.1121  0.2100  0.1399
   65ETHOX  H1141512  16.368   9.126  10.194 -1.7493  1.5840 -0.5164
   65ETHOX  H1341513  16.404   9.216  10.343 -0.5342  0.5987  0.3880
   65ETHOX   C241514  16.387   9.001  10.377 -0.0548  0.1707  0.1539
   65ETHOX  H2141515  16.353   9.018  10.482 -0.8816  2.1555 -0.3808
   65ETHOX  H2341516  16.497   9.003  10.366 -0.0507 -0.5508  0.0174
   66ETHOX   O141517  16.352   8.872  10.328 -0.1396  0.6006  0.7465
   66ETHOX   C141518  16.386   8.763  10.413  0.0540 -0.2307 -0.2844
   66ETHOX  H1141519  16.306   8.761  10.491  1.1061  0.2864  0.8481
   66ETHOX  H1341520  16.484   8.789  10.459 -0.8522  0.3082  1.4644
   66ETHOX   C241521  16.386   8.638  10.322  0.4668  0.3524  0.3752
   66ETHOX  H2141522  16.421   8.554  10.386 -1.6502  0.2871  1.5582
   66ETHOX  H2341523  16.457   8.654  10.238 -2.3313  0.8123 -2.1062
   67ETHOX   O141524  16.247   8.615  10.282  0.3156  0.2501  0.1115
   67ETHOX   C141525  16.244   8.500  10.199 -0.8975  0.1547 -0.0889
   67ETHOX  H1141526  16.322   8.512  10.121  0.5196 -2.9423  0.7188
   67ETHOX  H1341527  16.262   8.405  10.252 -0.1535  0.5442  0.3735
   67ETHOX   C241528  16.116   8.483  10.128  0.2064 -0.0161 -0.5868
   67ETHOX  H2141529  16.032   8.482  10.201 -0.3382  2.5263 -1.0736
   67ETHOX  H2341530  16.123   8.387  10.073  1.5307 -0.3586  0.1539
   68ETHOX   O141531  16.094   8.579  10.026 -0.1007  0.4313  0.1748
   68ETHOX   C141532  16.055   8.701  10.080  0.3446 -0.8839  0.1916
   68ETHOX  H1141533  15.986   8.683  10.165  0.3097 -2.6794 -0.1711
   68ETHOX  H1341534  16.131   8.764  10.132 -0.7063 -0.7854  1.6603
   68ETHOX   C241535  16.017   8.803   9.971  0.3763 -0.2729  0.4281
   68ETHOX  H2141536  16.093   8.821   9.892  0.5778 -0.3220  0.6135
   68ETHOX  H2341537  16.005   8.900  10.023 -0.5149 -0.0901 -0.0952
   69ETHOX   O141538  15.897   8.753   9.910  0.1545  0.4513  0.0515
   69ETHOX   C141539  15.862   8.838   9.797  0.1230 -0.3937  0.4768
   69ETHOX  H1141540  15.845   8.938   9.844  0.6290 -0.9177  1.8283
   69ETHOX  H1341541  15.953   8.842   9.735 -0.0371  1.8348  0.2917
   69ETHOX   C241542  15.727   8.798   9.733  0.6068  0.8308  0.0034
   69ETHOX  H2141543  15.685   8.883   9.675 -0.4716  0.6321  0.4687
   69ETHOX  H2341544  15.658   8.771   9.816  0.7676 -0.2322 -0.2021
   70ETHOX   O141545  15.748   8.685   9.650 -0.0524  0.1827  0.0707
   70ETHOX   C141546  15.634   8.613   9.619  0.3409 -0.1829 -0.0212
   70ETHOX  H1141547  15.662   8.519   9.568  2.9227 -0.2900  1.4223
   70ETHOX  H1341548  15.572   8.597   9.710  0.4971  0.1421  0.1424
   70ETHOX   C241549  15.546   8.691   9.523 -0.3021  0.0097  0.3719
   70ETHOX  H2141550  15.615   8.714   9.439  1.0843  3.1575  2.1799
   70ETHOX  H2341551  15.513   8.789   9.565 -0.0715  0.1386  0.2567
   71ETHOX   O141552  15.433   8.606   9.487  0.1669  0.1054 -0.6515
   71ETHOX   C141553  15.403   8.608   9.351  0.2444 -0.5482 -0.5685
   71ETHOX  H1141554  15.497   8.592   9.292 -0.7242 -1.1163 -2.0206
   71ETHOX  H1341555  15.369   8.713   9.334 -0.2999 -0.7737 -0.8779
   71ETHOX   C241556  15.295   8.518   9.304  0.4354 -1.0410  1.0604
   71ETHOX  H2141557  15.312   8.413   9.339  3.3505 -0.8619  0.3930
   71ETHOX  H2341558  15.290   8.517   9.193  0.3325 -2.2837  1.0618
   72ETHOX   O141559  15.168   8.575   9.339 -0.3411  0.7792  0.0115
   72ETHOX   C141560  15.067   8.480   9.312 -0.0079  0.1553 -0.4986
   72ETHOX  H1141561  15.067   8.438   9.209 -1.6424  2.3682 -1.4761
   72ETHOX  H1341562  15.084   8.383   9.364  0.1538 -0.1535 -1.1231
   72ETHOX   C241563  14.924   8.529   9.342  0.0786  0.0792 -0.4670
   72ETHOX  H2141564  14.917   8.639   9.324 -0.5906  0.4291  1.6190
   72ETHOX  H2341565  14.894   8.517   9.449  0.1370 -0.9551 -0.5628
   73ETHOX   O141566  14.832   8.459   9.251  0.1437  0.2675  0.3275
   73ETHOX   C141567  14.694   8.472   9.292 -0.3271 -0.0706  0.4187
   73ETHOX  H1141568  14.666   8.577   9.315 -2.7285 -1.1811  2.9809
   73ETHOX  H1341569  14.688   8.409   9.383 -1.0597 -1.8831 -0.8376
   73ETHOX   C241570  14.602   8.407   9.188  0.4679 -0.5631  0.4102
   73ETHOX  H2141571  14.614   8.455   9.088 -2.5614 -0.8974 -0.2255
   73ETHOX  H2341572  14.496   8.433   9.209  0.1599 -0.5102 -1.0943
   74ETHOX   O141573  14.610   8.266   9.195  0.2681  0.3050 -0.2871
   74ETHOX   C141574  14.564   8.196   9.076 -0.3135 -0.4112 -0.0644
   74ETHOX  H1141575  14.591   8.266   8.994 -0.1366 -0.1368  0.2253
   74ETHOX  H1341576  14.635   8.111   9.067  0.8283  0.5225 -0.1672
   74ETHOX   C241577  14.421   8.154   9.087  0.5939  0.3840  0.3333
   74ETHOX  H2141578  14.397   8.114   8.986  0.4713 -1.1673  0.9443
   74ETHOX  H2341579  14.358   8.243   9.110  0.5800  0.7120 -0.8765
   75ETHOX   O141580  14.402   8.064   9.200 -0.2809  0.0201  0.5134
   75ETHOX   C141581  14.262   8.032   9.200  0.0139 -0.1337  0.0230
   75ETHOX  H1141582  14.240   7.977   9.106  1.3360 -0.6168 -0.0299
   75ETHOX  H1341583  14.202   8.125   9.197 -0.8275 -0.6697  0.0380
   75ETHOX   C241584  14.229   7.961   9.333  0.1189 -0.5354  0.2548
   75ETHOX  H2141585  14.288   7.867   9.342  0.3454 -0.5599 -1.1784
   75ETHOX  H2341586  14.119   7.947   9.344  0.3366 -0.6283  2.8146
   76ETHOX   O141587  14.266   8.056   9.438  0.1781 -0.0058  0.8076
   76ETHOX   C141588  14.255   8.016   9.575  1.0616  0.7099 -0.4426
   76ETHOX  H1141589  14.315   7.924   9.592 -1.3908 -1.0934 -0.8431
   76ETHOX  H1341590  14.292   8.097   9.640  1.2980  0.2168  0.0422
   76ETHOX   C241591  14.108   7.990   9.613 -0.1623 -0.7631  0.0432
   76ETHOX  H2141592  14.042   8.055   9.551 -0.0196  0.2357  0.9161
   76ETHOX  H2341593  14.084   8.006   9.720  0.2994 -1.0053  0.1821
   77ETHOX   O141594  14.067   7.857   9.592  0.2188  0.2315  0.2828
   77ETHOX   C141595  13.920   7.842   9.605 -0.6156  0.8014  0.3639
   77ETHOX  H1141596  13.884   7.818   9.503  0.4809  0.3518  0.0647
   77ETHOX  H1341597  13.871   7.929   9.652  0.6685  1.1113  1.2008
   77ETHOX   C241598  13.900   7.710   9.689  0.2789 -0.3430  0.0730
   77ETHOX  H2141599  13.804   7.716   9.746 -0.0145  0.9929 -0.5252
   77ETHOX  H2341600  13.981   7.706   9.765 -1.1120 -2.7708  1.5431
   78ETHOX   O141601  13.907   7.595   9.609 -0.5466  0.4026 -0.6417
   78ETHOX   C141602  13.926   7.474   9.683 -0.1268 -0.2642  0.5020
   78ETHOX  H1141603  13.943   7.387   9.616  1.9882  0.6273 -0.2279
   78ETHOX  H1341604  14.025   7.489   9.731 -0.3597 -0.1962  0.9653
   78ETHOX   C241605  13.822   7.438   9.789 -1.1672  0.6466  0.3303
   78ETHOX  H2141606  13.836   7.332   9.819 -0.8733  0.8054  0.7575
   78ETHOX  H2341607  13.722   7.467   9.750 -1.5057  1.2984  1.6382
   79ETHOX   O141608  13.851   7.525   9.897  0.2740 -0.2171 -0.3360
   79ETHOX   C141609  13.778   7.501  10.012 -0.4929 -0.0825 -1.0868
   79ETHOX  H1141610  13.773   7.599  10.065  1.1779 -0.5117 -0.0538
   79ETHOX  H1341611  13.680   7.474   9.967 -0.3134  0.0751 -1.5850
   79ETHOX   C241612  13.834   7.379  10.096  0.2456 -0.8815  0.8498
   79ETHOX  H2141613  13.945   7.376  10.093  0.3308  1.5446 -0.3401
   79ETHOX  H2341614  13.807   7.299  10.024 -0.2093 -0.2558  0.3097
   80ETHOX   O141615  13.776   7.377  10.228  0.3165  0.5012  0.4340
   80ETHOX   C141616  13.832   7.277  10.304 -0.3515  0.3115  0.1065
   80ETHOX  H1141617  13.748   7.256  10.374 -0.9906  0.1574 -0.6940
   80ETHOX  H1341618  13.862   7.188  10.245 -0.0611  0.7887 -0.4656
   80ETHOX   C241619  13.945   7.328  10.384 -0.6670  0.3615 -0.3472
   80ETHOX  H2141620  13.983   7.247  10.451  0.0748  0.7096 -0.3302
   80ETHOX  H2341621  13.898   7.405  10.448 -0.5217 -0.3293  0.6249
   81ETHOX   O141622  14.056   7.372  10.308 -0.0529  0.1957  0.3160
   81ETHOX   C141623  14.085   7.511  10.317  0.1809  0.2775 -0.4102
   81ETHOX  H1141624  14.142   7.543  10.226  1.1021 -0.4674 -0.1165
   81ETHOX  H1341625  13.990   7.567  10.310 -1.0104 -1.8291 -2.0897
   81ETHOX   C241626  14.166   7.542  10.444 -0.8360 -0.1365  0.2426
   81ETHOX  H2141627  14.242   7.465  10.467 -1.1433 -1.1953 -1.9418
   81ETHOX  H2341628  14.208   7.644  10.432 -1.1186  0.0787  1.0447
   82ETHOX   O141629  14.076   7.561  10.550  0.7698 -0.6143  0.2876
   82ETHOX   C141630  14.140   7.588  10.672 -0.6066 -0.6892  0.1168
   82ETHOX  H1141631  14.188   7.688  10.670 -0.4913 -0.6596  2.0195
   82ETHOX  H1341632  14.212   7.508  10.698 -0.9824 -0.6150  1.4920
   82ETHOX   C241633  14.051   7.607  10.797 -0.3417  0.4242 -0.4573
   82ETHOX  H2141634  14.120   7.621  10.883  1.1159  2.0622 -1.8157
   82ETHOX  H2341635  13.990   7.515  10.809 -1.4722  1.3137  0.9313
   83ETHOX   O141636  13.964   7.721  10.775  0.1039 -0.2019 -0.3216
   83ETHOX   C141637  13.863   7.728  10.877  0.2878 -0.0065  1.1356
   83ETHOX  H1141638  13.797   7.639  10.880 -1.2141  1.0781  2.9152
   83ETHOX  H1341639  13.903   7.732  10.980 -0.5154  2.2869  1.4208
   83ETHOX   C241640  13.771   7.847  10.863 -0.6658  0.0021  0.1571
   83ETHOX  H2141641  13.831   7.937  10.839 -1.8240  0.3095 -1.8242
   83ETHOX  H2341642  13.715   7.870  10.957  0.1806  2.5078  0.1159
   84ETHOX   O141643  13.680   7.830  10.755 -0.5588  0.0881 -0.8567
   84ETHOX   C141644  13.574   7.922  10.756  0.5140 -0.3396 -0.4724
   84ETHOX  H1141645  13.609   8.019  10.798  0.6400 -0.9161  0.8040
   84ETHOX  H1341646  13.479   7.890  10.805 -0.5541  1.1900 -1.4458
   84ETHOX   C241647  13.530   7.950  10.611  0.2240 -0.6425  0.1978
   84ETHOX  H2141648  13.440   8.014  10.611  0.1853 -0.6527  2.0142
   84ETHOX  H2341649  13.519   7.854  10.555 -1.0238 -0.5971  0.3537
   85ETHOX   O141650  13.636   8.023  10.550 -0.3676  0.1628  0.2424
   85ETHOX   C141651  13.603   8.026  10.411 -0.1898  0.2269 -0.2394
   85ETHOX  H1141652  13.626   7.927  10.366  1.5191  1.2315 -1.6915
   85ETHOX  H1341653  13.496   8.052  10.397 -0.5063 -1.5412 -1.3680
   85ETHOX   C241654  13.687   8.122  10.318 -0.1189 -0.2044  0.3368
   85ETHOX  H2141655  13.640   8.103  10.219 -2.3556  0.8589  1.1208
   85ETHOX  H2341656  13.796   8.103  10.318  0.1059  0.9728 -0.7380
   86ETHOX   O141657  13.660   8.252  10.356  0.3182  0.2908 -0.3004
   86ETHOX   C141658  13.727   8.346  10.274  0.2069  0.3050  0.2291
   86ETHOX  H1141659  13.836   8.322  10.278  0.2079  0.4441  1.5779
   86ETHOX  H1341660  13.714   8.446  10.321 -0.5194  0.5734 -0.5306
   86ETHOX   C241661  13.656   8.353  10.139  0.6048 -0.3495  0.2586
   86ETHOX  H2141662  13.667   8.456  10.098 -2.0346  0.9890  2.5580
   86ETHOX  H2341663  13.550   8.329  10.160  0.7222  1.2910  3.2731
   87ETHOX   O141664  13.702   8.264  10.041  0.2174  0.1785 -0.2584
   87ETHOX   C141665  13.815   8.315   9.967  0.2596  0.0878  0.8095
   87ETHOX  H1141666  13.780   8.394   9.897 -2.2584  0.2916  2.1779
   87ETHOX  H1341667  13.889   8.359  10.037 -0.6739  1.1258  1.1843
   87ETHOX   C241668  13.893   8.207   9.884 -0.6134  0.3133  0.3775
   87ETHOX  H2141669  13.952   8.128   9.936  1.0467 -0.9362 -3.0616
   87ETHOX  H2341670  13.975   8.252   9.824 -0.7232 -0.7844 -0.6288
   88ETHOX   O141671  13.802   8.139   9.799 -0.7770 -0.8424  0.2620
   88ETHOX   C141672  13.783   8.224   9.685  0.0676  1.1356  0.2782
   88ETHOX  H1141673  13.873   8.237   9.622 -0.1834 -1.0383 -0.6130
   88ETHOX  H1341674  13.769   8.331   9.712  1.8169  1.4309  0.1176
   88ETHOX   C241675  13.667   8.188   9.590 -0.0858  0.4087 -0.1877
   88ETHOX  H2141676  13.642   8.270   9.519  1.9727  0.2358 -1.1834
   88ETHOX  H2341677  13.580   8.182   9.659  1.6716 -1.8486  2.0077
   89ETHOX   O141678  13.688   8.066   9.518 -0.6279 -0.1137  0.1917
   89ETHOX   C141679  13.563   7.996   9.507  0.1812 -0.3146  0.8607
   89ETHOX  H1141680  13.582   7.893   9.471  2.0298  0.3342 -0.1290
   89ETHOX  H1341681  13.499   7.997   9.598 -0.7728  1.8770  0.2205
   89ETHOX   C241682  13.473   8.072   9.409  0.5352  0.1716  0.2189
   89ETHOX  H2141683  13.477   8.182   9.418  1.0650  0.1015  0.9178
   89ETHOX  H2341684  13.366   8.046   9.429  0.4972 -0.3753 -0.6607
   90ETHOX   O141685  13.511   8.028   9.283 -0.3953  0.2671  0.5410
   90ETHOX   C141686  13.422   8.079   9.181  0.5478 -0.6343 -0.0955
   90ETHOX  H1141687  13.321   8.036   9.202  0.4039 -0.5897 -0.6778
   90ETHOX  H1341688  13.418   8.188   9.198  0.2993 -0.5071 -0.9254
   90ETHOX   C241689  13.465   8.042   9.035 -0.5584  0.4610 -0.0628
   90ETHOX  H2141690  13.389   8.035   8.955 -0.1289 -1.1651 -0.3789
   90ETHOX  H2341691  13.506   7.938   9.037 -0.3693  0.5323 -0.1692
   91ETHOX   O141692  13.577   8.121   9.002 -0.0235 -0.3765 -0.1393
   91ETHOX   C141693  13.543   8.248   8.946 -0.1239  0.3680 -0.9403
   91ETHOX  H1141694  13.537   8.237   8.835 -1.9886 -2.0486 -0.6907
   91ETHOX  H1341695  13.442   8.282   8.978 -0.8422 -1.3486 -1.2725
   91ETHOX   C241696  13.639   8.358   8.973 -0.2911  0.4266  0.0248
   91ETHOX  H2141697  13.678   8.341   9.076 -1.5881 -1.5439  0.2584
   91ETHOX  H2341698  13.584   8.454   8.984  2.6620  2.2146  0.2989
   92ETHOX   O141699  13.756   8.376   8.891 -0.2814 -0.2312 -0.2147
   92ETHOX   C141700  13.842   8.480   8.928  0.1261 -0.3608 -0.9323
   92ETHOX  H1141701  13.793   8.568   8.974  1.9815  0.5487 -0.5970
   92ETHOX  H1341702  13.905   8.438   9.009  0.6073  1.3317 -0.3775
   92ETHOX   C241703  13.926   8.529   8.812  0.6861  0.3025 -0.4456
   92ETHOX  H2141704  13.973   8.435   8.776  1.3720  0.1681  0.7572
   92ETHOX  H2341705  14.005   8.598   8.850  2.6534 -0.2257 -3.2448
   93ETHOX   O141706  13.840   8.580   8.711 -0.4195 -0.1318  1.4192
   93ETHOX   C141707  13.909   8.645   8.605 -0.2805 -0.8063 -0.4980
   93ETHOX  H1141708  13.835   8.674   8.528 -0.3701 -0.9250 -0.4566
   93ETHOX  H1341709  13.995   8.581   8.576 -0.2902 -2.3644  2.4720
   93ETHOX   C241710  13.955   8.784   8.644 -1.0619 -0.1936  0.4769
   93ETHOX  H2141711  14.010   8.839   8.565 -1.0476 -0.0551  0.5820
   93ETHOX  H2341712  14.022   8.773   8.733  0.0881  1.6582 -0.0987
   94ETHOX   O141713  13.852   8.877   8.681  0.1683 -0.3569 -0.2458
   94ETHOX   C141714  13.889   8.966   8.795  0.6832 -0.3737 -0.7873
   94ETHOX  H1141715  13.932   8.894   8.868 -0.6446 -1.9604 -1.5044
   94ETHOX  H1341716  13.970   9.032   8.758  0.1582 -0.1795 -1.6217
   94ETHOX   C241717  13.784   9.051   8.871  0.1223 -0.0829  0.2399
   94ETHOX  H2141718  13.709   8.983   8.916  1.4896 -2.6375 -1.1753
   94ETHOX  H2341719  13.739   9.124   8.800 -0.2740  2.8616  3.2667
   95ETHOX   O141720  13.849   9.126   8.975 -0.3149 -0.6543  0.0765
   95ETHOX   C141721  13.770   9.238   9.006  0.5235 -0.1690 -0.5509
   95ETHOX  H1141722  13.665   9.204   9.012  1.3648 -2.9862 -0.3308
   95ETHOX  H1341723  13.789   9.316   8.929 -3.8289  2.5717  0.8200
   95ETHOX   C241724  13.810   9.304   9.139  0.7676  0.2600  0.2134
   95ETHOX  H2141725  13.750   9.394   9.165 -0.2463  0.0996 -1.4522
   95ETHOX  H2341726  13.915   9.342   9.144  1.1095 -0.7697  1.3025
   96ETHOX   O141727  13.800   9.211   9.240  0.1674  0.0947 -0.4016
   96ETHOX   C141728  13.673   9.220   9.308  0.1346  0.2299  0.6179
   96ETHOX  H1141729  13.669   9.323   9.350  0.5238 -0.0059  1.2492
   96ETHOX  H1341730  13.585   9.197   9.245  0.5111  1.6000 -0.4739
   96ETHOX   C241731  13.676   9.118   9.431  0.5424 -0.7682  0.7416
   96ETHOX  H2141732  13.576   9.125   9.481 -0.0342 -0.3913 -0.4313
   96ETHOX  H2341733  13.757   9.149   9.501  1.3516 -2.0915  0.4288
   97ETHOX   O141734  13.695   8.982   9.386  0.1158  0.0002  0.7403
   97ETHOX   C141735  13.687   8.891   9.493 -0.4164  0.5759  0.0513
   97ETHOX  H1141736  13.585   8.895   9.536 -0.4257 -1.0558  0.2608
   97ETHOX  H1341737  13.766   8.919   9.567 -0.9720  2.2306  0.0507
   97ETHOX   C241738  13.710   8.747   9.444 -0.4071 -0.6696  0.0308
   97ETHOX  H2141739  13.751   8.696   9.534  0.9976  3.0053  1.6703
   97ETHOX  H2341740  13.792   8.749   9.369  1.1334 -1.1828  1.6108
   98ETHOX   O141741  13.606   8.689   9.369  1.0128 -0.4496  0.4010
   98ETHOX   C141742  13.612   8.544   9.367 -0.2243 -0.0611 -0.0540
   98ETHOX  H1141743  13.706   8.509   9.320 -1.2427 -1.6226 -1.0021
   98ETHOX  H1341744  13.607   8.500   9.469 -1.3400 -2.3156 -1.0101
   98ETHOX   C241745  13.497   8.485   9.288 -0.1909 -0.3192 -0.0302
   98ETHOX  H2141746  13.510   8.375   9.295  0.7728 -0.2263 -0.3106
   98ETHOX  H2341747  13.506   8.518   9.182 -2.1570  1.0912  0.1763
   99ETHOX   O141748  13.373   8.525   9.339  0.1184  0.0300  0.2806
   99ETHOX   C141749  13.270   8.465   9.259  0.2947 -0.3398 -0.3718
   99ETHOX  H1141750  13.307   8.370   9.213  1.6989 -0.1990  0.4239
   99ETHOX  H1341751  13.256   8.531   9.171  2.8791  2.0254  0.8657
   99ETHOX   C241752  13.146   8.446   9.348 -0.0478 -0.4645  0.1172
   99ETHOX  H2141753  13.161   8.384   9.439 -0.0168  0.8949  1.0634
   99ETHOX  H2341754  13.057   8.400   9.299 -0.9254 -1.9183  2.8479
  100ETHOX   O141755  13.116   8.575   9.399  0.2257 -0.4082  0.0495
  100ETHOX   C141756  12.994   8.583   9.468  0.6689 -0.2140 -0.0808
  100ETHOX  H1141757  12.912   8.547   9.402  1.8033 -0.7864 -1.2212
  100ETHOX  H1341758  13.016   8.514   9.552  0.6607  0.1743  0.2406
  100ETHOX   C241759  12.972   8.721   9.503  0.3611 -0.4630 -0.1032
  100ETHOX  H2141760  12.958   8.768   9.404  1.0611 -1.7028 -0.7998
  100ETHOX  H2341761  13.063   8.768   9.548  0.2764 -1.9693  1.7595
  101PROXS   O141762  12.869   8.718   9.609  0.3340  0.2490 -0.5035
  101PROXS   C141763  12.830   8.848   9.641 -0.1938 -0.1870 -0.3343
  101PROXS  H1141764  12.920   8.901   9.681  0.0192  2.9259 -4.2535
  101PROXS  H1341765  12.798   8.902   9.549  1.2519  1.6627  0.1809
  101PROXS   C241766  12.733   8.860   9.753  0.7643  0.7899 -0.2633
  101PROXS  H2141767  12.633   8.816   9.730  0.3652  1.8608 -0.6027
  101PROXS   C341768  12.699   8.999   9.800  0.5738 -0.5939  0.2840
  101PROXS  H3141769  12.620   9.001   9.877 -1.4668  1.0041 -1.6970
  101PROXS  H3241770  12.791   9.040   9.846  0.2456  0.1420  0.2875
  101PROXS  H3341771  12.664   9.066   9.718  1.2299  0.7215  1.0552
  102PROXS   O141772  12.784   8.781   9.857 -0.2189  0.0792 -0.5457
  102PROXS   C141773  12.690   8.761   9.969 -0.2779 -0.2035 -0.6494
  102PROXS  H1141774  12.642   8.853  10.008  0.1453 -0.3499  0.2503
  102PROXS  H1341775  12.607   8.695   9.939 -2.9187  1.4012  2.4965
  102PROXS   C241776  12.763   8.671  10.085 -0.2204  0.0429  0.2427
  102PROXS  H2141777  12.850   8.733  10.114  1.5902 -2.0522 -0.4829
  102PROXS   C341778  12.815   8.536  10.034 -0.3240  0.7987 -0.6951
  102PROXS  H3141779  12.731   8.463  10.028 -1.2531  1.8097 -0.3263
  102PROXS  H3241780  12.873   8.543   9.940 -1.1808  0.0714 -1.2907
  102PROXS  H3341781  12.886   8.483  10.102 -0.9661  0.8832  0.0647
  103PROXR   O141782  12.670   8.648  10.190  0.3530 -0.3603 -0.0154
  103PROXR   C141783  12.729   8.597  10.312  0.2233 -0.2524 -0.3676
  103PROXR  H1141784  12.768   8.494  10.299  1.9969  0.2988  0.2612
  103PROXR  H1341785  12.817   8.664  10.326  0.7664 -0.7440 -1.3178
  103PROXR   C241786  12.629   8.607  10.417 -0.4800  0.5394 -0.1175
  103PROXR  H2141787  12.547   8.538  10.389 -0.3034  1.0692 -2.0847
  103PROXR   C341788  12.581   8.749  10.430 -0.0067 -0.1644 -0.1713
  103PROXR  H3141789  12.499   8.750  10.505  1.0458 -0.3642  1.0186
  103PROXR  H3241790  12.658   8.819  10.470 -0.1895  0.7293 -1.3402
  103PROXR  H3341791  12.552   8.790  10.331 -0.7392 -0.0201  0.0956
  104PROXS   O141792  12.703   8.562  10.530 -0.0154  0.2216  0.6862
  104PROXS   C141793  12.626   8.552  10.644  0.0662 -0.7318  0.9475
  104PROXS  H1141794  12.627   8.649  10.697 -2.6806 -0.0628 -0.0661
  104PROXS  H1341795  12.522   8.541  10.607 -0.0309 -2.9845  1.7538
  104PROXS   C241796  12.673   8.435  10.737 -0.8962 -0.2776 -0.0433
  104PROXS  H2141797  12.774   8.462  10.775 -0.8888 -0.8158  0.3281
  104PROXS   C341798  12.677   8.303  10.658  0.1134 -0.6197  0.5285
  104PROXS  H3141799  12.571   8.276  10.639 -1.4485  3.9884  1.4160
  104PROXS  H3241800  12.732   8.307  10.562 -0.8334  2.2640  0.0030
  104PROXS  H3341801  12.731   8.222  10.711 -0.5771 -1.8999 -0.6560
  105PROXS   O141802  12.591   8.429  10.850  0.0026  0.1204  0.0942
  105PROXS   C141803  12.615   8.527  10.953  0.9541  0.0938  0.1768
  105PROXS  H1141804  12.722   8.525  10.983  1.1253  0.3845 -0.4078
  105PROXS  H1341805  12.594   8.631  10.922 -1.1329 -0.1435  0.6955
  105PROXS   C241806  12.532   8.498  11.079 -0.1049 -0.1725 -0.2335
  105PROXS  H2141807  12.573   8.414  11.138  2.4559  1.5745  0.6666
  105PROXS   C341808  12.383   8.474  11.055 -0.7675  0.4506 -0.3949
  105PROXS  H3141809  12.371   8.393  10.980 -0.6694 -1.1878  1.2739
  105PROXS  H3241810  12.333   8.423  11.140 -0.9447  2.1779  0.5893
  105PROXS  H3341811  12.323   8.558  11.014 -0.3968 -0.3551 -2.7358
  106PROXS   O141812  12.546   8.608  11.165  0.6687 -0.5338  0.0419
  106PROXS   C141813  12.479   8.583  11.289  0.2128 -0.0756 -0.3233
  106PROXS  H1141814  12.370   8.600  11.274  0.5672  0.7991 -2.0800
  106PROXS  H1341815  12.489   8.475  11.313 -1.5708 -0.3565 -0.6790
  106PROXS   C241816  12.521   8.659  11.417 -0.2469 -0.2126 -0.6908
  106PROXS  H2141817  12.630   8.655  11.433 -0.4716 -0.8387  0.9083
  106PROXS   C341818  12.473   8.598  11.550 -0.1333  0.9223  0.3212
  106PROXS  H3141819  12.363   8.614  11.554 -0.1968  0.3918  3.2768
  106PROXS  H3241820  12.490   8.490  11.573 -1.1874  0.5538 -0.5625
  106PROXS  H3341821  12.515   8.646  11.641  2.6653  0.8581 -0.8558
  107PROXR   O141822  12.486   8.798  11.411  0.5887 -0.0727 -0.6640
  107PROXR   C141823  12.587   8.877  11.346 -0.1999 -0.0862  0.0953
  107PROXR  H1141824  12.641   8.928  11.428 -2.8988 -0.1277  2.0199
  107PROXR  H1341825  12.666   8.822  11.291  0.1798 -0.0343  0.5960
  107PROXR   C241826  12.527   8.980  11.256 -0.3451  0.7260  0.2123
  107PROXR  H2141827  12.430   9.018  11.297  0.2494  2.5436  0.0150
  107PROXR   C341828  12.484   8.923  11.121 -0.0531  0.8813 -0.5041
  107PROXR  H3141829  12.414   8.989  11.067  0.0147  0.0186 -1.6824
  107PROXR  H3241830  12.575   8.906  11.059 -0.7371  1.6924 -1.7618
  107PROXR  H3341831  12.433   8.825  11.132  1.8614 -0.4376 -2.6095
  108PROXS   O141832  12.624   9.084  11.248  0.1392  0.0269  0.4578
  108PROXS   C141833  12.574   9.200  11.192  0.3146 -0.2496  0.6776
  108PROXS  H1141834  12.552   9.186  11.084  0.6777 -0.6653  0.6576
  108PROXS  H1341835  12.483   9.237  11.244  1.1685  1.3681  1.0877
  108PROXS   C241836  12.679   9.314  11.209  0.2529  0.3322  0.0334
  108PROXS  H2141837  12.768   9.274  11.156 -0.6194 -0.5993 -0.7720
  108PROXS   C341838  12.712   9.341  11.356 -0.6347 -0.5920 -0.4397
  108PROXS  H3141839  12.803   9.404  11.368 -0.7457 -0.4435 -0.3687
  108PROXS  H3241840  12.623   9.397  11.394  0.2275  1.5595 -1.4003
  108PROXS  H3341841  12.730   9.246  11.410  0.4710  0.6109  1.4651
  109PROXS   O141842  12.641   9.436  11.141  0.4894  0.1883 -0.8633
  109PROXS   C141843  12.631   9.429  11.005  0.1086 -0.1286  0.0583
  109PROXS  H1141844  12.727   9.384  10.972  1.1555  1.8239  0.2678
  109PROXS  H1341845  12.553   9.356  10.972  0.7144 -1.2775  1.1086
  109PROXS   C241846  12.595   9.562  10.936  0.7954 -0.2980  0.5630
  109PROXS  H2141847  12.685   9.628  10.935  0.4213  0.2464 -0.6829
  109PROXS   C341848  12.477   9.645  10.987 -0.3027  0.2047  0.1205
  109PROXS  H3141849  12.390   9.578  11.000  0.2118 -0.7034 -0.9457
  109PROXS  H3241850  12.495   9.673  11.093 -0.7035 -1.3146  0.6138
  109PROXS  H3341851  12.472   9.731  10.916 -1.1073 -1.3951 -1.8560
  110PROXR   O141852  12.548   9.536  10.794 -0.0584  0.1886 -0.0484
  110PROXR   C141853  12.656   9.520  10.712  0.4818  0.3566  0.5268
  110PROXR  H1141854  12.745   9.475  10.760  1.2947  0.6934 -0.6179
  110PROXR  H1341855  12.626   9.466  10.619  1.5502  0.0400  0.3545
  110PROXR   C241856  12.683   9.660  10.653 -0.0812  0.2078 -0.4408
  110PROXR  H2141857  12.703   9.735  10.732 -1.4975 -0.2114  0.3473
  110PROXR   C341858  12.580   9.706  10.549  0.4317  0.1169  0.4330
  110PROXR  H3141859  12.613   9.803  10.506  1.1937 -1.2928 -2.4636
  110PROXR  H3241860  12.573   9.642  10.458 -1.7422  1.3809 -0.3594
  110PROXR  H3341861  12.479   9.698  10.594  0.6399  0.0950  0.8932
  111PROXS   O141862  12.808   9.649  10.584 -0.0687 -0.4538  0.1688
  111PROXS   C141863  12.887   9.762  10.571  0.2809 -0.9574  0.6720
  111PROXS  H1141864  12.841   9.840  10.507 -0.5839 -0.4759  1.8362
  111PROXS  H1341865  12.886   9.803  10.675 -1.8720 -0.9678  0.6926
  111PROXS   C241866  13.033   9.718  10.531  0.2642 -0.6402 -0.1061
  111PROXS  H2141867  13.018   9.692  10.424 -3.6695  1.3766 -0.2435
  111PROXS   C341868  13.071   9.589  10.612  0.7708 -0.1093  0.3212
  111PROXS  H3141869  13.030   9.603  10.714 -2.0421 -1.8349 -0.4593
  111PROXS  H3241870  13.011   9.501  10.581  0.8568 -0.3835  0.9199
  111PROXS  H3341871  13.182   9.580  10.613  0.6902 -1.5941 -0.7570
  112PROXR   O141872  13.128   9.825  10.576  0.2509  0.3339 -0.7019
  112PROXR   C141873  13.134   9.930  10.488 -0.1770 -0.2585 -1.0464
  112PROXR  H1141874  13.135   9.902  10.381 -0.6655 -0.4254 -1.0098
  112PROXR  H1341875  13.048  10.000  10.500 -0.2697 -0.5552  0.2032
  112PROXR   C241876  13.275  10.004  10.513  0.1312  0.4475 -0.3168
  112PROXR  H2141877  13.355   9.928  10.522  1.4998  1.8864  0.0630
  112PROXR   C341878  13.273  10.090  10.642  0.1843  0.2537  0.0457
  112PROXR  H3141879  13.181  10.152  10.647 -1.7977 -1.8729 -4.5400
  112PROXR  H3241880  13.298  10.032  10.734  0.4573 -1.5654 -1.1299
  112PROXR  H3341881  13.356  10.163  10.631 -0.3503  0.9369  0.4398
  113PROXS   O141882  13.289  10.093  10.408 -0.2336  0.3053  0.7395
  113PROXS   C141883  13.340  10.028  10.291  0.6020 -0.0284 -0.3179
  113PROXS  H1141884  13.411   9.946  10.316  0.9304  0.4286  0.2616
  113PROXS  H1341885  13.244   9.988  10.251  0.0117 -0.6510  1.6183
  113PROXS   C241886  13.397  10.125  10.190  0.1108  0.2420  0.6241
  113PROXS  H2141887  13.327  10.210  10.173 -1.3783 -1.2031 -0.8063
  113PROXS   C341888  13.422  10.069  10.049 -0.3034  0.4476 -0.0400
  113PROXS  H3141889  13.326  10.071   9.993 -0.5070  1.1897  0.3091
  113PROXS  H3241890  13.493  10.136   9.995 -0.3592  1.0304  0.5882
  113PROXS  H3341891  13.467   9.968  10.059  2.2728  1.7204  2.6725
  114PROXR   O141892  13.529  10.163  10.227  0.1346 -0.0094  0.2852
  114PROXR   C141893  13.523  10.280  10.305 -0.1381  0.0422  0.4210
  114PROXR  H1141894  13.425  10.286  10.357  0.1097  1.7825  0.7560
  114PROXR  H1341895  13.601  10.284  10.383 -0.7439 -1.7927  1.1774
  114PROXR   C241896  13.534  10.408  10.215  0.5243  0.4310  0.4515
  114PROXR  H2141897  13.444  10.405  10.150  0.8807  2.0897 -0.1709
  114PROXR   C341898  13.652  10.415  10.115 -0.1477  0.8810 -0.1093
  114PROXR  H3141899  13.664  10.320  10.059  0.7196 -0.4397  2.1791
  114PROXR  H3241900  13.647  10.506  10.050  1.4237  0.4236 -0.9323
  114PROXR  H3341901  13.742  10.421  10.179  1.2895 -4.6062 -1.1340
  115PROXR   O141902  13.529  10.529  10.286  0.3027  0.3530  0.1314
  115PROXR   C141903  13.453  10.634  10.230  0.0493 -0.8505  0.1033
  115PROXR  H1141904  13.482  10.659  10.125  1.2047 -0.1750  0.5669
  115PROXR  H1341905  13.348  10.598  10.229 -0.8695  1.4928  1.7948
  115PROXR   C241906  13.458  10.762  10.311  0.1339 -0.0243  0.1284
  115PROXR  H2141907  13.467  10.748  10.421 -2.6917  2.6541  0.8294
  115PROXR   C341908  13.337  10.849  10.293 -0.4189  0.1703  0.0802
  115PROXR  H3141909  13.316  10.864  10.185 -0.9177 -2.9585 -0.3456
  115PROXR  H3241910  13.247  10.805  10.340 -1.0244  1.0997 -0.1893
  115PROXR  H3341911  13.339  10.945  10.349 -0.9533  0.3451 -0.2016
  116PROXS   O141912  13.565  10.845  10.268  0.4575 -0.0624  0.1901
  116PROXS   C141913  13.692  10.811  10.316 -0.2935  0.5834 -0.4576
  116PROXS  H1141914  13.695  10.817  10.427 -0.3693 -0.7207 -0.3695
  116PROXS  H1341915  13.719  10.712  10.275  0.0749  0.6097 -0.2829
  116PROXS   C241916  13.810  10.903  10.256 -0.0323 -0.0553  0.2230
  116PROXS  H2141917  13.791  11.003  10.302 -0.2893  1.2256 -2.4807
  116PROXS   C341918  13.813  10.910  10.097 -0.1937  0.6552 -0.3646
  116PROXS  H3141919  13.868  10.997  10.056  0.9879 -1.1118 -2.7242
  116PROXS  H3241920  13.869  10.826  10.051  2.7078  1.6118  1.1344
  116PROXS  H3341921  13.708  10.909  10.060  0.4815  3.0095 -2.5857
  117PROXS   O141922  13.928  10.860  10.312  0.2349  0.1299  0.0107
  117PROXS   C141923  14.035  10.958  10.320  0.5027 -0.1038  0.4289
  117PROXS  H1141924  14.037  11.011  10.222  0.8425  0.5059  0.7562
  117PROXS  H1341925  14.017  11.024  10.407  2.6320  0.7381  0.2909
  117PROXS   C241926  14.163  10.882  10.333 -0.4477 -0.6067  0.2915
  117PROXS  H2141927  14.163  10.802  10.411  1.6923  0.1259  1.1114
  117PROXS   C341928  14.288  10.969  10.354 -0.4981  0.1246 -0.1075
  117PROXS  H3141929  14.383  10.918  10.379 -0.0231  0.4469 -1.1863
  117PROXS  H3241930  14.307  11.021  10.257 -0.5968 -0.5228 -0.4819
  117PROXS  H3341931  14.277  11.048  10.432 -0.4366 -0.1398  0.1695
  118PROXR   O141932  14.201  10.824  10.212 -0.2088  0.1657  0.0900
  118PROXR   C141933  14.171  10.685  10.207  0.2747 -0.3533  0.3044
  118PROXR  H1141934  14.215  10.635  10.296  1.9934 -2.0448 -1.4035
  118PROXR  H1341935  14.060  10.674  10.208  0.4157 -1.9016  0.9485
  118PROXR   C241936  14.235  10.615  10.085 -0.3425  0.6218  0.4483
  118PROXR  H2141937  14.344  10.635  10.077 -0.0208 -1.3786 -1.0895
  118PROXR   C341938  14.173  10.654   9.948  0.1234 -0.4884  0.1537
  118PROXR  H3141939  14.062  10.659   9.945  0.2037  1.8424 -2.1218
  118PROXR  H3241940  14.212  10.751   9.911 -1.5189  0.0240 -0.3205
  118PROXR  H3341941  14.205  10.587   9.865 -0.5370 -0.0671 -0.4494
  119PROXR   O141942  14.233  10.474  10.104  0.4546 -0.2416  0.6089
  119PROXR   C141943  14.108  10.405  10.097  0.3563  0.3271 -0.3787
  119PROXR  H1141944  14.034  10.433  10.176 -0.7259 -0.3226 -1.1311
  119PROXR  H1341945  14.042  10.422  10.009 -2.6412 -1.0864  1.4277
  119PROXR   C241946  14.143  10.257  10.119  0.2422 -0.3362 -0.1873
  119PROXR  H2141947  14.181  10.231  10.220 -3.8136 -1.4255  1.2536
  119PROXR   C341948  14.247  10.216  10.018 -0.2784  0.5414  1.0646
  119PROXR  H3141949  14.342  10.273  10.027 -0.1777  0.5159  0.2048
  119PROXR  H3241950  14.267  10.107  10.028  1.0212  0.7954  1.5442
  119PROXR  H3341951  14.209  10.232   9.915  2.1234  2.0841  0.3357
  120PROXS   O141952  14.030  10.181  10.097 -0.5222 -0.5261  0.0965
  120PROXS   C141953  14.024  10.046  10.147  0.1178  0.9166  0.8667
  120PROXS  H1141954  14.014   9.983  10.056 -0.1018 -0.7994  2.0362
  120PROXS  H1341955  14.117  10.015  10.201  1.2888 -0.1484 -1.5862
  120PROXS   C241956  13.896  10.031  10.229 -0.5369  0.2761  0.2535
  120PROXS  H2141957  13.809  10.066  10.169 -0.3401  1.4507  0.6201
  120PROXS   C341958  13.902  10.119  10.352  0.0437  0.3255 -0.8216
  120PROXS  H3141959  13.996  10.102  10.408 -0.0444 -1.7421 -1.2445
  120PROXS  H3241960  13.917  10.225  10.322  0.3452 -0.1254 -2.3182
  120PROXS  H3341961  13.808  10.113  10.412 -0.6925 -0.7781 -2.0378
  121PROXS   O141962  13.884   9.892  10.263  0.4503  0.6652  0.1862
  121PROXS   C141963  13.751   9.853  10.304 -0.1038 -1.2870  0.0479
  121PROXS  H1141964  13.745   9.878  10.413  0.5065 -1.0001  0.0198
  121PROXS  H1341965  13.675   9.908  10.245  0.8940  0.1219  0.0263
  121PROXS   C241966  13.724   9.701  10.282  0.1424  0.9685 -0.5867
  121PROXS  H2141967  13.807   9.643  10.328  1.7458  2.8323 -0.9894
  121PROXS   C341968  13.721   9.680  10.133  0.1007 -0.2920  0.0073
  121PROXS  H3141969  13.734   9.573  10.106  1.1446  0.4083 -2.5905
  121PROXS  H3241970  13.632   9.719  10.080  0.4001 -0.8422 -0.9300
  121PROXS  H3341971  13.801   9.738  10.082 -0.5914  0.4549 -0.2470
  122PROXS   O141972  13.602   9.666  10.353 -0.0388 -0.1009 -0.1201
  122PROXS   C141973  13.556   9.531  10.330  0.2627  0.0124  0.1484
  122PROXS  H1141974  13.548   9.515  10.220 -1.5575 -1.1270  0.4012
  122PROXS  H1341975  13.635   9.462  10.367  1.1285  0.4301 -0.8790
  122PROXS   C241976  13.424   9.504  10.397 -0.0744 -0.3887 -0.5521
  122PROXS  H2141977  13.418   9.569  10.486 -2.5836  0.0022 -0.9430
  122PROXS   C341978  13.407   9.360  10.436  0.2286  0.5919 -1.0567
  122PROXS  H3141979  13.411   9.296  10.345 -0.4405 -1.3387  0.2186
  122PROXS  H3241980  13.486   9.334  10.510 -2.7209  0.9170  2.4408
  122PROXS  H3341981  13.312   9.340  10.490  0.9789 -0.0005  0.0938
  123PROXS   O141982  13.310   9.522  10.306  0.0465 -0.7526 -0.4936
  123PROXS   C141983  13.289   9.659  10.279 -0.0157 -0.2920  0.2860
  123PROXS  H1141984  13.267   9.718  10.370 -0.7138 -1.0277  0.6060
  123PROXS  H1341985  13.380   9.701  10.231 -1.4760  1.4033 -1.1357
  123PROXS   C241986  13.178   9.664  10.174  0.2428 -0.3393 -0.6112
  123PROXS  H2141987  13.090   9.602  10.203  0.5838 -0.8106 -0.5763
  123PROXS   C341988  13.239   9.617  10.038 -0.1339  0.1099 -0.4229
  123PROXS  H3141989  13.158   9.566   9.982  0.1612 -1.6793  0.6999
  123PROXS  H3241990  13.278   9.706   9.985 -1.2989  0.1998 -1.1664
  123PROXS  H3341991  13.317   9.540  10.050  0.4686  0.2948 -2.7097
  124PROXR   O141992  13.139   9.800  10.145  0.5175 -0.1216 -0.4298
  124PROXR   C141993  13.014   9.797  10.081 -0.1727  0.5860 -0.6445
  124PROXR  H1141994  12.997   9.733   9.992 -0.5243 -1.2431  0.6771
  124PROXR  H1341995  12.925   9.789  10.148  0.4785  2.0684  0.4439
  124PROXR   C241996  12.991   9.939  10.026 -0.2899 -0.8040  0.1252
  124PROXR  H2141997  13.080   9.962   9.963 -0.8501  1.3775  0.0540
  124PROXR   C341998  12.980  10.047  10.130 -0.2331  0.0038 -0.4848
  124PROXR  H3141999  13.067  10.059  10.198 -0.1401  2.0265 -0.9271
  124PROXR  H3242000  12.975  10.151  10.094  3.3752  0.4275 -0.1398
  124PROXR  H3342001  12.899  10.016  10.199 -0.4639  0.4588 -0.5494
  125PROXS   O142002  12.877   9.938   9.940 -0.0255  0.1029 -0.1191
  125PROXS   C142003  12.899  10.011   9.813  0.0030  0.0957  0.0421
  125PROXS  H1142004  12.952  10.105   9.841  0.2386 -0.4309  1.4382
  125PROXS  H1342005  12.976   9.959   9.752 -0.1048  0.9684 -0.8740
  125PROXS   C242006  12.776  10.036   9.716  0.1731 -0.0280 -0.1834
  125PROXS  H2142007  12.712   9.947   9.698 -0.0952  0.1418 -0.0603
  125PROXS   C342008  12.827  10.084   9.576 -1.1105  0.8060  0.0748
  125PROXS  H3142009  12.738  10.116   9.518  0.3067 -0.1416 -2.7999
  125PROXS  H3242010  12.889  10.176   9.589 -1.0019  1.0541 -1.9863
  125PROXS  H3342011  12.876  10.001   9.522  0.4111  0.7304  1.4784
  126PROXS   O142012  12.687  10.138   9.762 -0.2701  0.1756 -0.0993
  126PROXS   C142013  12.591  10.089   9.856  0.1464  0.0892  0.4341
  126PROXS  H1142014  12.524  10.016   9.805  0.8214 -1.8093  2.1075
  126PROXS  H1342015  12.627  10.014   9.929 -1.2179 -1.9574 -0.8939
  126PROXS   C242016  12.517  10.207   9.932 -0.5453  0.0347  0.5316
  126PROXS  H2142017  12.496  10.285   9.856 -0.7553  0.1782  0.7385
  126PROXS   C342018  12.621  10.268  10.034 -0.1412  0.4102 -0.3740
  126PROXS  H3142019  12.720  10.291   9.990 -1.1454  2.7806 -1.6454
  126PROXS  H3242020  12.574  10.360  10.074  4.1909  2.0479  1.5546
  126PROXS  H3342021  12.644  10.201  10.119 -0.5379 -0.4404 -0.9185
  127PROXR   O142022  12.400  10.160   9.993 -0.4177 -0.2705 -0.5405
  127PROXR   C142023  12.305  10.131   9.891  0.6046  0.0487 -0.0564
  127PROXR  H1142024  12.295  10.223   9.829  1.3585 -0.8861 -1.6232
  127PROXR  H1342025  12.338  10.058   9.814  3.0467  1.9317 -0.9507
  127PROXR   C242026  12.164  10.121   9.953 -0.2079 -0.6534 -0.3153
  127PROXR  H2142027  12.146  10.209  10.019 -1.7901 -0.7849 -0.5398
  127PROXR   C342028  12.142   9.996  10.029 -0.5262 -0.2725  0.9212
  127PROXR  H3142029  12.035   9.995  10.059 -0.1752  1.2808  2.3681
  127PROXR  H3242030  12.164   9.908   9.964 -0.1815 -0.2834  1.0514
  127PROXR  H3342031  12.205  10.004  10.120  1.0334  0.8467 -0.1799
  128PROXR   O142032  12.071  10.122   9.846 -0.1521 -0.5989 -0.2245
  128PROXR   C142033  11.945  10.177   9.880 -0.5748 -1.2071 -0.6097
  128PROXR  H1142034  11.900  10.110   9.957 -1.4347  0.0553  0.0217
  128PROXR  H1342035  11.964  10.278   9.923  1.1604 -1.3057 -1.0782
  128PROXR   C242036  11.863  10.190   9.756 -0.4509 -0.1594  0.5766
  128PROXR  H2142037  11.831  10.091   9.714  0.3623 -0.3338  0.3529
  128PROXR   C342038  11.930  10.271   9.644  0.2334  0.6395  0.6854
  128PROXR  H3142039  11.976  10.360   9.692 -0.5909  1.2155  0.4427
  128PROXR  H3242040  12.004  10.211   9.587 -1.0131 -0.2212 -0.0743
  128PROXR  H3342041  11.859  10.306   9.565  1.1331  0.2015 -0.3449
  129PROXS   O142042  11.743  10.254   9.789  0.6768 -0.1072  0.2594
  129PROXS   C142043  11.648  10.158   9.836 -0.1941 -0.0157 -0.4548
  129PROXS  H1142044  11.646  10.065   9.774  3.1177 -0.8005  0.3963
  129PROXS  H1342045  11.687  10.123   9.934  0.2760 -0.5374 -0.8230
  129PROXS   C242046  11.507  10.218   9.846 -0.6483 -0.0942 -0.6702
  129PROXS  H2142047  11.472  10.259   9.749  0.0242  0.7110 -0.5927
  129PROXS   C342048  11.506  10.326   9.946  0.0223  0.3072 -0.0686
  129PROXS  H3142049  11.416  10.391   9.941  0.8964  1.9106  2.7251
  129PROXS  H3242050  11.497  10.301  10.054  1.6393  2.9743  0.7809
  129PROXS  H3342051  11.590  10.398   9.933 -0.5148  0.6911 -1.5279
  130PROXS   O142052  11.414  10.128   9.901  0.0293 -0.2610 -0.2002
  130PROXS   C142053  11.359  10.049   9.804 -0.2527  0.7887 -0.2767
  130PROXS  H1142054  11.325  10.103   9.712  0.9084 -0.5816 -1.5718
  130PROXS  H1342055  11.433   9.977   9.764  0.0261  0.3370  1.0284
  130PROXS   C242056  11.235   9.976   9.869 -0.1316 -0.1485  0.0738
  130PROXS  H2142057  11.254   9.959   9.977 -2.1863  1.3019  0.7224
  130PROXS   C342058  11.206   9.840   9.802 -0.8399 -0.7596 -0.6671
  130PROXS  H3142059  11.303   9.786   9.793 -1.1318 -1.4874  0.3191
  130PROXS  H3242060  11.130   9.784   9.860 -0.8166 -0.6445 -0.5256
  130PROXS  H3342061  11.167   9.843   9.698 -2.0232 -2.9070 -0.3268
  131PROXS   O142062  11.116  10.053   9.865  0.1117 -0.5716  0.4340
  131PROXS   C142063  11.125  10.174   9.948  0.6897  0.4158  0.1947
  131PROXS  H1142064  11.140  10.150  10.055  1.7624 -0.6887 -0.1853
  131PROXS  H1342065  11.209  10.241   9.919 -0.5378  2.5794  1.3701
  131PROXS   C242066  10.998  10.258   9.949  0.8194 -0.1047 -0.1671
  131PROXS  H2142067  10.905  10.200   9.964  1.3675 -1.2094 -0.9451
  131PROXS   C342068  10.975  10.310   9.807 -0.5560  0.0550  0.2539
  131PROXS  H3142069  11.066  10.368   9.785 -0.6245 -0.8327 -2.8056
  131PROXS  H3242070  10.976  10.229   9.730  2.1285  1.3205 -1.1395
  131PROXS  H3342071  10.879  10.364   9.789  0.0083  0.5202 -1.5458
  132PROXS   O142072  11.010  10.360  10.043 -0.2322 -0.3002 -0.2658
  132PROXS   C142073  10.882  10.414  10.085  0.3999  0.1109 -0.0413
  132PROXS  H1142074  10.795  10.377  10.025 -0.1596  0.8522  0.2976
  132PROXS  H1342075  10.867  10.380  10.190 -1.6533  0.0767 -0.3080
  132PROXS   C242076  10.882  10.570  10.084 -1.1136 -0.1622  0.0162
  132PROXS  H2142077  10.954  10.601  10.162 -0.1814  0.7469 -1.1637
  132PROXS   C342078  10.749  10.624  10.126  0.6368  0.1044 -0.1120
  132PROXS  H3142079  10.672  10.596  10.050 -1.3077  0.4977  1.6372
  132PROXS  H3242080  10.705  10.584  10.220 -1.3945  1.1943 -0.5474
  132PROXS  H3342081  10.750  10.734  10.134 -1.5363  0.4317 -2.6840
  133PROXS   O142082  10.920  10.619   9.955  0.4204 -0.2518  0.0423
  133PROXS   C142083  11.064  10.630   9.941  0.2374 -0.2133 -0.7098
  133PROXS  H1142084  11.107  10.669  10.035 -0.6131 -0.3509 -0.2584
  133PROXS  H1342085  11.116  10.532   9.933 -0.3982 -0.7911  1.5005
  133PROXS   C242086  11.105  10.725   9.819 -0.0431 -0.0272 -0.4251
  133PROXS  H2142087  11.028  10.802   9.802  0.3690  1.0937  2.3005
  133PROXS   C342088  11.103  10.646   9.690 -0.3297  0.0882  0.1623
  133PROXS  H3142089  11.167  10.555   9.688  0.6018  0.7345  0.0269
  133PROXS  H3242090  10.998  10.629   9.659 -0.0747  0.4649 -0.9553
  133PROXS  H3342091  11.148  10.707   9.609  0.4053 -0.3103  0.2616
  134PROXS   O142092  11.238  10.787   9.845  0.6400  0.3171 -0.4395
  134PROXS   C142093  11.335  10.681   9.873  0.4959 -0.6809 -0.1938
  134PROXS  H1142094  11.341  10.683   9.984 -1.6378  0.9839 -0.0448
  134PROXS  H1342095  11.311  10.581   9.831 -0.0733 -0.9207  0.6638
  134PROXS   C242096  11.475  10.723   9.818 -0.8471  0.1243  0.0092
  134PROXS  H2142097  11.492  10.824   9.860 -2.2581  0.7778 -0.9080
  134PROXS   C342098  11.487  10.714   9.670 -0.1361 -0.2633 -0.1126
  134PROXS  H3142099  11.590  10.741   9.636  0.4896 -1.4132  0.8078
  134PROXS  H3242100  11.476  10.608   9.638  0.2488 -0.2248 -0.3831
  134PROXS  H3342101  11.413  10.767   9.607 -0.9822  0.3530  1.3454
  135PROXS   O142102  11.564  10.628   9.874  0.1105 -0.7779 -0.6038
  135PROXS   C142103  11.702  10.656   9.852  0.1860 -0.1400 -0.3948
  135PROXS  H1142104  11.732  10.599   9.762  1.6807  0.7402 -0.4824
  135PROXS  H1342105  11.721  10.765   9.845  2.6500 -0.5303 -0.6122
  135PROXS   C242106  11.781  10.613   9.971 -0.2223  0.1414 -0.5791
  135PROXS  H2142107  11.763  10.506   9.994 -0.9566  0.0024 -1.7692
  135PROXS   C342108  11.747  10.693  10.102 -0.0532 -0.0094 -0.0262
  135PROXS  H3142109  11.794  10.793  10.092 -0.3687  0.1988  0.4720
  135PROXS  H3242110  11.636  10.690  10.117 -0.4432 -2.9471 -2.5474
  135PROXS  H3342111  11.794  10.655  10.196  1.5214  0.7527 -0.4855
  136PROXS   O142112  11.917  10.636   9.933 -0.7141 -0.2619  0.3847
  136PROXS   C142113  12.007  10.566  10.018 -0.8387 -0.6536  0.1950
  136PROXS  H1142114  11.997  10.603  10.123 -0.3036 -0.3997  0.1578
  136PROXS  H1342115  11.991  10.456  10.023 -1.0592 -0.5970  1.0105
  136PROXS   C242116  12.157  10.588   9.983  0.9852 -0.6435  0.4351
  136PROXS  H2142117  12.156  10.696   9.960  4.1057 -0.9423 -1.7425
  136PROXS   C342118  12.183  10.510   9.855  0.2571  0.5579 -0.2434
  136PROXS  H3142119  12.280  10.532   9.804  0.3839  1.3263  0.3164
  136PROXS  H3242120  12.182  10.401   9.880  2.8819  1.1577  3.3630
  136PROXS  H3342121  12.109  10.541   9.778  0.2635  1.3379  0.0618
  137PROXS   O142122  12.238  10.559  10.097 -0.1199  0.4052  0.2927
  137PROXS   C142123  12.372  10.613  10.094 -0.7009 -0.3375  0.1203
  137PROXS  H1142124  12.453  10.539  10.080 -0.8457 -0.7727  1.4614
  137PROXS  H1342125  12.381  10.691  10.015 -0.9244 -0.0748  0.3488
  137PROXS   C242126  12.391  10.687  10.228  0.0714 -0.0820  0.0438
  137PROXS  H2142127  12.354  10.624  10.311  0.6293  0.8503  1.0164
  137PROXS   C342128  12.308  10.819  10.230 -0.5502  0.2838 -0.7976
  137PROXS  H3142129  12.209  10.789  10.192 -0.4923 -1.2552  0.1825
  137PROXS  H3242130  12.306  10.851  10.336  2.7337 -1.3038 -0.1074
  137PROXS  H3342131  12.342  10.905  10.169 -0.0882  1.0977  0.5685
  138PROXR   O142132  12.521  10.732  10.251 -0.3463 -0.1570  0.2415
  138PROXR   C142133  12.602  10.633  10.315  1.3529 -0.4266  0.6342
  138PROXR  H1142134  12.577  10.533  10.273 -0.5722  0.6684 -0.9739
  138PROXR  H1342135  12.708  10.652  10.289  0.9941  0.3098 -0.3462
  138PROXR   C242136  12.576  10.638  10.476 -0.1052  0.1611  0.3118
  138PROXR  H2142137  12.468  10.622  10.498  0.4905 -2.1735  1.9791
  138PROXR   C342138  12.637  10.764  10.540 -0.6736 -0.0475  0.0135
  138PROXR  H3142139  12.617  10.767  10.649 -0.0883 -3.3138  0.3088
  138PROXR  H3242140  12.746  10.773  10.519 -0.2672 -0.9046  1.5996
  138PROXR  H3342141  12.598  10.854  10.489 -0.0399 -0.6968 -1.7049
  139PROXS   O142142  12.645  10.531  10.535 -0.2958  0.7388 -0.1701
  139PROXS   C142143  12.588  10.398  10.502  0.5383  0.3015  0.2830
  139PROXS  H1142144  12.478  10.406  10.518  0.2594 -1.4078 -0.5237
  139PROXS  H1342145  12.600  10.370  10.395 -0.7592 -0.2577  0.2627
  139PROXS   C242146  12.647  10.294  10.595 -1.2860  0.6060 -0.1751
  139PROXS  H2142147  12.646  10.334  10.698 -0.8387 -1.3392  0.6260
  139PROXS   C342148  12.794  10.253  10.558  0.5340  0.2857 -0.7288
  139PROXS  H3142149  12.795  10.228  10.450  0.6699 -1.7251 -0.3018
  139PROXS  H3242150  12.863  10.339  10.563 -0.2803  0.9480 -0.6060
  139PROXS  H3342151  12.829  10.174  10.628 -0.6691 -1.4663 -2.0027
  140PROXR   O142152  12.572  10.173  10.577 -0.6673  0.8646 -0.1269
  140PROXR   C142153  12.455  10.159  10.655 -0.3228 -0.4701 -0.0854
  140PROXR  H1142154  12.481  10.187  10.759  0.5539  0.0990 -0.4443
  140PROXR  H1342155  12.376  10.227  10.615 -0.2506 -1.1954 -1.5529
  140PROXR   C242156  12.413  10.012  10.650  0.5828  0.4596  0.2620
  140PROXR  H2142157  12.499   9.948  10.677  0.4244  0.4519  0.7552
  140PROXR   C342158  12.357   9.974  10.512 -0.0631 -0.1170 -0.0085
  140PROXR  H3142159  12.416  10.032  10.438  0.2327 -1.0178 -0.4922
  140PROXR  H3242160  12.364   9.865  10.498 -1.0890 -0.1952  0.0176
  140PROXR  H3342161  12.252  10.010  10.507 -0.2504 -0.3558  1.6426
  141PROXS   O142162  12.316   9.988  10.745  0.1387  0.2113  0.3646
  141PROXS   C142163  12.272   9.846  10.769  0.3996  0.7005  0.0029
  141PROXS  H1142164  12.224   9.796  10.683  3.0245 -1.1700 -0.4935
  141PROXS  H1342165  12.368   9.791  10.782  0.0619  0.3291  1.0570
  141PROXS   C242166  12.182   9.841  10.900 -0.8473  0.0004  0.1510
  141PROXS  H2142167  12.086   9.889  10.870 -0.0113  1.3016 -0.5581
  141PROXS   C342168  12.224   9.932  11.018 -0.0407  0.1552  0.3170
  141PROXS  H3142169  12.321   9.898  11.062  1.2696  1.9794 -1.0089
  141PROXS  H3242170  12.231  10.039  10.992  2.2061 -0.4372 -1.8780
  141PROXS  H3342171  12.142   9.905  11.088 -0.6390 -1.3952 -0.9247
  142PROXS   O142172  12.171   9.708  10.943  0.2147 -0.0769 -0.0023
  142PROXS   C142173  12.101   9.624  10.852 -0.3087  0.2123  0.3037
  142PROXS  H1142174  12.000   9.667  10.833  0.6650  2.9948  0.9918
  142PROXS  H1342175  12.144   9.629  10.750 -0.0046  0.8327  0.4604
  142PROXS   C242176  12.070   9.478  10.905  0.4882 -0.1828  0.4314
  142PROXS  H2142177  12.046   9.492  11.013  0.8486  1.7318  0.3026
  142PROXS   C342178  12.197   9.385  10.900  0.2820  0.4705 -0.4253
  142PROXS  H3142179  12.267   9.414  10.981 -0.5319  0.5015  0.2938
  142PROXS  H3242180  12.162   9.279  10.902  1.5488 -0.0105 -2.0975
  142PROXS  H3342181  12.240   9.398  10.799 -3.0080  0.8130 -1.9101
  143PROXS   O142182  11.960   9.430  10.832  0.0266  0.7840 -0.0160
  143PROXS   C142183  11.884   9.335  10.910 -0.4558  0.1987 -0.4811
  143PROXS  H1142184  11.947   9.259  10.961 -2.8088 -0.2118  2.1067
  143PROXS  H1342185  11.840   9.393  10.995 -1.4939 -0.9012 -0.2268
  143PROXS   C242186  11.773   9.264  10.832  0.6266 -0.2086  0.2562
  143PROXS  H2142187  11.823   9.207  10.751  1.5933  0.4278  0.3817
  143PROXS   C342188  11.679   9.359  10.761  0.2450 -0.3491  0.1551
  143PROXS  H3142189  11.639   9.437  10.829 -0.7175 -0.1737 -0.5810
  143PROXS  H3242190  11.731   9.409  10.677 -0.4938 -1.0815 -0.7682
  143PROXS  H3342191  11.596   9.306  10.709  1.8696 -0.3541 -2.6740
  144PROXS   O142192  11.694   9.188  10.916 -0.3935  0.1217 -0.5373
  144PROXS   C142193  11.735   9.051  10.922  0.0470 -0.0241  0.2499
  144PROXS  H1142194  11.707   9.001  10.827  1.7849  2.6862 -1.8182
  144PROXS  H1342195  11.844   9.042  10.942  0.1198  1.4805  0.6674
  144PROXS   C242196  11.662   8.979  11.038  0.1642  0.6613  0.3100
  144PROXS  H2142197  11.553   8.996  11.028 -0.3347 -1.9787  0.5020
  144PROXS   C342198  11.678   9.044  11.179  0.0815 -0.0382  0.2347
  144PROXS  H3142199  11.600   9.012  11.252 -0.4917 -0.3776 -0.5125
  144PROXS  H3242200  11.782   9.021  11.210  0.1130  0.0494  0.1921
  144PROXS  H3342201  11.666   9.155  11.179 -3.5782 -0.2642  1.9644
  145PROXR   O142202  11.681   8.840  11.039 -0.1099  0.0112 -0.1009
  145PROXR   C142203  11.601   8.773  10.936  1.1371 -0.1451 -0.0910
  145PROXR  H1142204  11.493   8.791  10.955  0.8647  0.1984 -1.7831
  145PROXR  H1342205  11.630   8.810  10.836  0.6239  0.8419  0.1048
  145PROXR   C242206  11.632   8.621  10.952  0.2103 -0.6107  0.3714
  145PROXR  H2142207  11.641   8.597  11.060  1.7909 -0.8863  0.2012
  145PROXR   C342208  11.760   8.586  10.872  0.0297  0.3804 -0.2157
  145PROXR  H3142209  11.747   8.591  10.762 -2.2528  0.2151  0.0077
  145PROXR  H3242210  11.852   8.637  10.909  0.5428 -1.4009  1.0726
  145PROXR  H3342211  11.777   8.479  10.893  0.7731  0.5202 -0.0744
  146PROXS   O142212  11.528   8.547  10.881  0.2449  0.2005 -0.7240
  146PROXS   C142213  11.511   8.420  10.945  0.0347 -0.1205 -0.3393
  146PROXS  H1142214  11.605   8.383  10.990 -0.8851 -2.5021 -0.2430
  146PROXS  H1342215  11.448   8.417  11.037  2.1329 -0.8196  1.1450
  146PROXS   C242216  11.463   8.306  10.854 -0.4134 -0.1297  0.4999
  146PROXS  H2142217  11.550   8.283  10.789 -0.4729  1.8674 -0.3463
  146PROXS   C342218  11.334   8.337  10.772 -0.4838 -0.1447  0.1059
  146PROXS  H3142219  11.255   8.365  10.845 -1.1889  0.3204 -0.8268
  146PROXS  H3242220  11.344   8.429  10.711  0.6017  0.8442  1.6896
  146PROXS  H3342221  11.305   8.256  10.702 -1.6870  0.4332 -0.0927
  147PROXR   O142222  11.444   8.192  10.936 -0.0693  0.2635  0.3572
  147PROXR   C142223  11.356   8.091  10.880 -0.4186 -0.0572 -0.5428
  147PROXR  H1142224  11.248   8.115  10.872 -0.5350 -0.5789 -0.5349
  147PROXR  H1342225  11.396   8.052  10.784  0.2239 -2.6404  0.6873
  147PROXR   C242226  11.368   7.959  10.967  0.9314 -0.2235  0.0108
  147PROXR  H2142227  11.291   7.891  10.924  0.7493 -0.5106  0.7890
  147PROXR   C342228  11.341   7.977  11.114  0.0512 -0.1123  0.1588
  147PROXR  H3142229  11.435   8.018  11.157  1.2968 -4.1826  1.8653
  147PROXR  H3242230  11.263   8.052  11.138  0.5006  0.7055 -0.8508
  147PROXR  H3342231  11.326   7.877  11.162  0.5239 -0.8355 -1.1361
  148PROXR   O142232  11.500   7.894  10.957 -0.3885  0.4653 -0.3594
  148PROXR   C142233  11.524   7.778  11.037 -0.1896  0.4483  0.2273
  148PROXR  H1142234  11.544   7.821  11.137 -1.0809  1.8189 -0.1541
  148PROXR  H1342235  11.431   7.717  11.035  0.4889 -0.6074 -1.1359
  148PROXR   C242236  11.640   7.696  10.980  0.2896 -0.1227  0.0417
  148PROXR  H2142237  11.677   7.745  10.887 -1.6747 -0.2502 -0.8536
  148PROXR   C342238  11.599   7.561  10.933 -0.2241  0.2190  0.9296
  148PROXR  H3142239  11.525   7.569  10.851  1.5815  0.7347 -0.7088
  148PROXR  H3242240  11.691   7.522  10.886 -0.4458  1.2801 -0.4380
  148PROXR  H3342241  11.576   7.498  11.022 -0.5443  1.6223  1.8720
  149PROXR   O142242  11.746   7.686  11.073  0.5956  0.3451  0.3052
  149PROXR   C142243  11.822   7.801  11.093 -0.4612 -0.3461 -0.1008
  149PROXR  H1142244  11.876   7.833  11.001 -0.2428 -1.8189 -0.5026
  149PROXR  H1342245  11.764   7.886  11.135 -0.5345 -0.9744  1.1403
  149PROXR   C242246  11.940   7.764  11.193 -0.7577  0.3420 -0.0477
  149PROXR  H2142247  12.004   7.684  11.151  0.3277  0.1445  1.8769
  149PROXR   C342248  11.877   7.716  11.327  0.3274 -0.7512  0.2521
  149PROXR  H3142249  11.958   7.665  11.384 -0.9496 -2.4594  0.6192
  149PROXR  H3242250  11.834   7.808  11.373 -2.8842 -1.2772 -1.4497
  149PROXR  H3342251  11.795   7.643  11.316  1.1515 -1.6053 -0.3378
  150PROXS   O142252  12.009   7.885  11.212  0.2186 -0.0203  0.5862
  150PROXS   C142253  12.149   7.877  11.249 -0.7336  0.0657  0.5253
  150PROXS  H1142254  12.154   7.860  11.359  0.9965  1.0475  0.6332
  150PROXS  H1342255  12.193   7.784  11.207 -0.6133 -1.7497  4.2344
  150PROXS   C242256  12.225   8.003  11.198  0.6656  0.2747 -0.1985
  150PROXS  H2142257  12.185   8.089  11.255  3.5904  1.7446 -0.1561
  150PROXS   C342258  12.211   8.030  11.051  0.4586 -0.2323  0.1105
  150PROXS  H3142259  12.106   8.016  11.017 -0.5333  0.1418  2.7417
  150PROXS  H3242260  12.235   8.136  11.029  1.7033 -0.3342  0.8686
  150PROXS  H3342261  12.283   7.974  10.989 -0.1604 -0.9025 -0.0227
  151PROXR   O142262  12.357   7.993  11.248 -0.4981  0.0662  0.3280
  151PROXR   C142263  12.423   8.121  11.232 -0.1425  0.2848 -0.6330
  151PROXR  H1142264  12.457   8.141  11.128 -0.7501 -0.6158 -1.0101
  151PROXR  H1342265  12.345   8.198  11.250 -1.1147 -0.8169 -0.0221
  151PROXR   C242266  12.545   8.132  11.331  0.5711  0.7375  0.3555
  151PROXR  H2142267  12.614   8.050  11.301 -3.1794 -1.4287 -3.5789
  151PROXR   C342268  12.493   8.114  11.472 -0.1933  0.0685  0.1049
  151PROXR  H3142269  12.571   8.106  11.551  0.7948  1.7081 -0.6674
  151PROXR  H3242270  12.420   8.188  11.509 -1.1635 -1.9689  2.5848
  151PROXR  H3342271  12.437   8.018  11.483 -0.9417  0.3231 -1.3272
  152PROXR   O142272  12.613   8.249  11.321 -0.4670 -0.2523  0.3190
  152PROXR   C142273  12.748   8.238  11.380  0.9026  0.0576  0.8466
  152PROXR  H1142274  12.744   8.238  11.491 -0.1671 -1.5356  0.8322
  152PROXR  H1342275  12.803   8.144  11.358 -0.5166 -0.9753  1.5864
  152PROXR   C242276  12.835   8.354  11.319  0.1484  0.9037 -0.0561
  152PROXR  H2142277  12.777   8.448  11.322  0.2680  0.9552  0.8596
  152PROXR   C342278  12.862   8.336  11.166 -0.0921 -0.0081  0.7342
  152PROXR  H3142279  12.767   8.317  11.112  0.3215 -0.3533  0.1110
  152PROXR  H3242280  12.912   8.427  11.127  0.9268 -1.8882 -2.8004
  152PROXR  H3342281  12.934   8.256  11.139 -0.2957  0.3385 -0.9784
  153PROXR   O142282  12.955   8.378  11.391 -0.0287 -0.4911 -0.0369
  153PROXR   C142283  12.948   8.488  11.482  0.4536 -0.1505  0.2201
  153PROXR  H1142284  12.923   8.578  11.422 -0.3311  2.0958  3.6321
  153PROXR  H1342285  12.858   8.478  11.547  0.0162 -0.7276 -0.4625
  153PROXR   C242286  13.073   8.510  11.574  0.6125  0.4090  0.6885
  153PROXR  H2142287  13.160   8.519  11.506 -0.7268 -0.4272 -1.2227
  153PROXR   C342288  13.111   8.395  11.671  0.2347  0.7942 -0.1368
  153PROXR  H3142289  13.111   8.300  11.612 -1.0123 -1.4036  3.0914
  153PROXR  H3242290  13.216   8.406  11.703  0.2545 -0.4567  0.2877
  153PROXR  H3342291  13.048   8.386  11.762  1.5900  0.0558  0.7589
  154PROXS   O142292  13.055   8.635  11.638  0.4663 -0.0037  0.1366
  154PROXS   C142293  13.164   8.676  11.720  0.5400 -0.4697 -0.6444
  154PROXS  H1142294  13.155   8.641  11.825  1.9290  1.2416  0.0827
  154PROXS  H1342295  13.264   8.643  11.683  1.3687 -0.4304  1.4676
  154PROXS   C242296  13.173   8.829  11.736 -0.3576  0.2665  0.4717
  154PROXS  H2142297  13.081   8.866  11.787 -2.0925 -2.9084 -0.1172
  154PROXS   C342298  13.174   8.902  11.599  0.4640 -0.6359 -0.3335
  154PROXS  H3142299  13.267   8.877  11.544 -0.2323 -1.5077 -1.1380
  154PROXS  H3242300  13.094   8.859  11.536  1.5051  0.6583 -2.7044
  154PROXS  H3342301  13.156   9.011  11.614  0.0253 -0.6625 -0.6611
  155PROXR   O142302  13.289   8.855  11.813 -0.1687  0.2199  0.3328
  155PROXR   C142303  13.272   8.947  11.921 -0.0555 -0.0151  1.2741
  155PROXR  H1142304  13.172   8.946  11.971  0.0277 -0.3014  1.4324
  155PROXR  H1342305  13.338   8.915  12.004  0.8500  0.6208  0.8150
  155PROXR   C242306  13.307   9.094  11.878 -0.1147  1.0961 -0.2359
  155PROXR  H2142307  13.397   9.077  11.815  0.8389  0.0006  1.3590
  155PROXR   C342308  13.341   9.172  12.008 -0.8156 -0.3708  0.5255
  155PROXR  H3142309  13.412   9.110  12.067  0.6528 -0.3861 -1.1682
  155PROXR  H3242310  13.391   9.268  11.984  0.9971 -1.2833  0.4870
  155PROXR  H3342311  13.245   9.188  12.062 -1.1871  2.4344 -0.8083
  156PROXS   O142312  13.205   9.153  11.800  0.5909  0.5897  0.3116
  156PROXS   C142313  13.230   9.290  11.751 -0.0035  0.5730  0.8670
  156PROXS  H1142314  13.262   9.358  11.833 -0.7686  1.2278  0.6379
  156PROXS  H1342315  13.315   9.280  11.681 -1.0115 -1.6946 -0.1342
  156PROXS   C242316  13.112   9.361  11.679  0.1942 -0.2360 -0.0755
  156PROXS  H2142317  13.027   9.353  11.751 -0.6234 -0.1734 -1.0147
  156PROXS   C342318  13.092   9.307  11.543  0.6853  0.2008  0.1308
  156PROXS  H3142319  13.041   9.209  11.553  0.9342 -0.0738 -1.0690
  156PROXS  H3242320  13.032   9.373  11.477 -0.4748 -2.8534 -2.1149
  156PROXS  H3342321  13.189   9.290  11.491  0.1019  1.8894 -1.6343
  157PROXS   O142322  13.139   9.507  11.683 -0.4808  0.6762  0.5826
  157PROXS   C142323  13.040   9.582  11.613 -0.8536 -0.3425 -0.5826
  157PROXS  H1142324  13.083   9.591  11.511  1.9157  0.5725  0.5622
  157PROXS  H1342325  12.951   9.517  11.621 -0.6950 -0.3783  1.3912
  157PROXS   C242326  13.013   9.718  11.661  0.2140 -0.7150 -0.5206
  157PROXS  H2142327  13.105   9.780  11.659 -1.4281  1.9451  0.8412
  157PROXS   C342328  12.945   9.729  11.803 -0.2770 -0.1215  0.2968
  157PROXS  H3142329  13.019   9.683  11.872  0.9261 -1.5685 -1.8248
  157PROXS  H3242330  12.939   9.834  11.839 -2.1573  0.1573 -0.7085
  157PROXS  H3342331  12.849   9.676  11.818 -0.9830  0.9594 -0.2650
  158PROXR   O142332  12.928   9.774  11.566  0.7089  0.4586 -0.1820
  158PROXR   C142333  12.931   9.919  11.558  0.8878 -0.0169 -0.3263
  158PROXR  H1142334  12.906   9.966  11.655 -2.0176 -2.0964  0.0613
  158PROXR  H1342335  13.038   9.941  11.536  0.4576  1.0740 -1.4184
  158PROXR   C242336  12.839   9.969  11.446  0.0564  0.4498 -0.6702
  158PROXR  H2142337  12.862   9.917  11.350 -2.2481  0.2267 -1.1676
  158PROXR   C342338  12.856  10.122  11.421 -0.2352 -0.0235 -0.3139
  158PROXR  H3142339  12.964  10.146  11.417 -0.6338  1.8129 -0.7380
  158PROXR  H3242340  12.805  10.148  11.326 -0.4900  1.5222  0.2187
  158PROXR  H3342341  12.803  10.181  11.500 -0.6587 -0.3769 -0.3278
  159PROXR   O142342  12.703   9.950  11.488  0.1313 -0.1492  0.7801
  159PROXR   C142343  12.650   9.824  11.448 -0.0536  0.0528 -0.6511
  159PROXR  H1142344  12.658   9.805  11.339 -1.1595 -0.1356 -0.7082
  159PROXR  H1342345  12.702   9.743  11.503  0.5890 -0.2592 -1.6976
  159PROXR   C242346  12.494   9.803  11.470 -0.0477  0.8178  0.0530
  159PROXR  H2142347  12.445   9.872  11.398 -2.3319 -0.7838 -0.0159
  159PROXR   C342348  12.443   9.836  11.611  0.5515  0.1031  0.0114
  159PROXR  H3142349  12.334   9.859  11.618  0.8416  1.2825  1.1414
  159PROXR  H3242350  12.471   9.763  11.689 -1.8852  0.3758  1.2161
  159PROXR  H3342351  12.498   9.924  11.651  0.8027  0.7320 -1.6369
  160PROXS   O142352  12.457   9.669  11.423  0.2790  0.6798 -0.4884
  160PROXS   C142353  12.337   9.616  11.476  0.0147  0.9191 -0.0341
  160PROXS  H1142354  12.350   9.588  11.583  2.4043  0.9807 -0.2582
  160PROXS  H1342355  12.249   9.681  11.458 -0.8095 -0.2110 -0.2074
  160PROXS   C242356  12.303   9.482  11.399  0.2101 -0.4281  0.1237
  160PROXS  H2142357  12.379   9.410  11.436  0.4343 -0.0102  0.4817
  160PROXS   C342358  12.312   9.505  11.248  0.1794 -0.7817 -0.0719
  160PROXS  H3142359  12.295   9.411  11.192 -1.1214 -0.2319 -0.6524
  160PROXS  H3242360  12.245   9.586  11.212  2.5898  0.7034 -1.4864
  160PROXS  H3342361  12.420   9.534  11.241 -0.2770  0.7122 -3.1128
  161PROXR   O142362  12.176   9.429  11.436 -0.1064  0.2782 -0.7602
  161PROXR   C142363  12.172   9.288  11.401 -0.0954  0.2008  0.7138
  161PROXR  H1142364  12.253   9.272  11.327 -2.6113 -0.3756 -2.0590
  161PROXR  H1342365  12.196   9.225  11.490 -2.1807  1.2013  2.0683
  161PROXR   C242366  12.038   9.265  11.336  0.4240 -0.4036  0.1429
  161PROXR  H2142367  12.025   9.335  11.250  1.1738  1.2040  1.2768
  161PROXR   C342368  11.926   9.298  11.436  0.2233 -0.0937 -0.6822
  161PROXR  H3142369  11.932   9.407  11.457  1.1899  0.2576 -2.5037
  161PROXR  H3242370  11.826   9.279  11.392 -1.0096 -0.1912  1.9773
  161PROXR  H3342371  11.941   9.237  11.528 -0.9111  0.9118  0.1908
  162PROXR   O142372  12.013   9.134  11.288 -0.2024  1.0294 -0.0894
  162PROXR   C142373  12.092   9.092  11.180  0.1422 -0.0263  0.5344
  162PROXR  H1142374  12.070   9.154  11.090  0.1062 -2.7834 -1.4915
  162PROXR  H1342375  12.202   9.108  11.191  0.3366 -0.2194 -0.8367
  162PROXR   C242376  12.064   8.947  11.155  0.1914 -1.0750  0.0435
  162PROXR  H2142377  11.956   8.927  11.137  0.3844 -1.8176 -0.3385
  162PROXR   C342378  12.118   8.861  11.271  0.0484 -0.5810  0.2686
  162PROXR  H3142379  12.225   8.885  11.289  0.1335 -2.2247  2.2931
  162PROXR  H3242380  12.065   8.881  11.366  0.3215 -3.5604  1.1508
  162PROXR  H3342381  12.099   8.754  11.248 -2.1063 -0.4528  1.1868
  163PROXS   O142382  12.137   8.904  11.044 -0.0109  0.0725 -0.4657
  163PROXS   C142383  12.106   8.774  10.995 -1.0949 -0.8873  0.1751
  163PROXS  H1142384  12.156   8.697  11.057 -1.5927 -0.9439  0.5168
  163PROXS  H1342385  11.995   8.771  10.999 -1.4242  1.9142 -2.5875
  163PROXS   C242386  12.143   8.770  10.842 -0.7836 -0.8356 -0.1855
  163PROXS  H2142387  12.245   8.811  10.854 -1.1814 -0.0788  0.6470
  163PROXS   C342388  12.068   8.859  10.741 -0.4962  0.1525  0.9925
  163PROXS  H3142389  12.056   8.963  10.779  2.9515  1.4394 -1.0070
  163PROXS  H3242390  12.128   8.872  10.649 -0.0430 -0.2305  1.2332
  163PROXS  H3342391  11.969   8.815  10.714  0.2186 -2.7917  2.7678
  164PROXR   O142392  12.152   8.640  10.797 -0.7053  0.1575 -0.5853
  164PROXR   C142393  12.237   8.618  10.687 -0.2009  0.2164  0.1091
  164PROXR  H1142394  12.238   8.702  10.614 -0.0984  0.8748  0.8610
  164PROXR  H1342395  12.339   8.591  10.720 -0.3883 -0.3691  0.2220
  164PROXR   C242396  12.176   8.495  10.613  0.1821  0.6130  0.7659
  164PROXR  H2142397  12.068   8.515  10.596 -0.2676 -0.7750  1.8297
  164PROXR   C342398  12.193   8.365  10.696  0.1455 -0.1014 -0.2694
  164PROXR  H3142399  12.152   8.387  10.797  1.4787  1.5479 -0.0531
  164PROXR  H3242400  12.112   8.295  10.666  0.3592 -0.3875 -0.1748
  164PROXR  H3342401  12.297   8.329  10.710  0.0161  0.7872  4.8535
  165PROXR   O142402  12.239   8.484  10.486  0.5692 -0.5454 -0.1616
  165PROXR   C142403  12.175   8.557  10.380  0.1324  0.7192 -0.2052
  165PROXR  H1142404  12.076   8.510  10.365  0.3163 -0.4067  1.7155
  165PROXR  H1342405  12.149   8.660  10.414 -1.7773 -0.1708  1.2204
  165PROXR   C242406  12.259   8.555  10.248  0.2365 -0.2928  0.5702
  165PROXR  H2142407  12.354   8.610  10.265  1.3221 -1.0140 -2.4495
  165PROXR   C342408  12.181   8.613  10.119  0.4847 -0.2919 -0.4662
  165PROXR  H3142409  12.134   8.711  10.141  0.8254  0.0571 -1.2603
  165PROXR  H3242410  12.241   8.634  10.028  0.0989  1.1206 -0.4109
  165PROXR  H3342411  12.099   8.541  10.098 -0.2403  0.6449 -0.8744
  166ETHOX   O142412  12.299   8.423  10.223 -0.3788 -0.1385 -0.4665
  166ETHOX   C142413  12.410   8.408  10.135 -0.0734 -0.1498  0.2592
  166ETHOX  H1142414  12.491   8.473  10.173  0.0951 -1.2581  1.8968
  166ETHOX  H1342415  12.380   8.439  10.033  0.0647 -0.0508  0.2486
  166ETHOX   C242416  12.459   8.260  10.143  0.0078 -0.8045 -0.1192
  166ETHOX  H2142417  12.504   8.238  10.044  1.3014  3.2516 -0.6282
  166ETHOX  H2342418  12.380   8.187  10.171  1.1194 -1.1885  2.2767
  167ETHOX   O142419  12.550   8.242  10.247 -0.6448 -0.1633  0.1374
  167ETHOX   C142420  12.596   8.102  10.258  0.3420 -0.0171  0.2166
  167ETHOX  H1142421  12.630   8.084  10.363  0.8452  0.4854  0.1408
  167ETHOX  H1342422  12.508   8.035  10.249 -1.5081  2.1393  1.2743
  167ETHOX   C242423  12.705   8.057  10.161 -0.3071  0.2197 -0.0667
  167ETHOX  H2142424  12.738   7.955  10.190  0.1962  0.0322 -1.2288
  167ETHOX  H2342425  12.802   8.111  10.159 -0.7924  1.2916  2.1319
  168ETHOX   O142426  12.654   8.046  10.026 -0.0923  0.3783  0.0889
  168ETHOX   C142427  12.763   8.031   9.932  0.4821 -0.2432 -0.6905
  168ETHOX  H1142428  12.726   7.975   9.843  0.4623 -2.5834  0.7047
  168ETHOX  H1342429  12.840   7.968   9.981 -0.7282 -0.1570  1.4633
  168ETHOX   C242430  12.803   8.164   9.879 -0.0364  0.0799  0.7613
  168ETHOX  H2142431  12.894   8.153   9.817  1.2759  1.7348  2.2895
  168ETHOX  H2342432  12.821   8.239   9.960  1.5350  0.4610  0.0942
  169ETHOX   O142433  12.702   8.217   9.791  0.3823 -0.4896  0.2725
  169ETHOX   C142434  12.759   8.312   9.705 -0.5812 -0.0809  0.5588
  169ETHOX  H1142435  12.846   8.370   9.745  0.5581 -0.2045 -1.6019
  169ETHOX  H1342436  12.796   8.253   9.619 -2.3457 -1.1095  0.4705
  169ETHOX   C242437  12.652   8.420   9.656 -0.1158 -0.5409  0.2171
  169ETHOX  H2142438  12.704   8.514   9.627 -1.8446  0.3766 -0.0302
  169ETHOX  H2342439  12.581   8.452   9.735 -1.5031  3.2622 -2.2907
  170ETHOX   O142440  12.573   8.380   9.545  0.2956 -0.2407  0.0958
  170ETHOX   C142441  12.640   8.393   9.427 -0.0269 -0.8828  0.1019
  170ETHOX  H1142442  12.747   8.383   9.456 -0.3949  0.3523  1.9986
  170ETHOX  H1342443  12.629   8.500   9.399 -0.7069 -0.8352  0.5206
  170ETHOX   C242444  12.585   8.314   9.308 -0.5560 -0.3997 -0.3379
  170ETHOX  H2142445  12.615   8.366   9.215  0.1245  0.3851  0.2992
  170ETHOX  H2342446  12.477   8.292   9.326 -1.0192 -1.8254 -4.0455
  171ETHOX   O142447  12.642   8.182   9.300  0.2761  0.5925 -0.3960
  171ETHOX   C142448  12.618   8.122   9.171 -0.7368 -0.7875 -0.0709
  171ETHOX  H1142449  12.509   8.134   9.154 -0.9643  1.9873  2.4771
  171ETHOX  H1342450  12.679   8.175   9.095 -2.2082 -1.8116 -2.0457
  171ETHOX   C242451  12.649   7.970   9.175 -0.7181 -0.0931 -0.0520
  171ETHOX  H2142452  12.601   7.927   9.085  1.4915 -2.0700 -0.3692
  171ETHOX  H2342453  12.600   7.937   9.269  1.0932  1.5840  1.5839
  172ETHOX   O142454  12.797   7.936   9.173  0.5875  0.1154  0.5750
  172ETHOX   C142455  12.819   7.796   9.180 -0.0133 -0.1735 -0.0922
  172ETHOX  H1142456  12.769   7.763   9.087 -1.7068  1.4912  0.1530
  172ETHOX  H1342457  12.769   7.762   9.273 -2.8940  1.4479 -0.9163
  172ETHOX   C242458  12.970   7.764   9.181 -0.2842  0.1081 -0.5482
  172ETHOX  H2142459  13.025   7.826   9.108 -1.9855 -0.4490 -2.3856
  172ETHOX  H2342460  12.984   7.660   9.143 -0.3816 -0.3001  0.4878
  173ETHOX   O142461  13.017   7.771   9.312  0.4664  0.8705  0.0232
  173ETHOX   C142462  13.155   7.763   9.326 -1.1750 -0.4386  0.3351
  173ETHOX  H1142463  13.190   7.667   9.282  2.3256  0.2861  1.2067
  173ETHOX  H1342464  13.203   7.848   9.273  0.3534 -1.2398  0.3740
  173ETHOX   C242465  13.210   7.759   9.467  0.4169  0.6286  0.5657
  173ETHOX  H2142466  13.173   7.670   9.521  0.7101  0.4408  0.4592
  173ETHOX  H2342467  13.320   7.742   9.460  0.1685 -0.5039 -0.9995
  174ETHOX   O142468  13.186   7.877   9.539  0.2384 -1.3153 -0.9692
  174ETHOX   C142469  13.228   7.861   9.669 -0.3512 -0.4882  0.1442
  174ETHOX  H1142470  13.151   7.788   9.705 -2.8445 -0.1715 -3.9211
  174ETHOX  H1342471  13.328   7.816   9.688 -0.0107  0.3329  0.3174
  174ETHOX   C242472  13.218   7.994   9.744  0.4351 -0.4079 -1.0089
  174ETHOX  H2142473  13.248   7.962   9.846  0.8460  1.4112 -0.5140
  174ETHOX  H2342474  13.115   8.032   9.729  1.1518  1.7802 -0.8300
  175ETHOX   O142475  13.308   8.090   9.700 -0.1469  1.0222  0.6390
  175ETHOX   C142476  13.311   8.209   9.766  0.7399 -0.9554  0.1627
  175ETHOX  H1142477  13.377   8.274   9.705  0.4441  1.3395  2.1601
  175ETHOX  H1342478  13.211   8.257   9.774  0.3018 -1.5572 -1.2337
  175ETHOX   C242479  13.387   8.206   9.896 -0.0773  0.8313  0.3853
  175ETHOX  H2142480  13.417   8.308   9.927 -1.5239  1.3003  0.2925
  175ETHOX  H2342481  13.476   8.144   9.871 -1.6185 -1.0651 -0.7397
  176ETHOX   O142482  13.311   8.149   9.999  0.0210  0.5405  0.0200
  176ETHOX   C142483  13.379   8.050  10.072 -0.0569  0.2359  0.4075
  176ETHOX  H1142484  13.422   7.970  10.007 -2.4648  1.4472 -2.9771
  176ETHOX  H1342485  13.461   8.096  10.132 -0.2917  1.2204 -0.0040
  176ETHOX   C242486  13.279   7.990  10.176  0.0215 -0.6210  0.3747
  176ETHOX  H2142487  13.338   7.925  10.244  0.5708  0.7067  1.2089
  176ETHOX  H2342488  13.206   7.931  10.116  0.1336  0.4967 -0.9226
  177ETHOX   O142489  13.209   8.088  10.249  0.7975 -1.1059 -0.5618
  177ETHOX   C142490  13.085   8.045  10.303 -0.1183 -0.0074 -0.3677
  177ETHOX  H1142491  13.100   7.947  10.352 -0.3851 -1.6300 -3.3302
  177ETHOX  H1342492  13.006   8.032  10.226 -0.1267 -1.9943 -0.0660
  177ETHOX   C242493  13.044   8.145  10.415  0.9001 -0.2405 -0.4833
  177ETHOX  H2142494  13.110   8.118  10.500 -1.3732 -0.3111  1.3659
  177ETHOX  H2342495  12.942   8.123  10.455  0.4840  1.9266 -0.2141
  178ETHOX   O142496  13.042   8.280  10.369  0.4235  0.7335 -0.4135
  178ETHOX   C142497  13.007   8.372  10.477  0.2678  0.3111 -0.3122
  178ETHOX  H1142498  12.996   8.470  10.426 -0.4388  1.2902  1.6127
  178ETHOX  H1342499  12.909   8.348  10.522 -0.4772  1.8466 -1.0148
  178ETHOX   C242500  13.109   8.392  10.588  0.0733  0.3536 -0.0677
  178ETHOX  H2142501  13.086   8.491  10.634  1.9420  0.0382  1.6695
  178ETHOX  H2342502  13.215   8.399  10.556 -0.1067  0.1578 -0.7303
  179ETHOX   O142503  13.103   8.292  10.687 -0.5109 -0.3107 -0.2255
  179ETHOX   C142504  13.166   8.317  10.811 -0.3816 -0.4244  0.4235
  179ETHOX  H1142505  13.114   8.406  10.853  1.9626  2.1899 -1.8193
  179ETHOX  H1342506  13.265   8.363  10.794 -0.8070  0.1127 -0.6919
  179ETHOX   C242507  13.173   8.194  10.904  0.5200 -0.0274 -0.1155
  179ETHOX  H2142508  13.244   8.204  10.988  2.5281 -2.9917 -1.3201
  179ETHOX  H2342509  13.220   8.114  10.843 -0.9343  0.5536 -2.1387
  180ETHOX   O142510  13.045   8.157  10.937  0.0192 -0.2877 -0.4023
  180ETHOX   C142511  12.972   8.093  10.832  0.6106 -0.0802  0.4656
  180ETHOX  H1142512  12.916   8.164  10.768 -0.9655 -2.0826 -0.4653
  180ETHOX  H1342513  13.049   8.048  10.767  1.3487  3.0465 -0.9943
  180ETHOX   C242514  12.881   7.980  10.891 -0.3414  0.6115 -0.0564
  180ETHOX  H2142515  12.845   7.910  10.813  1.7537 -0.9141  0.2434
  180ETHOX  H2342516  12.794   8.028  10.940 -0.5453  0.2907 -0.1016
  181ETHOX   O142517  12.946   7.894  10.990  0.3208 -0.5464  0.2948
  181ETHOX   C142518  12.865   7.827  11.081  0.2648  0.6812 -0.5360
  181ETHOX  H1142519  12.797   7.761  11.023  1.9998 -0.5576 -1.2418
  181ETHOX  H1342520  12.808   7.900  11.142  0.4122 -0.1203  0.5884
  181ETHOX   C242521  12.959   7.738  11.171 -0.3302  0.0292  0.1360
  181ETHOX  H2142522  13.022   7.688  11.094 -1.3938 -0.9975 -0.0997
  181ETHOX  H2342523  12.900   7.670  11.237 -2.4679 -0.3715 -2.0636
  182ETHOX   O142524  13.040   7.810  11.259  0.7902 -0.0142  0.4634
  182ETHOX   C142525  13.107   7.724  11.351 -0.3654 -0.1778  0.0631
  182ETHOX  H1142526  13.039   7.649  11.396  0.9290 -1.1374  0.4867
  182ETHOX  H1342527  13.195   7.673  11.308  0.3242  1.0916 -0.0851
  182ETHOX   C242528  13.157   7.814  11.468  0.1353  0.5320  0.1113
  182ETHOX  H2142529  13.210   7.904  11.429  3.2697 -1.4409 -0.5886
  182ETHOX  H2342530  13.218   7.753  11.537 -2.6788  0.2380  2.5497
  183ETHOX   O142531  13.046   7.859  11.541  0.3839  0.2701  0.3821
  183ETHOX   C142532  13.081   7.980  11.614  0.3414 -0.2605  0.1584
  183ETHOX  H1142533  13.056   8.071  11.556  0.7063 -1.1700 -1.4789
  183ETHOX  H1342534  13.187   7.980  11.646  0.8060  0.1652 -1.3143
  183ETHOX   C242535  12.994   7.984  11.742 -0.3167  0.3961 -0.0836
  183ETHOX  H2142536  12.895   7.941  11.715  0.3345 -0.9791 -0.3250
  183ETHOX  H2342537  12.984   8.090  11.775  1.9461  0.3524  0.9037
  184ETHOX   O142538  13.047   7.905  11.849  0.3605 -0.2743  0.4380
  184ETHOX   C142539  13.008   7.943  11.980  0.2853  0.1668 -0.1572
  184ETHOX  H1142540  12.912   8.000  11.983  0.7323  0.9466  2.4927
  184ETHOX  H1342541  13.005   7.856  12.050 -1.2788 -0.6149 -1.1516
  184ETHOX   C242542  13.106   8.043  12.030 -0.6206  0.0196  0.1339
  184ETHOX  H2142543  13.207   8.016  11.991 -1.3458  0.1365 -1.9500
  184ETHOX  H2342544  13.099   8.033  12.140 -1.2523 -2.1149 -0.0553
  185ETHOX   O142545  13.074   8.176  11.997  0.4535 -0.1929  0.1632
  185ETHOX   C142546  13.162   8.268  12.057  0.2115 -0.3399  0.3685
  185ETHOX  H1142547  13.170   8.234  12.162 -0.9902  1.2507  1.0183
  185ETHOX  H1342548  13.255   8.271  11.997 -0.1481 -2.0905 -0.3468
  185ETHOX   C242549  13.106   8.411  12.071  0.3601 -0.7385  0.2282
  185ETHOX  H2142550  13.003   8.416  12.111  0.3691 -0.8606  0.2655
  185ETHOX  H2342551  13.107   8.454  11.968  0.2526  0.1906  0.6068
  186ETHOX   O142552  13.190   8.480  12.163 -0.5250 -0.1089  0.6006
  186ETHOX   C142553  13.191   8.619  12.136 -0.9195  0.0706  0.3747
  186ETHOX  H1142554  13.168   8.643  12.030  2.1861  2.3828  0.0866
  186ETHOX  H1342555  13.109   8.659  12.199  0.7640  2.7651  1.0080
  186ETHOX   C242556  13.319   8.684  12.183  0.6790 -0.6329 -0.3511
  186ETHOX  H2142557  13.344   8.653  12.287 -4.0462  1.4607  1.7119
  186ETHOX  H2342558  13.308   8.794  12.171  0.0810 -0.6006  0.3828
  187ETHOX   O142559  13.422   8.648  12.091  0.1001 -0.1063 -0.2069
  187ETHOX   C142560  13.545   8.715  12.114 -0.0704 -0.1715  0.1520
  187ETHOX  H1142561  13.541   8.824  12.094 -1.5394 -0.3709 -0.8097
  187ETHOX  H1342562  13.582   8.690  12.216 -1.2879  1.1476  0.9517
  187ETHOX   C242563  13.658   8.661  12.027  0.3418 -0.4406 -0.1399
  187ETHOX  H2142564  13.757   8.713  12.031  0.8603 -1.0979 -2.6633
  187ETHOX  H2342565  13.633   8.661  11.919  2.9443 -0.1084 -0.8362
  188ETHOX   O142566  13.692   8.529  12.069 -0.0402 -0.1142 -0.0902
  188ETHOX   C142567  13.751   8.445  11.972  0.5564 -0.0328  0.8478
  188ETHOX  H1142568  13.830   8.500  11.916  0.1920 -1.7634 -1.5413
  188ETHOX  H1342569  13.681   8.416  11.891  0.6421  0.5904  0.5392
  188ETHOX   C242570  13.805   8.313  12.030 -0.6066  0.5266  0.3913
  188ETHOX  H2142571  13.896   8.337  12.089  0.5082 -0.0731 -1.0395
  188ETHOX  H2342572  13.823   8.245  11.945 -2.8875  1.0990 -0.6207
  189ETHOX   O142573  13.719   8.247  12.114  0.0785  0.4924 -0.8281
  189ETHOX   C142574  13.620   8.157  12.052 -0.4376 -0.0858 -0.1920
  189ETHOX  H1142575  13.555   8.223  11.990  2.0357  1.0622 -1.7283
  189ETHOX  H1342576  13.666   8.084  11.983 -1.5967 -1.1166  0.0999
  189ETHOX   C242577  13.516   8.077  12.145  0.2455 -0.5761 -1.0739
  189ETHOX  H2142578  13.422   8.043  12.097  0.0338 -0.0142 -1.0599
  189ETHOX  H2342579  13.482   8.146  12.224  0.2556 -0.6105 -1.0392
  190ETHOX   O142580  13.576   7.966  12.202 -0.1559 -0.1092 -0.3421
  190ETHOX   C142581  13.582   7.857  12.111 -0.0267 -0.3283 -0.5489
  190ETHOX  H1142582  13.687   7.820  12.116 -0.2319 -0.7534  0.9000
  190ETHOX  H1342583  13.550   7.897  12.012  1.0171  1.6844 -0.1402
  190ETHOX   C242584  13.497   7.740  12.151 -0.5349  0.4629  0.1496
  190ETHOX  H2142585  13.533   7.700  12.248  4.5975  0.9776 -1.2384
  190ETHOX  H2342586  13.513   7.659  12.077 -1.3655 -1.4887  2.0040
  191ETHOX   O142587  13.357   7.762  12.161 -0.1536  0.2802  0.0150
  191ETHOX   C142588  13.286   7.656  12.229  0.1007  0.3039  0.2245
  191ETHOX  H1142589  13.346   7.616  12.313  1.7842  1.4598 -0.3647
  191ETHOX  H1342590  13.192   7.696  12.274  0.1830  0.3845  0.3238
  191ETHOX   C242591  13.247   7.544  12.133  0.6289  0.1464  0.0514
  191ETHOX  H2142592  13.207   7.457  12.189  2.8659 -1.6242 -0.9720
  191ETHOX  H2342593  13.342   7.503  12.093 -0.1753  0.0834 -1.8922
  192ETHOX   O142594  13.151   7.578  12.031  0.2111 -0.1117  0.1144
  192ETHOX   C142595  13.158   7.489  11.920 -0.0819 -0.4811  0.3397
  192ETHOX  H1142596  13.161   7.385  11.958  1.3170 -0.6102 -0.0661
  192ETHOX  H1342597  13.255   7.509  11.869 -0.2012  0.6855  0.5250
  192ETHOX   C242598  13.052   7.509  11.818 -0.0582 -0.0260  0.2612
  192ETHOX  H2142599  13.074   7.438  11.735  0.8664  1.2173 -0.6029
  192ETHOX  H2342600  13.057   7.612  11.776  0.3628 -0.0164  0.3324
  193ETHOX   O142601  12.925   7.487  11.877 -0.0861  0.0094 -0.0750
  193ETHOX   C142602  12.825   7.572  11.820  0.0192  0.1953  0.6436
  193ETHOX  H1142603  12.852   7.677  11.844  0.3560  0.0549  0.8939
  193ETHOX  H1342604  12.821   7.562  11.710 -2.4960  0.4247  0.6466
  193ETHOX   C242605  12.688   7.541  11.883  0.0521 -0.3145 -0.1707
  193ETHOX  H2142606  12.691   7.557  11.993  0.0283 -0.3769 -0.1611
  193ETHOX  H2342607  12.677   7.433  11.860  0.8912 -0.5368  0.4128
  194ETHOX   O142608  12.584   7.629  11.839 -1.1473 -0.5690 -0.2860
  194ETHOX   C142609  12.455   7.570  11.880 -0.4745 -0.1466  0.8565
  194ETHOX  H1142610  12.451   7.583  11.991  0.1875 -0.1886  0.8856
  194ETHOX  H1342611  12.442   7.460  11.867 -3.1187  0.0730  1.0711
  194ETHOX   C242612  12.336   7.639  11.811 -0.1844 -0.6492 -0.4510
  194ETHOX  H2142613  12.244   7.590  11.850 -0.2023 -0.4731 -0.2725
  194ETHOX  H2342614  12.335   7.618  11.702 -1.5782 -2.6855 -0.0919
  195ETHOX   O142615  12.335   7.785  11.836 -0.0871  0.8344 -0.7594
  195ETHOX   C142616  12.257   7.861  11.741  0.5034  0.4530  0.6643
  195ETHOX  H1142617  12.292   7.841  11.638 -2.4221 -0.8502 -0.1810
  195ETHOX  H1342618  12.156   7.814  11.742 -0.0039  1.5039  0.8099
  195ETHOX   C242619  12.246   8.011  11.770  0.1997  0.3729  0.2610
  195ETHOX  H2142620  12.186   8.063  11.693 -1.4497  0.1101  1.3080
  195ETHOX  H2342621  12.351   8.046  11.763  0.3458 -0.3638 -3.5405
  196ETHOX   O142622  12.196   8.048  11.900  0.5056  0.4185  0.4299
  196ETHOX   C142623  12.058   8.096  11.904  0.3624  1.0522 -0.1002
  196ETHOX  H1142624  12.049   8.179  11.830  1.0058 -0.3716 -1.8775
  196ETHOX  H1342625  11.996   8.008  11.876  2.1645 -0.2747 -0.1452
  196ETHOX   C242626  12.026   8.136  12.046 -0.2070 -0.3530 -0.4572
  196ETHOX  H2142627  11.933   8.193  12.064  0.0554  0.3252 -1.1964
  196ETHOX  H2342628  12.113   8.194  12.085 -0.5310 -0.2795  0.1687
  197ETHOX   O142629  12.025   8.017  12.120  0.3425  0.0475 -0.2157
  197ETHOX   C142630  12.036   8.035  12.261 -1.0532 -0.3226 -0.3575
  197ETHOX  H1142631  12.146   8.043  12.274 -1.3409  0.7316  1.9304
  197ETHOX  H1342632  11.995   8.131  12.299  0.9675 -0.1984  1.7211
  197ETHOX   C242633  11.981   7.915  12.344 -0.3615  0.2911 -0.2272
  197ETHOX  H2142634  12.024   7.931  12.445 -0.6191  2.2451 -0.3936
  197ETHOX  H2342635  12.011   7.811  12.319 -0.7958  0.2276 -0.5040
  198ETHOX   O142636  11.838   7.909  12.372 -0.4764  0.2194 -0.3136
  198ETHOX   C142637  11.762   7.894  12.252  0.2516 -0.3079 -0.4632
  198ETHOX  H1142638  11.819   7.903  12.157 -0.1457  1.9154 -0.5337
  198ETHOX  H1342639  11.730   7.788  12.264  1.9956 -0.8396 -0.1268
  198ETHOX   C242640  11.648   8.003  12.252  0.1096 -0.9692  0.3209
  198ETHOX  H2142641  11.587   8.011  12.345 -3.1934  0.7825 -1.7805
  198ETHOX  H2342642  11.574   7.977  12.173 -1.2267 -0.3121  1.3034
  199ETHOX   O142643  11.695   8.134  12.228 -0.9260  0.6238  0.0206
  199ETHOX   C142644  11.594   8.234  12.215  0.4232  0.0762 -0.1022
  199ETHOX  H1142645  11.561   8.251  12.319 -1.6794  0.8177 -0.8469
  199ETHOX  H1342646  11.525   8.200  12.135  0.3274  0.3749 -0.1498
  199ETHOX   C242647  11.673   8.362  12.183  0.0278  0.1126  0.3446
  199ETHOX  H2142648  11.765   8.375  12.244  0.8384 -0.5568 -0.7044
  199ETHOX  H2342649  11.616   8.457  12.199  0.8171  0.6731 -0.1101
  200ETHOX   O142650  11.716   8.362  12.047 -0.0652  0.2923  0.4124
  200ETHOX   C142651  11.765   8.490  12.012 -0.1185 -0.0681  1.0191
  200ETHOX  H1142652  11.696   8.573  12.038  0.1328  0.8224 -0.9875
  200ETHOX  H1342653  11.856   8.521  12.069  0.4373  0.8474 -0.3230
  200ETHOX   C242654  11.810   8.493  11.863 -0.4448 -0.5562 -0.2052
  200ETHOX  H2142655  11.729   8.450  11.799 -1.6471 -3.4347  2.9403
  200ETHOX  H2342656  11.903   8.432  11.858  0.0805  0.3193 -2.0314
  201ETHOX   O142657  11.856   8.623  11.824  0.9085 -1.0137 -0.1766
  201ETHOX   C142658  11.950   8.628  11.722  0.0862 -0.1746 -0.2639
  201ETHOX  H1142659  12.045   8.574  11.744 -0.6203 -1.9630 -1.3695
  201ETHOX  H1342660  11.977   8.735  11.710  0.2773 -0.2861 -0.8122
  201ETHOX   C242661  11.889   8.578  11.592 -0.1266 -0.1171 -0.7645
  201ETHOX  H2142662  11.920   8.655  11.517  3.2526 -1.0795 -0.5091
  201ETHOX  H2342663  11.778   8.584  11.594 -0.1939 -0.8149 -1.7222
  202ETHOX   O142664  11.937   8.451  11.547  0.2198  0.2000  0.3332
  202ETHOX   C142665  12.035   8.463  11.448  0.5469  0.9517  0.2646
  202ETHOX  H1142666  12.096   8.555  11.437  0.5292  1.0488  0.9709
  202ETHOX  H1342667  12.111   8.392  11.486  1.3627  1.1091 -1.0328
  202ETHOX   C242668  11.972   8.433  11.314 -0.0559  0.6117  0.8529
  202ETHOX  H2142669  11.918   8.525  11.282 -0.2121  0.8961  1.8830
  202ETHOX  H2342670  11.888   8.360  11.317 -0.9647  1.6154  0.4192
  203ETHOX   O142671  12.069   8.393  11.217 -0.3204  0.2688 -0.2980
  203ETHOX   C142672  12.013   8.372  11.085  0.2546  0.1603 -0.2202
  203ETHOX  H1142673  12.102   8.359  11.021  0.7110 -3.1213  0.9206
  203ETHOX  H1342674  11.958   8.466  11.060 -1.2893 -0.1101  1.9084
  203ETHOX   C242675  11.915   8.251  11.074 -0.8962 -0.0106 -0.7721
  203ETHOX  H2142676  11.822   8.270  11.131 -0.0761 -1.3364  1.1345
  203ETHOX  H2342677  11.957   8.156  11.115 -1.3020  0.9470  2.0722
  204ETHOX   O142678  11.889   8.235  10.938  0.5220 -0.2410  0.4526
  204ETHOX   C142679  11.799   8.134  10.913  0.0257  0.6046 -0.2264
  204ETHOX  H1142680  11.832   8.044  10.968  2.9916  2.6904  1.7400
  204ETHOX  H1342681  11.693   8.161  10.929 -0.1128 -0.7350  1.2664
  204ETHOX   C242682  11.805   8.095  10.764  0.5212 -0.4001 -0.2598
  204ETHOX  H2142683  11.836   8.177  10.696 -1.4219  0.1474 -0.5468
  204ETHOX  H2342684  11.706   8.060  10.728 -0.0055 -0.7618  1.4247
  205ETHOX   O142685  11.889   7.978  10.750 -0.7840 -0.1612 -0.0982
  205ETHOX   C142686  12.015   8.022  10.714 -0.8890  0.1655  0.7565
  205ETHOX  H1142687  12.044   8.096  10.792  1.1575  1.6836 -1.3059
  205ETHOX  H1342688  12.001   8.079  10.619  1.0239  0.2908  0.5132
  205ETHOX   C242689  12.125   7.910  10.701  0.8853 -0.0030  0.0436
  205ETHOX  H2142690  12.143   7.871  10.804 -0.4596 -0.1152  0.2555
  205ETHOX  H2342691  12.213   7.966  10.663 -1.2614  1.6475 -2.8769
  206ETHOX   O142692  12.092   7.798  10.617  0.4059  0.0989  0.0589
  206ETHOX   C142693  12.204   7.713  10.611  0.5834 -0.5050  0.0730
  206ETHOX  H1142694  12.294   7.775  10.593  2.4980 -2.1739  3.0373
  206ETHOX  H1342695  12.206   7.661  10.709 -1.1390 -1.5070 -0.3685
  206ETHOX   C242696  12.175   7.614  10.502 -0.5989  0.0273  0.3817
  206ETHOX  H2142697  12.068   7.584  10.504 -0.4559 -0.5001  0.4289
  206ETHOX  H2342698  12.189   7.673  10.410 -1.2785 -1.2371 -0.5656
  207ETHOX   O142699  12.238   7.494  10.510 -0.1961  0.2719  0.3191
  207ETHOX   C142700  12.217   7.418  10.387 -0.0971 -0.1327 -0.1911
  207ETHOX  H1142701  12.254   7.480  10.303  0.3982  1.4307  1.1210
  207ETHOX  H1342702  12.109   7.417  10.361 -0.2288  1.5357  0.1212
  207ETHOX   C242703  12.281   7.277  10.391 -0.4811  0.5290  0.1417
  207ETHOX  H2142704  12.246   7.213  10.307 -0.9362 -0.1830  0.8536
  207ETHOX  H2342705  12.248   7.228  10.485  1.4369 -0.5124  0.3209
  208ETHOX   O142706  12.423   7.296  10.380  0.2653 -0.4363  0.6118
  208ETHOX   C142707  12.483   7.178  10.435 -0.1638  0.6229 -0.1128
  208ETHOX  H1142708  12.457   7.176  10.543 -0.8459  1.9355 -0.2288
  208ETHOX  H1342709  12.443   7.082  10.397  1.7117 -0.6779  1.0085
  208ETHOX   C242710  12.635   7.167  10.431  0.0718 -0.4865 -0.5599
  208ETHOX  H2142711  12.667   7.088  10.503  0.9802  0.0178 -0.3955
  208ETHOX  H2342712  12.671   7.262  10.475 -0.6513 -0.6756  0.5027
  209ETHOX   O142713  12.678   7.152  10.296 -0.4448 -0.2272  0.0543
  209ETHOX   C142714  12.820   7.128  10.289  0.3084  0.4643  0.3881
  209ETHOX  H1142715  12.842   7.041  10.354 -1.7934 -0.2492  0.2173
  209ETHOX  H1342716  12.873   7.213  10.338  1.2524  0.2735 -0.2894
  209ETHOX   C242717  12.871   7.112  10.142  0.9074  0.5237  0.3645
  209ETHOX  H2142718  12.796   7.039  10.104 -0.5186  2.2272 -0.2810
  209ETHOX  H2342719  12.972   7.068  10.140  1.6865  2.2280  0.5159
  210ETHOX   O142720  12.860   7.226  10.057  0.4778 -0.0147  0.2083
  210ETHOX   C142721  12.983   7.299  10.051  0.3533  0.2560 -0.3957
  210ETHOX  H1142722  12.949   7.402  10.025 -0.1094  0.4757  0.9964
  210ETHOX  H1342723  13.034   7.300  10.149  0.4480  1.3795 -0.4458
  210ETHOX   C242724  13.067   7.259   9.930 -0.0690  0.2849  0.5167
  210ETHOX  H2142725  13.139   7.344   9.922 -1.3888  1.9139  3.8554
  210ETHOX  H2342726  13.012   7.241   9.835  0.0059 -0.5962  0.6375
  211ETHOX   O142727  13.140   7.136   9.950  0.1032  0.0672  0.2657
  211ETHOX   C142728  13.231   7.113   9.844  0.0239  0.1773 -0.2848
  211ETHOX  H1142729  13.175   7.103   9.749 -2.2280 -0.8922  1.0627
  211ETHOX  H1342730  13.288   7.206   9.825 -0.2681  0.3239 -0.4459
  211ETHOX   C242731  13.304   6.982   9.863 -0.2992  0.1851  0.2046
  211ETHOX  H2142732  13.367   6.965   9.773  0.1429  0.7872  0.3882
  211ETHOX  H2342733  13.233   6.897   9.869  1.0411 -1.1232 -1.3690
  212ETHOX   O142734  13.378   6.987   9.982 -0.4244  0.0363  0.0983
  212ETHOX   C142735  13.460   6.869   9.998 -0.5726 -0.3604 -0.0012
  212ETHOX  H1142736  13.396   6.794  10.048 -2.2108  0.4113 -0.8586
  212ETHOX  H1342737  13.482   6.826   9.898  1.1295  0.6282 -0.1014
  212ETHOX   C242738  13.590   6.894  10.076 -0.1217 -0.2872 -0.4931
  212ETHOX  H2142739  13.635   6.981  10.022 -0.7046 -0.6688 -1.6233
  212ETHOX  H2342740  13.643   6.797  10.074 -2.2746 -1.6488  1.8596
  213ETHOX   O142741  13.553   6.927  10.215  0.5743 -0.0048 -0.0489
  213ETHOX   C142742  13.666   6.933  10.302 -0.0211 -1.2281 -0.4728
  213ETHOX  H1142743  13.719   6.837  10.289  1.3848 -0.6363  0.6037
  213ETHOX  H1342744  13.736   7.014  10.272 -0.4181  0.0373  1.7428
  213ETHOX   C242745  13.628   6.951  10.451 -0.2000  0.3693  0.0287
  213ETHOX  H2142746  13.559   7.037  10.461  0.5873  0.8272  1.9186
  213ETHOX  H2342747  13.720   6.978  10.506 -0.2123 -0.6310  0.5711
  214ETHOX   O142748  13.572   6.833  10.496 -0.0209  0.0486  0.0236
  214ETHOX   C142749  13.473   6.850  10.593  0.6000 -0.5981  0.3646
  214ETHOX  H1142750  13.437   6.749  10.622  0.0628  0.2793  3.0816
  214ETHOX  H1342751  13.386   6.906  10.553 -1.3101 -1.3345  3.1986
  214ETHOX   C242752  13.510   6.919  10.720  0.3414  0.3610 -0.3312
  214ETHOX  H2142753  13.594   6.864  10.768  0.8096  1.5889  0.3244
  214ETHOX  H2342754  13.425   6.916  10.791  0.7780  2.2844  0.3463
  215ETHOX   O142755  13.544   7.056  10.702  0.3015 -0.0498 -0.2010
  215ETHOX   C142756  13.529   7.136  10.821 -0.0840  0.1788  0.5183
  215ETHOX  H1142757  13.422   7.145  10.847 -0.5498 -0.1412 -1.1561
  215ETHOX  H1342758  13.585   7.078  10.897  3.8783  1.4754 -1.1489
  215ETHOX   C242759  13.578   7.274  10.799 -0.3645 -0.5688 -0.3120
  215ETHOX  H2142760  13.682   7.279  10.759 -0.5175 -1.1481 -0.7857
  215ETHOX  H2342761  13.578   7.304  10.906 -0.7221  0.7150 -0.6489
  216ETHOX   O142762  13.486   7.354  10.730 -0.0061 -0.3037  0.2428
  216ETHOX   C142763  13.531   7.485  10.703  0.3804 -0.6019  1.2694
  216ETHOX  H1142764  13.628   7.466  10.654 -0.0792 -0.9991  0.5064
  216ETHOX  H1342765  13.542   7.542  10.798 -0.4942 -1.1662  1.7293
  216ETHOX   C242766  13.423   7.551  10.614  0.0316 -0.1660 -0.5496
  216ETHOX  H2142767  13.377   7.490  10.534 -2.0697 -0.2401  0.6379
  216ETHOX  H2342768  13.463   7.639  10.559  0.7569 -0.6477 -0.8011
  217ETHOX   O142769  13.317   7.607  10.687 -0.3384  0.3236 -0.9807
  217ETHOX   C142770  13.236   7.685  10.608 -0.3389  0.0115  0.0963
  217ETHOX  H1142771  13.300   7.760  10.556  1.7776 -0.0886  2.3894
  217ETHOX  H1342772  13.181   7.628  10.530  0.6816 -0.8814  0.0047
  217ETHOX   C242773  13.134   7.776  10.687  0.1474  0.6299  0.0734
  217ETHOX  H2142774  13.185   7.861  10.738  0.7087 -0.0039  0.6029
  217ETHOX  H2342775  13.089   7.708  10.763  2.6361 -1.7332 -0.4183
  218ETHOX   O142776  13.026   7.829  10.615 -0.1679 -0.4895  0.9706
  218ETHOX   C142777  12.925   7.738  10.574 -0.6035 -0.2393 -0.1254
  218ETHOX  H1142778  12.904   7.652  10.642 -2.5413 -0.4223 -0.8924
  218ETHOX  H1342779  12.956   7.675  10.488 -0.5702 -1.4678  0.7657
  218ETHOX   C242780  12.794   7.806  10.537 -1.1068  0.2719  0.1935
  218ETHOX  H2142781  12.731   7.737  10.477  0.4998 -0.5580 -0.5978
  218ETHOX  H2342782  12.814   7.899  10.481 -0.3355  0.5600  0.9247
  219ETHOX   O142783  12.718   7.851  10.648 -0.1062  0.3593 -0.2533
  219ETHOX   C142784  12.581   7.887  10.622 -0.3725  0.2234 -0.0108
  219ETHOX  H1142785  12.581   7.955  10.535  0.2338  1.2701  0.7886
  219ETHOX  H1342786  12.533   7.795  10.581  1.7114 -0.3674 -1.2766
  219ETHOX   C242787  12.508   7.941  10.735 -0.4645 -0.4044  0.3099
  219ETHOX  H2142788  12.421   8.006  10.708  0.3698  0.6736  0.1336
  219ETHOX  H2342789  12.575   8.006  10.795  0.7414 -1.4791  0.1673
  220ETHOX   O142790  12.451   7.828  10.808  0.1382 -0.3766  0.1407
  220ETHOX   C142791  12.544   7.733  10.845 -0.1842 -0.7392 -0.8673
  220ETHOX  H1142792  12.637   7.778  10.887 -0.8568 -1.8233  2.0334
  220ETHOX  H1342793  12.583   7.668  10.764  3.0437 -2.0628  1.5181
  220ETHOX   C242794  12.483   7.652  10.950  0.7021 -0.4952 -0.3542
  220ETHOX  H2142795  12.462   7.709  11.043 -1.4190  0.8581 -1.5838
  220ETHOX  H2342796  12.561   7.576  10.973 -0.5828 -1.3057  1.5600
  221ETHOX   O142797  12.373   7.586  10.907  1.0160 -0.7321 -0.2068
  221ETHOX   C142798  12.277   7.571  11.015 -0.7825  0.6606 -0.5583
  221ETHOX  H1142799  12.331   7.552  11.110 -2.4365 -2.8651 -0.1683
  221ETHOX  H1342800  12.211   7.659  11.024 -1.1879  0.4021 -0.9605
  221ETHOX   C242801  12.185   7.454  10.994  0.2569  0.1950  0.3591
  221ETHOX  H2142802  12.233   7.354  10.984 -3.0468 -1.3868 -1.0090
  221ETHOX  H2342803  12.118   7.466  10.906  1.4219  1.7545 -0.3605
  222ETHOX   O142804  12.094   7.449  11.102 -0.2131  0.1541 -0.0686
  222ETHOX   C142805  11.972   7.375  11.076 -0.9796 -0.1796  0.8522
  222ETHOX  H1142806  11.923   7.420  10.987  0.1158 -0.9186 -0.1544
  222ETHOX  H1342807  12.003   7.271  11.049  1.7066  0.0078  2.7810
  222ETHOX   C242808  11.879   7.360  11.192  0.5045  0.8034  0.0423
  222ETHOX  H2142809  11.787   7.318  11.147 -0.0459  1.3756  0.6098
  222ETHOX  H2342810  11.855   7.462  11.230  0.2956  0.1541  1.7750
  223ETHOX   O142811  11.923   7.271  11.295 -0.8062 -0.1235  0.0086
  223ETHOX   C142812  11.838   7.290  11.405 -0.1814  0.3132 -0.3921
  223ETHOX  H1142813  11.841   7.393  11.447  0.0122  0.4695 -0.7871
  223ETHOX  H1342814  11.735   7.254  11.389 -1.0608  2.1584  0.7469
  223ETHOX   C242815  11.888   7.195  11.511 -0.1618 -0.1833 -0.1951
  223ETHOX  H2142816  11.913   7.097  11.464  1.0570  1.1932 -2.6825
  223ETHOX  H2342817  11.826   7.172  11.600  0.3419 -0.2694  0.1389
  224ETHOX   O142818  12.011   7.248  11.555 -0.7554  0.8362  0.1845
  224ETHOX   C142819  12.081   7.165  11.650 -0.2357  0.3494  0.2426
  224ETHOX  H1142820  12.007   7.138  11.728 -1.2221  1.4329 -0.3014
  224ETHOX  H1342821  12.116   7.073  11.599  0.9670  1.2738 -0.6581
  224ETHOX   C242822  12.200   7.224  11.730  0.1341 -0.1582 -0.1280
  224ETHOX  H2142823  12.273   7.262  11.654  0.4979  0.7193  0.6389
  224ETHOX  H2342824  12.251   7.143  11.786  0.9718 -1.3278 -2.4319
  225ETHOX   O142825  12.176   7.339  11.816 -0.4180  0.4549  0.0509
  225ETHOX   C142826  12.106   7.308  11.933  0.1219  0.1652 -0.2617
  225ETHOX  H1142827  12.109   7.199  11.956 -0.5374 -0.1480 -1.5656
  225ETHOX  H1342828  11.999   7.334  11.916 -0.0988 -1.2527 -1.1814
  225ETHOX   C242829  12.153   7.386  12.059 -0.1783 -0.0605 -0.5299
  225ETHOX  H2142830  12.092   7.345  12.142  0.3633  0.6992  0.2695
  225ETHOX  H2342831  12.120   7.491  12.041  0.2217 -0.0272 -1.0962
  226ETHOX   O142832  12.293   7.393  12.087  0.0881  0.2991  0.4880
  226ETHOX   C142833  12.316   7.458  12.210 -0.6577 -0.6673  0.2352
  226ETHOX  H1142834  12.282   7.564  12.202 -3.3923 -1.5778 -1.1793
  226ETHOX  H1342835  12.256   7.416  12.293  0.2140  0.9503  1.7622
  226ETHOX   C242836  12.456   7.449  12.262 -0.1549 -0.5461  0.3093
  226ETHOX  H2142837  12.464   7.513  12.352  2.3865 -0.0155 -0.2275
  226ETHOX  H2342838  12.518   7.500  12.185 -0.2345 -0.0858  0.5499
  227ETHOX   O142839  12.500   7.317  12.277  0.4559  0.3118 -0.7141
  227ETHOX   C142840  12.635   7.307  12.321  0.2522 -0.9057  0.1950
  227ETHOX  H1142841  12.650   7.383  12.400  0.9601 -0.0461 -0.7412
  227ETHOX  H1342842  12.697   7.346  12.238  0.9537 -1.6538  0.3505
  227ETHOX   C242843  12.676   7.165  12.362 -0.2857 -0.0710 -0.3478
  227ETHOX  H2142844  12.627   7.127  12.455  0.3417 -3.7556 -1.3518
  227ETHOX  H2342845  12.785   7.164  12.383 -0.1897  1.2015 -0.6861
  228ETHOX   O142846  12.653   7.078  12.249  0.2275  0.7933  0.0965
  228ETHOX   C142847  12.679   6.938  12.269 -0.2111 -0.5862 -0.0108
  228ETHOX  H1142848  12.779   6.920  12.314  0.3127  2.3407  0.1694
  228ETHOX  H1342849  12.603   6.906  12.344  0.3434 -2.0806 -0.0504
  228ETHOX   C242850  12.684   6.846  12.143  0.4096  0.0086  0.2326
  228ETHOX  H2142851  12.580   6.836  12.105  1.6847 -3.4722 -2.9795
  228ETHOX  H2342852  12.725   6.745  12.166 -0.3419 -0.4653 -0.4339
  229ETHOX   O142853  12.768   6.914  12.050 -0.3677  0.0184 -0.2863
  229ETHOX   C142854  12.774   6.844  11.925 -0.9635 -0.1055 -0.6786
  229ETHOX  H1142855  12.674   6.806  11.899 -1.2136  0.6923 -0.9004
  229ETHOX  H1342856  12.839   6.755  11.944 -1.4676 -0.3964 -0.2979
  229ETHOX   C242857  12.838   6.914  11.802 -0.5248 -0.7040  0.2690
  229ETHOX  H2142858  12.821   6.837  11.724  0.8479 -0.8851  0.1141
  229ETHOX  H2342859  12.946   6.935  11.823 -0.4075 -0.0662 -0.9115
  230ETHOX   O142860  12.762   7.030  11.780 -0.2549  0.5014  0.6914
  230ETHOX   C142861  12.804   7.092  11.663 -0.1121 -0.8327 -0.4534
  230ETHOX  H1142862  12.902   7.145  11.673 -0.4027 -0.3091 -0.3510
  230ETHOX  H1342863  12.800   7.018  11.581  3.4749  0.7790 -2.3389
  230ETHOX   C242864  12.704   7.209  11.618 -0.7265  0.0298 -0.6089
  230ETHOX  H2142865  12.723   7.293  11.687  2.2879 -1.3174  0.3536
  230ETHOX  H2342866  12.599   7.175  11.630 -0.8747  0.8335  0.4881
  231ETHOX   O142867  12.718   7.248  11.484  0.0038  0.2711  0.3052
  231ETHOX   C142868  12.601   7.314  11.438  0.1291 -0.1504  0.2845
  231ETHOX  H1142869  12.564   7.403  11.493 -1.3327 -1.9677  2.4520
  231ETHOX  H1342870  12.511   7.249  11.449  0.0154 -0.0413 -0.0134
  231ETHOX   C242871  12.623   7.357  11.285  0.6946  0.0313 -0.5222
  231ETHOX  H2142872  12.713   7.421  11.278 -1.5284  3.4039 -0.7528
  231ETHOX  H2342873  12.540   7.421  11.249 -0.5216 -1.1139  0.1506
  232ETHOX   O142874  12.638   7.261  11.181 -0.1522  0.2720  0.5033
  232ETHOX   C142875  12.522   7.240  11.101  0.0972  0.3731 -1.3278
  232ETHOX  H1142876  12.447   7.188  11.164  1.9371 -3.0043 -1.6758
  232ETHOX  H1342877  12.493   7.328  11.041 -1.8630  0.3283 -0.5042
  232ETHOX   C242878  12.546   7.126  10.996 -0.4917  0.1855 -0.1541
  232ETHOX  H2142879  12.450   7.098  10.948 -1.9423 -1.1071  3.1435
  232ETHOX  H2342880  12.583   7.042  11.058 -1.3730  0.6956  1.1252
  233ETHOX   O142881  12.640   7.165  10.895  0.1086 -0.2138 -0.0477
  233ETHOX   C142882  12.661   7.052  10.811 -0.5641 -0.1094  0.3544
  233ETHOX  H1142883  12.662   6.953  10.862  0.8419  0.1034  0.7705
  233ETHOX  H1342884  12.582   7.051  10.733  0.6532 -0.1843 -0.9127
  233ETHOX   C242885  12.793   7.068  10.735  0.6313  0.1764 -0.9610
  233ETHOX  H2142886  12.815   7.175  10.714  0.2803  0.3779 -0.3474
  233ETHOX  H2342887  12.790   7.007  10.642  0.4592 -1.1639 -0.1088
  234ETHOX   O142888  12.891   7.012  10.818  0.1240 -0.4785  0.1053
  234ETHOX   C142889  13.019   7.014  10.760 -0.1886  0.2052  0.6564
  234ETHOX  H1142890  13.003   6.955  10.667 -2.0111 -0.2101  1.1970
  234ETHOX  H1342891  13.037   7.119  10.727  2.8144 -0.4475 -0.0456
  234ETHOX   C242892  13.121   6.962  10.853  0.1787 -0.6851 -0.1523
  234ETHOX  H2142893  13.125   7.015  10.950 -0.1705  0.6746 -0.8571
  234ETHOX  H2342894  13.219   6.983  10.805  0.1300  2.8938  1.0664
  235ETHOX   O142895  13.093   6.821  10.866 -0.1174  0.2248 -0.7149
  235ETHOX   C142896  13.204   6.764  10.943 -0.1942 -0.0118 -0.1470
  235ETHOX  H1142897  13.295   6.774  10.881 -0.0330 -1.0376 -0.0937
  235ETHOX  H1342898  13.210   6.819  11.039 -1.6658  0.7547 -0.4587
  235ETHOX   C242899  13.174   6.619  10.976 -0.6968 -0.4819 -0.4804
  235ETHOX  H2142900  13.065   6.603  10.993 -1.1085  1.1566 -1.3826
  235ETHOX  H2342901  13.243   6.587  11.057  1.3460  1.5890 -1.2992
  236ETHOX   O142902  13.196   6.546  10.848  0.2168 -0.7770 -0.0669
  236ETHOX   C142903  13.328   6.504  10.827  0.3088 -0.2957 -0.4405
  236ETHOX  H1142904  13.357   6.431  10.906  2.4903 -0.7236 -1.5854
  236ETHOX  H1342905  13.397   6.590  10.834 -0.2902  0.2425 -0.9904
  236ETHOX   C242906  13.347   6.438  10.691 -0.6517 -0.0403  0.0553
  236ETHOX  H2142907  13.412   6.501  10.627 -0.7781  1.9195  1.7642
  236ETHOX  H2342908  13.253   6.438  10.633 -0.0044  1.1305 -1.0454
  237ETHOX   O142909  13.395   6.306  10.694  0.2189  0.5939 -0.1553
  237ETHOX   C142910  13.382   6.247  10.564  1.2854 -0.5741 -1.1404
  237ETHOX  H1142911  13.288   6.189  10.573  0.5590  0.8541  1.1232
  237ETHOX  H1342912  13.377   6.322  10.482  2.0451  0.5026 -0.2188
  237ETHOX   C242913  13.492   6.150  10.528  0.1268 -0.0285  0.0063
  237ETHOX  H2142914  13.589   6.203  10.533  1.2064 -1.8576 -0.7091
  237ETHOX  H2342915  13.480   6.116  10.423  0.4046 -0.4775  0.1138
  238ETHOX   O142916  13.489   6.054  10.633 -0.1160  0.5994  0.4297
  238ETHOX   C142917  13.618   5.997  10.651  1.3093  0.1551  0.5250
  238ETHOX  H1142918  13.695   6.073  10.677 -0.2664  2.5190 -1.3491
  238ETHOX  H1342919  13.642   5.936  10.561 -3.6812 -2.3871  0.6144
  238ETHOX   C242920  13.611   5.898  10.765  0.0546  0.7799 -0.0456
  238ETHOX  H2142921  13.710   5.850  10.783 -0.1219  1.1248  2.1696
  238ETHOX  H2342922  13.542   5.816  10.737 -1.2483  2.3766 -1.8212
  239ETHOX   O142923  13.571   5.944  10.897  0.4952 -0.2061 -0.7544
  239ETHOX   C142924  13.618   5.850  11.000 -0.2372 -0.3212  0.7592
  239ETHOX  H1142925  13.563   5.754  10.990  0.1728 -0.3235 -2.5926
  239ETHOX  H1342926  13.729   5.851  10.995 -0.2004 -1.4452  1.0096
  239ETHOX   C242927  13.581   5.906  11.135 -0.1539  0.1377 -0.3644
  239ETHOX  H2142928  13.633   5.846  11.213  3.2895  2.6289 -0.4658
  239ETHOX  H2342929  13.625   6.008  11.134  1.2803 -0.3546  2.2725
  240ETHOX   O142930  13.443   5.915  11.162  0.3161 -0.0806 -0.1626
  240ETHOX   C142931  13.412   5.977  11.286 -0.3463  0.2326 -0.3541
  240ETHOX  H1142932  13.468   6.073  11.278 -0.2160  0.0336 -2.2032
  240ETHOX  H1342933  13.460   5.926  11.372  0.1596  0.8359 -0.2685
  240ETHOX   C242934  13.260   5.995  11.326 -0.3256 -0.0224  0.5694
  240ETHOX  H2142935  13.207   6.028  11.234 -1.1050  0.1469  1.0712
  240ETHOX  H2342936  13.252   6.074  11.404 -0.4947 -0.9716  1.5371
  241ETHOX   O142937  13.209   5.869  11.364  0.1601  0.1717 -0.1945
  241ETHOX   C142938  13.082   5.887  11.431  0.0148 -0.0337 -0.7203
  241ETHOX  H1142939  13.089   5.976  11.497 -1.0500  1.3492 -2.3747
  241ETHOX  H1342940  13.000   5.904  11.357 -1.8921 -1.5916  0.9302
  241ETHOX   C242941  13.039   5.769  11.523  0.4855  0.3689 -0.0074
  241ETHOX  H2142942  12.938   5.792  11.561  1.2304 -0.3608  2.6269
  241ETHOX  H2342943  13.110   5.753  11.607  0.5491  1.0618  0.0700
  242ETHOX   O142944  13.023   5.643  11.455 -0.4655  0.3824  0.5252
  242ETHOX   C142945  12.915   5.637  11.362  0.1333 -0.0275  0.3891
  242ETHOX  H1142946  12.946   5.676  11.263 -1.0630  0.3382  0.1475
  242ETHOX  H1342947  12.835   5.711  11.384  0.3662 -0.0294  1.3063
  242ETHOX   C242948  12.859   5.499  11.324  0.1033  0.3065  0.1746
  242ETHOX  H2142949  12.950   5.442  11.296 -0.2267  0.7811 -2.0738
  242ETHOX  H2342950  12.788   5.502  11.238  1.4551  1.4667 -0.9579
  243ETHOX   O142951  12.797   5.436  11.444  0.3362  0.0182  0.0597
  243ETHOX   C142952  12.742   5.310  11.409 -0.1833  0.7182  0.8807
  243ETHOX  H1142953  12.678   5.317  11.319  2.6551 -1.4016 -1.5250
  243ETHOX  H1342954  12.825   5.248  11.368 -1.7151 -0.9752  0.2056
  243ETHOX   C242955  12.677   5.241  11.532  0.0062 -0.0055  0.1550
  243ETHOX  H2142956  12.613   5.158  11.494 -0.3001  0.0378  0.5682
  243ETHOX  H2342957  12.615   5.315  11.588  2.0620  0.3802  2.0562
  244ETHOX   O142958  12.785   5.193  11.621  0.3170 -1.2636  0.0468
  244ETHOX   C142959  12.736   5.176  11.751  0.0404  0.4325  0.6573
  244ETHOX  H1142960  12.646   5.111  11.745  0.3315  0.0225  0.7546
  244ETHOX  H1342961  12.702   5.279  11.777 -2.3143  0.7968 -3.0973
  244ETHOX   C242962  12.830   5.101  11.842  0.1103  0.2730 -0.1657
  244ETHOX  H2142963  12.875   5.014  11.789 -0.1880  1.4911 -2.5671
  244ETHOX  H2342964  12.773   5.053  11.924 -0.7849 -0.3172 -1.1025
  245ETHOX   O142965  12.932   5.181  11.902 -0.0867  0.3128 -0.3666
  245ETHOX   C142966  13.030   5.093  11.957 -0.2430 -0.1493  0.0406
  245ETHOX  H1142967  13.077   5.153  12.038 -1.1209 -0.9847  1.1967
  245ETHOX  H1342968  12.975   5.011  12.007 -2.0287  0.8195 -0.2528
  245ETHOX   C242969  13.127   5.034  11.856 -0.4149  0.0419  0.3261
  245ETHOX  H2142970  13.094   5.039  11.750  0.6265  0.8356  0.0159
  245ETHOX  H2342971  13.153   4.930  11.884  1.6956  0.3239 -0.4273
  246ETHOX   O142972  13.237   5.118  11.857 -0.3690 -0.6053 -0.5973
  246ETHOX   C142973  13.315   5.120  11.735 -0.1943  0.2106 -0.3830
  246ETHOX  H1142974  13.250   5.143  11.648 -1.6373 -2.1693 -0.0240
  246ETHOX  H1342975  13.369   5.024  11.719  0.8554  0.8109 -0.4799
  246ETHOX   C242976  13.428   5.217  11.752 -0.0652  0.7437  0.3978
  246ETHOX  H2142977  13.388   5.319  11.768  0.2766  0.9747 -0.2020
  246ETHOX  H2342978  13.482   5.214  11.655 -1.1464 -0.3003 -0.2014
  247ETHOX   O142979  13.523   5.184  11.852  0.1579 -0.0101 -0.2955
  247ETHOX   C142980  13.601   5.297  11.892 -0.3066 -0.1362 -0.3217
  247ETHOX  H1142981  13.667   5.308  11.803 -1.7222  0.3290 -1.3599
  247ETHOX  H1342982  13.537   5.387  11.908  2.7279  2.1591 -0.3006
  247ETHOX   C242983  13.685   5.249  12.009 -0.2327 -0.0767  0.1066
  247ETHOX  H2142984  13.729   5.150  11.981  0.7020  0.3264  0.1305
  247ETHOX  H2342985  13.772   5.316  12.026  0.6784 -1.0144 -0.6398
  248ETHOX   O142986  13.608   5.228  12.130 -0.2141  0.2653 -0.4545
  248ETHOX   C142987  13.675   5.182  12.246 -0.6974  0.0312  0.5109
  248ETHOX  H1142988  13.605   5.174  12.331  0.4814 -0.9179  1.4389
  248ETHOX  H1342989  13.707   5.079  12.218 -0.6830 -0.3453  1.8282
  248ETHOX   C242990  13.793   5.270  12.290 -1.0035 -0.2619 -0.7089
  248ETHOX  H2142991  13.825   5.235  12.391  0.2848  1.3055 -0.5332
  248ETHOX  H2342992  13.762   5.374  12.315  0.1932  0.3877 -1.8113
  249ETHOX   O142993  13.903   5.285  12.206  0.3439 -0.6861 -0.8355
  249ETHOX   C142994  14.018   5.346  12.264 -0.0875  0.0320 -0.0341
  249ETHOX  H1142995  13.993   5.442  12.314 -0.8911  0.5081 -1.3031
  249ETHOX  H1342996  14.067   5.279  12.338 -0.5732  1.5259  1.7279
  249ETHOX   C242997  14.134   5.372  12.163  0.9442 -0.4186 -0.4064
  249ETHOX  H2142998  14.172   5.272  12.131  0.9587 -0.5995  0.1553
  249ETHOX  H2342999  14.219   5.426  12.211  0.1580  0.3545  0.1453
  250ETHOX   O143000  14.084   5.441  12.054  0.8006 -0.6508  0.2823
  250ETHOX   C143001  14.176   5.453  11.950 -0.5240 -0.2124  0.5135
  250ETHOX  H1143002  14.276   5.492  11.979 -0.0131 -0.1064 -1.2392
  250ETHOX  H1343003  14.208   5.352  11.914  1.4550  0.6297 -0.2530
  250ETHOX   C243004  14.117   5.545  11.843  0.0565 -0.0050 -0.5483
  250ETHOX  H2143005  14.025   5.502  11.799  0.2290  0.3341 -1.2630
  250ETHOX  H2343006  14.193   5.546  11.762 -1.6230 -1.5625 -2.2175
  251ETHOX   O143007  14.103   5.678  11.891  0.4945  0.3013 -0.4010
  251ETHOX   C143008  14.033   5.760  11.805 -0.3741 -0.2292 -0.6880
  251ETHOX  H1143009  13.940   5.709  11.771 -0.2739 -1.2107  0.4579
  251ETHOX  H1343010  14.086   5.777  11.708 -1.1401  3.3572 -0.6104
  251ETHOX   C243011  14.000   5.896  11.864 -0.6764 -0.2818 -0.0705
  251ETHOX  H2143012  13.950   5.961  11.788  0.7860  2.8832  1.5047
  251ETHOX  H2343013  14.094   5.952  11.881 -1.4490  0.0684  3.7551
  252ETHOX   O143014  13.926   5.894  11.983 -0.2694  0.1652  0.3659
  252ETHOX   C143015  13.877   6.021  12.017 -0.3832 -0.0865  0.0914
  252ETHOX  H1143016  13.958   6.098  12.009 -1.8717  1.4811 -0.6294
  252ETHOX  H1343017  13.799   6.050  11.943  0.4644 -1.3280 -1.3530
  252ETHOX   C243018  13.809   6.012  12.152  0.5114 -0.3464  0.5885
  252ETHOX  H2143019  13.740   5.925  12.163  0.0961  0.0387  1.0454
  252ETHOX  H2343020  13.747   6.102  12.169  0.9981  0.0725  0.1881
  253ETHOX   O143021  13.898   6.006  12.264 -0.6676  0.4081 -0.2859
  253ETHOX   C143022  13.829   5.974  12.384  0.2936 -0.6482  0.7507
  253ETHOX  H1143023  13.734   6.029  12.371  0.6454 -0.7561 -4.3032
  253ETHOX  H1343024  13.871   6.007  12.481 -1.2287  0.4193  1.0939
  253ETHOX   C243025  13.790   5.824  12.399  0.6893  0.6260 -0.3761
  253ETHOX  H2143026  13.802   5.769  12.303 -0.7703  0.6750 -0.6124
  253ETHOX  H2343027  13.683   5.825  12.428  0.2239  0.0928 -1.9940
  254ETHOX   O143028  13.853   5.755  12.507 -0.3731  0.1378  0.3811
  254ETHOX   C143029  13.827   5.617  12.499  0.4438  0.6575  0.0946
  254ETHOX  H1143030  13.719   5.600  12.519  0.9960 -2.7095  0.9616
  254ETHOX  H1343031  13.848   5.582  12.396  0.9652 -0.2677  0.4938
  254ETHOX   C243032  13.904   5.538  12.597  0.1277  0.4082 -0.6516
  254ETHOX  H2143033  13.865   5.435  12.579 -0.4476  0.9776 -3.1438
  254ETHOX  H2343034  13.884   5.582  12.697  0.6474  0.1634 -0.4381
  255ETHOX   O143035  14.041   5.542  12.584  0.1921  0.6021 -0.0736
  255ETHOX   C143036  14.098   5.413  12.620 -0.2391 -0.1000 -0.5225
  255ETHOX  H1143037  14.206   5.420  12.595  0.4024 -1.5226  1.5447
  255ETHOX  H1343038  14.063   5.330  12.556 -1.3026 -2.4235  2.8158
  255ETHOX   C243039  14.088   5.379  12.759 -0.3067  0.3350  0.1681
  255ETHOX  H2143040  14.124   5.273  12.763 -0.1807  0.3775  0.1674
  255ETHOX  H2343041  13.985   5.387  12.798 -0.4675  0.7944 -0.3562
  256ETHOX   O143042  14.168   5.459  12.843  0.1153 -0.1620  0.5695
  256ETHOX   C143043  14.161   5.426  12.985 -0.0163 -0.6639  0.2620
  256ETHOX  H1143044  14.053   5.427  13.007  0.2040  1.2231  1.4452
  256ETHOX  H1343045  14.207   5.326  13.002 -0.9315 -0.8404  1.8432
  256ETHOX   C243046  14.231   5.532  13.076 -0.2362  0.5536  0.1940
  256ETHOX  H2143047  14.337   5.543  13.043 -0.5221 -0.6799 -1.2890
  256ETHOX  H2343048  14.227   5.481  13.174 -0.8809  1.0838  0.4495
  257ETHOX   O143049  14.164   5.661  13.092  0.3863 -0.1588 -0.2599
  257ETHOX   C143050  14.244   5.754  13.167 -0.3525  0.2521 -0.2286
  257ETHOX  H1143051  14.345   5.749  13.121  0.9487 -0.0612  2.4872
  257ETHOX  H1343052  14.254   5.726  13.274  1.9503  0.2817 -0.3697
  257ETHOX   C243053  14.196   5.900  13.143  0.3426 -0.5744  0.3181
  257ETHOX  H2143054  14.162   5.907  13.038 -1.0604 -1.8034  0.6626
  257ETHOX  H2343055  14.284   5.967  13.151  0.5411 -0.5616 -1.7015
  258ETHOX   O143056  14.102   5.943  13.239  0.2772 -0.0067  0.3181
  258ETHOX   C143057  14.056   6.074  13.221 -0.0892 -0.3082  0.2755
  258ETHOX  H1143058  14.152   6.130  13.220 -1.7214  2.7143  0.9956
  258ETHOX  H1343059  13.990   6.093  13.134 -2.5379  0.0461  2.0921
  258ETHOX   C243060  13.985   6.127  13.350  0.7975 -0.1473 -0.2437
  258ETHOX  H2143061  13.972   6.235  13.329  0.8190  0.0296  0.5887
  258ETHOX  H2343062  14.042   6.112  13.444 -0.8996  0.8541  0.9964
  259ETHOX   O143063  13.866   6.054  13.369 -0.0801 -0.0751  0.7293
  259ETHOX   C143064  13.802   6.112  13.480  0.2130 -0.3550 -0.0717
  259ETHOX  H1143065  13.876   6.121  13.564 -0.3731 -0.8081  0.5052
  259ETHOX  H1343066  13.764   6.211  13.449  0.6085 -0.1884 -0.0342
  259ETHOX   C243067  13.697   6.011  13.529 -0.0541 -0.1699 -0.6292
  259ETHOX  H2143068  13.693   6.039  13.637  4.3542  0.5842 -0.4683
  259ETHOX  H2343069  13.731   5.905  13.531  0.2279 -0.0963 -1.2597
  260ETHOX   O143070  13.575   6.018  13.461  0.6190  0.2211  0.2622
  260ETHOX   C143071  13.472   5.949  13.530 -0.2485  0.0527 -0.0359
  260ETHOX  H1143072  13.512   5.852  13.565 -2.1504 -0.7737 -0.0246
  260ETHOX  H1343073  13.455   6.012  13.620  2.0153  1.9734 -0.8367
  260ETHOX   C243074  13.348   5.933  13.442 -0.0225 -0.5832  0.3024
  260ETHOX  H2143075  13.304   6.028  13.407 -2.1067 -1.9540 -0.9972
  260ETHOX  H2343076  13.268   5.880  13.499 -1.4830  1.4052  0.1829
  261ETHOX   O143077  13.390   5.868  13.318  1.1080 -0.6134  0.0806
  261ETHOX   C143078  13.282   5.808  13.241  0.0890 -0.5264 -0.0997
  261ETHOX  H1143079  13.218   5.752  13.312 -0.2197  1.0013  0.8810
  261ETHOX  H1343080  13.210   5.883  13.201 -0.0539 -1.3255 -1.4042
  261ETHOX   C243081  13.341   5.717  13.127 -0.4310  0.2660 -0.2626
  261ETHOX  H2143082  13.397   5.637  13.180  1.0053 -0.7408 -3.1050
  261ETHOX  H2343083  13.409   5.796  13.089  0.0805 -0.3417 -0.6163
  262ETHOX   O143084  13.240   5.684  13.034  0.8316  0.4293 -0.2058
  262ETHOX   C143085  13.298   5.642  12.911 -0.6211 -0.4847  0.4782
  262ETHOX  H1143086  13.373   5.564  12.934 -0.2803 -0.1924  0.3733
  262ETHOX  H1343087  13.347   5.725  12.855  2.6072 -0.4771  3.0752
  262ETHOX   C243088  13.189   5.575  12.826  0.8601 -0.7000 -0.6298
  262ETHOX  H2143089  13.218   5.583  12.719 -1.6617  1.6166 -1.2428
  262ETHOX  H2343090  13.090   5.626  12.832  0.0848 -1.9042 -2.2556
  263ETHOX   O143091  13.184   5.443  12.873 -0.2576 -0.5533  0.4947
  263ETHOX   C143092  13.078   5.360  12.815  0.2927  0.1825 -0.5426
  263ETHOX  H1143093  12.988   5.422  12.796  0.8641  0.5235 -2.3048
  263ETHOX  H1343094  13.046   5.274  12.878  0.3937 -2.5088 -3.9225
  263ETHOX   C243095  13.113   5.302  12.685  0.3916 -0.0731 -0.1732
  263ETHOX  H2143096  13.038   5.223  12.661  0.4078 -0.4964  1.0937
  263ETHOX  H2343097  13.219   5.268  12.691  0.0914 -0.7781  2.8021
  264ETHOX   O143098  13.108   5.404  12.579  0.0814 -0.3300  0.6514
  264ETHOX   C143099  13.144   5.340  12.452 -0.0838  0.7052 -0.0001
  264ETHOX  H1143100  13.114   5.233  12.455  0.2047  0.5930  3.2054
  264ETHOX  H1343101  13.254   5.346  12.441  0.2081 -0.9339  1.4662
  264ETHOX   C243102  13.074   5.415  12.345 -0.1843  0.8663 -0.2592
  264ETHOX  H2143103  13.110   5.387  12.244 -0.3311  2.9263 -0.9351
  264ETHOX  H2343104  13.092   5.525  12.345 -1.5434  1.1359  1.0586
  265ETHOX   O143105  12.936   5.385  12.343 -0.4725  0.1755  0.2203
  265ETHOX   C143106  12.881   5.414  12.213  0.2077  0.4686 -0.1706
  265ETHOX  H1143107  12.939   5.493  12.161  2.5710 -0.0070  1.5521
  265ETHOX  H1343108  12.889   5.325  12.147 -0.9430  0.7465 -0.7062
  265ETHOX   C243109  12.731   5.452  12.222 -0.0421  0.7887  0.9176
  265ETHOX  H2143110  12.674   5.361  12.246  1.9382 -0.5788  0.7103
  265ETHOX  H2343111  12.680   5.472  12.125 -2.6542 -3.4092  1.1810
  265ETHOX   OZ43112  12.719   5.552  12.322  0.2998 -0.1961  0.2474
  265ETHOX  HZ143113  12.638   5.530  12.369  0.3537  0.1629  0.5087
    1ETHOX   O143114  13.472  18.343  10.787  0.1178 -0.0721  0.0234
    1ETHOX  HO143115  13.395  18.323  10.733 -0.3477 -2.4955  1.4359
    1ETHOX   C143116  13.452  18.256  10.901  0.1431 -0.1768 -0.5619
    1ETHOX  H1143117  13.474  18.149  10.877 -1.1466 -0.3778 -0.9317
    1ETHOX  H1343118  13.345  18.251  10.933  0.1422  1.0952 -0.3373
    1ETHOX   C243119  13.531  18.286  11.031 -0.3609 -0.0443 -0.5812
    1ETHOX  H2143120  13.641  18.283  11.016 -0.0272  2.5623  0.7732
    1ETHOX  H2343121  13.502  18.208  11.104 -3.1736  0.5072 -0.9872
    2ETHOX   O143122  13.502  18.415  11.095 -0.4651 -0.1142  0.0469
    2ETHOX   C143123  13.603  18.449  11.191  0.5895 -0.3016 -0.1460
    2ETHOX  H1143124  13.606  18.353  11.247 -1.1044 -0.5403 -0.4210
    2ETHOX  H1343125  13.701  18.473  11.145  0.1461  2.3522  0.1079
    2ETHOX   C243126  13.573  18.581  11.265  0.1490  0.1652  0.1222
    2ETHOX  H2143127  13.482  18.568  11.329 -0.8300 -0.8062 -1.4188
    2ETHOX  H2343128  13.552  18.662  11.192 -2.3264 -0.3750  0.1597
    3ETHOX   O143129  13.680  18.611  11.348 -0.1388  0.0678  0.0538
    3ETHOX   C143130  13.664  18.720  11.441  0.3383  0.2572  0.6231
    3ETHOX  H1143131  13.584  18.687  11.510  1.7719 -0.4196  2.0225
    3ETHOX  H1343132  13.626  18.811  11.390 -0.8653 -0.7699 -0.3867
    3ETHOX   C243133  13.784  18.749  11.525 -0.9191  0.5334  0.3122
    3ETHOX  H2143134  13.826  18.653  11.564 -1.9938  0.2375  0.7806
    3ETHOX  H2343135  13.748  18.806  11.613 -1.3183  1.2927 -0.3299
    4ETHOX   O143136  13.879  18.829  11.451 -0.9004 -0.4110  0.5090
    4ETHOX   C143137  13.978  18.864  11.539 -0.1291 -0.2628 -0.6330
    4ETHOX  H1143138  13.945  18.946  11.605 -0.5240 -0.1846 -0.9277
    4ETHOX  H1343139  13.984  18.777  11.608 -0.5869 -0.2208 -0.5403
    4ETHOX   C243140  14.118  18.902  11.477 -0.5546  0.3424  0.0346
    4ETHOX  H2143141  14.181  18.952  11.554  0.4296 -1.6641  0.6074
    4ETHOX  H2343142  14.115  18.962  11.384  1.9167 -0.2738 -0.5149
    5ETHOX   O143143  14.173  18.772  11.456  0.0020 -0.4637 -0.3223
    5ETHOX   C143144  14.313  18.787  11.447  0.6178 -0.1432 -0.2220
    5ETHOX  H1143145  14.346  18.877  11.392  1.7276  0.1571  0.9168
    5ETHOX  H1343146  14.347  18.801  11.552 -1.0064  1.7711  0.1076
    5ETHOX   C243147  14.376  18.668  11.384  0.0611  0.0921  0.3382
    5ETHOX  H2143148  14.342  18.576  11.436  0.2776 -0.7536 -0.9636
    5ETHOX  H2343149  14.486  18.672  11.403  0.0324  3.3376  0.3839
    6ETHOX   O143150  14.338  18.665  11.248 -0.0759  0.0045 -0.2570
    6ETHOX   C143151  14.340  18.534  11.204  0.2178 -0.0269  0.9393
    6ETHOX  H1143152  14.445  18.505  11.225  0.2598 -0.3666  0.3020
    6ETHOX  H1343153  14.264  18.485  11.269  0.5885 -0.5852  0.9661
    6ETHOX   C243154  14.298  18.519  11.056 -0.4778 -0.0344 -0.4705
    6ETHOX  H2143155  14.214  18.582  11.023  0.8370  1.2357 -1.5055
    6ETHOX  H2343156  14.282  18.411  11.036  0.9346 -0.4525  0.4876
    7ETHOX   O143157  14.407  18.560  10.978 -0.5848 -1.1549 -0.5052
    7ETHOX   C143158  14.371  18.551  10.842 -0.3702  0.5859 -0.3720
    7ETHOX  H1143159  14.348  18.447  10.807 -3.6901  1.1614 -0.2692
    7ETHOX  H1343160  14.277  18.610  10.832 -0.0482  1.5742  2.0106
    7ETHOX   C243161  14.477  18.609  10.753  0.0182  0.2147  0.2669
    7ETHOX  H2143162  14.492  18.718  10.765  1.7341  0.2263 -1.4727
    7ETHOX  H2343163  14.425  18.603  10.655 -0.1123  0.6294  0.3109
    8ETHOX   O143164  14.598  18.537  10.740  0.1043  0.5839  0.3337
    8ETHOX   C143165  14.705  18.622  10.704 -0.5534 -0.3480 -0.0178
    8ETHOX  H1143166  14.717  18.695  10.787  2.8527 -1.6218  0.7425
    8ETHOX  H1343167  14.683  18.677  10.609 -3.6363  0.8729  1.2392
    8ETHOX   C243168  14.831  18.541  10.702  0.2898  0.5509 -0.2759
    8ETHOX  H2143169  14.900  18.582  10.625  1.9257 -2.4341 -0.5463
    8ETHOX  H2343170  14.804  18.440  10.665 -0.4694  1.0520 -1.1407
    9ETHOX   O143171  14.885  18.524  10.825  0.0147 -0.2259 -0.0816
    9ETHOX   C143172  14.983  18.416  10.813  0.6066 -0.0564  0.2675
    9ETHOX  H1143173  14.932  18.317  10.813 -0.6673  0.5376  2.0720
    9ETHOX  H1343174  15.026  18.422  10.711 -0.3134 -3.5506 -0.4664
    9ETHOX   C243175  15.096  18.423  10.913 -0.2520  0.5449 -0.1964
    9ETHOX  H2143176  15.135  18.526  10.901  0.1259  0.3784 -0.4165
    9ETHOX  H2343177  15.173  18.346  10.891  1.8814  1.5318  3.1824
   10ETHOX   O143178  15.053  18.407  11.051 -0.0267 -0.4459  0.0347
   10ETHOX   C143179  15.157  18.437  11.138  0.5594 -0.0261  0.5373
   10ETHOX  H1143180  15.188  18.544  11.138 -0.6693  0.3683 -0.8947
   10ETHOX  H1343181  15.252  18.391  11.102  1.5090  2.4495 -0.3330
   10ETHOX   C243182  15.123  18.391  11.281  0.7081  0.7061 -0.0025
   10ETHOX  H2143183  15.036  18.448  11.320 -0.1154 -0.0986 -0.6312
   10ETHOX  H2343184  15.209  18.405  11.350  0.9344  0.5178 -0.2410
   11ETHOX   O143185  15.092  18.253  11.282 -0.3412  0.3638 -0.4096
   11ETHOX   C143186  15.068  18.193  11.410  0.0253 -0.4721  0.0951
   11ETHOX  H1143187  15.157  18.218  11.473 -1.0855  1.2967  1.0707
   11ETHOX  H1343188  14.988  18.252  11.460  0.7190 -0.2615  0.9838
   11ETHOX   C243189  15.043  18.038  11.398  0.1656 -0.8403 -0.1135
   11ETHOX  H2143190  15.139  18.005  11.352 -0.1616 -0.2224 -1.2602
   11ETHOX  H2343191  15.028  18.001  11.502  0.0639  2.1237  1.0313
   12ETHOX   O143192  14.933  18.009  11.316 -0.6011 -0.3433  0.2256
   12ETHOX   C143193  14.916  17.870  11.299  0.2511  0.2518 -0.2423
   12ETHOX  H1143194  14.877  17.822  11.391  1.5094  1.0684  0.7642
   12ETHOX  H1343195  15.008  17.813  11.272  1.0448 -0.7783  3.8318
   12ETHOX   C243196  14.798  17.840  11.204  0.0377  0.4600 -0.2710
   12ETHOX  H2143197  14.796  17.730  11.190 -2.2550  0.1696  1.6738
   12ETHOX  H2343198  14.817  17.883  11.103 -2.9815 -0.8707 -1.5418
   13ETHOX   O143199  14.664  17.886  11.251  0.2462  0.6376  0.2036
   13ETHOX   C143200  14.566  17.851  11.159 -0.5326 -0.8448  0.1816
   13ETHOX  H1143201  14.571  17.922  11.074 -0.6765  1.3372  1.9152
   13ETHOX  H1343202  14.574  17.746  11.124 -1.7603 -0.7098 -0.5540
   13ETHOX   C243203  14.435  17.882  11.221 -0.0150 -0.6405  0.1368
   13ETHOX  H2143204  14.354  17.885  11.145 -1.6568 -2.7265  1.6689
   13ETHOX  H2343205  14.442  17.983  11.266  2.3567 -1.2865  1.3524
   14ETHOX   O143206  14.379  17.790  11.313  0.0390  0.7210  0.6673
   14ETHOX   C143207  14.256  17.835  11.372  0.5885 -0.3329  0.1301
   14ETHOX  H1143208  14.168  17.770  11.357 -0.9796  0.7088  3.7080
   14ETHOX  H1343209  14.229  17.937  11.338 -2.9981 -1.0409  0.4889
   14ETHOX   C243210  14.257  17.837  11.529  0.9437  0.1670  0.7087
   14ETHOX  H2143211  14.344  17.896  11.566 -0.4538  2.2815  0.8310
   14ETHOX  H2343212  14.257  17.733  11.568  0.6574 -0.2586 -0.4014
   15ETHOX   O143213  14.144  17.895  11.591  0.2415  0.0295 -0.2323
   15ETHOX   C143214  14.155  17.891  11.729 -0.4309 -0.4537  0.1948
   15ETHOX  H1143215  14.120  17.796  11.775  0.9658  0.2700  2.9781
   15ETHOX  H1343216  14.261  17.911  11.756  0.0170 -1.2430 -0.9483
   15ETHOX   C243217  14.060  17.991  11.809  0.3344 -0.1225  0.1240
   15ETHOX  H2143218  14.085  17.978  11.916 -2.5103  1.0467  1.0129
   15ETHOX  H2343219  14.077  18.091  11.766  0.0056  0.3369  1.0455
   16ETHOX   O143220  13.927  17.951  11.794  1.0021  0.1758 -0.2755
   16ETHOX   C143221  13.831  18.035  11.856 -0.0048  0.1448 -0.5273
   16ETHOX  H1143222  13.827  18.017  11.966  1.6180 -0.7934 -0.5893
   16ETHOX  H1343223  13.855  18.140  11.831 -2.7311  0.7909 -0.7376
   16ETHOX   C243224  13.696  17.998  11.799  0.8242  0.1129  0.3252
   16ETHOX  H2143225  13.703  18.018  11.690 -1.8068  2.3363  0.4599
   16ETHOX  H2343226  13.613  18.061  11.835 -1.5917 -0.9373 -2.9658
   17ETHOX   O143227  13.667  17.859  11.814  0.5934  0.0954  0.1805
   17ETHOX   C143228  13.545  17.819  11.755 -0.8733  0.0159 -0.6115
   17ETHOX  H1143229  13.456  17.874  11.793 -2.9605 -2.1626 -2.0974
   17ETHOX  H1343230  13.552  17.837  11.645 -4.3677 -1.1007 -1.1391
   17ETHOX   C243231  13.528  17.664  11.777  0.3579 -0.6631  0.4030
   17ETHOX  H2143232  13.427  17.643  11.737  0.6649 -1.1459 -0.1529
   17ETHOX  H2343233  13.537  17.647  11.887  0.6866  2.0913  0.8739
   18ETHOX   O143234  13.627  17.589  11.707  0.0146 -1.1537 -0.6178
   18ETHOX   C143235  13.592  17.455  11.687  0.3628  0.1714 -1.1885
   18ETHOX  H1143236  13.543  17.412  11.777  2.6570 -1.1117 -0.4647
   18ETHOX  H1343237  13.516  17.447  11.607  1.2962  0.3436 -2.1249
   18ETHOX   C243238  13.720  17.379  11.652  0.2957 -0.9960  0.3606
   18ETHOX  H2143239  13.776  17.425  11.567  0.6699  0.2803  1.2770
   18ETHOX  H2343240  13.677  17.286  11.611 -2.3895  0.2526  0.1569
   19ETHOX   O143241  13.797  17.348  11.770  0.5715 -0.5676  0.1578
   19ETHOX   C143242  13.920  17.285  11.745 -0.2859  0.3717 -0.1816
   19ETHOX  H1143243  13.993  17.364  11.716 -0.0193 -0.5340 -2.1506
   19ETHOX  H1343244  13.908  17.218  11.657 -1.7260  0.1271  0.1672
   19ETHOX   C243245  13.981  17.209  11.861  0.1537 -0.2267  0.2598
   19ETHOX  H2143246  14.070  17.153  11.826  1.3117  1.1171  0.9468
   19ETHOX  H2343247  13.901  17.141  11.896  0.6123 -0.2605  1.2773
   20ETHOX   O143248  14.020  17.292  11.973  0.0000 -0.3786 -0.2275
   20ETHOX   C143249  14.039  17.208  12.091  0.2133 -0.6147 -0.3153
   20ETHOX  H1143250  13.936  17.178  12.120  0.0967  0.2124  0.1668
   20ETHOX  H1343251  14.106  17.123  12.064  1.2044 -0.4758  1.5641
   20ETHOX   C243252  14.118  17.282  12.204 -0.0883 -0.6662 -0.0187
   20ETHOX  H2143253  14.096  17.232  12.301 -1.2497  0.1017  0.1254
   20ETHOX  H2343254  14.097  17.390  12.214 -0.1151 -0.6996  0.2964
   21ETHOX   O143255  14.252  17.280  12.179 -0.4120  0.6057  0.3475
   21ETHOX   C143256  14.333  17.354  12.276  0.5279  0.5529 -0.2569
   21ETHOX  H1143257  14.334  17.291  12.368  0.1500 -0.6915 -1.0725
   21ETHOX  H1343258  14.283  17.452  12.294  0.7846  0.4506  1.1565
   21ETHOX   C243259  14.473  17.380  12.227 -0.5022 -0.8275  0.1425
   21ETHOX  H2143260  14.538  17.436  12.297  0.2428  1.3101 -2.0921
   21ETHOX  H2343261  14.471  17.451  12.141 -0.3129 -3.3699 -2.0842
   22ETHOX   O143262  14.554  17.260  12.216 -0.7446 -0.0552 -0.5383
   22ETHOX   C143263  14.695  17.296  12.199 -0.0077 -0.4426 -1.1786
   22ETHOX  H1143264  14.692  17.356  12.106  0.7347  2.3251  0.4645
   22ETHOX  H1343265  14.740  17.352  12.284  2.4504 -1.8144 -1.4647
   22ETHOX   C243266  14.783  17.167  12.185  0.1331 -0.2788 -0.3734
   22ETHOX  H2143267  14.738  17.097  12.112 -3.5872  0.9543  0.5313
   22ETHOX  H2343268  14.882  17.200  12.147 -0.5627  1.0822 -1.0828
   23ETHOX   O143269  14.791  17.101  12.310 -0.1579 -0.4224 -0.1529
   23ETHOX   C143270  14.900  17.004  12.313  0.9073  0.0378 -0.1415
   23ETHOX  H1143271  14.998  17.055  12.302  0.1505  1.2080 -1.9607
   23ETHOX  H1343272  14.896  16.923  12.238 -0.6625 -0.1046  0.0647
   23ETHOX   C243273  14.905  16.948  12.459 -0.3412 -0.5776  0.1100
   23ETHOX  H2143274  14.973  16.862  12.479 -0.8111 -0.7315  1.0490
   23ETHOX  H2343275  14.808  16.911  12.497 -0.9084  1.3598  0.6858
   24ETHOX   O143276  14.949  17.046  12.548  0.4749 -0.0230 -0.2700
   24ETHOX   C143277  14.999  17.002  12.676  0.2435 -0.1623  0.6554
   24ETHOX  H1143278  14.924  16.954  12.742  0.9744 -0.2006  1.4707
   24ETHOX  H1343279  15.083  16.929  12.666  0.5484  0.4016 -1.3882
   24ETHOX   C243280  15.063  17.120  12.752 -0.2840  0.4320 -0.0113
   24ETHOX  H2143281  15.149  17.157  12.692 -1.4446  1.1580 -1.2896
   24ETHOX  H2343282  15.108  17.091  12.850 -0.9026  1.3060  0.5500
   25ETHOX   O143283  14.977  17.223  12.778 -0.3092 -0.2039  0.6724
   25ETHOX   C143284  14.889  17.193  12.884 -0.1380  0.1961 -0.2594
   25ETHOX  H1143285  14.895  17.088  12.921  1.6968  0.7475  1.1651
   25ETHOX  H1343286  14.787  17.217  12.847  0.0893 -0.0286 -1.0515
   25ETHOX   C243287  14.936  17.268  13.006  0.5344 -0.1835  0.5827
   25ETHOX  H2143288  14.852  17.279  13.078 -0.1956  1.1621 -0.4315
   25ETHOX  H2343289  14.966  17.369  12.970  0.6123 -1.5825 -3.8662
   26ETHOX   O143290  15.049  17.203  13.069 -0.2924  0.2808 -0.1127
   26ETHOX   C143291  15.105  17.287  13.171 -0.1242  0.1934 -0.0082
   26ETHOX  H1143292  15.171  17.363  13.123  3.1202 -1.4823  1.4628
   26ETHOX  H1343293  15.027  17.346  13.223  0.7733  0.6700  0.8494
   26ETHOX   C243294  15.185  17.209  13.274 -0.0868  0.7243 -0.2260
   26ETHOX  H2143295  15.254  17.282  13.320  0.0007 -0.9583  2.5535
   26ETHOX  H2343296  15.251  17.131  13.228  1.0747  0.8395  1.1750
   27ETHOX   O143297  15.107  17.140  13.371  0.2705 -0.3945  0.7460
   27ETHOX   C143298  15.184  17.047  13.447 -0.3692 -0.3573 -0.0822
   27ETHOX  H1143299  15.269  17.091  13.503  0.5970 -0.6812 -1.2508
   27ETHOX  H1343300  15.237  16.980  13.376  2.3250  0.2902  1.1769
   27ETHOX   C243301  15.086  16.971  13.549 -0.1030 -0.5369 -0.4674
   27ETHOX  H2143302  15.052  17.053  13.616  0.6623 -0.6021  0.0179
   27ETHOX  H2343303  15.140  16.894  13.609 -1.0626 -0.7618  0.1343
   28ETHOX   O143304  14.983  16.912  13.475  0.2474 -0.0893 -0.7549
   28ETHOX   C143305  14.909  16.830  13.557 -0.4550 -0.3955 -0.4179
   28ETHOX  H1143306  14.963  16.750  13.612 -2.8610 -0.1402  2.5820
   28ETHOX  H1343307  14.889  16.895  13.644  3.4809  0.5264 -0.0289
   28ETHOX   C243308  14.780  16.767  13.500  0.0724  0.3831 -0.3804
   28ETHOX  H2143309  14.714  16.722  13.578  0.6110 -1.6819 -1.0576
   28ETHOX  H2343310  14.800  16.694  13.419 -1.5437 -0.9116  0.3217
   29ETHOX   O143311  14.707  16.871  13.452  0.7077  0.8829 -0.6852
   29ETHOX   C143312  14.580  16.825  13.399 -0.6072 -0.2385  0.1984
   29ETHOX  H1143313  14.513  16.795  13.482 -1.5413  0.8659 -0.1318
   29ETHOX  H1343314  14.598  16.736  13.336  0.4051  0.1590 -0.0923
   29ETHOX   C243315  14.510  16.916  13.299  0.5309 -0.0792 -0.1007
   29ETHOX  H2143316  14.508  17.018  13.341 -3.0960 -0.9113  2.1361
   29ETHOX  H2343317  14.412  16.873  13.270 -1.1087  3.3825 -0.1445
   30ETHOX   O143318  14.595  16.920  13.185 -0.2825 -0.2279  0.3792
   30ETHOX   C143319  14.551  17.025  13.103  0.0057 -0.4081  0.4789
   30ETHOX  H1143320  14.444  17.055  13.111  0.4057  1.2385  0.0938
   30ETHOX  H1343321  14.608  17.119  13.119 -0.1391 -0.6076  2.2914
   30ETHOX   C243322  14.580  16.985  12.959 -0.0767  0.5695 -0.2773
   30ETHOX  H2143323  14.524  16.890  12.946  1.6582 -0.8048  1.6978
   30ETHOX  H2343324  14.689  16.968  12.946  0.1489  0.7751  1.2246
   31ETHOX   O143325  14.534  17.086  12.866  0.0321  0.3642 -0.1262
   31ETHOX   C143326  14.524  17.036  12.730  0.5041 -0.3295  0.0739
   31ETHOX  H1143327  14.624  17.038  12.682  0.9046 -1.9284  0.7728
   31ETHOX  H1343328  14.496  16.929  12.744  1.2515 -0.5603 -0.0970
   31ETHOX   C243329  14.429  17.123  12.644  0.3971 -0.4096  0.5837
   31ETHOX  H2143330  14.415  17.076  12.544 -1.0490  0.8549  0.1569
   31ETHOX  H2343331  14.468  17.226  12.633 -1.2278  0.2056  0.2460
   32ETHOX   O143332  14.303  17.126  12.715  0.5692 -0.4894  0.0359
   32ETHOX   C143333  14.204  17.214  12.662  0.3963  1.1466 -0.1027
   32ETHOX  H1143334  14.234  17.321  12.669  1.2372  1.0684 -2.0877
   32ETHOX  H1343335  14.183  17.189  12.556 -1.7617  0.9160  0.3375
   32ETHOX   C243336  14.076  17.193  12.739  0.1640  1.2623 -0.0247
   32ETHOX  H2143337  14.059  17.088  12.772 -2.6232  1.8923  0.7826
   32ETHOX  H2343338  13.987  17.225  12.681 -0.9425 -1.0749  0.2494
   33ETHOX   O143339  14.076  17.268  12.856 -0.5353 -0.1169 -0.5954
   33ETHOX   C143340  13.979  17.228  12.947  0.2052  0.2935  0.3794
   33ETHOX  H1143341  13.888  17.292  12.943 -0.2404  0.0440  3.6907
   33ETHOX  H1343342  13.938  17.125  12.943  0.1174  0.3566 -0.5596
   33ETHOX   C243343  14.022  17.253  13.095 -0.0931  0.0622  0.4366
   33ETHOX  H2143344  14.118  17.201  13.116  0.0264  0.4171  0.7772
   33ETHOX  H2343345  13.954  17.191  13.157  0.2771 -0.1111  0.6760
   34ETHOX   O143346  14.021  17.394  13.118 -0.3005  0.1050 -0.0852
   34ETHOX   C143347  14.089  17.432  13.237 -0.0465  0.6169 -0.0648
   34ETHOX  H1143348  14.177  17.365  13.247  0.5334  1.2143 -0.9282
   34ETHOX  H1343349  14.026  17.428  13.329 -0.5299  0.1863 -0.4118
   34ETHOX   C243350  14.144  17.578  13.237 -0.1329 -0.0830 -0.1388
   34ETHOX  H2143351  14.173  17.606  13.133 -2.9200  0.6465 -0.8129
   34ETHOX  H2343352  14.231  17.566  13.305 -0.6216 -1.6350  0.2661
   35ETHOX   O143353  14.036  17.664  13.284  0.4364 -0.0094 -0.8271
   35ETHOX   C143354  14.073  17.806  13.280 -0.5727 -0.0367  0.4462
   35ETHOX  H1143355  14.176  17.823  13.317 -0.0539 -1.9861  0.0308
   35ETHOX  H1343356  14.053  17.845  13.178  1.5817  1.2926  0.4694
   35ETHOX   C243357  13.987  17.880  13.378 -0.4066  0.9864 -0.0890
   35ETHOX  H2143358  13.880  17.854  13.367 -0.3582  0.5789  0.3518
   35ETHOX  H2343359  13.988  17.991  13.372  0.2516  1.0619  1.1321
   36ETHOX   O143360  14.031  17.854  13.512 -0.3356 -0.3800 -0.3055
   36ETHOX   C143361  13.974  17.937  13.610  0.1793  0.4147  0.7093
   36ETHOX  H1143362  13.865  17.916  13.608 -0.4635  3.2607 -1.3195
   36ETHOX  H1343363  13.986  18.043  13.579 -3.1704  0.4174 -1.1417
   36ETHOX   C243364  14.025  17.902  13.754  0.0455 -0.7920 -0.1749
   36ETHOX  H2143365  13.984  17.980  13.822  0.9860  0.5827 -1.1106
   36ETHOX  H2343366  14.135  17.891  13.747 -0.1417 -1.8990 -2.2038
   37ETHOX   O143367  13.969  17.786  13.807 -0.1552 -0.5901  0.1464
   37ETHOX   C143368  14.040  17.745  13.924  0.3439  0.8041 -0.1373
   37ETHOX  H1143369  14.147  17.750  13.898  1.1575 -0.6821  2.5191
   37ETHOX  H1343370  14.032  17.812  14.012  2.8866  0.6600  0.2767
   37ETHOX   C243371  13.992  17.600  13.961 -0.8189 -0.0528 -0.6507
   37ETHOX  H2143372  14.033  17.567  14.058 -3.1285 -0.9888  0.0859
   37ETHOX  H2343373  14.035  17.533  13.883  0.3804  1.1619 -1.0836
   38ETHOX   O143374  13.850  17.580  13.976 -0.4114  0.2000  0.1500
   38ETHOX   C143375  13.810  17.452  14.010 -0.2629  0.6134 -0.6449
   38ETHOX  H1143376  13.886  17.405  14.076 -0.5682  0.9177 -0.0775
   38ETHOX  H1343377  13.819  17.387  13.920 -0.2493  1.3902 -1.2159
   38ETHOX   C243378  13.679  17.448  14.087  0.0368  0.0766 -0.1385
   38ETHOX  H2143379  13.641  17.347  14.061 -1.0680  0.8228 -1.6161
   38ETHOX  H2343380  13.610  17.520  14.037 -0.5047  0.2906  0.9005
   39ETHOX   O143381  13.672  17.465  14.228 -0.2584  0.2905 -0.2412
   39ETHOX   C143382  13.537  17.499  14.271 -0.1028 -0.1417 -0.2241
   39ETHOX  H1143383  13.512  17.601  14.234 -0.7697 -0.8631 -1.8613
   39ETHOX  H1343384  13.456  17.437  14.226  0.1181  0.2172 -1.1297
   39ETHOX   C243385  13.546  17.501  14.425 -0.1435  0.2389 -0.4582
   39ETHOX  H2143386  13.466  17.564  14.470 -1.3812 -1.7294  0.2096
   39ETHOX  H2343387  13.643  17.547  14.454 -0.2514 -0.4106  1.0155
   40ETHOX   O143388  13.537  17.369  14.477  0.0293  0.6046  0.4911
   40ETHOX   C143389  13.545  17.370  14.620  0.4054  0.4822  0.9322
   40ETHOX  H1143390  13.454  17.421  14.656  0.6105  2.9427 -1.6329
   40ETHOX  H1343391  13.631  17.430  14.659 -0.3157  1.5142  0.9689
   40ETHOX   C243392  13.554  17.228  14.665 -0.3317  0.5894  0.3734
   40ETHOX  H2143393  13.476  17.175  14.607 -1.0077  1.6482  0.2902
   40ETHOX  H2343394  13.529  17.225  14.774  2.2373 -1.8553  0.9966
   41ETHOX   O143395  13.675  17.160  14.631 -0.0284  0.0634  0.4371
   41ETHOX   C143396  13.690  17.037  14.703  0.2037  0.4600  0.0784
   41ETHOX  H1143397  13.714  17.067  14.807  1.4177 -0.8247  0.1954
   41ETHOX  H1343398  13.593  16.983  14.703 -0.0601  0.8988  1.7544
   41ETHOX   C243399  13.793  16.937  14.648 -0.6793 -0.0742 -0.3660
   41ETHOX  H2143400  13.787  16.847  14.714  1.1367  0.6728  0.8896
   41ETHOX  H2343401  13.896  16.978  14.647 -1.9251  3.3772  0.3636
   42ETHOX   O143402  13.754  16.882  14.525 -0.1319 -0.2329  0.5250
   42ETHOX   C143403  13.853  16.813  14.448 -0.7742 -0.5445  0.3882
   42ETHOX  H1143404  13.944  16.876  14.443 -0.8248 -0.3202  1.7463
   42ETHOX  H1343405  13.891  16.724  14.502 -1.8445 -1.0522  0.3292
   42ETHOX   C243406  13.794  16.789  14.307  0.2178 -0.3081  0.2356
   42ETHOX  H2143407  13.884  16.754  14.253 -0.4988 -3.2187  0.7475
   42ETHOX  H2343408  13.757  16.883  14.260 -1.9039 -0.6562  1.1049
   43ETHOX   O143409  13.702  16.684  14.306  0.4354 -0.8671 -0.2303
   43ETHOX   C143410  13.670  16.638  14.179 -0.2644 -0.4822 -0.4954
   43ETHOX  H1143411  13.596  16.710  14.139 -0.7528  0.6286  2.2247
   43ETHOX  H1343412  13.757  16.643  14.110 -1.3866  0.9707 -1.8988
   43ETHOX   C243413  13.616  16.489  14.179 -0.3168 -0.6165 -0.2154
   43ETHOX  H2143414  13.686  16.408  14.211  0.6963  0.1430 -0.4592
   43ETHOX  H2343415  13.571  16.468  14.080  2.2468  1.4010 -1.9445
   44ETHOX   O143416  13.506  16.479  14.273  1.2427 -0.2906  0.0460
   44ETHOX   C143417  13.410  16.375  14.251  0.1425  0.3213 -0.1004
   44ETHOX  H1143418  13.392  16.364  14.142  0.8199  0.2653 -0.2072
   44ETHOX  H1343419  13.463  16.283  14.283 -1.1743  0.4920  2.9530
   44ETHOX   C243420  13.281  16.400  14.336  1.0721 -0.3008 -0.5850
   44ETHOX  H2143421  13.233  16.497  14.309 -1.6009 -0.7210  2.0666
   44ETHOX  H2343422  13.307  16.401  14.444  2.3808  3.4673 -0.8214
   45ETHOX   O143423  13.187  16.296  14.338  0.6750 -0.0316 -0.5481
   45ETHOX   C143424  13.112  16.301  14.220 -0.1088 -0.4471 -0.3683
   45ETHOX  H1143425  13.172  16.252  14.140 -0.9450 -0.8381 -0.7606
   45ETHOX  H1343426  13.096  16.406  14.187  0.0171 -0.8061 -1.6036
   45ETHOX   C243427  12.981  16.228  14.222 -0.0068 -0.3189  0.5604
   45ETHOX  H2143428  12.926  16.238  14.126  1.1702  0.5756 -0.0368
   45ETHOX  H2343429  12.911  16.266  14.300 -1.1292 -0.0052 -0.5641
   46ETHOX   O143430  13.001  16.098  14.271 -0.5081  0.1270  0.5696
   46ETHOX   C143431  12.893  16.008  14.275  0.5618 -0.3778 -0.0146
   46ETHOX  H1143432  12.801  16.047  14.324  0.8104 -0.6132  0.6523
   46ETHOX  H1343433  12.861  15.992  14.170  0.3963  0.7743 -0.1535
   46ETHOX   C243434  12.940  15.872  14.327 -0.5178  0.7067  0.3360
   46ETHOX  H2143435  13.040  15.847  14.285 -0.6841 -0.4261  0.5787
   46ETHOX  H2343436  12.870  15.790  14.298 -1.4374  1.4255  0.4655
   47ETHOX   O143437  12.934  15.856  14.468  0.0974 -0.5567  0.0057
   47ETHOX   C143438  12.999  15.963  14.541  0.5264 -0.2135  0.0475
   47ETHOX  H1143439  12.938  16.056  14.540  1.5821  0.5142  1.0369
   47ETHOX  H1343440  13.104  15.971  14.506  1.1814  1.3900  2.1745
   47ETHOX   C243441  12.984  15.938  14.693  0.1009  0.0971 -0.2857
   47ETHOX  H2143442  12.880  15.906  14.716  0.6798 -2.3568 -0.7190
   47ETHOX  H2343443  13.017  16.028  14.749 -0.3568 -0.7527  1.3966
   48ETHOX   O143444  13.069  15.833  14.731 -0.8930  0.8318  0.6922
   48ETHOX   C143445  13.020  15.700  14.696 -0.1490 -0.5026 -0.1516
   48ETHOX  H1143446  12.912  15.683  14.712  0.2532 -2.3480  0.8374
   48ETHOX  H1343447  13.033  15.693  14.585  1.3896  0.7276 -0.0903
   48ETHOX   C243448  13.105  15.591  14.765 -0.6521  0.2273 -0.3397
   48ETHOX  H2143449  13.118  15.619  14.872 -1.0335 -0.5117 -0.0931
   48ETHOX  H2343450  13.066  15.487  14.753  0.2810 -0.1652 -0.0478
   49ETHOX   O143451  13.229  15.584  14.700 -0.2492  0.4209  0.3153
   49ETHOX   C143452  13.321  15.497  14.764  0.1885  0.2182 -0.2187
   49ETHOX  H1143453  13.323  15.405  14.702 -1.0343  0.0667 -0.0579
   49ETHOX  H1343454  13.295  15.466  14.868  1.7521  0.2603  0.2192
   49ETHOX   C243455  13.468  15.552  14.764  0.7797  0.3794 -1.2817
   49ETHOX  H2143456  13.543  15.479  14.801 -0.8833 -0.3916  0.7298
   49ETHOX  H2343457  13.477  15.647  14.821 -0.6497  0.1618 -0.6571
   50ETHOX   O143458  13.517  15.576  14.630 -0.4000 -0.2911 -0.2225
   50ETHOX   C143459  13.644  15.647  14.626  0.6812  0.4246 -0.4536
   50ETHOX  H1143460  13.641  15.722  14.707 -1.0225 -2.0632  1.9721
   50ETHOX  H1343461  13.723  15.571  14.642 -1.2287 -1.5547  0.0639
   50ETHOX   C243462  13.670  15.724  14.499  0.7659  0.3105  0.5139
   50ETHOX  H2143463  13.589  15.797  14.482  0.4730 -0.3198 -0.9410
   50ETHOX  H2343464  13.665  15.647  14.419 -1.5904 -0.5896  1.4341
   51ETHOX   O143465  13.786  15.804  14.496 -0.1192 -0.5144  0.0317
   51ETHOX   C143466  13.812  15.868  14.370 -0.0165 -0.2126 -0.2898
   51ETHOX  H1143467  13.737  15.947  14.349 -2.1280 -1.9271  0.3615
   51ETHOX  H1343468  13.802  15.791  14.291 -0.1347  1.0817 -1.5782
   51ETHOX   C243469  13.952  15.935  14.372  0.5240 -0.0416 -0.4447
   51ETHOX  H2143470  13.947  16.009  14.455 -0.2419  0.6845 -1.1131
   51ETHOX  H2343471  13.971  15.984  14.274  0.7838  0.6636 -0.0437
   52ETHOX   O143472  14.052  15.839  14.390  0.6358  0.4503 -0.0760
   52ETHOX   C143473  14.177  15.891  14.431  1.0576 -0.6336 -1.2502
   52ETHOX  H1143474  14.246  15.807  14.404  1.1543 -0.0886 -2.7995
   52ETHOX  H1343475  14.212  15.974  14.367 -0.8760  0.2030 -1.2809
   52ETHOX   C243476  14.174  15.928  14.581 -0.6244 -0.6499 -0.5263
   52ETHOX  H2143477  14.084  15.985  14.615  0.2255 -0.1657  1.0319
   52ETHOX  H2343478  14.254  15.997  14.615 -1.5679 -1.1653  3.1405
   53ETHOX   O143479  14.202  15.813  14.659  0.7651 -0.0265  1.0262
   53ETHOX   C143480  14.209  15.833  14.798  0.1639  0.3169  0.0766
   53ETHOX  H1143481  14.297  15.897  14.820 -0.1027  0.3280  1.1830
   53ETHOX  H1343482  14.120  15.888  14.835  0.5233 -0.1940  1.7817
   53ETHOX   C243483  14.227  15.715  14.890 -0.5647  0.3117 -0.1302
   53ETHOX  H2143484  14.144  15.645  14.867 -0.8431  0.9935 -1.2957
   53ETHOX  H2343485  14.218  15.748  14.996 -2.1981 -1.9462  0.4918
   54ETHOX   O143486  14.346  15.639  14.884 -0.2693  0.4561 -0.3567
   54ETHOX   C143487  14.374  15.572  14.761  0.1941 -0.2384 -0.3228
   54ETHOX  H1143488  14.274  15.539  14.724  0.9714 -2.8011 -0.2683
   54ETHOX  H1343489  14.401  15.649  14.686 -0.0864  1.5524  1.3383
   54ETHOX   C243490  14.472  15.463  14.784  0.0021 -0.3312 -0.4415
   54ETHOX  H2143491  14.559  15.487  14.847  1.6011 -0.0105 -2.6445
   54ETHOX  H2343492  14.516  15.436  14.685  3.0304 -1.4899  1.0947
   55ETHOX   O143493  14.400  15.347  14.834  0.1189 -0.5655 -0.2432
   55ETHOX   C143494  14.485  15.237  14.849 -0.8448 -0.6826 -0.2659
   55ETHOX  H1143495  14.564  15.225  14.772  0.1925 -1.6850  0.8938
   55ETHOX  H1343496  14.546  15.246  14.942  0.7477 -0.8245 -1.2621
   55ETHOX   C243497  14.411  15.104  14.841  0.1524  0.8695  0.7544
   55ETHOX  H2143498  14.487  15.024  14.850  1.4154  1.9588  0.1181
   55ETHOX  H2343499  14.352  15.103  14.935  0.5243  0.5453  0.9861
   56ETHOX   O143500  14.321  15.097  14.740  0.2798 -0.0102 -0.2015
   56ETHOX   C143501  14.256  14.974  14.722 -0.4000 -0.2615 -0.6364
   56ETHOX  H1143502  14.219  14.939  14.821  1.2641  0.4658  0.2850
   56ETHOX  H1343503  14.327  14.903  14.674 -0.7951 -1.1443  0.0392
   56ETHOX   C243504  14.138  14.976  14.627 -0.5871 -0.8193  0.7720
   56ETHOX  H2143505  14.105  14.874  14.598  1.2696 -0.9869 -1.0148
   56ETHOX  H2343506  14.160  15.024  14.529  0.4032 -1.5238  0.6292
   57ETHOX   O143507  14.023  15.044  14.684 -0.1307  0.5775 -0.3801
   57ETHOX   C143508  14.002  15.178  14.639 -0.4751  0.2656 -0.0081
   57ETHOX  H1143509  14.087  15.243  14.668  0.1642 -0.2613 -0.6621
   57ETHOX  H1343510  13.988  15.167  14.530 -0.4613 -1.2205  0.1165
   57ETHOX   C243511  13.880  15.234  14.694 -0.3042 -0.1891  0.1266
   57ETHOX  H2143512  13.845  15.324  14.640 -0.7591 -1.6122 -2.0801
   57ETHOX  H2343513  13.906  15.262  14.799 -1.8642 -1.0546  0.7890
   58ETHOX   O143514  13.770  15.144  14.698 -0.4062  1.0910  0.3431
   58ETHOX   C143515  13.658  15.205  14.748 -0.2841 -0.5298  0.3568
   58ETHOX  H1143516  13.634  15.288  14.678 -0.9861 -1.5889 -0.7047
   58ETHOX  H1343517  13.682  15.249  14.847 -0.7307  0.4814  0.0269
   58ETHOX   C243518  13.545  15.107  14.732  0.9902 -0.1482 -0.2239
   58ETHOX  H2143519  13.566  15.014  14.790  0.1918  0.0618  0.4293
   58ETHOX  H2343520  13.533  15.082  14.624  1.4198 -0.4840 -0.1960
   59ETHOX   O143521  13.418  15.160  14.776  0.1132 -0.3014 -0.3776
   59ETHOX   C143522  13.322  15.057  14.774 -0.3675  0.7149  0.0890
   59ETHOX  H1143523  13.312  15.032  14.667 -0.5315 -0.3050  0.3354
   59ETHOX  H1343524  13.348  14.961  14.824 -0.1058 -0.1744 -1.7010
   59ETHOX   C243525  13.185  15.108  14.824  0.1600  0.0661  0.1065
   59ETHOX  H2143526  13.108  15.034  14.794 -2.0428  2.6181 -1.0082
   59ETHOX  H2343527  13.169  15.207  14.776 -0.1372 -0.6318 -1.2969
   60ETHOX   O143528  13.195  15.138  14.962 -0.0188 -0.0867  0.0496
   60ETHOX   C143529  13.082  15.195  15.018  0.0832 -0.0963  0.0566
   60ETHOX  H1143530  12.994  15.132  14.992  0.2367  0.1274 -1.0974
   60ETHOX  H1343531  13.076  15.298  14.975  1.4961  0.0566  0.1865
   60ETHOX   C243532  13.099  15.197  15.164 -0.1904 -0.0021  0.1616
   60ETHOX  H2143533  13.114  15.097  15.210  1.5660  0.7954  1.4107
   60ETHOX  H2343534  13.001  15.232  15.205 -0.0798 -0.3277  0.7105
   61ETHOX   O143535  13.206  15.280  15.216 -0.1354  0.6230  0.1089
   61ETHOX   C143536  13.199  15.286  15.360  0.4455 -0.0750  1.2033
   61ETHOX  H1143537  13.094  15.302  15.392  0.0906 -1.5508  0.8666
   61ETHOX  H1343538  13.225  15.188  15.405  2.7673  0.3792  0.9852
   61ETHOX   C243539  13.273  15.402  15.427  1.1852  0.1939  0.8076
   61ETHOX  H2143540  13.206  15.438  15.509  0.5415 -0.7396  0.7044
   61ETHOX  H2343541  13.294  15.484  15.356 -0.6327  0.0986  0.1094
   62ETHOX   O143542  13.393  15.352  15.477  0.4186 -0.5976  0.7126
   62ETHOX   C143543  13.483  15.457  15.508  0.1637  0.7878  0.0648
   62ETHOX  H1143544  13.440  15.504  15.599  0.6550 -2.3766  2.0575
   62ETHOX  H1343545  13.492  15.536  15.430 -0.3375  2.8637  1.9831
   62ETHOX   C243546  13.631  15.412  15.539  0.5513 -1.0670  0.2828
   62ETHOX  H2143547  13.694  15.503  15.556  0.3638 -1.0711  1.0270
   62ETHOX  H2343548  13.678  15.354  15.456 -0.0730  2.4366 -2.8092
   63ETHOX   O143549  13.627  15.345  15.660  0.1831  0.0048  0.1900
   63ETHOX   C143550  13.707  15.229  15.655 -0.4826 -0.0602  0.6347
   63ETHOX  H1143551  13.651  15.168  15.581 -1.7214  2.2196 -0.4283
   63ETHOX  H1343552  13.807  15.256  15.614 -1.2181  2.2681  0.1934
   63ETHOX   C243553  13.714  15.162  15.793 -0.4906 -0.4739  0.1464
   63ETHOX  H2143554  13.775  15.217  15.868  0.9314  0.1010 -1.3652
   63ETHOX  H2343555  13.756  15.059  15.788 -0.4202 -0.4122 -4.0668
   64ETHOX   O143556  13.585  15.133  15.844  0.0598  0.9702  0.8097
   64ETHOX   C143557  13.578  15.105  15.979  0.1189 -0.4400  0.6509
   64ETHOX  H1143558  13.567  15.205  16.026  0.4588 -0.6201  1.1251
   64ETHOX  H1343559  13.673  15.058  16.014 -0.1242 -2.0005 -0.6977
   64ETHOX   C243560  13.470  15.003  16.023 -0.2231  0.5268  0.1929
   64ETHOX  H2143561  13.374  15.028  15.972 -1.1198  0.2795  1.6880
   64ETHOX  H2343562  13.466  15.020  16.133  0.8921  0.9473  0.1726
   65ETHOX   O143563  13.501  14.861  15.994  0.1185 -0.0637 -0.2050
   65ETHOX   C143564  13.401  14.776  16.039 -0.6295 -0.1797 -0.5208
   65ETHOX  H1143565  13.336  14.825  16.116  0.0679 -0.5228  0.3051
   65ETHOX  H1343566  13.337  14.760  15.950  1.9587 -1.1783 -2.2993
   65ETHOX   C243567  13.463  14.645  16.078 -0.3145 -0.6533 -0.2130
   65ETHOX  H2143568  13.524  14.618  15.989  0.7057 -0.6884  0.4766
   65ETHOX  H2343569  13.393  14.564  16.109  0.4596 -0.0544  3.6788
   66ETHOX   O143570  13.552  14.671  16.194 -0.0221  0.3408  0.1552
   66ETHOX   C143571  13.612  14.550  16.235  0.3052 -0.0161 -0.3825
   66ETHOX  H1143572  13.653  14.486  16.153 -0.9023 -2.8069  1.0384
   66ETHOX  H1343573  13.537  14.485  16.285  2.7923 -1.7279  1.3587
   66ETHOX   C243574  13.728  14.566  16.340  1.1922  0.8719  0.3181
   66ETHOX  H2143575  13.746  14.463  16.377 -1.2138  0.7981  1.4616
   66ETHOX  H2343576  13.683  14.639  16.411 -0.5167 -0.3253  0.5172
   67ETHOX   O143577  13.843  14.628  16.290  0.0436  0.0513 -0.1784
   67ETHOX   C143578  13.957  14.633  16.378 -0.1963  0.4088 -0.3310
   67ETHOX  H1143579  14.020  14.721  16.349  1.4489 -1.4533 -2.8627
   67ETHOX  H1343580  13.926  14.649  16.483  1.1678 -0.5589  0.2516
   67ETHOX   C243581  14.053  14.513  16.380  0.1427  0.0315 -0.4711
   67ETHOX  H2143582  13.983  14.431  16.406  0.6881 -0.5339 -0.7487
   67ETHOX  H2343583  14.132  14.519  16.458  0.1758 -1.4227 -0.3602
   68ETHOX   O143584  14.111  14.502  16.252 -0.4941  0.1069  0.3472
   68ETHOX   C143585  14.037  14.429  16.157  0.4617 -0.7929  0.2306
   68ETHOX  H1143586  14.023  14.331  16.209 -2.0720 -0.0775  1.0502
   68ETHOX  H1343587  13.934  14.470  16.144  1.4980  1.8330 -0.0538
   68ETHOX   C243588  14.110  14.421  16.031  0.5593 -0.8374  0.0558
   68ETHOX  H2143589  14.153  14.521  16.009  0.0721  0.0022  2.5972
   68ETHOX  H2343590  14.034  14.398  15.953  0.2455 -2.0387  0.6886
   69ETHOX   O143591  14.201  14.314  16.045 -0.3765 -0.7590  0.7309
   69ETHOX   C143592  14.301  14.328  15.944  0.4863 -0.0450  0.6519
   69ETHOX  H1143593  14.245  14.329  15.848  0.4029 -1.4459  0.6695
   69ETHOX  H1343594  14.364  14.419  15.958 -0.0650  0.4348  0.0297
   69ETHOX   C243595  14.392  14.209  15.941 -0.3292  0.2996 -0.2908
   69ETHOX  H2143596  14.433  14.193  16.043 -1.0668 -1.4072 -0.2328
   69ETHOX  H2343597  14.477  14.225  15.871 -0.0394 -0.9562 -0.2556
   70ETHOX   O143598  14.330  14.088  15.893  0.0137  0.6391  0.0713
   70ETHOX   C143599  14.420  13.976  15.900 -0.7731 -0.5164  0.0170
   70ETHOX  H1143600  14.525  14.007  15.878 -0.1090 -1.7443  1.2638
   70ETHOX  H1343601  14.419  13.940  16.005 -2.3679 -2.1196 -0.4947
   70ETHOX   C243602  14.393  13.851  15.814  0.1727  0.7635 -0.6313
   70ETHOX  H2143603  14.303  13.801  15.857  1.4339  0.2036  1.4921
   70ETHOX  H2343604  14.482  13.786  15.819  0.4505  1.0725 -1.3872
   71ETHOX   O143605  14.363  13.879  15.677 -0.2509 -0.3053  0.0926
   71ETHOX   C143606  14.487  13.898  15.599 -0.5693 -0.2597 -0.2561
   71ETHOX  H1143607  14.563  13.822  15.629 -1.9280 -2.0702 -1.1786
   71ETHOX  H1343608  14.529  13.999  15.619  1.8601 -1.1493 -0.4641
   71ETHOX   C243609  14.453  13.886  15.453 -0.0445 -0.3503  0.1156
   71ETHOX  H2143610  14.403  13.790  15.429 -0.4310  0.1549 -1.2002
   71ETHOX  H2343611  14.552  13.890  15.403 -0.8023  0.0815 -1.4370
   72ETHOX   O143612  14.384  14.006  15.411 -0.1597  0.4097 -0.1635
   72ETHOX   C143613  14.320  13.991  15.281 -0.2100  0.9391 -0.4998
   72ETHOX  H1143614  14.404  13.966  15.212  1.3413  1.0546  1.2701
   72ETHOX  H1343615  14.242  13.913  15.280 -0.5825  1.3070 -0.2539
   72ETHOX   C243616  14.265  14.126  15.240 -0.2227 -1.0439 -0.4683
   72ETHOX  H2143617  14.240  14.188  15.329  1.4939  0.9449 -1.3074
   72ETHOX  H2343618  14.171  14.111  15.182 -1.5009 -0.4235  1.3325
   73ETHOX   O143619  14.358  14.199  15.161 -0.1247  0.0919 -0.4084
   73ETHOX   C143620  14.283  14.274  15.058 -0.2664  0.3665 -0.1288
   73ETHOX  H1143621  14.199  14.327  15.107  0.0297  0.3585  0.3901
   73ETHOX  H1343622  14.242  14.216  14.973 -1.4315  2.3144 -0.9552
   73ETHOX   C243623  14.381  14.372  14.986 -0.2736  0.0002 -0.1562
   73ETHOX  H2143624  14.422  14.433  15.069  0.4978  0.5815 -0.9427
   73ETHOX  H2343625  14.323  14.439  14.918  0.6480  0.3549 -0.6038
   74ETHOX   O143626  14.482  14.314  14.907  0.0632  0.4851  0.0740
   74ETHOX   C143627  14.556  14.414  14.839  0.4746 -0.2255 -0.2496
   74ETHOX  H1143628  14.491  14.467  14.765  0.2067 -1.3237 -0.8171
   74ETHOX  H1343629  14.600  14.481  14.917 -0.4204 -1.4329  1.3424
   74ETHOX   C243630  14.661  14.343  14.765  0.1032  0.0327  0.6006
   74ETHOX  H2143631  14.711  14.425  14.708  0.0447 -1.6525 -1.9953
   74ETHOX  H2343632  14.629  14.267  14.691 -0.8927  0.6172  0.4121
   75ETHOX   O143633  14.747  14.281  14.864  0.1491  0.1096  0.2817
   75ETHOX   C143634  14.887  14.292  14.819 -0.5652  0.6083 -0.3178
   75ETHOX  H1143635  14.915  14.398  14.837 -1.4424  0.4927  2.0387
   75ETHOX  H1343636  14.876  14.262  14.713 -0.1906  1.0432 -0.4856
   75ETHOX   C243637  14.970  14.194  14.903  0.1368  0.4951 -0.1062
   75ETHOX  H2143638  15.067  14.185  14.850  0.0169  1.3842 -0.4950
   75ETHOX  H2343639  14.918  14.096  14.905  1.2016 -0.1761  3.8055
   76ETHOX   O143640  14.999  14.220  15.042  0.1004 -0.4192 -0.3427
   76ETHOX   C143641  15.091  14.128  15.101  0.2594  0.1719 -0.7159
   76ETHOX  H1143642  15.031  14.055  15.159 -0.0505 -0.4589 -1.7928
   76ETHOX  H1343643  15.159  14.074  15.031  0.0603  0.6550 -1.2966
   76ETHOX   C243644  15.175  14.188  15.210 -0.2215 -0.1009 -0.6287
   76ETHOX  H2143645  15.233  14.108  15.261  0.2901  2.2661  2.9298
   76ETHOX  H2343646  15.114  14.228  15.295 -2.0153 -1.1527 -1.3573
   77ETHOX   O143647  15.276  14.281  15.168  0.8919  0.2632 -0.4070
   77ETHOX   C143648  15.237  14.413  15.127 -0.5327  0.1613 -0.1280
   77ETHOX  H1143649  15.151  14.452  15.185 -1.0971  0.2925 -1.0243
   77ETHOX  H1343650  15.205  14.399  15.021  2.0806 -3.1182 -0.6708
   77ETHOX   C243651  15.352  14.509  15.149 -0.5613 -0.7705  0.2737
   77ETHOX  H2143652  15.402  14.484  15.244  2.2548 -0.4163 -1.0041
   77ETHOX  H2343653  15.316  14.614  15.142 -2.1728 -1.2359  0.9094
   78ETHOX   O143654  15.455  14.480  15.054  0.2548 -0.4961  0.0039
   78ETHOX   C143655  15.565  14.571  15.076  0.3222  0.5835 -0.4162
   78ETHOX  H1143656  15.537  14.669  15.031 -0.2573  0.7496  0.2963
   78ETHOX  H1343657  15.587  14.587  15.183 -0.2356  2.7612 -0.5817
   78ETHOX   C243658  15.695  14.513  15.032 -0.0952  0.9330  0.1913
   78ETHOX  H2143659  15.710  14.412  15.076  1.5266  2.2986  3.0765
   78ETHOX  H2343660  15.781  14.576  15.062 -0.2246  1.1356  0.1389
   79ETHOX   O143661  15.682  14.512  14.889  0.1037 -0.7199  0.3757
   79ETHOX   C143662  15.790  14.444  14.815  0.2512  1.2113 -0.3132
   79ETHOX  H1143663  15.888  14.451  14.867  0.3845  0.3651 -0.4313
   79ETHOX  H1343664  15.754  14.340  14.829 -3.0588  2.3450  0.3895
   79ETHOX   C243665  15.809  14.476  14.665  0.5102 -0.8240  0.0153
   79ETHOX  H2143666  15.717  14.453  14.606  1.3942  0.0517 -1.8135
   79ETHOX  H2343667  15.884  14.413  14.613  0.4310  0.3822 -1.6494
   80ETHOX   O143668  15.848  14.603  14.633 -0.5890 -0.1118  0.2255
   80ETHOX   C143669  15.849  14.625  14.491  0.3265 -0.2622  0.0296
   80ETHOX  H1143670  15.814  14.534  14.438  1.7219 -0.0692 -1.3095
   80ETHOX  H1343671  15.772  14.702  14.467  1.6016  0.7757 -0.8500
   80ETHOX   C243672  15.977  14.671  14.423 -0.2703  0.8180 -0.8427
   80ETHOX  H2143673  16.034  14.744  14.483 -0.6163 -0.8684  1.6792
   80ETHOX  H2343674  15.964  14.716  14.322  2.1645 -0.3346 -1.7561
   81ETHOX   O143675  16.058  14.554  14.403 -0.8161 -0.2640 -0.0547
   81ETHOX   C143676  16.154  14.546  14.517  0.7824 -0.3849  0.2231
   81ETHOX  H1143677  16.234  14.623  14.507 -0.6424  0.8573 -2.5744
   81ETHOX  H1343678  16.108  14.560  14.617  4.1096 -1.6457  2.1003
   81ETHOX   C243679  16.219  14.406  14.519  0.1735 -0.3510  0.7136
   81ETHOX  H2143680  16.290  14.416  14.603  1.0123 -0.6862  0.0547
   81ETHOX  H2343681  16.151  14.323  14.547 -2.2284  0.1387 -2.9247
   82ETHOX   O143682  16.303  14.401  14.395  0.8752  0.2831 -0.6666
   82ETHOX   C143683  16.374  14.277  14.372  0.2901  0.3716 -0.5531
   82ETHOX  H1143684  16.300  14.196  14.352 -0.6137  1.1549 -0.4358
   82ETHOX  H1343685  16.430  14.249  14.463  1.1741  1.0039 -0.8917
   82ETHOX   C243686  16.470  14.294  14.254  0.8930 -0.1554  0.4956
   82ETHOX  H2143687  16.561  14.230  14.256  0.6658 -0.4777  0.6175
   82ETHOX  H2343688  16.506  14.398  14.249 -0.7851  0.4784  0.9211
   83ETHOX   O143689  16.397  14.249  14.138  0.8474 -0.5739  0.4977
   83ETHOX   C143690  16.474  14.266  14.019  0.1124  0.2240 -0.9905
   83ETHOX  H1143691  16.506  14.372  14.009 -0.7639  0.4309 -1.7263
   83ETHOX  H1343692  16.566  14.204  14.029 -0.1420 -0.1875 -1.2103
   83ETHOX   C243693  16.390  14.231  13.891  0.2591 -0.3694  0.7568
   83ETHOX  H2143694  16.355  14.126  13.887 -3.2613  0.6982  0.2369
   83ETHOX  H2343695  16.451  14.255  13.801 -2.4083  0.5342 -0.9178
   84ETHOX   O143696  16.284  14.320  13.873  0.3014  0.3812 -0.1715
   84ETHOX   C143697  16.195  14.292  13.771 -0.7474  1.1112 -0.2714
   84ETHOX  H1143698  16.151  14.189  13.777  2.1989 -0.2400 -0.1233
   84ETHOX  H1343699  16.251  14.305  13.676 -2.0627 -0.3695 -1.3065
   84ETHOX   C243700  16.067  14.374  13.774 -0.1226  0.1236  0.1170
   84ETHOX  H2143701  16.017  14.349  13.679  0.1432  1.3715 -0.3739
   84ETHOX  H2343702  16.088  14.483  13.772 -0.9727  0.3120  0.6325
   85ETHOX   O143703  15.986  14.340  13.886  0.8141  0.0300 -0.2947
   85ETHOX   C143704  15.861  14.385  13.866  1.0094  0.5195 -0.5567
   85ETHOX  H1143705  15.855  14.495  13.850  0.2900  0.4553 -0.7502
   85ETHOX  H1343706  15.830  14.333  13.774 -1.2682  0.6329  0.0944
   85ETHOX   C243707  15.761  14.340  13.976 -1.0686 -0.2048 -0.2717
   85ETHOX  H2143708  15.667  14.394  13.954 -2.2828 -2.2181 -0.2028
   85ETHOX  H2343709  15.795  14.371  14.078  0.0954 -0.3562 -0.5983
   86ETHOX   O143710  15.744  14.204  13.968  0.4350  0.1039  0.0705
   86ETHOX   C143711  15.639  14.162  14.048  0.2364  0.2008  0.2419
   86ETHOX  H1143712  15.546  14.208  14.009 -0.9752 -0.8637  1.7987
   86ETHOX  H1343713  15.648  14.194  14.154  0.2075 -0.2000  0.3667
   86ETHOX   C243714  15.644  14.006  14.048  0.7973  0.6446 -0.5243
   86ETHOX  H2143715  15.561  13.970  14.113  1.1893  0.3725 -0.1652
   86ETHOX  H2343716  15.741  13.967  14.085  1.7470  3.2658 -0.0356
   87ETHOX   O143717  15.628  13.955  13.917  0.3836  0.3698 -0.7264
   87ETHOX   C143718  15.677  13.819  13.902 -0.3148  0.3416  0.0679
   87ETHOX  H1143719  15.787  13.813  13.916  0.0374 -0.8421 -2.5887
   87ETHOX  H1343720  15.628  13.746  13.970  1.4209 -0.9480 -0.0065
   87ETHOX   C243721  15.642  13.769  13.761  0.1421  0.8798  0.6155
   87ETHOX  H2143722  15.553  13.822  13.721  1.1394  2.6124  0.5967
   87ETHOX  H2343723  15.624  13.659  13.756 -2.4064  1.2663 -0.5488
   88ETHOX   O143724  15.757  13.790  13.676 -0.4477  0.9444  0.3628
   88ETHOX   C143725  15.721  13.737  13.548  0.2366  0.9739 -0.3779
   88ETHOX  H1143726  15.625  13.769  13.502  0.2706 -1.2782 -2.2064
   88ETHOX  H1343727  15.717  13.626  13.551 -1.6838  0.9563 -1.8392
   88ETHOX   C243728  15.820  13.776  13.439 -0.4966 -0.1857 -0.1699
   88ETHOX  H2143729  15.856  13.879  13.456  0.5234 -0.4502 -0.6436
   88ETHOX  H2343730  15.781  13.752  13.338  1.0885  0.5330 -0.9789
   89ETHOX   O143731  15.945  13.698  13.448  0.4648  0.0757 -0.5657
   89ETHOX   C143732  16.044  13.741  13.354 -0.8476 -0.4543 -0.1229
   89ETHOX  H1143733  15.994  13.733  13.255  0.3154 -3.4970 -0.5755
   89ETHOX  H1343734  16.079  13.845  13.373  0.7540 -0.8297 -0.8545
   89ETHOX   C243735  16.171  13.651  13.364 -0.2184 -0.1767  0.4331
   89ETHOX  H2143736  16.193  13.639  13.472 -1.8648 -2.6048  0.5972
   89ETHOX  H2343737  16.242  13.718  13.312 -0.2549 -1.2278 -1.0322
   90ETHOX   O143738  16.170  13.523  13.311 -0.2324  0.0608  0.4894
   90ETHOX   C143739  16.100  13.434  13.393  0.8687  0.0582 -0.0647
   90ETHOX  H1143740  16.106  13.462  13.500  2.2324  0.9685 -0.3463
   90ETHOX  H1343741  15.992  13.443  13.368  0.4824 -1.9399  0.6939
   90ETHOX   C243742  16.125  13.285  13.370  0.3379 -0.9379  0.3750
   90ETHOX  H2143743  16.076  13.213  13.439 -1.2829 -0.2937 -0.0572
   90ETHOX  H2343744  16.235  13.275  13.380  0.2688 -1.8841  0.3108
   91ETHOX   O143745  16.079  13.274  13.230  0.4375  0.1387 -0.4149
   91ETHOX   C143746  16.100  13.139  13.193  0.4228 -0.2570  0.5148
   91ETHOX  H1143747  16.208  13.115  13.205  0.3827 -1.8443 -1.6721
   91ETHOX  H1343748  16.030  13.079  13.255  1.2826 -1.6188  0.1969
   91ETHOX   C243749  16.044  13.114  13.043  0.0749 -0.3553 -0.8280
   91ETHOX  H2143750  15.957  13.181  13.028  0.9672  0.2273 -4.3782
   91ETHOX  H2343751  16.009  13.009  13.046 -1.0741  0.0380  0.2995
   92ETHOX   O143752  16.128  13.132  12.929 -0.9120  0.2280 -0.4105
   92ETHOX   C143753  16.056  13.119  12.808 -0.0667 -0.4159  0.0932
   92ETHOX  H1143754  15.952  13.137  12.843  0.6907 -0.5105  2.5697
   92ETHOX  H1343755  16.092  13.197  12.738 -2.3456  0.4808 -0.1679
   92ETHOX   C243756  16.055  12.984  12.745  0.1958  0.5880  0.2329
   92ETHOX  H2143757  16.157  12.949  12.718 -1.1001 -2.1228 -1.5561
   92ETHOX  H2343758  15.996  12.992  12.651  0.1261 -0.5382  0.1617
   93ETHOX   O143759  15.987  12.887  12.824 -0.0858 -0.1050 -0.1197
   93ETHOX   C143760  15.970  12.763  12.761  0.0536 -0.2584  0.6752
   93ETHOX  H1143761  16.063  12.702  12.764  0.3387  0.1875  0.8253
   93ETHOX  H1343762  15.953  12.780  12.652  2.3918  1.1945  0.4924
   93ETHOX   C243763  15.848  12.678  12.807 -0.6930 -0.1739  0.4237
   93ETHOX  H2143764  15.829  12.603  12.728 -1.0042  1.3222 -0.9703
   93ETHOX  H2343765  15.755  12.739  12.806 -0.6948 -0.1555  1.1023
   94ETHOX   O143766  15.870  12.606  12.931  0.3015 -0.6768  0.3908
   94ETHOX   C143767  15.774  12.503  12.952  1.1396  0.5767 -0.5091
   94ETHOX  H1143768  15.672  12.544  12.938  1.2533  0.4118 -2.0099
   94ETHOX  H1343769  15.808  12.422  12.884 -0.5463 -0.4965 -0.1282
   94ETHOX   C243770  15.789  12.438  13.093 -0.1028  1.3968 -0.1978
   94ETHOX  H2143771  15.895  12.405  13.102 -0.2619  1.1022  0.6042
   94ETHOX  H2343772  15.730  12.344  13.097  0.4999  0.9188 -1.7359
   95ETHOX   O143773  15.748  12.534  13.182  0.1629 -0.3561 -0.4461
   95ETHOX   C143774  15.772  12.501  13.322  0.2787  0.1410  0.0678
   95ETHOX  H1143775  15.881  12.513  13.338  0.7903 -1.1382 -2.0497
   95ETHOX  H1343776  15.732  12.399  13.343 -0.2127 -0.3029 -2.6993
   95ETHOX   C243777  15.697  12.601  13.412 -0.5324 -0.5283  0.0821
   95ETHOX  H2143778  15.743  12.579  13.510  1.7719  0.7967 -0.6251
   95ETHOX  H2343779  15.589  12.572  13.409 -0.6097 -0.2682  0.3117
   96ETHOX   O143780  15.722  12.731  13.365  0.1065 -0.1943 -0.3273
   96ETHOX   C143781  15.619  12.819  13.412  0.0838  0.5631  0.5219
   96ETHOX  H1143782  15.520  12.777  13.384 -0.5982  3.6485 -2.4206
   96ETHOX  H1343783  15.634  12.844  13.519 -0.3079 -1.3310  1.0693
   96ETHOX   C243784  15.637  12.945  13.331 -0.1250 -0.0538 -0.2684
   96ETHOX  H2143785  15.546  13.006  13.353 -1.8804 -2.4163 -0.5678
   96ETHOX  H2343786  15.648  12.930  13.221  2.0486  0.4025 -0.1563
   97ETHOX   O143787  15.744  13.026  13.376  0.0568 -0.1926 -0.4549
   97ETHOX   C143788  15.738  13.162  13.332 -0.1438 -0.1569 -1.1760
   97ETHOX  H1143789  15.679  13.163  13.238 -2.9357  0.6894  0.4422
   97ETHOX  H1343790  15.840  13.203  13.320  0.5587 -1.3259  0.5119
   97ETHOX   C243791  15.649  13.258  13.421  0.6856  0.2870 -0.3276
   97ETHOX  H2143792  15.671  13.365  13.405  1.0991  0.3611  0.6865
   97ETHOX  H2343793  15.662  13.229  13.527  0.6223 -0.7065 -0.5730
   98ETHOX   O143794  15.511  13.242  13.394  0.4435  0.2137 -0.7070
   98ETHOX   C143795  15.442  13.317  13.491  0.1890 -0.8641 -0.4653
   98ETHOX  H1143796  15.466  13.283  13.594  0.5249 -0.6696 -0.4801
   98ETHOX  H1343797  15.463  13.424  13.474  3.0446 -1.2830 -0.0249
   98ETHOX   C243798  15.284  13.307  13.483 -0.2025  0.5703  0.1607
   98ETHOX  H2143799  15.260  13.202  13.509 -0.4465  0.4230 -0.6375
   98ETHOX  H2343800  15.247  13.323  13.379 -1.0333  1.0165  0.5173
   99ETHOX   O143801  15.230  13.390  13.584  0.2144  0.0346  0.1297
   99ETHOX   C143802  15.089  13.393  13.583  0.0631  0.5038 -0.1186
   99ETHOX  H1143803  15.056  13.297  13.628  0.1356  1.7052  2.7666
   99ETHOX  H1343804  15.055  13.399  13.478  1.1120 -0.3634 -0.5229
   99ETHOX   C243805  15.039  13.500  13.674  0.0120  0.0137 -0.8002
   99ETHOX  H2143806  15.081  13.598  13.644 -3.3617  1.5976 -0.8534
   99ETHOX  H2343807  15.079  13.473  13.774 -0.4300 -1.1178 -0.9129
  100ETHOX   O143808  14.900  13.516  13.681 -0.1120 -1.0723 -0.7475
  100ETHOX   C143809  14.868  13.595  13.800 -0.5541 -0.1580 -0.6250
  100ETHOX  H1143810  14.942  13.575  13.880  0.4543  0.8710 -1.2622
  100ETHOX  H1343811  14.885  13.704  13.783 -1.9546  0.2022  0.1347
  100ETHOX   C243812  14.727  13.572  13.832  0.9212 -0.5593  0.0818
  100ETHOX  H2143813  14.714  13.461  13.831 -1.2204 -0.3583  0.6991
  100ETHOX  H2343814  14.667  13.616  13.750 -0.0203  1.9693  1.9863
  101PROXS   O143815  14.678  13.622  13.954  0.4218  0.0081  0.4559
  101PROXS   C143816  14.535  13.616  13.968 -0.3223  0.1695  0.4708
  101PROXS  H1143817  14.484  13.692  13.904 -0.7771  2.0002  2.8858
  101PROXS  H1343818  14.505  13.515  13.932  2.7019 -0.7728  0.3657
  101PROXS   C243819  14.495  13.613  14.110 -0.1863 -0.0540 -0.0473
  101PROXS  H2143820  14.539  13.703  14.160 -0.9254  1.0647 -1.3311
  101PROXS   C343821  14.544  13.495  14.191 -0.3207 -0.5195 -0.3979
  101PROXS  H3143822  14.483  13.488  14.283 -0.1749  1.0905 -0.1502
  101PROXS  H3243823  14.547  13.394  14.144 -0.8429 -2.1260  2.7130
  101PROXS  H3343824  14.650  13.506  14.222 -0.1639  0.8085 -1.3230
  102PROXS   O143825  14.356  13.609  14.131 -0.0694 -1.0623 -0.1664
  102PROXS   C143826  14.310  13.743  14.156 -0.2197  0.0741 -0.1251
  102PROXS  H1143827  14.361  13.780  14.248  1.9408 -0.2352 -1.1438
  102PROXS  H1343828  14.344  13.808  14.073  0.6151  1.1212  1.0004
  102PROXS   C243829  14.158  13.755  14.178  0.0564  0.4960  0.4628
  102PROXS  H2143830  14.131  13.689  14.263  2.2538  0.1537  0.9482
  102PROXS   C343831  14.079  13.729  14.049  0.3708  0.3699 -0.2169
  102PROXS  H3143832  14.123  13.638  14.003  2.5436  1.3750 -0.2158
  102PROXS  H3243833  13.970  13.714  14.066  0.2252  1.2508 -0.3120
  102PROXS  H3343834  14.091  13.810  13.974  2.9792  0.6839  0.4612
  103PROXR   O143835  14.137  13.884  14.208  0.1997 -0.3055  0.4846
  103PROXR   C143836  14.032  13.916  14.295 -0.1551 -0.1230 -0.1588
  103PROXR  H1143837  13.943  13.929  14.230 -0.6653 -2.1616  0.0655
  103PROXR  H1343838  14.009  13.841  14.374 -1.0107 -0.6788 -0.9181
  103PROXR   C243839  14.066  14.046  14.374 -0.5538  0.3776 -1.0769
  103PROXR  H2143840  14.083  14.123  14.296 -1.5604  0.0244 -1.6571
  103PROXR   C343841  14.176  14.026  14.482  0.6453 -0.2127  0.5996
  103PROXR  H3143842  14.160  13.933  14.540  1.6022 -1.4566 -1.0694
  103PROXR  H3243843  14.275  14.016  14.433  0.0775 -1.8834 -0.2806
  103PROXR  H3343844  14.182  14.116  14.546 -1.2880 -1.3671  2.5404
  104PROXS   O143845  13.949  14.074  14.455 -0.5553 -0.3507  0.4552
  104PROXS   C143846  13.857  14.166  14.396 -0.2317  0.0453 -0.4974
  104PROXS  H1143847  13.907  14.264  14.378  0.0327  0.2723  1.3453
  104PROXS  H1343848  13.830  14.123  14.297 -0.8140 -0.7243 -0.0145
  104PROXS   C243849  13.731  14.200  14.480 -0.1041 -0.0387  0.0997
  104PROXS  H2143850  13.769  14.249  14.572 -1.2548  0.4088  0.3602
  104PROXS   C343851  13.648  14.079  14.527  0.2120 -0.3659  0.2303
  104PROXS  H3143852  13.574  14.047  14.450  1.2101 -3.3114  0.3637
  104PROXS  H3243853  13.720  14.000  14.557 -2.2487 -2.3322  1.3982
  104PROXS  H3343854  13.594  14.115  14.617 -1.0879 -0.6117 -0.4232
  105PROXS   O143855  13.648  14.295  14.409 -0.3549  0.3104  0.3453
  105PROXS   C143856  13.522  14.335  14.470 -1.2198  0.6709  0.2423
  105PROXS  H1143857  13.447  14.254  14.465 -2.0904  1.5333 -1.9569
  105PROXS  H1343858  13.551  14.350  14.576  1.6141 -0.8788 -0.2117
  105PROXS   C243859  13.467  14.459  14.396 -0.1095 -0.4087  0.7098
  105PROXS  H2143860  13.491  14.455  14.287 -0.0805  0.3821  0.6811
  105PROXS   C343861  13.537  14.583  14.446 -0.3326 -0.4952  0.4204
  105PROXS  H3143862  13.525  14.593  14.556 -0.5352 -0.4410  0.3944
  105PROXS  H3243863  13.646  14.572  14.428 -0.3417 -1.4165  0.8727
  105PROXS  H3343864  13.500  14.675  14.395 -0.5322  0.1373  1.6543
  106PROXS   O143865  13.332  14.474  14.435  0.3802 -0.4206 -0.2315
  106PROXS   C143866  13.244  14.407  14.344  0.7957 -0.6056  0.5322
  106PROXS  H1143867  13.262  14.458  14.248  1.3603 -0.6414  0.6120
  106PROXS  H1343868  13.269  14.300  14.329 -0.1331 -0.7278 -0.2197
  106PROXS   C243869  13.101  14.415  14.399 -0.1080 -0.0658 -0.8737
  106PROXS  H2143870  13.074  14.522  14.409 -1.9776 -0.0639 -4.3645
  106PROXS   C343871  13.083  14.329  14.526 -0.2667 -0.4478  0.0927
  106PROXS  H3143872  13.154  14.350  14.610  1.7927  0.1751 -1.7035
  106PROXS  H3243873  12.977  14.339  14.556 -0.2439 -1.4184  0.5151
  106PROXS  H3343874  13.109  14.222  14.510 -1.6554 -0.9273  0.9553
  107PROXR   O143875  13.004  14.358  14.313 -0.1025 -0.1355  0.3763
  107PROXR   C143876  12.953  14.464  14.231  0.5734  0.0144 -0.3062
  107PROXR  H1143877  12.865  14.511  14.280  0.2017 -0.8177 -0.1547
  107PROXR  H1343878  13.028  14.543  14.209 -1.8846  1.4575 -4.4107
  107PROXR   C243879  12.920  14.412  14.089 -0.1581  0.4152  0.0375
  107PROXR  H2143880  12.842  14.334  14.087  1.3983 -1.1836 -0.8844
  107PROXR   C343881  13.048  14.348  14.024 -0.5740  0.5876  0.2247
  107PROXR  H3143882  13.035  14.309  13.921  2.3005  1.2493 -0.4572
  107PROXR  H3243883  13.134  14.416  14.011 -1.0062  0.5935 -3.8240
  107PROXR  H3343884  13.088  14.259  14.077 -1.5661 -1.1522 -1.8232
  108PROXS   O143885  12.887  14.527  14.021 -0.0551  0.4265  0.8674
  108PROXS   C143886  12.836  14.498  13.894 -0.5656 -0.1068  0.0524
  108PROXS  H1143887  12.913  14.445  13.834  0.9576 -0.7813  2.4698
  108PROXS  H1343888  12.759  14.425  13.927  0.5216  0.0520  3.2478
  108PROXS   C243889  12.781  14.619  13.825  0.3227  0.0396  0.6089
  108PROXS  H2143890  12.852  14.704  13.825  0.0770  0.3112 -1.9838
  108PROXS   C343891  12.668  14.683  13.897  0.4519  0.0405  0.1486
  108PROXS  H3143892  12.628  14.779  13.857  0.4681  0.0577  0.1724
  108PROXS  H3243893  12.583  14.613  13.912  1.9228 -1.8082  0.2405
  108PROXS  H3343894  12.701  14.685  14.003  0.5549 -1.7387  0.1878
  109PROXS   O143895  12.748  14.584  13.691  0.1791  0.2883 -0.0001
  109PROXS   C143896  12.706  14.690  13.607  0.1406 -0.3561  0.3276
  109PROXS  H1143897  12.607  14.728  13.638  0.1118  0.0895 -0.3023
  109PROXS  H1343898  12.775  14.777  13.612  0.4281 -0.6277  3.7918
  109PROXS   C243899  12.695  14.623  13.470 -0.1713  0.3861 -0.5088
  109PROXS  H2143900  12.632  14.532  13.484 -0.0568  0.7320  3.1645
  109PROXS   C343901  12.833  14.604  13.412 -0.3601  0.7442  0.0102
  109PROXS  H3143902  12.821  14.569  13.307 -4.3712  2.0774 -0.1440
  109PROXS  H3243903  12.890  14.698  13.397  1.5292 -0.0555  1.5693
  109PROXS  H3343904  12.892  14.532  13.473  2.3782  2.9294  0.1302
  110PROXR   O143905  12.634  14.706  13.380  0.1072  0.5168 -0.7780
  110PROXR   C143906  12.502  14.658  13.338  0.3887 -0.2386  0.3256
  110PROXR  H1143907  12.518  14.559  13.289 -2.4757 -0.2576 -0.7282
  110PROXR  H1343908  12.433  14.650  13.424 -0.1557 -0.3193 -0.1137
  110PROXR   C243909  12.436  14.746  13.233  0.4448  0.0869  0.4671
  110PROXR  H2143910  12.510  14.746  13.150  0.3710 -1.6260  0.3554
  110PROXR   C343911  12.423  14.892  13.277 -0.2581 -0.0763 -0.3865
  110PROXR  H3143912  12.397  14.942  13.181 -1.8325 -1.0129 -0.4853
  110PROXR  H3243913  12.341  14.900  13.352 -0.9468 -3.0766 -0.6870
  110PROXR  H3343914  12.516  14.937  13.317  0.9396 -2.1973 -0.5908
  111PROXS   O143915  12.316  14.684  13.195 -0.2715 -0.2507  0.8832
  111PROXS   C143916  12.274  14.720  13.063 -0.5017  0.5070  0.1610
  111PROXS  H1143917  12.251  14.829  13.052 -1.1089  0.3119 -0.6376
  111PROXS  H1343918  12.357  14.704  12.990  0.5009 -0.0466  1.3942
  111PROXS   C243919  12.148  14.650  13.011  0.0463  0.1064  0.0915
  111PROXS  H2143920  12.153  14.544  13.047 -0.8446 -0.2154 -0.6866
  111PROXS   C343921  12.118  14.642  12.860 -0.0365  0.5248 -0.4051
  111PROXS  H3143922  12.207  14.608  12.804  0.5568 -1.5251  1.6424
  111PROXS  H3243923  12.034  14.571  12.840 -0.0250  0.4814 -0.2955
  111PROXS  H3343924  12.081  14.738  12.819 -1.1983 -0.6778 -2.3636
  112PROXR   O143925  12.028  14.703  13.071 -0.5542 -0.7034  0.1599
  112PROXR   C143926  12.026  14.702  13.215  0.1835  0.1466 -0.3930
  112PROXR  H1143927  12.108  14.755  13.268  0.1595 -2.0337  2.0559
  112PROXR  H1343928  11.927  14.746  13.241 -0.0704 -1.5582  1.8886
  112PROXR   C243929  12.020  14.550  13.266 -0.0876 -0.5564 -0.0331
  112PROXR  H2143930  12.119  14.505  13.244  1.1604  2.1106 -0.2736
  112PROXR   C343931  11.897  14.482  13.197 -0.3006  0.1886 -0.0449
  112PROXR  H3143932  11.802  14.509  13.249 -0.9074  1.7930 -1.8764
  112PROXR  H3243933  11.880  14.504  13.089  3.5482 -0.8201 -0.9980
  112PROXR  H3343934  11.912  14.375  13.221  2.8430  0.2101 -1.4091
  113PROXS   O143935  11.997  14.551  13.411  0.2622 -0.0151 -0.4523
  113PROXS   C143936  12.118  14.571  13.488 -0.2366 -0.0451 -0.8268
  113PROXS  H1143937  12.173  14.478  13.513 -1.8661 -1.4923 -2.4166
  113PROXS  H1343938  12.189  14.646  13.445 -0.0960 -0.1973 -0.8629
  113PROXS   C243939  12.073  14.617  13.626 -0.1663 -0.5403  0.2741
  113PROXS  H2143940  12.002  14.540  13.661 -1.8162  0.7681 -0.0298
  113PROXS   C343941  11.985  14.745  13.614 -0.5986  0.0101 -0.2717
  113PROXS  H3143942  11.902  14.727  13.543 -0.5872  1.6980 -0.7628
  113PROXS  H3243943  11.942  14.765  13.715  0.6775 -0.1455  0.3277
  113PROXS  H3343944  12.041  14.831  13.571 -1.4917 -0.8173 -3.3531
  114PROXR   O143945  12.184  14.624  13.709 -0.2673 -0.1921  0.4013
  114PROXR   C143946  12.152  14.657  13.845 -0.1850  0.2134  0.0199
  114PROXR  H1143947  12.142  14.768  13.845  0.2675  0.2561  0.3284
  114PROXR  H1343948  12.059  14.601  13.865 -0.1817  0.1199 -0.2325
  114PROXR   C243949  12.265  14.622  13.939  0.3370  0.8609  0.1120
  114PROXR  H2143950  12.357  14.648  13.884  0.4035 -0.2691 -0.3304
  114PROXR   C343951  12.265  14.469  13.978 -0.4425  0.4032  0.0194
  114PROXR  H3143952  12.192  14.446  14.058  0.5050  0.7843  1.0267
  114PROXR  H3243953  12.256  14.409  13.885  1.1365  2.9708 -1.9589
  114PROXR  H3343954  12.368  14.446  14.013 -0.8952  0.2403  1.2906
  115PROXR   O143955  12.254  14.705  14.055  0.1642  0.4437 -0.1164
  115PROXR   C143956  12.375  14.729  14.121 -0.0142 -0.2912  0.5653
  115PROXR  H1143957  12.433  14.636  14.140  2.7657  1.3456  0.5938
  115PROXR  H1343958  12.438  14.793  14.056 -2.2824  1.3161 -0.1818
  115PROXR   C243959  12.350  14.799  14.260 -0.4429 -0.3978 -0.1438
  115PROXR  H2143960  12.263  14.748  14.306 -1.5678  0.6128 -1.0479
  115PROXR   C343961  12.297  14.937  14.247  0.0620  0.0593 -0.1393
  115PROXR  H3143962  12.335  14.986  14.154 -0.5663  0.4743 -0.1773
  115PROXR  H3243963  12.187  14.929  14.233 -0.0385  1.5656 -0.3559
  115PROXR  H3343964  12.307  14.992  14.343 -1.1011 -0.2646  0.1751
  116PROXS   O143965  12.462  14.787  14.347  0.1467 -0.5527 -0.0484
  116PROXS   C143966  12.427  14.742  14.482  0.3373  0.3048 -0.0619
  116PROXS  H1143967  12.376  14.825  14.536 -0.0506 -0.6268  1.0508
  116PROXS  H1343968  12.361  14.653  14.480 -0.2771  0.7358  0.3560
  116PROXS   C243969  12.554  14.696  14.561  0.4099 -0.3006  0.2418
  116PROXS  H2143970  12.625  14.623  14.516 -0.8695 -0.3788 -1.7235
  116PROXS   C343971  12.508  14.636  14.699 -0.3259  0.3751  0.0371
  116PROXS  H3143972  12.593  14.632  14.770  1.9637 -1.5151 -2.6145
  116PROXS  H3243973  12.433  14.713  14.728 -0.1835  0.9478 -1.0593
  116PROXS  H3343974  12.465  14.536  14.677 -1.9191  0.7634  1.1822
  117PROXS   O143975  12.621  14.813  14.606  0.4550 -0.5209  0.7395
  117PROXS   C143976  12.702  14.873  14.502  0.1643  0.2266 -0.3438
  117PROXS  H1143977  12.741  14.791  14.438 -0.8629  0.0341 -0.7426
  117PROXS  H1343978  12.628  14.922  14.435  0.0602 -1.7082 -1.7518
  117PROXS   C243979  12.809  14.958  14.555 -0.2461 -0.3573  0.2929
  117PROXS  H2143980  12.889  14.902  14.607  0.1941 -1.9541 -1.9548
  117PROXS   C343981  12.757  15.067  14.644 -0.6868  0.0052  0.3407
  117PROXS  H3143982  12.843  15.136  14.659 -0.8740 -0.0111  1.6536
  117PROXS  H3243983  12.677  15.124  14.593 -0.4578 -0.6300 -0.7726
  117PROXS  H3343984  12.727  15.033  14.746 -2.6982 -1.1668 -0.5829
  118PROXR   O143985  12.878  15.027  14.451  0.1189  0.5537  0.5883
  118PROXR   C143986  12.982  14.939  14.389 -0.0001 -0.7145 -0.1063
  118PROXR  H1143987  13.077  14.951  14.445 -0.2635 -0.6562  0.3352
  118PROXR  H1343988  12.961  14.833  14.414  1.7090 -1.1080 -0.2169
  118PROXR   C243989  13.001  14.944  14.230 -0.3383 -0.2621 -1.1364
  118PROXR  H2143990  13.044  15.042  14.202 -1.2998 -0.0130 -1.8038
  118PROXR   C343991  12.860  14.943  14.164  0.4789  0.1129 -0.6764
  118PROXR  H3143992  12.869  14.913  14.058  2.0457 -1.9095 -0.0470
  118PROXR  H3243993  12.795  14.868  14.214  0.0123  0.8413 -0.1751
  118PROXR  H3343994  12.816  15.044  14.179 -0.7396 -0.2392 -1.6552
  119PROXR   O143995  13.073  14.824  14.186  0.3237  0.8183 -0.9999
  119PROXR   C143996  13.116  14.831  14.048  0.5481 -0.5082 -0.9508
  119PROXR  H1143997  13.031  14.839  13.977 -0.3772 -2.1729 -0.0879
  119PROXR  H1343998  13.186  14.917  14.046 -1.1232  1.0595  1.7550
  119PROXR   C243999  13.198  14.703  14.004  0.3197 -0.3155  0.0642
  119PROXR  H2144000  13.124  14.621  13.992  1.7333 -1.4815 -1.0809
  119PROXR   C344001  13.322  14.659  14.093  0.0909 -0.0944 -0.5579
  119PROXR  H3144002  13.296  14.673  14.200  0.5578  0.4368 -0.5119
  119PROXR  H3244003  13.356  14.554  14.078 -1.1786 -0.6719  0.3828
  119PROXR  H3344004  13.410  14.723  14.076 -1.4347  2.0804 -0.6478
  120PROXS   O144005  13.232  14.718  13.865  0.0590  0.5080  0.0514
  120PROXS   C144006  13.282  14.604  13.802  0.3519 -0.6907  0.4048
  120PROXS  H1144007  13.392  14.595  13.815  0.2647 -0.9710  0.9841
  120PROXS  H1344008  13.229  14.511  13.831  0.8764 -1.6121 -1.4476
  120PROXS   C244009  13.266  14.623  13.646 -0.3808 -0.1222  0.4450
  120PROXS  H2144010  13.336  14.703  13.613  1.4592 -1.6073  0.5417
  120PROXS   C344011  13.131  14.663  13.584  0.7729 -0.4687  0.7570
  120PROXS  H3144012  13.082  14.564  13.575  0.4019 -0.6146  3.5401
  120PROXS  H3244013  13.083  14.736  13.651  0.7592  0.2390 -0.0056
  120PROXS  H3344014  13.134  14.712  13.484 -1.2717 -0.7441  0.5341
  121PROXS   O144015  13.307  14.495  13.589 -0.0936  0.0926  0.1797
  121PROXS   C144016  13.436  14.496  13.536  0.9202 -0.2749 -0.1533
  121PROXS  H1144017  13.446  14.568  13.452  2.3923 -1.6938 -1.2486
  121PROXS  H1344018  13.509  14.536  13.610  0.4680  0.3879 -0.0634
  121PROXS   C244019  13.482  14.356  13.502 -0.3104  1.2171 -0.0877
  121PROXS  H2144020  13.420  14.327  13.415 -0.4209  1.1731  0.0055
  121PROXS   C344021  13.468  14.246  13.617 -0.1293  0.2317 -0.1943
  121PROXS  H3144022  13.360  14.239  13.642 -0.5456  0.7559 -1.7469
  121PROXS  H3244023  13.493  14.142  13.588 -1.3857 -0.4548  1.0136
  121PROXS  H3344024  13.528  14.259  13.710  0.1369 -1.4444 -0.1044
  122PROXS   O144025  13.618  14.365  13.466  0.2499 -0.4542  0.0225
  122PROXS   C144026  13.669  14.245  13.407  0.8735  0.3570  0.1631
  122PROXS  H1144027  13.684  14.168  13.486 -1.2587  0.7205  0.9998
  122PROXS  H1344028  13.588  14.203  13.343  0.2313  0.6555  0.7630
  122PROXS   C244029  13.803  14.272  13.325  0.4591  0.7221  0.3428
  122PROXS  H2144030  13.873  14.312  13.401 -0.3642  0.0404  1.4980
  122PROXS   C344031  13.791  14.368  13.202 -0.1699  0.5528 -0.4755
  122PROXS  H3144032  13.718  14.342  13.122 -1.3267  1.3239  0.3109
  122PROXS  H3244033  13.780  14.473  13.237 -0.3376  0.7110 -0.9864
  122PROXS  H3344034  13.896  14.369  13.164  0.4996  2.3961  1.2489
  123PROXS   O144035  13.847  14.145  13.268 -0.2660 -0.3322 -0.1964
  123PROXS   C144036  13.908  14.055  13.358 -0.1007 -0.2897  0.2366
  123PROXS  H1144037  13.981  14.110  13.422  0.1103  1.0017 -1.0885
  123PROXS  H1344038  13.832  14.014  13.428 -0.1085  1.2670  1.2012
  123PROXS   C244039  13.972  13.933  13.290  0.1266 -0.2641 -0.2069
  123PROXS  H2144040  14.063  13.970  13.238 -1.3310  2.7418 -0.8487
  123PROXS   C344041  13.872  13.866  13.194 -0.3255 -0.1188  0.2470
  123PROXS  H3144042  13.910  13.773  13.147 -1.1577 -0.2741 -0.1556
  123PROXS  H3244043  13.787  13.830  13.256 -0.4300  0.3186  0.3617
  123PROXS  H3344044  13.828  13.943  13.127  2.9307  1.3499 -0.3880
  124PROXR   O144045  14.012  13.840  13.385  0.1703  0.1578 -0.0039
  124PROXR   C144046  14.136  13.859  13.445  0.3398  0.0984 -0.5298
  124PROXR  H1144047  14.225  13.832  13.383  0.7190 -1.8026  0.7567
  124PROXR  H1344048  14.147  13.967  13.467  2.1424  0.4851 -2.8747
  124PROXR   C244049  14.143  13.775  13.580  0.0328  1.0196 -0.2589
  124PROXR  H2144050  14.043  13.798  13.623 -0.4525 -0.9425 -0.2360
  124PROXR   C344051  14.264  13.823  13.658 -0.0232  0.1376  0.9807
  124PROXR  H3144052  14.263  13.933  13.675  0.7736  0.5244 -1.2344
  124PROXR  H3244053  14.264  13.770  13.756 -0.9992 -1.7703  0.0185
  124PROXR  H3344054  14.354  13.789  13.604 -0.2081  0.0353  0.7326
  125PROXS   O144055  14.174  13.635  13.555 -0.2361  0.2024 -0.4497
  125PROXS   C144056  14.069  13.565  13.492  0.3586 -0.3036  0.3587
  125PROXS  H1144057  14.058  13.596  13.386  1.6815 -0.7194  0.0881
  125PROXS  H1344058  14.083  13.455  13.485  1.1553 -0.0880 -4.2085
  125PROXS   C244059  13.934  13.560  13.572  0.4591 -0.5190 -0.1701
  125PROXS  H2144060  13.889  13.662  13.571  2.1784  0.2759 -0.9376
  125PROXS   C344061  13.938  13.525  13.724 -0.2195  0.3784  0.6944
  125PROXS  H3144062  13.836  13.528  13.768 -1.0494  1.5877 -1.1517
  125PROXS  H3244063  13.971  13.420  13.738  0.3179  0.4684  0.1586
  125PROXS  H3344064  14.001  13.598  13.778  0.8622 -0.0390  0.0230
  126PROXS   O144065  13.844  13.468  13.515  0.1787 -0.2875  0.2793
  126PROXS   C144066  13.760  13.527  13.415  1.3228 -0.7490 -0.0801
  126PROXS  H1144067  13.661  13.543  13.463  1.4589 -0.5844  0.1463
  126PROXS  H1344068  13.805  13.623  13.381 -1.5137  1.0472  0.9107
  126PROXS   C244069  13.748  13.435  13.296 -0.0991  0.0519 -0.3245
  126PROXS  H2144070  13.708  13.335  13.325  0.3130 -0.0565 -0.1142
  126PROXS   C344071  13.888  13.422  13.229  0.1419 -0.3492  0.1395
  126PROXS  H3144072  13.964  13.375  13.296  0.8724 -0.9479 -1.0695
  126PROXS  H3244073  13.881  13.353  13.142 -0.5079 -1.9545  1.4066
  126PROXS  H3344074  13.931  13.514  13.186 -2.5330 -0.6811 -3.7380
  127PROXR   O144075  13.672  13.487  13.196 -0.0663 -0.5131  0.4825
  127PROXR   C144076  13.531  13.464  13.208  0.3288 -0.2143 -0.1819
  127PROXR  H1144077  13.504  13.360  13.180 -1.7713  0.0450  0.6912
  127PROXR  H1344078  13.490  13.480  13.310 -1.3525  0.6767 -0.9619
  127PROXR   C244079  13.450  13.561  13.125  0.6819  0.3024  1.0995
  127PROXR  H2144080  13.481  13.543  13.020  0.6201 -1.0309  1.2886
  127PROXR   C344081  13.469  13.703  13.170  0.5196  0.2298  0.0328
  127PROXR  H3144082  13.403  13.775  13.117  1.3003  0.3733 -0.7740
  127PROXR  H3244083  13.439  13.717  13.276  1.0863  1.5309  0.0371
  127PROXR  H3344084  13.573  13.738  13.155  0.9957 -0.9074  0.5930
  128PROXR   O144085  13.305  13.529  13.132 -0.4855  0.1708 -0.6869
  128PROXR   C144086  13.260  13.439  13.034 -0.6163  0.0763  0.0119
  128PROXR  H1144087  13.298  13.465  12.933 -3.0419  0.1017 -0.9795
  128PROXR  H1344088  13.296  13.337  13.060 -1.5820 -0.3650 -0.3333
  128PROXR   C244089  13.110  13.435  13.032  0.2884 -0.2032 -1.0969
  128PROXR  H2144090  13.083  13.540  13.008 -0.3597 -0.0493  0.2381
  128PROXR   C344091  13.054  13.396  13.170  0.7146  0.3181 -0.6618
  128PROXR  H3144092  12.943  13.405  13.173  0.6876 -0.0700  1.3513
  128PROXR  H3244093  13.088  13.293  13.196  0.4651  0.0336 -1.4440
  128PROXR  H3344094  13.098  13.458  13.251  1.4488  0.8307 -1.4489
  129PROXS   O144095  13.061  13.350  12.932 -0.5962  0.1839  0.2838
  129PROXS   C144096  13.078  13.394  12.794  0.1251  0.0571  0.1317
  129PROXS  H1144097  13.178  13.435  12.770 -0.6897  3.5044  1.9214
  129PROXS  H1344098  13.058  13.306  12.729 -1.6787  0.3612  0.2333
  129PROXS   C244099  12.977  13.501  12.759 -0.1767  0.4648 -0.4807
  129PROXS  H2144100  12.995  13.594  12.816 -0.3004 -0.1110  0.5323
  129PROXS   C344101  12.839  13.449  12.788 -0.6446 -0.3344  0.1767
  129PROXS  H3144102  12.808  13.362  12.726 -1.9143  0.5922 -0.5554
  129PROXS  H3244103  12.827  13.430  12.897 -2.2165  0.9918  0.2789
  129PROXS  H3344104  12.761  13.525  12.765 -0.4257 -0.1769 -0.0455
  130PROXS   O144105  12.989  13.522  12.622  0.7660  0.5006 -0.0572
  130PROXS   C144106  12.933  13.651  12.583  0.5971  0.4277  0.3080
  130PROXS  H1144107  12.822  13.640  12.593  0.3857  2.3982  0.5446
  130PROXS  H1344108  12.968  13.735  12.646  1.1451 -1.4669  2.6725
  130PROXS   C244109  12.964  13.683  12.431 -0.0329 -0.6820  0.4550
  130PROXS  H2144110  12.925  13.601  12.367  1.2907  0.2549 -1.6090
  130PROXS   C344111  13.111  13.692  12.408 -0.1680 -0.2465 -0.5984
  130PROXS  H3144112  13.160  13.775  12.463  0.5649 -1.5408  0.7726
  130PROXS  H3244113  13.143  13.605  12.469  0.2354  0.0317 -0.4142
  130PROXS  H3344114  13.143  13.685  12.302  0.1154 -0.8376 -0.4747
  131PROXS   O144115  12.912  13.808  12.391  0.5777 -0.0417 -0.0915
  131PROXS   C144116  12.860  13.800  12.259  0.1953 -0.2493  0.5754
  131PROXS  H1144117  12.943  13.772  12.191  0.2033  1.0199  0.0277
  131PROXS  H1344118  12.783  13.720  12.249 -0.4416  0.1913  1.7366
  131PROXS   C244119  12.800  13.930  12.214  0.0210  0.2018  0.6829
  131PROXS  H2144120  12.717  13.953  12.284 -0.8999  1.8475 -0.8889
  131PROXS   C344121  12.739  13.930  12.068  0.0336  0.4487  0.2804
  131PROXS  H3144122  12.665  14.012  12.057 -0.3285  0.3448  1.7487
  131PROXS  H3244123  12.823  13.951  11.999  0.3681  0.1305  0.5872
  131PROXS  H3344124  12.703  13.834  12.026  2.8329 -0.5772  0.0108
  132PROXS   O144125  12.903  14.034  12.200  0.3197 -0.5148  0.0660
  132PROXS   C144126  12.840  14.157  12.220 -0.3837 -0.6239 -0.2799
  132PROXS  H1144127  12.897  14.242  12.176  2.1313 -2.2985 -0.5049
  132PROXS  H1344128  12.735  14.156  12.184  0.5603  1.2742 -3.5506
  132PROXS   C244129  12.827  14.191  12.379  0.3670 -0.2881  0.7429
  132PROXS  H2144130  12.789  14.100  12.429  0.0806  1.1979  3.4449
  132PROXS   C344131  12.725  14.305  12.400 -0.5676 -0.7989  0.4879
  132PROXS  H3144132  12.634  14.296  12.336  1.1701 -2.1517 -1.9613
  132PROXS  H3244133  12.701  14.323  12.507 -0.6370  2.5970  0.0015
  132PROXS  H3344134  12.773  14.397  12.363 -0.3939 -1.4553 -0.9910
  133PROXS   O144135  12.949  14.234  12.429 -0.2940 -0.1921 -0.0016
  133PROXS   C144136  13.038  14.117  12.450  0.3353 -0.3074  0.5577
  133PROXS  H1144137  12.981  14.042  12.510 -0.2850 -0.6877 -0.4782
  133PROXS  H1344138  13.080  14.064  12.362 -1.8848  0.1597 -0.8692
  133PROXS   C244139  13.155  14.149  12.541 -0.2471  0.3463 -1.0834
  133PROXS  H2144140  13.109  14.171  12.639 -1.9184 -2.6911 -1.0766
  133PROXS   C344141  13.244  14.271  12.501  0.7267 -0.6315  0.1351
  133PROXS  H3144142  13.322  14.287  12.577  1.8916  0.3563 -1.2296
  133PROXS  H3244143  13.302  14.235  12.413  0.8712 -0.6218  0.2264
  133PROXS  H3344144  13.185  14.359  12.467  1.6324 -0.1727 -0.2725
  134PROXS   O144145  13.239  14.032  12.551  0.2146 -0.8778  0.1903
  134PROXS   C144146  13.218  13.964  12.668 -0.1872 -0.4110  0.1473
  134PROXS  H1144147  13.226  14.018  12.765  2.2147 -1.2692  0.4769
  134PROXS  H1344148  13.118  13.916  12.674 -0.4685  0.0889 -0.4047
  134PROXS   C244149  13.331  13.855  12.673 -1.0621 -0.0461  0.2954
  134PROXS  H2144150  13.344  13.828  12.566 -3.0260  1.7441 -0.4615
  134PROXS   C344151  13.304  13.735  12.759 -0.0507  0.2253  0.0489
  134PROXS  H3144152  13.223  13.678  12.708  0.5269  0.2837 -0.9459
  134PROXS  H3244153  13.398  13.677  12.771  0.1014  0.7111  1.3983
  134PROXS  H3344154  13.277  13.769  12.861 -0.6895 -0.0202 -0.0313
  135PROXS   O144155  13.448  13.909  12.734  0.0395  0.1546  0.2672
  135PROXS   C144156  13.510  14.021  12.676  0.2254  0.0516 -0.2792
  135PROXS  H1144157  13.520  13.990  12.570 -0.7921 -1.4604  0.0288
  135PROXS  H1344158  13.444  14.109  12.689  0.8924  0.6518 -0.8662
  135PROXS   C244159  13.645  14.041  12.748 -0.7555  0.1457  0.7341
  135PROXS  H2144160  13.700  13.954  12.708 -2.2858  0.5639 -2.6081
  135PROXS   C344161  13.626  14.031  12.902 -0.0988  0.1593 -0.5576
  135PROXS  H3144162  13.569  14.116  12.944  1.6708  0.8923  0.4898
  135PROXS  H3244163  13.567  13.942  12.932  0.0856  0.3967  0.5465
  135PROXS  H3344164  13.727  14.023  12.949 -0.1380 -1.7529 -0.7004
  136PROXS   O144165  13.696  14.167  12.713 -0.4405  0.3666 -0.0752
  136PROXS   C144166  13.829  14.178  12.777  0.2324  0.0540 -0.2584
  136PROXS  H1144167  13.806  14.211  12.880  0.2667 -0.7584  0.0123
  136PROXS  H1344168  13.883  14.081  12.776 -0.0781 -0.1153 -0.7737
  136PROXS   C244169  13.915  14.278  12.694  0.1637  0.4429 -0.4142
  136PROXS  H2144170  13.856  14.371  12.680 -0.9236  0.4732  3.2871
  136PROXS   C344171  13.955  14.219  12.562  0.3781  0.0452 -0.1640
  136PROXS  H3144172  14.015  14.127  12.578 -1.4995 -0.8752  2.1547
  136PROXS  H3244173  13.863  14.184  12.511  0.6728  0.7714 -1.2244
  136PROXS  H3344174  13.998  14.293  12.492 -1.2884  0.0093 -1.2825
  137PROXS   O144175  14.039  14.306  12.757 -0.4107 -0.0128  0.0316
  137PROXS   C144176  14.029  14.389  12.870  0.2123  0.0567  0.4871
  137PROXS  H1144177  14.012  14.486  12.820  1.6751  0.5573  0.8921
  137PROXS  H1344178  13.956  14.358  12.947  1.7808  0.4050  2.1914
  137PROXS   C244179  14.165  14.403  12.945 -0.6221 -0.1041  0.3000
  137PROXS  H2144180  14.249  14.421  12.875 -1.0649  0.7241 -0.0391
  137PROXS   C344181  14.209  14.276  13.018 -0.5438 -0.3772  0.9867
  137PROXS  H3144182  14.298  14.291  13.083  0.4731 -0.7640 -0.2784
  137PROXS  H3244183  14.127  14.244  13.085 -2.2332  0.7874 -0.4388
  137PROXS  H3344184  14.226  14.195  12.944  1.3084  0.2547  0.6395
  138PROXR   O144185  14.158  14.510  13.039  0.3042  0.2554 -0.1631
  138PROXR   C144186  14.183  14.635  12.975  0.2473  0.6387 -0.8103
  138PROXR  H1144187  14.282  14.626  12.926  1.5042 -1.5514  1.8491
  138PROXR  H1344188  14.098  14.659  12.907 -0.7252  1.5563  0.6437
  138PROXR   C244189  14.179  14.759  13.069  0.2605 -0.0295 -0.8043
  138PROXR  H2144190  14.085  14.762  13.128  1.6453  3.2896  1.5356
  138PROXR   C344191  14.190  14.889  12.992  0.2241  0.5872  0.8142
  138PROXR  H3144192  14.252  14.870  12.902  0.2816 -0.8121  1.1358
  138PROXR  H3244193  14.089  14.923  12.959 -1.1417 -2.6577  1.2697
  138PROXR  H3344194  14.240  14.971  13.048  1.4983  0.6143 -0.3330
  139PROXS   O144195  14.288  14.760  13.165  0.2811 -0.3538  0.2614
  139PROXS   C144196  14.313  14.644  13.243 -0.1581 -0.3671 -0.9903
  139PROXS  H1144197  14.361  14.563  13.184  0.4106  0.6337 -1.9434
  139PROXS  H1344198  14.396  14.671  13.313 -0.3607 -1.8316 -0.1269
  139PROXS   C244199  14.200  14.586  13.335  0.3228  0.3362  0.1014
  139PROXS  H2144200  14.122  14.541  13.270  0.4197  0.3519 -0.0274
  139PROXS   C344201  14.143  14.692  13.426 -0.1674 -0.2234 -0.1653
  139PROXS  H3144202  14.095  14.776  13.371 -3.7061 -1.0621  1.3402
  139PROXS  H3244203  14.053  14.652  13.479  0.1126 -1.2143 -0.4185
  139PROXS  H3344204  14.219  14.716  13.503 -0.4096  0.6510 -0.1908
  140PROXR   O144205  14.254  14.484  13.423 -0.4407 -0.4051 -0.4340
  140PROXR   C144206  14.270  14.359  13.359 -0.4594  0.3830 -0.3178
  140PROXR  H1144207  14.169  14.323  13.328 -0.6121 -0.8644  1.4894
  140PROXR  H1344208  14.335  14.376  13.270  1.6930  1.9329  1.4367
  140PROXR   C244209  14.340  14.257  13.458  0.5274 -0.1987  0.1191
  140PROXR  H2144210  14.436  14.294  13.500  1.2249  1.1917 -2.4474
  140PROXR   C344211  14.361  14.119  13.383  0.1507 -0.3019  0.0672
  140PROXR  H3144212  14.439  14.136  13.306 -0.1498 -0.7893 -0.3524
  140PROXR  H3244213  14.397  14.043  13.454 -0.5370  0.3499  1.1458
  140PROXR  H3344214  14.280  14.087  13.313  0.9348 -1.3349 -0.3808
  141PROXS   O144215  14.246  14.224  13.570 -0.1405 -0.2514 -0.4913
  141PROXS   C144216  14.250  14.321  13.682 -0.8872 -0.7882  0.0143
  141PROXS  H1144217  14.297  14.268  13.768  1.6339  0.9108 -0.1913
  141PROXS  H1344218  14.312  14.409  13.652 -4.6345  2.5781  1.2301
  141PROXS   C244219  14.114  14.379  13.718 -0.0507 -0.1542  0.8773
  141PROXS  H2144220  14.055  14.386  13.623 -1.3448 -0.8502  1.6060
  141PROXS   C344221  14.114  14.512  13.786  0.1130  0.0721  0.0641
  141PROXS  H3144222  14.134  14.591  13.710 -3.3051  0.0223 -1.0609
  141PROXS  H3244223  14.009  14.537  13.810 -0.1390 -0.9731  0.0573
  141PROXS  H3344224  14.184  14.520  13.871  1.3370 -0.1941 -0.8827
  142PROXS   O144225  14.044  14.293  13.803 -0.2058  0.0544 -0.0677
  142PROXS   C144226  14.001  14.173  13.739  0.4490 -0.2676 -0.1002
  142PROXS  H1144227  13.964  14.201  13.638  0.5121  3.0163  0.6798
  142PROXS  H1344228  14.091  14.109  13.734  0.1246 -0.8614  1.1407
  142PROXS   C244229  13.884  14.109  13.823  0.1167 -0.3036  0.3225
  142PROXS  H2144230  13.796  14.175  13.811 -1.8334 -3.0861 -1.7342
  142PROXS   C344231  13.916  14.088  13.977 -0.3119  0.4535  0.1082
  142PROXS  H3144232  13.994  14.011  13.999  0.7587  1.0083 -1.5503
  142PROXS  H3244233  13.956  14.181  14.022 -0.8609  0.8241 -0.1568
  142PROXS  H3344234  13.820  14.069  14.030 -0.3821 -1.0677 -0.5115
  143PROXS   O144235  13.848  13.988  13.761  0.1684  0.0584  0.0378
  143PROXS   C144236  13.721  13.945  13.814 -0.1054 -0.2373 -0.1207
  143PROXS  H1144237  13.753  13.902  13.911 -0.0380  0.6195  0.2457
  143PROXS  H1344238  13.646  14.024  13.835  1.4419  1.3332 -0.2306
  143PROXS   C244239  13.662  13.826  13.731  0.0929 -0.5340  0.0121
  143PROXS  H2144240  13.755  13.768  13.713  1.1606  1.4754 -1.2699
  143PROXS   C344241  13.601  13.876  13.596  0.1081 -0.3253 -0.4232
  143PROXS  H3144242  13.609  13.793  13.523  0.9171 -1.5055  0.9661
  143PROXS  H3244243  13.501  13.916  13.623  1.3912  4.7593 -2.0964
  143PROXS  H3344244  13.663  13.961  13.560 -1.0206  1.0128  0.6235
  144PROXS   O144245  13.567  13.767  13.804 -0.0318 -0.5822  0.1873
  144PROXS   C144246  13.573  13.628  13.810 -0.1199 -0.0510  0.1987
  144PROXS  H1144247  13.607  13.575  13.719  1.9513 -0.5904  1.2209
  144PROXS  H1344248  13.659  13.614  13.879  1.5693  2.3742 -1.3027
  144PROXS   C244249  13.448  13.570  13.869  0.4852 -0.5662 -0.9558
  144PROXS  H2144250  13.395  13.652  13.922 -1.2542 -0.4381 -2.7766
  144PROXS   C344251  13.469  13.451  13.964  0.1512 -0.4593  1.1209
  144PROXS  H3144252  13.541  13.487  14.041 -1.1434  0.3056  2.0217
  144PROXS  H3244253  13.377  13.430  14.023 -0.7001 -0.0665 -0.0317
  144PROXS  H3344254  13.502  13.363  13.905  1.1626 -0.1838  1.2583
  145PROXR   O144255  13.370  13.516  13.763 -0.0591 -0.1689 -0.3805
  145PROXR   C144256  13.340  13.607  13.654  0.6615 -0.5206 -0.2575
  145PROXR  H1144257  13.294  13.697  13.700 -0.1255 -1.0970  0.1044
  145PROXR  H1344258  13.434  13.621  13.596  0.5245 -0.4879 -0.4708
  145PROXR   C244259  13.236  13.540  13.562  0.1373 -0.4152 -0.2457
  145PROXR  H2144260  13.141  13.536  13.618  0.8500  1.4975  1.1961
  145PROXR   C344261  13.277  13.400  13.528 -0.8056  0.3038  0.0117
  145PROXR  H3144262  13.188  13.373  13.468  0.3258 -0.6644 -1.2952
  145PROXR  H3244263  13.365  13.393  13.461 -1.8999  3.2286 -1.9410
  145PROXR  H3344264  13.295  13.340  13.620 -0.3403  2.5271  1.4726
  146PROXS   O144265  13.218  13.613  13.445  0.6810  0.1585  0.9855
  146PROXS   C144266  13.092  13.672  13.435  0.6310 -0.1476 -0.3720
  146PROXS  H1144267  13.011  13.598  13.455 -0.5258  1.6048  1.8914
  146PROXS  H1344268  13.077  13.749  13.513 -0.6349  0.1691 -0.8935
  146PROXS   C244269  13.074  13.749  13.303  0.2376  0.2364 -0.4007
  146PROXS  H2144270  13.119  13.677  13.231 -1.5443 -0.0770 -1.2756
  146PROXS   C344271  13.159  13.879  13.288  0.0133 -0.5925  0.6358
  146PROXS  H3144272  13.159  13.907  13.181 -3.3598  0.3821  0.7897
  146PROXS  H3244273  13.119  13.969  13.338 -0.1716  0.3116 -1.0700
  146PROXS  H3344274  13.264  13.857  13.318  0.1194 -1.0863 -0.0775
  147PROXR   O144275  12.938  13.765  13.275 -0.5175 -0.8723  0.5547
  147PROXR   C144276  12.907  13.774  13.135 -0.9742 -0.2250  0.1518
  147PROXR  H1144277  12.967  13.846  13.075 -0.7441 -2.6190 -2.7526
  147PROXR  H1344278  12.930  13.674  13.091 -0.2700 -1.2887  2.7301
  147PROXR   C244279  12.760  13.795  13.115 -0.1896 -0.1582  0.1489
  147PROXR  H2144280  12.734  13.886  13.174  2.6689  1.4876 -0.8934
  147PROXR   C344281  12.668  13.682  13.158  0.8831  0.8993 -0.5932
  147PROXR  H3144282  12.721  13.621  13.234  0.1473  1.1967  0.1672
  147PROXR  H3244283  12.573  13.718  13.202 -0.3902 -2.8053 -0.0034
  147PROXR  H3344284  12.653  13.605  13.079  1.3522 -1.5814  1.6023
  148PROXR   O144285  12.731  13.817  12.980  0.6882 -0.5888  0.1287
  148PROXR   C144286  12.712  13.953  12.943 -0.0482  1.0921  0.0758
  148PROXR  H1144287  12.623  14.003  12.986 -0.9341  0.5991 -1.1495
  148PROXR  H1344288  12.801  14.012  12.976 -0.3434 -0.2469  3.6524
  148PROXR   C244289  12.709  13.969  12.788 -0.0212  0.9221 -0.6074
  148PROXR  H2144290  12.785  13.901  12.745 -1.3924 -1.5657  0.7164
  148PROXR   C344291  12.746  14.121  12.765 -0.4300  0.5694 -0.2205
  148PROXR  H3144292  12.837  14.143  12.824 -1.3209  1.9124  0.6975
  148PROXR  H3244293  12.767  14.153  12.660  1.0171  2.4327  0.5820
  148PROXR  H3344294  12.658  14.182  12.793 -1.0112 -0.2579 -0.2019
  149PROXR   O144295  12.581  13.941  12.738 -0.8613  0.4749 -0.2400
  149PROXR   C144296  12.579  13.872  12.612  0.3019  0.0743  0.5914
  149PROXR  H1144297  12.642  13.928  12.539  2.6119 -0.4273  2.0870
  149PROXR  H1344298  12.637  13.779  12.629  0.6070 -0.6303 -3.2619
  149PROXR   C244299  12.446  13.851  12.542 -0.1066  0.2342  0.5359
  149PROXR  H2144300  12.374  13.816  12.618  0.5565 -1.3634  0.4613
  149PROXR   C344301  12.446  13.740  12.432  0.4895 -0.3883 -0.6490
  149PROXR  H3144302  12.544  13.721  12.384  1.2330 -0.4562  0.8432
  149PROXR  H3244303  12.422  13.644  12.483 -0.6622  0.2228 -0.0168
  149PROXR  H3344304  12.355  13.745  12.368 -0.3623 -2.5694  0.2953
  150PROXS   O144305  12.409  13.973  12.464 -0.0001  0.4104 -0.0361
  150PROXS   C144306  12.359  14.082  12.548 -0.4216  0.1070  1.1452
  150PROXS  H1144307  12.434  14.122  12.620 -0.2667  1.6793  0.1614
  150PROXS  H1344308  12.361  14.171  12.482  0.4529 -0.4924  0.3167
  150PROXS   C244309  12.211  14.063  12.590  0.1404  0.1769  0.2868
  150PROXS  H2144310  12.200  13.985  12.668 -0.9536 -1.6100 -1.5465
  150PROXS   C344311  12.125  14.026  12.462  0.5421 -0.9313  0.0970
  150PROXS  H3144312  12.166  14.086  12.379  0.4542 -0.7430  0.1899
  150PROXS  H3244313  12.137  13.915  12.462  0.9211 -0.8971  1.3739
  150PROXS  H3344314  12.017  14.054  12.467  0.4416 -1.5161  1.6232
  151PROXR   O144315  12.170  14.191  12.632 -0.1819 -0.2395  0.2559
  151PROXR   C144316  12.217  14.238  12.755 -0.2147 -0.1515 -0.2371
  151PROXR  H1144317  12.323  14.207  12.768  0.9979  3.2327 -1.0156
  151PROXR  H1344318  12.218  14.349  12.754 -2.0263 -0.1162 -0.9165
  151PROXR   C244319  12.137  14.195  12.881  0.6706  0.3502  0.7810
  151PROXR  H2144320  12.121  14.087  12.900 -2.3149  0.0594 -2.2587
  151PROXR   C344321  11.994  14.247  12.873 -0.5082  0.5158  0.3764
  151PROXR  H3144322  12.010  14.356  12.860  2.6888  0.0532 -0.4867
  151PROXR  H3244323  11.949  14.213  12.777  1.5164 -3.0441  0.5020
  151PROXR  H3344324  11.927  14.221  12.958 -0.6986  2.9883  1.0608
  152PROXR   O144325  12.194  14.251  12.997 -0.2132 -0.1370 -0.5754
  152PROXR   C144326  12.296  14.169  13.058 -0.3496 -0.5289 -0.1054
  152PROXR  H1144327  12.257  14.089  13.125 -3.0882  2.6889  2.5015
  152PROXR  H1344328  12.350  14.118  12.976  0.5822 -0.1607  0.2702
  152PROXR   C244329  12.404  14.257  13.131  0.3706 -0.2471 -0.3690
  152PROXR  H2144330  12.358  14.299  13.223  0.8210 -1.2398  0.3244
  152PROXR   C344331  12.462  14.359  13.035 -0.5588 -0.1512  1.2372
  152PROXR  H3144332  12.492  14.306  12.942  1.2736  1.8213  0.6160
  152PROXR  H3244333  12.377  14.425  13.006 -0.0865  0.1654  0.5380
  152PROXR  H3344334  12.547  14.424  13.066 -0.5441  1.1234 -1.2388
  153PROXR   O144335  12.510  14.174  13.169  0.5153 -0.2358 -1.0584
  153PROXR   C144336  12.572  14.225  13.284 -0.1888 -0.5635  0.3640
  153PROXR  H1144337  12.633  14.315  13.266  1.1751 -1.7247 -1.1438
  153PROXR  H1344338  12.491  14.239  13.359  0.9803  0.2415  1.5224
  153PROXR   C244339  12.672  14.117  13.341  0.7238 -0.5605 -0.2181
  153PROXR  H2144340  12.742  14.090  13.260  1.8648  2.2982 -0.2974
  153PROXR   C344341  12.596  13.988  13.380 -0.2569  0.3666  0.5572
  153PROXR  H3144342  12.674  13.911  13.395 -0.0066  0.4580 -0.2655
  153PROXR  H3244343  12.531  14.005  13.468 -1.8182 -1.2565 -0.2302
  153PROXR  H3344344  12.537  13.950  13.294  1.2281  0.8618 -0.7260
  154PROXS   O144345  12.744  14.168  13.451 -0.6773  0.2837 -0.2601
  154PROXS   C144346  12.854  14.090  13.482 -0.1259  0.5413 -1.0170
  154PROXS  H1144347  12.826  13.995  13.534 -0.5261 -0.5711 -3.1550
  154PROXS  H1344348  12.915  14.066  13.392  0.6196  2.4371 -1.0496
  154PROXS   C244349  12.945  14.166  13.577 -0.1326 -0.0042  0.3856
  154PROXS  H2144350  12.886  14.213  13.659 -0.9252 -0.1011 -0.1162
  154PROXS   C344351  13.029  14.272  13.512  0.0321  0.4411 -0.9646
  154PROXS  H3144352  12.962  14.326  13.442 -1.4497 -1.3963 -1.0312
  154PROXS  H3244353  13.070  14.340  13.590 -0.1238 -0.8621  0.2897
  154PROXS  H3344354  13.111  14.225  13.455  2.3796  1.5430  1.2861
  155PROXR   O144355  13.032  14.070  13.636 -0.0694 -0.3523  0.1220
  155PROXR   C144356  13.093  14.118  13.753 -0.2652  0.0976 -0.4165
  155PROXR  H1144357  13.160  14.202  13.724 -0.5360 -0.3544 -2.5011
  155PROXR  H1344358  13.015  14.153  13.824 -0.2547  1.0477 -0.8557
  155PROXR   C244359  13.181  14.009  13.813 -0.2230  0.2754 -0.0751
  155PROXR  H2144360  13.261  13.973  13.744  1.6709  0.7673  1.7660
  155PROXR   C344361  13.095  13.897  13.856 -0.4745  0.5425 -0.2122
  155PROXR  H3144362  13.023  13.868  13.777 -0.5553  0.2419 -0.0315
  155PROXR  H3244363  13.158  13.808  13.877 -0.4796  0.3139 -1.1540
  155PROXR  H3344364  13.044  13.926  13.950  1.2859 -0.3176  1.0787
  156PROXS   O144365  13.248  14.072  13.918 -0.4341 -0.7582  0.1622
  156PROXS   C144366  13.361  13.994  13.954 -0.5354 -0.0457  0.3273
  156PROXS  H1144367  13.323  13.896  13.989 -1.4442  1.3084  3.3874
  156PROXS  H1344368  13.420  13.993  13.859  0.1131  1.5750  0.6859
  156PROXS   C244369  13.428  14.057  14.073  0.3564 -0.3840  0.0580
  156PROXS  H2144370  13.349  14.053  14.152 -0.8714  0.3510 -1.0941
  156PROXS   C344371  13.469  14.204  14.049 -0.4353 -0.1251 -0.3859
  156PROXS  H3144372  13.532  14.240  14.132 -0.9945 -1.7134  0.7819
  156PROXS  H3244373  13.523  14.208  13.951  0.8166 -2.2364  0.1481
  156PROXS  H3344374  13.380  14.270  14.048  0.6235  1.3627  0.9564
  157PROXS   O144375  13.547  13.990  14.118  0.4830 -0.5326  1.5508
  157PROXS   C144376  13.507  13.888  14.208  0.2394 -0.0516  0.1745
  157PROXS  H1144377  13.447  13.937  14.287  1.9540  0.3998  1.2478
  157PROXS  H1344378  13.426  13.818  14.177 -0.5355 -0.5517  3.0338
  157PROXS   C244379  13.615  13.810  14.277 -0.7434  0.6356  0.1760
  157PROXS  H2144380  13.696  13.881  14.306 -0.9475  1.3453 -0.9386
  157PROXS   C344381  13.679  13.694  14.182  0.6897 -0.3666 -0.1393
  157PROXS  H3144382  13.701  13.734  14.081 -0.9471  2.3148  0.4929
  157PROXS  H3244383  13.778  13.676  14.230  0.5454  0.1632  0.3644
  157PROXS  H3344384  13.614  13.604  14.182  1.2863 -0.8169  0.6506
  158PROXR   O144385  13.551  13.744  14.391  0.4793 -0.5309  0.0774
  158PROXR   C144386  13.645  13.695  14.486 -0.1507  0.1648  0.0395
  158PROXR  H1144387  13.739  13.650  14.448  1.2272 -0.6405  3.9330
  158PROXR  H1344388  13.682  13.781  14.546  1.8935 -2.4573  2.8244
  158PROXR   C244389  13.590  13.587  14.588 -0.1760 -0.2984  0.3848
  158PROXR  H2144390  13.573  13.498  14.525 -0.0779 -0.9673  1.2850
  158PROXR   C344391  13.461  13.640  14.649 -0.2054 -0.8905  0.0351
  158PROXR  H3144392  13.489  13.693  14.743 -1.6107  1.9425 -1.0203
  158PROXR  H3244393  13.406  13.704  14.577  0.7518 -0.8808 -0.7100
  158PROXR  H3344394  13.402  13.548  14.667 -0.1428 -1.1009 -0.7941
  159PROXR   O144395  13.694  13.561  14.682  0.3234  0.0096  0.5200
  159PROXR   C144396  13.653  13.479  14.792  0.3909 -0.4756  0.4445
  159PROXR  H1144397  13.590  13.533  14.866 -1.0762 -0.0368 -1.0739
  159PROXR  H1344398  13.597  13.389  14.757 -0.6773 -0.2535  1.4982
  159PROXR   C244399  13.777  13.420  14.858 -0.6025  0.2045 -0.4452
  159PROXR  H2144400  13.849  13.503  14.872  0.1334 -0.2758 -1.3089
  159PROXR   C344401  13.846  13.314  14.774 -0.4754  0.1611  0.0009
  159PROXR  H3144402  13.784  13.222  14.766  0.8156 -0.6968 -0.5217
  159PROXR  H3244403  13.871  13.344  14.670  0.1071 -1.3670 -0.3285
  159PROXR  H3344404  13.943  13.289  14.821  0.3999  0.0499 -1.7948
  160PROXS   O144405  13.742  13.357  14.987  0.6414  0.3911  0.2561
  160PROXS   C144406  13.781  13.444  15.097 -0.4023  0.3216 -0.1547
  160PROXS  H1144407  13.885  13.475  15.076  0.6086 -3.2803 -1.1690
  160PROXS  H1344408  13.714  13.532  15.087  1.4358  1.6351 -1.5495
  160PROXS   C244409  13.775  13.375  15.238  0.0362  0.1088  0.1020
  160PROXS  H2144410  13.668  13.365  15.267  0.0795  1.7273  0.9429
  160PROXS   C344411  13.841  13.466  15.342 -0.4633  0.0373 -0.6287
  160PROXS  H3144412  13.829  13.421  15.443 -1.8745  1.1749 -0.2643
  160PROXS  H3244413  13.950  13.469  15.320  0.1672  1.4902  2.1293
  160PROXS  H3344414  13.806  13.572  15.341 -0.5045  0.0269 -2.0811
  161PROXR   O144415  13.837  13.254  15.248  0.1206  0.9297 -0.1490
  161PROXR   C144416  13.751  13.143  15.262  0.3130  0.1984  0.2351
  161PROXR  H1144417  13.719  13.142  15.368 -0.0396  3.2840  0.2530
  161PROXR  H1344418  13.661  13.154  15.197  0.9165  1.6022 -0.4121
  161PROXR   C244419  13.827  13.010  15.224  0.5203  0.9145 -0.1510
  161PROXR  H2144420  13.920  13.006  15.285  0.1559  1.5703  0.4655
  161PROXR   C344421  13.861  13.011  15.068  0.5322  0.1625 -0.1506
  161PROXR  H3144422  13.902  12.912  15.037  0.0317  0.4326 -1.7819
  161PROXR  H3244423  13.765  13.021  15.013 -0.2785  1.8026  1.4542
  161PROXR  H3344424  13.932  13.090  15.034  1.0977 -0.5503 -0.6541
  162PROXR   O144425  13.731  12.896  15.244 -0.4841  0.6763  0.1079
  162PROXR   C144426  13.735  12.848  15.383  0.9549 -1.1322  0.3500
  162PROXR  H1144427  13.732  12.934  15.453 -0.6336  0.0430 -1.0996
  162PROXR  H1344428  13.642  12.791  15.402 -1.4738  2.8946  1.7323
  162PROXR   C244429  13.850  12.747  15.402  0.7119  0.3626 -0.0092
  162PROXR  H2144430  13.950  12.796  15.408  1.5101 -1.3738  2.3320
  162PROXR   C344431  13.857  12.636  15.286  0.4084 -0.6410  0.0885
  162PROXR  H3144432  13.962  12.600  15.287  0.4241 -1.0845 -3.4545
  162PROXR  H3244433  13.788  12.553  15.307  0.8434 -0.2622  3.4765
  162PROXR  H3344434  13.836  12.687  15.189  2.0317 -0.6350 -0.3003
  163PROXS   O144435  13.822  12.677  15.523 -0.8916  1.0890  0.4981
  163PROXS   C144436  13.860  12.739  15.639 -0.2667  0.7279  0.1179
  163PROXS  H1144437  13.958  12.694  15.665 -0.0949  1.7195  1.2428
  163PROXS  H1344438  13.877  12.848  15.630  1.8981  0.4070 -0.2235
  163PROXS   C244439  13.769  12.715  15.769  0.1279 -0.5652  0.8732
  163PROXS  H2144440  13.774  12.607  15.794 -2.2914 -1.0965 -0.5787
  163PROXS   C344441  13.623  12.757  15.733  0.1888 -0.3069  0.4347
  163PROXS  H3144442  13.611  12.868  15.727  2.2324 -0.0635 -0.1005
  163PROXS  H3244443  13.576  12.714  15.643 -1.0194  2.9740 -0.6599
  163PROXS  H3344444  13.563  12.716  15.817 -2.4351  1.5512 -0.3995
  164PROXR   O144445  13.810  12.801  15.876 -0.2599  0.0282 -0.5477
  164PROXR   C144446  13.947  12.792  15.919 -0.7442 -0.8677  0.2917
  164PROXR  H1144447  13.983  12.690  15.892  0.2603 -0.3128 -0.5513
  164PROXR  H1344448  14.012  12.869  15.872 -0.3738 -1.2370  0.1821
  164PROXR   C244449  13.957  12.796  16.068  1.0101 -0.0045 -0.9424
  164PROXR  H2144450  13.895  12.709  16.099 -0.4689  0.5729 -2.1585
  164PROXR   C344451  13.891  12.927  16.132  0.2303 -0.1482 -0.8013
  164PROXR  H3144452  13.801  12.962  16.077 -0.1228 -0.3979 -0.3834
  164PROXR  H3244453  13.857  12.897  16.233  0.7925 -0.6513 -0.7579
  164PROXR  H3344454  13.966  13.007  16.147 -1.3068  1.1793 -0.0260
  165PROXR   O144455  14.093  12.777  16.117 -0.0713  0.0883  0.2639
  165PROXR   C144456  14.105  12.763  16.256 -0.3753  0.2326 -0.4689
  165PROXR  H1144457  14.094  12.863  16.305 -3.5505  0.2855 -1.0997
  165PROXR  H1344458  14.034  12.686  16.292  1.0269  0.1826  2.4820
  165PROXR   C244459  14.244  12.704  16.288 -0.3283  0.3086  0.1158
  165PROXR  H2144460  14.313  12.775  16.236  0.9631 -0.3361  0.8958
  165PROXR   C344461  14.282  12.569  16.230 -0.3476  0.3201 -0.5122
  165PROXR  H3144462  14.385  12.535  16.251 -0.9673 -0.8251  0.8207
  165PROXR  H3244463  14.216  12.490  16.272 -0.0181 -1.4704 -3.1297
  165PROXR  H3344464  14.261  12.575  16.121 -1.1855  1.9071 -0.2916
  166ETHOX   O144465  14.274  12.710  16.426  0.3545 -0.0864 -0.3249
  166ETHOX   C144466  14.414  12.724  16.449  0.2039  0.9927 -0.1067
  166ETHOX  H1144467  14.444  12.830  16.435  2.3058  0.4372 -0.2306
  166ETHOX  H1344468  14.474  12.655  16.385  0.1178  1.1205 -0.3237
  166ETHOX   C244469  14.437  12.700  16.599  0.5757 -0.1115  0.5875
  166ETHOX  H2144470  14.538  12.718  16.642  0.3731  1.2308  0.5425
  166ETHOX  H2344471  14.402  12.595  16.609 -0.9905  0.4793  1.6165
  167ETHOX   O144472  14.347  12.780  16.679  0.5018  0.4030  0.1207
  167ETHOX   C144473  14.385  12.916  16.701  0.1851  0.5361  0.2353
  167ETHOX  H1144474  14.474  12.937  16.638  0.1357  0.2834  0.0802
  167ETHOX  H1344475  14.301  12.976  16.661  0.6280  0.4840 -0.8120
  167ETHOX   C244476  14.413  12.952  16.850 -0.4667  0.1611 -0.2546
  167ETHOX  H2144477  14.332  12.928  16.921 -1.0350 -1.6200 -1.4506
  167ETHOX  H2344478  14.427  13.063  16.852  4.4146 -0.2321  0.6174
  168ETHOX   O144479  14.536  12.890  16.906  0.0243 -0.2625 -0.6696
  168ETHOX   C144480  14.587  12.954  17.021  0.0644 -0.7472 -0.0668
  168ETHOX  H1144481  14.655  12.887  17.079  2.3168  0.4237 -1.1878
  168ETHOX  H1344482  14.495  12.970  17.081  0.0789 -2.8057  0.5667
  168ETHOX   C244483  14.669  13.075  16.990 -0.3038  0.1824  0.1078
  168ETHOX  H2144484  14.687  13.134  17.082 -2.7698  1.7525 -0.3252
  168ETHOX  H2344485  14.620  13.143  16.917 -0.0441 -0.0125 -0.2471
  169ETHOX   O144486  14.795  13.036  16.927 -0.1299 -0.1723 -0.1776
  169ETHOX   C144487  14.872  13.147  16.885  0.2847  0.6529 -0.5320
  169ETHOX  H1144488  14.827  13.191  16.794  0.1704  0.2758 -0.6625
  169ETHOX  H1344489  14.871  13.211  16.975  2.7147  0.1959 -0.1125
  169ETHOX   C244490  15.018  13.108  16.843 -0.0859  0.6799  0.3834
  169ETHOX  H2144491  15.061  13.210  16.828 -1.5322  1.0013 -2.0346
  169ETHOX  H2344492  15.012  13.060  16.743 -2.1569  0.0873  0.7595
  170ETHOX   O144493  15.085  13.033  16.940 -0.2656  0.1027  0.2436
  170ETHOX   C144494  15.209  12.973  16.897 -0.8055  0.3188  0.5367
  170ETHOX  H1144495  15.275  12.961  16.985 -0.6411 -0.6054  0.2987
  170ETHOX  H1344496  15.270  13.043  16.837  0.0715 -0.6147  0.3236
  170ETHOX   C244497  15.191  12.829  16.836 -0.6735  0.1601  0.5479
  170ETHOX  H2144498  15.094  12.781  16.860 -2.1222  2.5521 -0.1946
  170ETHOX  H2344499  15.279  12.763  16.849 -0.5205 -0.6761 -3.5110
  171ETHOX   O144500  15.184  12.857  16.696 -0.1002 -0.1770  0.0610
  171ETHOX   C144501  15.159  12.743  16.612  0.2979 -0.3847 -0.3492
  171ETHOX  H1144502  15.240  12.667  16.617 -1.3083 -2.2491 -1.2752
  171ETHOX  H1344503  15.067  12.694  16.652  1.0417 -0.3816  1.4667
  171ETHOX   C244504  15.121  12.792  16.466  0.0248 -0.0055  0.3897
  171ETHOX  H2144505  15.040  12.865  16.486 -0.2012  0.4795 -1.9524
  171ETHOX  H2344506  15.084  12.700  16.415  0.9447  0.2957 -0.8782
  172ETHOX   O144507  15.228  12.831  16.381 -0.8719 -0.1268 -0.1739
  172ETHOX   C144508  15.188  12.867  16.248  0.3281  0.5792 -0.0322
  172ETHOX  H1144509  15.132  12.786  16.197 -1.8655  0.5766  2.1932
  172ETHOX  H1344510  15.282  12.896  16.198  0.3144  2.4858  0.9425
  172ETHOX   C244511  15.095  12.988  16.247  0.4674 -0.7169 -0.0613
  172ETHOX  H2144512  15.004  12.975  16.310  0.8825 -0.8036  0.5245
  172ETHOX  H2344513  15.052  12.998  16.144  1.3679 -1.4419 -0.5179
  173ETHOX   O144514  15.164  13.111  16.297 -0.1891 -0.1979  0.4867
  173ETHOX   C144515  15.076  13.224  16.306 -0.6442 -0.5880  0.1879
  173ETHOX  H1144516  15.132  13.320  16.317 -0.5368 -0.3169 -2.2225
  173ETHOX  H1344517  15.021  13.240  16.211 -1.0998  1.8389  0.8049
  173ETHOX   C244518  14.968  13.217  16.417  0.1582 -0.0504 -0.8956
  173ETHOX  H2144519  15.012  13.177  16.511 -0.8593  0.9622  0.0366
  173ETHOX  H2344520  14.942  13.323  16.439  1.7108 -0.0074  0.9863
  174ETHOX   O144521  14.853  13.135  16.389 -0.9131  0.0351 -0.1991
  174ETHOX   C144522  14.749  13.145  16.480 -0.1548 -0.3997 -0.2798
  174ETHOX  H1144523  14.774  13.088  16.572  0.4322 -0.0805 -0.2417
  174ETHOX  H1344524  14.738  13.254  16.499  2.5610  0.9255 -4.8524
  174ETHOX   C244525  14.624  13.069  16.438  0.3212 -0.4144  0.1363
  174ETHOX  H2144526  14.556  13.085  16.524 -1.2250 -2.1843 -0.6704
  174ETHOX  H2344527  14.646  12.960  16.434  2.0232 -0.1556  1.2806
  175ETHOX   O144528  14.565  13.125  16.318 -0.1534  0.5099 -0.3705
  175ETHOX   C144529  14.450  13.055  16.277  1.0183  0.5011  0.2324
  175ETHOX  H1144530  14.468  12.949  16.250  1.4241  0.7446 -0.4872
  175ETHOX  H1344531  14.383  13.048  16.365  0.3551 -0.1434 -0.3070
  175ETHOX   C244532  14.368  13.119  16.166 -0.2042 -0.4880  0.2786
  175ETHOX  H2144533  14.349  13.226  16.188 -2.1583 -1.1782  2.2307
  175ETHOX  H2344534  14.270  13.070  16.149  0.5359 -1.1958 -2.7709
  176ETHOX   O144535  14.439  13.116  16.041 -0.1544 -0.2218 -0.1328
  176ETHOX   C144536  14.355  13.146  15.923  0.3318 -0.1163  0.9318
  176ETHOX  H1144537  14.392  13.095  15.831  0.7602  0.2703  0.8879
  176ETHOX  H1344538  14.251  13.111  15.937  0.5599 -1.9351 -1.3759
  176ETHOX   C244539  14.350  13.300  15.915 -0.0450 -0.4888 -0.6238
  176ETHOX  H2144540  14.453  13.342  15.917 -0.0995 -0.3645  1.9491
  176ETHOX  H2344541  14.304  13.331  16.011  1.5120 -1.1969  0.3734
  177ETHOX   O144542  14.266  13.332  15.815  0.5872 -0.1431  0.6357
  177ETHOX   C144543  14.251  13.479  15.788 -0.0587 -0.0152  0.5749
  177ETHOX  H1144544  14.351  13.526  15.774 -1.4390  2.6322 -1.1101
  177ETHOX  H1344545  14.185  13.535  15.857  1.1522  0.9624  0.9728
  177ETHOX   C244546  14.190  13.513  15.646  0.2150  0.2628  0.2381
  177ETHOX  H2144547  14.149  13.617  15.650 -2.0403 -0.5960  1.4356
  177ETHOX  H2344548  14.098  13.455  15.627 -0.4019  1.5996 -1.0709
  178ETHOX   O144549  14.278  13.492  15.533  0.4157  0.4447  0.1839
  178ETHOX   C144550  14.203  13.507  15.423 -0.0660 -0.6089 -0.6691
  178ETHOX  H1144551  14.122  13.432  15.425  0.4170 -1.1299 -0.3833
  178ETHOX  H1344552  14.166  13.612  15.425  1.0870 -0.1663 -1.2721
  178ETHOX   C244553  14.286  13.494  15.297  0.5134  0.7195 -0.4190
  178ETHOX  H2144554  14.372  13.564  15.302  1.4397 -0.1965 -2.1927
  178ETHOX  H2344555  14.222  13.525  15.212 -0.4246 -1.1255 -0.4319
  179ETHOX   O144556  14.327  13.361  15.274 -0.7341 -0.1067  0.3580
  179ETHOX   C144557  14.225  13.289  15.200 -0.3983 -0.0802  0.3719
  179ETHOX  H1144558  14.184  13.346  15.113  1.7939  1.9532  0.5774
  179ETHOX  H1344559  14.142  13.263  15.270 -1.1606 -0.3032 -0.5889
  179ETHOX   C244560  14.271  13.160  15.145  0.1157  0.4090 -0.0958
  179ETHOX  H2144561  14.182  13.103  15.110  0.5412 -0.1316 -0.3073
  179ETHOX  H2344562  14.323  13.103  15.225 -1.1184 -1.0679 -0.3056
  180ETHOX   O144563  14.367  13.191  15.055 -0.5310 -0.0322 -0.2360
  180ETHOX   C144564  14.362  13.100  14.947  0.5106 -0.4112  0.8791
  180ETHOX  H1144565  14.266  13.091  14.894  0.4133  0.4557  0.8951
  180ETHOX  H1344566  14.433  13.140  14.872  0.1762  0.5826  1.0790
  180ETHOX   C244567  14.406  12.961  14.983  0.1714  0.0022 -0.6528
  180ETHOX  H2144568  14.495  12.976  15.048 -1.1453 -1.0130  1.4724
  180ETHOX  H2344569  14.435  12.896  14.898  0.4402  0.0066 -0.5649
  181ETHOX   O144570  14.299  12.901  15.062  0.5007 -0.5446 -0.5404
  181ETHOX   C144571  14.341  12.782  15.125 -0.2240 -1.2628  0.5098
  181ETHOX  H1144572  14.442  12.790  15.169 -0.5155 -1.2447  1.1937
  181ETHOX  H1344573  14.322  12.704  15.048  0.1832  1.3066 -2.3831
  181ETHOX   C244574  14.240  12.748  15.243  0.0431  0.0665  0.0277
  181ETHOX  H2144575  14.248  12.640  15.269 -3.2562 -1.0107 -2.5492
  181ETHOX  H2344576  14.136  12.755  15.203  0.4512  1.8186 -0.8032
  182ETHOX   O144577  14.256  12.831  15.357  0.1318  0.5681  0.0371
  182ETHOX   C144578  14.226  12.755  15.469  0.0731  0.2011 -0.6618
  182ETHOX  H1144579  14.126  12.707  15.455 -0.1290  0.6437 -0.7513
  182ETHOX  H1344580  14.297  12.673  15.491  0.3417  0.4805 -0.4937
  182ETHOX   C244581  14.213  12.842  15.595  0.0183  0.0200 -0.2236
  182ETHOX  H2144582  14.304  12.900  15.620  0.4149 -0.0446 -1.4588
  182ETHOX  H2344583  14.185  12.779  15.683  1.5237  0.5287  0.6522
  183ETHOX   O144584  14.103  12.942  15.586  0.2094  0.2001 -0.2705
  183ETHOX   C144585  14.140  13.064  15.533 -0.1562  0.4397  0.0729
  183ETHOX  H1144586  14.170  13.047  15.428  0.7780  0.1567  0.3695
  183ETHOX  H1344587  14.228  13.109  15.585  0.4621 -0.8803  0.1998
  183ETHOX   C244588  14.021  13.164  15.529  0.9517  0.2854 -0.5768
  183ETHOX  H2144589  13.931  13.112  15.492  0.5274  1.4493 -1.2370
  183ETHOX  H2344590  14.046  13.240  15.451 -1.8459 -0.6655 -2.5640
  184ETHOX   O144591  14.004  13.223  15.661 -0.5548  0.1461  0.3272
  184ETHOX   C144592  13.898  13.160  15.734  0.0708 -0.1149 -1.1592
  184ETHOX  H1144593  13.806  13.209  15.697  0.2231  0.5471 -0.6714
  184ETHOX  H1344594  13.901  13.049  15.727 -0.6971 -0.1721 -0.6718
  184ETHOX   C244595  13.912  13.185  15.888 -0.0457 -0.4516 -0.4243
  184ETHOX  H2144596  14.018  13.182  15.918  0.0859  0.9514 -0.6975
  184ETHOX  H2344597  13.856  13.110  15.949  1.5203 -1.1309  0.2250
  185ETHOX   O144598  13.842  13.300  15.933 -0.3519 -0.2054 -0.5404
  185ETHOX   C144599  13.899  13.417  15.875  0.8824 -0.0887 -0.3579
  185ETHOX  H1144600  14.009  13.418  15.894  0.7648 -1.5395  0.6090
  185ETHOX  H1344601  13.884  13.424  15.766 -0.7362 -0.1353 -0.1597
  185ETHOX   C244602  13.841  13.548  15.934 -0.1170  0.4182 -0.3571
  185ETHOX  H2144603  13.731  13.556  15.921 -0.0570  1.9262 -0.1013
  185ETHOX  H2344604  13.887  13.642  15.898  0.2527 -0.2178 -1.5869
  186ETHOX   O144605  13.881  13.542  16.070 -0.1414  0.2403 -0.2392
  186ETHOX   C144606  13.821  13.645  16.153  0.3947 -0.0236 -0.3308
  186ETHOX  H1144607  13.837  13.747  16.113 -0.9461  0.8223  1.2011
  186ETHOX  H1344608  13.713  13.626  16.139  0.3675  0.9474 -1.7072
  186ETHOX   C244609  13.850  13.658  16.303 -0.2692  0.6213  0.1107
  186ETHOX  H2144610  13.827  13.757  16.348  1.5196  0.1037  2.3059
  186ETHOX  H2344611  13.958  13.651  16.330  0.3738  1.1617 -2.0667
  187ETHOX   O144612  13.781  13.553  16.369 -0.2038 -0.1592 -0.7198
  187ETHOX   C144613  13.800  13.552  16.510 -0.2753 -0.3424 -0.3246
  187ETHOX  H1144614  13.903  13.520  16.538 -0.5948 -2.7145 -1.6257
  187ETHOX  H1344615  13.771  13.652  16.548 -1.2514 -1.3269  1.6606
  187ETHOX   C244616  13.708  13.442  16.561 -0.2486  0.0707 -0.4795
  187ETHOX  H2144617  13.608  13.446  16.514 -0.7830 -0.1408  0.6138
  187ETHOX  H2344618  13.699  13.457  16.671 -1.0766 -0.8676 -0.4100
  188ETHOX   O144619  13.762  13.318  16.544 -0.5347 -0.2993 -0.2731
  188ETHOX   C144620  13.675  13.213  16.580  0.0201 -0.2166 -0.9995
  188ETHOX  H1144621  13.596  13.200  16.503  0.6959 -2.0166 -1.4396
  188ETHOX  H1344622  13.625  13.217  16.679  1.4427  1.1236 -0.2898
  188ETHOX   C244623  13.766  13.098  16.562 -0.3926 -0.1510  0.3223
  188ETHOX  H2144624  13.815  13.090  16.462 -1.2923 -1.0061 -0.0646
  188ETHOX  H2344625  13.709  13.004  16.576 -2.3625  0.8891 -0.3781
  189ETHOX   O144626  13.862  13.087  16.667 -0.0406  0.1971 -0.2250
  189ETHOX   C144627  13.947  12.972  16.649 -0.2300  0.6035 -0.3661
  189ETHOX  H1144628  13.886  12.881  16.629 -2.3892  1.7812  0.5195
  189ETHOX  H1344629  14.029  12.996  16.577  0.1556  0.7439  0.1158
  189ETHOX   C244630  14.016  12.959  16.785 -0.4515  0.5692 -0.0313
  189ETHOX  H2144631  14.083  13.045  16.805  0.3335 -0.4304  1.8819
  189ETHOX  H2344632  14.077  12.866  16.784 -0.6369  0.4045  1.3872
  190ETHOX   O144633  13.913  12.953  16.884 -0.3678 -0.5267 -0.1856
  190ETHOX   C144634  13.986  12.986  17.005  0.8714  0.7201 -0.5154
  190ETHOX  H1144635  14.047  13.078  16.998 -1.6988  2.4083 -3.2338
  190ETHOX  H1344636  14.052  12.897  17.013 -2.4942 -1.8286  1.5057
  190ETHOX   C244637  13.920  12.969  17.136  0.1452  0.1428 -0.4569
  190ETHOX  H2144638  13.988  12.929  17.215 -1.3389 -2.0962 -0.2197
  190ETHOX  H2344639  13.841  12.891  17.131  0.2638  0.0000 -0.1480
  191ETHOX   O144640  13.874  13.093  17.180 -0.1999 -0.0620 -0.2431
  191ETHOX   C144641  13.807  13.081  17.305 -0.3520  0.1251 -0.3522
  191ETHOX  H1144642  13.704  13.044  17.288 -1.1466 -0.4132  4.3085
  191ETHOX  H1344643  13.836  12.993  17.367 -2.4088 -0.3788 -0.0404
  191ETHOX   C244644  13.798  13.203  17.396 -0.2043 -0.2894  0.2834
  191ETHOX  H2144645  13.896  13.241  17.433 -1.3915  1.5654  1.7649
  191ETHOX  H2344646  13.746  13.158  17.483  1.0784 -2.8175 -0.1722
  192ETHOX   O144647  13.724  13.310  17.335 -0.1329  0.6232  0.7234
  192ETHOX   C144648  13.784  13.438  17.365  0.3463  0.1045  0.2496
  192ETHOX  H1144649  13.890  13.432  17.335  0.1140  1.0806 -0.8491
  192ETHOX  H1344650  13.780  13.478  17.469 -1.0898  2.7795 -0.7302
  192ETHOX   C244651  13.718  13.555  17.285 -0.5187 -0.1046  0.4722
  192ETHOX  H2144652  13.710  13.533  17.176  0.4326  0.3628  0.2996
  192ETHOX  H2344653  13.773  13.652  17.294  1.3495 -1.1570  0.8481
  193ETHOX   O144654  13.590  13.558  17.348  0.0719 -0.2154 -0.1154
  193ETHOX   C144655  13.496  13.644  17.280 -0.1999 -0.6266 -0.3726
  193ETHOX  H1144656  13.534  13.748  17.283 -0.0026 -0.5672 -3.0411
  193ETHOX  H1344657  13.480  13.608  17.176  1.0798  0.1207 -0.8422
  193ETHOX   C244658  13.373  13.652  17.370  0.1424 -0.1655  0.1141
  193ETHOX  H2144659  13.341  13.548  17.393 -1.2398  0.0202 -0.8485
  193ETHOX  H2344660  13.296  13.704  17.309 -0.3476  0.7841  1.5038
  194ETHOX   O144661  13.419  13.725  17.488 -0.4440  0.0226  0.0024
  194ETHOX   C144662  13.325  13.732  17.596 -0.0319 -0.0640  0.6911
  194ETHOX  H1144663  13.305  13.632  17.639  1.3549 -0.4524  0.4855
  194ETHOX  H1344664  13.232  13.782  17.562 -0.1551 -2.1713 -2.5659
  194ETHOX   C244665  13.385  13.800  17.712 -0.6723  0.0707 -0.6003
  194ETHOX  H2144666  13.301  13.833  17.777 -1.1419  0.0908 -1.2139
  194ETHOX  H2344667  13.432  13.892  17.674  1.0416 -0.3537  0.3892
  195ETHOX   O144668  13.480  13.717  17.796 -0.0547 -0.0807  0.2888
  195ETHOX   C144669  13.511  13.776  17.920  0.8266 -0.0617  0.0123
  195ETHOX  H1144670  13.603  13.720  17.946  0.9411  0.5509  0.9450
  195ETHOX  H1344671  13.537  13.883  17.911 -1.9710  0.7323  0.4084
  195ETHOX   C244672  13.416  13.750  18.028  0.5566  0.7421  0.3436
  195ETHOX  H2144673  13.474  13.741  18.122  1.3296  0.1682 -0.1730
  195ETHOX  H2344674  13.367  13.653  18.007 -1.2353  1.8166 -0.6900
  196ETHOX   O144675  13.304  13.839  18.037  0.1064 -0.3596 -0.3305
  196ETHOX   C144676  13.252  13.828  18.166  0.2150  0.3590  0.2460
  196ETHOX  H1144677  13.235  13.727  18.209 -2.1598  0.9915  0.9153
  196ETHOX  H1344678  13.324  13.875  18.237  0.1368 -0.6866  1.0523
  196ETHOX   C244679  13.127  13.915  18.174  0.5631 -0.2381 -0.5349
  196ETHOX  H2144680  13.139  13.997  18.100 -1.1338  0.1838 -0.3980
  196ETHOX  H2344681  13.133  13.952  18.278  3.6352 -0.6116 -0.5146
  197ETHOX   O144682  13.002  13.840  18.147  0.1634  0.8090  0.0584
  197ETHOX   C144683  12.893  13.933  18.173 -0.1761 -0.2703  0.0474
  197ETHOX  H1144684  12.874  13.934  18.283  3.3457  1.5450  0.7657
  197ETHOX  H1344685  12.924  14.031  18.133  0.3827 -0.4114  0.1245
  197ETHOX   C244686  12.764  13.895  18.106  0.0016  0.9791 -0.1925
  197ETHOX  H2144687  12.779  13.847  18.008  0.3814  0.0487  0.3067
  197ETHOX  H2344688  12.717  13.993  18.081 -0.1093  1.3350  1.3090
  198ETHOX   O144689  12.685  13.804  18.185  0.5088  0.0538 -0.0011
  198ETHOX   C144690  12.561  13.771  18.117 -0.3077 -0.2795  0.6328
  198ETHOX  H1144691  12.524  13.871  18.088  1.0892 -0.1286 -0.7581
  198ETHOX  H1344692  12.578  13.722  18.019  3.0316 -0.8851  1.3841
  198ETHOX   C244693  12.470  13.675  18.195  0.5279 -0.2099 -0.0068
  198ETHOX  H2144694  12.528  13.581  18.213  0.4808 -0.1015  0.7340
  198ETHOX  H2344695  12.376  13.650  18.141 -1.2504  0.7615  2.4907
  199ETHOX   O144696  12.436  13.739  18.316  0.5091  0.6749  0.1652
  199ETHOX   C144697  12.339  13.667  18.396  0.3153 -0.2064  0.4132
  199ETHOX  H1144698  12.333  13.558  18.374  0.9252 -0.3152  0.7618
  199ETHOX  H1344699  12.241  13.706  18.362  0.3830  0.2281  0.7172
  199ETHOX   C244700  12.369  13.685  18.551 -0.1404  0.2628  0.6192
  199ETHOX  H2144701  12.280  13.644  18.603 -1.7542  1.3143 -1.1938
  199ETHOX  H2344702  12.375  13.793  18.575  1.4813 -0.0196  1.6100
  200ETHOX   O144703  12.490  13.622  18.589 -0.1958  0.4035  0.4370
  200ETHOX   C144704  12.500  13.620  18.729  0.1663  0.6057 -0.0199
  200ETHOX  H1144705  12.504  13.720  18.777 -0.8684  0.5594  0.1964
  200ETHOX  H1344706  12.413  13.569  18.777 -0.8451 -0.1814 -2.5340
  200ETHOX   C244707  12.634  13.547  18.776  0.1799  0.4563 -0.1271
  200ETHOX  H2144708  12.646  13.444  18.737  1.5816  0.8499 -0.7778
  200ETHOX  H2344709  12.618  13.538  18.886 -1.6163 -2.0948 -0.5199
  201ETHOX   O144710  12.751  13.624  18.746 -0.0524  0.8143 -0.2675
  201ETHOX   C144711  12.863  13.545  18.763 -0.2086  0.0244  1.3588
  201ETHOX  H1144712  12.863  13.454  18.699  3.4136  0.8120 -0.0256
  201ETHOX  H1344713  12.869  13.505  18.867 -2.7289 -0.8764  1.2201
  201ETHOX   C244714  12.978  13.633  18.728 -0.7350  0.2951  0.1946
  201ETHOX  H2144715  12.953  13.683  18.631 -1.7872 -0.8194 -0.1288
  201ETHOX  H2344716  13.079  13.588  18.721 -0.6542  0.4459  0.3983
  202ETHOX   O144717  12.989  13.727  18.832  0.0523  0.0132  0.5408
  202ETHOX   C144718  13.063  13.837  18.793 -0.1505 -0.1040 -0.1917
  202ETHOX  H1144719  13.165  13.802  18.767 -0.4092 -0.6140 -0.5522
  202ETHOX  H1344720  13.009  13.882  18.706 -0.6181  0.8912  0.6015
  202ETHOX   C244721  13.088  13.949  18.895  0.7021 -0.0728 -0.1897
  202ETHOX  H2144722  12.988  13.990  18.918  1.0941  1.2329 -0.7570
  202ETHOX  H2344723  13.158  14.021  18.848  0.2713 -0.3725 -1.3106
  203ETHOX   O144724  13.135  13.911  19.022 -0.5463  0.5286 -0.2950
  203ETHOX   C144725  13.157  14.024  19.117  0.0298  0.0768  0.6773
  203ETHOX  H1144726  13.063  14.052  19.168  0.7187  1.7580  1.0649
  203ETHOX  H1344727  13.199  14.110  19.060  0.1064 -1.6281 -2.0735
  203ETHOX   C244728  13.248  13.970  19.234  0.2140  0.1226 -0.0017
  203ETHOX  H2144729  13.201  13.874  19.267  1.2758 -0.0092  1.1736
  203ETHOX  H2344730  13.245  14.053  19.307 -1.5316  1.1252 -1.1219
  204ETHOX   O144731  13.380  13.966  19.174 -0.0078 -0.1886 -0.7436
  204ETHOX   C144732  13.485  13.901  19.252 -0.1584  0.9181  0.0661
  204ETHOX  H1144733  13.578  13.955  19.221 -1.2074  2.4482 -0.5360
  204ETHOX  H1344734  13.464  13.922  19.359 -0.3813  1.3531 -0.0594
  204ETHOX   C244735  13.503  13.750  19.233 -0.3714 -0.2427 -0.3370
  204ETHOX  H2144736  13.413  13.692  19.262  0.6826 -1.3279  0.9478
  204ETHOX  H2344737  13.588  13.712  19.294 -1.0706 -2.7589 -0.8023
  205ETHOX   O144738  13.523  13.719  19.093  0.4605 -0.4650 -0.7390
  205ETHOX   C144739  13.581  13.594  19.075  0.0012 -0.4790 -0.4002
  205ETHOX  H1144740  13.512  13.522  19.123 -2.9311  2.0629 -0.4868
  205ETHOX  H1344741  13.676  13.576  19.130 -0.4308 -4.7596 -0.7672
  205ETHOX   C244742  13.617  13.580  18.927  0.2218  0.3919 -1.3440
  205ETHOX  H2144743  13.523  13.607  18.874 -0.7618 -0.3668 -0.0433
  205ETHOX  H2344744  13.640  13.472  18.921  1.1996  0.4689  0.3079
  206ETHOX   O144745  13.729  13.665  18.892  0.0783 -0.1620 -0.2457
  206ETHOX   C144746  13.763  13.659  18.758 -0.3581 -0.3755 -0.5566
  206ETHOX  H1144747  13.867  13.698  18.761 -1.0698  1.5739  0.7260
  206ETHOX  H1344748  13.775  13.551  18.734 -0.5546 -0.7627  0.9976
  206ETHOX   C244749  13.663  13.738  18.670 -0.0444 -0.3118  0.4183
  206ETHOX  H2144750  13.638  13.843  18.699  1.9526  0.4226 -0.2867
  206ETHOX  H2344751  13.726  13.753  18.579  1.4221  0.0753  1.4481
  207ETHOX   O144752  13.543  13.673  18.647 -0.0593 -0.4708 -0.4607
  207ETHOX   C144753  13.475  13.732  18.536 -0.2297  0.5051 -0.1470
  207ETHOX  H1144754  13.543  13.725  18.449 -2.2900 -0.1960 -1.7906
  207ETHOX  H1344755  13.449  13.837  18.563 -1.8133  0.5817 -1.7630
  207ETHOX   C244756  13.342  13.669  18.500  0.1664 -0.1646 -0.5080
  207ETHOX  H2144757  13.281  13.751  18.455 -0.6731 -0.8571 -0.6565
  207ETHOX  H2344758  13.299  13.641  18.599  0.2509 -0.1683 -0.4725
  208ETHOX   O144759  13.335  13.555  18.413 -0.5439  0.0130 -0.2020
  208ETHOX   C144760  13.406  13.442  18.461  0.3400 -0.0351  0.0962
  208ETHOX  H1144761  13.509  13.456  18.500  0.8391 -2.7684 -0.0283
  208ETHOX  H1344762  13.341  13.412  18.546 -0.6103  0.7575 -0.3225
  208ETHOX   C244763  13.412  13.322  18.358 -0.0101 -0.0260  0.0237
  208ETHOX  H2144764  13.312  13.307  18.312 -0.5868  1.5674  0.6860
  208ETHOX  H2344765  13.420  13.230  18.419  4.0944 -2.9941 -4.2234
  209ETHOX   O144766  13.521  13.313  18.260 -0.2940 -0.4974  0.0542
  209ETHOX   C144767  13.503  13.404  18.150  0.2553 -0.1456 -0.2509
  209ETHOX  H1144768  13.528  13.510  18.171 -1.7644  0.3912 -0.3787
  209ETHOX  H1344769  13.396  13.406  18.120  0.2262 -1.2163 -0.2665
  209ETHOX   C244770  13.589  13.355  18.027 -0.0087 -0.4087 -0.6037
  209ETHOX  H2144771  13.691  13.358  18.071 -1.2126 -0.1887  2.3795
  209ETHOX  H2344772  13.587  13.441  17.956 -1.3012  1.0776  1.1435
  210ETHOX   O144773  13.537  13.242  17.962 -0.1377 -0.1503  0.0655
  210ETHOX   C144774  13.464  13.274  17.841  0.4911  0.4387 -0.5153
  210ETHOX  H1144775  13.380  13.341  17.868  0.0028 -0.6046  0.6485
  210ETHOX  H1344776  13.529  13.337  17.777  0.9114 -0.0806 -0.6028
  210ETHOX   C244777  13.398  13.146  17.774 -0.3828  0.8146  0.0179
  210ETHOX  H2144778  13.337  13.186  17.691 -0.2012  1.3248  0.1300
  210ETHOX  H2344779  13.341  13.095  17.855 -1.1468  0.4337 -0.7456
  211ETHOX   O144780  13.501  13.061  17.722  0.4105  0.0701 -0.1994
  211ETHOX   C144781  13.460  13.007  17.595 -0.4056 -0.2202 -0.4589
  211ETHOX  H1144782  13.357  12.966  17.607 -0.2831  0.0557  2.0856
  211ETHOX  H1344783  13.462  13.080  17.512 -0.2861 -1.4311 -1.5486
  211ETHOX   C244784  13.560  12.901  17.558 -0.0970 -0.6270 -0.5125
  211ETHOX  H2144785  13.550  12.813  17.626  0.8514 -0.6176 -0.3518
  211ETHOX  H2344786  13.663  12.943  17.549 -0.5582  0.5260 -0.5278
  212ETHOX   O144787  13.531  12.851  17.429 -0.1492  0.2496  0.1624
  212ETHOX   C144788  13.612  12.738  17.395  0.0182  0.5591  0.0615
  212ETHOX  H1144789  13.719  12.756  17.369  0.3873  1.3780  2.0028
  212ETHOX  H1344790  13.621  12.665  17.478  0.9443 -0.7057 -1.1072
  212ETHOX   C244791  13.530  12.652  17.293  0.3900  0.7593  0.9560
  212ETHOX  H2144792  13.598  12.571  17.262 -0.0768  0.9133 -0.5967
  212ETHOX  H2344793  13.505  12.698  17.195  1.1870 -0.9398 -0.0836
  213ETHOX   O144794  13.404  12.611  17.359 -0.4594  0.4164  0.7440
  213ETHOX   C144795  13.322  12.518  17.298  0.2779  0.2386 -0.8406
  213ETHOX  H1144796  13.241  12.513  17.374 -0.0431  4.2137 -0.6764
  213ETHOX  H1344797  13.280  12.562  17.206  0.8737  0.0132 -1.2262
  213ETHOX   C244798  13.385  12.381  17.278  0.7516 -0.6532  0.2272
  213ETHOX  H2144799  13.307  12.302  17.278  0.7832 -0.7559 -2.2241
  213ETHOX  H2344800  13.464  12.354  17.352  0.1364 -2.6269  0.2138
  214ETHOX   O144801  13.446  12.368  17.147  0.3529  0.6505  0.1922
  214ETHOX   C144802  13.548  12.269  17.141  0.1891  0.7770 -0.1356
  214ETHOX  H1144803  13.497  12.175  17.170 -1.0429  0.4317 -3.0420
  214ETHOX  H1344804  13.622  12.298  17.218 -1.7667 -1.7811  2.9182
  214ETHOX   C244805  13.620  12.251  17.007 -0.2394 -0.0020  0.7769
  214ETHOX  H2144806  13.690  12.166  17.020 -0.7928 -0.8227 -1.2626
  214ETHOX  H2344807  13.684  12.342  17.000  0.4776 -0.6096 -1.2238
  215ETHOX   O144808  13.531  12.213  16.900  0.1571  0.3056 -0.0817
  215ETHOX   C144809  13.602  12.235  16.780 -0.5153  0.0529  0.1184
  215ETHOX  H1144810  13.614  12.343  16.760 -1.7325 -0.0577 -1.3117
  215ETHOX  H1344811  13.697  12.177  16.771  0.3824  1.5430 -0.4944
  215ETHOX   C244812  13.501  12.189  16.665  0.2983  0.6087 -0.0497
  215ETHOX  H2144813  13.535  12.220  16.564  2.3178 -0.9803  0.0894
  215ETHOX  H2344814  13.395  12.218  16.685 -0.6286 -0.9323 -2.3640
  216ETHOX   O144815  13.500  12.052  16.659  0.2516  0.1423 -0.5856
  216ETHOX   C144816  13.611  11.998  16.602  0.1043 -0.4048  0.2130
  216ETHOX  H1144817  13.695  11.981  16.673  2.6216 -0.1822 -2.5257
  216ETHOX  H1344818  13.659  12.065  16.529  0.5686 -1.1809 -0.1999
  216ETHOX   C244819  13.571  11.866  16.534  0.1783 -0.1153 -0.7884
  216ETHOX  H2144820  13.651  11.843  16.459  0.3342  0.5648 -0.8338
  216ETHOX  H2344821  13.472  11.878  16.486 -1.2255  1.9631  2.3206
  217ETHOX   O144822  13.570  11.765  16.632 -0.3037 -0.2693 -1.0754
  217ETHOX   C144823  13.688  11.676  16.632  0.0256 -0.6780  0.4246
  217ETHOX  H1144824  13.691  11.618  16.537  0.3230 -1.5422  0.9511
  217ETHOX  H1344825  13.774  11.746  16.631 -0.5847  0.0835 -0.0432
  217ETHOX   C244826  13.683  11.576  16.748  0.2259  0.2056  0.6437
  217ETHOX  H2144827  13.714  11.473  16.718 -0.0269  0.6059 -1.0770
  217ETHOX  H2344828  13.575  11.564  16.769  0.3797  1.6381  2.5090
  218ETHOX   O144829  13.737  11.628  16.869 -0.4401 -0.2954  0.5901
  218ETHOX   C144830  13.732  11.534  16.975 -0.0777 -0.6798 -0.5408
  218ETHOX  H1144831  13.836  11.495  16.972  1.0119  1.9203  0.2699
  218ETHOX  H1344832  13.660  11.453  16.951 -0.3699 -0.8706  0.8816
  218ETHOX   C244833  13.716  11.597  17.113 -0.4836  0.0717  0.5440
  218ETHOX  H2144834  13.785  11.684  17.121 -1.1585  0.5391  1.5615
  218ETHOX  H2344835  13.741  11.531  17.199  1.8054  2.5006  1.9200
  219ETHOX   O144836  13.582  11.635  17.129  0.3520  0.4780 -0.2844
  219ETHOX   C144837  13.557  11.723  17.237  0.3684  0.3359 -0.5820
  219ETHOX  H1144838  13.447  11.739  17.231  0.7568  3.5540 -1.3743
  219ETHOX  H1344839  13.579  11.683  17.338  0.1430  0.5035 -0.4650
  219ETHOX   C244840  13.617  11.861  17.226 -0.0073  1.0678 -0.2219
  219ETHOX  H2144841  13.544  11.934  17.268  0.9884  2.4826 -0.8518
  219ETHOX  H2344842  13.642  11.876  17.119  0.2785 -1.0227 -0.4860
  220ETHOX   O144843  13.737  11.864  17.306  0.5240  0.1921 -0.3245
  220ETHOX   C144844  13.790  12.004  17.310  0.9786  0.2131  0.2490
  220ETHOX  H1144845  13.825  12.011  17.415  0.3603 -1.5054  0.6177
  220ETHOX  H1344846  13.710  12.075  17.281  1.8760  1.3988  0.6175
  220ETHOX   C244847  13.905  12.016  17.214  0.1898  1.1795 -0.7225
  220ETHOX  H2144848  13.932  12.121  17.193  0.7533  1.6693  2.0842
  220ETHOX  H2344849  13.871  11.960  17.124 -1.2229 -2.6468  1.9106
  221ETHOX   O144850  14.023  11.950  17.249  0.4761  0.5181  0.0891
  221ETHOX   C144851  14.115  11.979  17.145  0.8971 -0.3636  0.4203
  221ETHOX  H1144852  14.067  11.932  17.056 -0.9316  2.8361 -0.4521
  221ETHOX  H1344853  14.116  12.087  17.118  0.5847 -0.6036 -0.6210
  221ETHOX   C244854  14.257  11.926  17.159  0.1539  0.2179 -0.1617
  221ETHOX  H2144855  14.301  11.904  17.059  1.9984  0.5133  0.5460
  221ETHOX  H2344856  14.240  11.822  17.193  2.6450  0.1267  1.0125
  222ETHOX   O144857  14.359  11.996  17.240  0.7564  0.4616  0.2195
  222ETHOX   C144858  14.472  11.913  17.233 -0.0059  0.6115 -0.4323
  222ETHOX  H1144859  14.438  11.817  17.277 -3.0110  0.1398 -3.3669
  222ETHOX  H1344860  14.493  11.907  17.124 -0.4172  0.8508 -0.5273
  222ETHOX   C244861  14.586  11.974  17.322  1.3958 -0.0509  0.1778
  222ETHOX  H2144862  14.678  11.912  17.327  1.1062 -0.3868  2.1924
  222ETHOX  H2344863  14.537  11.961  17.421  0.8288  0.4426 -0.0313
  223ETHOX   O144864  14.609  12.111  17.302 -0.0768  0.1970  0.6911
  223ETHOX   C144865  14.679  12.149  17.185  0.0878  0.1687  0.6601
  223ETHOX  H1144866  14.784  12.113  17.183 -0.6928 -2.3153 -1.7987
  223ETHOX  H1344867  14.618  12.114  17.099  0.0826 -1.0969  1.1580
  223ETHOX   C244868  14.696  12.298  17.188 -0.2759  0.6354 -1.1614
  223ETHOX  H2144869  14.724  12.334  17.290  1.1239 -0.9516 -0.9377
  223ETHOX  H2344870  14.607  12.350  17.147  0.5944  3.0916 -0.1208
  224ETHOX   O144871  14.809  12.347  17.114 -0.1188  0.1364 -0.3634
  224ETHOX   C144872  14.804  12.492  17.104 -0.7765 -0.4324 -0.1786
  224ETHOX  H1144873  14.702  12.530  17.084 -1.3542 -0.4494  2.3281
  224ETHOX  H1344874  14.837  12.554  17.191  1.8449 -0.1221 -1.2768
  224ETHOX   C244875  14.875  12.548  16.977 -0.1906  0.2280  0.5694
  224ETHOX  H2144876  14.983  12.529  16.991 -0.2849  1.4692  3.7038
  224ETHOX  H2344877  14.874  12.659  16.972 -0.6593  0.2102  0.0830
  225ETHOX   O144878  14.840  12.489  16.847  0.6494 -0.1872 -0.0215
  225ETHOX   C144879  14.701  12.501  16.811  0.3268  0.4010 -0.3352
  225ETHOX  H1144880  14.683  12.609  16.794  1.5079  0.8637  1.0896
  225ETHOX  H1344881  14.633  12.461  16.889 -0.1216 -0.9581 -1.3880
  225ETHOX   C244882  14.663  12.414  16.695  0.5356 -0.0006 -0.0175
  225ETHOX  H2144883  14.555  12.420  16.671  0.3488  1.1883  1.0049
  225ETHOX  H2344884  14.685  12.307  16.716 -0.9791 -0.6290 -1.4133
  226ETHOX   O144885  14.738  12.450  16.582 -0.3018  0.0652  0.0949
  226ETHOX   C144886  14.693  12.372  16.475  0.0666  0.6535 -1.0598
  226ETHOX  H1144887  14.604  12.312  16.503  0.5701  1.8899  4.2754
  226ETHOX  H1344888  14.668  12.441  16.392 -1.5075  0.2336 -0.9714
  226ETHOX   C244889  14.798  12.266  16.423  0.2202  0.1433 -0.0162
  226ETHOX  H2144890  14.889  12.315  16.383  0.4980 -0.4814 -0.1533
  226ETHOX  H2344891  14.760  12.207  16.336 -2.6623 -0.6887  1.6705
  227ETHOX   O144892  14.849  12.175  16.520  0.1731  0.1152  0.0854
  227ETHOX   C144893  14.966  12.102  16.472 -0.0292 -0.4288  0.4953
  227ETHOX  H1144894  15.041  12.177  16.440 -0.9248 -0.0508 -0.8016
  227ETHOX  H1344895  14.937  12.045  16.381 -1.1109  0.2766  0.3684
  227ETHOX   C244896  15.024  11.999  16.574 -0.3423  0.5927  0.4664
  227ETHOX  H2144897  15.067  12.048  16.663  1.9933  0.7439 -0.6738
  227ETHOX  H2344898  15.094  11.929  16.523  1.0765  0.2428  2.7269
  228ETHOX   O144899  14.914  11.927  16.631 -0.7230  0.3683 -0.2227
  228ETHOX   C144900  14.966  11.822  16.712  0.4158  0.3680  0.1880
  228ETHOX  H1144901  15.039  11.764  16.651 -0.8273 -0.1514 -0.8488
  228ETHOX  H1344902  15.022  11.868  16.796  2.1607  0.9180 -1.2037
  228ETHOX   C244903  14.863  11.723  16.772  0.3728 -0.1244  0.7889
  228ETHOX  H2144904  14.793  11.780  16.836  0.3303 -0.3123  0.9079
  228ETHOX  H2344905  14.916  11.652  16.839  1.0225  0.6170  1.0744
  229ETHOX   O144906  14.784  11.650  16.676  0.2673 -0.3321  0.5121
  229ETHOX   C144907  14.662  11.593  16.724 -0.5226 -0.6434 -0.7225
  229ETHOX  H1144908  14.586  11.672  16.705  0.0400  0.3666  0.9562
  229ETHOX  H1344909  14.661  11.571  16.833 -1.3078  1.6357 -0.2074
  229ETHOX   C244910  14.628  11.468  16.650  0.7859  0.4136  0.9543
  229ETHOX  H2144911  14.560  11.404  16.710 -0.8916  1.3405  0.1113
  229ETHOX  H2344912  14.718  11.404  16.637  0.0494 -0.4040 -0.3564
  230ETHOX   O144913  14.570  11.483  16.519  0.4290 -0.6876  0.4548
  230ETHOX   C144914  14.510  11.371  16.477  0.2233 -0.0042  0.3962
  230ETHOX  H1144915  14.583  11.287  16.480  1.6731  1.2360  1.3706
  230ETHOX  H1344916  14.418  11.359  16.538  0.5800 -0.3293  0.8819
  230ETHOX   C244917  14.473  11.386  16.323  0.7117  0.7923 -0.0482
  230ETHOX  H2144918  14.420  11.484  16.315 -0.9136 -0.1222 -1.1527
  230ETHOX  H2344919  14.397  11.308  16.303  1.3599 -0.0457  0.7143
  231ETHOX   O144920  14.575  11.381  16.227  0.3335 -0.6055 -0.2861
  231ETHOX   C144921  14.529  11.407  16.090  0.4475  0.9606 -0.3669
  231ETHOX  H1144922  14.456  11.490  16.090 -2.1475 -1.1737 -0.3639
  231ETHOX  H1344923  14.472  11.317  16.057  0.3218  0.3790  1.3345
  231ETHOX   C244924  14.634  11.455  15.988  0.1148  0.5969  0.3094
  231ETHOX  H2144925  14.605  11.412  15.890  1.0521  0.2378  0.1796
  231ETHOX  H2344926  14.734  11.419  16.020  0.2397 -1.7921 -2.3797
  232ETHOX   O144927  14.614  11.592  15.979 -0.2954 -0.4973 -0.0562
  232ETHOX   C144928  14.684  11.643  15.867 -0.3745  0.4777  0.7144
  232ETHOX  H1144929  14.788  11.604  15.873 -0.4145  0.4029  0.8992
  232ETHOX  H1344930  14.630  11.616  15.774  1.0252  1.9912 -0.6009
  232ETHOX   C244931  14.686  11.791  15.874 -0.1740  0.2186 -0.1889
  232ETHOX  H2144932  14.581  11.828  15.882 -0.6458 -0.9997 -0.5055
  232ETHOX  H2344933  14.728  11.824  15.776 -1.3452 -0.7278 -1.0391
  233ETHOX   O144934  14.765  11.841  15.982 -0.1004  0.1860 -0.0111
  233ETHOX   C144935  14.784  11.984  15.977  0.6838 -0.8950 -0.2383
  233ETHOX  H1144936  14.842  12.023  15.890  0.7567 -1.9365 -0.6748
  233ETHOX  H1344937  14.685  12.034  15.970  1.2197  0.4942  1.5135
  233ETHOX   C244938  14.858  12.027  16.107  0.0147  0.1828 -0.4963
  233ETHOX  H2144939  14.950  11.964  16.112 -0.6936 -0.8024  0.6471
  233ETHOX  H2344940  14.785  12.005  16.188  0.5053  2.6546  0.7078
  234ETHOX   O144941  14.905  12.165  16.120 -0.3969  0.1901 -0.0071
  234ETHOX   C144942  15.047  12.173  16.094  1.1842  0.4742 -0.1947
  234ETHOX  H1144943  15.081  12.272  16.130 -0.2491  0.5574  1.0021
  234ETHOX  H1344944  15.100  12.102  16.161 -0.8826 -3.4401 -2.3556
  234ETHOX   C244945  15.098  12.140  15.954  0.5819  0.2115 -0.6745
  234ETHOX  H2144946  15.196  12.191  15.947  1.1606 -0.8229 -0.3567
  234ETHOX  H2344947  15.026  12.191  15.886  0.3462 -0.1240 -0.6826
  235ETHOX   O144948  15.117  11.996  15.926  0.1498 -0.6832 -0.3961
  235ETHOX   C144949  15.165  11.979  15.795  0.5695  0.4017 -0.3782
  235ETHOX  H1144950  15.154  11.871  15.772  1.4695  0.1388  0.3734
  235ETHOX  H1344951  15.093  12.029  15.727 -1.2764  0.0161  1.1919
  235ETHOX   C244952  15.310  12.022  15.755  0.0195 -0.2124  0.0989
  235ETHOX  H2144953  15.316  12.130  15.779 -1.9661  0.0109 -0.2164
  235ETHOX  H2344954  15.330  12.018  15.646 -0.2617  1.0506 -0.0222
  236ETHOX   O144955  15.414  11.954  15.819 -0.3441  0.2311  0.4418
  236ETHOX   C144956  15.539  12.009  15.795 -0.3111  0.4472  0.2289
  236ETHOX  H1144957  15.548  12.118  15.813  1.1604  0.1510  1.5105
  236ETHOX  H1344958  15.571  11.982  15.692  0.1185  1.5095  0.0719
  236ETHOX   C244959  15.647  11.934  15.879 -0.3842  0.7359  0.2978
  236ETHOX  H2144960  15.742  11.984  15.852 -0.3912 -0.7250 -2.9083
  236ETHOX  H2344961  15.642  11.829  15.843 -1.7622  0.2771  1.6764
  237ETHOX   O144962  15.613  11.937  16.019  0.0115 -0.3754  0.1420
  237ETHOX   C144963  15.725  11.903  16.094 -0.1513 -0.1650 -0.6367
  237ETHOX  H1144964  15.801  11.980  16.066 -2.1037  1.6261 -1.2234
  237ETHOX  H1344965  15.684  11.918  16.196 -3.0375 -1.0233 -1.5802
  237ETHOX   C244966  15.784  11.757  16.086  0.4508  0.1677 -0.4442
  237ETHOX  H2144967  15.887  11.765  16.128  0.4777  1.0700 -0.6533
  237ETHOX  H2344968  15.797  11.716  15.983  0.7230  0.9203 -0.7243
  238ETHOX   O144969  15.721  11.662  16.171 -0.1665 -0.0142  0.1561
  238ETHOX   C144970  15.599  11.610  16.120  0.0737 -0.3675  0.2616
  238ETHOX  H1144971  15.623  11.562  16.023 -0.9680 -1.0268  0.3082
  238ETHOX  H1344972  15.534  11.699  16.101  2.3242  1.0999 -1.0746
  238ETHOX   C244973  15.546  11.507  16.213  0.8398  0.1331  0.4743
  238ETHOX  H2144974  15.443  11.482  16.180  0.8126  0.1995  0.5093
  238ETHOX  H2344975  15.546  11.540  16.318 -1.1778 -1.3346  0.9917
  239ETHOX   O144976  15.629  11.392  16.205  0.4533 -0.0719  0.3235
  239ETHOX   C144977  15.557  11.277  16.246  0.4151  0.2624 -0.4552
  239ETHOX  H1144978  15.498  11.294  16.339  0.9272 -1.5016  0.2203
  239ETHOX  H1344979  15.492  11.245  16.161  2.5152  0.2759 -2.1425
  239ETHOX   C244980  15.649  11.160  16.278 -0.3299 -0.6782 -0.1968
  239ETHOX  H2144981  15.720  11.155  16.193 -0.3148  0.8191 -0.3110
  239ETHOX  H2344982  15.705  11.168  16.374 -1.5431 -2.5828  0.7224
  240ETHOX   O144983  15.577  11.037  16.287 -0.1422 -0.2578  0.5482
  240ETHOX   C144984  15.663  10.927  16.255  0.8141  0.4049  0.6578
  240ETHOX  H1144985  15.769  10.947  16.283  1.7125 -1.5580 -1.0546
  240ETHOX  H1344986  15.665  10.910  16.146 -5.5136 -0.9156  0.3843
  240ETHOX   C244987  15.627  10.794  16.328  0.5618 -0.3144 -0.3579
  240ETHOX  H2144988  15.687  10.705  16.298  0.1976 -1.9812  3.3164
  240ETHOX  H2344989  15.519  10.775  16.312 -0.4271  1.0844  3.4969
  241ETHOX   O144990  15.651  10.800  16.467  0.1819  0.1279 -0.3727
  241ETHOX   C144991  15.589  10.696  16.539  0.8937 -0.3647  0.3340
  241ETHOX  H1144992  15.480  10.712  16.530  1.3875  4.4445  0.4097
  241ETHOX  H1344993  15.623  10.602  16.489 -1.0175 -0.2348 -1.3250
  241ETHOX   C244994  15.631  10.690  16.685  0.0475 -0.3621 -0.2722
  241ETHOX  H2144995  15.552  10.631  16.735  1.0556 -0.2126  1.5937
  241ETHOX  H2344996  15.625  10.795  16.721  0.3097  0.2790 -2.0158
  242ETHOX   O144997  15.756  10.627  16.704 -0.3464  0.6501 -0.1913
  242ETHOX   C144998  15.779  10.624  16.842 -0.2255 -0.1654  0.5263
  242ETHOX  H1144999  15.692  10.584  16.900 -0.2699  0.4946  0.9191
  242ETHOX  H1345000  15.800  10.730  16.864 -0.3757  0.1172 -0.6303
  242ETHOX   C245001  15.904  10.543  16.869 -0.6818 -0.1915  0.4830
  242ETHOX  H2145002  15.908  10.459  16.797  4.1980  0.1200  0.0722
  242ETHOX  H2345003  15.892  10.514  16.976 -2.6347  0.4666  0.4841
  243ETHOX   O145004  16.030  10.611  16.845  0.2725  0.1958 -0.2024
  243ETHOX   C145005  16.142  10.525  16.870  0.5721 -0.7134 -0.0318
  243ETHOX  H1145006  16.125  10.484  16.972  0.0587  0.2847  0.2956
  243ETHOX  H1345007  16.129  10.438  16.802 -0.7457 -0.7471  0.2304
  243ETHOX   C245008  16.265  10.611  16.855  0.0285 -0.4045 -0.0639
  243ETHOX  H2145009  16.355  10.559  16.894 -0.5594 -2.5624 -1.4158
  243ETHOX  H2345010  16.249  10.711  16.902  1.8975  0.0043 -0.2331
  244ETHOX   O145011  16.282  10.625  16.715  0.2925  0.3298 -0.3033
  244ETHOX   C145012  16.364  10.741  16.688  0.8539 -0.1644  0.3848
  244ETHOX  H1145013  16.461  10.726  16.739  0.6993 -1.1816  0.4060
  244ETHOX  H1345014  16.323  10.839  16.718 -0.4512 -0.8211  0.8526
  244ETHOX   C245015  16.392  10.746  16.538 -0.4907 -0.0264 -0.9247
  244ETHOX  H2145016  16.438  10.652  16.499 -1.1850  0.5454 -3.2741
  244ETHOX  H2345017  16.482  10.809  16.527  0.6523 -1.0941  1.4920
  245ETHOX   O145018  16.291  10.806  16.458  0.1739  0.4048  0.5714
  245ETHOX   C145019  16.349  10.839  16.336  0.9610  0.1370 -0.0641
  245ETHOX  H1145020  16.419  10.922  16.358 -1.2788  1.8056  1.1346
  245ETHOX  H1345021  16.400  10.748  16.298 -0.8080 -0.1269 -2.0074
  245ETHOX   C245022  16.238  10.891  16.246  0.4526 -0.2858 -0.7057
  245ETHOX  H2145023  16.163  10.812  16.226  0.9899 -1.5178  1.7269
  245ETHOX  H2345024  16.284  10.925  16.151  0.1663 -0.1248 -0.7871
  246ETHOX   O145025  16.179  11.012  16.309  0.6166  0.5043 -0.3292
  246ETHOX   C145026  16.070  11.063  16.237 -1.1093  0.5532  0.4752
  246ETHOX  H1145027  15.990  10.986  16.239 -0.4474 -0.1720 -0.0684
  246ETHOX  H1345028  16.097  11.073  16.130 -0.0466 -0.8191  0.5807
  246ETHOX   C245029  16.028  11.206  16.278  0.1319 -0.4996  0.3524
  246ETHOX  H2145030  15.956  11.241  16.200  0.8132 -0.4732 -0.2717
  246ETHOX  H2345031  16.114  11.275  16.286  0.5995 -1.2588  2.3135
  247ETHOX   O145032  15.944  11.201  16.396  0.6717  0.3252 -0.1254
  247ETHOX   C145033  15.947  11.324  16.472  0.1600  0.6170  0.2760
  247ETHOX  H1145034  16.043  11.308  16.526  1.1856 -0.3411 -1.7563
  247ETHOX  H1345035  15.949  11.408  16.400 -1.9397  0.9753  0.5834
  247ETHOX   C245036  15.827  11.344  16.567  0.1240 -0.0166 -0.7681
  247ETHOX  H2145037  15.732  11.322  16.513 -1.1751 -0.1703  1.4679
  247ETHOX  H2345038  15.830  11.274  16.653 -0.5298  0.3220 -0.4631
  248ETHOX   O145039  15.824  11.475  16.611 -0.0016  0.0914 -0.5394
  248ETHOX   C145040  15.695  11.507  16.677  0.3827  0.4078  0.5553
  248ETHOX  H1145041  15.619  11.513  16.596  0.1393 -1.4222  0.5956
  248ETHOX  H1345042  15.665  11.433  16.755 -0.5891  2.2416  2.0086
  248ETHOX   C245043  15.723  11.640  16.742 -0.2870 -1.3216 -1.0153
  248ETHOX  H2145044  15.634  11.705  16.760  1.0293  0.8414 -1.9005
  248ETHOX  H2345045  15.791  11.703  16.681  0.3799 -0.8068  0.2208
  249ETHOX   O145046  15.786  11.635  16.867 -0.3596 -0.4445  0.1129
  249ETHOX   C145047  15.824  11.768  16.911  0.5628 -0.8306 -0.3617
  249ETHOX  H1145048  15.905  11.799  16.842  1.2816 -3.7196 -0.9218
  249ETHOX  H1345049  15.736  11.836  16.900 -0.2007 -1.9034 -1.1302
  249ETHOX   C245050  15.880  11.770  17.049 -0.6734  0.0713  0.3171
  249ETHOX  H2145051  15.949  11.855  17.069 -0.6261  0.4501 -1.2710
  249ETHOX  H2345052  15.943  11.679  17.061  0.5321  0.7105 -0.7990
  250ETHOX   O145053  15.782  11.751  17.147 -0.5434  0.8273  0.2383
  250ETHOX   C145054  15.829  11.756  17.282  0.4866  0.4001 -0.8441
  250ETHOX  H1145055  15.909  11.681  17.299  0.9732  1.3675  1.5641
  250ETHOX  H1345056  15.863  11.861  17.298 -3.2889  1.9851 -2.0162
  250ETHOX   C245057  15.719  11.719  17.386  0.8129 -0.0940 -0.0119
  250ETHOX  H2145058  15.765  11.674  17.477  1.8517  0.6092 -0.1730
  250ETHOX  H2345059  15.664  11.631  17.347 -0.3012  0.9511 -0.8478
  251ETHOX   O145060  15.650  11.828  17.446 -0.3010  0.5016  0.8662
  251ETHOX   C145061  15.565  11.884  17.347 -0.6338 -0.5437 -0.3594
  251ETHOX  H1145062  15.515  11.799  17.296 -1.0729 -0.9322  0.6897
  251ETHOX  H1345063  15.622  11.940  17.270 -1.3599  0.4868 -0.1633
  251ETHOX   C245064  15.450  11.965  17.406  0.3279 -0.5374 -0.1388
  251ETHOX  H2145065  15.410  12.034  17.329  0.0360  0.3946  0.8340
  251ETHOX  H2345066  15.490  12.026  17.490 -1.9817  0.8086  0.0600
  252ETHOX   O145067  15.352  11.876  17.450  0.2046  0.1861  0.3318
  252ETHOX   C145068  15.239  11.935  17.506 -0.6143  0.2275 -0.2061
  252ETHOX  H1145069  15.271  12.025  17.563 -0.6704 -0.5695  1.1289
  252ETHOX  H1345070  15.183  11.981  17.422 -0.2986  3.0448  1.0292
  252ETHOX   C245071  15.155  11.840  17.590 -0.0385  0.0946  0.9068
  252ETHOX  H2145072  15.138  11.741  17.544 -2.5564  0.9405 -0.1506
  252ETHOX  H2345073  15.057  11.885  17.619 -1.6981 -0.1044 -3.6648
  253ETHOX   O145074  15.222  11.816  17.711 -0.1070  0.1428 -0.0240
  253ETHOX   C145075  15.182  11.687  17.767 -0.1410 -0.3674  0.5369
  253ETHOX  H1145076  15.232  11.601  17.718 -0.2979  0.1348 -0.5468
  253ETHOX  H1345077  15.077  11.666  17.735 -1.8112  4.5684  1.9009
  253ETHOX   C245078  15.176  11.673  17.916 -0.3899 -0.0550  0.8320
  253ETHOX  H2145079  15.279  11.691  17.955 -0.5748  1.0667  0.8314
  253ETHOX  H2345080  15.153  11.566  17.936 -0.8047  0.3346  2.6108
  254ETHOX   O145081  15.078  11.759  17.974 -0.0014  0.1121  0.4384
  254ETHOX   C145082  14.942  11.720  17.944 -0.2606 -0.3971 -0.0033
  254ETHOX  H1145083  14.920  11.744  17.838  0.5948 -1.8053 -0.5342
  254ETHOX  H1345084  14.926  11.612  17.966 -0.6280 -0.2752  0.3363
  254ETHOX   C245085  14.858  11.810  18.034 -0.4131  0.4010  0.6474
  254ETHOX  H2145086  14.881  11.789  18.141  0.5969 -0.0840  0.3487
  254ETHOX  H2345087  14.754  11.778  18.013 -0.4510 -0.4721  1.9813
  255ETHOX   O145088  14.864  11.948  18.003 -0.6437 -0.3384  0.1409
  255ETHOX   C145089  14.786  12.021  18.100 -0.1468 -0.3653  0.0172
  255ETHOX  H1145090  14.846  12.114  18.111  2.7733 -1.9099 -1.6636
  255ETHOX  H1345091  14.766  11.964  18.193 -2.2333  0.0139 -0.1628
  255ETHOX   C245092  14.654  12.066  18.030 -0.8598  0.1433  0.4998
  255ETHOX  H2145093  14.612  12.134  18.107 -1.7208 -1.0308  1.0966
  255ETHOX  H2345094  14.582  11.982  18.023 -0.0219 -0.6286  0.9695
  256ETHOX   O145095  14.682  12.131  17.907  0.6045  0.3254  0.3140
  256ETHOX   C145096  14.559  12.153  17.832  0.3607  0.3277 -0.2389
  256ETHOX  H1145097  14.517  12.056  17.796  0.0058  1.2135 -2.3862
  256ETHOX  H1345098  14.485  12.204  17.897  1.8135 -2.1825  3.7623
  256ETHOX   C245099  14.576  12.226  17.705 -0.6299 -0.4027  0.1146
  256ETHOX  H2145100  14.492  12.197  17.638  0.5725 -0.8274 -1.2327
  256ETHOX  H2345101  14.667  12.187  17.656 -1.4830  1.0861 -2.8441
  257ETHOX   O145102  14.581  12.365  17.724 -0.1401  0.5676  0.5752
  257ETHOX   C145103  14.620  12.438  17.605  0.7204  0.0724  0.8603
  257ETHOX  H1145104  14.698  12.380  17.550 -0.5304  0.6606 -1.6774
  257ETHOX  H1345105  14.665  12.535  17.635 -0.4321  1.0716 -0.4803
  257ETHOX   C245106  14.492  12.481  17.521 -0.3210 -0.1563 -0.1104
  257ETHOX  H2145107  14.433  12.543  17.592 -0.0021  1.0730 -0.8850
  257ETHOX  H2345108  14.429  12.397  17.484 -2.0621  1.1293 -0.1907
  258ETHOX   O145109  14.518  12.561  17.411 -0.2970 -0.6141  0.0049
  258ETHOX   C145110  14.397  12.584  17.342  0.2783  0.1275 -0.2481
  258ETHOX  H1145111  14.344  12.487  17.329  0.0891 -0.1268  1.9950
  258ETHOX  H1345112  14.335  12.653  17.403 -0.0028  1.2153 -1.7220
  258ETHOX   C245113  14.395  12.664  17.215 -0.1899 -0.4622  0.1889
  258ETHOX  H2145114  14.441  12.763  17.233 -0.9717 -0.1083  0.2591
  258ETHOX  H2345115  14.288  12.685  17.194 -0.1700 -1.3182 -0.8597
  259ETHOX   O145116  14.465  12.602  17.105 -0.0341 -0.1478 -0.3917
  259ETHOX   C145117  14.412  12.639  16.983  0.6697  0.4073 -0.4157
  259ETHOX  H1145118  14.368  12.740  16.995 -1.2341 -0.2809 -1.2229
  259ETHOX  H1345119  14.495  12.656  16.911 -0.6743  0.7874 -1.9106
  259ETHOX   C245120  14.309  12.538  16.932 -0.0752 -0.2319  0.2236
  259ETHOX  H2145121  14.270  12.580  16.837 -1.7892 -1.8434  0.1495
  259ETHOX  H2345122  14.229  12.525  17.008  1.7273 -0.2589  2.2335
  260ETHOX   O145123  14.376  12.423  16.888 -0.1936  0.2811 -0.7510
  260ETHOX   C145124  14.279  12.322  16.862 -0.0009  0.8770 -0.5280
  260ETHOX  H1145125  14.230  12.288  16.956 -1.0298 -0.9547 -1.6777
  260ETHOX  H1345126  14.199  12.365  16.797 -1.5944  1.2134  1.5267
  260ETHOX   C245127  14.346  12.194  16.808  0.6877 -1.1001 -0.8596
  260ETHOX  H2145128  14.407  12.163  16.895 -0.6161 -0.1374  0.4491
  260ETHOX  H2345129  14.421  12.228  16.734 -0.4561  0.2008 -1.4615
  261ETHOX   O145130  14.269  12.087  16.756 -0.3524 -0.3060 -0.4637
  261ETHOX   C145131  14.358  11.983  16.728 -0.3818  0.4914 -0.1536
  261ETHOX  H1145132  14.411  12.006  16.633 -0.9780  2.8636  0.0063
  261ETHOX  H1345133  14.424  11.970  16.816 -0.3299  1.9215  0.0449
  261ETHOX   C245134  14.291  11.851  16.715  0.6250  0.3793 -0.9729
  261ETHOX  H2145135  14.365  11.785  16.665  1.0458 -0.0115  0.1201
  261ETHOX  H2345136  14.203  11.871  16.651  0.5237 -0.4784 -1.1210
  262ETHOX   O145137  14.255  11.806  16.847 -0.3383 -0.1708 -0.5875
  262ETHOX   C145138  14.194  11.679  16.854  0.2760 -0.4043 -0.0926
  262ETHOX  H1145139  14.184  11.659  16.963  0.0905 -0.5500 -0.1352
  262ETHOX  H1345140  14.267  11.601  16.822 -0.3136 -1.1338  0.3030
  262ETHOX   C245141  14.048  11.657  16.793  0.2050  0.4356 -0.5061
  262ETHOX  H2145142  13.985  11.732  16.845  1.9417  1.4193  0.2706
  262ETHOX  H2345143  14.016  11.551  16.809  1.5121  0.1641  0.4644
  263ETHOX   O145144  14.032  11.681  16.656  0.2213 -0.1829  0.2076
  263ETHOX   C145145  14.071  11.577  16.576  0.8377  0.2201  0.3059
  263ETHOX  H1145146  14.029  11.483  16.618  1.9930  1.1564  3.9166
  263ETHOX  H1345147  14.182  11.568  16.579  0.9822  0.1303 -2.5099
  263ETHOX   C245148  14.043  11.612  16.427  0.6010 -0.2557  0.6789
  263ETHOX  H2145149  14.106  11.538  16.372 -2.2568 -1.8293 -0.7118
  263ETHOX  H2345150  14.070  11.716  16.401 -0.9628 -0.1906 -0.8954
  264ETHOX   O145151  13.899  11.599  16.399 -0.0044 -0.2396  0.1312
  264ETHOX   C145152  13.886  11.636  16.262  0.0720  0.1541 -1.0123
  264ETHOX  H1145153  13.969  11.586  16.209 -0.1544 -0.0245 -1.2010
  264ETHOX  H1345154  13.893  11.747  16.257 -0.9987  0.2547 -0.6044
  264ETHOX   C245155  13.755  11.582  16.207  0.1132  0.4172 -0.3338
  264ETHOX  H2145156  13.741  11.612  16.101  0.4323  0.3804 -0.3870
  264ETHOX  H2345157  13.674  11.638  16.260  0.0123 -0.8411  0.8979
  265ETHOX   O145158  13.721  11.445  16.232 -0.2100  0.4043  0.8330
  265ETHOX   C145159  13.782  11.358  16.137  0.2669 -0.8176 -0.3373
  265ETHOX  H1145160  13.726  11.385  16.045 -1.9603 -3.4311  0.1206
  265ETHOX  H1345161  13.888  11.391  16.133  0.3804 -1.0659  0.4333
  265ETHOX   C245162  13.769  11.213  16.158 -0.2419 -0.5097 -0.5321
  265ETHOX  H2145163  13.808  11.155  16.071  0.0359  0.6896 -1.2401
  265ETHOX  H2345164  13.661  11.196  16.177 -0.4608  0.6863 -0.6308
  265ETHOX   OZ45165  13.845  11.180  16.281  0.3051  0.3315  0.5676
  265ETHOX  HZ145166  13.936  11.181  16.249  0.5846  0.9013  1.3456
    1ETHOX   O145167   4.111  10.623  12.600 -0.1472  0.1039 -0.8637
    1ETHOX  HO145168   4.045  10.660  12.540 -1.0509  2.1055  1.1942
    1ETHOX   C145169   4.231  10.695  12.575  0.8224  0.3081 -0.2871
    1ETHOX  H1145170   4.208  10.766  12.493 -0.0557  0.0708 -0.2669
    1ETHOX  H1345171   4.306  10.618  12.550  1.2427  0.2429  1.0680
    1ETHOX   C245172   4.271  10.765  12.703 -0.1602 -0.6495  0.0496
    1ETHOX  H2145173   4.186  10.825  12.743 -0.0888 -0.6946  0.2690
    1ETHOX  H2345174   4.342  10.845  12.676 -1.8637  0.2384 -2.1862
    2ETHOX   O145175   4.340  10.676  12.793 -0.1798  0.6278  0.4842
    2ETHOX   C145176   4.342  10.725  12.929 -1.0808 -0.5499  0.0657
    2ETHOX  H1145177   4.300  10.827  12.928  0.7728  0.2815  1.2325
    2ETHOX  H1345178   4.262  10.669  12.983  0.7928 -0.2550  3.4062
    2ETHOX   C245179   4.470  10.714  13.003  0.0581  0.1171 -0.3974
    2ETHOX  H2145180   4.437  10.742  13.105 -1.4531 -0.3014 -0.7433
    2ETHOX  H2345181   4.547  10.789  12.974  0.3165  0.2810  0.6511
    3ETHOX   O145182   4.514  10.577  13.006  0.3536 -0.2518  0.9779
    3ETHOX   C145183   4.630  10.557  13.084  0.3838  0.1605  0.5393
    3ETHOX  H1145184   4.605  10.546  13.192 -0.0024 -1.1262  0.3372
    3ETHOX  H1345185   4.703  10.637  13.061 -0.2553  1.1113  1.6973
    3ETHOX   C245186   4.689  10.418  13.043 -0.3003 -0.1548 -0.0911
    3ETHOX  H2145187   4.638  10.374  12.955  2.0707 -2.5192 -0.3812
    3ETHOX  H2345188   4.665  10.353  13.130 -2.9227  0.0616 -0.5666
    4ETHOX   O145189   4.828  10.432  13.016  0.0088  0.0067 -1.0250
    4ETHOX   C145190   4.900  10.309  13.033 -0.2771 -0.4432  0.7123
    4ETHOX  H1145191   4.853  10.255  13.118  1.2128 -1.2639  1.0646
    4ETHOX  H1345192   4.881  10.252  12.940  0.9266  1.7890 -0.9858
    4ETHOX   C245193   5.049  10.332  13.045  0.2441  0.7921  0.7926
    4ETHOX  H2145194   5.100  10.233  13.045  0.3277  0.7715 -1.5969
    4ETHOX  H2345195   5.063  10.399  13.132 -0.9273 -0.3320  1.8868
    5ETHOX   O145196   5.091  10.403  12.931 -0.4942  0.3974  0.2840
    5ETHOX   C145197   5.227  10.445  12.938  0.5332 -0.3447  0.2085
    5ETHOX  H1145198   5.235  10.515  13.024  0.7872  0.6564 -0.6089
    5ETHOX  H1345199   5.290  10.354  12.949  0.4415 -0.3114  1.1757
    5ETHOX   C245200   5.262  10.539  12.809  0.6818  0.2208 -0.3001
    5ETHOX  H2145201   5.365  10.580  12.818  0.6368  0.0580  1.1576
    5ETHOX  H2345202   5.191  10.624  12.805 -1.3399 -1.3505  0.4373
    6ETHOX   O145203   5.264  10.471  12.686 -0.1300  0.5567 -0.4926
    6ETHOX   C145204   5.278  10.564  12.585 -0.1967  0.0919  0.2892
    6ETHOX  H1145205   5.183  10.621  12.584 -1.3233 -1.6934  0.3315
    6ETHOX  H1345206   5.373  10.619  12.603  0.5309 -1.6003  1.9315
    6ETHOX   C245207   5.271  10.493  12.445  0.4238 -0.3773 -0.2918
    6ETHOX  H2145208   5.335  10.403  12.461  1.4417  0.8062  3.2492
    6ETHOX  H2345209   5.314  10.559  12.367  1.0634 -0.2090  0.1944
    7ETHOX   O145210   5.141  10.462  12.395 -0.0206  0.1331 -0.0270
    7ETHOX   C145211   5.158  10.379  12.275  0.5637  0.3692  0.1288
    7ETHOX  H1145212   5.207  10.451  12.205 -0.0639 -0.2978 -1.0318
    7ETHOX  H1345213   5.231  10.295  12.281  1.5878  1.2493  0.2293
    7ETHOX   C245214   5.024  10.326  12.220  0.1720  0.6044  0.5261
    7ETHOX  H2145215   4.982  10.264  12.302 -0.1869 -0.4992 -0.4736
    7ETHOX  H2345216   5.053  10.252  12.143  1.3597 -1.1791  2.5856
    8ETHOX   O145217   4.925  10.422  12.175 -0.4736 -0.0902 -0.4915
    8ETHOX   C145218   4.821  10.357  12.103 -0.4238 -0.3900  0.1869
    8ETHOX  H1145219   4.781  10.271  12.160  1.6184 -1.2165  0.4680
    8ETHOX  H1345220   4.857  10.324  12.003 -0.0276  1.4408 -0.3180
    8ETHOX   C245221   4.694  10.445  12.085  0.8929 -0.6819 -0.3014
    8ETHOX  H2145222   4.620  10.392  12.021  1.1322 -1.2832 -0.0835
    8ETHOX  H2345223   4.728  10.528  12.020 -0.2646 -0.2067 -0.3178
    9ETHOX   O145224   4.639  10.492  12.206 -0.0447  0.1462  0.0704
    9ETHOX   C145225   4.542  10.598  12.181 -0.5881  0.0113 -1.0902
    9ETHOX  H1145226   4.564  10.651  12.086 -0.6118  0.9889 -0.5587
    9ETHOX  H1345227   4.441  10.561  12.152 -0.9719  1.7732 -2.1030
    9ETHOX   C245228   4.545  10.696  12.301  0.5344  0.0067 -0.2554
    9ETHOX  H2145229   4.529  10.643  12.397  0.1278 -0.8894 -0.8091
    9ETHOX  H2345230   4.462  10.768  12.288  0.1232 -0.1656  1.1890
   10ETHOX   O145231   4.655  10.777  12.329 -0.3949 -0.7648  0.8205
   10ETHOX   C145232   4.682  10.872  12.224  0.6838 -0.5426 -0.8209
   10ETHOX  H1145233   4.595  10.941  12.218  0.1952 -0.5840  3.1299
   10ETHOX  H1345234   4.697  10.810  12.133  0.3649 -1.6047 -0.1655
   10ETHOX   C245235   4.812  10.953  12.250  0.0093  0.3540  0.4229
   10ETHOX  H2145236   4.895  10.878  12.251  1.1190  1.5209  1.9228
   10ETHOX  H2345237   4.805  11.014  12.343 -1.3231  0.9641 -0.0542
   11ETHOX   O145238   4.830  11.047  12.144  0.0206  0.7913  0.0053
   11ETHOX   C145239   4.945  11.118  12.169 -0.5590 -0.1799  0.1541
   11ETHOX  H1145240   5.025  11.051  12.207 -0.8996  0.0207  1.2642
   11ETHOX  H1345241   4.978  11.163  12.074  2.6355 -1.7063  0.4299
   11ETHOX   C245242   4.927  11.236  12.274 -0.2194  0.3261 -0.9670
   11ETHOX  H2145243   5.002  11.316  12.255 -0.6303  0.4359 -2.2627
   11ETHOX  H2345244   4.827  11.278  12.250  0.2267  0.9166 -1.8713
   12ETHOX   O145245   4.921  11.205  12.413 -0.2352  0.2844  0.0473
   12ETHOX   C145246   5.037  11.256  12.477 -0.2943  0.2854 -0.6569
   12ETHOX  H1145247   5.035  11.367  12.473 -1.3162  0.2595 -1.2931
   12ETHOX  H1345248   5.128  11.235  12.418  0.3303  0.4278  0.2262
   12ETHOX   C245249   5.044  11.198  12.619 -0.2683  1.0686  0.6082
   12ETHOX  H2145250   4.947  11.156  12.651 -0.0344 -0.4713 -0.5888
   12ETHOX  H2345251   5.051  11.284  12.690  0.6776  0.8161  0.8367
   13ETHOX   O145252   5.134  11.094  12.648 -0.4909 -0.5095  0.3257
   13ETHOX   C145253   5.251  11.142  12.715 -0.0540  0.3200  0.2638
   13ETHOX  H1145254   5.314  11.187  12.635  0.4654  0.9845  1.0266
   13ETHOX  H1345255   5.235  11.222  12.790  1.0918  0.1199  0.7514
   13ETHOX   C245256   5.334  11.027  12.785 -0.2437 -0.8922  0.0500
   13ETHOX  H2145257   5.278  10.975  12.866 -0.5953  0.8437  0.9655
   13ETHOX  H2345258   5.418  11.083  12.831 -2.5277  1.9421  1.0119
   14ETHOX   O145259   5.377  10.919  12.698 -0.3478 -0.8152  0.8668
   14ETHOX   C145260   5.498  10.851  12.752  0.4407 -0.1171  0.7425
   14ETHOX  H1145261   5.484  10.743  12.727  1.4151 -0.3436  1.1270
   14ETHOX  H1345262   5.509  10.864  12.861 -1.3972 -0.0298  0.9359
   14ETHOX   C245263   5.619  10.905  12.683 -1.2459 -0.3100 -1.0048
   14ETHOX  H2145264   5.704  10.849  12.729 -1.2714 -0.8362 -1.5902
   14ETHOX  H2345265   5.619  11.016  12.692  0.3115 -0.3975  0.7330
   15ETHOX   O145266   5.623  10.877  12.547  0.0817  0.3945  0.1988
   15ETHOX   C145267   5.749  10.928  12.495  0.7926 -0.5340 -1.2348
   15ETHOX  H1145268   5.739  11.038  12.492 -0.3468 -0.5484  0.5675
   15ETHOX  H1345269   5.833  10.916  12.567 -0.8327 -0.5080  0.7650
   15ETHOX   C245270   5.793  10.866  12.367  0.2650 -0.4234  0.3506
   15ETHOX  H2145271   5.701  10.855  12.305 -0.4361  0.5453  1.1839
   15ETHOX  H2345272   5.867  10.933  12.318 -0.1378  1.4853  2.2078
   16ETHOX   O145273   5.861  10.741  12.390  0.1001  0.4335  0.0061
   16ETHOX   C145274   5.909  10.682  12.265 -0.1797  0.0612  0.3310
   16ETHOX  H1145275   5.876  10.736  12.174 -0.2574  1.3533  1.0861
   16ETHOX  H1345276   6.019  10.679  12.275 -0.2685 -3.0082  1.2821
   16ETHOX   C245277   5.868  10.533  12.273  0.2058 -0.3548 -0.1331
   16ETHOX  H2145278   5.882  10.491  12.375 -1.2127 -2.8646 -0.9031
   16ETHOX  H2345279   5.939  10.469  12.216  0.5386 -0.8575  0.8236
   17ETHOX   O145280   5.734  10.493  12.235 -0.4037 -0.0532  1.2412
   17ETHOX   C145281   5.716  10.501  12.095  0.0205 -0.2146  0.0322
   17ETHOX  H1145282   5.738  10.608  12.075  1.3330  0.0410  2.4293
   17ETHOX  H1345283   5.798  10.439  12.051 -0.7762 -0.3522 -1.3177
   17ETHOX   C245284   5.587  10.445  12.055 -0.3319 -0.3223 -0.1477
   17ETHOX  H2145285   5.597  10.339  12.089  1.5013 -1.5523 -3.9930
   17ETHOX  H2345286   5.573  10.440  11.945 -0.6213 -3.0089 -0.0598
   18ETHOX   O145287   5.471  10.506  12.117 -0.2301  0.3021  0.2093
   18ETHOX   C145288   5.453  10.644  12.078  0.5827  0.3115  0.2381
   18ETHOX  H1145289   5.519  10.715  12.132  0.4830  1.3184 -0.9103
   18ETHOX  H1345290   5.484  10.650  11.971  1.9762 -0.8599  0.5485
   18ETHOX   C245291   5.305  10.692  12.080 -0.2939  0.6403 -0.3034
   18ETHOX  H2145292   5.322  10.802  12.069  2.6818  0.0610 -2.6220
   18ETHOX  H2345293   5.255  10.658  12.173  1.7541 -1.0436  0.2309
   19ETHOX   O145294   5.213  10.649  11.984  0.0020 -0.2134 -0.2212
   19ETHOX   C145295   5.085  10.701  12.007  1.0834 -0.5464 -0.2148
   19ETHOX  H1145296   5.082  10.810  11.984 -1.7653 -0.2612  0.9710
   19ETHOX  H1345297   5.051  10.675  12.110 -1.3000  0.2172 -0.7328
   19ETHOX   C245298   4.991  10.638  11.902  0.6727  0.8074 -0.1581
   19ETHOX  H2145299   4.965  10.538  11.942  0.8395  0.9749  0.3826
   19ETHOX  H2345300   5.043  10.625  11.805 -1.0843  0.2096 -1.0575
   20ETHOX   O145301   4.867  10.702  11.891 -0.1248 -0.2427  0.5539
   20ETHOX   C145302   4.784  10.658  11.787 -0.3451 -0.4974  0.1792
   20ETHOX  H1145303   4.795  10.547  11.780 -0.2015 -0.6283  1.9473
   20ETHOX  H1345304   4.681  10.666  11.827  0.0995 -1.9793  1.7543
   20ETHOX   C245305   4.809  10.725  11.654 -0.2321 -0.0995  0.5578
   20ETHOX  H2145306   4.803  10.836  11.660  0.8222 -0.0175  0.2214
   20ETHOX  H2345307   4.732  10.691  11.581  0.5961  1.3971 -1.1011
   21ETHOX   O145308   4.935  10.698  11.587  0.7233 -0.3860  0.1947
   21ETHOX   C145309   4.939  10.745  11.446  0.3718  0.1591  0.2977
   21ETHOX  H1145310   4.923  10.854  11.438  1.1527  0.2060 -1.0749
   21ETHOX  H1345311   4.865  10.684  11.389  0.6077 -1.4848  1.6728
   21ETHOX   C245312   5.077  10.718  11.391  0.0291  0.2389 -0.5951
   21ETHOX  H2145313   5.143  10.712  11.480 -1.0992 -0.1949  0.2258
   21ETHOX  H2345314   5.111  10.802  11.327  0.2345  0.8011  0.2363
   22ETHOX   O145315   5.098  10.595  11.317  0.0878 -0.3301  0.2308
   22ETHOX   C145316   5.231  10.582  11.272 -0.0002  0.3600 -0.6057
   22ETHOX  H1145317   5.267  10.674  11.221  0.7282  1.1793  1.2904
   22ETHOX  H1345318   5.296  10.569  11.361  0.8623  0.4972 -1.1932
   22ETHOX   C245319   5.251  10.466  11.167 -0.0502  0.3962  0.2745
   22ETHOX  H2145320   5.200  10.487  11.071  1.6255  0.3013 -0.6667
   22ETHOX  H2345321   5.359  10.466  11.140 -0.6121 -0.9799 -2.2853
   23ETHOX   O145322   5.224  10.336  11.224 -0.0174 -0.3445  0.2588
   23ETHOX   C145323   5.174  10.249  11.122 -0.1837 -0.4312  0.1663
   23ETHOX  H1145324   5.247  10.235  11.039  1.1292 -1.0428  1.3998
   23ETHOX  H1345325   5.087  10.294  11.068  0.6310 -0.1359 -0.9470
   23ETHOX   C245326   5.123  10.116  11.175  0.2433 -0.5559  0.0349
   23ETHOX  H2145327   5.092  10.052  11.089 -1.0893  1.2336 -0.8735
   23ETHOX  H2345328   5.039  10.122  11.247 -1.2362  0.0815 -1.6515
   24ETHOX   O145329   5.226  10.050  11.237  0.3116 -0.2665  0.6108
   24ETHOX   C145330   5.189   9.921  11.276 -0.0105 -0.1761  0.2470
   24ETHOX  H1145331   5.090   9.923  11.327 -0.1461 -1.2459  0.0567
   24ETHOX  H1345332   5.180   9.849  11.192 -2.0513  1.8565 -1.3723
   24ETHOX   C245333   5.271   9.866  11.386  0.2082  0.4844  0.7210
   24ETHOX  H2145334   5.376   9.852  11.352 -0.3541 -0.9284 -0.5405
   24ETHOX  H2345335   5.220   9.768  11.401 -2.3554  1.4567 -0.9078
   25ETHOX   O145336   5.272   9.941  11.501 -0.1803 -0.5641 -0.3125
   25ETHOX   C145337   5.368   9.883  11.595  0.1146  0.1289 -0.4719
   25ETHOX  H1145338   5.462   9.851  11.544  0.8978  2.0345 -0.3267
   25ETHOX  H1345339   5.306   9.807  11.647  1.8023 -0.2742  1.0384
   25ETHOX   C245340   5.407   9.986  11.706 -0.2079  0.2238  0.2064
   25ETHOX  H2145341   5.468   9.935  11.784 -1.4530 -0.2569  0.8855
   25ETHOX  H2345342   5.316  10.028  11.752  0.2107  1.2556  0.1220
   26ETHOX   O145343   5.484  10.091  11.643  0.1176  0.2823  0.5501
   26ETHOX   C145344   5.518  10.196  11.729  0.1385  0.6933 -0.3309
   26ETHOX  H1145345   5.427  10.229  11.783  1.7512 -1.1569  3.9470
   26ETHOX  H1345346   5.590  10.164  11.807  0.8726  3.2263  0.1179
   26ETHOX   C245347   5.598  10.304  11.660  0.1422 -0.2188  0.2587
   26ETHOX  H2145348   5.627  10.373  11.742  2.1888 -0.2453 -0.4068
   26ETHOX  H2345349   5.535  10.346  11.579 -0.6578 -2.1177 -0.1684
   27ETHOX   O145350   5.711  10.250  11.601 -0.2348  0.8805  0.1443
   27ETHOX   C145351   5.777  10.345  11.527 -0.5720 -0.1632  0.0495
   27ETHOX  H1145352   5.702  10.417  11.489 -0.7222  1.2171  2.7027
   27ETHOX  H1345353   5.833  10.286  11.452 -1.6525 -0.6474 -0.3987
   27ETHOX   C245354   5.869  10.429  11.619 -0.9064  0.2231 -0.0618
   27ETHOX  H2145355   5.825  10.450  11.719 -0.2940  2.0267 -0.1317
   27ETHOX  H2345356   5.875  10.522  11.559 -0.8334  0.9298  1.0120
   28ETHOX   O145357   6.008  10.379  11.631 -0.1338 -0.1722  0.3670
   28ETHOX   C145358   6.108  10.470  11.676  0.4721 -0.0170  0.1624
   28ETHOX  H1145359   6.152  10.517  11.585  0.4018  0.5368  0.4134
   28ETHOX  H1345360   6.082  10.556  11.740  3.9079  1.4554 -0.2145
   28ETHOX   C245361   6.218  10.401  11.751 -0.1220 -0.3744  0.0149
   28ETHOX  H2145362   6.172  10.333  11.826 -0.6277 -0.2116 -0.1398
   28ETHOX  H2345363   6.284  10.477  11.799  1.4927 -1.1520 -0.8889
   29ETHOX   O145364   6.308  10.334  11.668  0.3530  0.3824 -0.5738
   29ETHOX   C145365   6.408  10.262  11.746  0.1287  0.1680 -0.6244
   29ETHOX  H1145366   6.361  10.185  11.810  1.2061 -0.3318 -0.4008
   29ETHOX  H1345367   6.454  10.334  11.817  0.6162  0.5201 -1.2822
   29ETHOX   C245368   6.508  10.187  11.647 -0.6661 -0.6348  0.4784
   29ETHOX  H2145369   6.454  10.119  11.579  1.0464  0.6215 -2.2915
   29ETHOX  H2345370   6.574  10.120  11.707 -0.4295 -1.3021 -0.5053
   30ETHOX   O145371   6.581  10.287  11.575  0.3089 -0.1363  0.2144
   30ETHOX   C145372   6.688  10.229  11.504 -0.2039 -0.1845 -0.4419
   30ETHOX  H1145373   6.744  10.313  11.458  2.3532 -0.9468  1.0809
   30ETHOX  H1345374   6.770  10.192  11.569  2.1342  5.0672  0.1211
   30ETHOX   C245375   6.652  10.141  11.391 -0.1866 -0.3476 -0.0998
   30ETHOX  H2145376   6.595  10.053  11.428  2.1835 -1.3836  1.3177
   30ETHOX  H2345377   6.748  10.110  11.345  0.5646  1.2030  0.3329
   31ETHOX   O145378   6.581  10.216  11.293  0.1508  0.2129  0.1217
   31ETHOX   C145379   6.585  10.158  11.160 -0.4398 -1.0711 -0.5494
   31ETHOX  H1145380   6.693  10.147  11.132 -0.4785 -2.5380 -0.2088
   31ETHOX  H1345381   6.543  10.056  11.170  0.2125 -1.4777 -1.6939
   31ETHOX   C245382   6.514  10.237  11.046  0.4595  0.5793 -0.6621
   31ETHOX  H2145383   6.410  10.255  11.079  0.7127  1.1999 -0.1889
   31ETHOX  H2345384   6.510  10.162  10.964 -0.6098 -1.3442  1.0492
   32ETHOX   O145385   6.593  10.351  11.010  0.3752 -0.6976  0.1742
   32ETHOX   C145386   6.580  10.456  11.105  0.2606  0.5387  0.4534
   32ETHOX  H1145387   6.473  10.486  11.107 -0.3849 -1.5549 -0.0309
   32ETHOX  H1345388   6.579  10.416  11.209  0.7684 -1.2224 -0.1724
   32ETHOX   C245389   6.668  10.575  11.086  0.2089 -0.0944  0.4368
   32ETHOX  H2145390   6.651  10.638  11.175  0.1532  0.7092 -0.1334
   32ETHOX  H2345391   6.648  10.629  10.991  2.1987 -1.8787 -1.1451
   33ETHOX   O145392   6.808  10.542  11.067  0.3128 -0.0866  0.7963
   33ETHOX   C145393   6.855  10.465  11.179 -0.0165  0.7171  0.2454
   33ETHOX  H1145394   6.816  10.505  11.275 -4.7724 -1.6221 -0.3843
   33ETHOX  H1345395   6.818  10.360  11.179 -1.0503  1.0347 -1.5636
   33ETHOX   C245396   7.012  10.462  11.180  0.8257  1.1041  0.3275
   33ETHOX  H2145397   7.042  10.425  11.080 -0.3800 -3.6357  1.4672
   33ETHOX  H2345398   7.048  10.381  11.247 -2.1543 -2.2913 -1.8387
   34ETHOX   O145399   7.060  10.590  11.216  0.5643 -0.4294 -0.0593
   34ETHOX   C145400   7.198  10.593  11.238 -0.2378  0.1159 -0.6117
   34ETHOX  H1145401   7.247  10.503  11.195  0.6502  0.7666 -0.9740
   34ETHOX  H1345402   7.216  10.591  11.347  1.1584 -0.6049 -0.8307
   34ETHOX   C245403   7.260  10.714  11.174  0.0177 -0.2224  0.4554
   34ETHOX  H2145404   7.336  10.745  11.248  0.9935 -1.0125 -0.1867
   34ETHOX  H2345405   7.197  10.803  11.153  2.2087  1.0493 -1.0628
   35ETHOX   O145406   7.326  10.683  11.050  0.0675  1.2075  0.2034
   35ETHOX   C145407   7.407  10.787  10.993  0.0491  0.3299 -0.2105
   35ETHOX  H1145408   7.365  10.890  11.006 -0.8164 -0.0578  0.1549
   35ETHOX  H1345409   7.497  10.787  11.059 -0.3641 -0.5849  0.3816
   35ETHOX   C245410   7.442  10.755  10.843 -0.5932  0.0246  0.1324
   35ETHOX  H2145411   7.462  10.646  10.830  0.3549 -0.0586  2.0829
   35ETHOX  H2345412   7.529  10.819  10.816  0.2018 -0.2087  1.9882
   36ETHOX   O145413   7.327  10.790  10.770  0.4154 -0.2480 -0.1515
   36ETHOX   C145414   7.334  10.747  10.636  0.1084  0.0539  0.9271
   36ETHOX  H1145415   7.325  10.637  10.647  2.0759 -0.1344  1.1832
   36ETHOX  H1345416   7.429  10.782  10.590 -0.4946  0.6229  0.0828
   36ETHOX   C245417   7.219  10.799  10.549 -0.5346 -0.0001 -0.6278
   36ETHOX  H2145418   7.123  10.795  10.605 -0.8932 -1.8852 -1.3082
   36ETHOX  H2345419   7.192  10.724  10.471 -3.8503 -1.6927  1.8677
   37ETHOX   O145420   7.242  10.928  10.501 -0.2674 -0.4724  0.5565
   37ETHOX   C145421   7.131  10.973  10.424 -0.6775 -0.2476  0.7323
   37ETHOX  H1145422   7.140  10.921  10.326  0.7283  1.6425 -0.1977
   37ETHOX  H1345423   7.036  10.941  10.471  0.6394 -1.4747  2.7219
   37ETHOX   C245424   7.147  11.124  10.401 -0.3888 -0.1836 -0.3629
   37ETHOX  H2145425   7.074  11.165  10.328 -3.0861  0.4807  2.5387
   37ETHOX  H2345426   7.248  11.149  10.363 -0.1361  0.4329  0.6851
   38ETHOX   O145427   7.130  11.201  10.525 -0.2101 -0.6136  0.1440
   38ETHOX   C145428   7.066  11.328  10.495 -0.3052 -0.0819  0.0639
   38ETHOX  H1145429   6.954  11.324  10.497 -0.4243  2.2365  1.5115
   38ETHOX  H1345430   7.101  11.376  10.402 -1.2665 -1.3364 -0.9940
   38ETHOX   C245431   7.108  11.421  10.609  0.4164 -0.4940  0.1701
   38ETHOX  H2145432   7.088  11.528  10.586  0.9429 -0.1010  1.4153
   38ETHOX  H2345433   7.216  11.417  10.632  0.2011 -1.0597  1.1344
   39ETHOX   O145434   7.034  11.390  10.722 -0.2359  0.1268 -0.1033
   39ETHOX   C145435   7.085  11.437  10.844  0.1379  0.3033 -0.7757
   39ETHOX  H1145436   7.155  11.358  10.878  2.8473  2.9240  0.1224
   39ETHOX  H1345437   7.148  11.527  10.830  1.6161 -0.6168 -0.2374
   39ETHOX   C245438   6.966  11.459  10.947 -0.4018  0.1614 -0.1051
   39ETHOX  H2145439   6.887  11.528  10.911 -1.2914  0.1906  1.7765
   39ETHOX  H2345440   7.006  11.505  11.040 -0.4348 -0.1518  0.0660
   40ETHOX   O145441   6.911  11.329  10.983 -0.1575  0.1839  0.1217
   40ETHOX   C145442   6.795  11.335  11.069  0.1734  0.7016 -0.3323
   40ETHOX  H1145443   6.738  11.240  11.070 -0.7235  1.2331 -0.3406
   40ETHOX  H1345444   6.731  11.422  11.043  0.1718  0.8764  0.2496
   40ETHOX   C245445   6.847  11.337  11.216  0.2883  0.7441 -0.5619
   40ETHOX  H2145446   6.870  11.440  11.251 -1.7727  1.5154 -1.3068
   40ETHOX  H2345447   6.939  11.277  11.229 -1.5835 -2.3036 -0.4075
   41ETHOX   O145448   6.759  11.287  11.314 -0.6614  0.1546  1.1074
   41ETHOX   C145449   6.724  11.361  11.431 -0.3529 -0.1387  0.1882
   41ETHOX  H1145450   6.684  11.463  11.412  0.8119  0.2794 -0.1080
   41ETHOX  H1345451   6.645  11.295  11.472 -2.1222  0.3611 -2.2188
   41ETHOX   C245452   6.841  11.367  11.545  0.1011  0.0911  0.4311
   41ETHOX  H2145453   6.859  11.260  11.570 -2.5588 -0.9946 -1.7577
   41ETHOX  H2345454   6.796  11.428  11.626  1.3669  2.5158 -0.5844
   42ETHOX   O145455   6.964  11.435  11.496  0.5446  0.5607 -0.1168
   42ETHOX   C145456   7.070  11.452  11.588  0.8002 -0.0799 -0.2931
   42ETHOX  H1145457   7.041  11.530  11.662 -0.9654  1.0741 -2.0997
   42ETHOX  H1345458   7.074  11.355  11.643  0.8998 -0.0346 -0.2199
   42ETHOX   C245459   7.199  11.495  11.522  1.0994 -0.1020 -0.2245
   42ETHOX  H2145460   7.224  11.421  11.444 -3.0690 -1.0278 -0.9072
   42ETHOX  H2345461   7.275  11.506  11.603  0.5865  3.7008 -0.0522
   43ETHOX   O145462   7.193  11.622  11.456  0.1815 -0.0881  0.3227
   43ETHOX   C145463   7.114  11.610  11.342 -0.1307 -0.6064  0.3608
   43ETHOX  H1145464   7.117  11.512  11.289  2.6294  0.2873 -1.3732
   43ETHOX  H1345465   7.010  11.634  11.371  0.0234  0.1652  0.2790
   43ETHOX   C245466   7.149  11.727  11.246 -0.9338  0.0083  0.6918
   43ETHOX  H2145467   7.188  11.821  11.290 -1.6586  0.6734 -0.0547
   43ETHOX  H2345468   7.061  11.749  11.182  1.6149  1.6046 -2.5881
   44ETHOX   O145469   7.250  11.676  11.158 -0.0863  0.1153 -0.0731
   44ETHOX   C145470   7.289  11.767  11.054  1.1183  0.6199  0.7558
   44ETHOX  H1145471   7.204  11.779  10.983  1.6116  1.1743  0.2475
   44ETHOX  H1345472   7.316  11.864  11.103  0.0903  2.1132 -1.4560
   44ETHOX   C245473   7.408  11.717  10.969  0.4771 -0.7733 -0.1042
   44ETHOX  H2145474   7.488  11.689  11.040  1.4095  0.6173 -0.5661
   44ETHOX  H2345475   7.465  11.801  10.924 -0.3393 -0.0500  0.1766
   45ETHOX   O145476   7.394  11.613  10.873  0.2712 -0.6458 -0.1615
   45ETHOX   C145477   7.525  11.558  10.852 -0.3500  0.2659  0.1141
   45ETHOX  H1145478   7.551  11.487  10.934  0.6772 -0.7762 -1.0890
   45ETHOX  H1345479   7.606  11.632  10.840  0.6811 -0.7291  0.7438
   45ETHOX   C245480   7.522  11.463  10.732  0.1037 -0.2265  0.0602
   45ETHOX  H2145481   7.448  11.383  10.751 -0.8871  0.9553  1.3367
   45ETHOX  H2345482   7.616  11.403  10.724  1.0048  1.3580 -2.3574
   46ETHOX   O145483   7.495  11.538  10.616  0.3703 -0.0518  0.8418
   46ETHOX   C145484   7.484  11.461  10.489 -0.0150  0.6723 -0.1676
   46ETHOX  H1145485   7.570  11.390  10.483 -2.5652 -2.6088 -1.0690
   46ETHOX  H1345486   7.402  11.386  10.495  0.2548  0.2564 -1.3899
   46ETHOX   C245487   7.466  11.536  10.361  0.6319 -0.1512 -0.9089
   46ETHOX  H2145488   7.363  11.579  10.362  0.4692 -0.5399  0.6881
   46ETHOX  H2345489   7.470  11.463  10.277  1.0032 -1.6922  0.4010
   47ETHOX   O145490   7.565  11.643  10.352  0.2642 -0.1386 -0.4775
   47ETHOX   C145491   7.692  11.590  10.326  0.2462 -0.0715 -0.0671
   47ETHOX  H1145492   7.701  11.516  10.245  1.1627 -1.2623  1.0695
   47ETHOX  H1345493   7.723  11.540  10.421 -0.8308 -2.0499 -0.7068
   47ETHOX   C245494   7.795  11.701  10.295 -0.1584  0.1317  0.5051
   47ETHOX  H2145495   7.903  11.676  10.301 -0.4703 -0.9436  2.1895
   47ETHOX  H2345496   7.784  11.774  10.379  0.4284  1.0090 -0.1694
   48ETHOX   O145497   7.777  11.763  10.168  0.3424 -0.4890  0.0298
   48ETHOX   C145498   7.849  11.880  10.141  0.6369 -0.5076 -0.5569
   48ETHOX  H1145499   7.847  11.950  10.226  2.9405 -1.7289  0.5946
   48ETHOX  H1345500   7.955  11.853  10.122  0.8732  0.9599 -1.4865
   48ETHOX   C245501   7.803  11.944  10.009  0.0350 -0.3061  0.2451
   48ETHOX  H2145502   7.693  11.941  10.019 -0.1723  1.9196 -0.9123
   48ETHOX  H2345503   7.843  12.047  10.006 -0.3404 -0.0291  2.9230
   49ETHOX   O145504   7.826  11.872   9.891  0.1539  0.1617 -0.4754
   49ETHOX   C145505   7.791  11.952   9.779  0.1829  0.3807  0.0364
   49ETHOX  H1145506   7.892  11.968   9.736  1.8627  0.1818  3.5058
   49ETHOX  H1345507   7.746  12.048   9.814 -0.4757  0.4857 -1.0531
   49ETHOX   C245508   7.694  11.876   9.678  0.1093 -0.1393 -0.5333
   49ETHOX  H2145509   7.659  11.958   9.611  0.7010  1.1439  0.6782
   49ETHOX  H2345510   7.601  11.850   9.733  0.3464  1.1876  0.5583
   50ETHOX   O145511   7.752  11.769   9.608  0.3920 -0.4320 -0.3217
   50ETHOX   C145512   7.653  11.701   9.528  0.8761 -0.2556  1.1488
   50ETHOX  H1145513   7.578  11.653   9.594  0.1005  0.9930  1.2002
   50ETHOX  H1345514   7.589  11.768   9.467 -1.4021 -0.7591  2.8701
   50ETHOX   C245515   7.706  11.594   9.425  0.1399  0.1043 -0.3344
   50ETHOX  H2145516   7.763  11.651   9.349  0.1601  0.5463  0.0024
   50ETHOX  H2345517   7.609  11.555   9.387 -0.0836  1.7476 -1.5515
   51ETHOX   O145518   7.786  11.500   9.491  0.5216  0.4917  0.9502
   51ETHOX   C145519   7.813  11.390   9.414 -0.1988  1.3379 -0.3411
   51ETHOX  H1145520   7.868  11.424   9.323 -0.2325 -0.6129 -1.1408
   51ETHOX  H1345521   7.716  11.351   9.379 -0.0710  0.2575  0.4460
   51ETHOX   C245522   7.891  11.280   9.495  0.2653  0.2690 -0.4237
   51ETHOX  H2145523   7.979  11.329   9.542 -0.3502  0.2425  0.7951
   51ETHOX  H2345524   7.930  11.204   9.425  1.3792 -0.6761  1.1642
   52ETHOX   O145525   7.816  11.219   9.598 -0.1263  0.0197  0.1938
   52ETHOX   C145526   7.891  11.126   9.672 -0.1369  0.5614 -0.2884
   52ETHOX  H1145527   7.934  11.049   9.605 -0.1711  1.6303 -1.6031
   52ETHOX  H1345528   7.980  11.179   9.710 -0.2342  1.6843 -1.5184
   52ETHOX   C245529   7.799  11.078   9.785  0.1638  0.2576 -0.3330
   52ETHOX  H2145530   7.722  11.155   9.809  0.7620  0.2414  1.8093
   52ETHOX  H2345531   7.859  11.060   9.877  0.3133  1.6442 -0.1340
   53ETHOX   O145532   7.736  10.957   9.751  0.1399  0.1853  0.9537
   53ETHOX   C145533   7.652  10.911   9.857 -0.8293  0.2447 -0.5133
   53ETHOX  H1145534   7.649  10.800   9.859  1.9952  0.0853  0.2609
   53ETHOX  H1345535   7.706  10.932   9.952 -0.0077  1.2039 -1.1672
   53ETHOX   C245536   7.513  10.977   9.879 -0.2921  0.5001  0.3224
   53ETHOX  H2145537   7.519  11.087   9.893 -0.0745  0.5184  0.0953
   53ETHOX  H2345538   7.471  10.926   9.968 -3.7874 -0.5469 -1.7527
   54ETHOX   O145539   7.437  10.945   9.763 -0.0970  0.3090  0.2264
   54ETHOX   C145540   7.298  10.965   9.785 -0.1568 -0.3422 -0.0125
   54ETHOX  H1145541   7.267  10.890   9.860 -1.6825  0.3573  0.0875
   54ETHOX  H1345542   7.275  11.069   9.819 -1.0658 -0.4983 -0.1249
   54ETHOX   C245543   7.212  10.945   9.663 -0.2182 -0.0540  0.0767
   54ETHOX  H2145544   7.264  10.990   9.576 -0.6281  0.1452 -0.0664
   54ETHOX  H2345545   7.112  10.993   9.671 -0.1186  0.2760 -0.5710
   55ETHOX   O145546   7.185  10.804   9.642  0.1553  0.2558  0.1530
   55ETHOX   C145547   7.183  10.774   9.501 -0.3400  0.1059 -0.5276
   55ETHOX  H1145548   7.275  10.817   9.454 -1.1894 -0.1722 -2.5331
   55ETHOX  H1345549   7.185  10.665   9.480 -0.8467 -0.1355  0.6128
   55ETHOX   C245550   7.059  10.833   9.430  0.0300  0.0493  0.3420
   55ETHOX  H2145551   7.068  10.943   9.440  0.4168  0.0226  0.3096
   55ETHOX  H2345552   7.064  10.812   9.321  0.3235 -0.2156  0.4040
   56ETHOX   O145553   6.932  10.787   9.474 -0.3407 -0.3869 -0.1199
   56ETHOX   C145554   6.825  10.844   9.400 -0.2308  0.4426 -0.1100
   56ETHOX  H1145555   6.739  10.773   9.404 -1.1394  1.5173 -0.1505
   56ETHOX  H1345556   6.855  10.849   9.293  1.7203 -1.4089  0.2740
   56ETHOX   C245557   6.772  10.981   9.462 -0.6249 -0.6046  0.7858
   56ETHOX  H2145558   6.700  11.020   9.388 -1.2140 -3.3305 -0.2122
   56ETHOX  H2345559   6.856  11.054   9.467 -0.8864 -0.3508  1.5431
   57ETHOX   O145560   6.720  10.969   9.587  0.2816  0.1128  0.1149
   57ETHOX   C145561   6.688  11.091   9.647  0.3409 -0.4072  0.9770
   57ETHOX  H1145562   6.781  11.151   9.656 -0.7725  1.6305 -0.4205
   57ETHOX  H1345563   6.631  11.161   9.582  1.3753  0.2366  0.7366
   57ETHOX   C245564   6.630  11.070   9.784 -0.0941 -0.3018 -0.5212
   57ETHOX  H2145565   6.624  11.170   9.831  2.0652 -0.0772 -0.6147
   57ETHOX  H2345566   6.696  11.017   9.856 -1.2187  0.7913  1.3843
   58ETHOX   O145567   6.502  11.006   9.781  0.5200 -0.0734  0.0029
   58ETHOX   C145568   6.400  11.110   9.769  0.6553  0.3512  0.4598
   58ETHOX  H1145569   6.320  11.058   9.713  2.7176 -3.2780  0.5861
   58ETHOX  H1345570   6.438  11.191   9.703  0.8633 -0.6126 -0.6305
   58ETHOX   C245571   6.354  11.167   9.898 -0.1380  0.0508 -0.2237
   58ETHOX  H2145572   6.333  11.093   9.979  1.1390 -0.0729  0.0112
   58ETHOX  H2345573   6.253  11.211   9.881 -1.6783 -3.5826 -1.6412
   59ETHOX   O145574   6.437  11.269   9.954 -0.1771  0.1385 -0.8764
   59ETHOX   C145575   6.386  11.306  10.080  0.3319 -0.1250  0.1155
   59ETHOX  H1145576   6.278  11.280  10.083  0.0335  1.0411  0.0246
   59ETHOX  H1345577   6.437  11.251  10.162  1.7879  0.0658 -0.6211
   59ETHOX   C245578   6.411  11.456  10.102  0.0673  0.9050 -0.7424
   59ETHOX  H2145579   6.520  11.474  10.115  0.0550 -0.1436  1.1676
   59ETHOX  H2345580   6.359  11.484  10.197 -0.1959 -0.5217 -0.4485
   60ETHOX   O145581   6.349  11.532  10.003  0.1629  0.1779 -0.3874
   60ETHOX   C145582   6.397  11.666  10.001 -0.9790  0.4212  0.4459
   60ETHOX  H1145583   6.323  11.705   9.928 -1.3473 -1.3555 -0.1886
   60ETHOX  H1345584   6.503  11.665   9.970 -0.5314  0.0525  1.9101
   60ETHOX   C245585   6.382  11.751  10.127  0.5822  0.5936 -0.0756
   60ETHOX  H2145586   6.280  11.727  10.164  0.6719 -2.2243 -1.3744
   60ETHOX  H2345587   6.404  11.858  10.108  2.1611  0.3058  0.0071
   61ETHOX   O145588   6.477  11.703  10.221  0.4840  0.8833  0.1655
   61ETHOX   C145589   6.459  11.777  10.343  0.3706  0.0084 -0.3910
   61ETHOX  H1145590   6.500  11.878  10.364 -0.4776 -0.0421  1.8219
   61ETHOX  H1345591   6.353  11.791  10.375  1.2283  0.5080  2.5403
   61ETHOX   C245592   6.524  11.695  10.461 -0.1831  0.0200  0.3945
   61ETHOX  H2145593   6.522  11.586  10.439  0.1091  0.4039 -1.7686
   61ETHOX  H2345594   6.475  11.715  10.558 -4.8354  0.3639 -1.7610
   62ETHOX   O145595   6.663  11.744  10.457  0.5636  0.8114 -0.2359
   62ETHOX   C145596   6.756  11.644  10.509  0.2455  0.7486  0.6960
   62ETHOX  H1145597   6.859  11.686  10.507  0.6488 -0.2224 -0.0129
   62ETHOX  H1345598   6.761  11.561  10.436  0.7381  0.7101  0.7729
   62ETHOX   C245599   6.731  11.591  10.653 -0.2595  0.1872  0.3830
   62ETHOX  H2145600   6.726  11.673  10.729 -0.2747  1.1376 -0.6201
   62ETHOX  H2345601   6.821  11.532  10.679 -0.7359 -1.3445 -1.3149
   63ETHOX   O145602   6.620  11.504  10.663  0.4825 -0.1784  0.6433
   63ETHOX   C145603   6.599  11.434  10.787 -0.3226 -0.4708  0.1570
   63ETHOX  H1145604   6.676  11.355  10.801 -0.7758 -1.1023 -0.8108
   63ETHOX  H1345605   6.597  11.513  10.865 -0.0714 -0.5893  0.2834
   63ETHOX   C245606   6.460  11.372  10.785  0.6453  0.6622  0.8826
   63ETHOX  H2145607   6.396  11.456  10.752  2.7190  1.7083 -0.7385
   63ETHOX  H2345608   6.433  11.338  10.887  0.9871 -1.1469  0.3991
   64ETHOX   O145609   6.437  11.257  10.693 -0.1985 -0.0553  0.2968
   64ETHOX   C145610   6.498  11.134  10.734 -0.2031  0.3141  0.2800
   64ETHOX  H1145611   6.505  11.140  10.844 -1.0169 -2.9044  0.5775
   64ETHOX  H1345612   6.598  11.122  10.686  0.4266  0.0272  1.6399
   64ETHOX   C245613   6.420  11.004  10.705  0.1602 -0.1342  0.5347
   64ETHOX  H2145614   6.313  11.025  10.724 -0.1573 -0.2455 -0.9935
   64ETHOX  H2345615   6.466  10.934  10.779  2.3950  0.0825 -0.5813
   65ETHOX   O145616   6.439  10.941  10.574  0.0237 -0.4074 -0.2083
   65ETHOX   C145617   6.409  11.019  10.461  0.3283  0.2889  0.2422
   65ETHOX  H1145618   6.311  11.069  10.478  0.4318  0.5004  0.2245
   65ETHOX  H1345619   6.496  11.088  10.445  0.4747  0.3023  1.0407
   65ETHOX   C245620   6.400  10.942  10.327  0.8512  0.7468  0.1864
   65ETHOX  H2145621   6.332  10.999  10.259 -2.5197 -0.1230  2.5598
   65ETHOX  H2345622   6.362  10.838  10.337  1.0958  0.6278 -0.0973
   66ETHOX   O145623   6.524  10.938  10.264 -0.0342 -0.2636 -0.1269
   66ETHOX   C145624   6.548  10.823  10.178 -0.3098  0.2495 -0.4546
   66ETHOX  H1145625   6.453  10.830  10.121  0.2407  0.9180 -1.3370
   66ETHOX  H1345626   6.563  10.729  10.234  0.3982  1.2191  1.0391
   66ETHOX   C245627   6.672  10.841  10.089  0.0673 -0.2020  0.0277
   66ETHOX  H2145628   6.655  10.948  10.062  0.2267 -0.4376 -1.0219
   66ETHOX  H2345629   6.669  10.808   9.983  1.8902  1.4316 -0.6082
   67ETHOX   O145630   6.800  10.827  10.136 -0.5050 -0.1160 -0.3478
   67ETHOX   C145631   6.824  10.687  10.173  0.4431  0.1307  0.0125
   67ETHOX  H1145632   6.787  10.670  10.276 -0.0773  2.0200  0.1689
   67ETHOX  H1345633   6.774  10.616  10.104  0.5777  2.3941 -2.5601
   67ETHOX   C245634   6.977  10.652  10.172  0.1109  0.9012 -0.1146
   67ETHOX  H2145635   7.038  10.736  10.213 -0.4992  0.2866  2.1604
   67ETHOX  H2345636   7.004  10.647  10.064 -1.8124  0.0898 -0.5991
   68ETHOX   O145637   6.994  10.527  10.239  0.2937 -0.5821  0.2675
   68ETHOX   C145638   7.124  10.472  10.236  0.0369 -0.5978  0.5127
   68ETHOX  H1145639   7.160  10.478  10.131 -1.3245  1.1905  0.1009
   68ETHOX  H1345640   7.189  10.537  10.298  1.2851 -0.6239 -0.7113
   68ETHOX   C245641   7.122  10.328  10.278  0.1352  0.3865 -0.1350
   68ETHOX  H2145642   7.058  10.307  10.366 -1.9382 -1.4972 -1.9936
   68ETHOX  H2345643   7.224  10.293  10.306  0.0235 -1.3003 -1.7099
   69ETHOX   O145644   7.089  10.250  10.165 -0.1980  0.1141  0.4764
   69ETHOX   C145645   7.077  10.114  10.196 -0.2159 -0.1814 -0.4540
   69ETHOX  H1145646   7.177  10.076  10.222 -0.3121  1.9028  3.8383
   69ETHOX  H1345647   7.016  10.111  10.289 -2.3597  2.7751 -1.5887
   69ETHOX   C245648   7.005  10.040  10.085  0.7353  0.9416  0.2078
   69ETHOX  H2145649   6.928  10.103  10.035  2.1040  0.8463 -2.2180
   69ETHOX  H2345650   6.949   9.953  10.126 -1.9364 -0.2931 -5.0976
   70ETHOX   O145651   7.087   9.983   9.984  0.2016 -0.2751 -0.1890
   70ETHOX   C145652   7.146   9.866  10.035 -0.6555  0.1096  0.0062
   70ETHOX  H1145653   7.188   9.869  10.138  3.1282  0.4262 -1.3664
   70ETHOX  H1345654   7.061   9.795  10.039  0.6002 -1.4151  0.8949
   70ETHOX   C245655   7.257   9.816   9.941 -0.3921  0.6431  0.1781
   70ETHOX  H2145656   7.212   9.810   9.840  0.6728 -0.4813 -0.2569
   70ETHOX  H2345657   7.291   9.717   9.976  0.7633  0.6225 -0.9046
   71ETHOX   O145658   7.369   9.905   9.924  0.0422  0.3718 -0.5157
   71ETHOX   C145659   7.477   9.870  10.015 -0.2424  0.6530 -0.8026
   71ETHOX  H1145660   7.507   9.767   9.986 -0.1939  0.4794 -0.1482
   71ETHOX  H1345661   7.426   9.853  10.112  1.2707 -1.8621 -0.3382
   71ETHOX   C245662   7.582   9.985  10.021  0.1255  0.6369  0.4432
   71ETHOX  H2145663   7.614   9.996   9.916 -0.6923 -0.9228 -0.0060
   71ETHOX  H2345664   7.657   9.951  10.096 -0.9056  0.4305  1.4271
   72ETHOX   O145665   7.523  10.112  10.053  0.1203 -0.0583  0.5558
   72ETHOX   C145666   7.612  10.210  10.081 -0.2774 -0.1953 -0.1703
   72ETHOX  H1145667   7.662  10.182  10.177  0.7651  0.3645 -0.5263
   72ETHOX  H1345668   7.692  10.207  10.003  0.0751  1.2167  0.1119
   72ETHOX   C245669   7.556  10.352  10.091  0.0606 -0.3392  0.0369
   72ETHOX  H2145670   7.483  10.355  10.007  0.2307  0.2782 -0.0966
   72ETHOX  H2345671   7.620  10.439  10.065 -0.4089 -0.0231 -0.0728
   73ETHOX   O145672   7.487  10.396  10.207 -0.0852 -0.7528 -0.0001
   73ETHOX   C145673   7.578  10.427  10.314 -0.4931  0.2061  0.3117
   73ETHOX  H1145674   7.629  10.524  10.296  1.2015 -0.8195 -0.7956
   73ETHOX  H1345675   7.655  10.349  10.330 -0.4028 -0.1084 -1.3996
   73ETHOX   C245676   7.508  10.446  10.449 -0.3190 -0.0428  0.3824
   73ETHOX  H2145677   7.431  10.523  10.428 -2.1828 -2.2723 -1.4654
   73ETHOX  H2345678   7.583  10.478  10.524  2.9805 -0.9395 -2.2538
   74ETHOX   O145679   7.445  10.321  10.487  0.2738 -0.1770  0.3940
   74ETHOX   C145680   7.374  10.346  10.606  0.1716  0.3060 -0.4374
   74ETHOX  H1145681   7.440  10.388  10.685 -0.9250  0.9477  0.1624
   74ETHOX  H1345682   7.287  10.412  10.585 -1.4765 -1.4505  0.5409
   74ETHOX   C245683   7.303  10.212  10.664 -0.1317 -0.6723  0.6507
   74ETHOX  H2145684   7.242  10.170  10.581 -0.1230  0.0179  0.2926
   74ETHOX  H2345685   7.230  10.251  10.738  0.2424 -0.6622  1.0251
   75ETHOX   O145686   7.389  10.118  10.729  0.3050  0.0029 -0.0045
   75ETHOX   C145687   7.312  10.006  10.773 -0.2695 -0.9545 -0.8958
   75ETHOX  H1145688   7.301   9.934  10.689 -1.1402 -0.8266 -0.9066
   75ETHOX  H1345689   7.211  10.049  10.793  0.8510  2.4652 -1.9516
   75ETHOX   C245690   7.362   9.935  10.903  0.2584  0.1894  0.3373
   75ETHOX  H2145691   7.276   9.882  10.950  0.5451  0.9664  1.8064
   75ETHOX  H2345692   7.404  10.005  10.979  0.3891  0.8914 -0.3735
   76ETHOX   O145693   7.457   9.830  10.865 -0.4356 -0.0535  0.5477
   76ETHOX   C145694   7.520   9.773  10.982  0.4188  0.0253 -0.6144
   76ETHOX  H1145695   7.557   9.853  11.050 -3.2353 -1.2891  3.3595
   76ETHOX  H1345696   7.444   9.708  11.031  0.0254  1.9399  1.4545
   76ETHOX   C245697   7.634   9.677  10.938  0.2264  0.4840 -0.5078
   76ETHOX  H2145698   7.609   9.599  10.863  1.1847 -0.3233 -0.0038
   76ETHOX  H2345699   7.665   9.627  11.032  0.0270  0.8617 -0.2349
   77ETHOX   O145700   7.733   9.757  10.881 -0.5266  0.4484  0.2806
   77ETHOX   C145701   7.857   9.688  10.870 -0.4982  0.2911  0.7719
   77ETHOX  H1145702   7.843   9.580  10.849  1.8030 -0.1159  1.1120
   77ETHOX  H1345703   7.918   9.684  10.963  0.6805  1.9692  0.1029
   77ETHOX   C245704   7.917   9.744  10.739 -0.3688  0.1778 -0.0314
   77ETHOX  H2145705   7.834   9.736  10.665 -1.3164  0.6008  0.9638
   77ETHOX  H2345706   8.001   9.678  10.709  0.1499 -0.2345  2.1739
   78ETHOX   O145707   7.955   9.876  10.761 -0.2479  0.3416 -0.3098
   78ETHOX   C145708   7.972   9.943  10.642  0.2020 -0.0328 -0.0617
   78ETHOX  H1145709   8.052   9.905  10.575 -0.3979 -1.6331  0.0858
   78ETHOX  H1345710   7.874   9.943  10.589  0.7969  0.0862 -1.1930
   78ETHOX   C245711   8.008  10.092  10.676 -0.1961 -0.1211  0.7592
   78ETHOX  H2145712   7.932  10.143  10.739  0.3133  0.9422  0.5394
   78ETHOX  H2345713   8.016  10.146  10.579  0.6706  0.0779  0.9322
   79ETHOX   O145714   8.141  10.112  10.727  0.2880 -0.8339 -0.1010
   79ETHOX   C145715   8.176  10.251  10.729  0.8817  0.3256 -0.2974
   79ETHOX  H1145716   8.152  10.305  10.635 -2.0321 -2.0293 -1.0390
   79ETHOX  H1345717   8.111  10.298  10.806  1.5911  2.2640 -0.8141
   79ETHOX   C245718   8.320  10.272  10.765 -0.2811  0.3871 -0.4295
   79ETHOX  H2145719   8.356  10.377  10.761 -1.4343  0.9110  1.7998
   79ETHOX  H2345720   8.385  10.210  10.699  0.5495 -0.4398  1.1126
   80ETHOX   O145721   8.320  10.238  10.903  0.6765  0.0457 -0.3124
   80ETHOX   C145722   8.457  10.234  10.957  0.0632  0.1148 -0.2441
   80ETHOX  H1145723   8.508  10.159  10.892 -0.3107 -0.7416  0.4257
   80ETHOX  H1345724   8.499  10.337  10.960 -0.9080  0.5196  2.2451
   80ETHOX   C245725   8.450  10.167  11.100 -0.3840 -0.5474 -0.3566
   80ETHOX  H2145726   8.556  10.141  11.118  0.1097  1.6079  0.1463
   80ETHOX  H2345727   8.383  10.078  11.096 -0.5339 -0.4738  0.3033
   81ETHOX   O145728   8.403  10.262  11.199  0.2354  0.4405  0.0710
   81ETHOX   C145729   8.393  10.182  11.319 -0.0242  0.0445  1.3181
   81ETHOX  H1145730   8.429  10.078  11.304 -1.9142 -0.5989  1.0781
   81ETHOX  H1345731   8.464  10.217  11.398  1.5845  0.8822 -0.4132
   81ETHOX   C245732   8.251  10.183  11.373 -0.3557  0.0198  0.3447
   81ETHOX  H2145733   8.182  10.126  11.307  1.7351 -1.3770 -0.7294
   81ETHOX  H2345734   8.248  10.132  11.472 -1.5482  0.2985  0.4677
   82ETHOX   O145735   8.189  10.310  11.384 -0.5390 -0.7371  0.3104
   82ETHOX   C145736   8.069  10.307  11.452  0.6880  0.3156 -0.1884
   82ETHOX  H1145737   8.082  10.267  11.555 -1.8644 -1.9154 -0.6190
   82ETHOX  H1345738   7.999  10.241  11.397 -0.7708  1.7893 -0.1780
   82ETHOX   C245739   7.992  10.443  11.437 -0.1729  0.2560  0.2377
   82ETHOX  H2145740   7.890  10.422  11.475  0.2633 -0.6727  0.9538
   82ETHOX  H2345741   8.003  10.466  11.329  2.8513 -3.0151 -0.3319
   83ETHOX   O145742   8.059  10.547  11.511  0.5971  0.0462  0.8462
   83ETHOX   C145743   7.993  10.673  11.502  0.1190  0.2873  0.8479
   83ETHOX  H1145744   7.954  10.699  11.401  0.5783 -0.4220  0.4822
   83ETHOX  H1345745   7.902  10.675  11.566 -1.3804  0.4820 -1.1731
   83ETHOX   C245746   8.088  10.780  11.559  0.2438  0.4538  0.3779
   83ETHOX  H2145747   8.123  10.749  11.660 -1.7660 -1.7248  0.4918
   83ETHOX  H2345748   8.031  10.875  11.570 -0.2857  0.1134  0.5975
   84ETHOX   O145749   8.204  10.792  11.483 -0.3900 -0.5931 -0.3027
   84ETHOX   C145750   8.203  10.895  11.382 -0.3693  0.1669  0.0545
   84ETHOX  H1145751   8.130  10.976  11.406 -2.2131 -1.2821 -0.3957
   84ETHOX  H1345752   8.171  10.847  11.287  0.1776  0.3738 -0.2332
   84ETHOX   C245753   8.342  10.948  11.374 -0.3042 -0.4902 -0.1010
   84ETHOX  H2145754   8.362  10.998  11.277  1.1338 -1.0038 -0.0961
   84ETHOX  H2345755   8.416  10.866  11.363  2.0682  1.5333 -0.1356
   85ETHOX   O145756   8.364  11.051  11.473  0.7609 -0.0901  0.1167
   85ETHOX   C145757   8.388  11.002  11.603 -0.6800  0.3588 -0.5771
   85ETHOX  H1145758   8.288  10.978  11.647 -0.1861 -1.2087 -0.2620
   85ETHOX  H1345759   8.440  10.905  11.596 -1.8857 -0.1778 -3.4507
   85ETHOX   C245760   8.450  11.105  11.700  0.1165 -0.3170 -0.2400
   85ETHOX  H2145761   8.458  11.068  11.805  3.3735 -1.7946 -0.8880
   85ETHOX  H2345762   8.387  11.197  11.697  1.7718  0.8443 -0.9720
   86ETHOX   O145763   8.589  11.120  11.656  1.0037 -0.9960  0.1012
   86ETHOX   C145764   8.656  11.216  11.739  0.1169 -0.7198 -0.6567
   86ETHOX  H1145765   8.766  11.206  11.723 -0.1283 -0.1858 -3.1522
   86ETHOX  H1345766   8.643  11.189  11.846  2.0972  2.5461  0.5705
   86ETHOX   C245767   8.634  11.371  11.716 -0.0723 -0.1494 -0.3346
   86ETHOX  H2145768   8.679  11.398  11.618  2.0179  0.6379  0.7861
   86ETHOX  H2345769   8.706  11.414  11.789 -0.2880  0.9019 -0.7303
   87ETHOX   O145770   8.504  11.428  11.717 -0.0916 -0.7393 -0.0407
   87ETHOX   C145771   8.491  11.548  11.805 -0.4409 -1.1885  0.2806
   87ETHOX  H1145772   8.549  11.531  11.898 -2.4509 -0.6980  1.7089
   87ETHOX  H1345773   8.525  11.634  11.744  0.8110 -1.5935  0.3865
   87ETHOX   C245774   8.341  11.578  11.837 -0.3708 -0.5593 -0.0598
   87ETHOX  H2145775   8.275  11.546  11.753  0.3670 -2.1483 -0.0686
   87ETHOX  H2345776   8.317  11.678  11.879  2.4951  0.0110  0.4481
   88ETHOX   O145777   8.289  11.492  11.940 -0.8512  0.1984  0.1558
   88ETHOX   C145778   8.164  11.517  11.990  0.3684  0.3466  0.4385
   88ETHOX  H1145779   8.101  11.526  11.899 -0.3962  3.8513  1.1664
   88ETHOX  H1345780   8.167  11.612  12.048  1.1789  0.9351 -0.5403
   88ETHOX   C245781   8.127  11.401  12.083 -0.3554  0.2511  0.4629
   88ETHOX  H2145782   8.152  11.305  12.034 -2.1762 -0.3326  0.5930
   88ETHOX  H2345783   8.018  11.417  12.099 -0.4348  0.1539  0.0160
   89ETHOX   O145784   8.203  11.402  12.207  0.0563  0.7297  0.3525
   89ETHOX   C145785   8.148  11.302  12.294  0.6076 -0.4226 -0.3940
   89ETHOX  H1145786   8.038  11.296  12.275  0.4706  1.3379 -0.2816
   89ETHOX  H1345787   8.191  11.200  12.293 -0.0235 -0.7018 -2.0110
   89ETHOX   C245788   8.142  11.348  12.445  0.1375 -0.3364  0.0874
   89ETHOX  H2145789   8.245  11.367  12.482  0.0172  1.6202 -0.4660
   89ETHOX  H2345790   8.103  11.266  12.509  2.6152 -1.7336 -0.0334
   90ETHOX   O145791   8.056  11.458  12.461  0.5562 -1.4633 -0.3857
   90ETHOX   C145792   8.082  11.513  12.595  0.2361  0.4567 -0.1126
   90ETHOX  H1145793   8.031  11.452  12.673 -0.0608  1.9068  0.8725
   90ETHOX  H1345794   8.192  11.520  12.601  0.5037 -0.6862 -2.3911
   90ETHOX   C245795   8.022  11.655  12.605  0.3823 -0.2224 -0.0481
   90ETHOX  H2145796   7.915  11.640  12.632  0.6082 -2.9842 -0.3719
   90ETHOX  H2345797   8.013  11.707  12.507 -0.9687 -0.6923 -0.1988
   91ETHOX   O145798   8.076  11.730  12.713 -0.3024  0.6901 -0.1714
   91ETHOX   C145799   8.190  11.805  12.675 -0.2619 -0.3305  0.1652
   91ETHOX  H1145800   8.268  11.743  12.625 -0.9834 -0.5587 -0.6987
   91ETHOX  H1345801   8.154  11.893  12.618  0.5478  1.3268  2.0991
   91ETHOX   C245802   8.261  11.865  12.800  0.0655  0.7383  0.6115
   91ETHOX  H2145803   8.365  11.898  12.779  0.4055 -1.4369 -1.6169
   91ETHOX  H2345804   8.264  11.778  12.869  0.1263 -0.7056 -1.1554
   92ETHOX   O145805   8.197  11.982  12.848 -0.5633  0.0091 -0.0910
   92ETHOX   C145806   8.178  11.976  12.993  0.1006  0.4158  0.1387
   92ETHOX  H1145807   8.100  12.047  13.028 -0.0039 -0.0606  0.9059
   92ETHOX  H1345808   8.127  11.878  13.007 -1.6584  1.5406  2.1505
   92ETHOX   C245809   8.302  11.959  13.077  0.2126  0.0262 -0.7963
   92ETHOX  H2145810   8.371  12.047  13.072 -0.4116  0.7328  1.7860
   92ETHOX  H2345811   8.373  11.880  13.045  1.2167 -0.3864  2.1591
   93ETHOX   O145812   8.253  11.941  13.208  0.3537  0.1500  0.1161
   93ETHOX   C145813   8.356  11.896  13.299 -0.2469 -0.5451  0.0201
   93ETHOX  H1145814   8.397  11.806  13.248 -1.0108 -1.7320  1.4293
   93ETHOX  H1345815   8.317  11.873  13.400  1.4455 -1.5359  0.4986
   93ETHOX   C245816   8.471  11.994  13.304 -0.2610 -0.5650 -0.3620
   93ETHOX  H2145817   8.530  11.964  13.393  1.0843  3.0751  0.1350
   93ETHOX  H2345818   8.439  12.096  13.335 -4.7662 -1.1403 -2.3161
   94ETHOX   O145819   8.560  11.991  13.189 -0.1795 -0.1484 -0.2417
   94ETHOX   C145820   8.672  12.081  13.205  0.8934  0.1764 -0.3020
   94ETHOX  H1145821   8.653  12.191  13.202  2.1363  0.3945 -0.7403
   94ETHOX  H1345822   8.708  12.071  13.310  0.1064 -1.7781 -0.1787
   94ETHOX   C245823   8.780  12.064  13.100  0.0044 -0.2295 -0.1696
   94ETHOX  H2145824   8.825  11.962  13.095  2.2159  0.6597  0.1466
   94ETHOX  H2345825   8.863  12.139  13.103 -0.5962  0.4288  0.1880
   95ETHOX   O145826   8.711  12.085  12.976  0.2458 -0.0505 -0.2155
   95ETHOX   C145827   8.765  12.040  12.862 -0.2978  0.1251  0.4731
   95ETHOX  H1145828   8.800  11.935  12.870 -1.6399 -0.2496  1.8832
   95ETHOX  H1345829   8.857  12.095  12.833 -0.5863  0.1653 -0.3962
   95ETHOX   C245830   8.649  12.048  12.755  0.0722  0.7078  0.2904
   95ETHOX  H2145831   8.552  12.025  12.806  1.1493  0.0379  2.1430
   95ETHOX  H2345832   8.649  11.968  12.679 -0.4067  0.0179  0.9920
   96ETHOX   O145833   8.641  12.175  12.693  0.0068  0.3175 -0.1980
   96ETHOX   C145834   8.535  12.179  12.599 -0.1970  0.2319  0.3838
   96ETHOX  H1145835   8.554  12.108  12.515  1.4094  0.2092  0.7264
   96ETHOX  H1345836   8.435  12.148  12.634 -0.6505  2.0034  0.7491
   96ETHOX   C245837   8.535  12.319  12.528 -0.3987  0.3506  0.2065
   96ETHOX  H2145838   8.627  12.339  12.470  1.8996  0.6530  3.6780
   96ETHOX  H2345839   8.525  12.404  12.598 -0.4540 -0.1303  0.7944
   97ETHOX   O145840   8.422  12.315  12.441 -0.5471 -0.0394  0.1987
   97ETHOX   C145841   8.411  12.436  12.372 -0.2165 -0.1528  0.2767
   97ETHOX  H1145842   8.495  12.451  12.300 -0.8370  3.4841  0.1493
   97ETHOX  H1345843   8.420  12.527  12.435  2.2252  0.6016 -1.0258
   97ETHOX   C245844   8.282  12.451  12.285 -0.5460 -0.2231 -0.1426
   97ETHOX  H2145845   8.286  12.547  12.230 -1.6092  0.3177  0.6842
   97ETHOX  H2345846   8.203  12.451  12.364  0.6263 -1.6326  1.0966
   98ETHOX   O145847   8.272  12.337  12.192  0.3267  0.2082  0.9810
   98ETHOX   C145848   8.152  12.337  12.117 -0.0456 -0.4211  0.2597
   98ETHOX  H1145849   8.063  12.381  12.166 -0.3863  0.4414 -1.0598
   98ETHOX  H1345850   8.175  12.383  12.018 -1.2416 -2.3984 -0.9976
   98ETHOX   C245851   8.110  12.198  12.070  0.0852  0.7013 -0.0545
   98ETHOX  H2145852   8.189  12.157  12.004 -1.3702  1.8186 -2.6678
   98ETHOX  H2345853   8.024  12.211  12.001 -0.4346 -1.1056  0.2155
   99ETHOX   O145854   8.091  12.109  12.182  0.2142 -0.6449  0.2739
   99ETHOX   C145855   8.028  11.984  12.147 -0.1065 -0.7176 -0.7042
   99ETHOX  H1145856   8.049  11.960  12.040 -1.0258 -2.6782 -0.4893
   99ETHOX  H1345857   7.919  12.006  12.152  0.1721  0.3849  2.0380
   99ETHOX   C245858   8.074  11.883  12.251  0.1591 -0.0155  0.4179
   99ETHOX  H2145859   8.011  11.793  12.234 -0.8877  1.0421 -1.7322
   99ETHOX  H2345860   8.066  11.924  12.354  2.5945 -3.1953  2.0610
  100ETHOX   O145861   8.212  11.849  12.238 -0.6370  0.2163 -0.8906
  100ETHOX   C145862   8.269  11.798  12.361 -0.0540  0.2507  0.5423
  100ETHOX  H1145863   8.281  11.870  12.444  0.2970 -0.3978  1.0561
  100ETHOX  H1345864   8.208  11.712  12.395 -1.2559 -0.3496 -2.7576
  100ETHOX   C245865   8.409  11.745  12.338 -0.2435 -0.5197 -0.0345
  100ETHOX  H2145866   8.425  11.691  12.242  1.2842 -0.8345  0.3800
  100ETHOX  H2345867   8.437  11.675  12.420 -1.0383  0.5530  1.1842
  101PROXS   O145868   8.507  11.854  12.339  0.4699 -0.6932  0.7228
  101PROXS   C145869   8.629  11.797  12.364  0.1008  0.0293 -0.9240
  101PROXS  H1145870   8.630  11.735  12.456  0.7008  0.1571 -0.8368
  101PROXS  H1345871   8.662  11.727  12.284  0.4490 -1.5501  0.5354
  101PROXS   C245872   8.731  11.910  12.375 -0.7771 -0.8694 -0.2882
  101PROXS  H2145873   8.709  11.977  12.461 -0.0426  1.9157 -2.1313
  101PROXS   C345874   8.725  12.002  12.253  0.3922 -0.2732 -0.3639
  101PROXS  H3145875   8.625  12.048  12.237  0.8910  1.9961  2.2775
  101PROXS  H3245876   8.786  12.093  12.268 -0.8229  0.3517  0.9945
  101PROXS  H3345877   8.767  11.945  12.167 -0.4871 -0.7554 -0.4855
  102PROXS   O145878   8.863  11.852  12.397  0.8447 -0.6456 -0.2616
  102PROXS   C145879   8.894  11.782  12.510  0.6807  0.0854 -0.3048
  102PROXS  H1145880   8.944  11.853  12.579  0.3017 -0.1043  0.1741
  102PROXS  H1345881   8.807  11.740  12.565  1.5524  1.5943  2.4406
  102PROXS   C245882   8.994  11.671  12.483  0.2762  0.1532  0.7562
  102PROXS  H2145883   9.088  11.726  12.459 -0.8573  2.8418  2.0849
  102PROXS   C345884   8.956  11.581  12.368 -1.1432 -0.2200  0.2600
  102PROXS  H3145885   9.045  11.516  12.362 -2.7132 -2.9977  3.7717
  102PROXS  H3245886   8.870  11.516  12.394 -0.6094 -0.4654  1.4351
  102PROXS  H3345887   8.930  11.642  12.278 -2.2152 -0.4808  0.3793
  103PROXR   O145888   9.007  11.602  12.605 -0.2896 -0.1718  0.4419
  103PROXR   C145889   9.128  11.524  12.622  0.0650 -0.2466  0.2419
  103PROXR  H1145890   9.093  11.424  12.587 -0.1079 -0.1446  0.1219
  103PROXR  H1345891   9.212  11.552  12.555  0.6180 -2.3875 -0.0292
  103PROXR   C245892   9.168  11.515  12.769  0.3576  0.1777  0.4077
  103PROXR  H2145893   9.083  11.458  12.813  0.5667 -0.7321 -0.3468
  103PROXR   C345894   9.193  11.651  12.830 -0.0292 -0.4093  0.0303
  103PROXR  H3145895   9.102  11.708  12.861 -0.2309 -0.4464 -0.4753
  103PROXR  H3245896   9.269  11.662  12.910 -1.0102  4.9408  0.6373
  103PROXR  H3345897   9.234  11.715  12.749 -0.5991  1.5507  1.1962
  104PROXS   O145898   9.287  11.433  12.765 -0.2549 -0.3843 -1.0726
  104PROXS   C145899   9.319  11.370  12.892 -0.6702  0.1935 -0.1150
  104PROXS  H1145900   9.396  11.443  12.924  2.5763 -2.4691 -1.2255
  104PROXS  H1345901   9.241  11.358  12.970  0.0906 -0.2978  0.5859
  104PROXS   C245902   9.399  11.235  12.880 -0.1346 -0.1375 -0.4502
  104PROXS  H2145903   9.501  11.261  12.844  0.0859 -2.8026 -1.9986
  104PROXS   C345904   9.347  11.140  12.770  0.6804  0.5106 -0.2892
  104PROXS  H3145905   9.357  11.190  12.671  3.7715 -1.7171 -1.2499
  104PROXS  H3245906   9.399  11.042  12.772 -2.0425 -1.0293 -0.2011
  104PROXS  H3345907   9.239  11.119  12.784  1.0978 -4.0476 -2.4093
  105PROXS   O145908   9.403  11.168  13.006 -0.0153 -0.5256 -0.0137
  105PROXS   C145909   9.504  11.076  13.019 -0.6585  0.5775 -0.1660
  105PROXS  H1145910   9.481  10.986  12.958 -0.3945  1.1707 -1.1652
  105PROXS  H1345911   9.602  11.116  12.983 -0.1276 -2.0228 -1.8951
  105PROXS   C245912   9.533  11.031  13.164 -0.4794 -0.8044  0.4145
  105PROXS  H2145913   9.440  10.999  13.214 -1.0000 -0.0535 -0.0600
  105PROXS   C345914   9.583  11.150  13.248 -0.1350  0.2691  0.3776
  105PROXS  H3145915   9.504  11.228  13.245 -1.1394 -0.7039  0.3636
  105PROXS  H3245916   9.597  11.104  13.348  0.6395 -2.2086 -0.7692
  105PROXS  H3345917   9.678  11.187  13.206  0.2617  0.3732  1.3575
  106PROXS   O145918   9.638  10.936  13.164 -0.9772  0.0022 -0.4447
  106PROXS   C145919   9.608  10.806  13.118  0.1441 -0.8784  0.1237
  106PROXS  H1145920   9.509  10.783  13.164 -0.7923 -0.2624 -1.4910
  106PROXS  H1345921   9.594  10.799  13.008  0.4084  0.1486  0.0157
  106PROXS   C245922   9.726  10.706  13.156  0.2223 -0.2573  0.0942
  106PROXS  H2145923   9.724  10.680  13.264 -2.9025 -2.4654 -0.3675
  106PROXS   C345924   9.866  10.759  13.115  1.3263  0.2792  0.6390
  106PROXS  H3145925   9.883  10.753  13.006  2.5448 -1.7347  0.8908
  106PROXS  H3245926   9.863  10.868  13.138  0.9450  0.2931  0.5078
  106PROXS  H3345927   9.953  10.705  13.160  1.8918 -0.8717 -1.7193
  107PROXR   O145928   9.694  10.585  13.094 -0.8182 -0.3729  0.0994
  107PROXR   C145929   9.774  10.467  13.122  0.0337  1.2443 -0.2367
  107PROXR  H1145930   9.881  10.488  13.101  0.3185 -1.0168 -1.3181
  107PROXR  H1345931   9.779  10.450  13.232  1.1239  1.4733 -0.2337
  107PROXR   C245932   9.717  10.335  13.057 -0.4423  0.2612 -0.5580
  107PROXR  H2145933   9.789  10.254  13.081 -0.1561  0.7708  0.3813
  107PROXR   C345934   9.707  10.343  12.901 -0.2260 -0.1626 -0.4594
  107PROXR  H3145935   9.666  10.250  12.855 -0.2338  0.5028 -1.8713
  107PROXR  H3245936   9.641  10.423  12.862 -0.5422  0.1501  0.6904
  107PROXR  H3345937   9.809  10.371  12.866  0.5782 -0.7625  1.2955
  108PROXS   O145938   9.596  10.297  13.126  0.5275  0.3050  0.1808
  108PROXS   C145939   9.475  10.357  13.075  0.4856  0.4646  0.5578
  108PROXS  H1145940   9.494  10.466  13.070  0.4893  0.4895  1.0786
  108PROXS  H1345941   9.442  10.323  12.974  1.3261 -0.5387  0.6090
  108PROXS   C245942   9.357  10.317  13.163 -0.0420 -0.9897 -0.2003
  108PROXS  H2145943   9.382  10.332  13.270 -0.7110  1.6616 -0.3326
  108PROXS   C345944   9.330  10.167  13.164  0.2340 -0.0487  0.1508
  108PROXS  H3145945   9.423  10.108  13.182  1.7307  1.7813 -1.3143
  108PROXS  H3245946   9.258  10.143  13.246 -0.3508 -1.1586 -0.6675
  108PROXS  H3345947   9.280  10.132  13.072 -0.6613  0.0551  0.5843
  109PROXS   O145948   9.244  10.396  13.123 -0.1471  0.3851  1.0862
  109PROXS   C145949   9.236  10.525  13.177 -0.4519 -0.2269 -0.7317
  109PROXS  H1145950   9.193  10.515  13.280 -2.2549  0.9028 -1.3217
  109PROXS  H1345951   9.335  10.567  13.205 -0.1122 -0.0624 -2.1506
  109PROXS   C245952   9.161  10.630  13.097 -0.3041 -0.2740 -0.4133
  109PROXS  H2145953   9.051  10.614  13.089 -0.4273  1.2722 -3.0530
  109PROXS   C345954   9.223  10.626  12.955  0.4827 -0.7853 -0.4590
  109PROXS  H3145955   9.200  10.530  12.905  0.8973 -0.9559 -0.3245
  109PROXS  H3245956   9.192  10.716  12.898  2.6746  1.5011  1.6743
  109PROXS  H3345957   9.333  10.641  12.953  0.7600 -2.6349 -0.3787
  110PROXR   O145958   9.188  10.757  13.165  0.3638 -0.1200  0.0618
  110PROXR   C145959   9.085  10.859  13.134 -0.4642  0.4347 -0.3783
  110PROXR  H1145960   9.112  10.897  13.033  0.6834 -2.1973 -1.1410
  110PROXR  H1345961   8.978  10.832  13.147 -0.8573  2.0454  0.0133
  110PROXR   C245962   9.105  10.973  13.249 -0.3771 -0.1349  0.5578
  110PROXR  H2145963   9.211  11.006  13.260 -0.0973 -1.2557  1.3231
  110PROXR   C345964   9.077  10.922  13.394 -0.0908  0.0336 -0.0422
  110PROXR  H3145965   9.009  10.836  13.378 -0.6737  0.4943 -0.0440
  110PROXR  H3245966   9.175  10.897  13.440 -0.4627  0.6569  1.1206
  110PROXR  H3345967   9.034  11.000  13.460 -0.0292  0.6706 -0.7289
  111PROXS   O145968   9.012  11.082  13.226  0.1082 -0.2338 -0.7314
  111PROXS   C145969   9.073  11.187  13.153  0.2308  0.1447  0.3150
  111PROXS  H1145970   9.165  11.224  13.204  0.6495 -0.0317 -0.3034
  111PROXS  H1345971   9.102  11.147  13.054  0.2081 -2.3900  1.2538
  111PROXS   C245972   8.978  11.309  13.147  0.8271 -0.2502  0.3486
  111PROXS  H2145973   8.942  11.339  13.247  1.4219  1.9684 -0.0505
  111PROXS   C345974   8.851  11.273  13.076  0.4663 -0.4147  0.6320
  111PROXS  H3145975   8.774  11.354  13.080 -0.2295 -1.0865  1.4715
  111PROXS  H3245976   8.866  11.247  12.969  0.7600 -1.2262  0.8675
  111PROXS  H3345977   8.798  11.192  13.130  2.5504 -2.7346 -0.6150
  112PROXR   O145978   9.033  11.431  13.097 -0.9839 -0.0749 -0.1766
  112PROXR   C145979   9.115  11.504  13.189  0.5559 -0.1893  0.3690
  112PROXR  H1145980   9.165  11.437  13.262  2.1893 -0.0602 -0.5886
  112PROXR  H1345981   9.203  11.545  13.135 -0.0871  0.8087  0.0379
  112PROXR   C245982   9.027  11.619  13.249  0.1963  0.4932 -0.0011
  112PROXR  H2145983   8.937  11.571  13.293 -0.0375 -2.2872 -3.1546
  112PROXR   C345984   8.983  11.726  13.150  0.1204  0.0942 -0.7380
  112PROXR  H3145985   8.918  11.679  13.073  0.4541 -2.1716  0.2855
  112PROXR  H3245986   8.933  11.810  13.201 -0.2281 -1.1404  1.0575
  112PROXR  H3345987   9.076  11.767  13.104  0.0276 -0.7737 -1.7432
  113PROXS   O145988   9.093  11.686  13.352 -0.0408  0.0048 -0.2312
  113PROXS   C145989   9.100  11.608  13.474 -0.3878  0.1007 -0.3440
  113PROXS  H1145990   8.995  11.592  13.508 -0.3355  0.8659  0.1995
  113PROXS  H1345991   9.151  11.511  13.460 -2.1100 -1.0849  1.1050
  113PROXS   C245992   9.175  11.690  13.592  0.6313  0.2698 -0.4549
  113PROXS  H2145993   9.282  11.707  13.565  0.6902  0.2388 -0.2431
  113PROXS   C345994   9.167  11.617  13.724  0.0451  0.3132 -0.0626
  113PROXS  H3145995   9.060  11.587  13.726  0.6322 -2.0740  2.1129
  113PROXS  H3245996   9.244  11.536  13.725  0.4712  0.7089 -0.4598
  113PROXS  H3345997   9.184  11.683  13.812 -0.0140  1.5674 -0.9700
  114PROXR   O145998   9.114  11.817  13.615 -0.3935 -0.5383  0.0894
  114PROXR   C145999   9.184  11.911  13.526 -0.0341 -0.5510  0.8165
  114PROXR  H1146000   9.273  11.960  13.571 -0.7292  1.8669 -0.2555
  114PROXR  H1346001   9.210  11.863  13.430  0.6042 -1.9094  1.6343
  114PROXR   C246002   9.090  12.033  13.485  0.0340  0.7322  0.8659
  114PROXR  H2146003   9.097  12.108  13.566  0.3593  0.8283  0.7493
  114PROXR   C346004   8.953  11.986  13.441  0.1999 -0.1048  0.0731
  114PROXR  H3146005   8.884  12.072  13.427 -0.4510 -0.7737 -0.9533
  114PROXR  H3246006   8.964  11.930  13.346 -0.7221  0.1284 -0.1863
  114PROXR  H3346007   8.914  11.914  13.517 -2.2804  0.0551 -0.9292
  115PROXR   O146008   9.146  12.098  13.366 -0.1107 -0.0544 -0.2085
  115PROXR   C146009   9.092  12.222  13.334  0.6353 -0.0143 -0.1504
  115PROXR  H1146010   8.991  12.208  13.291  0.2675  0.3836  0.5532
  115PROXR  H1346011   9.078  12.285  13.425  0.2461 -2.7843  1.8195
  115PROXR   C246012   9.185  12.290  13.226  0.1090  0.0520 -0.1148
  115PROXR  H2146013   9.292  12.272  13.249 -0.2038 -1.0207  0.6131
  115PROXR   C346014   9.154  12.435  13.219  0.2405 -0.1846 -0.1208
  115PROXR  H3146015   9.148  12.495  13.312 -0.1327  1.1000 -0.9344
  115PROXR  H3246016   9.232  12.493  13.165 -0.8495 -0.5307 -2.1815
  115PROXR  H3346017   9.055  12.445  13.168 -0.2061  0.2284  0.8057
  116PROXS   O146018   9.163  12.235  13.096  0.6127 -0.2989  0.4974
  116PROXS   C146019   9.229  12.108  13.087 -0.4959 -0.1967  0.3690
  116PROXS  H1146020   9.321  12.108  13.149 -0.4649  1.1195  0.3363
  116PROXS  H1346021   9.160  12.028  13.122 -0.4432 -0.4430 -0.0718
  116PROXS   C246022   9.272  12.072  12.944  0.4383  0.0478  0.1110
  116PROXS  H2146023   9.333  12.157  12.906 -0.0377 -0.3539 -1.6529
  116PROXS   C346024   9.156  12.071  12.843 -0.5849  0.3943 -0.3268
  116PROXS  H3146025   9.100  12.167  12.848 -0.0367  0.6460  1.3806
  116PROXS  H3246026   9.195  12.080  12.739 -1.4466  0.8568 -0.6112
  116PROXS  H3346027   9.080  11.991  12.857 -1.0840  0.3471 -2.8358
  117PROXS   O146028   9.357  11.957  12.951 -0.3559  0.2007 -0.2677
  117PROXS   C146029   9.424  11.926  12.821 -0.3731  0.1293 -0.9182
  117PROXS  H1146030   9.349  11.889  12.748  0.9465 -1.0286 -1.7659
  117PROXS  H1346031   9.473  12.015  12.776  3.2642 -1.3322 -0.2283
  117PROXS   C246032   9.534  11.820  12.844 -0.2101 -0.1179  0.0051
  117PROXS  H2146033   9.493  11.725  12.883  0.8633 -0.4914  0.2783
  117PROXS   C346034   9.646  11.861  12.943 -0.3790  0.5403 -0.3277
  117PROXS  H3146035   9.705  11.938  12.889 -1.4789  1.5021 -0.2163
  117PROXS  H3246036   9.609  11.895  13.042 -1.6257 -1.6300  0.0112
  117PROXS  H3346037   9.712  11.773  12.952  2.3289  2.3928 -0.8828
  118PROXR   O146038   9.607  11.798  12.723  0.0546 -0.1353  0.5700
  118PROXR   C146039   9.538  11.721  12.622  0.2980 -0.5592  0.1153
  118PROXR  H1146040   9.501  11.630  12.672  0.0146 -1.3517 -1.4695
  118PROXR  H1346041   9.459  11.785  12.575 -1.6336 -0.4999  3.1692
  118PROXR   C246042   9.638  11.683  12.518 -0.0291 -0.2837  0.8871
  118PROXR  H2146043   9.716  11.634  12.580  1.2812 -0.2273 -0.6508
  118PROXR   C346044   9.711  11.788  12.433 -1.0642  0.2692  0.0247
  118PROXR  H3146045   9.749  11.875  12.490  0.7941  0.6261 -1.6464
  118PROXR  H3246046   9.806  11.742  12.399 -0.7859  0.3164  0.7287
  118PROXR  H3346047   9.653  11.820  12.344 -1.3470  1.0730  0.4840
  119PROXR   O146048   9.579  11.595  12.429  0.9118 -0.2657 -0.2224
  119PROXR   C146049   9.668  11.491  12.391 -0.3368  0.7277 -0.0227
  119PROXR  H1146050   9.753  11.528  12.330  0.5583  2.8468  2.3350
  119PROXR  H1346051   9.722  11.437  12.472 -1.4576 -2.2727 -1.0987
  119PROXR   C246052   9.592  11.374  12.328  0.1630  0.7715  0.0503
  119PROXR  H2146053   9.555  11.409  12.229 -2.5068  0.3982  0.8329
  119PROXR   C346054   9.475  11.322  12.415  0.2745  0.0779 -0.6116
  119PROXR  H3146055   9.398  11.401  12.428 -0.3051 -0.4850 -0.5075
  119PROXR  H3246056   9.424  11.230  12.377  2.3737 -0.4155 -2.4860
  119PROXR  H3346057   9.503  11.314  12.522  0.8137  2.5208 -0.5110
  120PROXS   O146058   9.682  11.265  12.305  0.4504 -0.1829 -0.2260
  120PROXS   C146059   9.631  11.164  12.218  0.7516  0.3646  0.2562
  120PROXS  H1146060   9.579  11.087  12.279 -2.3979 -0.3051 -2.9983
  120PROXS  H1346061   9.551  11.208  12.156 -1.0242  1.6269  3.2317
  120PROXS   C246062   9.735  11.074  12.145 -1.0065 -0.4980 -0.0862
  120PROXS  H2146063   9.801  11.030  12.223 -0.8072  0.0170  0.0354
  120PROXS   C346064   9.816  11.150  12.038 -0.0450  0.3170  0.1214
  120PROXS  H3146065   9.744  11.205  11.974  0.4605 -0.5481 -1.2347
  120PROXS  H3246066   9.880  11.228  12.085  2.0783 -0.9490 -0.5072
  120PROXS  H3346067   9.878  11.081  11.977 -0.2932 -0.0689  0.2991
  121PROXS   O146068   9.660  10.961  12.091 -0.0358  0.4778 -0.0431
  121PROXS   C146069   9.676  10.844  12.176  0.1163  0.2815  0.0611
  121PROXS  H1146070   9.778  10.804  12.158 -0.8754 -1.8726 -1.2290
  121PROXS  H1346071   9.674  10.865  12.285  2.9532 -1.7653  0.6399
  121PROXS   C246072   9.569  10.738  12.140 -0.0877 -0.1871  0.3748
  121PROXS  H2146073   9.562  10.727  12.030  0.0321 -2.2783  0.5342
  121PROXS   C346074   9.443  10.773  12.214  0.1096 -0.3687  0.6809
  121PROXS  H3146075   9.410  10.874  12.180  1.0305  0.2116  1.4742
  121PROXS  H3246076   9.363  10.700  12.190 -0.8132  0.8143  0.0620
  121PROXS  H3346077   9.461  10.780  12.323 -1.2115 -1.1992  0.9637
  122PROXS   O146078   9.613  10.612  12.184  0.3314  0.3511  0.2763
  122PROXS   C146079   9.531  10.511  12.127  0.5080 -0.1545 -0.3526
  122PROXS  H1146080   9.422  10.529  12.141  0.0980 -0.7729 -2.3443
  122PROXS  H1346081   9.556  10.512  12.018  3.8868  2.2525  0.2788
  122PROXS   C246082   9.568  10.374  12.175  0.0946 -0.2658  0.0569
  122PROXS  H2146083   9.674  10.376  12.209 -0.3655 -0.4438  1.5924
  122PROXS   C346084   9.538  10.263  12.077  0.0376 -0.5593  0.2061
  122PROXS  H3146085   9.538  10.163  12.124 -0.3917 -0.9361 -0.5881
  122PROXS  H3246086   9.441  10.272  12.023  0.0382 -1.6976  0.0083
  122PROXS  H3346087   9.616  10.266  11.999 -0.0816  2.3357  0.0695
  123PROXS   O146088   9.477  10.342  12.284  0.2882 -0.6165 -0.3939
  123PROXS   C146089   9.490  10.430  12.404 -0.3533 -0.0638  0.7752
  123PROXS  H1146090   9.478  10.536  12.374  0.1125 -0.5327 -1.2148
  123PROXS  H1346091   9.414  10.397  12.478 -0.4376  0.7809  1.0822
  123PROXS   C246092   9.625  10.425  12.476 -0.7177 -0.2185 -0.1036
  123PROXS  H2146093   9.707  10.456  12.408 -1.5233 -1.1838 -1.5633
  123PROXS   C346094   9.662  10.276  12.517  0.0323 -0.5386 -0.0198
  123PROXS  H3146095   9.755  10.272  12.577  1.3872 -2.2917 -2.0880
  123PROXS  H3246096   9.583  10.221  12.573 -1.4149  1.0345 -0.4157
  123PROXS  H3346097   9.678  10.221  12.422  0.6466  1.0578 -0.8895
  124PROXR   O146098   9.624  10.523  12.579  0.0791 -0.6293 -0.2617
  124PROXR   C146099   9.681  10.648  12.553  0.1879 -0.2297  0.2091
  124PROXR  H1146100   9.792  10.643  12.553  0.2039  0.1130  0.4662
  124PROXR  H1346101   9.656  10.694  12.455  0.8865  1.3102  0.7184
  124PROXR   C246102   9.639  10.755  12.657  0.5170 -0.6047  0.0354
  124PROXR  H2146103   9.674  10.719  12.756 -2.0944  0.1490  1.3300
  124PROXR   C346104   9.486  10.770  12.663  0.2017  0.1628  0.2711
  124PROXR  H3146105   9.451  10.809  12.565 -0.4966 -1.3109 -0.1009
  124PROXR  H3246106   9.429  10.676  12.675 -1.8336  1.3503  0.2317
  124PROXR  H3346107   9.452  10.833  12.748 -0.0048 -0.8866  0.9884
  125PROXS   O146108   9.702  10.882  12.621 -0.4882  0.5323  0.2487
  125PROXS   C146109   9.736  10.966  12.730  0.2011  0.2503 -0.8959
  125PROXS  H1146110   9.647  10.971  12.797  2.2030  1.1195  1.8723
  125PROXS  H1346111   9.819  10.919  12.787 -1.0531 -1.0563 -0.0620
  125PROXS   C246112   9.767  11.108  12.675  0.5009 -0.2843 -0.7881
  125PROXS  H2146113   9.682  11.153  12.620 -0.7969  2.3790  2.9804
  125PROXS   C346114   9.887  11.098  12.580  0.3426 -1.0254  0.0347
  125PROXS  H3146115   9.866  11.025  12.499  2.5631  0.2224 -1.7658
  125PROXS  H3246116   9.914  11.191  12.526 -0.4534  0.8116  2.6330
  125PROXS  H3346117   9.966  11.065  12.649  0.2114 -0.2591  0.5634
  126PROXS   O146118   9.789  11.196  12.784  0.0963  0.4844  0.5318
  126PROXS   C146119   9.790  11.334  12.748  0.2503  0.1382  0.3051
  126PROXS  H1146120   9.856  11.354  12.661  2.7454  0.7261  2.2079
  126PROXS  H1346121   9.689  11.375  12.725  0.1931 -0.2349 -0.1187
  126PROXS   C246122   9.832  11.417  12.873 -0.5871  0.6236 -0.4748
  126PROXS  H2146123   9.923  11.367  12.912 -1.1278  0.1967  0.2545
  126PROXS   C346124   9.724  11.428  12.981 -0.2202 -0.5827 -0.3862
  126PROXS  H3146125   9.637  11.471  12.927  1.0878  0.5865 -1.6465
  126PROXS  H3246126   9.684  11.334  13.025 -0.4679  0.1958  1.1544
  126PROXS  H3346127   9.766  11.489  13.064  1.6349 -0.3469 -1.4504
  127PROXR   O146128   9.868  11.556  12.836  0.3686  0.4455  0.4827
  127PROXR   C146129  10.004  11.575  12.839 -0.1283 -0.0969  0.5677
  127PROXR  H1146130  10.030  11.572  12.947 -0.4743 -0.4240  0.6436
  127PROXR  H1346131  10.063  11.491  12.795 -0.2010  0.2756 -0.2698
  127PROXR   C246132  10.041  11.709  12.778 -0.5727 -0.5836  0.3317
  127PROXR  H2146133   9.956  11.779  12.791  0.0608  0.2139  0.3315
  127PROXR   C346134  10.045  11.706  12.624 -0.2739 -0.7213  0.7023
  127PROXR  H3146135   9.951  11.656  12.593 -1.0832  1.5653 -0.8652
  127PROXR  H3246136  10.052  11.807  12.579  1.0252 -1.3481 -0.5544
  127PROXR  H3346137  10.129  11.651  12.577 -0.8740 -0.3922 -0.8193
  128PROXR   O146138  10.153  11.763  12.849  0.4630 -0.2489  0.4764
  128PROXR   C146139  10.183  11.893  12.796  0.7069 -0.8334 -0.5142
  128PROXR  H1146140  10.237  11.893  12.699  0.0578 -0.8088 -0.8787
  128PROXR  H1346141  10.087  11.949  12.790 -0.0481 -1.9781  0.3994
  128PROXR   C246142  10.283  11.960  12.894 -0.8795 -0.1294 -0.7599
  128PROXR  H2146143  10.377  11.901  12.905 -0.3570  1.1210  2.7230
  128PROXR   C346144  10.219  11.962  13.039  0.1975 -0.0567 -0.4143
  128PROXR  H3146145  10.121  12.015  13.037  0.6226  0.7437 -0.4628
  128PROXR  H3246146  10.201  11.859  13.075  2.9913 -1.5787 -3.0270
  128PROXR  H3346147  10.281  12.010  13.118 -0.4730  0.9565 -0.4762
  129PROXS   O146148  10.315  12.088  12.859  0.2141  0.1610  0.2818
  129PROXS   C146149  10.432  12.091  12.774 -0.3391  0.0853 -0.1012
  129PROXS  H1146150  10.518  12.057  12.836 -0.0164  0.7516 -0.1688
  129PROXS  H1346151  10.424  12.015  12.694  0.2934 -0.2408  0.1356
  129PROXS   C246152  10.446  12.226  12.696  0.2150 -1.4065  0.2037
  129PROXS  H2146153  10.457  12.292  12.785 -0.3410  0.7096 -1.2101
  129PROXS   C346154  10.327  12.266  12.597  0.5064 -0.4871  0.0743
  129PROXS  H3146155  10.239  12.298  12.657 -0.9061 -3.7492 -0.0202
  129PROXS  H3246156  10.353  12.347  12.527 -3.1227  1.1599  0.4147
  129PROXS  H3346157  10.289  12.171  12.553 -0.6907  0.2351 -0.4845
  130PROXS   O146158  10.569  12.215  12.619  0.0999  0.7340  0.3041
  130PROXS   C146159  10.664  12.309  12.670  0.6103  0.4076 -0.1497
  130PROXS  H1146160  10.608  12.405  12.677  0.4865  0.5559 -2.2898
  130PROXS  H1346161  10.689  12.280  12.774 -0.7039 -0.0441  0.0588
  130PROXS   C246162  10.794  12.321  12.582 -0.2900 -0.6364 -0.5978
  130PROXS  H2146163  10.750  12.326  12.480  0.3358  0.5215 -0.8232
  130PROXS   C346164  10.891  12.201  12.588  0.0561  0.0924  0.3989
  130PROXS  H3146165  10.938  12.194  12.689 -2.4937  0.6100  1.7023
  130PROXS  H3246166  10.834  12.106  12.572  1.2383 -0.3285 -1.5936
  130PROXS  H3346167  10.969  12.207  12.510 -0.2351 -0.2713  0.0755
  131PROXS   O146168  10.863  12.438  12.612  0.1462 -0.4221  0.2196
  131PROXS   C146169  10.920  12.502  12.499  0.0032  0.7985  0.2920
  131PROXS  H1146170  10.993  12.432  12.452  0.6820  0.9010  1.1543
  131PROXS  H1346171  10.838  12.521  12.427 -0.1489  0.5141  0.3891
  131PROXS   C246172  10.993  12.635  12.529  0.2501 -0.6062  0.1956
  131PROXS  H2146173  11.089  12.627  12.584  0.0371  1.5491  0.9832
  131PROXS   C346174  10.901  12.724  12.616  0.3400  0.3203 -0.2830
  131PROXS  H3146175  10.943  12.825  12.632  0.0544  0.0639  2.6854
  131PROXS  H3246176  10.796  12.732  12.582 -0.2601 -1.7796  0.8869
  131PROXS  H3346177  10.894  12.678  12.717 -4.6615  2.3615  0.6008
  132PROXS   O146178  11.033  12.691  12.403 -0.5015 -0.0179 -0.1660
  132PROXS   C146179  11.112  12.810  12.408  0.5958 -0.0956  0.1048
  132PROXS  H1146180  11.058  12.899  12.447  2.0090  0.9893 -0.3042
  132PROXS  H1346181  11.209  12.785  12.458  0.7550  0.6089  0.1654
  132PROXS   C246182  11.156  12.845  12.263 -0.2868  0.8157 -0.7885
  132PROXS  H2146183  11.199  12.754  12.215  1.8105  0.3711  1.7380
  132PROXS   C346184  11.279  12.936  12.271 -0.0849  0.5644  0.5612
  132PROXS  H3146185  11.309  12.974  12.170 -2.3991 -2.0638 -1.2623
  132PROXS  H3246186  11.261  13.025  12.335  0.7277  2.2639 -1.4558
  132PROXS  H3346187  11.366  12.887  12.318  0.3866  1.8673  1.1083
  133PROXS   O146188  11.052  12.901  12.184  0.2964  0.3665  0.3816
  133PROXS   C146189  11.008  13.032  12.224 -0.2774  0.3927  0.0922
  133PROXS  H1146190  10.994  13.035  12.334 -3.5236 -0.3394 -0.1958
  133PROXS  H1346191  11.081  13.107  12.186 -0.2318  1.4707  2.1621
  133PROXS   C246192  10.872  13.068  12.163 -0.0449  0.1613  0.4691
  133PROXS  H2146193  10.870  13.051  12.053 -1.2677  2.0939  0.1480
  133PROXS   C346194  10.830  13.208  12.190  0.5157  0.4479  0.3841
  133PROXS  H3146195  10.912  13.273  12.152  0.9623 -1.0477 -1.3609
  133PROXS  H3246196  10.739  13.227  12.130  0.4258  0.0841  0.4041
  133PROXS  H3346197  10.810  13.233  12.296 -0.4223 -0.1535  0.3568
  134PROXS   O146198  10.770  12.992  12.229 -0.4100  0.2471 -0.1566
  134PROXS   C146199  10.785  12.851  12.219 -0.8865 -0.2854  0.6360
  134PROXS  H1146200  10.825  12.832  12.117 -1.3925 -2.0431  0.7358
  134PROXS  H1346201  10.853  12.801  12.291 -1.9613 -1.9837  0.5243
  134PROXS   C246202  10.649  12.780  12.216 -0.5936 -0.0826 -0.2587
  134PROXS  H2146203  10.590  12.829  12.136  1.3892  0.6365 -1.3520
  134PROXS   C346204  10.566  12.786  12.348 -0.0662 -0.1814  0.8979
  134PROXS  H3146205  10.462  12.749  12.334 -0.0876  0.6039 -1.3241
  134PROXS  H3246206  10.620  12.717  12.416  1.2280 -0.4957 -0.3983
  134PROXS  H3346207  10.561  12.885  12.399  0.1705 -0.1548  0.8720
  135PROXS   O146208  10.681  12.651  12.172  0.2211 -0.3472  0.0827
  135PROXS   C146209  10.566  12.572  12.127  0.2011  0.2994  0.1552
  135PROXS  H1146210  10.506  12.552  12.218  2.3526 -0.6710  1.4613
  135PROXS  H1346211  10.507  12.641  12.064  2.0206  1.6019 -0.2132
  135PROXS   C246212  10.620  12.449  12.055 -0.1381 -0.1575  0.3071
  135PROXS  H2146213  10.691  12.391  12.118  0.3816  0.0663 -0.0714
  135PROXS   C346214  10.703  12.487  11.930  0.2560  0.7066 -0.4386
  135PROXS  H3146215  10.639  12.546  11.861 -0.9772  0.6868  0.6519
  135PROXS  H3246216  10.776  12.560  11.972 -1.2573  1.2276  1.4525
  135PROXS  H3346217  10.743  12.397  11.878  0.8353 -1.7008  3.7372
  136PROXS   O146218  10.510  12.366  12.016 -0.0372 -0.2135  0.3402
  136PROXS   C146219  10.483  12.263  12.114  0.5831 -1.0432 -0.5828
  136PROXS  H1146220  10.574  12.206  12.142  1.6200 -0.1313 -1.9692
  136PROXS  H1346221  10.439  12.304  12.207 -1.0594 -1.0345 -1.3142
  136PROXS   C246222  10.382  12.166  12.056 -0.0556 -0.1741  0.5640
  136PROXS  H2146223  10.431  12.108  11.975 -0.3789 -0.5401  0.6220
  136PROXS   C346224  10.251  12.231  12.005 -0.5453 -0.2704  0.3953
  136PROXS  H3146225  10.196  12.167  11.932  2.0287  0.7656 -2.7088
  136PROXS  H3246226  10.191  12.272  12.089 -1.8106  2.1007 -1.5312
  136PROXS  H3346227  10.281  12.322  11.950  1.6154  0.8122  3.1797
  137PROXS   O146228  10.342  12.076  12.160  0.1112  0.2168 -0.3012
  137PROXS   C146229  10.291  11.950  12.121  1.1321  0.0157 -0.7153
  137PROXS  H1146230  10.197  11.969  12.065  0.3464 -0.1406  0.5028
  137PROXS  H1346231  10.359  11.896  12.052 -1.2697 -1.1799 -2.3112
  137PROXS   C246232  10.243  11.858  12.239  0.5632  0.6065 -0.6009
  137PROXS  H2146233  10.317  11.855  12.321 -0.9636 -0.9041  0.7894
  137PROXS   C346234  10.208  11.718  12.208  0.4934  0.1061 -0.3701
  137PROXS  H3146235  10.167  11.672  12.301  1.8697  0.1668  0.2942
  137PROXS  H3246236  10.134  11.717  12.125 -1.0314  1.5743  0.8975
  137PROXS  H3346237  10.289  11.652  12.171 -1.4593 -1.6968 -1.6602
  138PROXR   O146238  10.125  11.909  12.298  0.6231 -0.6027 -0.0652
  138PROXR   C146239  10.139  12.019  12.388  0.6537  0.5873 -0.4187
  138PROXR  H1146240  10.199  11.988  12.476  0.7729 -1.6249 -1.2209
  138PROXR  H1346241  10.187  12.103  12.332  0.8514  1.0269  0.3899
  138PROXR   C246242   9.995  12.078  12.426  0.4163 -0.4441 -0.6386
  138PROXR  H2146243   9.937  11.988  12.458  0.3171 -0.6486 -1.3739
  138PROXR   C346244   9.923  12.147  12.311 -0.8564  0.6236  0.2997
  138PROXR  H3146245   9.954  12.252  12.297 -0.1378  0.3822  0.0290
  138PROXR  H3246246   9.915  12.082  12.221 -0.1422  0.3458  0.4262
  138PROXR  H3346247   9.816  12.154  12.342  0.0576  0.3345  4.0522
  139PROXS   O146248  10.013  12.175  12.531 -0.0944  0.2049  0.5512
  139PROXS   C146249   9.895  12.199  12.606 -0.1103 -0.2729  0.8646
  139PROXS  H1146250   9.820  12.240  12.535  1.4885 -0.0753 -0.7888
  139PROXS  H1346251   9.844  12.107  12.640  0.2238 -0.6437  0.3751
  139PROXS   C246252   9.909  12.286  12.724  0.0248  0.3106 -0.2939
  139PROXS  H2146253   9.952  12.375  12.673 -0.3798 -0.6212 -2.3693
  139PROXS   C346254   9.992  12.226  12.836 -0.1448 -0.0332 -0.1573
  139PROXS  H3146255   9.935  12.149  12.893 -0.4680  1.2649  1.3431
  139PROXS  H3246256  10.092  12.179  12.827 -0.5519 -1.5643  2.2356
  139PROXS  H3346257  10.023  12.306  12.907  1.3871  0.8331 -1.7392
  140PROXR   O146258   9.786  12.315  12.787  0.1603 -0.1927 -0.1508
  140PROXR   C146259   9.734  12.441  12.741  0.6573  0.2832 -0.1194
  140PROXR  H1146260   9.813  12.519  12.754 -0.2276  1.0900  0.5253
  140PROXR  H1346261   9.698  12.440  12.636 -1.4588  0.7137  0.5539
  140PROXR   C246262   9.613  12.483  12.828  0.8197  0.1793 -0.2786
  140PROXR  H2146263   9.650  12.501  12.931  0.4584  2.0131 -0.4399
  140PROXR   C346264   9.491  12.381  12.812  0.4065  0.6981 -0.5902
  140PROXR  H3146265   9.399  12.415  12.864  2.6427  1.2646  3.3907
  140PROXR  H3246266   9.469  12.378  12.703 -1.3247 -0.1159 -0.2478
  140PROXR  H3346267   9.531  12.283  12.847  0.9347  1.2506  0.3974
  141PROXS   O146268   9.569  12.610  12.776  0.1242  0.0709  0.1136
  141PROXS   C146269   9.507  12.685  12.881  0.3364 -0.7318  0.5227
  141PROXS  H1146270   9.418  12.629  12.917  0.0429  0.7174  2.2309
  141PROXS  H1346271   9.578  12.704  12.964  1.5676 -1.2358 -0.3875
  141PROXS   C246272   9.458  12.821  12.830 -0.0739  0.0480 -0.2238
  141PROXS  H2146273   9.413  12.822  12.728  0.7958 -0.2640 -0.6219
  141PROXS   C346274   9.572  12.924  12.823 -0.4606  1.0246  0.8880
  141PROXS  H3146275   9.644  12.899  12.743 -1.7224  1.8235 -0.5500
  141PROXS  H3246276   9.526  13.022  12.801 -1.2564  0.6745  0.9469
  141PROXS  H3346277   9.625  12.924  12.920  0.1166 -0.1698  0.5966
  142PROXS   O146278   9.370  12.871  12.925  0.3055  0.0473 -0.5835
  142PROXS   C146279   9.232  12.833  12.897  0.0079  0.4329 -1.2932
  142PROXS  H1146280   9.210  12.830  12.788 -0.9903 -1.6497 -1.0904
  142PROXS  H1346281   9.207  12.733  12.938 -3.1586  1.4933 -0.3064
  142PROXS   C246282   9.124  12.926  12.952 -0.0691  0.4250  0.8641
  142PROXS  H2146283   9.148  13.023  12.905 -0.1190 -0.4790 -1.1131
  142PROXS   C346284   9.126  12.935  13.103 -0.4203 -0.5125  0.9495
  142PROXS  H3146285   9.132  12.835  13.151  4.7457 -1.3454 -0.7515
  142PROXS  H3246286   9.221  12.988  13.128  0.4574 -1.3077 -0.5300
  142PROXS  H3346287   9.038  12.996  13.133 -0.5546  0.2494 -0.8776
  143PROXS   O146288   8.997  12.885  12.915 -0.0589 -0.3807 -0.2450
  143PROXS   C146289   8.947  12.931  12.789 -0.2233  0.2814 -0.2898
  143PROXS  H1146290   8.930  13.041  12.791 -1.4443  0.1069 -0.4801
  143PROXS  H1346291   9.022  12.905  12.711  0.1405 -3.3143  1.0782
  143PROXS   C246292   8.812  12.865  12.767  0.8560 -0.1714 -0.1277
  143PROXS  H2146293   8.772  12.905  12.672 -0.9335  1.8131  1.3850
  143PROXS   C346294   8.709  12.914  12.875 -0.6158 -0.5944  0.0581
  143PROXS  H3146295   8.746  12.892  12.977 -0.9107  1.8464  0.7613
  143PROXS  H3246296   8.686  13.023  12.876 -1.2742 -0.7192 -0.8300
  143PROXS  H3346297   8.613  12.870  12.842 -0.5886  1.3488 -3.0410
  144PROXS   O146298   8.829  12.719  12.778  0.3870 -0.2273  0.2713
  144PROXS   C146299   8.878  12.656  12.662 -0.7113  0.6049  0.4836
  144PROXS  H1146300   8.799  12.648  12.585  0.8807 -0.8746 -1.0832
  144PROXS  H1346301   8.971  12.707  12.629 -0.9687  2.0227  1.8012
  144PROXS   C246302   8.927  12.508  12.697  0.0265 -0.2019 -0.0344
  144PROXS  H2146303   8.847  12.433  12.717 -0.3194  0.6439  2.0102
  144PROXS   C346304   9.016  12.517  12.827  0.4284 -0.2135 -0.0273
  144PROXS  H3146305   9.099  12.586  12.801 -1.3255  1.7740 -0.5774
  144PROXS  H3246306   8.960  12.559  12.912 -1.9729 -2.1077 -0.5628
  144PROXS  H3346307   9.057  12.417  12.853 -0.3350 -1.3553 -2.8576
  145PROXR   O146308   9.001  12.465  12.587  0.2617  0.3434  0.1684
  145PROXR   C146309   9.093  12.352  12.603 -0.2849 -0.5118 -0.3243
  145PROXR  H1146310   9.177  12.382  12.668  0.5076 -0.3624 -1.3990
  145PROXR  H1346311   9.040  12.264  12.646 -0.4953 -0.8675 -1.2772
  145PROXR   C246312   9.144  12.307  12.464 -0.3033 -0.1673 -1.0888
  145PROXR  H2146313   9.167  12.392  12.396  0.0553  1.5166  1.0370
  145PROXR   C346314   9.038  12.223  12.384 -0.1401  0.1270 -0.1253
  145PROXR  H3146315   8.941  12.277  12.390 -0.1342  0.0387  1.0820
  145PROXR  H3246316   9.071  12.217  12.278  1.0673  0.9267  0.1738
  145PROXR  H3346317   9.012  12.123  12.423  0.8194 -0.1356 -0.1415
  146PROXS   O146318   9.261  12.227  12.492 -0.2074 -0.2756  0.1197
  146PROXS   C146319   9.350  12.228  12.385  0.0345 -0.3086 -0.0429
  146PROXS  H1146320   9.290  12.205  12.294 -0.6568 -3.0784  1.0310
  146PROXS  H1346321   9.388  12.331  12.370  3.5613 -1.4156  0.4406
  146PROXS   C246322   9.453  12.117  12.404 -0.6418 -0.5409  0.4396
  146PROXS  H2146323   9.396  12.025  12.427 -1.2328 -0.4005 -0.3835
  146PROXS   C346324   9.548  12.150  12.519 -0.7554 -0.1126  0.2873
  146PROXS  H3146325   9.618  12.234  12.499 -1.7913  0.5166 -0.8888
  146PROXS  H3246326   9.486  12.182  12.605 -1.0758  0.6800 -0.2266
  146PROXS  H3346327   9.597  12.057  12.553  0.2369  0.1222 -0.4594
  147PROXR   O146328   9.529  12.102  12.283  0.1580  0.3218 -0.2657
  147PROXR   C146329   9.472  12.007  12.194  0.5125  0.4812  0.3668
  147PROXR  H1146330   9.442  11.915  12.250 -1.2359  0.8833  0.1412
  147PROXR  H1346331   9.379  12.045  12.147  0.4798  1.4981  1.2122
  147PROXR   C246332   9.573  11.958  12.083 -0.4927  0.7388  0.1976
  147PROXR  H2146333   9.650  11.895  12.133  1.4335  2.6022 -0.2804
  147PROXR   C346334   9.651  12.070  12.019  0.2352 -0.1878 -0.3006
  147PROXR  H3146335   9.587  12.122  11.944 -0.1001  0.5245  0.4664
  147PROXR  H3246336   9.694  12.125  12.106  1.2984 -1.5006  0.0269
  147PROXR  H3346337   9.740  12.030  11.966  1.1848 -0.9337  1.7849
  148PROXR   O146338   9.503  11.892  11.983  0.2646  0.6523  0.0910
  148PROXR   C146339   9.496  11.749  12.010  0.7862  0.0284  0.6955
  148PROXR  H1146340   9.588  11.702  11.969  1.7693  2.1161  0.3890
  148PROXR  H1346341   9.475  11.721  12.116 -1.1019  1.4665  0.7632
  148PROXR   C246342   9.365  11.696  11.932 -0.3000 -0.2434  0.0825
  148PROXR  H2146343   9.388  11.728  11.828  0.4713  3.4356  1.2411
  148PROXR   C346344   9.228  11.752  11.975 -0.7637 -0.1089  0.2111
  148PROXR  H3146345   9.148  11.696  11.920  1.7227 -2.1262 -1.5875
  148PROXR  H3246346   9.227  11.742  12.086 -1.8572 -0.3159  0.2004
  148PROXR  H3346347   9.218  11.860  11.950  2.8194  0.6453  1.4492
  149PROXR   O146348   9.360  11.553  11.943 -0.0818  0.3924  0.8593
  149PROXR   C146349   9.306  11.493  11.831 -0.0705 -0.0957  0.3748
  149PROXR  H1146350   9.205  11.525  11.798  0.6259 -0.1777 -2.0972
  149PROXR  H1346351   9.378  11.515  11.750 -0.3194  0.0118  0.1810
  149PROXR   C246352   9.291  11.337  11.848  0.3621 -0.0980  0.3912
  149PROXR  H2146353   9.383  11.302  11.900 -0.5406 -0.8902  1.5017
  149PROXR   C346354   9.282  11.250  11.717 -0.4150 -0.3087 -0.2098
  149PROXR  H3146355   9.267  11.147  11.755 -0.1744 -0.3491 -0.2249
  149PROXR  H3246356   9.196  11.267  11.648 -1.1960 -3.3917 -0.1538
  149PROXR  H3346357   9.380  11.253  11.665 -2.0544 -2.0285 -3.7532
  150PROXS   O146358   9.175  11.297  11.918 -0.8157 -0.5748  0.0481
  150PROXS   C146359   9.187  11.317  12.061 -0.2186  1.2197  0.1797
  150PROXS  H1146360   9.275  11.260  12.099 -0.2583  1.0051 -0.0524
  150PROXS  H1346361   9.198  11.424  12.087 -0.2808  1.1713  0.4093
  150PROXS   C246362   9.057  11.258  12.119 -0.0019 -0.1936 -0.8299
  150PROXS  H2146363   9.070  11.154  12.085  1.5208 -0.7148  1.1691
  150PROXS   C346364   8.926  11.326  12.080  0.5576 -0.5832 -0.8425
  150PROXS  H3146365   8.920  11.327  11.969  1.5914  0.1988 -0.9112
  150PROXS  H3246366   8.839  11.268  12.116 -0.6275  0.8465 -1.3212
  150PROXS  H3346367   8.937  11.430  12.120 -1.0831 -0.4616 -0.6296
  151PROXR   O146368   9.075  11.272  12.256  0.3916  0.1749  0.2546
  151PROXR   C146369   8.973  11.199  12.331 -0.7269  0.1404 -0.6716
  151PROXR  H1146370   8.899  11.278  12.357 -0.1171  0.1449  1.1361
  151PROXR  H1346371   8.920  11.121  12.272  1.3462 -2.1896  0.3937
  151PROXR   C246372   9.038  11.126  12.453  0.4449  0.5490 -0.2012
  151PROXR  H2146373   9.063  11.206  12.526  0.3809 -1.8425  2.6300
  151PROXR   C346374   9.158  11.034  12.419  0.3615  0.3708 -1.0054
  151PROXR  H3146375   9.208  11.001  12.512 -2.0416 -1.9751 -0.4130
  151PROXR  H3246376   9.127  10.948  12.355  0.9202  1.3414 -2.6551
  151PROXR  H3346377   9.220  11.096  12.350 -0.3722 -0.7518 -2.7482
  152PROXR   O146378   8.945  11.048  12.519  0.1053 -0.4408 -0.9246
  152PROXR   C146379   8.930  11.080  12.661 -0.5933  0.8443 -0.2746
  152PROXR  H1146380   9.026  11.063  12.715 -1.2969 -2.2321  0.2238
  152PROXR  H1346381   8.905  11.188  12.666  1.1568  1.4979 -3.1449
  152PROXR   C246382   8.818  10.983  12.718  0.0033  0.7736 -0.3600
  152PROXR  H2146383   8.734  10.963  12.648  0.8346 -1.0108 -0.9131
  152PROXR   C346384   8.774  11.027  12.851 -0.4869 -0.0584 -0.1624
  152PROXR  H3146385   8.856  11.020  12.926 -0.9605  1.2998  0.5301
  152PROXR  H3246386   8.742  11.133  12.846  0.9125  0.4453  0.8364
  152PROXR  H3346387   8.687  10.970  12.891 -1.2146  0.6676 -0.6871
  153PROXR   O146388   8.883  10.861  12.751 -0.3760 -0.0887 -0.1296
  153PROXR   C146389   8.930  10.783  12.642  0.0322  0.7525 -0.1602
  153PROXR  H1146390   9.015  10.833  12.590 -0.2439  0.8938 -0.4776
  153PROXR  H1346391   8.968  10.692  12.693  1.2938  0.8285 -0.9140
  153PROXR   C246392   8.822  10.742  12.539 -0.1718 -0.7464 -0.6741
  153PROXR  H2146393   8.772  10.830  12.492  0.4198 -0.8312 -1.4704
  153PROXR   C346394   8.714  10.656  12.611  0.6519 -0.0501  0.6772
  153PROXR  H3146395   8.750  10.552  12.623  0.7542 -0.0531  0.3559
  153PROXR  H3246396   8.674  10.699  12.705 -1.3096  0.9017 -0.5194
  153PROXR  H3346397   8.622  10.649  12.548  0.2418 -0.3949  1.3086
  154PROXS   O146398   8.876  10.660  12.432 -0.6515 -0.3485 -0.2248
  154PROXS   C146399   8.978  10.724  12.354  0.0234  0.0536  0.0319
  154PROXS  H1146400   8.934  10.821  12.323 -2.0266 -0.6997  0.4190
  154PROXS  H1346401   9.072  10.737  12.412 -1.0154 -1.1212  2.0966
  154PROXS   C246402   9.023  10.644  12.232  0.1851 -0.1360  0.6621
  154PROXS  H2146403   8.933  10.608  12.176 -0.2056 -1.3457  2.0058
  154PROXS   C346404   9.101  10.517  12.276 -0.4364 -0.3003 -0.6299
  154PROXS  H3146405   9.047  10.469  12.361 -0.1252 -1.0477 -0.8434
  154PROXS  H3246406   9.118  10.443  12.194  0.5231 -2.8046  1.6511
  154PROXS  H3346407   9.204  10.553  12.299 -1.2198  0.5074  1.9948
  155PROXR   O146408   9.112  10.722  12.156 -0.0204  0.1202 -0.2842
  155PROXR   C146409   9.135  10.701  12.019 -0.4395  1.0894 -0.7086
  155PROXR  H1146410   9.235  10.654  12.004  0.4794  2.8712 -0.4733
  155PROXR  H1346411   9.057  10.639  11.971 -1.2983 -2.1065  4.0677
  155PROXR   C246412   9.142  10.836  11.946 -0.2143  0.4801  0.7553
  155PROXR  H2146413   9.209  10.908  11.997  1.3980 -0.7131  0.3797
  155PROXR   C346414   9.003  10.902  11.934  0.4519  0.1536  0.0936
  155PROXR  H3146415   8.921  10.834  11.900  0.8207  0.3558 -1.2725
  155PROXR  H3246416   8.979  10.934  12.037  3.4457  0.1494  0.8749
  155PROXR  H3346417   8.990  10.998  11.879 -2.0856 -0.3308 -0.2760
  156PROXS   O146418   9.187  10.807  11.814  0.0390  0.1541  0.0990
  156PROXS   C146419   9.335  10.813  11.792  0.6607  0.6810  0.0905
  156PROXS  H1146420   9.346  10.920  11.766 -0.9088  1.1214  1.1400
  156PROXS  H1346421   9.391  10.782  11.882  0.7640 -1.3088 -0.6014
  156PROXS   C246422   9.379  10.730  11.669  0.2869  0.6579 -0.5223
  156PROXS  H2146423   9.322  10.755  11.577 -0.6493 -0.8486 -0.3864
  156PROXS   C346424   9.371  10.581  11.697 -0.0185 -0.6627 -0.2077
  156PROXS  H3146425   9.405  10.523  11.608 -0.3372 -0.7674 -0.2609
  156PROXS  H3246426   9.436  10.548  11.780 -1.2340  0.3776  1.1990
  156PROXS  H3346427   9.267  10.546  11.713 -0.8792  2.0606  0.5749
  157PROXS   O146428   9.515  10.761  11.650 -0.4627 -0.2966  0.0455
  157PROXS   C146429   9.537  10.868  11.559  0.2735 -0.2244  0.0925
  157PROXS  H1146430   9.550  10.821  11.459  0.5925 -0.8120  0.4081
  157PROXS  H1346431   9.461  10.949  11.563  2.3482  1.8486  0.1735
  157PROXS   C246432   9.671  10.943  11.588  0.1689  0.4063  0.4384
  157PROXS  H2146433   9.750  10.865  11.584 -1.5395 -1.4605  1.4624
  157PROXS   C346434   9.670  11.011  11.720 -0.4522 -0.1405  0.4608
  157PROXS  H3146435   9.603  11.099  11.728 -0.6316 -0.2321 -0.0072
  157PROXS  H3246436   9.630  10.940  11.795  0.5753  0.2782  1.4402
  157PROXS  H3346437   9.774  11.040  11.748 -0.5030 -0.3931  0.9184
  158PROXR   O146438   9.688  11.035  11.477  0.2112 -0.0862  0.0553
  158PROXR   C146439   9.823  11.052  11.439 -0.8218 -0.4121  0.3529
  158PROXR  H1146440   9.881  11.091  11.526 -1.5920  2.5306 -0.3480
  158PROXR  H1346441   9.871  10.955  11.415 -0.5284 -0.4001  0.8793
  158PROXR   C246442   9.855  11.158  11.327  0.0225  0.6007 -0.0186
  158PROXR  H2146443   9.787  11.140  11.241  1.1817 -0.3308 -0.7692
  158PROXR   C346444  10.001  11.139  11.279  0.1663 -0.5429  0.5886
  158PROXR  H3146445  10.027  11.046  11.224  0.0585 -0.6912  0.7885
  158PROXR  H3246446  10.022  11.220  11.206 -0.7534 -0.5108  0.3548
  158PROXR  H3346447  10.069  11.145  11.367  0.5265 -0.7886  0.3288
  159PROXR   O146448   9.853  11.288  11.390 -0.4926 -0.0584  0.2850
  159PROXR   C146449   9.719  11.346  11.379 -0.3538  0.0713 -0.2341
  159PROXR  H1146450   9.726  11.399  11.282 -0.6883 -0.3024 -0.4691
  159PROXR  H1346451   9.633  11.275  11.375  0.8126 -1.3744 -0.3955
  159PROXR   C246452   9.694  11.451  11.489  0.5039  0.2664 -0.2793
  159PROXR  H2146453   9.785  11.515  11.481  0.9443 -0.5075 -1.9119
  159PROXR   C346454   9.678  11.376  11.621 -0.0505  0.8793 -0.0974
  159PROXR  H3146455   9.626  11.279  11.606  0.2934  0.6139  0.3919
  159PROXR  H3246456   9.777  11.353  11.666 -0.4409 -0.5148  0.1196
  159PROXR  H3346457   9.608  11.430  11.688  0.0926  1.7037 -0.5952
  160PROXS   O146458   9.580  11.524  11.451 -0.0603  0.3512 -0.4746
  160PROXS   C146459   9.584  11.656  11.492 -0.0417 -0.2506 -0.5874
  160PROXS  H1146460   9.588  11.654  11.603  0.5109 -0.5752 -0.6110
  160PROXS  H1346461   9.676  11.705  11.455  0.3098 -0.8800 -0.5591
  160PROXS   C246462   9.460  11.739  11.452  0.1924 -0.0042  0.2585
  160PROXS  H2146463   9.366  11.699  11.495 -0.5817  0.5449 -0.8731
  160PROXS   C346464   9.438  11.745  11.295  0.2631  0.4967 -0.1987
  160PROXS  H3146465   9.445  11.640  11.259 -3.2444 -0.0826  0.3682
  160PROXS  H3246466   9.339  11.786  11.267  0.2753  0.0822 -0.8798
  160PROXS  H3346467   9.514  11.812  11.251 -0.7167  0.7211 -1.6041
  161PROXR   O146468   9.462  11.868  11.500 -0.1215  0.4464  0.1470
  161PROXR   C146469   9.349  11.945  11.474  0.3791  0.4787 -0.0133
  161PROXR  H1146470   9.348  11.982  11.369 -0.4742  0.4057 -0.0362
  161PROXR  H1346471   9.256  11.885  11.485 -0.1958  0.7549 -2.6649
  161PROXR   C246472   9.343  12.070  11.564 -0.3985 -0.6292 -0.5487
  161PROXR  H2146473   9.440  12.119  11.543 -0.3178 -0.6323 -0.1934
  161PROXR   C346474   9.339  12.039  11.719  0.5182  0.1054 -0.0081
  161PROXR  H3146475   9.423  11.973  11.748  1.8163  1.6370 -0.1686
  161PROXR  H3246476   9.331  12.128  11.784 -0.5078 -1.1316  1.6674
  161PROXR  H3346477   9.245  11.983  11.738  1.0533 -0.5773  0.7037
  162PROXR   O146478   9.234  12.149  11.524  0.4510 -0.0854  0.0967
  162PROXR   C146479   9.246  12.288  11.572 -0.0946  0.3491  0.2550
  162PROXR  H1146480   9.322  12.303  11.652  0.1482  1.7831 -0.2114
  162PROXR  H1346481   9.301  12.338  11.489  3.1776 -1.7633  0.9560
  162PROXR   C246482   9.117  12.375  11.593  0.7451  0.4026 -0.5798
  162PROXR  H2146483   9.053  12.371  11.502  1.2987 -1.0308 -0.9404
  162PROXR   C346484   9.156  12.519  11.630  0.4019  0.3814 -0.2001
  162PROXR  H3146485   9.062  12.577  11.642 -0.6692 -1.4650  0.8196
  162PROXR  H3246486   9.221  12.511  11.719  1.1221 -2.6912 -0.8821
  162PROXR  H3346487   9.212  12.567  11.547  1.3583  0.0186  0.2270
  163PROXS   O146488   9.054  12.325  11.710 -0.0393 -0.2966 -0.1328
  163PROXS   C146489   8.984  12.199  11.690  0.0795  0.4847  0.3374
  163PROXS  H1146490   8.910  12.205  11.607  0.3168  0.0931  0.0934
  163PROXS  H1346491   9.052  12.114  11.667 -0.6210 -1.1388  3.6800
  163PROXS   C246492   8.899  12.162  11.820 -0.1821 -0.4009  0.0591
  163PROXS  H2146493   8.826  12.242  11.843 -1.4427 -1.1398 -1.2058
  163PROXS   C346494   8.981  12.119  11.938 -1.2362 -0.4405  0.0626
  163PROXS  H3146495   9.015  12.201  12.004 -0.3405 -1.2605  0.6526
  163PROXS  H3246496   8.931  12.036  11.992 -1.9222 -1.4779 -2.0380
  163PROXS  H3346497   9.071  12.064  11.902 -0.3965  0.1105  1.2790
  164PROXR   O146498   8.828  12.047  11.790 -0.0686 -0.1504  0.3586
  164PROXR   C146499   8.715  12.070  11.714  0.5371  1.2702  0.7948
  164PROXR  H1146500   8.714  12.169  11.664  1.4168  1.0415  0.3038
  164PROXR  H1346501   8.720  11.995  11.632  0.5441 -1.0836  2.8448
  164PROXR   C246502   8.591  12.046  11.799 -0.1541 -0.4149  0.0142
  164PROXR  H2146503   8.577  12.130  11.872  2.6726  0.2206 -0.0506
  164PROXR   C346504   8.597  11.913  11.877  0.6322  0.1577 -0.0993
  164PROXR  H3146505   8.681  11.915  11.949  0.6398  2.3644 -0.0968
  164PROXR  H3246506   8.500  11.899  11.930  0.6200  0.5634 -0.0078
  164PROXR  H3346507   8.607  11.836  11.799 -1.5060  1.4997 -1.8072
  165PROXR   O146508   8.484  12.048  11.703  0.0452  0.0019 -0.0034
  165PROXR   C146509   8.354  12.042  11.765 -1.0103  0.3290  0.7954
  165PROXR  H1146510   8.323  11.936  11.779 -0.1419 -0.1164 -0.5178
  165PROXR  H1346511   8.349  12.088  11.867 -2.0369  0.5670  0.6422
  165PROXR   C246512   8.251  12.124  11.682 -0.2747  0.2342  0.1825
  165PROXR  H2146513   8.248  12.079  11.581  1.7859 -0.2181  0.2653
  165PROXR   C346514   8.307  12.269  11.673  0.4593  0.2359  0.6069
  165PROXR  H3146515   8.407  12.277  11.625  0.1189 -0.0755 -0.1770
  165PROXR  H3246516   8.248  12.333  11.603  0.5842 -0.3024 -0.0042
  165PROXR  H3346517   8.325  12.313  11.773  0.5177  0.7714  0.3687
  166ETHOX   O146518   8.123  12.120  11.751 -0.1433 -0.6358 -0.4044
  166ETHOX   C146519   8.011  12.168  11.672  0.2438  0.8893 -0.1870
  166ETHOX  H1146520   7.976  12.081  11.613  1.7285 -1.2275  1.8365
  166ETHOX  H1346521   8.043  12.255  11.611 -0.8703 -0.3010 -2.5981
  166ETHOX   C246522   7.894  12.217  11.760 -0.6295 -0.6629  0.7061
  166ETHOX  H2146523   7.824  12.264  11.688  0.2924  0.6057  0.5916
  166ETHOX  H2346524   7.927  12.293  11.834  2.0230 -2.5516  1.6235
  167ETHOX   O146525   7.810  12.124  11.837 -0.6057 -0.5951 -0.8278
  167ETHOX   C146526   7.745  12.017  11.765 -0.5949  0.1475  0.3191
  167ETHOX  H1146527   7.671  12.071  11.702  2.2876  3.6307 -0.4541
  167ETHOX  H1346528   7.818  11.969  11.696 -1.8743 -2.3339  0.5596
  167ETHOX   C246529   7.684  11.918  11.861 -0.2209  0.1882  1.0026
  167ETHOX  H2146530   7.622  11.970  11.937  1.5452  1.2972  1.7502
  167ETHOX  H2346531   7.763  11.891  11.934 -0.2434  0.3886  1.1023
  168ETHOX   O146532   7.633  11.796  11.796 -0.3563  0.3797 -0.8342
  168ETHOX   C146533   7.632  11.690  11.886  0.2252 -0.1187 -0.1914
  168ETHOX  H1146534   7.570  11.719  11.974 -0.8868  1.8050 -1.5194
  168ETHOX  H1346535   7.735  11.672  11.923 -0.3330 -0.7301  1.1438
  168ETHOX   C246536   7.581  11.561  11.824  0.1502  0.1679  0.2227
  168ETHOX  H2146537   7.492  11.587  11.764 -0.2427 -0.6710  0.4159
  168ETHOX  H2346538   7.564  11.485  11.904  2.8048 -0.4145  0.3533
  169ETHOX   O146539   7.674  11.497  11.730  0.1483  0.0767 -0.4894
  169ETHOX   C146540   7.611  11.372  11.688  0.1831 -0.7728 -0.3936
  169ETHOX  H1146541   7.596  11.315  11.782 -0.5611 -1.0127 -0.6514
  169ETHOX  H1346542   7.509  11.385  11.647 -0.1724 -3.5350 -0.6163
  169ETHOX   C246543   7.697  11.307  11.578 -0.8434  0.9505 -0.5027
  169ETHOX  H2146544   7.730  11.387  11.508 -1.1632 -0.2264 -2.0641
  169ETHOX  H2346545   7.628  11.233  11.532  0.5505 -1.4064  1.0062
  170ETHOX   O146546   7.808  11.227  11.614 -0.3376  0.2105 -0.3885
  170ETHOX   C146547   7.917  11.310  11.642  0.1617 -0.0463 -0.0372
  170ETHOX  H1146548   7.881  11.381  11.720 -1.8454 -2.7707  1.6955
  170ETHOX  H1346549   7.944  11.368  11.551 -0.3316 -1.2681 -1.0036
  170ETHOX   C246550   8.036  11.237  11.703 -0.5519  0.2192  0.7647
  170ETHOX  H2146551   8.123  11.306  11.705 -0.2829 -0.0787 -0.3034
  170ETHOX  H2346552   8.058  11.160  11.626  1.1741  1.2706  0.1521
  171ETHOX   O146553   8.026  11.182  11.832 -0.1419 -0.1162  0.7599
  171ETHOX   C146554   7.934  11.079  11.842 -0.2306 -0.0222 -0.3180
  171ETHOX  H1146555   7.832  11.121  11.851  0.4312  1.4112  0.8795
  171ETHOX  H1346556   7.938  11.006  11.758  0.5293 -0.2116 -0.1273
  171ETHOX   C246557   7.956  11.000  11.973  0.5615  0.1556 -0.9739
  171ETHOX  H2146558   7.862  10.952  12.007  0.1348  1.5833 -0.0647
  171ETHOX  H2346559   7.985  11.075  12.050 -1.0383  0.3726 -0.5463
  172ETHOX   O146560   8.044  10.896  11.967 -0.3591  0.0262 -0.1033
  172ETHOX   C146561   8.177  10.931  11.983 -0.9145  0.0854 -0.2041
  172ETHOX  H1146562   8.192  11.022  12.045 -0.3798  1.6168 -2.4619
  172ETHOX  H1346563   8.228  10.957  11.888  0.8767  1.0130  0.9530
  172ETHOX   C246564   8.260  10.806  12.029 -0.1177  0.4746  0.2385
  172ETHOX  H2146565   8.368  10.833  12.025 -0.0368  0.0264 -0.9546
  172ETHOX  H2346566   8.232  10.719  11.966  1.6935  0.1527 -0.1756
  173ETHOX   O146567   8.235  10.773  12.169 -0.0333 -0.1054  0.6116
  173ETHOX   C146568   8.308  10.650  12.195  0.0405 -0.1984 -0.8157
  173ETHOX  H1146569   8.275  10.575  12.120 -1.5013  0.7529 -1.1501
  173ETHOX  H1346570   8.418  10.655  12.182 -0.0271  2.6895 -1.0453
  173ETHOX   C246571   8.273  10.573  12.328  0.7805  0.0647 -0.1818
  173ETHOX  H2146572   8.162  10.573  12.332  0.7381 -0.9034 -1.0187
  173ETHOX  H2346573   8.302  10.466  12.324 -2.0020 -0.7364 -2.0222
  174ETHOX   O146574   8.332  10.628  12.446 -0.0098 -0.3553 -0.1650
  174ETHOX   C146575   8.333  10.529  12.555 -0.1725  0.1532  0.2318
  174ETHOX  H1146576   8.397  10.446  12.518 -0.9434 -1.3194  2.0619
  174ETHOX  H1346577   8.384  10.563  12.647  2.1439  0.0298 -0.9393
  174ETHOX   C246578   8.194  10.482  12.593 -0.1679  0.1314 -0.0110
  174ETHOX  H2146579   8.205  10.385  12.645 -0.8941  0.6819  1.1969
  174ETHOX  H2346580   8.119  10.469  12.512  1.2158 -1.4421 -1.1325
  175ETHOX   O146581   8.128  10.583  12.673 -0.5794  0.1686  0.8098
  175ETHOX   C146582   8.055  10.518  12.778 -0.0188  0.2555  0.6537
  175ETHOX  H1146583   7.979  10.450  12.736  0.2444  0.4119 -0.0980
  175ETHOX  H1346584   8.118  10.454  12.844 -0.9575 -1.1531  0.2118
  175ETHOX   C246585   7.960  10.612  12.857  0.0610  0.0816  0.9203
  175ETHOX  H2146586   7.883  10.541  12.894  0.0575 -0.1640  0.4457
  175ETHOX  H2346587   7.912  10.688  12.792 -0.4536  0.6659  1.9558
  176ETHOX   O146588   8.016  10.678  12.971  0.1200 -0.2502 -0.3363
  176ETHOX   C146589   8.097  10.797  12.934  0.0746 -0.2141 -0.2610
  176ETHOX  H1146590   8.132  10.801  12.829  0.4133  0.3500 -0.1315
  176ETHOX  H1346591   8.029  10.884  12.949 -0.9614 -1.0451 -0.0287
  176ETHOX   C246592   8.208  10.827  13.032 -0.0048  0.3767  0.7286
  176ETHOX  H2146593   8.158  10.850  13.129 -0.3196 -1.6694  1.0779
  176ETHOX  H2346594   8.250  10.924  12.997  0.8287 -0.8583 -1.9334
  177ETHOX   O146595   8.318  10.729  13.045 -0.1461  0.2884 -0.7096
  177ETHOX   C146596   8.401  10.715  12.921 -0.3756  0.0642 -0.5377
  177ETHOX  H1146597   8.479  10.794  12.913  0.0519 -0.1440  1.1545
  177ETHOX  H1346598   8.331  10.714  12.835 -1.5887 -2.1599  0.3925
  177ETHOX   C246599   8.479  10.588  12.946 -0.5468 -0.5833 -0.1789
  177ETHOX  H2146600   8.521  10.597  13.049 -1.0731  2.1298 -0.1423
  177ETHOX  H2346601   8.569  10.581  12.881  0.0098 -0.0939  0.5184
  178ETHOX   O146602   8.399  10.474  12.918 -0.3807 -0.0507 -0.4030
  178ETHOX   C146603   8.474  10.358  12.918 -0.1124  0.9203  0.0184
  178ETHOX  H1146604   8.546  10.366  12.833  1.1868  0.4918  1.0626
  178ETHOX  H1346605   8.526  10.332  13.012 -2.0432 -1.4729  0.4949
  178ETHOX   C246606   8.387  10.230  12.873  0.0018  0.2412  0.2837
  178ETHOX  H2146607   8.442  10.134  12.862 -2.6189 -1.2805 -0.3860
  178ETHOX  H2346608   8.339  10.258  12.777  0.2114  1.4656  0.5308
  179ETHOX   O146609   8.276  10.204  12.963 -0.3599 -0.6379 -0.2447
  179ETHOX   C146610   8.188  10.100  12.916  0.1448  0.5804  0.3300
  179ETHOX  H1146611   8.177  10.035  13.005 -0.1368 -2.5056 -1.8334
  179ETHOX  H1346612   8.232  10.027  12.845 -2.0114 -1.1888  0.7255
  179ETHOX   C246613   8.042  10.145  12.872  0.3234 -0.4753  0.3926
  179ETHOX  H2146614   8.008  10.234  12.930 -0.6355  0.1359 -1.0465
  179ETHOX  H2346615   7.978  10.058  12.898  0.0838 -0.1915  0.7671
  180ETHOX   O146616   8.043  10.191  12.734 -0.8563 -0.1186 -0.3473
  180ETHOX   C146617   7.930  10.140  12.670  0.6515  0.1542  0.0274
  180ETHOX  H1146618   7.932  10.029  12.672  1.0257  0.0226 -2.9027
  180ETHOX  H1346619   7.842  10.171  12.730  0.1288  0.5759 -0.9361
  180ETHOX   C246620   7.912  10.204  12.533 -0.1688  0.1967 -0.0726
  180ETHOX  H2146621   7.942  10.308  12.554  2.7121 -1.0073  2.5453
  180ETHOX  H2346622   7.810  10.187  12.492 -0.9540  0.2676  1.7509
  181ETHOX   O146623   8.016  10.155  12.439  0.0534 -0.2366  0.1993
  181ETHOX   C146624   8.006  10.219  12.314 -0.6525 -0.3273  0.0357
  181ETHOX  H1146625   8.006  10.329  12.327 -0.2487 -0.5432  2.1791
  181ETHOX  H1346626   7.914  10.179  12.267 -1.0125  0.7305 -0.1989
  181ETHOX   C246627   8.128  10.186  12.229 -0.1445 -0.5863  0.2218
  181ETHOX  H2146628   8.107  10.209  12.122 -1.9729 -0.1435  0.6344
  181ETHOX  H2346629   8.137  10.076  12.228 -1.6914 -0.7361 -1.2102
  182ETHOX   O146630   8.239  10.254  12.287  0.4628 -0.0225 -0.1935
  182ETHOX   C146631   8.352  10.227  12.209 -0.2128 -0.5611  0.4042
  182ETHOX  H1146632   8.368  10.117  12.215 -0.5633 -0.5988  0.6239
  182ETHOX  H1346633   8.331  10.250  12.103 -0.3544  1.0602  0.7593
  182ETHOX   C246634   8.488  10.290  12.254 -0.1544  0.4041 -0.2469
  182ETHOX  H2146635   8.492  10.400  12.239  1.2432  0.3036 -0.8126
  182ETHOX  H2346636   8.559  10.254  12.177  0.3011 -2.6079  1.4139
  183ETHOX   O146637   8.538  10.243  12.377 -0.0896 -0.4326  0.2021
  183ETHOX   C146638   8.640  10.326  12.434 -0.9692 -0.2548 -0.0199
  183ETHOX  H1146639   8.612  10.432  12.455  1.9269  0.4965  0.5207
  183ETHOX  H1346640   8.734  10.343  12.376 -1.4303  0.3171 -0.6060
  183ETHOX   C246641   8.687  10.278  12.579  0.3515 -0.3451 -0.5780
  183ETHOX  H2146642   8.604  10.277  12.653  1.1865 -1.5192  0.3816
  183ETHOX  H2346643   8.767  10.339  12.627  1.0816 -2.8322  1.5949
  184ETHOX   O146644   8.734  10.145  12.579 -0.5670  0.0407 -0.0421
  184ETHOX   C146645   8.791  10.109  12.704  0.0209 -0.2419  0.3601
  184ETHOX  H1146646   8.878  10.171  12.731  1.3552 -2.4967  1.5116
  184ETHOX  H1346647   8.713  10.127  12.781  0.0928 -0.9862  0.6168
  184ETHOX   C246648   8.838   9.966  12.704  0.4601 -0.3142  0.6159
  184ETHOX  H2146649   8.943   9.954  12.669  1.1135 -1.2983  2.7160
  184ETHOX  H2346650   8.768   9.899  12.650 -1.9979  2.7021 -0.2195
  185ETHOX   O146651   8.848   9.924  12.837  0.1057  0.0620 -0.0457
  185ETHOX   C146652   8.915   9.797  12.858  0.0885  0.7949 -0.2121
  185ETHOX  H1146653   8.974   9.767  12.769 -2.0425 -0.9133 -1.1222
  185ETHOX  H1346654   8.984   9.808  12.944 -0.0530 -0.8080  0.1385
  185ETHOX   C246655   8.810   9.687  12.890  0.5578  0.1111  0.0271
  185ETHOX  H2146656   8.751   9.719  12.978 -0.6797 -0.9060 -0.4048
  185ETHOX  H2346657   8.863   9.596  12.926  0.1633  0.0128  0.3590
  186ETHOX   O146658   8.723   9.645  12.783  0.1474  0.0084  0.1251
  186ETHOX   C146659   8.612   9.566  12.826  0.6884 -0.9897  0.0201
  186ETHOX  H1146660   8.650   9.490  12.897 -0.6250 -0.1597  1.6818
  186ETHOX  H1346661   8.533   9.628  12.874 -2.2175 -3.5347 -1.1526
  186ETHOX   C246662   8.539   9.494  12.716  0.1329  0.3583 -0.0766
  186ETHOX  H2146663   8.483   9.406  12.754  1.6179 -0.2524  0.7384
  186ETHOX  H2346664   8.608   9.467  12.633  2.0327  0.4412  1.4162
  187ETHOX   O146665   8.437   9.577  12.656  0.2042  0.3816 -0.1108
  187ETHOX   C146666   8.352   9.501  12.567  0.1527  0.0225  1.1072
  187ETHOX  H1146667   8.397   9.402  12.543  0.1968  0.0698  0.9944
  187ETHOX  H1346668   8.251   9.488  12.612 -0.2588  0.1736  0.2382
  187ETHOX   C246669   8.323   9.572  12.433  0.4834  0.9664 -0.4577
  187ETHOX  H2146670   8.417   9.576  12.374  0.4344  1.0676 -0.5271
  187ETHOX  H2346671   8.278   9.671  12.452 -0.9518 -0.2294  3.3969
  188ETHOX   O146672   8.225   9.499  12.357 -0.7663  0.4992 -0.8437
  188ETHOX   C146673   8.093   9.528  12.408  0.2580 -0.5123  0.4123
  188ETHOX  H1146674   8.065   9.634  12.392 -0.4684 -0.8652 -0.8652
  188ETHOX  H1346675   8.077   9.499  12.514 -0.9858 -1.5219 -0.0195
  188ETHOX   C246676   8.003   9.444  12.317  0.1041  0.0835  0.0693
  188ETHOX  H2146677   8.028   9.337  12.332  1.1490  0.5352  1.9649
  188ETHOX  H2346678   8.017   9.456  12.208  1.4854 -2.7903 -0.1734
  189ETHOX   O146679   7.867   9.459  12.345  0.2127 -0.2053  0.3950
  189ETHOX   C146680   7.789   9.397  12.241  0.1005  0.7554  0.7511
  189ETHOX  H1146681   7.815   9.453  12.149 -0.5399  1.0283  0.7268
  189ETHOX  H1346682   7.830   9.294  12.233 -0.3665  0.5657  0.7577
  189ETHOX   C246683   7.639   9.403  12.249 -1.3659  1.2138  0.3556
  189ETHOX  H2146684   7.602   9.352  12.340 -2.3217  1.5591  0.1694
  189ETHOX  H2346685   7.601   9.351  12.159  0.8143  0.3364 -0.1312
  190ETHOX   O146686   7.612   9.538  12.246  0.5098  0.1726 -0.0803
  190ETHOX   C146687   7.475   9.554  12.284  0.4985  0.1069  0.1167
  190ETHOX  H1146688   7.461   9.548  12.394  0.0689 -2.8373  0.0022
  190ETHOX  H1346689   7.398   9.483  12.247 -1.8720  2.6683 -0.1756
  190ETHOX   C246690   7.419   9.696  12.258  0.2393 -0.0312 -0.3076
  190ETHOX  H2146691   7.313   9.715  12.284  0.3261  0.2812 -0.1721
  190ETHOX  H2346692   7.432   9.728  12.153 -0.4899 -1.6554 -0.9229
  191ETHOX   O146693   7.482   9.783  12.353  0.6683 -0.3640  0.5421
  191ETHOX   C146694   7.509   9.918  12.303 -0.3639 -0.5843  0.3332
  191ETHOX  H1146695   7.577   9.916  12.215  1.5512  0.6020  1.7140
  191ETHOX  H1346696   7.419   9.972  12.267  0.7540  0.8258 -0.4627
  191ETHOX   C246697   7.565   9.994  12.427 -0.3360  0.2239  0.1593
  191ETHOX  H2146698   7.600  10.093  12.392  1.2666 -0.7745 -1.2190
  191ETHOX  H2346699   7.661   9.946  12.455  0.9302  1.4615 -1.8203
  192ETHOX   O146700   7.474   9.999  12.534  0.4461 -0.2647  0.3399
  192ETHOX   C146701   7.512  10.098  12.629  0.2927 -0.6505  0.4971
  192ETHOX  H1146702   7.470  10.193  12.591 -0.6432 -1.1225  0.3148
  192ETHOX  H1346703   7.623  10.100  12.638  0.2118 -0.3267  1.6174
  192ETHOX   C246704   7.452  10.070  12.765  0.1296 -0.5869 -0.0154
  192ETHOX  H2146705   7.453   9.961  12.785 -0.9296 -1.4409 -3.8607
  192ETHOX  H2346706   7.349  10.111  12.774  0.7239  0.5190  3.1329
  193ETHOX   O146707   7.540  10.139  12.860  0.0819 -0.2318 -0.1469
  193ETHOX   C146708   7.513  10.120  12.999 -0.0244  0.1121 -0.5746
  193ETHOX  H1146709   7.436  10.183  13.049 -0.4433 -1.0687  0.3212
  193ETHOX  H1346710   7.472  10.017  13.007  1.4761 -0.4433  0.3813
  193ETHOX   C246711   7.641  10.110  13.094  0.1179 -0.2618 -0.0369
  193ETHOX  H2146712   7.712  10.037  13.050 -0.6056 -2.2699  1.9358
  193ETHOX  H2346713   7.607  10.079  13.196  1.6069  1.3241  0.9858
  194ETHOX   O146714   7.699  10.234  13.104  0.3271  0.0646  0.2927
  194ETHOX   C146715   7.825  10.223  13.171  1.3964  0.3718 -0.8265
  194ETHOX  H1146716   7.890  10.294  13.117  2.6840 -0.4975 -0.4750
  194ETHOX  H1346717   7.868  10.123  13.147  1.5388  0.5932 -1.5088
  194ETHOX   C246718   7.823  10.256  13.321  0.0245  0.3703  0.2324
  194ETHOX  H2146719   7.771  10.354  13.327 -1.5221 -0.4170  0.1918
  194ETHOX  H2346720   7.930  10.265  13.352  0.0758 -0.5007  0.3201
  195ETHOX   O146721   7.766  10.145  13.391  0.2502  0.0488  0.3623
  195ETHOX   C146722   7.754  10.164  13.529 -0.0545 -0.2566  0.4054
  195ETHOX  H1146723   7.818  10.251  13.558 -1.2488  0.9706 -0.4914
  195ETHOX  H1346724   7.647  10.190  13.543  0.2481  1.5039 -0.1701
  195ETHOX   C246725   7.793  10.040  13.607 -0.0413 -0.4819  0.4725
  195ETHOX  H2146726   7.789  10.059  13.716 -0.7304 -1.6852  0.6846
  195ETHOX  H2346727   7.898  10.020  13.576  0.9527  2.2488  1.7662
  196ETHOX   O146728   7.714   9.924  13.580  0.7726 -0.3391  0.4080
  196ETHOX   C146729   7.767   9.802  13.635 -0.1236 -0.3823 -0.1876
  196ETHOX  H1146730   7.795   9.825  13.740 -3.5047  1.8322  0.4088
  196ETHOX  H1346731   7.693   9.719  13.643  1.6424 -2.2556 -2.1449
  196ETHOX   C246732   7.886   9.748  13.555 -0.1579 -0.3177 -0.1190
  196ETHOX  H2146733   7.952   9.690  13.623 -1.1377 -1.0717  0.2135
  196ETHOX  H2346734   7.950   9.824  13.507  0.0357  1.5456  2.8312
  197ETHOX   O146735   7.843   9.656  13.452 -0.5568  0.0576  0.3434
  197ETHOX   C146736   7.785   9.727  13.348  0.2709  0.4638 -0.1913
  197ETHOX  H1146737   7.684   9.755  13.385 -1.2538 -1.8613 -2.2164
  197ETHOX  H1346738   7.844   9.820  13.337  2.2912 -0.6069  1.0066
  197ETHOX   C246739   7.768   9.646  13.215 -0.8506  0.1147  0.3138
  197ETHOX  H2146740   7.870   9.626  13.176 -1.2373  0.4419 -0.9138
  197ETHOX  H2346741   7.708   9.708  13.145  0.5856  0.3635 -0.7390
  198ETHOX   O146742   7.694   9.527  13.213  0.3377  0.3941  0.6997
  198ETHOX   C146743   7.774   9.410  13.191 -0.1085  0.3210 -0.1545
  198ETHOX  H1146744   7.813   9.402  13.087 -0.2381 -1.3419 -0.1153
  198ETHOX  H1346745   7.858   9.403  13.264  0.2358 -1.5794 -0.6601
  198ETHOX   C246746   7.699   9.278  13.201  0.2247  0.1289 -0.3423
  198ETHOX  H2146747   7.634   9.274  13.291 -1.4774  2.0661 -1.3961
  198ETHOX  H2346748   7.785   9.208  13.205  2.2260  2.2973 -2.0241
  199ETHOX   O146749   7.620   9.245  13.083  0.6238  0.4405  0.0529
  199ETHOX   C146750   7.556   9.119  13.099 -0.0079  0.0556  0.7620
  199ETHOX  H1146751   7.504   9.105  13.196  1.0084 -2.9261  0.9679
  199ETHOX  H1346752   7.640   9.047  13.094  1.5121  1.7588  0.5061
  199ETHOX   C246753   7.480   9.091  12.968  0.7863  0.2070 -0.3615
  199ETHOX  H2146754   7.399   9.166  12.957 -0.4897 -1.2978 -1.6874
  199ETHOX  H2346755   7.434   8.991  12.981 -0.2554  0.1503 -3.5998
  200ETHOX   O146756   7.549   9.102  12.845 -0.2194  0.9810 -0.1371
  200ETHOX   C146757   7.471   9.034  12.747  0.1369 -0.4299  0.1016
  200ETHOX  H1146758   7.444   8.933  12.787  4.2183 -1.3982  0.8986
  200ETHOX  H1346759   7.381   9.099  12.739 -2.2029 -2.7909  3.9049
  200ETHOX   C246760   7.546   9.031  12.613 -0.2735  0.4051  0.5052
  200ETHOX  H2146761   7.552   9.137  12.581 -1.4952  0.7234  1.2369
  200ETHOX  H2346762   7.487   8.981  12.532  0.0443 -1.6480  1.4908
  201ETHOX   O146763   7.671   8.968  12.617  0.7584 -0.3801  0.1086
  201ETHOX   C146764   7.748   8.971  12.499 -0.7789  0.1800 -0.3796
  201ETHOX  H1146765   7.753   9.074  12.457  3.1818  0.0693 -0.5631
  201ETHOX  H1346766   7.699   8.910  12.421  0.3978  1.5406 -2.2687
  201ETHOX   C246767   7.893   8.919  12.531  0.4956 -0.2129 -0.2729
  201ETHOX  H2146768   7.946   8.913  12.433  1.7553  0.7168  0.3263
  201ETHOX  H2346769   7.874   8.814  12.562 -3.4602  0.2541 -0.5341
  202ETHOX   O146770   7.987   8.977  12.626  0.0859 -0.0325  0.5054
  202ETHOX   C146771   8.029   9.106  12.603  0.2093  0.9965 -0.3312
  202ETHOX  H1146772   8.094   9.105  12.513  1.2097 -0.4471  0.3792
  202ETHOX  H1346773   7.937   9.163  12.577 -1.8005 -1.6830  0.4492
  202ETHOX   C246774   8.097   9.175  12.722  0.7690 -0.3879 -0.4421
  202ETHOX  H2146775   8.036   9.166  12.814  1.5632  1.2955  0.2875
  202ETHOX  H2346776   8.110   9.283  12.702 -1.4828  0.5344  2.3566
  203ETHOX   O146777   8.224   9.129  12.748  0.3619  0.3093  1.2157
  203ETHOX   C146778   8.235   9.009  12.826 -0.4300  0.8691  0.1687
  203ETHOX  H1146779   8.216   8.921  12.761  1.3528 -0.4680  1.3775
  203ETHOX  H1346780   8.152   9.014  12.900 -0.9633 -1.1646 -0.2382
  203ETHOX   C246781   8.363   8.985  12.902  0.0259 -0.3082 -0.5706
  203ETHOX  H2146782   8.452   9.004  12.838  0.1860 -1.0744 -0.5851
  203ETHOX  H2346783   8.359   8.884  12.948  1.3326  0.2485  0.8594
  204ETHOX   O146784   8.389   9.065  13.020 -0.1374  0.1148 -0.4403
  204ETHOX   C146785   8.412   9.206  12.983  0.7784 -0.1603 -0.6674
  204ETHOX  H1146786   8.490   9.210  12.904  0.7080  0.9687 -0.7042
  204ETHOX  H1346787   8.319   9.254  12.945  1.3478  0.5366 -1.2251
  204ETHOX   C246788   8.460   9.280  13.113  0.4723  0.1558  0.3869
  204ETHOX  H2146789   8.389   9.272  13.198  1.8446  0.3685  1.6046
  204ETHOX  H2346790   8.475   9.388  13.092 -1.1172  0.2717 -0.2617
  205ETHOX   O146791   8.590   9.233  13.156 -0.8783  0.0739 -0.1731
  205ETHOX   C146792   8.651   9.303  13.263 -0.6008  0.1572  0.5715
  205ETHOX  H1146793   8.571   9.324  13.338 -1.0607 -1.7944  0.7033
  205ETHOX  H1346794   8.700   9.394  13.224  1.6233 -0.5932  1.4795
  205ETHOX   C246795   8.748   9.213  13.342 -0.6150  0.1784  0.9103
  205ETHOX  H2146796   8.731   9.104  13.329  1.1901 -0.2288  1.6832
  205ETHOX  H2346797   8.743   9.242  13.449 -0.3471 -0.1485  1.0149
  206ETHOX   O146798   8.884   9.237  13.292 -0.3168 -0.0304 -0.0545
  206ETHOX   C146799   8.987   9.158  13.347  0.3475 -0.5190 -0.3454
  206ETHOX  H1146800   8.997   9.207  13.447 -4.1816 -2.8673  1.5634
  206ETHOX  H1346801   8.968   9.050  13.366  0.2475 -1.0496 -3.1148
  206ETHOX   C246802   9.127   9.165  13.278 -0.0898  0.3546 -0.4529
  206ETHOX  H2146803   9.185   9.084  13.326  1.0692  1.0878 -0.5837
  206ETHOX  H2346804   9.106   9.146  13.171 -0.4995 -2.3510  0.0456
  207ETHOX   O146805   9.184   9.287  13.300 -0.1430 -0.1913  0.4345
  207ETHOX   C146806   9.236   9.340  13.175  0.7382 -0.2057 -0.3138
  207ETHOX  H1146807   9.150   9.354  13.106 -0.8103 -0.5896  1.4736
  207ETHOX  H1346808   9.303   9.267  13.124  0.9742  0.8107 -1.5269
  207ETHOX   C246809   9.293   9.481  13.184 -1.0384 -0.2432 -0.6412
  207ETHOX  H2146810   9.342   9.509  13.088  1.5231 -2.6854 -0.1951
  207ETHOX  H2346811   9.371   9.468  13.262  0.1418 -2.8638 -2.1268
  208ETHOX   O146812   9.197   9.583  13.230 -0.1260  0.1860  0.3309
  208ETHOX   C146813   9.254   9.716  13.224  0.0976 -0.3490 -0.4117
  208ETHOX  H1146814   9.354   9.719  13.272 -0.6288  2.0599  1.1264
  208ETHOX  H1346815   9.272   9.737  13.116  0.8822  1.5069  0.0502
  208ETHOX   C246816   9.147   9.812  13.277  0.6130  0.3936  0.2767
  208ETHOX  H2146817   9.191   9.880  13.353 -1.2238  1.3001  0.6109
  208ETHOX  H2346818   9.083   9.752  13.347 -1.5413  2.3276  0.0937
  209ETHOX   O146819   9.078   9.893  13.180  0.3836 -0.0506 -0.1262
  209ETHOX   C146820   8.978   9.965  13.251 -1.1353 -0.3965  0.2327
  209ETHOX  H1146821   9.024  10.031  13.327 -2.9042  1.6992 -0.4206
  209ETHOX  H1346822   8.913   9.893  13.304  1.5965 -2.3383  1.2166
  209ETHOX   C246823   8.901  10.060  13.163  0.0031 -0.3547 -0.5624
  209ETHOX  H2146824   8.848  10.003  13.084 -3.7990  0.2247  1.3474
  209ETHOX  H2346825   8.970  10.138  13.124  1.4870 -0.8194  0.9933
  210ETHOX   O146826   8.809  10.145  13.223  0.8480  0.3242 -0.0841
  210ETHOX   C146827   8.681  10.081  13.239  0.3010  0.4490 -0.3305
  210ETHOX  H1146828   8.660  10.040  13.138  0.0018 -0.6643  0.1780
  210ETHOX  H1346829   8.694  10.009  13.323  1.4288  2.7483  1.6034
  210ETHOX   C246830   8.584  10.196  13.260 -0.5526  0.6249  1.0455
  210ETHOX  H2146831   8.481  10.153  13.253 -0.4578  0.4400  0.7717
  210ETHOX  H2346832   8.619  10.256  13.174 -0.5855 -1.1482 -0.2539
  211ETHOX   O146833   8.602  10.257  13.390  0.1680 -0.3220  0.4501
  211ETHOX   C146834   8.532  10.378  13.402 -0.6212 -0.3930  0.3692
  211ETHOX  H1146835   8.574  10.443  13.322  0.6570 -1.0098  0.5041
  211ETHOX  H1346836   8.427  10.356  13.376 -0.9110  0.0692  1.1259
  211ETHOX   C246837   8.548  10.438  13.544  0.3173 -0.5487 -0.6865
  211ETHOX  H2146838   8.496  10.378  13.622 -0.0114 -0.1601 -0.6107
  211ETHOX  H2346839   8.504  10.539  13.533  0.3687 -0.3215  1.0387
  212ETHOX   O146840   8.684  10.452  13.584  0.4745  0.4238 -0.4075
  212ETHOX   C146841   8.705  10.500  13.711  0.5338  0.6644 -0.0143
  212ETHOX  H1146842   8.643  10.592  13.718 -2.1781 -0.6343 -3.6006
  212ETHOX  H1346843   8.650  10.432  13.780  1.6567 -0.8469 -0.5670
  212ETHOX   C246844   8.856  10.507  13.731 -0.1197  0.2443 -1.1279
  212ETHOX  H2146845   8.905  10.414  13.694  1.1994  0.5579 -0.2745
  212ETHOX  H2346846   8.882  10.514  13.839 -0.5986 -0.5969 -0.9458
  213ETHOX   O146847   8.918  10.613  13.662 -0.2919  0.2119 -0.0195
  213ETHOX   C146848   9.056  10.614  13.676 -0.3534 -0.3338 -0.1691
  213ETHOX  H1146849   9.081  10.721  13.663  0.2348 -0.5109 -0.5848
  213ETHOX  H1346850   9.086  10.575  13.776 -0.0714 -0.9758 -0.4952
  213ETHOX   C246851   9.127  10.533  13.562  0.0397 -0.1245 -0.0292
  213ETHOX  H2146852   9.234  10.561  13.570 -0.3789  1.5557  0.2226
  213ETHOX  H2346853   9.082  10.560  13.464 -0.7674  1.4936  0.7493
  214ETHOX   O146854   9.119  10.394  13.579  0.7040  0.7731  0.3830
  214ETHOX   C146855   9.196  10.318  13.485 -0.2060 -0.4347  0.6401
  214ETHOX  H1146856   9.266  10.390  13.437 -2.9497 -0.0632 -3.3666
  214ETHOX  H1346857   9.122  10.282  13.410  0.3039 -0.0274 -0.0749
  214ETHOX   C246858   9.273  10.200  13.545  0.2920 -0.4669 -0.4284
  214ETHOX  H2146859   9.299  10.237  13.646  0.4848  0.7331 -0.9075
  214ETHOX  H2346860   9.368  10.189  13.488  0.9374  0.4759  0.4269
  215ETHOX   O146861   9.184  10.085  13.545 -0.1115 -0.4592  0.1792
  215ETHOX   C146862   9.258   9.979  13.598  0.4772  0.1639 -0.0352
  215ETHOX  H1146863   9.331   9.947  13.521  1.1297  0.8260  0.2944
  215ETHOX  H1346864   9.319  10.006  13.687  0.0222 -0.4244  0.4651
  215ETHOX   C246865   9.175   9.860  13.645  0.1438  0.3916 -0.2582
  215ETHOX  H2146866   9.142   9.806  13.554 -3.5612 -1.7778  2.1004
  215ETHOX  H2346867   9.084   9.884  13.704 -1.3443 -0.6234 -2.0326
  216ETHOX   O146868   9.261   9.771  13.717  0.0083 -0.2014 -0.5179
  216ETHOX   C146869   9.195   9.673  13.786  0.2749 -0.1549 -0.1846
  216ETHOX  H1146870   9.134   9.619  13.710 -1.1342 -0.1994  0.9198
  216ETHOX  H1346871   9.121   9.717  13.856 -0.0578  0.9585 -1.2041
  216ETHOX   C246872   9.288   9.565  13.843  0.2804 -0.4859 -0.7445
  216ETHOX  H2146873   9.382   9.568  13.784  0.1903 -1.1311 -0.9213
  216ETHOX  H2346874   9.253   9.461  13.827  0.2538 -1.1962  3.0458
  217ETHOX   O146875   9.306   9.588  13.983 -0.3454 -0.5193 -0.1131
  217ETHOX   C146876   9.374   9.486  14.050  0.2283 -0.6866  0.5658
  217ETHOX  H1146877   9.446   9.437  13.982  1.1731  1.8588 -0.3983
  217ETHOX  H1346878   9.430   9.527  14.137 -1.3013  2.2863  0.2782
  217ETHOX   C246879   9.282   9.370  14.093 -0.0809  1.3045  0.5317
  217ETHOX  H2146880   9.352   9.286  14.115  1.0159  1.3860 -2.2865
  217ETHOX  H2346881   9.211   9.333  14.016  1.8981  2.2349 -1.8547
  218ETHOX   O146882   9.232   9.407  14.219 -0.5255 -0.1234 -0.5252
  218ETHOX   C146883   9.111   9.479  14.201 -0.1860  0.1805 -0.4669
  218ETHOX  H1146884   9.061   9.447  14.107 -1.5778 -1.2153  0.6962
  218ETHOX  H1346885   9.134   9.587  14.212  1.5276 -0.2074  0.0695
  218ETHOX   C246886   9.027   9.455  14.324 -0.0284  0.4210 -0.5374
  218ETHOX  H2146887   8.956   9.541  14.325  1.5148  1.7552  1.4490
  218ETHOX  H2346888   9.081   9.474  14.418 -0.5208 -1.0683  0.0800
  219ETHOX   O146889   8.959   9.329  14.335  0.0135  0.0266 -0.1409
  219ETHOX   C146890   8.849   9.318  14.246  0.3476  0.0982 -0.2959
  219ETHOX  H1146891   8.774   9.389  14.288  1.6310  0.0406  2.2991
  219ETHOX  H1346892   8.878   9.347  14.143  1.8220 -0.1330  0.0194
  219ETHOX   C246893   8.806   9.175  14.245  0.2394  0.2906  0.3785
  219ETHOX  H2146894   8.710   9.154  14.194  0.6065 -0.8471  0.1403
  219ETHOX  H2346895   8.780   9.142  14.348 -0.5894 -2.4293 -0.6350
  220ETHOX   O146896   8.903   9.094  14.181 -0.3399  0.0798 -0.3446
  220ETHOX   C146897   8.895   8.956  14.228 -0.5141 -0.2153  0.2520
  220ETHOX  H1146898   8.908   8.963  14.338  0.0613  2.1378  0.0911
  220ETHOX  H1346899   8.979   8.895  14.187 -0.8900  0.7244 -2.0444
  220ETHOX   C246900   8.761   8.885  14.195 -0.4440 -0.6095  0.0802
  220ETHOX  H2146901   8.677   8.942  14.240 -1.0760 -1.8200  0.4624
  220ETHOX  H2346902   8.769   8.786  14.243 -0.2450 -1.0074 -0.7563
  221ETHOX   O146903   8.738   8.866  14.055 -0.3676 -0.2739 -1.0345
  221ETHOX   C146904   8.656   8.756  14.019 -0.4927 -0.3091 -0.2145
  221ETHOX  H1146905   8.674   8.721  13.915  0.0512 -0.2601 -0.1376
  221ETHOX  H1346906   8.671   8.671  14.090 -1.3239  0.4986  0.9615
  221ETHOX   C246907   8.506   8.783  14.017 -0.0987  0.5050  0.2096
  221ETHOX  H2146908   8.481   8.862  13.943 -0.4324  1.7584  1.6152
  221ETHOX  H2346909   8.476   8.831  14.112  0.6384  0.3092  0.5415
  222ETHOX   O146910   8.430   8.665  13.998 -0.8259 -0.0166 -0.0029
  222ETHOX   C146911   8.462   8.600  13.872  0.0827 -1.1163 -0.3458
  222ETHOX  H1146912   8.462   8.685  13.801 -0.9715  0.2140  1.1852
  222ETHOX  H1346913   8.567   8.564  13.873  0.4322 -0.1314  1.3197
  222ETHOX   C246914   8.354   8.505  13.836 -0.2226  0.7309  0.4924
  222ETHOX  H2146915   8.345   8.485  13.727 -1.7299 -2.6552  1.0917
  222ETHOX  H2346916   8.256   8.551  13.861 -0.3795  0.1907  0.9198
  223ETHOX   O146917   8.373   8.376  13.903 -0.0242 -0.1420  0.3828
  223ETHOX   C146918   8.490   8.298  13.875 -0.8026  0.8065 -0.2537
  223ETHOX  H1146919   8.479   8.278  13.766 -1.9999 -0.9729  0.1610
  223ETHOX  H1346920   8.580   8.358  13.902 -0.5631 -0.3151  1.5929
  223ETHOX   C246921   8.483   8.173  13.968 -0.1844  0.2987  0.5837
  223ETHOX  H2146922   8.418   8.206  14.052 -1.2684 -0.9205  0.2536
  223ETHOX  H2346923   8.587   8.149  13.998  0.2837  2.7224  1.1120
  224ETHOX   O146924   8.420   8.063  13.909  0.1385  0.4687  0.3119
  224ETHOX   C146925   8.506   7.993  13.818  0.1702 -0.3717  0.2833
  224ETHOX  H1146926   8.516   8.056  13.727  0.4922  0.9474  1.2083
  224ETHOX  H1346927   8.607   7.979  13.861  0.2410  0.2232  0.3096
  224ETHOX   C246928   8.424   7.869  13.779 -0.3543 -1.2015  0.2066
  224ETHOX  H2146929   8.379   7.820  13.867 -0.4827 -1.2702  0.1029
  224ETHOX  H2346930   8.500   7.797  13.741  1.9185  0.9994  0.2659
  225ETHOX   O146931   8.331   7.901  13.671 -0.2066  0.4898  0.0808
  225ETHOX   C146932   8.263   7.788  13.633  0.2419  0.4962  0.2962
  225ETHOX  H1146933   8.340   7.716  13.597 -0.4122  1.0520 -2.4517
  225ETHOX  H1346934   8.209   7.804  13.537 -2.2932 -0.1262  1.5522
  225ETHOX   C246935   8.156   7.730  13.729 -0.5186 -0.0757  0.7336
  225ETHOX  H2146936   8.163   7.779  13.828 -2.2864  0.3627  0.6776
  225ETHOX  H2346937   8.177   7.621  13.736  1.1081  0.0000 -1.6157
  226ETHOX   O146938   8.022   7.753  13.680  0.0117  0.7426 -0.1891
  226ETHOX   C146939   7.928   7.678  13.754  0.3944  0.2827  0.2677
  226ETHOX  H1146940   7.957   7.572  13.774  1.1188  0.3933 -0.1727
  226ETHOX  H1346941   7.933   7.728  13.853  0.9522 -1.3758  1.1156
  226ETHOX   C246942   7.784   7.690  13.695  0.9379 -0.1683  0.0196
  226ETHOX  H2146943   7.762   7.798  13.681  1.8640 -0.0702 -0.7049
  226ETHOX  H2346944   7.701   7.659  13.763 -0.4431  1.4761 -0.8201
  227ETHOX   O146945   7.776   7.606  13.581  0.0243  0.0010  0.0815
  227ETHOX   C146946   7.649   7.608  13.523  1.0776 -0.0244 -0.3037
  227ETHOX  H1146947   7.661   7.652  13.422 -1.0932 -0.4525 -0.8001
  227ETHOX  H1346948   7.575   7.670  13.578 -0.1597 -0.2456 -1.6604
  227ETHOX   C246949   7.595   7.461  13.526  0.0792  0.0168  0.2733
  227ETHOX  H2146950   7.497   7.466  13.473 -0.2339  0.6168  0.8833
  227ETHOX  H2346951   7.584   7.434  13.633  2.4712 -1.6104  0.1926
  228ETHOX   O146952   7.681   7.369  13.456  0.2862 -0.5680 -0.6682
  228ETHOX   C146953   7.637   7.235  13.453  0.9505 -0.3182 -0.1893
  228ETHOX  H1146954   7.674   7.190  13.548  1.1629  3.1142  1.5147
  228ETHOX  H1346955   7.526   7.233  13.460  0.9437 -0.9138 -0.3589
  228ETHOX   C246956   7.678   7.151  13.328  0.2061  0.7902 -0.0080
  228ETHOX  H2146957   7.676   7.217  13.239 -0.7995  1.1529  0.2620
  228ETHOX  H2346958   7.596   7.078  13.311 -0.1781  1.1539  0.2587
  229ETHOX   O146959   7.797   7.079  13.358  0.2065  0.2773  0.2919
  229ETHOX   C146960   7.849   7.014  13.244  0.0877  0.5647  0.4184
  229ETHOX  H1146961   7.861   7.088  13.163  3.4328 -0.9396 -0.6521
  229ETHOX  H1346962   7.782   6.939  13.197 -0.4542 -1.1616  3.6457
  229ETHOX   C246963   7.984   6.937  13.267 -0.3795  0.3169 -0.2444
  229ETHOX  H2146964   8.043   6.990  13.345  2.1353 -4.0279  1.2047
  229ETHOX  H2346965   8.054   6.943  13.181  0.0663  3.3511  0.2354
  230ETHOX   O146966   7.970   6.802  13.306 -0.4339  0.0775 -0.4041
  230ETHOX   C146967   8.100   6.752  13.345 -1.2303  0.3948  1.0673
  230ETHOX  H1146968   8.171   6.736  13.261 -2.4502  2.7156 -0.5001
  230ETHOX  H1346969   8.148   6.824  13.414 -1.3319  1.4264  0.0938
  230ETHOX   C246970   8.081   6.626  13.429 -0.3894  0.0485  0.1601
  230ETHOX  H2146971   7.996   6.652  13.497 -1.6916 -0.3029 -1.2733
  230ETHOX  H2346972   8.169   6.598  13.491 -0.3363  0.1300  0.1208
  231ETHOX   O146973   8.043   6.518  13.349  0.4107 -0.5553  0.2753
  231ETHOX   C146974   8.029   6.397  13.418 -0.6155 -0.4510 -0.0535
  231ETHOX  H1146975   7.947   6.418  13.489 -0.2218  1.8259 -0.1981
  231ETHOX  H1346976   8.120   6.384  13.481  1.1709  1.0568 -2.1531
  231ETHOX   C246977   8.005   6.276  13.333 -0.3415  0.1621 -0.0378
  231ETHOX  H2146978   7.938   6.306  13.250  0.9435  2.6321 -0.2578
  231ETHOX  H2346979   7.966   6.187  13.388 -2.5170  0.5338 -0.8653
  232ETHOX   O146980   8.135   6.245  13.283  0.0777 -0.1604  0.1821
  232ETHOX   C146981   8.131   6.138  13.190  0.2534  0.7168  0.3004
  232ETHOX  H1146982   8.094   6.043  13.235 -0.9922  1.0844  0.0758
  232ETHOX  H1346983   8.060   6.165  13.109 -1.5260 -1.0108  1.1860
  232ETHOX   C246984   8.268   6.115  13.124 -0.2546  0.0796 -1.1737
  232ETHOX  H2146985   8.248   6.055  13.033 -1.2682 -0.5544 -0.5493
  232ETHOX  H2346986   8.319   6.063  13.207 -1.0464 -0.4119 -0.9871
  233ETHOX   O146987   8.332   6.236  13.075  0.0203 -0.6471  0.6891
  233ETHOX   C146988   8.467   6.218  13.025 -0.3021  0.0355  0.2450
  233ETHOX  H1146989   8.519   6.182  13.117 -0.2544  0.8900  0.5649
  233ETHOX  H1346990   8.474   6.155  12.934  0.4625  0.2561  0.1445
  233ETHOX   C246991   8.523   6.348  12.994 -0.4947  0.2933  0.0936
  233ETHOX  H2146992   8.632   6.340  12.974 -0.4428 -3.5146  0.9733
  233ETHOX  H2346993   8.522   6.417  13.081  1.0310  0.2658  0.1640
  234ETHOX   O146994   8.443   6.384  12.883  0.1504  0.3411  0.1358
  234ETHOX   C146995   8.495   6.492  12.812 -0.1114 -0.0029 -0.3715
  234ETHOX  H1146996   8.514   6.576  12.882  0.0514 -0.5040  0.2015
  234ETHOX  H1346997   8.598   6.471  12.774 -0.0769  0.4935 -0.5558
  234ETHOX   C246998   8.400   6.544  12.705  0.1421  0.4254  0.5559
  234ETHOX  H2146999   8.396   6.453  12.641 -0.7096  0.4122  0.6148
  234ETHOX  H2347000   8.439   6.618  12.631 -0.3867 -0.6307 -0.8295
  235ETHOX   O147001   8.277   6.591  12.755  0.2100 -0.3921 -0.3747
  235ETHOX   C147002   8.274   6.738  12.772  0.4310  0.0525  0.7591
  235ETHOX  H1147003   8.332   6.755  12.865  1.2759 -2.0651  0.6842
  235ETHOX  H1347004   8.312   6.798  12.686 -1.4664 -0.3498 -0.4026
  235ETHOX   C247005   8.136   6.792  12.797 -0.0129 -0.0987  0.1663
  235ETHOX  H2147006   8.081   6.796  12.701 -0.5751  0.5089  0.5088
  235ETHOX  H2347007   8.147   6.894  12.840 -3.5857 -1.0030  3.8187
  236ETHOX   O147008   8.060   6.726  12.892 -0.1400  0.4831  0.0062
  236ETHOX   C147009   7.937   6.793  12.909 -0.4365  0.0648 -0.2728
  236ETHOX  H1147010   7.884   6.796  12.812  1.1617  0.2867 -1.1739
  236ETHOX  H1347011   7.973   6.892  12.942  1.1350 -0.7773  0.6885
  236ETHOX   C247012   7.837   6.732  13.017  0.7184  0.2526 -0.3056
  236ETHOX  H2147013   7.749   6.797  13.035  1.3264  1.6687 -2.1953
  236ETHOX  H2347014   7.896   6.720  13.111 -0.6253 -0.3500  0.4952
  237ETHOX   O147015   7.798   6.605  12.959  0.0067  0.4078  0.2030
  237ETHOX   C147016   7.676   6.573  13.013 -0.0864  1.3639 -0.2193
  237ETHOX  H1147017   7.695   6.573  13.123  1.2181 -2.0768 -0.3256
  237ETHOX  H1347018   7.595   6.639  12.976 -2.0247 -0.5815  0.3577
  237ETHOX   C247019   7.641   6.425  12.968 -0.5580 -0.6025 -0.1484
  237ETHOX  H2147020   7.548   6.392  13.018 -0.5508 -2.0148 -1.0024
  237ETHOX  H2347021   7.717   6.353  13.005  1.0052  0.0147 -2.0042
  238ETHOX   O147022   7.623   6.405  12.828 -0.1186 -0.0714 -0.2321
  238ETHOX   C147023   7.501   6.457  12.781  0.2364  0.4723 -0.7037
  238ETHOX  H1147024   7.507   6.567  12.789 -0.0018  0.6659 -2.6878
  238ETHOX  H1347025   7.410   6.424  12.834  0.6833 -0.0887 -0.2677
  238ETHOX   C247026   7.496   6.416  12.635 -0.2738 -0.5072 -0.0397
  238ETHOX  H2147027   7.400   6.443  12.586  0.7307 -1.9500 -3.0612
  238ETHOX  H2347028   7.502   6.305  12.626 -1.0867 -0.4659 -1.3230
  239ETHOX   O147029   7.597   6.477  12.554 -0.2254  0.3360 -0.1435
  239ETHOX   C147030   7.626   6.389  12.437  0.5503 -1.0265 -0.8246
  239ETHOX  H1147031   7.689   6.305  12.473  1.6623  0.5649  1.1084
  239ETHOX  H1347032   7.539   6.342  12.386  1.8548 -2.4014 -1.8899
  239ETHOX   C247033   7.707   6.467  12.334 -0.2432  0.6807 -0.0314
  239ETHOX  H2147034   7.789   6.512  12.393 -0.6273  0.8470  0.3764
  239ETHOX  H2347035   7.751   6.388  12.268  0.1907 -0.1413  1.2012
  240ETHOX   O147036   7.638   6.563  12.256 -0.2191 -0.4670  0.2099
  240ETHOX   C147037   7.719   6.614  12.158 -0.5081 -0.6852  0.6370
  240ETHOX  H1147038   7.701   6.552  12.068 -0.9782 -0.3947  0.5330
  240ETHOX  H1347039   7.822   6.628  12.197 -0.7139  0.7616  0.7131
  240ETHOX   C247040   7.675   6.757  12.121  0.6556 -0.2945  0.4473
  240ETHOX  H2147041   7.565   6.771  12.125  0.1114 -3.4719 -0.6768
  240ETHOX  H2347042   7.702   6.782  12.016  0.2451  0.0801  0.4259
  241ETHOX   O147043   7.746   6.842  12.201  0.4753  0.5444 -0.3694
  241ETHOX   C147044   7.694   6.973  12.199  0.2398  0.4130  0.3804
  241ETHOX  H1147045   7.766   7.037  12.254 -0.2797  0.1329  1.4179
  241ETHOX  H1347046   7.686   7.013  12.095  0.0951  0.4268  0.3959
  241ETHOX   C247047   7.558   6.990  12.273 -0.7016 -0.3078  0.2371
  241ETHOX  H2147048   7.566   6.921  12.359 -1.4540 -1.3354 -0.4874
  241ETHOX  H2347049   7.473   6.954  12.211 -0.8704  2.4233 -1.3157
  242ETHOX   O147050   7.558   7.128  12.319 -0.5046  0.4767  0.1818
  242ETHOX   C147051   7.606   7.136  12.455  0.0534  0.2144 -0.2348
  242ETHOX  H1147052   7.703   7.082  12.459  0.1517  0.1978 -2.0032
  242ETHOX  H1347053   7.530   7.087  12.520 -2.2641  0.8307 -2.2910
  242ETHOX   C247054   7.637   7.279  12.490 -0.1739 -0.0368  0.1768
  242ETHOX  H2147055   7.666   7.285  12.597  0.4870 -0.7999  0.0442
  242ETHOX  H2347056   7.546   7.341  12.472 -0.6270 -0.9423 -0.7002
  243ETHOX   O147057   7.746   7.338  12.414 -0.4262 -0.1004  0.6502
  243ETHOX   C147058   7.775   7.470  12.455  0.3642 -0.7743 -0.0022
  243ETHOX  H1147059   7.686   7.535  12.456  1.5662  0.9558  1.4395
  243ETHOX  H1347060   7.811   7.465  12.560 -0.3912 -1.1172  0.2472
  243ETHOX   C247061   7.891   7.529  12.379  0.9748 -0.3294  0.0659
  243ETHOX  H2147062   7.979   7.461  12.377 -0.2655 -2.0515 -3.5822
  243ETHOX  H2347063   7.918   7.632  12.412  0.3839 -0.4208  0.8610
  244ETHOX   O147064   7.862   7.534  12.243  0.3233 -0.0382 -0.0472
  244ETHOX   C147065   7.958   7.610  12.171  0.5375 -0.7469 -0.0233
  244ETHOX  H1147066   8.058   7.581  12.209  0.9128 -2.6060 -2.2617
  244ETHOX  H1347067   7.942   7.714  12.207 -1.3472 -1.4717  1.5015
  244ETHOX   C247068   7.939   7.623  12.021 -0.5180  1.1339 -0.2446
  244ETHOX  H2147069   7.968   7.711  11.960 -3.3050  1.0687 -1.7784
  244ETHOX  H2347070   7.829   7.624  12.014 -0.8405  1.6135  3.0331
  245ETHOX   O147071   8.000   7.499  11.980  0.4339 -0.3032 -0.4473
  245ETHOX   C147072   7.951   7.469  11.852 -0.1174 -0.6453 -0.4768
  245ETHOX  H1147073   7.847   7.430  11.858 -0.8957  1.4547  0.7798
  245ETHOX  H1347074   7.933   7.569  11.807  2.4975 -0.7025 -1.8077
  245ETHOX   C247075   8.047   7.380  11.771 -0.5076  0.3044 -0.7475
  245ETHOX  H2147076   7.991   7.335  11.687  1.3321 -0.5904 -1.5592
  245ETHOX  H2347077   8.078   7.298  11.840 -1.1682  2.0018  1.7073
  246ETHOX   O147078   8.160   7.440  11.711 -0.5420  0.3986 -0.4494
  246ETHOX   C147079   8.257   7.341  11.676  0.5186 -0.1091 -0.2362
  246ETHOX  H1147080   8.210   7.265  11.611  2.3603 -0.3846 -1.3362
  246ETHOX  H1347081   8.291   7.300  11.773  0.6415  0.1272 -0.1776
  246ETHOX   C247082   8.366   7.388  11.585  0.0379  0.4491 -0.6282
  246ETHOX  H2147083   8.319   7.433  11.495  0.8185  0.6210 -0.9561
  246ETHOX  H2347084   8.428   7.301  11.555 -0.6151 -0.6162  0.9866
  247ETHOX   O147085   8.453   7.491  11.640  0.7477  0.3029  0.4065
  247ETHOX   C147086   8.578   7.504  11.562  0.9852 -0.4826  0.0229
  247ETHOX  H1147087   8.553   7.493  11.454  0.0607 -1.7410  0.3460
  247ETHOX  H1347088   8.601   7.613  11.568 -0.2144 -0.2291  0.2733
  247ETHOX   C247089   8.688   7.403  11.613  0.2104 -0.2382  0.5554
  247ETHOX  H2147090   8.640   7.304  11.630  0.0152 -0.6311 -1.9914
  247ETHOX  H2347091   8.770   7.392  11.539  1.0711 -2.3661  1.7199
  248ETHOX   O147092   8.750   7.450  11.731  0.1991 -0.0533  0.4744
  248ETHOX   C147093   8.819   7.356  11.799 -0.5837 -0.3409 -0.3264
  248ETHOX  H1147094   8.746   7.284  11.842  0.2814 -1.7045 -1.0717
  248ETHOX  H1347095   8.886   7.293  11.737  3.4055  3.0173  0.0777
  248ETHOX   C247096   8.899   7.430  11.898  0.2236 -0.3627 -0.6123
  248ETHOX  H2147097   8.938   7.356  11.971  2.8254  0.6631 -0.8568
  248ETHOX  H2347098   8.827   7.502  11.942  0.1625 -1.2700  0.8653
  249ETHOX   O147099   9.007   7.491  11.844 -0.6687 -0.7102  0.3339
  249ETHOX   C147100   9.077   7.573  11.932 -0.1249  0.6860  0.9730
  249ETHOX  H1147101   9.011   7.658  11.958 -2.1861 -1.2089  2.3332
  249ETHOX  H1347102   9.089   7.510  12.023  2.5355 -3.1043 -1.6960
  249ETHOX   C247103   9.221   7.615  11.887 -0.0235 -0.0906  0.2600
  249ETHOX  H2147104   9.282   7.522  11.888 -2.4623 -1.7678  0.4293
  249ETHOX  H2347105   9.273   7.676  11.963  1.2182 -2.3967  1.3754
  250ETHOX   O147106   9.240   7.668  11.756  0.0528 -0.3414 -0.1132
  250ETHOX   C147107   9.236   7.813  11.757 -0.1944 -0.1918 -0.1488
  250ETHOX  H1147108   9.136   7.846  11.794  0.0800  1.8307 -1.0817
  250ETHOX  H1347109   9.306   7.855  11.832 -0.9232 -0.1471  0.5274
  250ETHOX   C247110   9.244   7.895  11.633 -1.0097 -0.0213 -0.4459
  250ETHOX  H2147111   9.349   7.880  11.602 -1.3941 -0.8698 -1.3963
  250ETHOX  H2347112   9.229   8.003  11.655  1.7161  0.4344 -0.5217
  251ETHOX   O147113   9.150   7.867  11.536 -0.4860 -0.9555  0.3757
  251ETHOX   C147114   9.158   7.960  11.431  0.1067 -0.2988  0.2711
  251ETHOX  H1147115   9.260   7.988  11.398 -1.4403  3.9950 -1.6838
  251ETHOX  H1347116   9.121   8.050  11.485  0.5847  0.8950 -1.3269
  251ETHOX   C247117   9.078   7.919  11.305 -0.3079  0.1803 -0.6579
  251ETHOX  H2147118   9.053   8.013  11.251  1.1053  3.3037  3.5016
  251ETHOX  H2347119   8.980   7.877  11.335  1.3291 -1.5139  3.0023
  252ETHOX   O147120   9.148   7.829  11.228 -0.0397 -0.1905  0.3053
  252ETHOX   C147121   9.067   7.752  11.137 -0.0769 -0.0527  0.5094
  252ETHOX  H1147122   9.021   7.674  11.201  1.3457  0.8833  2.8498
  252ETHOX  H1347123   8.993   7.812  11.081  0.1876  0.1073  0.3266
  252ETHOX   C247124   9.153   7.675  11.038 -0.7082 -0.0611  0.3114
  252ETHOX  H2147125   9.092   7.609  10.974  0.4445  0.7466 -1.7325
  252ETHOX  H2347126   9.229   7.614  11.091 -0.4723 -3.2083 -3.2404
  253ETHOX   O147127   9.219   7.768  10.948  0.3369 -0.0309 -0.0110
  253ETHOX   C147128   9.294   7.696  10.849  1.2683  0.1371  0.2378
  253ETHOX  H1147129   9.309   7.754  10.756  2.0730 -1.2706 -0.5395
  253ETHOX  H1347130   9.239   7.605  10.817  0.2443  0.1532  1.8247
  253ETHOX   C247131   9.429   7.656  10.903 -1.0293  0.7686 -0.4352
  253ETHOX  H2147132   9.490   7.594  10.834  0.1138  2.6399 -1.1740
  253ETHOX  H2347133   9.423   7.609  11.004 -1.0308 -0.8213 -1.1484
  254ETHOX   O147134   9.494   7.782  10.917 -0.0594 -0.0518 -0.7556
  254ETHOX   C147135   9.631   7.760  10.941  0.5402  0.0359  0.3586
  254ETHOX  H1147136   9.654   7.699  11.031 -1.7516 -1.1427  0.2184
  254ETHOX  H1347137   9.665   7.690  10.862 -0.3002  0.4947 -0.4137
  254ETHOX   C247138   9.711   7.888  10.928 -0.5626  0.9499  0.3373
  254ETHOX  H2147139   9.684   7.937  10.832 -0.1312 -1.9060 -1.3626
  254ETHOX  H2347140   9.820   7.869  10.919 -0.4002  2.1494 -0.5186
  255ETHOX   O147141   9.686   7.978  11.035  0.0741  0.3054  0.4934
  255ETHOX   C147142   9.775   8.089  11.023 -0.4011 -0.7164 -0.4221
  255ETHOX  H1147143   9.735   8.173  11.084  0.4325 -0.9501  0.4686
  255ETHOX  H1347144   9.780   8.119  10.916  2.2687  0.9475  0.0748
  255ETHOX   C247145   9.919   8.057  11.060  0.0772  0.0588 -0.4969
  255ETHOX  H2147146   9.914   7.971  11.130 -1.1502  0.3728 -0.1855
  255ETHOX  H2347147   9.968   8.141  11.114  0.3510  0.4425 -1.3271
  256ETHOX   O147148  10.000   8.030  10.943  0.0746 -0.4891 -0.3945
  256ETHOX   C147149  10.137   8.016  10.977  0.4071  0.7986  0.4487
  256ETHOX  H1147150  10.193   8.060  10.891 -0.3135  0.1749 -0.3612
  256ETHOX  H1347151  10.163   8.070  11.070 -1.1581  2.2305  0.1128
  256ETHOX   C247152  10.174   7.864  10.979 -0.7811 -0.5134 -0.4962
  256ETHOX  H2147153  10.282   7.853  11.003 -0.8683  0.4759  0.4095
  256ETHOX  H2347154  10.170   7.823  10.876  2.9141 -2.9415  0.1300
  257ETHOX   O147155  10.105   7.777  11.074  0.4723  0.0453  0.1269
  257ETHOX   C147156  10.126   7.635  11.049  0.0192 -0.3222 -1.1717
  257ETHOX  H1147157  10.237   7.628  11.042 -0.1142 -1.6019 -2.5531
  257ETHOX  H1347158  10.092   7.612  10.946  0.0661  0.2756 -1.3246
  257ETHOX   C247159  10.077   7.536  11.146  0.2042  0.4054  0.4503
  257ETHOX  H2147160  10.107   7.572  11.246 -3.7522  0.8829  1.6095
  257ETHOX  H2347161  10.126   7.437  11.131 -0.3010  0.3410 -0.9639
  258ETHOX   O147162   9.933   7.533  11.144  0.0279  0.4825  0.1091
  258ETHOX   C147163   9.888   7.428  11.234 -0.4228 -0.0526 -0.6554
  258ETHOX  H1147164   9.777   7.426  11.240 -0.3696 -1.1850  3.7474
  258ETHOX  H1347165   9.919   7.328  11.196 -1.1020 -0.6408  0.2825
  258ETHOX   C247166   9.940   7.434  11.386  0.7531  0.0321  0.2219
  258ETHOX  H2147167   9.875   7.381  11.458  1.3287  1.6238  1.9900
  258ETHOX  H2347168   9.940   7.541  11.416 -1.0559  0.8541 -2.3253
  259ETHOX   O147169  10.065   7.371  11.406  0.1018  0.4115 -0.7251
  259ETHOX   C147170  10.110   7.384  11.541 -0.5092 -0.0128 -0.5698
  259ETHOX  H1147171  10.119   7.492  11.562  0.9983  0.0580 -1.4394
  259ETHOX  H1347172  10.024   7.358  11.607 -0.5225 -1.4059 -1.1048
  259ETHOX   C247173  10.213   7.288  11.586 -0.3290  0.3308  0.6560
  259ETHOX  H2147174  10.201   7.181  11.563  1.9503  0.2234 -0.3270
  259ETHOX  H2347175  10.217   7.299  11.697  1.7591 -0.8637  0.7552
  260ETHOX   O147176  10.339   7.332  11.536  0.4201 -0.4856 -0.2248
  260ETHOX   C147177  10.444   7.251  11.589  0.6251 -0.5338  0.2791
  260ETHOX  H1147178  10.443   7.249  11.700  1.6783 -0.6869  0.2985
  260ETHOX  H1347179  10.419   7.150  11.552 -0.3546 -0.4399  0.6556
  260ETHOX   C247180  10.578   7.310  11.553  1.0256 -0.3884  0.2164
  260ETHOX  H2147181  10.661   7.260  11.607  1.7141  0.7787  0.2691
  260ETHOX  H2347182  10.588   7.419  11.571 -1.9584 -0.0487  0.3147
  261ETHOX   O147183  10.609   7.284  11.415  0.1578 -0.0670 -0.0214
  261ETHOX   C147184  10.736   7.338  11.381 -1.0649  0.2843  0.1462
  261ETHOX  H1147185  10.727   7.447  11.400 -0.8925  0.4785 -0.8208
  261ETHOX  H1347186  10.813   7.299  11.451  0.5903  0.1211 -1.6725
  261ETHOX   C247187  10.790   7.315  11.235  0.2596 -0.7556 -0.4185
  261ETHOX  H2147188  10.865   7.394  11.214 -0.9637  0.3208 -0.8646
  261ETHOX  H2347189  10.708   7.331  11.162  0.2832 -0.9843 -0.4978
  262ETHOX   O147190  10.858   7.197  11.218  0.2631  0.0368  0.5903
  262ETHOX   C147191  10.778   7.084  11.242 -0.4712 -0.1309  0.2306
  262ETHOX  H1147192  10.685   7.100  11.184 -0.0366 -0.5761 -0.5951
  262ETHOX  H1347193  10.747   7.071  11.348  1.0709 -3.7999  0.3559
  262ETHOX   C247194  10.855   6.956  11.205 -0.0430 -0.3638 -0.3247
  262ETHOX  H2147195  10.894   6.975  11.103  2.7923  4.0424  1.2886
  262ETHOX  H2347196  10.781   6.872  11.205 -0.4432 -0.0517  1.1930
  263ETHOX   O147197  10.955   6.936  11.307 -0.8628 -0.0061 -0.1128
  263ETHOX   C147198  11.026   6.821  11.269  0.1530  0.1536  0.3292
  263ETHOX  H1147199  11.079   6.828  11.171 -1.5744  1.6910 -0.5563
  263ETHOX  H1347200  10.951   6.740  11.254  0.7234 -0.2932 -0.1716
  263ETHOX   C247201  11.131   6.765  11.369  0.1638  0.6415  0.4763
  263ETHOX  H2147202  11.185   6.685  11.314  0.1487  2.2281 -2.0387
  263ETHOX  H2347203  11.080   6.722  11.458  0.8156 -1.0418  0.0856
  264ETHOX   O147204  11.233   6.862  11.417  0.5835  0.2683  0.3973
  264ETHOX   C147205  11.326   6.805  11.495  0.1567  0.2923 -0.7989
  264ETHOX  H1147206  11.386   6.726  11.445 -1.5900 -1.5181 -0.1170
  264ETHOX  H1347207  11.285   6.743  11.577 -1.9902  0.2541 -1.8452
  264ETHOX   C247208  11.422   6.905  11.567 -0.9600  0.0133 -0.8505
  264ETHOX  H2147209  11.362   6.961  11.641 -1.5319 -1.1114 -0.4434
  264ETHOX  H2347210  11.475   6.981  11.505 -1.1028  0.3793 -0.5279
  265ETHOX   O147211  11.531   6.836  11.627 -0.2724 -0.0665 -0.0286
  265ETHOX   C147212  11.601   6.920  11.716  0.0976  0.4405  0.2186
  265ETHOX  H1147213  11.596   7.026  11.683  0.1134 -0.0490 -1.4468
  265ETHOX  H1347214  11.559   6.913  11.819  0.1853 -0.2665  0.2099
  265ETHOX   C247215  11.757   6.904  11.713 -0.5601 -0.3556 -0.4792
  265ETHOX  H2147216  11.808   6.976  11.782 -0.7890 -0.0646 -0.6119
  265ETHOX  H2347217  11.789   6.917  11.608 -0.8377  1.0794 -0.4076
  265ETHOX   OZ47218  11.806   6.771  11.747  0.3575 -0.4215 -0.0322
  265ETHOX  HZ147219  11.892   6.763  11.706  0.7150 -0.5891  0.7374
    1ETHOX   O147220  14.708   6.538  12.638 -0.1739  0.5630 -0.5785
    1ETHOX  HO147221  14.674   6.481  12.569 -0.0163  0.0399 -0.2284
    1ETHOX   C147222  14.794   6.629  12.571 -0.4848 -0.6483  0.2939
    1ETHOX  H1147223  14.725   6.704  12.527  2.5289  2.5591  0.6127
    1ETHOX  H1347224  14.850   6.581  12.488  0.7123  0.8507  0.1887
    1ETHOX   C247225  14.888   6.711  12.670  0.1236  0.3221 -0.3894
    1ETHOX  H2147226  14.962   6.771  12.613  0.0630  1.0091  0.2409
    1ETHOX  H2347227  14.938   6.641  12.741  0.7770  2.4050  1.3392
    2ETHOX   O147228  14.823   6.809  12.743  0.1308 -0.1559  0.6076
    2ETHOX   C147229  14.911   6.882  12.826 -0.0455 -0.5833 -0.6637
    2ETHOX  H1147230  14.957   6.819  12.905 -0.2150  1.3979  1.0969
    2ETHOX  H1347231  14.996   6.926  12.768  1.7438 -2.6355  0.2668
    2ETHOX   C247232  14.837   6.993  12.907 -0.5173  0.2240 -0.2701
    2ETHOX  H2147233  14.734   7.012  12.870 -1.3587  0.5078  2.0442
    2ETHOX  H2347234  14.901   7.083  12.914 -0.5416  0.0903  3.0735
    3ETHOX   O147235  14.801   6.946  13.035 -0.4109 -1.0843  0.3598
    3ETHOX   C147236  14.760   7.051  13.123  0.3981  0.3484 -0.3815
    3ETHOX  H1147237  14.835   7.132  13.125  0.2436  0.4816  0.1964
    3ETHOX  H1347238  14.753   7.008  13.225  2.1578  2.2331  0.5929
    3ETHOX   C247239  14.620   7.119  13.099 -0.2024  0.1896  0.0611
    3ETHOX  H2147240  14.618   7.180  13.006  1.6512  1.7031  0.9419
    3ETHOX  H2347241  14.597   7.192  13.179 -1.7206  0.0449 -0.2228
    4ETHOX   O147242  14.520   7.010  13.094 -0.8735  0.2831  0.1307
    4ETHOX   C147243  14.393   7.052  13.038 -0.2134  0.4209 -0.3148
    4ETHOX  H1147244  14.332   7.101  13.117 -0.1524 -0.2089  0.1311
    4ETHOX  H1347245  14.407   7.135  12.965 -0.7765  0.1936 -0.6884
    4ETHOX   C247246  14.309   6.938  12.974  0.3279 -0.7475  0.4349
    4ETHOX  H2147247  14.208   6.980  12.956  1.3663  1.4999 -0.5550
    4ETHOX  H2347248  14.297   6.859  13.051  0.4899  0.5655  1.8503
    5ETHOX   O147249  14.359   6.869  12.855 -0.3364 -0.2003 -0.1624
    5ETHOX   C147250  14.355   6.954  12.741 -1.0565  0.3034 -0.2618
    5ETHOX  H1147251  14.250   6.976  12.714 -1.7719 -2.9234 -0.5648
    5ETHOX  H1347252  14.419   7.039  12.773 -0.5283 -0.5607  1.0731
    5ETHOX   C247253  14.425   6.887  12.618  0.8091 -0.5287  0.2136
    5ETHOX  H2147254  14.512   6.824  12.648  0.3719 -0.1244  2.5116
    5ETHOX  H2347255  14.465   6.974  12.561  1.5616 -1.1308 -0.1990
    6ETHOX   O147256  14.329   6.815  12.532  0.3186 -0.1125  0.0071
    6ETHOX   C147257  14.380   6.689  12.497 -0.7731  0.2389  0.2137
    6ETHOX  H1147258  14.476   6.703  12.443 -0.9075  0.6467  0.0797
    6ETHOX  H1347259  14.406   6.626  12.585 -3.6961 -0.8388  0.4471
    6ETHOX   C247260  14.288   6.617  12.400 -0.3619 -0.0466 -0.5372
    6ETHOX  H2147261  14.197   6.598  12.460  1.3357  1.3821  2.7771
    6ETHOX  H2347262  14.325   6.520  12.362 -0.4208  0.1617 -1.1284
    7ETHOX   O147263  14.254   6.692  12.285 -0.3676  0.7093  0.5721
    7ETHOX   C147264  14.355   6.706  12.184  0.1866 -0.6741 -0.9915
    7ETHOX  H1147265  14.451   6.741  12.229  1.1363 -3.1876 -0.8829
    7ETHOX  H1347266  14.381   6.602  12.156  1.6146 -0.5804 -0.1518
    7ETHOX   C247267  14.317   6.790  12.064  0.1162 -0.0919  0.1519
    7ETHOX  H2147268  14.227   6.732  12.033  1.0130 -0.5875 -1.7006
    7ETHOX  H2347269  14.392   6.775  11.983  0.5516 -0.1926  0.5689
    8ETHOX   O147270  14.304   6.929  12.080 -0.1878 -0.1976  0.2327
    8ETHOX   C147271  14.296   6.991  11.949  0.0078 -0.8710  0.6600
    8ETHOX  H1147272  14.254   7.093  11.964 -1.4610 -1.2801 -0.4538
    8ETHOX  H1347273  14.245   6.921  11.880  0.9954 -1.6534  0.7076
    8ETHOX   C247274  14.429   7.021  11.884 -0.2107  0.3434 -0.4124
    8ETHOX  H2147275  14.506   7.057  11.955 -0.1949 -1.9502  0.7995
    8ETHOX  H2347276  14.424   7.105  11.810  3.8484  1.4439  0.3373
    9ETHOX   O147277  14.478   6.903  11.809  0.1196  0.9969  0.1182
    9ETHOX   C147278  14.610   6.925  11.768  0.1577 -0.4197  0.9193
    9ETHOX  H1147279  14.614   7.014  11.703  0.9231 -1.0795  0.0379
    9ETHOX  H1347280  14.674   6.950  11.856  1.5038  0.0419 -0.1676
    9ETHOX   C247281  14.675   6.819  11.694 -0.0864  0.5203  0.6420
    9ETHOX  H2147282  14.757   6.855  11.629 -0.6654 -0.5151 -0.6993
    9ETHOX  H2347283  14.597   6.781  11.625 -1.7517  0.6096  2.3660
   10ETHOX   O147284  14.722   6.719  11.783  0.2708 -0.2153  0.0458
   10ETHOX   C147285  14.771   6.602  11.713 -0.2027  0.4357  1.3055
   10ETHOX  H1147286  14.847   6.617  11.633  0.3353 -1.6291  1.3796
   10ETHOX  H1347287  14.685   6.562  11.657 -0.4921  0.2947  1.8460
   10ETHOX   C247288  14.834   6.496  11.812  0.5409 -0.4232 -0.0448
   10ETHOX  H2147289  14.893   6.562  11.879  1.2711  0.5787 -1.6209
   10ETHOX  H2347290  14.903   6.439  11.746  0.1892 -0.6947 -0.1816
   11ETHOX   O147291  14.738   6.417  11.887 -0.3645  0.1142  1.0669
   11ETHOX   C147292  14.709   6.289  11.834 -0.4686  0.5025  0.3255
   11ETHOX  H1147293  14.648   6.296  11.742 -1.5298 -0.4418  0.9255
   11ETHOX  H1347294  14.807   6.247  11.802 -0.5636  0.6476 -0.1559
   11ETHOX   C247295  14.637   6.188  11.931 -0.5172 -0.4938 -0.4001
   11ETHOX  H2147296  14.613   6.094  11.877  0.4385 -1.2002  0.3669
   11ETHOX  H2347297  14.703   6.144  12.009  0.5352 -1.5711 -1.8435
   12ETHOX   O147298  14.523   6.253  11.992 -0.1006 -0.5355  0.4623
   12ETHOX   C147299  14.456   6.171  12.089  1.0154  1.1661 -0.6922
   12ETHOX  H1147300  14.533   6.148  12.166 -0.0969  0.0184  0.1178
   12ETHOX  H1347301  14.408   6.080  12.047  2.7487 -0.6863  1.1006
   12ETHOX   C247302  14.347   6.253  12.155 -0.4613 -0.7729 -0.0606
   12ETHOX  H2147303  14.388   6.356  12.162 -3.9840  0.7396  0.1100
   12ETHOX  H2347304  14.325   6.234  12.262  0.3076  1.4950  0.5596
   13ETHOX   O147305  14.232   6.255  12.077  0.4242  0.7478 -0.0086
   13ETHOX   C147306  14.132   6.343  12.123  0.6139 -0.5786  0.0805
   13ETHOX  H1147307  14.057   6.269  12.158  1.3139 -1.7439 -0.7851
   13ETHOX  H1347308  14.159   6.389  12.221 -1.2444  0.8399 -0.0232
   13ETHOX   C247309  14.084   6.457  12.033 -0.4078 -0.1802 -0.8473
   13ETHOX  H2147310  14.177   6.514  12.013 -1.7039  1.8701 -1.3529
   13ETHOX  H2347311  14.007   6.517  12.087 -0.1670 -1.6094  1.2105
   14ETHOX   O147312  14.040   6.412  11.908  0.1684  0.4103  0.1356
   14ETHOX   C147313  14.060   6.514  11.808  1.0975 -0.6918 -0.2179
   14ETHOX  H1147314  14.168   6.539  11.800  0.5525  2.1721  0.4119
   14ETHOX  H1347315  14.018   6.613  11.837 -0.0168 -1.6438  1.5883
   14ETHOX   C247316  13.992   6.481  11.680  0.2654  0.4800 -0.1110
   14ETHOX  H2147317  13.986   6.565  11.608  0.1681 -1.2837 -2.2820
   14ETHOX  H2347318  13.885   6.463  11.702  0.7382  0.4294  2.3709
   15ETHOX   O147319  14.051   6.382  11.608 -0.5653 -0.2448 -0.2362
   15ETHOX   C147320  13.964   6.269  11.608 -0.7988 -0.2281  0.3101
   15ETHOX  H1147321  13.972   6.220  11.707  1.2920 -1.5211 -0.4387
   15ETHOX  H1347322  13.860   6.303  11.590 -0.4485  0.3543 -0.7157
   15ETHOX   C247323  14.012   6.173  11.496 -0.1979 -0.9807 -0.1985
   15ETHOX  H2147324  13.980   6.210  11.396 -1.7318  0.2030  0.6972
   15ETHOX  H2347325  14.123   6.171  11.498 -0.0799  1.6863  0.0856
   16ETHOX   O147326  13.971   6.044  11.518  0.6061  0.0589  0.0867
   16ETHOX   C147327  13.840   6.003  11.459  0.4544 -0.2825 -0.6565
   16ETHOX  H1147328  13.781   6.096  11.445  1.2872  0.2603 -0.6464
   16ETHOX  H1347329  13.874   5.961  11.362 -0.2678  0.0726 -1.0733
   16ETHOX   C247330  13.753   5.905  11.540  0.1876  0.5362  0.2957
   16ETHOX  H2147331  13.810   5.822  11.587 -0.4197  0.3373  0.6992
   16ETHOX  H2347332  13.683   5.856  11.469 -0.2895  1.2068  0.2923
   17ETHOX   O147333  13.672   5.967  11.633  0.4930  0.0280 -0.3780
   17ETHOX   C147334  13.579   5.868  11.679 -0.6260  0.2128  0.0552
   17ETHOX  H1147335  13.500   5.838  11.607 -1.0966  0.6535  0.3770
   17ETHOX  H1347336  13.625   5.771  11.707 -1.7553 -0.0536  1.1101
   17ETHOX   C247337  13.519   5.929  11.804 -0.2705 -0.2142 -0.0153
   17ETHOX  H2147338  13.586   5.952  11.890 -0.1005  0.9276 -0.4435
   17ETHOX  H2347339  13.443   5.861  11.848  0.3705 -0.2609  1.0675
   18ETHOX   O147340  13.454   6.056  11.793  0.0928  0.2244  0.2990
   18ETHOX   C147341  13.318   6.049  11.759 -0.1003 -0.5807  0.6873
   18ETHOX  H1147342  13.294   5.991  11.668  0.0681  0.9743 -0.3778
   18ETHOX  H1347343  13.266   6.023  11.854 -0.1424  2.0963  1.4707
   18ETHOX   C247344  13.273   6.191  11.728  0.6478 -0.0674  0.0167
   18ETHOX  H2147345  13.289   6.260  11.815  1.2406  0.0373 -0.1719
   18ETHOX  H2347346  13.164   6.177  11.712  0.8482 -1.9746  0.1307
   19ETHOX   O147347  13.333   6.255  11.615  0.0950 -0.1715 -0.2148
   19ETHOX   C147348  13.260   6.367  11.557  0.2397  0.2755 -0.3507
   19ETHOX  H1147349  13.216   6.438  11.630  0.8710  1.5341 -1.1560
   19ETHOX  H1347350  13.178   6.331  11.492 -0.2107 -0.3999  0.5664
   19ETHOX   C247351  13.370   6.451  11.490  0.1066  0.4060 -0.4719
   19ETHOX  H2147352  13.420   6.522  11.559 -1.0697  2.3196 -1.5086
   19ETHOX  H2347353  13.308   6.516  11.424  2.2145  0.8244 -2.1375
   20ETHOX   O147354  13.465   6.383  11.414 -0.2184  0.4659  0.2508
   20ETHOX   C147355  13.531   6.479  11.334 -0.0129 -0.3804  0.0242
   20ETHOX  H1147356  13.477   6.499  11.239  0.5460  3.8884  0.4278
   20ETHOX  H1347357  13.554   6.578  11.378 -1.6858 -0.1204  0.4023
   20ETHOX   C247358  13.675   6.424  11.292  0.0843 -0.3095 -0.9332
   20ETHOX  H2147359  13.706   6.354  11.372 -2.5752 -1.8530 -1.1140
   20ETHOX  H2347360  13.745   6.509  11.294 -2.0558  1.5686  1.4897
   21ETHOX   O147361  13.683   6.368  11.162 -0.2078 -0.2679  0.2892
   21ETHOX   C147362  13.807   6.321  11.118 -0.1747 -0.0245 -0.0485
   21ETHOX  H1147363  13.855   6.258  11.196  1.0027  0.5266 -0.2923
   21ETHOX  H1347364  13.879   6.402  11.094 -0.6375  0.1901 -0.7486
   21ETHOX   C247365  13.802   6.234  10.990 -0.2259  1.0776  0.7293
   21ETHOX  H2147366  13.706   6.179  10.976  1.3862 -1.7648 -0.0476
   21ETHOX  H2347367  13.877   6.154  11.009 -0.7582  1.0705  3.1126
   22ETHOX   O147368  13.839   6.296  10.870  0.8148  0.1730 -0.1434
   22ETHOX   C147369  13.712   6.334  10.799 -0.4919  0.2068  0.0450
   22ETHOX  H1147370  13.646   6.245  10.793 -1.3157  0.7805  0.2736
   22ETHOX  H1347371  13.647   6.404  10.857  1.0783  2.0965 -0.3678
   22ETHOX   C247372  13.730   6.390  10.662  0.3661  0.2673 -0.7395
   22ETHOX  H2147373  13.804   6.327  10.609  0.4529  0.1016 -0.4213
   22ETHOX  H2347374  13.636   6.391  10.604  0.8435  0.6299 -1.5302
   23ETHOX   O147375  13.782   6.524  10.670  0.2384 -0.0303  0.0450
   23ETHOX   C147376  13.783   6.597  10.551  0.5093  0.0926 -0.0399
   23ETHOX  H1147377  13.780   6.706  10.571 -0.7841  0.0691  0.0229
   23ETHOX  H1347378  13.687   6.569  10.502 -0.4352 -0.9698  2.2373
   23ETHOX   C247379  13.909   6.563  10.469 -0.3132  0.3628 -0.0368
   23ETHOX  H2147380  13.908   6.589  10.361  0.0703  2.3977  0.4109
   23ETHOX  H2347381  13.912   6.452  10.468 -2.0736  0.2809 -1.0822
   24ETHOX   O147382  14.029   6.613  10.531  0.0401 -0.0065  0.7945
   24ETHOX   C147383  14.145   6.550  10.472 -0.0266 -0.3515  0.0818
   24ETHOX  H1147384  14.140   6.444  10.506  0.1475 -1.0453 -1.9421
   24ETHOX  H1347385  14.127   6.550  10.362 -0.3081  0.7442  0.1090
   24ETHOX   C247386  14.276   6.622  10.495 -0.0283  1.1714 -0.4511
   24ETHOX  H2147387  14.349   6.555  10.443 -0.3622  1.3184 -1.1235
   24ETHOX  H2347388  14.302   6.631  10.602 -1.8191 -0.7805  0.2046
   25ETHOX   O147389  14.272   6.744  10.428  0.4724 -0.4317  0.4227
   25ETHOX   C147390  14.392   6.818  10.443 -0.7344 -0.6111  0.5892
   25ETHOX  H1147391  14.451   6.798  10.351 -0.4832 -0.4721  0.7188
   25ETHOX  H1347392  14.453   6.804  10.535  1.6742 -1.8354 -1.0942
   25ETHOX   C247393  14.369   6.978  10.437 -0.4060 -0.1876  0.3246
   25ETHOX  H2147394  14.290   6.987  10.359 -1.5062 -0.8461  1.3378
   25ETHOX  H2347395  14.464   7.029  10.413 -0.9313 -0.1081 -1.7922
   26ETHOX   O147396  14.305   7.035  10.552  0.2907 -0.5087 -0.0260
   26ETHOX   C147397  14.275   7.173  10.544  0.2603 -0.0851  0.2269
   26ETHOX  H1147398  14.366   7.234  10.524  0.3371 -0.5731 -1.0124
   26ETHOX  H1347399  14.205   7.195  10.461  0.0562  0.7034  0.6043
   26ETHOX   C247400  14.216   7.208  10.680 -0.0286 -0.3686  0.2004
   26ETHOX  H2147401  14.125   7.146  10.693 -1.7243  2.3312  2.3369
   26ETHOX  H2347402  14.173   7.310  10.671 -0.0827 -0.5086 -1.6123
   27ETHOX   O147403  14.303   7.203  10.796 -0.2277 -0.7765 -0.1501
   27ETHOX   C147404  14.227   7.215  10.917  0.3686 -0.0384 -0.3515
   27ETHOX  H1147405  14.151   7.135  10.931  1.2937 -0.6225  1.6294
   27ETHOX  H1347406  14.179   7.315  10.915  0.1964 -0.1250 -1.6579
   27ETHOX   C247407  14.294   7.208  11.057  0.2959  0.1501 -0.1440
   27ETHOX  H2147408  14.364   7.123  11.067  0.5404  0.5281  1.9839
   27ETHOX  H2347409  14.213   7.190  11.132 -1.4100 -2.3645 -2.4002
   28ETHOX   O147410  14.362   7.331  11.093  0.6424 -0.0439 -0.4840
   28ETHOX   C147411  14.459   7.375  11.007 -0.8063  0.0337 -0.4661
   28ETHOX  H1147412  14.495   7.281  10.962  1.0657  0.3905  0.2122
   28ETHOX  H1347413  14.406   7.426  10.923  0.5156  1.0965 -0.6765
   28ETHOX   C247414  14.558   7.455  11.085  0.2672 -0.2621  0.8584
   28ETHOX  H2147415  14.644   7.491  11.025 -0.2827 -0.0423  0.1863
   28ETHOX  H2347416  14.594   7.379  11.157  1.2315 -1.2424 -0.6087
   29ETHOX   O147417  14.513   7.570  11.157 -0.7332 -0.1462 -0.0905
   29ETHOX   C147418  14.629   7.610  11.232 -0.0536 -1.0528  0.3086
   29ETHOX  H1147419  14.701   7.658  11.162 -1.2057  3.4255  1.8721
   29ETHOX  H1347420  14.655   7.526  11.300 -2.5062 -2.4685 -0.3914
   29ETHOX   C247421  14.599   7.723  11.327  0.2959  0.0015  0.0648
   29ETHOX  H2147422  14.544   7.801  11.270  2.8224  1.2192 -0.8552
   29ETHOX  H2347423  14.693   7.770  11.361 -0.3222 -0.7620  3.1190
   30ETHOX   O147424  14.551   7.680  11.453 -0.2083 -0.0671  0.4818
   30ETHOX   C147425  14.410   7.662  11.452  0.5119  0.6058 -0.2970
   30ETHOX  H1147426  14.354   7.749  11.413  2.4174  1.5632 -1.0219
   30ETHOX  H1347427  14.382   7.582  11.380  1.7187 -1.1199  1.0499
   30ETHOX   C247428  14.341   7.623  11.585  0.2285  0.4020  0.3586
   30ETHOX  H2147429  14.385   7.535  11.637 -1.1875 -1.0290 -0.7592
   30ETHOX  H2347430  14.237   7.584  11.573  0.6526 -0.8197  0.5631
   31ETHOX   O147431  14.341   7.735  11.674 -0.1676 -0.2562  0.0610
   31ETHOX   C147432  14.460   7.747  11.760 -0.7888  0.3319 -0.6069
   31ETHOX  H1147433  14.507   7.649  11.788 -1.1645  0.8141  2.0292
   31ETHOX  H1347434  14.542   7.803  11.710  1.0576 -1.2881  0.4370
   31ETHOX   C247435  14.448   7.816  11.897  0.4963 -0.7017 -0.3489
   31ETHOX  H2147436  14.396   7.914  11.887  2.5165  0.5010  0.4703
   31ETHOX  H2347437  14.545   7.837  11.945 -0.8856 -0.3915  2.5026
   32ETHOX   O147438  14.371   7.746  11.994 -0.3006 -0.0778 -0.5048
   32ETHOX   C147439  14.352   7.826  12.113 -0.2585  0.1222  0.0136
   32ETHOX  H1147440  14.452   7.855  12.152  0.9230 -0.6113 -2.2905
   32ETHOX  H1347441  14.308   7.924  12.087 -0.6220 -0.5192 -1.8997
   32ETHOX   C247442  14.262   7.765  12.218  0.3258  0.2996 -1.1903
   32ETHOX  H2147443  14.268   7.828  12.309 -2.4775  0.5422 -1.0951
   32ETHOX  H2347444  14.299   7.664  12.244 -1.2016 -0.0524 -0.2590
   33ETHOX   O147445  14.129   7.774  12.173 -0.6440  0.7623  0.4797
   33ETHOX   C147446  14.038   7.695  12.256  0.5063  0.0768 -0.0229
   33ETHOX  H1147447  14.064   7.590  12.230 -1.3115  0.1590 -2.4656
   33ETHOX  H1347448  14.036   7.727  12.363 -1.9528  0.0796 -0.0141
   33ETHOX   C247449  13.897   7.723  12.209 -0.7470  0.4201  0.0754
   33ETHOX  H2147450  13.840   7.628  12.210  0.1821 -0.2155 -1.9065
   33ETHOX  H2347451  13.903   7.764  12.106  0.3779  0.6555  0.2171
   34ETHOX   O147452  13.841   7.819  12.295 -0.3105  0.7587  0.0927
   34ETHOX   C147453  13.887   7.947  12.274 -0.4323  0.0422  0.1750
   34ETHOX  H1147454  13.845   7.989  12.180 -1.1718  0.4950  0.6989
   34ETHOX  H1347455  13.997   7.956  12.258 -0.3705 -0.2964  0.4062
   34ETHOX   C247456  13.850   8.054  12.383 -0.7320  0.0782  0.3082
   34ETHOX  H2147457  13.751   8.025  12.423 -1.2798 -0.4117 -1.3271
   34ETHOX  H2347458  13.835   8.156  12.341 -2.6757  0.2522  1.3026
   35ETHOX   O147459  13.939   8.077  12.492 -0.5088 -0.3418  0.3947
   35ETHOX   C147460  13.916   8.202  12.560 -0.0144  0.3950 -0.3738
   35ETHOX  H1147461  13.938   8.289  12.495  3.6483 -0.9834 -1.2186
   35ETHOX  H1347462  13.810   8.199  12.594  0.7961 -0.7684  2.3906
   35ETHOX   C247463  14.004   8.206  12.681  0.0175 -0.4059 -0.1872
   35ETHOX  H2147464  14.023   8.108  12.729  1.2080  0.1369  0.4816
   35ETHOX  H2347465  13.966   8.270  12.764  2.2058 -1.2570  1.5792
   36ETHOX   O147466  14.132   8.250  12.639 -0.3221 -0.8328 -0.0498
   36ETHOX   C147467  14.201   8.296  12.757 -0.1423 -0.6960 -0.8934
   36ETHOX  H1147468  14.206   8.224  12.842 -0.9527  0.8137  0.5051
   36ETHOX  H1347469  14.136   8.379  12.793  1.5237 -0.3837  1.6984
   36ETHOX   C247470  14.343   8.351  12.730  0.6147 -0.3026 -0.0075
   36ETHOX  H2147471  14.387   8.302  12.640 -0.4360 -0.5258 -0.4079
   36ETHOX  H2347472  14.413   8.341  12.816 -1.2701  0.2239  1.6434
   37ETHOX   O147473  14.341   8.489  12.700 -0.1558  0.6538  0.5059
   37ETHOX   C147474  14.451   8.528  12.615 -0.2952 -0.1107  0.2138
   37ETHOX  H1147475  14.544   8.515  12.674  0.0746 -0.1607 -0.3638
   37ETHOX  H1347476  14.458   8.479  12.515  0.9511  0.3081  0.0711
   37ETHOX   C247477  14.452   8.678  12.593 -0.4203 -0.1631 -0.6554
   37ETHOX  H2147478  14.557   8.698  12.563  0.5895 -3.2077  0.4103
   37ETHOX  H2347479  14.428   8.737  12.683 -0.5205  1.5310 -1.7488
   38ETHOX   O147480  14.361   8.729  12.488  0.1592  0.2602  0.0325
   38ETHOX   C147481  14.383   8.870  12.468  0.7815  0.6351 -0.1631
   38ETHOX  H1147482  14.493   8.886  12.465  1.1978 -0.2810  3.6945
   38ETHOX  H1347483  14.352   8.906  12.569  0.8070  1.0669 -0.3095
   38ETHOX   C247484  14.298   8.938  12.361  0.3804 -0.1954  0.0506
   38ETHOX  H2147485  14.324   9.046  12.358  1.1112 -0.3922 -1.6971
   38ETHOX  H2347486  14.190   8.921  12.381  0.1359  3.0194  2.2545
   39ETHOX   O147487  14.324   8.879  12.239 -0.3117  0.6607 -0.2117
   39ETHOX   C147488  14.437   8.932  12.177  0.2266  0.5823 -0.5719
   39ETHOX  H1147489  14.453   9.042  12.178 -0.6279  0.7502  2.1944
   39ETHOX  H1347490  14.525   8.890  12.230 -0.6467  0.2250  0.6473
   39ETHOX   C247491  14.459   8.892  12.031  0.6284  0.2615  0.1378
   39ETHOX  H2147492  14.551   8.936  11.986  0.0743  1.6026  0.2547
   39ETHOX  H2347493  14.368   8.930  11.979 -0.3293  0.0827  1.6152
   40ETHOX   O147494  14.483   8.751  12.026  0.2600 -0.2821  0.1636
   40ETHOX   C147495  14.463   8.702  11.892 -0.3976 -0.0630 -0.0025
   40ETHOX  H1147496  14.467   8.786  11.819  3.2748 -0.5903 -0.6132
   40ETHOX  H1347497  14.366   8.647  11.886 -0.4690  0.1138 -0.5584
   40ETHOX   C247498  14.581   8.609  11.854 -1.0827 -0.1609  0.0183
   40ETHOX  H2147499  14.550   8.553  11.763 -0.0438 -1.5680  0.4910
   40ETHOX  H2347500  14.599   8.541  11.940  2.2402  2.8184  1.9254
   41ETHOX   O147501  14.705   8.680  11.828  0.0929  0.2196 -0.6870
   41ETHOX   C147502  14.776   8.706  11.950 -0.5920  0.1414 -0.5954
   41ETHOX  H1147503  14.711   8.702  12.041  0.3751 -4.4408  0.1443
   41ETHOX  H1347504  14.840   8.616  11.961 -0.5109  0.4080  1.8242
   41ETHOX   C247505  14.864   8.833  11.946  0.3747 -0.0238  0.1312
   41ETHOX  H2147506  14.930   8.835  11.857 -1.0543  1.0939 -0.9528
   41ETHOX  H2347507  14.925   8.843  12.038  1.6111 -1.2727 -0.5136
   42ETHOX   O147508  14.782   8.949  11.925 -0.2701 -0.4956 -0.0093
   42ETHOX   C147509  14.862   9.065  11.917  0.2089  1.0834  0.3244
   42ETHOX  H1147510  14.914   9.063  12.016 -0.2541  0.1351  0.5629
   42ETHOX  H1347511  14.932   9.056  11.832 -1.1090  0.0130 -0.6690
   42ETHOX   C247512  14.781   9.189  11.902  0.5323 -0.5516 -0.1040
   42ETHOX  H2147513  14.836   9.274  11.948 -2.8704  1.0401  1.3796
   42ETHOX  H2347514  14.684   9.186  11.955 -0.3629 -2.0048 -1.7083
   43ETHOX   O147515  14.761   9.206  11.759  0.3526  0.2196  0.0751
   43ETHOX   C147516  14.702   9.334  11.738 -0.5446  0.7229 -0.0490
   43ETHOX  H1147517  14.598   9.317  11.772 -0.2301  2.1945  1.8761
   43ETHOX  H1347518  14.753   9.408  11.804  2.3995  0.4557 -1.8471
   43ETHOX   C247519  14.695   9.372  11.593 -0.4994 -0.0638  0.5583
   43ETHOX  H2147520  14.639   9.468  11.605 -1.4115 -0.6570  1.2370
   43ETHOX  H2347521  14.635   9.307  11.526 -3.0363  1.1009  1.5592
   44ETHOX   O147522  14.822   9.409  11.543 -0.0195 -0.5633  0.8171
   44ETHOX   C147523  14.827   9.421  11.404 -0.7861  0.1684  0.0882
   44ETHOX  H1147524  14.801   9.324  11.356  0.7294  0.0040 -0.4598
   44ETHOX  H1347525  14.758   9.492  11.354  1.5026  2.5989  0.1675
   44ETHOX   C247526  14.973   9.438  11.359 -0.5233 -0.5536  0.7595
   44ETHOX  H2147527  14.957   9.429  11.250  0.5461  1.0290  0.4243
   44ETHOX  H2347528  15.041   9.359  11.398  0.5782  1.3409  2.9896
   45ETHOX   O147529  15.030   9.562  11.388  0.6214  0.5754  0.0434
   45ETHOX   C147530  15.176   9.559  11.387 -0.0780 -0.2350  0.2599
   45ETHOX  H1147531  15.214   9.527  11.287 -0.5937 -2.7769  0.7994
   45ETHOX  H1347532  15.220   9.487  11.459  0.8622  0.7119  0.6620
   45ETHOX   C247533  15.226   9.696  11.435  0.0447 -0.9356  0.8512
   45ETHOX  H2147534  15.161   9.763  11.375 -1.8883 -2.0853  1.5554
   45ETHOX  H2347535  15.333   9.701  11.407 -0.3731 -2.1317 -1.1148
   46ETHOX   O147536  15.195   9.726  11.573 -0.2408 -0.0484  0.1029
   46ETHOX   C147537  15.214   9.867  11.595  0.1657 -0.0853  0.0338
   46ETHOX  H1147538  15.293   9.896  11.522 -0.8601  1.8309 -0.4131
   46ETHOX  H1347539  15.114   9.912  11.576  0.3483  0.8305  1.1036
   46ETHOX   C247540  15.245   9.898  11.742 -0.2463 -0.4947  0.7158
   46ETHOX  H2147541  15.159   9.860  11.801 -0.6918 -1.3353 -0.4581
   46ETHOX  H2347542  15.262  10.005  11.765 -1.0296 -0.3281  0.5174
   47ETHOX   O147543  15.349   9.813  11.784 -0.2580 -0.4098 -0.2201
   47ETHOX   C147544  15.390   9.846  11.915 -1.2284  0.5631  0.2979
   47ETHOX  H1147545  15.300   9.884  11.967 -2.9116 -0.4358 -1.7550
   47ETHOX  H1347546  15.469   9.924  11.912 -0.1156 -0.5455 -0.1569
   47ETHOX   C247547  15.452   9.727  11.986 -0.7673 -0.6812 -0.2535
   47ETHOX  H2147548  15.515   9.784  12.058 -1.2539 -0.7209  0.2043
   47ETHOX  H2347549  15.521   9.677  11.915 -0.1642 -3.8288  2.3012
   48ETHOX   O147550  15.373   9.637  12.058  0.0772  0.1633  0.4574
   48ETHOX   C147551  15.365   9.515  11.987  0.0363 -0.2994 -0.0675
   48ETHOX  H1147552  15.312   9.515  11.889 -0.6256  1.1953  0.2712
   48ETHOX  H1347553  15.462   9.466  11.964 -0.0588 -0.4000 -0.2563
   48ETHOX   C247554  15.297   9.414  12.088  0.1993  0.3472  0.2997
   48ETHOX  H2147555  15.204   9.461  12.125 -0.9113 -0.9504 -0.7453
   48ETHOX  H2347556  15.269   9.330  12.021 -0.6778  1.9922 -1.5019
   49ETHOX   O147557  15.382   9.382  12.202  0.1420 -0.0349  0.1015
   49ETHOX   C147558  15.302   9.297  12.283 -0.7135 -0.6241  0.0100
   49ETHOX  H1147559  15.280   9.209  12.219 -1.1859 -1.4692  1.2907
   49ETHOX  H1347560  15.202   9.340  12.306 -0.1973  2.6157 -3.0306
   49ETHOX   C247561  15.382   9.260  12.409  0.3488  0.4220  0.0953
   49ETHOX  H2147562  15.487   9.222  12.401  0.8944  1.5114  1.6407
   49ETHOX  H2347563  15.323   9.188  12.469  2.2016 -1.2090  0.0923
   50ETHOX   O147564  15.397   9.382  12.485 -0.3839 -0.2110 -0.2676
   50ETHOX   C147565  15.475   9.370  12.603 -0.1824  0.8940 -0.5434
   50ETHOX  H1147566  15.428   9.301  12.677 -0.6112 -1.3968 -2.7909
   50ETHOX  H1347567  15.574   9.321  12.589 -0.4639  0.2238 -0.2507
   50ETHOX   C247568  15.492   9.519  12.651  0.5687 -0.8674 -0.3330
   50ETHOX  H2147569  15.548   9.565  12.567 -0.6180  0.0205 -0.6603
   50ETHOX  H2347570  15.559   9.521  12.739 -0.3203 -0.9417  0.3557
   51ETHOX   O147571  15.373   9.580  12.699 -0.5425 -0.1796  0.4923
   51ETHOX   C147572  15.311   9.506  12.798  0.0447 -0.6584 -0.7073
   51ETHOX  H1147573  15.392   9.437  12.831  1.0295  0.5749 -0.4398
   51ETHOX  H1347574  15.215   9.461  12.765 -0.4718  0.5268 -0.8654
   51ETHOX   C247575  15.277   9.584  12.932  0.0475  0.1280 -0.0259
   51ETHOX  H2147576  15.172   9.558  12.957  0.8908 -1.5796  2.0117
   51ETHOX  H2347577  15.276   9.694  12.918 -0.1919  0.2387  0.8399
   52ETHOX   O147578  15.370   9.536  13.033  0.1762  0.0315 -0.0075
   52ETHOX   C147579  15.464   9.638  13.063  1.0762 -0.2158  0.1013
   52ETHOX  H1147580  15.527   9.669  12.977  2.0105 -1.4419  0.3118
   52ETHOX  H1347581  15.425   9.729  13.113  0.6696 -0.1291 -0.3624
   52ETHOX   C247582  15.579   9.593  13.164 -0.6310 -0.1398  0.7603
   52ETHOX  H2147583  15.659   9.667  13.146 -1.9869  1.4691  1.0191
   52ETHOX  H2347584  15.608   9.488  13.143  1.4278  0.6033 -0.3468
   53ETHOX   O147585  15.540   9.600  13.299  0.6712  0.3512 -0.5467
   53ETHOX   C147586  15.647   9.560  13.391  1.0463  0.0219  0.5916
   53ETHOX  H1147587  15.671   9.453  13.373  0.3832  0.2659 -2.1902
   53ETHOX  H1347588  15.736   9.618  13.360  2.0037 -2.2273 -1.2065
   53ETHOX   C247589  15.617   9.602  13.541  0.0969  0.0180  0.9508
   53ETHOX  H2147590  15.533   9.541  13.581  0.4345  0.2549  2.0326
   53ETHOX  H2347591  15.595   9.710  13.547  0.4086  0.0761  1.0250
   54ETHOX   O147592  15.727   9.595  13.626  0.0855 -0.2772  0.5203
   54ETHOX   C147593  15.688   9.597  13.760 -0.6623  0.3763  0.1961
   54ETHOX  H1147594  15.604   9.669  13.767 -0.6555  0.3768  0.2717
   54ETHOX  H1347595  15.647   9.497  13.787 -1.1217 -0.3932 -2.9785
   54ETHOX   C247596  15.793   9.631  13.865 -0.6166  0.3473  0.8869
   54ETHOX  H2147597  15.872   9.553  13.873 -0.7490  0.0326 -0.6197
   54ETHOX  H2347598  15.753   9.648  13.967 -0.6395  1.5490  0.6852
   55ETHOX   O147599  15.857   9.752  13.834 -0.2697  0.2750 -0.4059
   55ETHOX   C147600  15.963   9.787  13.920 -0.0138 -0.1882 -0.5326
   55ETHOX  H1147601  15.914   9.819  14.015 -0.3162  2.6638 -1.5538
   55ETHOX  H1347602  16.036   9.706  13.942  0.9654  0.9477  0.5243
   55ETHOX   C247603  16.026   9.915  13.873 -1.0362  0.0188  0.0145
   55ETHOX  H2147604  15.939   9.983  13.867 -4.0724 -3.4376  1.4848
   55ETHOX  H2347605  16.101   9.940  13.951  1.1361  3.6244 -2.8794
   56ETHOX   O147606  16.080   9.911  13.742 -0.0611 -0.3846  0.6064
   56ETHOX   C147607  16.146  10.037  13.703  0.3106 -0.0331  0.6526
   56ETHOX  H1147608  16.078  10.123  13.724  1.6746  0.9178  1.3182
   56ETHOX  H1347609  16.149  10.033  13.592  1.6115  0.0659  0.6723
   56ETHOX   C247610  16.286  10.049  13.751  0.1755  0.7960  0.0060
   56ETHOX  H2147611  16.285  10.004  13.852 -1.5482 -1.1869 -0.8459
   56ETHOX  H2347612  16.322  10.153  13.771  0.1698  0.2667  3.3269
   57ETHOX   O147613  16.384   9.975  13.682  0.2241  0.8444 -0.5084
   57ETHOX   C147614  16.425  10.041  13.563 -0.2426 -0.3517 -0.0401
   57ETHOX  H1147615  16.340  10.058  13.493  1.1317  0.9446 -1.4923
   57ETHOX  H1347616  16.464  10.142  13.586  0.2233 -0.3354 -0.8554
   57ETHOX   C247617  16.536   9.969  13.485 -0.6966 -0.1074 -0.3439
   57ETHOX  H2147618  16.569  10.023  13.394  0.2895 -1.3083 -0.7171
   57ETHOX  H2347619  16.504   9.872  13.442  0.3796  0.0911 -1.6297
   58ETHOX   O147620  16.660   9.959  13.561 -0.0876  0.5091  0.8292
   58ETHOX   C147621  16.757   9.876  13.489 -0.0826  0.0600  0.2574
   58ETHOX  H1147622  16.770   9.911  13.385 -0.2657  0.3540  0.3311
   58ETHOX  H1347623  16.724   9.770  13.492 -0.8996  0.2349 -1.5401
   58ETHOX   C247624  16.909   9.877  13.548  0.0164 -0.5266 -0.0062
   58ETHOX  H2147625  16.962   9.974  13.539  0.7091 -0.9889 -1.1988
   58ETHOX  H2347626  16.949   9.800  13.478 -1.1418 -0.6247 -0.5783
   59ETHOX   O147627  16.907   9.826  13.681 -0.7741  0.3008 -0.3553
   59ETHOX   C147628  17.042   9.795  13.718 -0.1863  0.6516 -0.2271
   59ETHOX  H1147629  17.119   9.836  13.649  0.3820 -1.4549 -0.9218
   59ETHOX  H1347630  17.065   9.842  13.816  0.6016 -0.4211  0.1240
   59ETHOX   C247631  17.058   9.639  13.727  0.1414  0.3313 -0.0900
   59ETHOX  H2147632  16.984   9.602  13.802  0.4425  2.1114  1.1541
   59ETHOX  H2347633  17.161   9.619  13.765  0.2582  0.8815 -0.1111
   60ETHOX   O147634  17.043   9.579  13.598 -0.5185  0.8041 -0.4351
   60ETHOX   C147635  17.072   9.436  13.593 -0.0320  0.9388  0.8377
   60ETHOX  H1147636  17.149   9.414  13.670  2.2051  1.4089 -1.1238
   60ETHOX  H1347637  17.122   9.410  13.497 -3.1480 -2.2878 -0.1021
   60ETHOX   C247638  16.950   9.352  13.616  0.3121  0.7752 -0.0451
   60ETHOX  H2147639  16.905   9.366  13.716 -1.7710 -0.2155 -0.7706
   60ETHOX  H2347640  16.990   9.248  13.625  0.1240  0.6662 -0.4563
   61ETHOX   O147641  16.838   9.354  13.532 -0.0323  0.3433  0.3682
   61ETHOX   C147642  16.731   9.436  13.574  0.6770 -1.0981  0.2745
   61ETHOX  H1147643  16.710   9.416  13.682 -1.5604 -0.7296 -0.0384
   61ETHOX  H1347644  16.777   9.537  13.569  0.0328 -0.7020  1.6978
   61ETHOX   C247645  16.616   9.437  13.471  0.6217 -0.1577 -0.4904
   61ETHOX  H2147646  16.663   9.439  13.371  3.1643  0.2366  0.6381
   61ETHOX  H2347647  16.546   9.521  13.490 -0.2217 -1.3446  2.0606
   62ETHOX   O147648  16.543   9.316  13.485  0.4765  0.2932 -0.2396
   62ETHOX   C147649  16.457   9.307  13.372 -0.0053  0.5275  0.1490
   62ETHOX  H1147650  16.523   9.284  13.285  0.9676 -1.5332  1.3413
   62ETHOX  H1347651  16.402   9.402  13.355  0.1423  0.1587 -2.9960
   62ETHOX   C247652  16.343   9.211  13.380 -0.1048  0.3837 -0.1245
   62ETHOX  H2147653  16.400   9.116  13.387  2.2683  1.8078  1.1454
   62ETHOX  H2347654  16.282   9.211  13.287 -1.0590  0.4037  0.4850
   63ETHOX   O147655  16.255   9.223  13.488 -0.1842  0.2154  0.1276
   63ETHOX   C147656  16.182   9.340  13.479  0.3092 -1.0030 -0.0468
   63ETHOX  H1147657  16.247   9.427  13.504 -1.7738  1.2829 -2.0962
   63ETHOX  H1347658  16.136   9.366  13.381 -0.3920 -1.1002  0.2518
   63ETHOX   C247659  16.065   9.347  13.581 -0.0962  0.2553 -0.0135
   63ETHOX  H2147660  16.004   9.434  13.550  2.0322  1.1761 -1.8947
   63ETHOX  H2347661  16.094   9.352  13.688 -0.8468  0.3037  0.1925
   64ETHOX   O147662  15.988   9.227  13.573  0.1817  0.2710  0.0924
   64ETHOX   C147663  15.870   9.238  13.657 -0.7006  0.1655  0.1373
   64ETHOX  H1147664  15.829   9.341  13.648  1.0973  1.0643  1.6386
   64ETHOX  H1347665  15.898   9.219  13.763  0.4328  0.2870 -0.1216
   64ETHOX   C247666  15.770   9.131  13.594  0.0382  0.1513  0.4436
   64ETHOX  H2147667  15.679   9.129  13.658  1.5516 -3.9976  2.8723
   64ETHOX  H2347668  15.820   9.032  13.588  1.9747  1.0883  0.3079
   65ETHOX   O147669  15.730   9.169  13.462  0.4914  0.5568 -0.0055
   65ETHOX   C147670  15.655   9.065  13.401  0.1807  0.0462  0.0717
   65ETHOX  H1147671  15.727   8.987  13.369  0.4150  0.1905  0.2393
   65ETHOX  H1347672  15.574   9.023  13.466 -0.6240  0.5154 -0.6149
   65ETHOX   C247673  15.585   9.121  13.281  0.2258  0.5372  0.2275
   65ETHOX  H2147674  15.515   9.200  13.314 -0.4435 -0.0289  0.1959
   65ETHOX  H2347675  15.521   9.040  13.241  1.1233 -1.5296  2.7090
   66ETHOX   O147676  15.677   9.166  13.185 -0.4480 -0.2539 -0.9032
   66ETHOX   C147677  15.619   9.208  13.064  0.1893  0.1189  0.3302
   66ETHOX  H1147678  15.551   9.291  13.095  0.1163  0.2541 -0.1739
   66ETHOX  H1347679  15.552   9.134  13.015  1.3779  0.0087 -1.2249
   66ETHOX   C247680  15.717   9.258  12.961  0.2513  0.4839 -0.4577
   66ETHOX  H2147681  15.787   9.325  13.015  0.2628 -0.6960  1.0786
   66ETHOX  H2347682  15.661   9.322  12.889  1.1483  2.3405  0.4241
   67ETHOX   O147683  15.794   9.147  12.907  0.7079 -0.0902 -0.2530
   67ETHOX   C147684  15.837   9.163  12.775  0.2721 -0.0020 -0.6627
   67ETHOX  H1147685  15.751   9.189  12.710  0.9541  2.3634 -0.7114
   67ETHOX  H1347686  15.910   9.246  12.776  0.2911  0.0403 -2.6037
   67ETHOX   C247687  15.906   9.036  12.734  0.1428  0.0184  0.1874
   67ETHOX  H2147688  15.972   9.003  12.817  1.4424  1.6932 -0.1249
   67ETHOX  H2347689  15.980   9.049  12.652 -1.4792 -2.5622 -1.8358
   68ETHOX   O147690  15.827   8.925  12.703  0.2310  0.2315 -0.6375
   68ETHOX   C147691  15.891   8.817  12.642 -0.2065  0.4490 -0.3107
   68ETHOX  H1147692  15.934   8.855  12.546 -1.1413  1.2321 -0.4356
   68ETHOX  H1347693  15.978   8.789  12.706 -0.9383 -0.5545  0.2700
   68ETHOX   C247694  15.803   8.691  12.616  0.2326 -0.4647 -0.7855
   68ETHOX  H2147695  15.854   8.624  12.544 -2.6814  0.3848 -3.9258
   68ETHOX  H2347696  15.714   8.731  12.562 -0.5805 -0.2364  0.6672
   69ETHOX   O147697  15.774   8.618  12.737 -0.3517  0.4863 -0.1712
   69ETHOX   C147698  15.733   8.483  12.710 -0.2940 -0.2554  0.9308
   69ETHOX  H1147699  15.628   8.487  12.672 -0.4701 -0.6794  1.3666
   69ETHOX  H1347700  15.802   8.446  12.632 -1.0883  2.6672 -1.3309
   69ETHOX   C247701  15.743   8.393  12.832  0.1396 -0.4539 -0.2262
   69ETHOX  H2147702  15.840   8.413  12.882 -0.0537 -0.5091  0.1747
   69ETHOX  H2347703  15.742   8.287  12.798  0.9887 -0.8838  1.0230
   70ETHOX   O147704  15.627   8.419  12.912  0.1621  0.8302  0.0391
   70ETHOX   C147705  15.594   8.309  12.997  0.7059 -0.2900 -0.0944
   70ETHOX  H1147706  15.545   8.226  12.942  1.5878 -1.6412  1.0866
   70ETHOX  H1347707  15.675   8.265  13.058  0.3079 -1.1354 -0.1569
   70ETHOX   C247708  15.490   8.374  13.094  0.2244  0.3395 -0.0465
   70ETHOX  H2147709  15.484   8.484  13.073 -0.0281  0.7219  1.8968
   70ETHOX  H2347710  15.527   8.355  13.197 -0.4708 -1.0841 -0.0406
   71ETHOX   O147711  15.361   8.317  13.079  0.2970 -0.0030 -0.1371
   71ETHOX   C147712  15.270   8.403  13.017  0.4800 -0.4840  0.1646
   71ETHOX  H1147713  15.314   8.453  12.928  0.0313  2.4048  1.4569
   71ETHOX  H1347714  15.241   8.487  13.084  2.2812 -0.2251  0.6756
   71ETHOX   C247715  15.141   8.336  12.956 -0.2210  0.2784  0.4146
   71ETHOX  H2147716  15.172   8.274  12.869 -2.0434 -1.5623  1.0054
   71ETHOX  H2347717  15.082   8.420  12.913  0.5112 -1.1269 -3.8306
   72ETHOX   O147718  15.054   8.264  13.040 -0.1966 -0.1968  0.3753
   72ETHOX   C147719  15.027   8.343  13.160  0.0604 -0.0665 -0.6039
   72ETHOX  H1147720  15.117   8.368  13.221 -0.4860 -0.1891  0.2698
   72ETHOX  H1347721  14.987   8.446  13.147  2.0505  1.2459  2.5564
   72ETHOX   C247722  14.926   8.255  13.244  0.2276  0.0890 -0.5019
   72ETHOX  H2147723  14.843   8.234  13.174 -0.3649 -1.1215  0.5121
   72ETHOX  H2347724  14.885   8.300  13.337  0.0023 -2.4320  0.6923
   73ETHOX   O147725  15.003   8.137  13.287  0.0282 -0.5464  0.4311
   73ETHOX   C147726  14.908   8.061  13.357  0.7137 -0.6076 -0.7273
   73ETHOX  H1147727  14.815   8.061  13.297 -0.1041 -1.6738  0.4620
   73ETHOX  H1347728  14.884   8.116  13.451  1.9504  2.0512 -1.8686
   73ETHOX   C247729  14.950   7.911  13.369 -0.2748 -0.2325  0.3620
   73ETHOX  H2147730  15.056   7.905  13.403  0.4503 -0.9651 -1.7983
   73ETHOX  H2347731  14.955   7.863  13.269 -0.4625 -1.3933  0.8939
   74ETHOX   O147732  14.858   7.842  13.443  0.0848  0.0181  0.2771
   74ETHOX   C147733  14.879   7.695  13.445  0.3769 -0.6580  0.3352
   74ETHOX  H1147734  14.811   7.659  13.525  0.7788 -2.6453 -0.1565
   74ETHOX  H1347735  14.839   7.656  13.348 -1.3895  1.4287  0.1495
   74ETHOX   C247736  15.024   7.639  13.478 -0.3823  0.3684  0.7217
   74ETHOX  H2147737  15.011   7.539  13.525  0.2248  0.2922  0.7374
   74ETHOX  H2347738  15.048   7.716  13.553  1.2932 -0.0193  0.6269
   75ETHOX   O147739  15.116   7.626  13.373  0.1584  0.1635 -0.6584
   75ETHOX   C147740  15.245   7.574  13.408 -0.1073  1.0259 -0.7740
   75ETHOX  H1147741  15.226   7.467  13.430  0.0214  1.3818  1.3858
   75ETHOX  H1347742  15.282   7.626  13.500  0.4753  1.3411 -1.1737
   75ETHOX   C247743  15.344   7.605  13.298 -0.2930  0.0668  0.2760
   75ETHOX  H2147744  15.443   7.599  13.346  0.8882 -1.5982 -2.1526
   75ETHOX  H2347745  15.330   7.709  13.261 -2.2427 -0.8430 -1.8594
   76ETHOX   O147746  15.333   7.525  13.184  0.6426 -0.4932 -0.8781
   76ETHOX   C147747  15.438   7.543  13.098 -0.3318  0.1574 -0.1499
   76ETHOX  H1147748  15.536   7.535  13.150 -0.0993  2.6073 -0.0738
   76ETHOX  H1347749  15.436   7.459  13.026 -0.9540  0.1217 -0.0979
   76ETHOX   C247750  15.443   7.676  13.023  0.6614 -0.2731  0.2060
   76ETHOX  H2147751  15.537   7.672  12.964  0.1343 -1.0787 -0.5935
   76ETHOX  H2347752  15.447   7.764  13.091 -2.0970  0.0248  0.0776
   77ETHOX   O147753  15.324   7.683  12.947  0.1773  0.6843  0.1905
   77ETHOX   C147754  15.307   7.815  12.885  0.4729  0.5871  0.6140
   77ETHOX  H1147755  15.271   7.807  12.779 -3.4657  0.7805  1.7576
   77ETHOX  H1347756  15.412   7.851  12.879  0.5718  0.1377 -1.1720
   77ETHOX   C247757  15.214   7.912  12.969  0.1420  0.1497 -0.1788
   77ETHOX  H2147758  15.221   8.013  12.924  0.8021  0.2227  0.0875
   77ETHOX  H2347759  15.253   7.917  13.073  4.3891  0.3503 -1.6012
   78ETHOX   O147760  15.082   7.855  12.965 -0.0924  0.4784 -0.5297
   78ETHOX   C147761  14.980   7.957  12.977  0.1743 -0.2845 -0.0913
   78ETHOX  H1147762  14.988   8.017  13.071 -5.0892  1.0032 -0.1364
   78ETHOX  H1347763  14.994   8.022  12.888  0.5303 -0.7931 -0.4109
   78ETHOX   C247764  14.845   7.883  12.970  0.1361 -0.4011 -0.2266
   78ETHOX  H2147765  14.758   7.951  12.965 -0.7985 -1.6692 -1.9066
   78ETHOX  H2347766  14.827   7.820  13.060 -0.4989 -0.8474 -0.6580
   79ETHOX   O147767  14.823   7.807  12.853 -0.4982  0.8300  0.5728
   79ETHOX   C147768  14.692   7.755  12.857  0.1498  0.2934 -0.0393
   79ETHOX  H1147769  14.680   7.699  12.953  0.9784  3.7559  2.2659
   79ETHOX  H1347770  14.615   7.834  12.847 -2.1069 -1.8544 -0.6075
   79ETHOX   C247771  14.655   7.662  12.739 -0.1769 -0.0004  0.1011
   79ETHOX  H2147772  14.562   7.606  12.763 -2.8205  4.0843  0.4748
   79ETHOX  H2347773  14.741   7.594  12.724 -0.3940 -0.2058 -0.2170
   80ETHOX   O147774  14.628   7.742  12.622  0.1759 -0.2054  0.1455
   80ETHOX   C147775  14.652   7.664  12.503 -0.0118  0.3689  0.6775
   80ETHOX  H1147776  14.755   7.623  12.510 -0.8508 -1.7597  1.4581
   80ETHOX  H1347777  14.589   7.572  12.498  0.9172 -0.2852  0.7134
   80ETHOX   C247778  14.633   7.734  12.365  0.3156 -0.1718  0.6154
   80ETHOX  H2147779  14.537   7.788  12.363  0.9922  1.0531  0.3680
   80ETHOX  H2347780  14.623   7.658  12.285  2.8244 -0.8533  0.8332
   81ETHOX   O147781  14.733   7.837  12.336  0.0254  0.1704  0.1369
   81ETHOX   C147782  14.764   7.843  12.192 -0.3214  0.0277  0.4480
   81ETHOX  H1147783  14.821   7.752  12.165  0.6791  1.6838 -3.8084
   81ETHOX  H1347784  14.668   7.835  12.138  0.8104 -2.9677 -1.3344
   81ETHOX   C247785  14.836   7.972  12.133  0.0783 -0.1953  0.1721
   81ETHOX  H2147786  14.826   7.959  12.023 -0.0068 -0.1772  0.1771
   81ETHOX  H2347787  14.780   8.062  12.166 -0.7128 -0.6640  0.1470
   82ETHOX   O147788  14.971   7.969  12.191  0.5283  0.3300  0.1161
   82ETHOX   C147789  15.054   8.076  12.144  0.4407 -0.0093  0.9116
   82ETHOX  H1147790  15.106   8.129  12.227 -0.8011  0.7347  1.2347
   82ETHOX  H1347791  14.983   8.155  12.112 -0.3072 -1.2630 -0.6259
   82ETHOX   C247792  15.148   8.044  12.031  0.1542 -0.3885  0.0415
   82ETHOX  H2147793  15.188   8.136  11.984 -1.6492  0.6578  0.4316
   82ETHOX  H2347794  15.086   7.983  11.962 -1.4858  0.5808  0.5865
   83ETHOX   O147795  15.258   7.973  12.085 -0.1456 -0.4687 -0.2427
   83ETHOX   C147796  15.354   7.943  11.985  0.4223  0.3215  0.1812
   83ETHOX  H1147797  15.300   7.919  11.891  0.0784  0.2778  0.3868
   83ETHOX  H1347798  15.412   8.036  11.967  0.6225  0.3991  1.1372
   83ETHOX   C247799  15.437   7.825  12.034 -0.3622 -0.8652 -0.0492
   83ETHOX  H2147800  15.522   7.833  11.964 -1.7505  0.2135 -1.6969
   83ETHOX  H2347801  15.385   7.728  12.015 -3.3954  0.6835 -0.2316
   84ETHOX   O147802  15.478   7.848  12.174  0.0514 -0.3842  0.3723
   84ETHOX   C147803  15.553   7.740  12.242  0.3691 -0.5166 -0.4682
   84ETHOX  H1147804  15.655   7.739  12.198  0.7257  1.4017  0.2209
   84ETHOX  H1347805  15.496   7.645  12.227 -2.0333  0.7102  0.3500
   84ETHOX   C247806  15.551   7.787  12.387  0.6741 -0.1552 -0.4273
   84ETHOX  H2147807  15.449   7.818  12.421  0.8979 -0.5782  0.6922
   84ETHOX  H2347808  15.609   7.882  12.396  0.1051  0.0462  1.8408
   85ETHOX   O147809  15.608   7.684  12.470  0.1598  0.3511 -0.0226
   85ETHOX   C147810  15.601   7.722  12.604 -1.0441 -0.2373  0.0126
   85ETHOX  H1147811  15.682   7.795  12.626 -2.6078  1.2484  1.0692
   85ETHOX  H1347812  15.498   7.761  12.615 -1.9192 -1.7672 -2.0074
   85ETHOX   C247813  15.640   7.598  12.690 -1.0710  0.4992  0.2284
   85ETHOX  H2147814  15.572   7.511  12.683 -0.4022 -0.1103  0.9905
   85ETHOX  H2347815  15.644   7.629  12.797 -1.8648 -1.0849  0.7490
   86ETHOX   O147816  15.777   7.555  12.652  0.8405 -0.0607 -0.1319
   86ETHOX   C147817  15.805   7.419  12.682 -0.3179  0.5679  0.1185
   86ETHOX  H1147818  15.895   7.397  12.619 -2.2783 -0.1186 -2.6135
   86ETHOX  H1347819  15.728   7.347  12.649  0.1761 -1.3444  2.8368
   86ETHOX   C247820  15.827   7.383  12.823 -0.1095 -0.4395 -0.8805
   86ETHOX  H2147821  15.845   7.275  12.837  0.5129 -0.0991  1.2484
   86ETHOX  H2347822  15.734   7.397  12.882  0.8440 -0.7274  0.7618
   87ETHOX   O147823  15.939   7.467  12.879  0.0321  0.5870 -0.3475
   87ETHOX   C147824  15.978   7.437  13.016  0.9635  0.5612 -0.1155
   87ETHOX  H1147825  15.888   7.455  13.079 -2.1327 -1.9324 -3.3397
   87ETHOX  H1347826  15.992   7.327  13.025 -5.1304 -0.6027 -0.1283
   87ETHOX   C247827  16.104   7.521  13.059 -0.5244 -0.1480 -0.3171
   87ETHOX  H2147828  16.179   7.505  12.979  0.3437  1.7894  0.0675
   87ETHOX  H2347829  16.127   7.474  13.157  0.8695 -0.9685 -1.0107
   88ETHOX   O147830  16.084   7.664  13.084 -0.0254  0.0828 -0.1634
   88ETHOX   C147831  16.199   7.736  13.122 -0.0081  0.2989 -0.2241
   88ETHOX  H1147832  16.280   7.719  13.047  0.5093  0.3093  0.3203
   88ETHOX  H1347833  16.241   7.676  13.207 -1.0398 -0.4689 -0.2340
   88ETHOX   C247834  16.167   7.884  13.156  0.1450  0.2097 -0.0591
   88ETHOX  H2147835  16.135   7.918  13.055 -0.8454 -1.1523 -0.2276
   88ETHOX  H2347836  16.256   7.938  13.193  1.5474 -0.6813 -1.9468
   89ETHOX   O147837  16.069   7.904  13.259 -0.5013  0.0146 -0.4007
   89ETHOX   C147838  16.056   8.042  13.297 -0.7173 -0.2197 -0.3826
   89ETHOX  H1147839  16.110   8.105  13.224  2.6839  1.0165  2.9022
   89ETHOX  H1347840  15.946   8.057  13.295 -0.9488  0.0220  4.1688
   89ETHOX   C247841  16.116   8.076  13.438  0.3780 -0.2039 -0.7296
   89ETHOX  H2147842  16.141   8.184  13.440 -0.8151  0.0883 -0.5190
   89ETHOX  H2347843  16.206   8.013  13.453  1.9671  1.5685 -2.3198
   90ETHOX   O147844  16.016   8.062  13.534  0.3166 -0.4179 -0.2241
   90ETHOX   C147845  15.980   7.924  13.556  0.0080  0.2251 -0.1720
   90ETHOX  H1147846  15.943   7.882  13.460  1.1679  0.4471 -0.7288
   90ETHOX  H1347847  16.074   7.867  13.570 -0.1908 -0.3409 -1.0473
   90ETHOX   C247848  15.883   7.917  13.675 -0.2579  0.0216  0.3253
   90ETHOX  H2147849  15.934   7.969  13.759  2.8309 -1.2504 -0.5879
   90ETHOX  H2347850  15.869   7.808  13.688  2.2495 -0.6873 -1.9616
   91ETHOX   O147851  15.754   7.973  13.649 -0.8019  0.3999  1.0701
   91ETHOX   C147852  15.669   7.989  13.762  0.1993 -0.6062  0.2557
   91ETHOX  H1147853  15.566   8.004  13.723  0.8277  0.1906 -1.1887
   91ETHOX  H1347854  15.670   7.892  13.816  3.7144 -0.5198  0.5522
   91ETHOX   C247855  15.715   8.109  13.852 -0.4078 -0.4037 -0.0652
   91ETHOX  H2147856  15.823   8.121  13.871 -0.0828 -1.4352 -1.1094
   91ETHOX  H2347857  15.665   8.081  13.947 -0.2377  1.1811  0.5158
   92ETHOX   O147858  15.664   8.237  13.823 -0.0533  0.2869  0.2165
   92ETHOX   C147859  15.690   8.283  13.689 -0.7072 -0.2924 -0.2603
   92ETHOX  H1147860  15.693   8.201  13.613  2.5304 -0.7843  0.2380
   92ETHOX  H1347861  15.606   8.349  13.659  0.4205  1.4646  0.3452
   92ETHOX   C247862  15.809   8.379  13.675  0.1215  0.7753  0.1688
   92ETHOX  H2147863  15.832   8.394  13.568  0.6812  1.7545  0.4141
   92ETHOX  H2347864  15.900   8.334  13.720  0.6325 -0.1638 -1.7049
   93ETHOX   O147865  15.791   8.505  13.731  0.3539 -0.1189  0.6441
   93ETHOX   C147866  15.889   8.599  13.696  0.1060 -0.1452 -0.0222
   93ETHOX  H1147867  15.972   8.527  13.682 -0.4566 -0.9041  0.4383
   93ETHOX  H1347868  15.918   8.657  13.787  1.5380 -1.2996  0.2803
   93ETHOX   C247869  15.867   8.682  13.564  0.4605 -0.5608  0.7603
   93ETHOX  H2147870  15.963   8.737  13.562 -0.9685  2.1191  1.0809
   93ETHOX  H2347871  15.788   8.759  13.579  0.9952  0.3584 -0.9392
   94ETHOX   O147872  15.841   8.609  13.450 -0.4929  0.2613  0.6324
   94ETHOX   C147873  15.829   8.688  13.334  0.5970 -0.6935 -0.0533
   94ETHOX  H1147874  15.848   8.795  13.358 -1.2699 -0.2748 -0.2310
   94ETHOX  H1347875  15.904   8.645  13.265  1.1289 -5.4741  3.0677
   94ETHOX   C247876  15.684   8.679  13.274 -0.8013  0.0297  0.6763
   94ETHOX  H2147877  15.670   8.570  13.260  0.2368 -0.0629  0.2688
   94ETHOX  H2347878  15.676   8.735  13.179  1.6792  0.9717  0.9372
   95ETHOX   O147879  15.590   8.735  13.369 -0.3000  0.5317  0.9350
   95ETHOX   C147880  15.460   8.680  13.342  0.4561  0.0534 -0.2869
   95ETHOX  H1147881  15.476   8.570  13.345 -0.0375 -0.0691 -1.5811
   95ETHOX  H1347882  15.414   8.705  13.244 -0.1660 -1.7395 -0.4863
   95ETHOX   C247883  15.368   8.708  13.457  0.4696 -0.0620 -0.1992
   95ETHOX  H2147884  15.413   8.664  13.548  1.3080 -0.6578 -0.8898
   95ETHOX  H2347885  15.276   8.646  13.446  0.6636 -0.7511  1.7147
   96ETHOX   O147886  15.343   8.844  13.463 -0.2971 -0.3350  0.4284
   96ETHOX   C147887  15.267   8.881  13.578  0.2527  0.4314 -0.6048
   96ETHOX  H1147888  15.172   8.901  13.524  0.3647 -1.3402 -1.5289
   96ETHOX  H1347889  15.235   8.798  13.644 -0.4377 -0.9020 -2.5079
   96ETHOX   C247890  15.321   8.987  13.670  0.3821 -0.0269  1.1728
   96ETHOX  H2147891  15.419   8.962  13.716  2.7353  0.8523 -2.8746
   96ETHOX  H2347892  15.238   9.006  13.741 -1.8295 -0.5830 -1.1000
   97ETHOX   O147893  15.343   9.107  13.593 -0.6943  0.2226 -0.8096
   97ETHOX   C147894  15.335   9.225  13.670  0.1409  0.9746 -0.9043
   97ETHOX  H1147895  15.410   9.209  13.751 -0.1909 -1.4549 -1.0096
   97ETHOX  H1347896  15.240   9.230  13.727  0.6271  0.3197 -0.0013
   97ETHOX   C247897  15.365   9.349  13.594  0.4379  0.6578  0.4543
   97ETHOX  H2147898  15.463   9.337  13.543  0.2442  2.6945 -0.5335
   97ETHOX  H2347899  15.367   9.426  13.675  1.1493  0.3488  0.7334
   98ETHOX   O147900  15.252   9.374  13.519 -0.4861 -0.8279 -0.2493
   98ETHOX   C147901  15.284   9.468  13.420 -0.2583  0.2457 -0.1100
   98ETHOX  H1147902  15.312   9.570  13.453  0.9543 -0.2465  0.4453
   98ETHOX  H1347903  15.372   9.436  13.359 -0.2188  1.1870 -0.5527
   98ETHOX   C247904  15.160   9.473  13.328  0.1772 -0.4248 -0.7414
   98ETHOX  H2147905  15.139   9.370  13.291  1.3790 -0.3482 -1.7105
   98ETHOX  H2347906  15.179   9.527  13.233 -4.0407 -3.0233 -3.4276
   99ETHOX   O147907  15.054   9.539  13.392  0.7830  0.2722  0.0916
   99ETHOX   C147908  14.939   9.551  13.314  0.1537 -0.7734  0.1199
   99ETHOX  H1147909  14.896   9.451  13.292 -0.2506 -0.3787 -0.9369
   99ETHOX  H1347910  14.956   9.596  13.214 -2.5004  0.0080 -0.0756
   99ETHOX   C247911  14.831   9.636  13.394  0.0577  0.3215 -0.5382
   99ETHOX  H2147912  14.881   9.732  13.419  1.2946 -0.8261  1.6983
   99ETHOX  H2347913  14.809   9.579  13.487  1.9987 -0.6229 -0.6113
  100ETHOX   O147914  14.705   9.651  13.319  0.0396  0.2460  0.3791
  100ETHOX   C147915  14.619   9.752  13.383 -0.2935 -0.1266 -0.2155
  100ETHOX  H1147916  14.677   9.824  13.444 -0.5293 -0.0551 -0.0752
  100ETHOX  H1347917  14.579   9.815  13.300  1.4797  2.5354  0.8338
  100ETHOX   C247918  14.506   9.680  13.459 -0.3948  0.3341  0.4646
  100ETHOX  H2147919  14.486   9.740  13.550  0.2731 -0.0003  0.8438
  100ETHOX  H2347920  14.535   9.580  13.497 -3.4425 -1.0920 -0.6691
  101PROXS   O147921  14.389   9.674  13.378 -0.3417 -1.1952 -0.5139
  101PROXS   C147922  14.386   9.562  13.285  0.5577  0.2969 -0.6596
  101PROXS  H1147923  14.477   9.566  13.223  1.1794 -0.0973  0.1962
  101PROXS  H1347924  14.398   9.474  13.352  0.0652 -0.4274 -1.5095
  101PROXS   C247925  14.259   9.557  13.199  0.5202 -0.2601 -0.6102
  101PROXS  H2147926  14.169   9.573  13.262  0.3657 -3.7555  0.2258
  101PROXS   C347927  14.232   9.411  13.135  0.7068 -0.8469 -0.0639
  101PROXS  H3147928  14.237   9.334  13.214 -0.1301 -1.4921 -0.6151
  101PROXS  H3247929  14.136   9.396  13.081  0.9407 -1.7025 -0.2707
  101PROXS  H3347930  14.321   9.393  13.070  0.6191 -0.3941 -0.3176
  102PROXS   O147931  14.254   9.652  13.096 -0.3105  0.4613  0.5604
  102PROXS   C147932  14.245   9.788  13.140  0.3690 -0.1503 -0.3380
  102PROXS  H1147933  14.178   9.789  13.229 -0.7697 -0.8827 -1.1593
  102PROXS  H1347934  14.344   9.820  13.178  1.3858 -1.2909 -1.8726
  102PROXS   C247935  14.179   9.868  13.034  0.0351  0.0013 -0.2664
  102PROXS  H2147936  14.071   9.842  13.034  0.2097 -1.0933  2.8258
  102PROXS   C347937  14.242   9.850  12.899  0.1060 -0.0958  0.0607
  102PROXS  H3147938  14.226   9.937  12.833 -2.7733 -0.5548  0.0234
  102PROXS  H3247939  14.351   9.844  12.919  0.5207  2.6988 -1.0008
  102PROXS  H3347940  14.205   9.758  12.850  2.6504 -1.6549  0.8634
  103PROXR   O147941  14.191  10.010  13.061 -0.0284  0.1695 -0.0648
  103PROXR   C147942  14.112  10.053  13.176  0.6409 -0.5999  0.5871
  103PROXR  H1147943  14.006  10.021  13.163  0.2585  1.1277 -0.9564
  103PROXR  H1347944  14.151  10.003  13.268  3.7085  0.2212 -0.1792
  103PROXR   C247945  14.123  10.204  13.196 -0.2080 -0.0923  0.6327
  103PROXR  H2147946  14.075  10.255  13.110 -0.6989  0.3144  1.1436
  103PROXR   C347947  14.269  10.249  13.216 -0.2840 -0.1972  0.8162
  103PROXR  H3147948  14.336  10.182  13.158  0.0458  0.4288  0.4614
  103PROXR  H3247949  14.284  10.350  13.173  2.3468 -0.4615  1.0029
  103PROXR  H3347950  14.296  10.257  13.323  1.2014  2.0755  0.3320
  104PROXS   O147951  14.062  10.244  13.317 -0.8292  0.0965  0.0526
  104PROXS   C147952  13.924  10.215  13.323  0.0858 -0.1092  0.0488
  104PROXS  H1147953  13.874  10.180  13.230  0.2304  1.6255 -0.7129
  104PROXS  H1347954  13.914  10.126  13.388  1.6262  0.1050  0.6150
  104PROXS   C247955  13.840  10.331  13.378  0.1465  0.3007 -0.0576
  104PROXS  H2147956  13.818  10.394  13.289 -3.0784 -1.2752 -0.5050
  104PROXS   C347957  13.913  10.402  13.492 -0.2017  0.7069 -0.2388
  104PROXS  H3147958  14.023  10.401  13.477 -0.0276 -0.7030  0.9269
  104PROXS  H3247959  13.890  10.509  13.507  3.4487  1.6174 -0.2967
  104PROXS  H3347960  13.900  10.343  13.585  1.0887  0.3892 -0.2389
  105PROXS   O147961  13.717  10.280  13.427 -0.4513 -0.1444 -0.6492
  105PROXS   C147962  13.622  10.379  13.476 -0.0126  0.3656 -0.4052
  105PROXS  H1147963  13.606  10.368  13.586 -1.4398  1.7610 -0.4375
  105PROXS  H1347964  13.667  10.477  13.451  2.3262 -0.5648 -0.0396
  105PROXS   C247965  13.491  10.369  13.399  0.4372 -0.0805  0.2338
  105PROXS  H2147966  13.446  10.269  13.417  0.5699  0.1007  1.6897
  105PROXS   C347967  13.513  10.393  13.247 -0.1375  0.4371 -0.6206
  105PROXS  H3147968  13.596  10.325  13.218  1.0859  1.0615  1.2198
  105PROXS  H3247969  13.429  10.370  13.178 -0.2126  0.3057 -0.4863
  105PROXS  H3347970  13.540  10.498  13.224  1.2381  0.4129  0.7142
  106PROXS   O147971  13.419  10.476  13.452 -0.0876  0.0908 -0.1446
  106PROXS   C147972  13.282  10.456  13.432 -0.4663  0.2617 -0.0302
  106PROXS  H1147973  13.259  10.429  13.326  0.0906  0.1577 -0.1281
  106PROXS  H1347974  13.255  10.362  13.485  0.9361  0.4098  0.9936
  106PROXS   C247975  13.191  10.564  13.490  0.6208 -0.4781 -0.2349
  106PROXS  H2147976  13.242  10.606  13.580  0.4656  0.7358 -0.6900
  106PROXS   C347977  13.054  10.502  13.519  0.1049 -0.4555 -0.9485
  106PROXS  H3147978  13.054  10.460  13.621 -3.6779  0.0959 -0.5759
  106PROXS  H3247979  12.987  10.590  13.532 -0.4347 -1.0819  0.7329
  106PROXS  H3347980  13.015  10.426  13.448  2.7898 -1.9322 -0.9709
  107PROXR   O147981  13.167  10.674  13.401 -0.5072  0.4869  0.3640
  107PROXR   C147982  13.279  10.757  13.378 -0.2066 -0.5340  0.5163
  107PROXR  H1147983  13.306  10.827  13.460 -0.7402  0.5079 -0.1728
  107PROXR  H1347984  13.371  10.694  13.380 -0.3233 -0.6895  1.4187
  107PROXR   C247985  13.278  10.826  13.236  0.2071 -0.1255  0.3407
  107PROXR  H2147986  13.186  10.889  13.240 -0.2330 -0.7744  0.5845
  107PROXR   C347987  13.277  10.737  13.115 -0.0380  0.2977 -0.0143
  107PROXR  H3147988  13.380  10.696  13.101 -0.2142  0.4112 -1.9879
  107PROXR  H3247989  13.216  10.649  13.143  1.4120 -0.4381  0.9377
  107PROXR  H3347990  13.235  10.779  13.021  0.3657 -0.5450 -0.5860
  108PROXS   O147991  13.388  10.911  13.222  0.1271  0.0396 -0.3673
  108PROXS   C147992  13.351  11.042  13.164 -0.1963 -0.6840  0.1476
  108PROXS  H1147993  13.315  11.024  13.060  1.5987  1.7714 -0.9985
  108PROXS  H1347994  13.274  11.084  13.232 -0.4299 -1.4932  0.3980
  108PROXS   C247995  13.473  11.126  13.162  0.6935 -0.2601  0.3706
  108PROXS  H2147996  13.546  11.075  13.096 -0.4188  1.7121 -2.5926
  108PROXS   C347997  13.540  11.153  13.299  0.5338  0.9122 -0.2669
  108PROXS  H3147998  13.559  11.057  13.352 -0.8418 -0.5825 -2.3358
  108PROXS  H3247999  13.640  11.200  13.287  1.1814 -0.4924 -0.7376
  108PROXS  H3348000  13.479  11.216  13.366 -1.7027 -1.0584 -0.3017
  109PROXS   O148001  13.440  11.252  13.103  0.3645  0.1774 -0.2933
  109PROXS   C148002  13.440  11.255  12.961 -0.1376  0.3124 -0.1320
  109PROXS  H1148003  13.542  11.217  12.935 -0.5804  0.6467 -2.5732
  109PROXS  H1348004  13.361  11.185  12.927  1.8388 -1.0947 -2.1259
  109PROXS   C248005  13.413  11.403  12.903  0.0415  0.6794  0.3596
  109PROXS  H2148006  13.480  11.479  12.948  1.1512 -1.3838  2.3739
  109PROXS   C348007  13.269  11.441  12.932  0.0182 -0.5349  0.0008
  109PROXS  H3148008  13.278  11.468  13.040  2.6394 -0.2227 -0.2183
  109PROXS  H3248009  13.237  11.528  12.871  0.7044 -0.5676 -0.4114
  109PROXS  H3348010  13.196  11.360  12.912 -0.5384 -0.5608  1.9057
  110PROXR   O148011  13.425  11.403  12.760 -0.2039 -0.0170 -0.2415
  110PROXR   C148012  13.457  11.534  12.705  0.2188 -0.1386 -0.4131
  110PROXR  H1148013  13.366  11.559  12.646 -1.1414 -0.1882  1.5651
  110PROXR  H1348014  13.489  11.607  12.782 -0.8065 -1.2099  1.0652
  110PROXR   C248015  13.584  11.524  12.604 -0.1549  0.3167 -0.0761
  110PROXR  H2148016  13.569  11.445  12.527  0.1364 -1.0285  1.1966
  110PROXR   C348017  13.703  11.490  12.694  0.4135  0.0223  0.0702
  110PROXR  H3148018  13.793  11.468  12.632  0.7889  1.0492  0.2237
  110PROXR  H3248019  13.732  11.565  12.770 -0.5798 -0.3903  0.8737
  110PROXR  H3348020  13.680  11.394  12.745  0.9565  0.1167  0.5004
  111PROXS   O148021  13.592  11.644  12.533  0.3804  0.5792  0.1514
  111PROXS   C148022  13.681  11.643  12.417 -0.4019 -0.5538  0.0270
  111PROXS  H1148023  13.783  11.663  12.455  0.6556 -2.0672 -1.7771
  111PROXS  H1348024  13.675  11.541  12.373  2.8359 -0.8474  0.0111
  111PROXS   C248025  13.629  11.755  12.323  0.3246 -0.5673 -0.2204
  111PROXS  H2148026  13.659  11.854  12.364  2.2843 -1.3090  0.2715
  111PROXS   C348027  13.473  11.746  12.314  0.1540 -0.2805 -0.4042
  111PROXS  H3148028  13.430  11.808  12.395  1.5875  0.5883 -0.2804
  111PROXS  H3248029  13.440  11.789  12.218  2.0765  1.1945 -0.4804
  111PROXS  H3348030  13.431  11.644  12.328 -0.5398 -0.2413 -2.0122
  112PROXR   O148031  13.677  11.736  12.191 -0.2526 -0.5818  0.5840
  112PROXR   C148032  13.815  11.775  12.173 -0.1386 -0.0206  0.4261
  112PROXR  H1148033  13.819  11.885  12.189  0.1416 -0.2937  2.6260
  112PROXR  H1348034  13.871  11.732  12.259  1.3448 -0.3407 -0.6575
  112PROXR   C248035  13.868  11.725  12.043  0.5729  0.0843 -0.0607
  112PROXR  H2148036  13.794  11.765  11.969 -0.2211  2.1706  1.7336
  112PROXR   C348037  13.862  11.574  12.035  0.1654 -0.3768  0.2983
  112PROXR  H3148038  13.953  11.527  12.079 -0.8686 -1.4316  1.3767
  112PROXR  H3248039  13.770  11.540  12.087 -0.8350  0.6578 -0.7409
  112PROXR  H3348040  13.858  11.543  11.928  2.2858 -1.7204  0.5426
  113PROXS   O148041  13.996  11.781  12.015  0.3360  0.1825 -0.2269
  113PROXS   C148042  14.040  11.752  11.887 -1.3353 -0.0406  0.1408
  113PROXS  H1148043  14.086  11.651  11.876  1.0416  1.0127 -0.1237
  113PROXS  H1348044  13.961  11.767  11.810 -0.8319 -0.5224 -0.4811
  113PROXS   C248045  14.166  11.843  11.856 -0.3894 -0.4004 -0.8049
  113PROXS  H2148046  14.235  11.821  11.940 -1.8117 -0.1249  0.4813
  113PROXS   C348047  14.134  11.994  11.848  0.5576 -0.4398  0.0281
  113PROXS  H3148048  14.069  12.018  11.935  0.0716 -2.7920  0.3743
  113PROXS  H3248049  14.221  12.064  11.851 -0.9785  1.6677 -1.4152
  113PROXS  H3348050  14.076  12.016  11.756 -0.2940 -0.6302  0.5057
  114PROXR   O148051  14.233  11.795  11.735  1.3467 -0.0289 -0.4857
  114PROXR   C148052  14.371  11.816  11.721 -0.1686 -0.4985  0.4389
  114PROXR  H1148053  14.382  11.770  11.621  0.2644 -2.6961  1.4134
  114PROXR  H1348054  14.391  11.925  11.716 -0.0048 -0.5284  0.4461
  114PROXR   C248055  14.459  11.749  11.837 -0.3857  0.3861  0.7399
  114PROXR  H2148056  14.418  11.749  11.940 -0.8214  3.5803  0.6605
  114PROXR   C348057  14.605  11.808  11.847  0.1045 -0.0559  0.5460
  114PROXR  H3148058  14.587  11.917  11.853  0.0047 -0.0860  0.7969
  114PROXR  H3248059  14.668  11.780  11.934  2.4097  1.3088 -0.5869
  114PROXR  H3348060  14.652  11.775  11.752 -2.3138 -1.3357 -0.2908
  115PROXR   O148061  14.481  11.613  11.812 -0.0882 -0.2448 -0.3951
  115PROXR   C148062  14.372  11.523  11.810  0.0250 -0.6053  0.0617
  115PROXR  H1148063  14.313  11.551  11.901  1.5375 -1.7425  1.4585
  115PROXR  H1348064  14.310  11.530  11.718 -0.0236 -0.6017  0.0939
  115PROXR   C248065  14.412  11.376  11.835  0.0202  0.2695  0.3289
  115PROXR  H2148066  14.492  11.374  11.911 -2.2478 -2.1002  2.8955
  115PROXR   C348067  14.453  11.305  11.704  0.6225  0.0971  0.0543
  115PROXR  H3148068  14.375  11.311  11.625  1.6176 -2.1284 -1.1871
  115PROXR  H3248069  14.550  11.333  11.660  0.6233  0.5870  0.3640
  115PROXR  H3348070  14.460  11.198  11.733 -0.0060  0.4268  1.5104
  116PROXS   O148071  14.303  11.301  11.884  0.2453 -0.0216 -0.4018
  116PROXS   C148072  14.269  11.328  12.020  0.2612 -0.4645 -0.7056
  116PROXS  H1148073  14.353  11.370  12.080  0.2986 -1.9321  0.3327
  116PROXS  H1348074  14.189  11.406  12.026  0.1572 -0.6817  2.1572
  116PROXS   C248075  14.209  11.202  12.084  0.5002  0.8366 -0.9913
  116PROXS  H2148076  14.284  11.122  12.105 -0.0924  0.7040  0.8235
  116PROXS   C348077  14.090  11.145  12.005  0.3722  0.9524  0.3674
  116PROXS  H3148078  14.003  11.213  12.010  0.6678  1.3442  0.2861
  116PROXS  H3248079  14.120  11.129  11.899 -1.0625 -2.0124  0.3158
  116PROXS  H3348080  14.070  11.043  12.043  1.0130  0.8615  0.4796
  117PROXS   O148081  14.149  11.240  12.207  0.2759  0.0937 -0.4400
  117PROXS   C148082  14.100  11.132  12.286 -0.4198  0.7316  0.0904
  117PROXS  H1148083  13.993  11.128  12.257 -0.1304  1.9584 -1.2857
  117PROXS  H1348084  14.141  11.031  12.266 -0.0886  0.9339 -0.2525
  117PROXS   C248085  14.108  11.165  12.436 -0.7671 -0.4323  0.3719
  117PROXS  H2148086  14.217  11.181  12.453 -1.2549  2.1206  1.6369
  117PROXS   C348087  14.053  11.059  12.527 -0.3177 -0.0719  0.4661
  117PROXS  H3148088  14.080  11.090  12.630  1.0587 -3.4572  1.2441
  117PROXS  H3248089  13.943  11.043  12.519 -0.6934  2.5806 -0.8969
  117PROXS  H3348090  14.107  10.968  12.494  0.2351  0.6792 -0.7937
  118PROXR   O148091  14.037  11.291  12.462  0.0986  0.2372  0.4376
  118PROXR   C148092  14.087  11.360  12.572 -0.2611  0.1352  0.3171
  118PROXR  H1148093  14.044  11.326  12.668 -0.1015  3.6912  1.8069
  118PROXR  H1348094  14.194  11.335  12.582  0.2286  0.7173 -2.5560
  118PROXR   C248095  14.080  11.515  12.553 -0.2046 -0.2702 -0.3990
  118PROXR  H2148096  13.977  11.554  12.539 -0.7715 -1.2208  0.8123
  118PROXR   C348097  14.151  11.562  12.429 -0.1085 -0.1046 -0.1666
  118PROXR  H3148098  14.257  11.529  12.427  0.0563  0.4468 -0.6886
  118PROXR  H3248099  14.109  11.517  12.337 -1.5379  2.2001 -0.7211
  118PROXR  H3348100  14.142  11.673  12.421  0.1135 -0.1322 -0.8157
  119PROXR   O148101  14.142  11.582  12.660 -0.2498 -0.5334 -0.2862
  119PROXR   C148102  14.062  11.594  12.777  0.2130 -0.0501 -0.2138
  119PROXR  H1148103  13.958  11.619  12.748  0.5519  0.6117 -0.9067
  119PROXR  H1348104  14.055  11.498  12.832 -0.7026  0.5373  0.7278
  119PROXR   C248105  14.117  11.709  12.875  0.6463 -0.4350 -0.2902
  119PROXR  H2148106  14.091  11.803  12.822  0.2426 -0.6030 -0.3940
  119PROXR   C348107  14.271  11.706  12.886  0.1203  0.5688 -0.1640
  119PROXR  H3148108  14.319  11.689  12.788 -1.4216  0.4643 -0.9316
  119PROXR  H3248109  14.301  11.806  12.923 -2.7858  1.3538  0.3257
  119PROXR  H3348110  14.310  11.626  12.953 -1.7745  0.3964  0.7888
  120PROXS   O148111  14.046  11.707  12.998 -0.4046  0.2047  0.5055
  120PROXS   C148112  14.046  11.826  13.066 -0.2212  0.5009 -0.3709
  120PROXS  H1148113  14.141  11.830  13.125 -2.3832  0.8921  3.4177
  120PROXS  H1348114  14.046  11.923  13.012 -0.3028  0.9550  0.4152
  120PROXS   C248115  13.930  11.832  13.165 -0.0250  0.2989 -0.0684
  120PROXS  H2148116  13.912  11.731  13.207  1.5818 -1.1041 -2.5038
  120PROXS   C348117  13.800  11.870  13.089  0.0724 -0.7433 -0.4514
  120PROXS  H3148118  13.805  11.975  13.052 -0.6748 -0.7995 -0.7277
  120PROXS  H3248119  13.774  11.796  13.010 -1.4482 -1.2108  0.4503
  120PROXS  H3348120  13.702  11.869  13.141  1.9934 -1.2191  3.4986
  121PROXS   O148121  13.942  11.935  13.262 -0.9416  0.1168 -0.7330
  121PROXS   C148122  13.834  11.930  13.361 -0.2318  0.2493  0.2223
  121PROXS  H1148123  13.743  11.984  13.329  0.6545  1.1520 -0.8161
  121PROXS  H1348124  13.809  11.823  13.378  0.2087  0.3481  1.6276
  121PROXS   C248125  13.882  11.988  13.501 -0.3176  0.1284 -0.3938
  121PROXS  H2148126  13.904  12.094  13.477 -0.8815  0.0444 -1.3425
  121PROXS   C348127  14.013  11.925  13.561 -0.8274 -0.1362  0.1687
  121PROXS  H3148128  14.031  11.983  13.654 -0.5558  1.3942 -0.7885
  121PROXS  H3248129  13.993  11.819  13.585  0.5464 -0.4077  0.1893
  121PROXS  H3348130  14.099  11.947  13.494 -1.4389  0.4293 -0.4522
  122PROXS   O148131  13.772  11.977  13.589 -0.2904 -0.4261  0.2538
  122PROXS   C148132  13.747  12.090  13.667  0.3014 -0.1818  0.3815
  122PROXS  H1148133  13.828  12.123  13.736 -1.4024  0.1464  2.3521
  122PROXS  H1348134  13.729  12.175  13.598  0.9801 -0.3534 -0.0114
  122PROXS   C248135  13.617  12.062  13.751  0.1013 -0.2691  0.8825
  122PROXS  H2148136  13.630  11.962  13.799  0.9775  0.0891  1.4146
  122PROXS   C348137  13.487  12.061  13.657  0.2326 -0.4773  0.2413
  122PROXS  H3148138  13.398  12.022  13.709 -0.3259 -0.8924 -0.9889
  122PROXS  H3248139  13.462  12.167  13.637  0.3922  0.1181  2.8791
  122PROXS  H3348140  13.510  12.001  13.566  4.7396 -0.8956  1.4176
  123PROXS   O148141  13.608  12.166  13.855 -0.5119 -0.1777 -0.4981
  123PROXS   C148142  13.676  12.123  13.970 -0.2342 -0.0607 -1.6675
  123PROXS  H1148143  13.624  12.031  14.006 -1.6739  0.6663 -1.8484
  123PROXS  H1348144  13.781  12.104  13.939  0.5389  1.5931 -0.2168
  123PROXS   C248145  13.680  12.225  14.084  0.6415 -0.5594 -0.5293
  123PROXS  H2148146  13.576  12.226  14.123  0.9149  2.4733  0.3890
  123PROXS   C348147  13.702  12.368  14.043 -0.1473 -0.4701  0.6888
  123PROXS  H3148148  13.688  12.439  14.127 -1.3468 -1.2989  1.2172
  123PROXS  H3248149  13.808  12.380  14.009 -0.4704  1.7249  0.2863
  123PROXS  H3348150  13.644  12.396  13.953  0.3907 -2.2316 -0.2509
  124PROXR   O148151  13.770  12.180  14.184 -0.1512 -0.0496  0.5185
  124PROXR   C148152  13.759  12.260  14.300  0.3969  0.2219 -0.1775
  124PROXR  H1148153  13.803  12.360  14.279 -2.1109  1.1335 -1.4886
  124PROXR  H1348154  13.651  12.277  14.316 -0.2866 -0.9315 -3.0608
  124PROXR   C248155  13.826  12.190  14.425 -1.2099 -1.0311  0.1013
  124PROXR  H2148156  13.772  12.094  14.441 -0.8105 -1.3308 -0.3336
  124PROXR   C348157  13.811  12.281  14.547  0.2500  0.5364  0.1998
  124PROXR  H3148158  13.759  12.373  14.511 -1.2873 -1.1615 -2.2113
  124PROXR  H3248159  13.749  12.233  14.626 -1.3887  1.0083 -0.7530
  124PROXR  H3348160  13.910  12.308  14.589 -0.5527  0.7761  2.0452
  125PROXS   O148161  13.967  12.166  14.412  0.1736 -0.3319 -0.1194
  125PROXS   C148162  13.993  12.030  14.391  0.0060  0.5089  0.6411
  125PROXS  H1148163  13.969  11.987  14.491 -1.2035 -0.1323  0.0973
  125PROXS  H1348164  13.925  11.989  14.313 -0.5271  1.9355  0.3308
  125PROXS   C248165  14.139  12.006  14.346  0.9491 -0.3996 -0.5673
  125PROXS  H2148166  14.204  12.056  14.421 -0.1141  1.6360 -0.9207
  125PROXS   C348167  14.168  12.072  14.214 -0.7316  0.0391 -0.1009
  125PROXS  H3148168  14.278  12.074  14.201 -0.6291 -2.4922  0.0448
  125PROXS  H3248169  14.123  12.013  14.132  0.9867 -1.3266 -0.1235
  125PROXS  H3348170  14.123  12.174  14.209 -3.8346 -1.2218 -0.0940
  126PROXS   O148171  14.160  11.863  14.348  0.3104 -0.3629  0.0262
  126PROXS   C148172  14.299  11.830  14.307 -0.0710  0.3621 -0.1138
  126PROXS  H1148173  14.334  11.893  14.222 -0.4135  0.1061 -0.4462
  126PROXS  H1348174  14.359  11.859  14.395 -1.6235  2.8108  0.2391
  126PROXS   C248175  14.305  11.676  14.279 -0.2866 -0.3771 -0.3890
  126PROXS  H2148176  14.253  11.645  14.186 -0.2388 -0.2563 -0.4569
  126PROXS   C348177  14.261  11.589  14.400  0.1837  0.0100  0.1010
  126PROXS  H3148178  14.302  11.628  14.496  1.1201  1.2188 -0.7604
  126PROXS  H3248179  14.151  11.600  14.399 -0.1795 -2.5457 -2.3450
  126PROXS  H3348180  14.295  11.483  14.396  2.0171  0.5318  0.6233
  127PROXR   O148181  14.444  11.640  14.260 -0.0558 -0.2782  0.1375
  127PROXR   C148182  14.486  11.664  14.128  0.4555  0.1284  0.1247
  127PROXR  H1148183  14.454  11.765  14.094 -0.5633  0.5458  2.1351
  127PROXR  H1348184  14.597  11.661  14.120  0.4331 -1.4138  0.0872
  127PROXR   C248185  14.436  11.553  14.029  0.0973  0.0105 -0.4206
  127PROXR  H2148186  14.327  11.533  14.035  0.1961 -0.1392  2.1159
  127PROXR   C348187  14.513  11.429  14.052  0.4014  0.6010  0.1001
  127PROXR  H3148188  14.466  11.349  13.990 -1.6638  0.6971  1.4434
  127PROXR  H3248189  14.617  11.444  14.017  0.8256  2.2439  1.9187
  127PROXR  H3348190  14.512  11.394  14.158  3.6043  3.0351  1.1014
  128PROXR   O148191  14.453  11.604  13.895 -0.3326 -0.0634 -0.0214
  128PROXR   C148192  14.332  11.634  13.826 -0.0995  0.5868 -0.8262
  128PROXR  H1148193  14.277  11.537  13.826  0.8723 -0.0093  0.6531
  128PROXR  H1348194  14.282  11.714  13.885  0.9601 -0.8731  2.3207
  128PROXR   C248195  14.366  11.683  13.684 -0.2573  0.1166  0.4130
  128PROXR  H2148196  14.461  11.642  13.644 -0.5121  0.2841 -0.3855
  128PROXR   C348197  14.369  11.839  13.690 -0.1695 -0.4567 -0.2410
  128PROXR  H3148198  14.433  11.876  13.606 -0.0514  0.2882  0.1642
  128PROXR  H3248199  14.274  11.897  13.689  0.7071  1.0830  0.8602
  128PROXR  H3348200  14.438  11.875  13.769  0.6603 -0.8071 -0.7883
  129PROXS   O148201  14.270  11.654  13.584  0.2866  0.3640 -0.2038
  129PROXS   C148202  14.235  11.518  13.562 -0.0922  0.2290 -0.1522
  129PROXS  H1148203  14.325  11.453  13.563 -1.1818 -1.3663 -0.4910
  129PROXS  H1348204  14.165  11.492  13.645  1.4761  4.7025  2.9917
  129PROXS   C248205  14.167  11.501  13.428  0.4124  0.2390  0.9242
  129PROXS  H2148206  14.242  11.527  13.350  0.6789  0.5522  1.2841
  129PROXS   C348207  14.038  11.581  13.414 -0.8222 -0.5309 -0.2208
  129PROXS  H3148208  13.990  11.554  13.318  1.1440 -0.1052 -1.3897
  129PROXS  H3248209  13.969  11.562  13.499  0.4402 -0.1506  0.9201
  129PROXS  H3348210  14.071  11.687  13.424 -0.6967 -0.6357  0.5148
  130PROXS   O148211  14.131  11.366  13.416 -0.3504  0.0073 -0.0956
  130PROXS   C148212  14.099  11.322  13.285 -0.0426 -0.0396  0.1015
  130PROXS  H1148213  13.989  11.315  13.293 -0.0890  0.2078 -0.3214
  130PROXS  H1348214  14.126  11.396  13.207 -1.0978  0.3740  0.1142
  130PROXS   C248215  14.151  11.181  13.248  0.6303  0.2387 -0.0485
  130PROXS  H2148216  14.111  11.105  13.319  0.3038  0.4200 -0.0371
  130PROXS   C348217  14.305  11.168  13.247  0.1050  0.1150  0.0991
  130PROXS  H3148218  14.360  11.263  13.229  0.5712  0.0875  1.3016
  130PROXS  H3248219  14.331  11.139  13.351 -1.1858  1.6586  0.8929
  130PROXS  H3348220  14.339  11.089  13.176  0.8437  0.3092  0.2244
  131PROXS   O148221  14.099  11.134  13.113 -0.1846 -0.1152  0.0496
  131PROXS   C148222  13.961  11.123  13.100 -0.5649 -0.1964  0.1896
  131PROXS  H1148223  13.916  11.037  13.155 -0.8286 -0.3514 -0.2558
  131PROXS  H1348224  13.904  11.212  13.134  1.2364  0.5509  1.3994
  131PROXS   C248225  13.926  11.107  12.951 -0.3075 -0.1351 -0.0437
  131PROXS  H2148226  14.001  11.034  12.914  2.7757  3.4194 -1.3703
  131PROXS   C348227  13.925  11.239  12.884 -0.8070 -0.3566 -0.6738
  131PROXS  H3148228  13.850  11.311  12.924  0.4746  2.6706 -3.3285
  131PROXS  H3248229  14.025  11.285  12.895 -0.9775 -0.0661 -0.3099
  131PROXS  H3348230  13.902  11.230  12.776 -0.9102 -0.2247 -0.6635
  132PROXS   O148231  13.792  11.045  12.934 -0.5374 -0.1640  0.5157
  132PROXS   C148232  13.788  10.960  12.827 -0.1204 -0.6934 -0.4291
  132PROXS  H1148233  13.813  11.023  12.739  1.4548 -1.0477 -0.2676
  132PROXS  H1348234  13.853  10.871  12.824  1.6106  0.3385  2.3388
  132PROXS   C248235  13.645  10.925  12.795  0.8629  0.0397 -0.3151
  132PROXS  H2148236  13.569  11.006  12.798  0.2509 -0.5365  0.2202
  132PROXS   C348237  13.606  10.815  12.899 -0.1371  0.2036 -0.1257
  132PROXS  H3148238  13.507  10.768  12.881 -1.6097  1.7326  3.1552
  132PROXS  H3248239  13.688  10.742  12.913 -2.6243 -2.7113  0.3431
  132PROXS  H3348240  13.582  10.867  12.994 -0.3423 -0.0044 -0.0628
  133PROXS   O148241  13.633  10.866  12.661 -0.3013  0.4714 -0.3216
  133PROXS   C148242  13.644  10.963  12.556 -0.5895  0.9884  0.7186
  133PROXS  H1148243  13.604  11.062  12.586 -2.2439  0.3799  0.6385
  133PROXS  H1348244  13.749  10.959  12.521 -0.9008 -2.9151 -0.2455
  133PROXS   C248245  13.566  10.917  12.429  0.1706 -0.3153 -0.2370
  133PROXS  H2148246  13.455  10.920  12.443  0.1179 -0.0238 -0.7144
  133PROXS   C348247  13.604  10.775  12.381 -0.2564 -0.2217 -0.2800
  133PROXS  H3148248  13.599  10.716  12.474  0.4662  0.3083  0.1040
  133PROXS  H3248249  13.552  10.740  12.289  0.6494 -0.7892 -0.5845
  133PROXS  H3348250  13.712  10.779  12.357 -0.1882  1.1742  0.1403
  134PROXS   O148251  13.606  10.999  12.323 -0.1895  0.4077  0.2381
  134PROXS   C148252  13.514  11.106  12.293 -0.2241  0.2968 -0.1863
  134PROXS  H1148253  13.412  11.070  12.270 -0.5622  1.8861 -1.3195
  134PROXS  H1348254  13.510  11.158  12.392  0.6585 -1.5440  0.8719
  134PROXS   C248255  13.573  11.200  12.183  0.0710  0.8313 -0.4814
  134PROXS  H2148256  13.580  11.139  12.091 -1.8295  0.8587 -0.6853
  134PROXS   C348257  13.711  11.252  12.221  0.6357  0.0552  0.2542
  134PROXS  H3148258  13.778  11.163  12.223 -0.1267 -0.5700 -0.9247
  134PROXS  H3248259  13.741  11.324  12.142  0.2845 -1.3684 -1.2306
  134PROXS  H3348260  13.705  11.302  12.320 -2.5355 -1.8806  1.2163
  135PROXS   O148261  13.475  11.297  12.154  0.3855 -0.0957  0.5688
  135PROXS   C148262  13.493  11.367  12.028  0.4744  0.4678  0.1991
  135PROXS  H1148263  13.584  11.427  12.048  1.0101 -0.2034 -0.1593
  135PROXS  H1348264  13.504  11.299  11.941 -1.7309 -0.3130  0.4740
  135PROXS   C248265  13.373  11.454  11.990  0.0776  0.0495  0.2777
  135PROXS  H2148266  13.337  11.514  12.077 -1.4991 -0.2636 -0.1242
  135PROXS   C348267  13.250  11.379  11.941  0.6423 -0.3834  0.2918
  135PROXS  H3148268  13.261  11.298  11.866  0.5872  0.2992 -0.4780
  135PROXS  H3248269  13.199  11.328  12.025  0.6221  1.0682  1.1905
  135PROXS  H3348270  13.176  11.449  11.896  1.8265  1.7086  1.4170
  136PROXS   O148271  13.410  11.544  11.885  0.3553  0.0689  0.1736
  136PROXS   C148272  13.510  11.640  11.915 -0.3448  0.2836 -0.1821
  136PROXS  H1148273  13.510  11.677  12.020 -0.4270  2.4882 -0.9256
  136PROXS  H1348274  13.608  11.589  11.900 -0.6920 -0.9086  1.3481
  136PROXS   C248275  13.518  11.756  11.814 -0.0791 -0.4124 -0.7751
  136PROXS  H2148276  13.416  11.795  11.797 -0.4895  0.3236  2.5404
  136PROXS   C348277  13.574  11.708  11.679 -0.2459  0.0430 -0.3366
  136PROXS  H3148278  13.530  11.775  11.603 -1.8911 -0.5398  0.0656
  136PROXS  H3248279  13.685  11.709  11.693 -0.4012  0.3836  1.0767
  136PROXS  H3348280  13.537  11.603  11.678  0.3213 -0.1630 -0.2359
  137PROXS   O148281  13.610  11.864  11.864  0.2648  0.0385 -0.0257
  137PROXS   C148282  13.560  11.949  11.966  0.1583 -0.6458 -0.0129
  137PROXS  H1148283  13.509  11.884  12.040  0.5619 -0.9219  0.0295
  137PROXS  H1348284  13.653  12.000  12.000  0.0449 -0.5596  0.1654
  137PROXS   C248285  13.475  12.057  11.909  0.3082 -0.4130  0.5621
  137PROXS  H2148286  13.392  12.028  11.840  0.7978  2.1268 -1.2290
  137PROXS   C348287  13.563  12.148  11.817 -0.1409  0.1166  0.3989
  137PROXS  H3148288  13.649  12.194  11.871  1.4321  0.1710 -2.0243
  137PROXS  H3248289  13.608  12.086  11.737  0.9108  1.1013  0.1977
  137PROXS  H3348290  13.498  12.225  11.771  0.4998 -0.9653 -2.5240
  138PROXR   O148291  13.415  12.143  12.010  0.2028  0.1566  0.4545
  138PROXR   C148292  13.299  12.094  12.069  0.4980 -0.1932  0.4596
  138PROXR  H1148293  13.211  12.118  12.004  1.0105  2.5364  0.6342
  138PROXR  H1348294  13.309  11.984  12.071 -0.5085 -0.2949  0.4521
  138PROXR   C248295  13.276  12.155  12.214  0.2267 -0.4077  1.1569
  138PROXR  H2148296  13.256  12.262  12.188  0.9730 -0.8283 -1.3359
  138PROXR   C348297  13.399  12.142  12.308  0.5084  0.2673 -0.6517
  138PROXR  H3148298  13.415  12.037  12.340  1.5469  0.3814 -0.7574
  138PROXR  H3248299  13.499  12.165  12.265  0.4781 -0.9971 -1.4522
  138PROXR  H3348300  13.387  12.198  12.403 -0.1914 -1.2166  0.1713
  139PROXS   O148301  13.159  12.100  12.271  0.8599 -0.3353 -0.1124
  139PROXS   C148302  13.106  12.167  12.384 -1.1221 -0.3430 -0.4916
  139PROXS  H1148303  13.175  12.165  12.471  1.0284 -0.4518 -2.0965
  139PROXS  H1348304  13.082  12.268  12.344 -0.8951 -0.6146 -1.3421
  139PROXS   C248305  12.967  12.119  12.448 -0.1760 -0.5275 -0.6443
  139PROXS  H2148306  12.901  12.117  12.359  1.9002  2.0022 -2.3876
  139PROXS   C348307  12.911  12.225  12.545 -0.4039  0.4719 -0.0254
  139PROXS  H3148308  12.977  12.237  12.633 -0.3164 -0.6728  0.0806
  139PROXS  H3248309  12.896  12.318  12.487  0.3060 -0.6432 -2.1262
  139PROXS  H3348310  12.812  12.190  12.582 -0.8912 -0.3532 -1.9564
  140PROXR   O148311  12.972  11.995  12.520 -0.2617  0.4170  0.6472
  140PROXR   C148312  13.026  11.887  12.441  0.2352  0.3245 -0.1416
  140PROXR  H1148313  12.964  11.871  12.350  2.8247 -0.3960 -1.8768
  140PROXR  H1348314  13.131  11.911  12.414 -0.1902  2.2207 -0.2498
  140PROXR   C248315  13.041  11.769  12.540  0.0570 -0.3475  0.3197
  140PROXR  H2148316  12.940  11.737  12.573 -0.9446  0.3875 -1.8552
  140PROXR   C348317  13.128  11.804  12.673  0.4961  0.2915 -0.2954
  140PROXR  H3148318  13.230  11.836  12.641 -0.0362  3.1422  0.6039
  140PROXR  H3248319  13.082  11.889  12.728 -2.0402 -1.2611  0.1337
  140PROXR  H3348320  13.121  11.712  12.734  0.3199  1.0075  0.7877
  141PROXS   O148321  13.103  11.660  12.468  0.8906 -0.6324 -0.6596
  141PROXS   C148322  13.090  11.541  12.530 -0.6953 -0.4734  0.4983
  141PROXS  H1148323  13.138  11.532  12.630 -2.0044 -0.6881  1.1418
  141PROXS  H1348324  12.980  11.526  12.537 -1.0015  0.0413 -2.1061
  141PROXS   C248325  13.166  11.430  12.448  0.0643  0.2027  0.0186
  141PROXS  H2148326  13.276  11.437  12.462  0.3085 -0.1651 -1.5058
  141PROXS   C348327  13.138  11.447  12.300 -0.0919 -0.3313 -0.3051
  141PROXS  H3148328  13.031  11.438  12.270 -0.1098  0.4185 -0.4841
  141PROXS  H3248329  13.170  11.552  12.284 -0.6896 -0.0934  0.0137
  141PROXS  H3348330  13.207  11.375  12.250  1.0765  0.6010 -0.0884
  142PROXS   O148331  13.128  11.300  12.502  0.4025 -0.1606 -0.0977
  142PROXS   C148332  13.190  11.191  12.433  0.6438 -0.5703 -0.1700
  142PROXS  H1148333  13.154  11.186  12.328 -1.5303 -0.6547  0.5405
  142PROXS  H1348334  13.298  11.217  12.434  0.2246  1.2874  1.0899
  142PROXS   C248335  13.164  11.059  12.513  0.0965 -0.0704 -0.2819
  142PROXS  H2148336  13.054  11.045  12.505  0.2291 -2.5968  1.2828
  142PROXS   C348337  13.230  11.062  12.654  0.0508 -0.5742 -0.5540
  142PROXS  H3148338  13.263  10.966  12.699  0.5808 -0.2530 -0.2474
  142PROXS  H3248339  13.313  11.136  12.652 -1.1201  0.8041  0.1634
  142PROXS  H3348340  13.148  11.100  12.719 -0.7618 -1.1277 -1.2233
  143PROXS   O148341  13.223  10.959  12.425 -0.1877  0.5258 -0.0398
  143PROXS   C148342  13.199  10.828  12.471  0.2101  1.0264  0.2786
  143PROXS  H1148343  13.292  10.807  12.528  0.7344  1.8436 -0.2602
  143PROXS  H1348344  13.107  10.825  12.534 -0.9142 -0.3726 -1.3408
  143PROXS   C248345  13.196  10.714  12.366  0.3296 -0.0592 -0.0030
  143PROXS  H2148346  13.285  10.717  12.299 -1.5896  1.4580 -2.7192
  143PROXS   C348347  13.068  10.727  12.284  0.4977 -0.2524 -0.0613
  143PROXS  H3148348  12.976  10.692  12.335 -0.2683 -0.3419 -1.4474
  143PROXS  H3248349  13.062  10.837  12.267 -1.7311 -0.2769  0.2766
  143PROXS  H3348350  13.082  10.677  12.186  1.8010  0.1909 -0.1258
  144PROXS   O148351  13.189  10.587  12.430 -0.7855  0.8478 -0.3842
  144PROXS   C148352  13.218  10.477  12.336 -0.3479 -0.3711 -0.6640
  144PROXS  H1148353  13.125  10.469  12.276 -0.1945 -1.5077 -0.7674
  144PROXS  H1348354  13.309  10.500  12.278 -0.2198  0.0591 -0.3060
  144PROXS   C248355  13.248  10.341  12.409 -0.3402  0.7289  0.6181
  144PROXS  H2148356  13.171  10.320  12.487 -1.6728 -1.0288 -1.0601
  144PROXS   C348357  13.393  10.347  12.471  0.5842 -0.0785 -0.3774
  144PROXS  H3148358  13.475  10.332  12.398  0.5204 -0.8346 -0.3017
  144PROXS  H3248359  13.415  10.442  12.523  1.3901  0.5612 -1.8230
  144PROXS  H3348360  13.413  10.264  12.543 -0.7179 -0.7726 -0.7818
  145PROXR   O148361  13.248  10.240  12.313  0.4758  0.4914  0.0900
  145PROXR   C148362  13.219  10.105  12.362 -0.2860 -0.8157 -1.0975
  145PROXR  H1148363  13.317  10.072  12.401  0.3989  1.5684 -0.6471
  145PROXR  H1348364  13.142  10.108  12.442  0.6693  1.9733 -0.1752
  145PROXR   C248365  13.172  10.021  12.242 -0.0374  0.3956  0.8078
  145PROXR  H2148366  13.260  10.019  12.175  1.4926  0.4705  2.7332
  145PROXR   C348367  13.048  10.086  12.178  0.5891 -0.0168  0.5466
  145PROXR  H3148368  13.049  10.189  12.138  1.6516  0.0469  0.7146
  145PROXR  H3248369  13.020  10.030  12.086 -0.3390  0.8975  0.2543
  145PROXR  H3348370  12.958  10.083  12.243  0.7210  2.6063  0.9324
  146PROXS   O148371  13.145   9.890  12.296 -0.2424 -0.4836 -0.0133
  146PROXS   C148372  13.104   9.789  12.208 -0.4240 -0.1861  0.1312
  146PROXS  H1148373  12.999   9.808  12.177 -0.4481 -1.1513 -0.4390
  146PROXS  H1348374  13.168   9.792  12.117 -0.7062 -1.6888 -0.1446
  146PROXS   C248375  13.116   9.643  12.261 -0.6194 -0.3150  0.4050
  146PROXS  H2148376  13.068   9.639  12.361 -1.6083  0.0413 -0.0417
  146PROXS   C348377  13.258   9.595  12.266  0.6246 -0.8229 -0.1094
  146PROXS  H3148378  13.254   9.500  12.324 -1.1604 -0.8002 -0.1387
  146PROXS  H3248379  13.279   9.573  12.159 -1.8324 -0.1060 -0.7870
  146PROXS  H3348380  13.342   9.662  12.295  1.4379 -1.5831 -0.6277
  147PROXR   O148381  13.051   9.563  12.170  0.2411 -0.0426  0.6526
  147PROXR   C148382  13.039   9.430  12.212  0.2649  0.5813  0.1227
  147PROXR  H1148383  13.140   9.383  12.212  0.6206  1.3220  0.1531
  147PROXR  H1348384  13.002   9.427  12.317 -0.5406  0.2343 -0.1638
  147PROXR   C248385  12.947   9.334  12.127 -0.4298  0.6572  0.8197
  147PROXR  H2148386  12.984   9.332  12.023 -2.8807  1.7676 -0.1499
  147PROXR   C348387  12.797   9.389  12.118 -0.7344  0.0226 -0.0728
  147PROXR  H3148388  12.739   9.332  12.042 -0.6414  0.4980 -0.5049
  147PROXR  H3248389  12.753   9.384  12.219 -1.9843 -1.3858 -0.6511
  147PROXR  H3348390  12.804   9.495  12.086  1.1846 -0.1250 -0.3031
  148PROXR   O148391  12.948   9.204  12.192  0.2394 -0.3613  0.1711
  148PROXR   C148392  12.949   9.102  12.090 -0.6739 -0.4375  0.1134
  148PROXR  H1148393  12.876   9.126  12.009  0.9848  0.2789 -1.2515
  148PROXR  H1348394  13.054   9.095  12.055 -0.7340  2.7123 -1.0344
  148PROXR   C248395  12.907   8.970  12.147 -0.1290 -0.1293  0.4890
  148PROXR  H2148396  12.808   8.968  12.197  0.3726  2.2497  1.6934
  148PROXR   C348397  13.002   8.917  12.248 -0.1654 -0.1516  0.6006
  148PROXR  H3148398  13.105   8.904  12.208 -0.7306 -0.4010 -0.8314
  148PROXR  H3248399  13.018   8.993  12.327  0.1993  1.4954 -1.0012
  148PROXR  H3348400  12.970   8.831  12.311 -0.7892  0.2934  0.8918
  149PROXR   O148401  12.904   8.884  12.036  0.2087 -0.1004  0.4406
  149PROXR   C148402  12.819   8.768  12.064  0.0645  0.2975  0.3265
  149PROXR  H1148403  12.856   8.713  12.154  0.8681  0.4025  0.0623
  149PROXR  H1348404  12.714   8.798  12.087 -0.2744 -0.7701  0.2596
  149PROXR   C248405  12.816   8.675  11.944  0.7818 -0.3331 -0.3017
  149PROXR  H2148406  12.921   8.643  11.922  1.0360  0.4096 -0.2003
  149PROXR   C348407  12.760   8.760  11.822  0.4434  0.0086 -0.2828
  149PROXR  H3148408  12.784   8.718  11.722  0.8540  0.0469 -0.2008
  149PROXR  H3248409  12.652   8.782  11.835  0.5069  0.4717 -0.5207
  149PROXR  H3348410  12.814   8.857  11.823 -0.0716  0.2961 -0.1605
  150PROXS   O148411  12.714   8.576  11.970  0.2952 -0.0002 -0.0964
  150PROXS   C148412  12.700   8.487  11.860 -0.2571 -0.1507 -0.1809
  150PROXS  H1148413  12.645   8.532  11.775 -1.8955 -1.7617 -0.0401
  150PROXS  H1348414  12.806   8.466  11.833  0.9585 -0.1978  3.8908
  150PROXS   C248415  12.637   8.348  11.903  0.0643 -0.1665  0.1644
  150PROXS  H2148416  12.691   8.314  11.994 -0.5704  0.7792  0.9176
  150PROXS   C348417  12.657   8.241  11.791 -0.1254  0.4335  0.6352
  150PROXS  H3148418  12.763   8.227  11.763  0.0132  0.2696  1.2121
  150PROXS  H3248419  12.620   8.140  11.822  1.9640 -1.3539 -2.1938
  150PROXS  H3348420  12.604   8.258  11.695  0.5937 -2.9007 -0.4903
  151PROXR   O148421  12.496   8.361  11.923  0.3506  0.2211 -0.3268
  151PROXR   C148422  12.468   8.447  12.036  0.9476 -0.0071 -0.6006
  151PROXR  H1148423  12.535   8.414  12.117 -0.5230  1.1401  1.1766
  151PROXR  H1348424  12.478   8.557  12.022 -0.6143  0.4376  1.3386
  151PROXR   C248425  12.325   8.415  12.083  0.5153  0.0056 -0.4882
  151PROXR  H2148426  12.329   8.304  12.091  0.8684 -0.0011 -0.7381
  151PROXR   C348427  12.213   8.458  11.979 -0.5388  0.0660 -0.1379
  151PROXR  H3148428  12.236   8.417  11.879 -0.8684  1.0289 -0.6248
  151PROXR  H3248429  12.116   8.406  11.994 -0.3882 -0.0375  0.5119
  151PROXR  H3348430  12.190   8.567  11.982 -0.4355  0.0667  1.5146
  152PROXR   O148431  12.294   8.482  12.203  0.0573  0.0813  0.5526
  152PROXR   C148432  12.191   8.430  12.283 -0.0937  0.5053  0.3215
  152PROXR  H1148433  12.094   8.426  12.230  0.9529 -2.8354 -1.6232
  152PROXR  H1348434  12.221   8.327  12.311 -0.1889  0.2958 -0.3383
  152PROXR   C248435  12.169   8.518  12.405  0.0952  0.2358 -0.8187
  152PROXR  H2148436  12.270   8.543  12.444  0.6071  0.8964 -2.4376
  152PROXR   C348437  12.090   8.442  12.521  0.0279  0.5491  0.1904
  152PROXR  H3148438  12.148   8.351  12.544  0.5952  0.8213 -0.1421
  152PROXR  H3248439  12.076   8.510  12.608  0.6215  1.8787 -0.7225
  152PROXR  H3348440  11.989   8.412  12.485  0.5046 -0.1365 -0.5968
  153PROXR   O148441  12.094   8.637  12.375 -0.2816 -0.2770  0.3310
  153PROXR   C148442  12.158   8.738  12.292  0.1127  0.4982 -0.2670
  153PROXR  H1148443  12.263   8.758  12.324 -0.3608  1.8742  0.5520
  153PROXR  H1348444  12.154   8.699  12.189 -0.2717 -0.8247  0.2307
  153PROXR   C248445  12.091   8.873  12.282  0.1783 -0.0930  0.6489
  153PROXR  H2148446  12.074   8.912  12.384  1.8164  2.2777  0.0992
  153PROXR   C348447  11.953   8.868  12.211 -0.4757 -0.0560 -0.8664
  153PROXR  H3148448  11.955   8.798  12.125  0.1270 -2.0468  0.6939
  153PROXR  H3248449  11.876   8.827  12.279  2.9025 -0.7018  2.9072
  153PROXR  H3348450  11.935   8.971  12.172  1.1717  0.4158 -0.4849
  154PROXS   O148451  12.170   8.954  12.201  0.1278  0.4442 -0.6114
  154PROXS   C148452  12.257   9.028  12.288  0.8419  0.4533 -0.0427
  154PROXS  H1148453  12.204   9.111  12.339  0.8664  0.0849  0.5840
  154PROXS  H1348454  12.299   8.961  12.366 -1.6952 -0.3560  0.7208
  154PROXS   C248455  12.380   9.067  12.201 -0.2249 -0.1549  0.1304
  154PROXS  H2148456  12.337   9.124  12.117 -0.7931 -0.9191 -0.1122
  154PROXS   C348457  12.465   8.953  12.147 -0.5281 -0.0382  0.4087
  154PROXS  H3148458  12.408   8.869  12.103  0.7191  0.1894 -1.7947
  154PROXS  H3248459  12.517   8.999  12.061 -2.3661 -0.0781 -0.7699
  154PROXS  H3348460  12.520   8.913  12.235 -2.5163 -1.8791  0.8904
  155PROXR   O148461  12.466   9.152  12.284 -0.0298  0.4958  0.0962
  155PROXR   C148462  12.422   9.289  12.307  0.5144  0.3167  0.4062
  155PROXR  H1148463  12.447   9.346  12.215 -0.8741  1.4443  0.6895
  155PROXR  H1348464  12.314   9.300  12.331 -0.1650 -0.0103 -2.1655
  155PROXR   C248465  12.503   9.351  12.425 -0.4054 -0.5117  0.3237
  155PROXR  H2148466  12.611   9.334  12.405 -0.3789 -0.3925  0.3632
  155PROXR   C348467  12.448   9.294  12.559  1.0453  0.1039 -0.2641
  155PROXR  H3148468  12.337   9.293  12.562  1.0427 -2.4437  1.1070
  155PROXR  H3248469  12.479   9.190  12.583  1.1523  0.5636  1.6963
  155PROXR  H3348470  12.482   9.344  12.652  0.0370 -2.5395  1.6285
  156PROXS   O148471  12.481   9.493  12.429 -0.3971  0.2010  0.1175
  156PROXS   C148472  12.560   9.559  12.521 -0.4497  0.8028 -0.3483
  156PROXS  H1148473  12.479   9.590  12.590 -2.9169 -0.7583 -2.3679
  156PROXS  H1348474  12.639   9.505  12.577  0.6345  3.4721  0.9155
  156PROXS   C248475  12.636   9.684  12.460  0.5408 -0.0021 -0.0843
  156PROXS  H2148476  12.559   9.740  12.402 -0.1143  2.6367  3.0677
  156PROXS   C348477  12.754   9.641  12.364  0.1242 -0.4490  0.1509
  156PROXS  H3148478  12.788   9.733  12.311  0.1559 -0.9864 -0.7739
  156PROXS  H3248479  12.839   9.611  12.429 -0.8812 -1.0635  1.2209
  156PROXS  H3348480  12.721   9.561  12.295  0.8674 -0.0354 -0.7028
  157PROXS   O148481  12.691   9.757  12.564  0.3789 -0.3594 -0.3206
  157PROXS   C148482  12.705   9.894  12.521  0.1577 -0.0977 -0.2025
  157PROXS  H1148483  12.777   9.899  12.437 -1.4462 -3.3589 -1.9763
  157PROXS  H1348484  12.606   9.941  12.499 -0.5088 -1.0646  0.5974
  157PROXS   C248485  12.768   9.979  12.636  0.4430  0.1139 -0.2433
  157PROXS  H2148486  12.867   9.942  12.668  0.4591  0.9343  0.6968
  157PROXS   C348487  12.683   9.975  12.766  0.2193  0.4908 -0.4777
  157PROXS  H3148488  12.579  10.009  12.749 -0.2222 -0.2579  0.6055
  157PROXS  H3248489  12.683   9.869  12.802 -3.3816 -0.1285 -1.8706
  157PROXS  H3348490  12.735  10.044  12.836  1.3566  0.3991 -1.1959
  158PROXR   O148491  12.770  10.119  12.590  0.3963 -0.0559  0.0853
  158PROXR   C148492  12.888  10.188  12.646  0.7530  0.1372 -0.0805
  158PROXR  H1148493  12.901  10.174  12.755 -0.4306 -1.4285 -0.0971
  158PROXR  H1348494  12.967  10.125  12.600 -0.5584 -0.6091 -1.4113
  158PROXR   C248495  12.889  10.337  12.617  0.5756 -0.3020  1.0303
  158PROXR  H2148496  12.792  10.381  12.649  1.4234  3.0536 -0.5725
  158PROXR   C348497  12.909  10.373  12.460 -0.6416  0.9092 -0.7818
  158PROXR  H3148498  12.909  10.484  12.462 -1.6936  0.9035  0.8967
  158PROXR  H3248499  13.002  10.335  12.411 -0.1556 -1.7322  1.9053
  158PROXR  H3348500  12.816  10.346  12.404  0.2753  1.2469 -2.5549
  159PROXR   O148501  13.003  10.401  12.672  0.3466 -0.3348 -0.3750
  159PROXR   C148502  12.978  10.447  12.808 -0.1608  0.1665 -0.5574
  159PROXR  H1148503  12.920  10.540  12.798 -1.1623 -0.4374 -0.4532
  159PROXR  H1348504  12.910  10.385  12.869 -1.2367  1.0491 -0.8361
  159PROXR   C248505  13.109  10.469  12.882 -0.9155  0.0869  0.2472
  159PROXR  H2148506  13.083  10.532  12.970 -2.2333 -1.9690  1.4077
  159PROXR   C348507  13.217  10.542  12.795  0.4565 -0.0215  0.2801
  159PROXR  H3148508  13.209  10.652  12.809  2.4068 -0.2017  3.6595
  159PROXR  H3248509  13.322  10.516  12.821 -0.2345 -0.0938  3.3299
  159PROXR  H3348510  13.192  10.516  12.689  1.0184 -0.4984  0.2610
  160PROXS   O148511  13.144  10.347  12.942  0.0131  0.2737  0.2821
  160PROXS   C148512  13.196  10.257  12.848  0.4421 -0.1985  0.0565
  160PROXS  H1148513  13.120  10.235  12.770  2.3149 -1.3678 -1.5092
  160PROXS  H1348514  13.293  10.286  12.802  2.1683 -2.8983  1.6829
  160PROXS   C248515  13.225  10.115  12.916 -0.4746 -0.8082 -0.1485
  160PROXS  H2148516  13.133  10.081  12.968 -1.2770  1.4499  0.0408
  160PROXS   C348517  13.350  10.134  13.006  0.4759  0.6166  0.1518
  160PROXS  H3148518  13.440  10.140  12.942  1.4498 -0.9398  1.2928
  160PROXS  H3248519  13.341  10.228  13.064 -1.4094  0.8367 -0.4175
  160PROXS  H3348520  13.356  10.046  13.074  1.5956  0.9575  0.4992
  161PROXR   O148521  13.250  10.023  12.814  0.2724  0.0254  0.2229
  161PROXR   C148522  13.254   9.889  12.856  0.0811 -1.0350 -0.0508
  161PROXR  H1148523  13.357   9.873  12.895  0.5116  0.0957 -0.6858
  161PROXR  H1348524  13.185   9.872  12.941 -1.0516 -0.2534 -0.7911
  161PROXR   C248525  13.233   9.782  12.742 -0.2055 -1.2178 -0.3704
  161PROXR  H2148526  13.284   9.818  12.651 -1.7819 -1.2446 -1.3078
  161PROXR   C348527  13.084   9.766  12.698 -0.0225 -0.2112  0.4693
  161PROXR  H3148528  13.079   9.859  12.638  2.5856  0.1439  0.6693
  161PROXR  H3248529  13.064   9.681  12.629 -0.4831  1.2057 -1.2039
  161PROXR  H3348530  13.013   9.763  12.783 -2.2533 -1.7300 -1.3426
  162PROXR   O148531  13.289   9.657  12.774  0.7178 -0.6172 -0.1610
  162PROXR   C148532  13.322   9.576  12.659  0.7289 -0.7713  0.1376
  162PROXR  H1148533  13.226   9.535  12.620  0.4899 -0.7846  0.7211
  162PROXR  H1348534  13.363   9.645  12.582 -3.3655  0.4597 -1.2150
  162PROXR   C248535  13.415   9.456  12.697 -0.0222  0.0796 -1.0043
  162PROXR  H2148536  13.359   9.407  12.779  0.6395 -0.9945 -1.1784
  162PROXR   C348537  13.557   9.495  12.740  0.4042 -0.4964 -0.0350
  162PROXR  H3148538  13.624   9.406  12.743 -2.2932 -2.6784  0.3141
  162PROXR  H3248539  13.594   9.564  12.661  0.1154  1.0016  1.0908
  162PROXR  H3348540  13.561   9.548  12.837  0.6374 -2.2998  0.9817
  163PROXS   O148541  13.436   9.377  12.582  0.5795 -0.3634 -0.3404
  163PROXS   C148542  13.447   9.240  12.624  0.5212 -0.4552  0.4838
  163PROXS  H1148543  13.539   9.227  12.685  0.4070 -1.4524  0.4542
  163PROXS  H1348544  13.367   9.210  12.695  1.5563 -0.1958  1.8226
  163PROXS   C248545  13.444   9.151  12.497 -0.1945 -1.1373  0.1745
  163PROXS  H2148546  13.541   9.161  12.444  0.3405 -2.3650  0.9038
  163PROXS   C348547  13.334   9.190  12.398 -0.3569  0.4777  0.5680
  163PROXS  H3148548  13.332   9.134  12.302  0.0947  0.6148  0.4782
  163PROXS  H3248549  13.231   9.188  12.440 -0.4308  3.1594  0.6836
  163PROXS  H3348550  13.358   9.290  12.356 -0.9815 -0.7196 -3.0319
  164PROXR   O148551  13.430   9.016  12.534  0.4113  0.2360 -0.3184
  164PROXR   C148552  13.507   8.923  12.451  0.1989 -0.0765 -0.1127
  164PROXR  H1148553  13.443   8.833  12.447 -0.8745  0.7277 -2.3327
  164PROXR  H1348554  13.498   8.955  12.345  0.0265 -1.9940 -0.7107
  164PROXR   C248555  13.646   8.881  12.492 -0.1418  0.3457 -0.1525
  164PROXR  H2148556  13.677   8.791  12.436 -1.3858 -0.7810  0.8732
  164PROXR   C348557  13.662   8.855  12.644  0.1505  0.5482 -0.2638
  164PROXR  H3148558  13.595   8.772  12.672 -1.8188  2.1638 -0.0157
  164PROXR  H3248559  13.770   8.827  12.649 -0.2554 -2.7215 -4.4189
  164PROXR  H3348560  13.646   8.936  12.717  0.1402 -0.3775  0.7801
  165PROXR   O148561  13.730   8.992  12.460  0.0435  0.2337  0.2430
  165PROXR   C148562  13.762   9.010  12.321 -0.1962 -0.2606  0.3613
  165PROXR  H1148563  13.803   8.912  12.287  0.6137  0.8691 -2.1429
  165PROXR  H1348564  13.671   9.029  12.260  1.1375  0.4079 -1.5286
  165PROXR   C248565  13.866   9.123  12.291  0.3913  0.5852 -0.4096
  165PROXR  H2148566  13.961   9.088  12.338 -0.3536  0.4746  1.0859
  165PROXR   C348567  13.825   9.260  12.346  0.0241  0.2975  0.2791
  165PROXR  H3148568  13.897   9.340  12.321 -1.9031  1.7038 -1.0612
  165PROXR  H3248569  13.728   9.288  12.300 -0.4320  1.7851  2.0400
  165PROXR  H3348570  13.813   9.252  12.456  1.8486 -3.2983  0.3910
  166ETHOX   O148571  13.889   9.140  12.149 -0.5434 -0.0723 -0.0592
  166ETHOX   C148572  13.970   9.037  12.091  0.4080 -0.4631 -0.6770
  166ETHOX  H1148573  13.944   8.938  12.135  0.4897 -0.2542 -0.1433
  166ETHOX  H1348574  14.077   9.056  12.112  0.6521 -1.6937 -0.7309
  166ETHOX   C248575  13.956   9.034  11.934  0.1666  0.6506  0.2699
  166ETHOX  H2148576  14.033   8.970  11.885 -2.3679 -2.1083 -0.3643
  166ETHOX  H2348577  13.962   9.140  11.901  0.0226  0.5267 -0.1597
  167ETHOX   O148578  13.839   8.963  11.892 -0.0453 -0.3282 -0.1638
  167ETHOX   C148579  13.814   8.978  11.754  0.2080  0.3363  1.0397
  167ETHOX  H1148580  13.823   9.086  11.732 -3.0744  0.7461  1.1623
  167ETHOX  H1348581  13.902   8.930  11.706  0.4248  0.8503  0.9185
  167ETHOX   C248582  13.686   8.916  11.697 -0.3793  0.1949  0.1445
  167ETHOX  H2148583  13.663   8.950  11.593  1.2250  0.3804 -0.1721
  167ETHOX  H2348584  13.599   8.950  11.758 -0.6150  2.3597 -1.2746
  168ETHOX   O148585  13.702   8.777  11.687  0.3019  0.0114  0.8695
  168ETHOX   C148586  13.575   8.720  11.649 -0.7161  0.3024 -0.4019
  168ETHOX  H1148587  13.529   8.791  11.577 -1.5605 -0.4846 -0.6566
  168ETHOX  H1348588  13.520   8.717  11.746  1.9965 -0.6532  1.2111
  168ETHOX   C248589  13.601   8.581  11.602 -0.7318  0.3720 -0.5159
  168ETHOX  H2148590  13.503   8.530  11.610 -0.9079  0.9307  1.4564
  168ETHOX  H2348591  13.655   8.527  11.682 -2.9189 -0.7707  0.2801
  169ETHOX   O148592  13.652   8.561  11.466 -0.1031 -0.3037  0.2985
  169ETHOX   C148593  13.546   8.577  11.371 -0.4585  0.1060 -0.3514
  169ETHOX  H1148594  13.464   8.513  11.412  1.0058 -0.2675  2.2072
  169ETHOX  H1348595  13.510   8.682  11.374 -1.2706 -0.1125 -1.6834
  169ETHOX   C248596  13.598   8.563  11.231  0.2658 -0.3259  0.2519
  169ETHOX  H2148597  13.662   8.652  11.209  0.3513 -0.4552 -0.0276
  169ETHOX  H2348598  13.521   8.568  11.151 -1.9604  0.8881  2.3356
  170ETHOX   O148599  13.666   8.442  11.215 -0.6639  0.5821 -1.1227
  170ETHOX   C148600  13.696   8.409  11.078  0.6975  1.0053 -0.0842
  170ETHOX  H1148601  13.779   8.466  11.030  2.0194 -1.3018 -0.7144
  170ETHOX  H1348602  13.602   8.424  11.022 -0.6383  2.6993  2.4068
  170ETHOX   C248603  13.749   8.269  11.060  0.8530  0.7489 -0.2265
  170ETHOX  H2148604  13.853   8.267  11.099  1.5159  2.6938 -1.7468
  170ETHOX  H2348605  13.740   8.248  10.951 -0.5136 -0.8952  0.1570
  171ETHOX   O148606  13.674   8.159  11.128  0.2112 -0.0675 -0.1887
  171ETHOX   C148607  13.532   8.166  11.100 -0.3917 -0.5320  0.1558
  171ETHOX  H1148608  13.502   8.259  11.153  2.2846  0.6421 -0.2319
  171ETHOX  H1348609  13.516   8.184  10.992  0.2830  3.9652  0.5966
  171ETHOX   C248610  13.434   8.055  11.151  0.3008 -0.2457 -0.3499
  171ETHOX  H2148611  13.328   8.084  11.136 -0.3162 -1.3541  1.5301
  171ETHOX  H2348612  13.454   8.033  11.258  1.5607  0.7702 -0.3618
  172ETHOX   O148613  13.455   7.932  11.087  0.2895  0.3945  0.1924
  172ETHOX   C148614  13.337   7.856  11.088 -0.3282 -0.3117 -0.6450
  172ETHOX  H1148615  13.252   7.895  11.027  1.3634  1.2217 -2.1615
  172ETHOX  H1348616  13.303   7.848  11.193  0.1284 -1.5036 -0.5787
  172ETHOX   C248617  13.380   7.712  11.041  0.3541  0.1222  0.4109
  172ETHOX  H2148618  13.431   7.709  10.942 -1.3917  1.2926 -0.5812
  172ETHOX  H2348619  13.287   7.653  11.032 -0.2342  1.3192 -2.7097
  173ETHOX   O148620  13.468   7.663  11.139 -0.3378 -0.7296 -0.2333
  173ETHOX   C148621  13.486   7.525  11.139  0.7666  0.2228 -0.0805
  173ETHOX  H1148622  13.421   7.498  11.225  1.0222  3.2213  1.1789
  173ETHOX  H1348623  13.456   7.485  11.040  1.2855 -0.2963 -0.0264
  173ETHOX   C248624  13.629   7.492  11.180 -0.3440  0.4171  0.7553
  173ETHOX  H2148625  13.701   7.547  11.115  0.9805 -1.3854  0.6268
  173ETHOX  H2348626  13.645   7.519  11.286  2.9879 -3.0733  1.3682
  174ETHOX   O148627  13.665   7.358  11.160  0.6791 -0.1997 -0.5703
  174ETHOX   C148628  13.603   7.273  11.259  0.3736  0.4121 -0.3809
  174ETHOX  H1148629  13.696   7.217  11.284  0.4398  1.1788  1.1685
  174ETHOX  H1348630  13.559   7.332  11.342  0.1224 -0.5966  0.2166
  174ETHOX   C248631  13.491   7.175  11.212  0.2213  1.4753 -0.3142
  174ETHOX  H2148632  13.448   7.224  11.123  1.0553  1.1625 -0.9001
  174ETHOX  H2348633  13.413   7.166  11.291 -2.4085  0.4316 -2.8439
  175ETHOX   O148634  13.550   7.048  11.180 -0.1137 -0.4997  0.3939
  175ETHOX   C148635  13.458   6.944  11.144  0.4178  0.4187  0.0243
  175ETHOX  H1148636  13.372   6.949  11.215 -0.1129 -1.4898 -0.4257
  175ETHOX  H1348637  13.403   6.963  11.049  1.3359 -2.3657 -1.1554
  175ETHOX   C248638  13.535   6.811  11.132  0.2226  0.0747 -0.1972
  175ETHOX  H2148639  13.467   6.724  11.122 -0.8074  0.9060 -0.5677
  175ETHOX  H2348640  13.598   6.802  11.223 -1.2854 -0.5242  0.8263
  176ETHOX   O148641  13.618   6.800  11.017  0.2071  0.5057 -0.3864
  176ETHOX   C148642  13.716   6.691  11.017 -0.1293 -0.2520  0.4517
  176ETHOX  H1148643  13.773   6.694  11.113 -1.9515  0.5504  1.5645
  176ETHOX  H1348644  13.657   6.597  11.010  0.8556 -0.7932 -0.9018
  176ETHOX   C248645  13.813   6.695  10.905  0.0834 -0.3704  0.2832
  176ETHOX  H2148646  13.749   6.709  10.815 -1.3262  0.5389  1.3769
  176ETHOX  H2348647  13.856   6.593  10.893 -0.2120 -0.3018 -1.7743
  177ETHOX   O148648  13.909   6.792  10.915  0.2155  0.7588  0.0137
  177ETHOX   C148649  13.984   6.791  10.793 -0.2945 -0.3192 -1.0578
  177ETHOX  H1148650  13.935   6.858  10.719 -1.6776 -0.9648 -0.7468
  177ETHOX  H1348651  14.008   6.688  10.756  0.3240 -0.2568 -0.8369
  177ETHOX   C248652  14.120   6.855  10.805  0.2626 -0.2453  0.1656
  177ETHOX  H2148653  14.118   6.958  10.846  0.7688 -0.2140  0.1183
  177ETHOX  H2348654  14.166   6.864  10.704  1.5370 -0.9161  0.6668
  178ETHOX   O148655  14.197   6.780  10.890 -0.3260 -0.1699 -0.9768
  178ETHOX   C148656  14.329   6.813  10.873  0.3017  0.2659  0.0097
  178ETHOX  H1148657  14.354   6.747  10.787 -0.8346  0.3650 -0.4126
  178ETHOX  H1348658  14.356   6.916  10.842  1.5568 -0.0935 -0.1348
  178ETHOX   C248659  14.424   6.762  10.982  0.3945 -0.2118  0.2495
  178ETHOX  H2148660  14.526   6.776  10.941  0.2062  0.7842  0.0893
  178ETHOX  H2348661  14.395   6.656  11.002 -0.0662 -0.0596  0.4047
  179ETHOX   O148662  14.406   6.843  11.101  0.0909  0.0215  0.2082
  179ETHOX   C148663  14.453   6.769  11.216 -0.3175  0.4660 -0.1396
  179ETHOX  H1148664  14.550   6.724  11.187 -0.3626 -0.5482  1.1771
  179ETHOX  H1348665  14.386   6.684  11.240  0.4749 -0.5886 -1.5304
  179ETHOX   C248666  14.478   6.854  11.357 -0.7745  0.2474  0.3978
  179ETHOX  H2148667  14.501   6.776  11.432 -0.6744 -1.1457 -1.0280
  179ETHOX  H2348668  14.382   6.891  11.399 -1.6640  0.8299 -1.9968
  180ETHOX   O148669  14.585   6.948  11.360 -0.3114 -0.4820  0.1590
  180ETHOX   C148670  14.548   7.087  11.345 -0.1846 -0.6397 -0.6668
  180ETHOX  H1148671  14.514   7.104  11.240 -3.4507 -1.7669  0.0914
  180ETHOX  H1348672  14.459   7.117  11.403 -2.0962 -0.5561 -3.4360
  180ETHOX   C248673  14.660   7.182  11.366  0.3990 -0.0623  0.6795
  180ETHOX  H2148674  14.718   7.158  11.457  1.1781 -1.5992 -0.1795
  180ETHOX  H2348675  14.621   7.286  11.375  2.0644  0.4713  2.1368
  181ETHOX   O148676  14.742   7.169  11.248 -0.2445 -0.3333 -0.9197
  181ETHOX   C148677  14.844   7.263  11.241  0.3419 -0.4262 -0.3347
  181ETHOX  H1148678  14.870   7.286  11.347 -0.8924 -0.1636 -0.0612
  181ETHOX  H1348679  14.809   7.361  11.202 -0.2118  1.3656  4.0453
  181ETHOX   C248680  14.966   7.217  11.157 -0.0320  0.2265 -0.4667
  181ETHOX  H2148681  15.040   7.299  11.145  2.1539 -1.3824  1.0763
  181ETHOX  H2348682  14.941   7.183  11.054 -1.3261 -0.9606  0.2114
  182ETHOX   O148683  15.038   7.118  11.234  0.1341 -0.7623  0.6548
  182ETHOX   C148684  15.159   7.073  11.160  0.6010 -0.7840  0.3280
  182ETHOX  H1148685  15.115   7.023  11.071 -0.6446 -0.7889  0.9249
  182ETHOX  H1348686  15.210   7.169  11.137  0.8330 -0.6759  1.2760
  182ETHOX   C248687  15.251   6.989  11.245 -0.0587 -0.0995 -0.2240
  182ETHOX  H2148688  15.322   6.938  11.176 -0.6438  0.7026 -1.4547
  182ETHOX  H2348689  15.190   6.904  11.283 -0.2528  0.1112 -0.0616
  183ETHOX   O148690  15.321   7.042  11.351  0.0998 -0.1390  0.4688
  183ETHOX   C148691  15.410   6.947  11.409 -0.6245 -0.1356 -0.2392
  183ETHOX  H1148692  15.459   6.887  11.329  0.4161  2.1299 -1.4177
  183ETHOX  H1348693  15.354   6.865  11.459  1.4925 -1.4069  0.1733
  183ETHOX   C248694  15.514   7.023  11.484 -0.9334 -0.1606 -0.0913
  183ETHOX  H2148695  15.576   6.956  11.549 -3.6965  0.1744  3.1584
  183ETHOX  H2348696  15.462   7.085  11.560  0.6086 -2.9419  3.5746
  184ETHOX   O148697  15.599   7.103  11.399 -0.2288  0.7772  0.1356
  184ETHOX   C148698  15.642   7.223  11.460  0.9043 -0.1617 -0.6835
  184ETHOX  H1148699  15.559   7.276  11.512 -0.2605 -1.1237 -1.5045
  184ETHOX  H1348700  15.712   7.187  11.538 -0.3047 -1.7384 -0.2633
  184ETHOX   C248701  15.725   7.319  11.379  0.2541  0.3610 -0.2191
  184ETHOX  H2148702  15.813   7.266  11.337 -0.6474  0.5192 -2.4164
  184ETHOX  H2348703  15.761   7.406  11.438 -0.8731  1.0421 -0.4959
  185ETHOX   O148704  15.650   7.375  11.273 -0.1643 -0.4271 -0.2895
  185ETHOX   C148705  15.724   7.481  11.215 -0.5370  0.5282  0.0967
  185ETHOX  H1148706  15.731   7.568  11.283 -0.5156  2.3402 -2.1004
  185ETHOX  H1348707  15.832   7.458  11.200 -0.3929 -0.3755  2.1461
  185ETHOX   C248708  15.671   7.522  11.080  0.4444  0.0400  0.5345
  185ETHOX  H2148709  15.712   7.623  11.060  1.1441 -0.6324 -1.8916
  185ETHOX  H2348710  15.561   7.532  11.076  0.5528  1.3341  0.5663
  186ETHOX   O148711  15.715   7.438  10.976 -0.3314 -0.0466  0.3679
  186ETHOX   C148712  15.718   7.501  10.845  0.3223  0.3722 -0.1417
  186ETHOX  H1148713  15.610   7.502  10.818 -0.1381 -1.0125  1.4829
  186ETHOX  H1348714  15.743   7.609  10.854  1.9537  0.1516 -1.5690
  186ETHOX   C248715  15.814   7.442  10.737  0.2351  0.9401  0.4496
  186ETHOX  H2148716  15.775   7.466  10.636  0.3606 -0.4059  0.0534
  186ETHOX  H2348717  15.824   7.331  10.740  1.9839  1.0609  0.1411
  187ETHOX   O148718  15.946   7.498  10.761 -0.0368  0.1923  0.7500
  187ETHOX   C148719  16.039   7.447  10.666  0.2904  0.3794 -0.3571
  187ETHOX  H1148720  16.015   7.339  10.656  4.2232 -0.8768  1.4242
  187ETHOX  H1348721  16.013   7.508  10.577 -1.1774  2.2361  1.2576
  187ETHOX   C248722  16.181   7.450  10.734 -0.3117  0.1963  0.5576
  187ETHOX  H2148723  16.195   7.531  10.808 -0.4114  0.8303 -0.1123
  187ETHOX  H2348724  16.258   7.463  10.655  1.0836  0.9731  1.9714
  188ETHOX   O148725  16.211   7.338  10.809 -0.3496 -0.2501 -0.6991
  188ETHOX   C148726  16.353   7.333  10.832  0.6209  0.1670  0.5822
  188ETHOX  H1148727  16.377   7.376  10.932  0.4669 -1.3931  1.3138
  188ETHOX  H1348728  16.419   7.392  10.765 -0.3120  0.5068 -0.0557
  188ETHOX   C248729  16.388   7.191  10.822  0.1281  0.1900 -0.2111
  188ETHOX  H2148730  16.497   7.173  10.814  0.5514  2.3705  0.0841
  188ETHOX  H2348731  16.327   7.140  10.744 -1.7320 -0.2238  1.4448
  189ETHOX   O148732  16.336   7.125  10.939 -0.2310  0.2290  0.5671
  189ETHOX   C148733  16.381   6.987  10.961  0.4701  0.5410  0.7975
  189ETHOX  H1148734  16.323   6.916  10.899 -0.8444  1.9977  0.3045
  189ETHOX  H1348735  16.487   6.990  10.927 -0.2770  1.9170 -1.6722
  189ETHOX   C248736  16.362   6.954  11.109  0.2319 -0.1362 -0.0294
  189ETHOX  H2148737  16.394   6.850  11.129 -0.2430  0.0641  1.9618
  189ETHOX  H2348738  16.253   6.967  11.123  0.1231  1.1079 -1.6713
  190ETHOX   O148739  16.426   7.043  11.204  0.3411  0.4873 -0.0640
  190ETHOX   C148740  16.361   7.032  11.326 -0.1643 -0.5990 -0.2498
  190ETHOX  H1148741  16.371   6.927  11.361 -0.6391 -0.4220  0.4197
  190ETHOX  H1348742  16.251   7.045  11.322 -0.1674  0.4890  1.9354
  190ETHOX   C248743  16.427   7.131  11.433  0.8108  0.1286  0.0803
  190ETHOX  H2148744  16.536   7.126  11.413  0.6983  1.5941 -1.1903
  190ETHOX  H2348745  16.389   7.088  11.528 -1.0492 -0.3682 -0.8327
  191ETHOX   O148746  16.386   7.262  11.398  0.0877  0.2054 -0.1167
  191ETHOX   C148747  16.406   7.353  11.499 -0.1549  0.6955  0.5748
  191ETHOX  H1148748  16.377   7.305  11.595 -1.0653 -0.1697 -0.1153
  191ETHOX  H1348749  16.514   7.380  11.501 -0.3762  1.8250 -0.9454
  191ETHOX   C248750  16.336   7.481  11.479 -0.1163 -0.2195  0.6379
  191ETHOX  H2148751  16.319   7.493  11.369 -1.3099  0.6275  0.8863
  191ETHOX  H2348752  16.393   7.569  11.514 -0.2378 -0.3951  1.2852
  192ETHOX   O148753  16.210   7.486  11.548  0.5561  0.7514  0.0770
  192ETHOX   C148754  16.120   7.386  11.504 -0.0007  0.0059  0.3464
  192ETHOX  H1148755  16.170   7.288  11.489  0.6845  0.2732  0.8515
  192ETHOX  H1348756  16.082   7.412  11.403 -0.3714  1.6184  0.8724
  192ETHOX   C248757  15.996   7.367  11.601 -0.4524  0.1223  0.2149
  192ETHOX  H2148758  15.919   7.305  11.550  1.6216 -1.3815 -1.2549
  192ETHOX  H2348759  15.953   7.470  11.602 -2.4299 -0.6525  1.9175
  193ETHOX   O148760  16.017   7.306  11.731  0.5388 -0.2562 -0.3213
  193ETHOX   C148761  15.941   7.363  11.836  0.0072  0.0468 -0.4509
  193ETHOX  H1148762  15.990   7.320  11.927 -0.8167  3.2527  1.6603
  193ETHOX  H1348763  15.959   7.472  11.845  1.2074 -0.0860 -0.9602
  193ETHOX   C248764  15.794   7.315  11.836  0.2895  0.0609  0.1951
  193ETHOX  H2148765  15.740   7.339  11.931  0.4390 -1.5351  0.7146
  193ETHOX  H2348766  15.778   7.209  11.810  0.9921 -0.2952  1.1557
  194ETHOX   O148767  15.721   7.381  11.735 -0.3914  0.5706 -0.2345
  194ETHOX   C148768  15.590   7.423  11.772 -0.4381  0.1495  0.5710
  194ETHOX  H1148769  15.531   7.349  11.831 -1.8540  1.1260  0.4415
  194ETHOX  H1348770  15.533   7.443  11.679  0.7746  0.6508 -0.0862
  194ETHOX   C248771  15.591   7.559  11.840 -0.4577 -0.3830  0.7850
  194ETHOX  H2148772  15.698   7.582  11.857  1.8000 -5.4035 -3.6543
  194ETHOX  H2348773  15.541   7.548  11.939 -2.9623  0.1118 -0.3464
  195ETHOX   O148774  15.524   7.672  11.777 -0.0963 -0.0591 -0.0462
  195ETHOX   C148775  15.602   7.743  11.673 -0.0173 -0.0360  0.2308
  195ETHOX  H1148776  15.565   7.848  11.663 -1.6054 -0.7288 -1.7607
  195ETHOX  H1348777  15.710   7.750  11.698  0.7927 -0.7573 -2.7052
  195ETHOX   C248778  15.587   7.683  11.532 -0.3522 -0.5226 -0.5572
  195ETHOX  H2148779  15.640   7.586  11.542  1.7629  0.7349  1.7666
  195ETHOX  H2348780  15.641   7.744  11.456 -0.8472  0.5940 -0.0412
  196ETHOX   O148781  15.450   7.677  11.501 -0.0825  1.1155  0.5924
  196ETHOX   C148782  15.422   7.622  11.375  0.3405  0.3377  0.4931
  196ETHOX  H1148783  15.447   7.692  11.293  1.5757  0.5515  1.0311
  196ETHOX  H1348784  15.488   7.535  11.353 -1.0033 -0.5170 -0.3045
  196ETHOX   C248785  15.271   7.578  11.358  0.8766 -0.0229  0.4098
  196ETHOX  H2148786  15.264   7.500  11.279  1.5153  1.7142 -1.4473
  196ETHOX  H2348787  15.212   7.667  11.326  1.8340  0.2404 -0.7137
  197ETHOX   O148788  15.237   7.519  11.486  0.4002  0.2847 -0.1710
  197ETHOX   C148789  15.247   7.377  11.483 -0.0297 -0.0088  0.4279
  197ETHOX  H1148790  15.170   7.334  11.415 -0.5435  3.1359 -1.1803
  197ETHOX  H1348791  15.348   7.356  11.443  0.3438  2.1703  0.1087
  197ETHOX   C248792  15.224   7.318  11.620  0.2421 -0.2310  0.2458
  197ETHOX  H2148793  15.126   7.345  11.664  0.3629  0.8460 -0.1215
  197ETHOX  H2348794  15.294   7.360  11.696 -0.7993 -2.8000  2.8227
  198ETHOX   O148795  15.237   7.184  11.635  0.5065  0.3983  0.0021
  198ETHOX   C148796  15.110   7.118  11.658  0.5147 -0.3476  0.0913
  198ETHOX  H1148797  15.075   7.137  11.762  1.0220 -0.8099  0.3575
  198ETHOX  H1348798  15.032   7.147  11.585  0.8491 -0.8825 -0.4877
  198ETHOX   C248799  15.129   6.967  11.654  0.5589  0.1177 -0.3449
  198ETHOX  H2148800  15.180   6.934  11.561 -0.4039 -1.0350 -0.4924
  198ETHOX  H2348801  15.023   6.934  11.661 -0.7101  3.8513  0.3810
  199ETHOX   O148802  15.199   6.916  11.765 -0.0269 -0.1572  0.0086
  199ETHOX   C148803  15.225   6.777  11.759  0.5040 -0.4111  0.1000
  199ETHOX  H1148804  15.297   6.770  11.675  1.8410  2.9491  0.8276
  199ETHOX  H1348805  15.129   6.727  11.733 -0.4610  0.5674  1.6282
  199ETHOX   C248806  15.270   6.721  11.896  0.5120  0.0904  0.9652
  199ETHOX  H2148807  15.364   6.773  11.922 -0.4907  1.5156  1.8678
  199ETHOX  H2348808  15.277   6.613  11.869 -2.0659 -0.2688  1.4253
  200ETHOX   O148809  15.165   6.731  11.992 -0.5803 -0.5047  0.2940
  200ETHOX   C148810  15.209   6.679  12.117  0.0608  0.4331 -0.1311
  200ETHOX  H1148811  15.253   6.579  12.099  3.3303  2.0188 -1.7789
  200ETHOX  H1348812  15.279   6.751  12.164 -0.8103  0.7598  0.6981
  200ETHOX   C248813  15.079   6.657  12.203 -0.3668  1.2878 -0.6431
  200ETHOX  H2148814  15.022   6.576  12.153 -0.1307  0.5962  0.1777
  200ETHOX  H2348815  15.019   6.750  12.204 -0.5761  1.2046  2.2691
  201ETHOX   O148816  15.094   6.622  12.337  0.4154  0.6686  0.3495
  201ETHOX   C148817  15.170   6.506  12.352  0.0168  1.3552  0.1526
  201ETHOX  H1148818  15.276   6.528  12.328  0.4827  0.2688  1.0832
  201ETHOX  H1348819  15.136   6.434  12.275  1.4433 -0.4103  1.0920
  201ETHOX   C248820  15.154   6.432  12.484  0.2521  0.3523 -0.2962
  201ETHOX  H2148821  15.194   6.329  12.470 -0.0160 -0.0886  1.7980
  201ETHOX  H2348822  15.045   6.416  12.497  0.2132  0.9363  0.1275
  202ETHOX   O148823  15.211   6.498  12.598  0.3561 -0.0255 -0.0600
  202ETHOX   C148824  15.161   6.428  12.714  0.7106 -1.1827 -0.7656
  202ETHOX  H1148825  15.053   6.454  12.727  0.8909 -1.3836  1.4057
  202ETHOX  H1348826  15.174   6.320  12.690  1.8185 -1.4268  0.7498
  202ETHOX   C248827  15.245   6.470  12.842  0.1611 -0.2834 -0.7378
  202ETHOX  H2148828  15.352   6.448  12.821  0.2627  1.2065 -1.9461
  202ETHOX  H2348829  15.212   6.410  12.930  0.0190  0.2190 -0.4436
  203ETHOX   O148830  15.230   6.609  12.874  0.4879 -0.6637  0.1414
  203ETHOX   C148831  15.350   6.665  12.927  0.0264 -0.0016  0.3653
  203ETHOX  H1148832  15.425   6.673  12.846  1.4939 -3.4604  1.2007
  203ETHOX  H1348833  15.393   6.604  13.010  1.8138  1.1987  0.3675
  203ETHOX   C248834  15.312   6.806  12.980 -0.2880  0.3389 -0.6179
  203ETHOX  H2148835  15.250   6.843  12.896 -1.1937 -0.5606 -0.3569
  203ETHOX  H2348836  15.404   6.869  12.985 -1.2763  1.8106 -0.1600
  204ETHOX   O148837  15.249   6.804  13.104  0.5293  0.0683  0.4705
  204ETHOX   C148838  15.216   6.935  13.144 -0.3688 -0.4468  0.4027
  204ETHOX  H1148839  15.315   6.984  13.156  0.5388 -2.0697 -0.2037
  204ETHOX  H1348840  15.152   6.975  13.063 -1.2011 -1.2564  0.6372
  204ETHOX   C248841  15.136   6.940  13.267  0.2631  1.0462 -0.3808
  204ETHOX  H2148842  15.041   6.885  13.246  0.5349  1.0056 -1.5799
  204ETHOX  H2348843  15.113   7.042  13.304  1.2666  1.0089  0.3630
  205ETHOX   O148844  15.209   6.888  13.375 -0.1415  0.1203 -0.8536
  205ETHOX   C148845  15.121   6.838  13.482 -0.1547 -0.0204  0.7907
  205ETHOX  H1148846  15.031   6.794  13.434 -0.6147  0.4167  1.2478
  205ETHOX  H1348847  15.092   6.921  13.550  1.9238  1.6936 -0.2652
  205ETHOX   C248848  15.181   6.722  13.566 -0.6299 -0.4503 -0.8114
  205ETHOX  H2148849  15.246   6.658  13.502  3.5477  0.5729  1.9902
  205ETHOX  H2348850  15.099   6.673  13.623  0.5644  1.5247  2.9499
  206ETHOX   O148851  15.275   6.772  13.660  0.3223  1.0841 -0.3118
  206ETHOX   C148852  15.305   6.680  13.764  0.2341 -0.5569 -0.0017
  206ETHOX  H1148853  15.219   6.679  13.835  0.2885  1.1345  0.1151
  206ETHOX  H1348854  15.312   6.577  13.722  1.9697  0.2407 -1.8039
  206ETHOX   C248855  15.422   6.724  13.852  0.2092 -0.0725  0.0412
  206ETHOX  H2148856  15.457   6.630  13.901 -1.6431 -0.0057  1.6252
  206ETHOX  H2348857  15.504   6.758  13.784  1.2867 -0.3768  1.1523
  207ETHOX   O148858  15.396   6.814  13.967  0.0811  0.5059  0.1384
  207ETHOX   C148859  15.344   6.944  13.940 -0.2473  0.1769  0.2258
  207ETHOX  H1148860  15.259   6.928  13.870  0.3425 -0.6895 -0.2928
  207ETHOX  H1348861  15.421   7.002  13.886 -1.8630  2.5948  0.3447
  207ETHOX   C248862  15.300   7.029  14.066  0.1981 -0.2925 -0.0611
  207ETHOX  H2148863  15.232   6.967  14.128 -0.7179  1.1766  0.4601
  207ETHOX  H2348864  15.242   7.118  14.033 -0.2342 -1.1338 -1.6857
  208ETHOX   O148865  15.405   7.081  14.142  0.1046 -0.2879 -0.3049
  208ETHOX   C148866  15.347   7.160  14.250 -0.2072 -0.1533  0.0071
  208ETHOX  H1148867  15.288   7.242  14.203  1.4535 -0.2422 -2.4229
  208ETHOX  H1348868  15.282   7.097  14.314 -0.0505  0.3899  0.7165
  208ETHOX   C248869  15.448   7.222  14.352  0.1466 -0.0997  0.2511
  208ETHOX  H2148870  15.523   7.147  14.386  0.4248 -0.7835 -1.7420
  208ETHOX  H2348871  15.386   7.251  14.440  1.7033 -0.5578  1.5459
  209ETHOX   O148872  15.528   7.328  14.299  0.4396  0.1508  0.0797
  209ETHOX   C148873  15.608   7.383  14.393  0.4638 -0.2935  0.1688
  209ETHOX  H1148874  15.536   7.412  14.473 -0.5193  1.1912 -1.1828
  209ETHOX  H1348875  15.644   7.480  14.351 -0.7707  0.1973  0.1838
  209ETHOX   C248876  15.721   7.298  14.437  0.2641  0.1162 -0.3052
  209ETHOX  H2148877  15.798   7.369  14.472  0.5963 -0.3316 -0.1225
  209ETHOX  H2348878  15.754   7.215  14.371  0.3042  0.6599 -0.9723
  210ETHOX   O148879  15.668   7.233  14.554  0.0864  0.0607 -0.3023
  210ETHOX   C148880  15.762   7.165  14.638  0.4727 -0.7176 -0.0111
  210ETHOX  H1148881  15.828   7.099  14.578 -1.5903 -1.8679 -1.1129
  210ETHOX  H1348882  15.817   7.238  14.701  0.4287 -0.9811  0.3313
  210ETHOX   C248883  15.669   7.075  14.718  0.3095  0.1667  0.5560
  210ETHOX  H2148884  15.742   7.025  14.784  1.9637  1.6951 -0.0199
  210ETHOX  H2348885  15.606   7.010  14.653 -0.5102  1.9507 -0.5231
  211ETHOX   O148886  15.583   7.143  14.811 -0.0458 -0.1416  0.4997
  211ETHOX   C148887  15.511   7.052  14.893  0.1228 -1.2059  0.4901
  211ETHOX  H1148888  15.437   6.988  14.840 -1.5564  0.1296  1.1008
  211ETHOX  H1348889  15.579   6.987  14.952 -0.3017 -0.0766  2.3135
  211ETHOX   C248890  15.437   7.136  14.999  0.1421 -0.3497  0.0564
  211ETHOX  H2148891  15.514   7.207  15.036  0.1017  0.6854 -1.7129
  211ETHOX  H2348892  15.408   7.081  15.091 -1.7967 -1.0697 -0.9234
  212ETHOX   O148893  15.314   7.201  14.951  0.0603 -0.6861  0.1146
  212ETHOX   C148894  15.214   7.213  15.053 -0.3294 -0.5051  0.0335
  212ETHOX  H1148895  15.172   7.116  15.086 -0.0499 -0.2855  1.0604
  212ETHOX  H1348896  15.266   7.256  15.141  0.7682  0.0846 -0.8600
  212ETHOX   C248897  15.098   7.297  15.007  0.5959 -0.0230  1.1077
  212ETHOX  H2148898  15.001   7.276  15.057 -0.9047  1.1839 -1.1354
  212ETHOX  H2348899  15.067   7.256  14.909  0.7898  0.9309  0.6332
  213ETHOX   O148900  15.125   7.440  15.014  0.1359 -0.5913  0.2035
  213ETHOX   C148901  15.026   7.529  14.953 -0.5491 -0.0101 -0.4876
  213ETHOX  H1148902  14.998   7.491  14.852  0.7575 -0.3162 -0.7588
  213ETHOX  H1348903  14.941   7.537  15.024  0.9782 -2.0753  1.7339
  213ETHOX   C248904  15.094   7.665  14.936  0.2701  0.4730 -0.7666
  213ETHOX  H2148905  15.139   7.667  15.038 -0.9430 -2.0203 -0.1275
  213ETHOX  H2348906  15.017   7.744  14.921  0.8103  0.6786 -2.7326
  214ETHOX   O148907  15.200   7.658  14.838  0.8610  0.8548  0.3411
  214ETHOX   C148908  15.273   7.778  14.823 -0.4850 -0.2131 -0.3972
  214ETHOX  H1148909  15.293   7.819  14.924  1.0588  3.4323 -2.0080
  214ETHOX  H1348910  15.210   7.854  14.772 -1.8173 -0.4318  0.8458
  214ETHOX   C248911  15.412   7.756  14.753  0.3120  0.0163  0.1228
  214ETHOX  H2148912  15.442   7.654  14.784  0.9697  0.4550  0.9485
  214ETHOX  H2348913  15.482   7.837  14.783  1.2025 -1.4481  2.2249
  215ETHOX   O148914  15.398   7.758  14.611  0.3317 -0.1653 -0.2911
  215ETHOX   C148915  15.513   7.718  14.541 -0.4105 -0.6031  0.2373
  215ETHOX  H1148916  15.534   7.611  14.563  1.7492 -0.5813 -1.3698
  215ETHOX  H1348917  15.483   7.711  14.434 -0.5580  0.0415  0.2366
  215ETHOX   C248918  15.635   7.809  14.540  0.0651  0.1670  0.0966
  215ETHOX  H2148919  15.716   7.738  14.514 -1.1991 -1.8165  1.2816
  215ETHOX  H2348920  15.650   7.842  14.646  2.1849 -1.9688  0.5283
  216ETHOX   O148921  15.620   7.915  14.445 -0.5908  0.0897 -0.5230
  216ETHOX   C148922  15.738   7.990  14.446  0.5881  0.3685  0.2635
  216ETHOX  H1148923  15.811   7.914  14.411  0.4329 -0.2307  1.1835
  216ETHOX  H1348924  15.763   8.017  14.551 -2.0371  1.5178  0.6830
  216ETHOX   C248925  15.726   8.104  14.344  0.3257  0.0458 -0.5193
  216ETHOX  H2148926  15.700   8.066  14.243 -0.7947  1.2409 -0.7037
  216ETHOX  H2348927  15.828   8.145  14.329  1.2894 -2.5345 -1.6993
  217ETHOX   O148928  15.642   8.215  14.375  0.3243  0.4638 -0.0216
  217ETHOX   C148929  15.532   8.218  14.282  1.0218  0.0468 -0.3033
  217ETHOX  H1148930  15.561   8.204  14.175  0.7779 -1.6696 -0.1725
  217ETHOX  H1348931  15.451   8.145  14.305  0.8388 -0.0631 -1.2382
  217ETHOX   C248932  15.457   8.360  14.291 -0.0394  0.3392  0.0596
  217ETHOX  H2148933  15.438   8.382  14.398 -0.8446  1.6390 -0.3359
  217ETHOX  H2348934  15.363   8.362  14.233 -0.5748 -1.4302  0.7770
  218ETHOX   O148935  15.539   8.466  14.244  0.8551  0.4904  0.3682
  218ETHOX   C148936  15.458   8.574  14.200 -0.4906  0.0112  0.0309
  218ETHOX  H1148937  15.396   8.616  14.281 -0.0723  1.3113 -0.3072
  218ETHOX  H1348938  15.397   8.558  14.108 -0.1845  0.1417 -0.1974
  218ETHOX   C248939  15.554   8.686  14.162 -0.1018  0.1526 -0.5136
  218ETHOX  H2148940  15.627   8.707  14.243  0.7601  0.5114 -1.3646
  218ETHOX  H2348941  15.488   8.775  14.157 -1.9815 -1.0589  1.0256
  219ETHOX   O148942  15.615   8.659  14.035  0.4174  0.2129  0.1164
  219ETHOX   C148943  15.703   8.758  13.979  0.2571  0.2187  0.4083
  219ETHOX  H1148944  15.749   8.811  14.065 -1.0586  0.3289  1.0778
  219ETHOX  H1348945  15.790   8.711  13.928  1.6353  1.6420  1.3531
  219ETHOX   C248946  15.625   8.857  13.880  0.3623  0.1782 -0.3564
  219ETHOX  H2148947  15.554   8.795  13.821  0.9728 -0.9518  0.0638
  219ETHOX  H2348948  15.698   8.913  13.818 -0.9322  0.1097 -2.0176
  220ETHOX   O148949  15.538   8.935  13.956  0.4869 -0.1665  0.4912
  220ETHOX   C148950  15.607   9.048  14.002 -1.0897  0.3590 -0.2558
  220ETHOX  H1148951  15.661   9.093  13.916  2.0049 -0.8416  0.8980
  220ETHOX  H1348952  15.687   9.032  14.078 -0.5123  2.0918 -0.4679
  220ETHOX   C248953  15.511   9.149  14.069 -0.2245  0.3422  0.3256
  220ETHOX  H2148954  15.433   9.179  13.996 -0.1823  2.3620  1.0334
  220ETHOX  H2348955  15.561   9.246  14.091  1.0729 -0.0446 -0.7982
  221ETHOX   O148956  15.451   9.098  14.180 -0.2907 -0.2516 -0.0733
  221ETHOX   C148957  15.377   9.189  14.259  1.0573  0.6136  0.4726
  221ETHOX  H1148958  15.385   9.143  14.360 -0.1205 -2.1605 -0.5799
  221ETHOX  H1348959  15.427   9.287  14.268 -0.0589  1.0061  3.1926
  221ETHOX   C248960  15.230   9.207  14.210  0.1978  0.1714 -0.4177
  221ETHOX  H2148961  15.175   9.234  14.302  0.2262 -3.3231  0.7634
  221ETHOX  H2348962  15.196   9.107  14.177  1.4250  0.3321 -2.3500
  222ETHOX   O148963  15.215   9.298  14.104  0.3973 -0.3772 -0.8133
  222ETHOX   C148964  15.076   9.343  14.097 -0.4074  0.7636 -0.1942
  222ETHOX  H1148965  15.015   9.251  14.112 -1.3512  1.3634 -0.2458
  222ETHOX  H1348966  15.059   9.418  14.177  0.0998  0.2012  0.4498
  222ETHOX   C248967  15.042   9.405  13.968 -0.0638 -0.2693  0.6943
  222ETHOX  H2148968  15.120   9.474  13.930 -1.8269  1.8349  0.6826
  222ETHOX  H2348969  14.949   9.465  13.982 -0.8125 -1.5308  1.2513
  223ETHOX   O148970  15.026   9.308  13.857 -0.0227  0.2147 -0.0825
  223ETHOX   C148971  14.975   9.379  13.741  0.0197  0.2544  0.4614
  223ETHOX  H1148972  14.874   9.420  13.764  0.2145  1.0419 -0.0417
  223ETHOX  H1348973  15.053   9.456  13.722  2.0480 -1.7152  0.4467
  223ETHOX   C248974  14.957   9.274  13.628 -0.4059 -0.0605 -0.4194
  223ETHOX  H2148975  14.994   9.173  13.656 -1.3481 -0.3616 -0.2290
  223ETHOX  H2348976  15.015   9.320  13.546 -1.1109  1.5571 -0.0364
  224ETHOX   O148977  14.830   9.275  13.568 -0.5370 -0.4686 -0.2396
  224ETHOX   C148978  14.815   9.169  13.478 -0.6814 -0.2751  0.5935
  224ETHOX  H1148979  14.892   9.174  13.398 -1.1333 -1.6246  0.0303
  224ETHOX  H1348980  14.838   9.066  13.514  0.6877 -0.7932 -1.5625
  224ETHOX   C248981  14.672   9.173  13.417 -0.9375 -0.7235  0.5688
  224ETHOX  H2148982  14.675   9.092  13.341 -0.3240  0.2480 -0.4996
  224ETHOX  H2348983  14.663   9.271  13.364  4.2799 -0.2023  0.1304
  225ETHOX   O148984  14.560   9.145  13.508  0.3903  0.3090 -0.0126
  225ETHOX   C148985  14.442   9.155  13.431  0.0609  0.2882 -0.0288
  225ETHOX  H1148986  14.450   9.081  13.349  0.3893  0.1382  0.1358
  225ETHOX  H1348987  14.423   9.259  13.397 -1.5571  0.5555  1.5213
  225ETHOX   C248988  14.318   9.113  13.513 -0.8098  0.0479 -0.0144
  225ETHOX  H2148989  14.220   9.139  13.469 -1.6935 -0.3879  1.5985
  225ETHOX  H2348990  14.313   9.160  13.614 -0.3704  1.7283 -0.7423
  226ETHOX   O148991  14.324   8.972  13.523  0.3447  0.2482 -0.1151
  226ETHOX   C148992  14.242   8.923  13.625  0.1535  0.5418  0.0643
  226ETHOX  H1148993  14.292   8.958  13.718 -1.2779 -0.6207  1.3264
  226ETHOX  H1348994  14.146   8.977  13.611 -1.7616 -2.5651  0.2129
  226ETHOX   C248995  14.229   8.767  13.625 -0.1975 -0.0313  0.5615
  226ETHOX  H2148996  14.202   8.732  13.726 -1.0907 -4.3305 -0.9779
  226ETHOX  H2348997  14.326   8.726  13.590 -0.5649 -0.2461 -0.2303
  227ETHOX   O148998  14.117   8.737  13.549  0.2264  0.0313 -0.5779
  227ETHOX   C148999  14.087   8.598  13.555 -0.7823  0.0275  0.0219
  227ETHOX  H1149000  14.036   8.585  13.653  1.4120  1.0013  1.3688
  227ETHOX  H1349001  14.180   8.537  13.551 -0.2140  0.7211  1.6526
  227ETHOX   C249002  13.990   8.546  13.445  0.3306  0.2051 -0.5801
  227ETHOX  H2149003  13.923   8.627  13.411 -0.9044 -0.3328  0.4856
  227ETHOX  H2349004  13.927   8.476  13.504  0.1658  0.8059 -0.0369
  228ETHOX   O149005  14.040   8.481  13.328 -0.1396  0.6504 -0.1150
  228ETHOX   C149006  14.088   8.575  13.235  0.5496  0.0506 -0.1027
  228ETHOX  H1149007  14.004   8.618  13.176  1.5262  1.3060 -0.6293
  228ETHOX  H1349008  14.140   8.657  13.289 -2.5819  1.1529  1.4749
  228ETHOX   C249009  14.173   8.500  13.133 -0.0366  0.3911 -0.4354
  228ETHOX  H2149010  14.150   8.549  13.036  0.5752  0.8353 -0.3588
  228ETHOX  H2349011  14.129   8.398  13.133  0.7642  0.0276 -1.1526
  229ETHOX   O149012  14.311   8.503  13.167  0.0921  0.2527 -0.6512
  229ETHOX   C149013  14.360   8.382  13.229  0.7214 -0.3998  0.3644
  229ETHOX  H1149014  14.317   8.295  13.174 -0.2679 -0.3067  0.9623
  229ETHOX  H1349015  14.311   8.377  13.329  0.7636  2.9234  0.6583
  229ETHOX   C249016  14.512   8.380  13.245  0.0157 -0.0179 -0.3258
  229ETHOX  H2149017  14.539   8.310  13.328 -0.6810  0.4799  0.3369
  229ETHOX  H2349018  14.546   8.482  13.275  1.3400  0.3298 -2.7825
  230ETHOX   O149019  14.591   8.352  13.126  0.1337 -0.4448  0.3181
  230ETHOX   C149020  14.579   8.452  13.024  0.3079 -0.3049 -0.0596
  230ETHOX  H1149021  14.477   8.459  12.981 -0.0211 -1.1108  0.5575
  230ETHOX  H1349022  14.596   8.556  13.059 -2.6797  0.5919 -0.9474
  230ETHOX   C249023  14.673   8.419  12.902  0.4233 -0.8312  0.6461
  230ETHOX  H2149024  14.775   8.401  12.944  1.7097 -0.0364 -1.9175
  230ETHOX  H2349025  14.681   8.513  12.843  1.8101 -1.2146  0.1721
  231ETHOX   O149026  14.640   8.314  12.809  0.3970  0.5996  0.2986
  231ETHOX   C149027  14.740   8.304  12.709  0.1364 -0.7299 -0.3859
  231ETHOX  H1149028  14.831   8.265  12.760  1.0486 -0.3970 -1.7240
  231ETHOX  H1349029  14.760   8.400  12.657  2.3841 -0.1758  1.3124
  231ETHOX   C249030  14.711   8.198  12.603  0.3012  0.2293 -0.4349
  231ETHOX  H2149031  14.708   8.110  12.671  3.0269 -0.2275 -0.8107
  231ETHOX  H2349032  14.805   8.187  12.545  1.4094  1.4243  1.0482
  232ETHOX   O149033  14.594   8.214  12.524 -0.2896  0.1684 -0.3967
  232ETHOX   C149034  14.560   8.098  12.446 -0.3958  0.0750 -0.0031
  232ETHOX  H1149035  14.629   8.092  12.359 -1.0043 -1.3725 -0.4208
  232ETHOX  H1349036  14.577   8.004  12.502  0.1523  0.4026  0.3896
  232ETHOX   C249037  14.417   8.099  12.395  0.3416 -0.4815 -0.0230
  232ETHOX  H2149038  14.350   8.095  12.484 -1.0835  3.2740 -0.7423
  232ETHOX  H2349039  14.405   8.010  12.330  0.0258 -1.5676  1.4478
  233ETHOX   O149040  14.366   8.217  12.343  0.3355  0.4898 -0.0430
  233ETHOX   C149041  14.227   8.216  12.324  1.0186 -0.6097 -0.1179
  233ETHOX  H1149042  14.195   8.117  12.282 -1.5846  0.3090 -0.5151
  233ETHOX  H1349043  14.175   8.216  12.422 -2.7001 -1.1224 -1.8933
  233ETHOX   C249044  14.187   8.326  12.231  0.8246 -0.0525 -0.6753
  233ETHOX  H2149045  14.245   8.413  12.268 -1.4663  1.2283  0.1039
  233ETHOX  H2349046  14.077   8.337  12.245  0.5551 -2.8670 -0.0463
  234ETHOX   O149047  14.203   8.291  12.091  0.4124  0.1244 -0.2903
  234ETHOX   C149048  14.181   8.402  12.011  0.7426 -0.3128 -0.1543
  234ETHOX  H1149049  14.088   8.452  12.045 -0.3019 -2.2657  0.0687
  234ETHOX  H1349050  14.275   8.460  12.013 -0.4562  1.7153 -0.1196
  234ETHOX   C249051  14.155   8.367  11.861  0.0980 -0.3020 -0.6911
  234ETHOX  H2149052  14.150   8.455  11.793  1.6309  0.1352 -0.2769
  234ETHOX  H2349053  14.065   8.302  11.851 -0.7100  0.5689  0.5943
  235ETHOX   O149054  14.268   8.281  11.826 -0.1701 -0.2655  0.2068
  235ETHOX   C149055  14.281   8.268  11.684 -0.1535  0.6792  0.1727
  235ETHOX  H1149056  14.279   8.369  11.638  1.0261  0.7355  0.2245
  235ETHOX  H1349057  14.385   8.231  11.673 -0.8816 -1.3670 -0.3754
  235ETHOX   C249058  14.182   8.167  11.630 -0.1714  0.1498  0.4517
  235ETHOX  H2149059  14.079   8.201  11.652  0.1121 -0.6159  3.4270
  235ETHOX  H2349060  14.196   8.075  11.691 -2.2988 -0.0237  0.7442
  236ETHOX   O149061  14.203   8.138  11.494  0.4083 -0.4031 -0.2329
  236ETHOX   C149062  14.135   8.020  11.461  0.6014  0.6519 -0.6123
  236ETHOX  H1149063  14.024   8.032  11.464  0.3817 -0.8960 -1.3803
  236ETHOX  H1349064  14.152   7.935  11.531 -1.1120 -0.3485 -1.3582
  236ETHOX   C249065  14.172   7.978  11.320  0.0522  0.5882  0.3323
  236ETHOX  H2149066  14.125   7.886  11.279 -0.1955  1.7616 -2.1752
  236ETHOX  H2349067  14.280   7.952  11.322 -0.2104 -0.5530  0.2280
  237ETHOX   O149068  14.160   8.092  11.236 -0.0186 -0.2719 -0.0028
  237ETHOX   C149069  14.233   8.068  11.115  0.9162 -0.4462  0.6769
  237ETHOX  H1149070  14.343   8.055  11.130  0.6332 -1.9414  1.7354
  237ETHOX  H1349071  14.199   7.977  11.061  0.1720  0.1765  0.0772
  237ETHOX   C249072  14.220   8.191  11.018 -0.1113  0.2609  0.3227
  237ETHOX  H2149073  14.113   8.178  10.990 -0.1135 -4.5521  1.5921
  237ETHOX  H2349074  14.293   8.181  10.934 -1.1366  2.8122 -0.9670
  238ETHOX   O149075  14.262   8.316  11.073  0.5004  0.2249  0.6267
  238ETHOX   C149076  14.200   8.422  10.998  0.0171 -0.2399  0.6322
  238ETHOX  H1149077  14.145   8.498  11.057 -0.2847  0.0655 -0.0388
  238ETHOX  H1349078  14.132   8.382  10.920  0.4411 -0.0634  0.1635
  238ETHOX   C249079  14.305   8.496  10.921 -0.1803  0.4406 -0.3667
  238ETHOX  H2149080  14.258   8.554  10.839  0.4323  0.7829 -0.4765
  238ETHOX  H2349081  14.386   8.432  10.879  0.6671  1.9700 -1.1310
  239ETHOX   O149082  14.361   8.601  11.013  0.4556  0.5565  0.1892
  239ETHOX   C149083  14.429   8.695  10.937  0.6558  0.2216  0.2192
  239ETHOX  H1149084  14.503   8.638  10.875 -1.2895 -2.9586  0.6046
  239ETHOX  H1349085  14.355   8.744  10.869  1.6963  1.4894 -0.0479
  239ETHOX   C249086  14.486   8.797  11.032  0.4323  0.3525  0.0473
  239ETHOX  H2149087  14.559   8.754  11.103  1.8815  0.5416 -1.2736
  239ETHOX  H2349088  14.523   8.874  10.961  0.3197  0.1617 -0.2211
  240ETHOX   O149089  14.384   8.860  11.101 -0.1670  0.1738  0.0275
  240ETHOX   C149090  14.433   8.974  11.181  0.3507  0.5238  0.1374
  240ETHOX  H1149091  14.462   9.053  11.109  1.0315 -0.4123 -0.6327
  240ETHOX  H1349092  14.511   8.955  11.258 -1.2023  0.3175  1.7180
  240ETHOX   C249093  14.307   9.017  11.263  0.3602 -0.0489  0.0828
  240ETHOX  H2149094  14.350   9.098  11.325 -0.8579  0.1157  0.7534
  240ETHOX  H2349095  14.266   8.942  11.333 -0.7334  1.4187  1.0895
  241ETHOX   O149096  14.211   9.078  11.169  0.6110 -0.3735 -0.6080
  241ETHOX   C149097  14.080   9.068  11.224  0.5004 -0.2897  0.2139
  241ETHOX  H1149098  14.052   8.961  11.225  2.3180 -0.8127 -0.4958
  241ETHOX  H1349099  14.093   9.122  11.320  1.1713 -1.3286  0.7170
  241ETHOX   C249100  13.972   9.151  11.155  0.3479  0.0573  0.8070
  241ETHOX  H2149101  14.021   9.249  11.142  2.5510 -0.5263  3.6265
  241ETHOX  H2349102  13.878   9.163  11.213  0.3963  3.2467  0.3961
  242ETHOX   O149103  13.943   9.086  11.027  0.2833  0.2977  0.4458
  242ETHOX   C149104  13.849   9.165  10.950  0.4979 -0.1709 -0.1280
  242ETHOX  H1149105  13.900   9.255  10.909 -1.4032  0.9772 -0.1132
  242ETHOX  H1349106  13.764   9.195  11.015  0.2647 -1.3333  0.1192
  242ETHOX   C249107  13.777   9.089  10.829 -0.1647  0.6054 -0.7266
  242ETHOX  H2149108  13.687   9.139  10.787 -1.5697 -0.4692  0.8262
  242ETHOX  H2349109  13.733   8.994  10.868 -2.4605  2.1170  0.6493
  243ETHOX   O149110  13.855   9.059  10.714 -0.4123 -0.3476 -0.5793
  243ETHOX   C149111  13.813   8.941  10.648 -0.5946  0.6445 -0.5215
  243ETHOX  H1149112  13.702   8.934  10.647 -0.5778 -0.1707  0.8199
  243ETHOX  H1349113  13.847   8.955  10.543 -1.0237 -2.1287 -1.1212
  243ETHOX   C249114  13.882   8.813  10.706 -0.6210 -0.2945 -0.4266
  243ETHOX  H2149115  13.862   8.806  10.816  1.0755 -0.5749 -0.1134
  243ETHOX  H2349116  13.992   8.822  10.696 -0.6249  0.2516  0.0019
  244ETHOX   O149117  13.843   8.698  10.639 -0.3798  0.0884  0.6004
  244ETHOX   C149118  13.903   8.591  10.704 -0.0646 -0.6769  0.1284
  244ETHOX  H1149119  13.886   8.583  10.813  1.5635  0.0417  0.4583
  244ETHOX  H1349120  14.013   8.587  10.689  0.2408  1.6876  1.4100
  244ETHOX   C249121  13.844   8.461  10.645  0.4894  0.3024 -0.0744
  244ETHOX  H2149122  13.835   8.469  10.535 -0.2509  4.0369  0.1379
  244ETHOX  H2349123  13.742   8.450  10.690  0.0629 -0.5592 -1.1995
  245ETHOX   O149124  13.916   8.342  10.673 -0.5060 -0.2981 -0.9344
  245ETHOX   C149125  13.871   8.226  10.613 -0.0343 -0.2533  0.5225
  245ETHOX  H1149126  13.761   8.221  10.627 -0.3441  1.5827 -0.8084
  245ETHOX  H1349127  13.887   8.234  10.503  0.8311 -1.2109  0.5741
  245ETHOX   C249128  13.935   8.095  10.668  0.2072 -0.9626  0.1207
  245ETHOX  H2149129  13.887   8.007  10.620 -0.7386 -1.2650  1.5715
  245ETHOX  H2349130  13.935   8.089  10.779  0.2801  1.1838  0.2870
  246ETHOX   O149131  14.075   8.100  10.632  0.2416  0.0672 -0.2621
  246ETHOX   C149132  14.147   7.994  10.693 -0.3177 -0.2856 -0.1183
  246ETHOX  H1149133  14.103   7.901  10.651 -1.9382  0.0881  0.6918
  246ETHOX  H1349134  14.146   7.990  10.804  1.6037 -0.4210 -0.0632
  246ETHOX   C249135  14.297   7.989  10.656 -0.2289 -0.0708  0.1774
  246ETHOX  H2149136  14.306   7.965  10.548 -0.5772 -0.8093  0.3077
  246ETHOX  H2349137  14.348   7.910  10.715 -1.0959 -1.1343 -0.4661
  247ETHOX   O149138  14.368   8.115  10.678  0.2893 -0.4944 -0.0143
  247ETHOX   C149139  14.495   8.118  10.612  0.0414 -0.2076  0.0784
  247ETHOX  H1149140  14.566   8.037  10.639  1.7184  1.0160 -0.5142
  247ETHOX  H1349141  14.476   8.106  10.504 -0.6414 -1.3900  0.3050
  247ETHOX   C249142  14.581   8.254  10.631 -0.1085  0.0482 -0.4606
  247ETHOX  H2149143  14.579   8.273  10.741  0.7836 -0.0957 -0.4099
  247ETHOX  H2349144  14.685   8.241  10.594 -0.1216 -3.3769  0.3585
  248ETHOX   O149145  14.525   8.360  10.551  0.2292  0.6330  0.5156
  248ETHOX   C149146  14.599   8.482  10.574 -0.1521  0.1246 -0.0687
  248ETHOX  H1149147  14.589   8.506  10.682  1.1322 -0.0385  0.0981
  248ETHOX  H1349148  14.707   8.461  10.556 -0.1096 -1.6476  1.8683
  248ETHOX   C249149  14.543   8.597  10.484  0.3016  0.1327  0.7366
  248ETHOX  H2149150  14.510   8.566  10.382 -1.4565  0.5622  1.1318
  248ETHOX  H2349151  14.627   8.669  10.473  0.8111 -0.4147  1.0245
  249ETHOX   O149152  14.440   8.667  10.543  0.6855 -0.0320 -0.6135
  249ETHOX   C149153  14.373   8.759  10.457  0.6281  0.9655  0.3601
  249ETHOX  H1149154  14.439   8.821  10.392  1.8166 -1.6517 -1.1142
  249ETHOX  H1349155  14.304   8.701  10.392  1.3907  3.2395 -2.6945
  249ETHOX   C249156  14.283   8.840  10.551  0.4063  0.2308 -0.0151
  249ETHOX  H2149157  14.211   8.763  10.587 -0.7109  0.3211 -1.9437
  249ETHOX  H2349158  14.219   8.902  10.485 -0.1303  0.4745  0.7313
  250ETHOX   O149159  14.344   8.918  10.651 -0.6424 -0.2890 -0.0783
  250ETHOX   C149160  14.262   9.031  10.688 -0.8348  0.3275 -0.5882
  250ETHOX  H1149161  14.229   9.095  10.602 -0.7755 -1.8199 -2.3047
  250ETHOX  H1349162  14.171   8.991  10.738  0.4941 -1.3839  0.5616
  250ETHOX   C249163  14.349   9.117  10.788  0.0883  0.1258 -0.1793
  250ETHOX  H2149164  14.381   9.052  10.872  0.4640 -1.7988 -1.7323
  250ETHOX  H2349165  14.281   9.187  10.841  0.0228  0.7111 -1.0168
  251ETHOX   O149166  14.454   9.187  10.733 -0.4672 -0.0695  0.3899
  251ETHOX   C149167  14.417   9.320  10.692 -0.1453  0.2126  0.9733
  251ETHOX  H1149168  14.381   9.381  10.778 -0.2940  0.0734  1.0103
  251ETHOX  H1349169  14.333   9.310  10.620 -0.0073 -0.8467  0.9443
  251ETHOX   C249170  14.528   9.397  10.617  0.2935 -0.0794  0.6338
  251ETHOX  H2149171  14.598   9.325  10.570  0.0509 -1.4276  2.2496
  251ETHOX  H2349172  14.593   9.453  10.688  1.2257  0.8209 -0.8651
  252ETHOX   O149173  14.465   9.470  10.508  0.5123  0.1233 -0.6701
  252ETHOX   C149174  14.548   9.574  10.472 -0.1684 -0.6726 -0.3608
  252ETHOX  H1149175  14.536   9.645  10.557  1.9516  1.5519 -1.7643
  252ETHOX  H1349176  14.656   9.555  10.455  0.5995  1.5233  1.5064
  252ETHOX   C249177  14.492   9.622  10.336 -0.6795 -0.4723 -0.4298
  252ETHOX  H2149178  14.390   9.664  10.345 -0.0317  1.8241 -2.7106
  252ETHOX  H2349179  14.492   9.536  10.265  0.2691 -0.0820 -0.9241
  253ETHOX   O149180  14.579   9.724  10.277  0.7817  0.5791 -0.1115
  253ETHOX   C149181  14.554   9.854  10.318 -0.2603 -0.2162  0.1218
  253ETHOX  H1149182  14.579   9.877  10.424  2.0403  1.2294 -0.6707
  253ETHOX  H1349183  14.446   9.878  10.314 -0.1662  0.8084  2.3162
  253ETHOX   C249184  14.638   9.964  10.235  0.4565 -0.3025 -0.3608
  253ETHOX  H2149185  14.583  10.059  10.220  1.8204  0.4699 -0.6494
  253ETHOX  H2349186  14.629   9.929  10.130  0.8976  0.1146 -0.5376
  254ETHOX   O149187  14.774   9.987  10.279 -0.5854  0.2790  0.1595
  254ETHOX   C149188  14.844  10.059  10.176 -0.5950  0.2728  0.4383
  254ETHOX  H1149189  14.821  10.018  10.075 -0.6688 -0.4684  0.7544
  254ETHOX  H1349190  14.815  10.166  10.185  0.9270  0.6465  1.1884
  254ETHOX   C249191  14.991  10.031  10.209  0.9778  0.2297  0.2279
  254ETHOX  H2149192  15.004  10.055  10.317  0.6847 -2.2341  0.8918
  254ETHOX  H2349193  15.054  10.089  10.139  0.7541 -0.1635 -0.3056
  255ETHOX   O149194  15.038   9.895  10.196  0.5268  0.0497  0.1082
  255ETHOX   C149195  15.175   9.885  10.226  0.1471 -0.0400  0.0241
  255ETHOX  H1149196  15.184   9.888  10.337 -2.3906 -1.2924  0.3324
  255ETHOX  H1349197  15.239   9.965  10.182  1.3815 -0.3743  1.1183
  255ETHOX   C249198  15.225   9.744  10.186  0.4307  1.2650 -0.0599
  255ETHOX  H2149199  15.151   9.670  10.224  1.3684 -0.2398 -1.0485
  255ETHOX  H2349200  15.325   9.720  10.227  0.1867 -0.4137 -0.3327
  256ETHOX   O149201  15.247   9.732  10.051 -0.0055 -0.2855  0.0654
  256ETHOX   C149202  15.290   9.600  10.019  0.1445 -0.5329 -0.2058
  256ETHOX  H1149203  15.387   9.579  10.069 -0.1778  0.6983  1.0279
  256ETHOX  H1349204  15.203   9.534  10.041  0.1704 -0.9635 -1.3367
  256ETHOX   C249205  15.316   9.595   9.867  0.6284 -0.8219  0.8961
  256ETHOX  H2149206  15.220   9.638   9.833  0.6513 -0.2422  1.5448
  256ETHOX  H2349207  15.305   9.492   9.825 -2.3190  0.4305 -1.8177
  257ETHOX   O149208  15.430   9.667   9.818 -0.1368 -0.3031  0.2657
  257ETHOX   C149209  15.442   9.653   9.672  0.2612 -0.3095  0.2627
  257ETHOX  H1149210  15.382   9.733   9.623  0.9433 -2.0560 -3.7602
  257ETHOX  H1349211  15.409   9.553   9.636 -3.2790  0.5843  0.6742
  257ETHOX   C249212  15.590   9.668   9.632 -0.0716  0.1744  0.1421
  257ETHOX  H2149213  15.580   9.651   9.523 -2.8007  0.4106  0.2669
  257ETHOX  H2349214  15.665   9.601   9.679 -0.9704 -1.7012 -0.9962
  258ETHOX   O149215  15.635   9.804   9.645  0.1998 -0.8190 -0.0244
  258ETHOX   C149216  15.741   9.837   9.559 -0.0483  0.1612  0.7941
  258ETHOX  H1149217  15.723   9.830   9.450  2.1482  1.4328  0.2873
  258ETHOX  H1349218  15.763   9.946   9.565  2.7463 -0.3243  0.7189
  258ETHOX   C249219  15.871   9.753   9.592  0.0096 -0.1697  0.6863
  258ETHOX  H2149220  15.902   9.754   9.699  1.9441 -0.2047  0.1530
  258ETHOX  H2349221  15.945   9.814   9.536  1.3509 -0.9236  1.5795
  259ETHOX   O149222  15.869   9.621   9.544 -0.1562  0.4448  0.0653
  259ETHOX   C149223  15.988   9.557   9.557 -0.5018 -0.1854  0.4710
  259ETHOX  H1149224  16.067   9.608   9.497 -0.6245  0.2179  0.6504
  259ETHOX  H1349225  16.020   9.547   9.663  0.8222 -1.7782 -0.0355
  259ETHOX   C249226  15.981   9.410   9.526 -0.3555 -0.0728  0.2249
  259ETHOX  H2149227  16.008   9.390   9.420 -0.7643 -1.3248  0.3376
  259ETHOX  H2349228  15.879   9.368   9.539  0.0410 -2.1227 -2.3278
  260ETHOX   O149229  16.071   9.332   9.604 -0.1543  0.1156  1.1263
  260ETHOX   C149230  16.078   9.196   9.554  0.2919  0.1507  0.6592
  260ETHOX  H1149231  15.980   9.145   9.558  1.2287 -1.5921  3.1718
  260ETHOX  H1349232  16.111   9.203   9.448  2.8707  0.1363  1.3890
  260ETHOX   C249233  16.182   9.104   9.615 -0.1632 -0.5419 -0.9142
  260ETHOX  H2149234  16.279   9.149   9.582  1.0826 -1.0380  1.8156
  260ETHOX  H2349235  16.162   9.012   9.558 -0.3288 -1.5332  0.6858
  261ETHOX   O149236  16.164   9.083   9.752 -0.7652  0.2714 -0.7516
  261ETHOX   C149237  16.276   9.002   9.798  0.0622  0.8623  0.5477
  261ETHOX  H1149238  16.255   8.961   9.899 -1.1726 -2.5275 -0.9597
  261ETHOX  H1349239  16.287   8.904   9.748  0.8788  1.1272  0.1991
  261ETHOX   C249240  16.414   9.072   9.807  0.1094  0.7090 -0.2629
  261ETHOX  H2149241  16.412   9.148   9.725  2.3045  0.1136 -0.9325
  261ETHOX  H2349242  16.505   9.009   9.796 -0.7144 -0.6652  0.5941
  262ETHOX   O149243  16.430   9.146   9.932  0.6167  0.2781 -0.3805
  262ETHOX   C149244  16.564   9.193   9.936  0.0277  0.2714 -0.4888
  262ETHOX  H1149245  16.592   9.234   9.836  0.6249 -1.0600 -0.8877
  262ETHOX  H1349246  16.627   9.104   9.957 -0.9000  0.3180  3.0644
  262ETHOX   C249247  16.597   9.286  10.049  0.0313 -0.8971 -0.3905
  262ETHOX  H2149248  16.707   9.300  10.037 -0.0826 -0.3513 -0.8528
  262ETHOX  H2349249  16.571   9.236  10.144  1.0012 -1.2763 -0.3076
  263ETHOX   O149250  16.539   9.416  10.035 -0.2885 -0.6436  0.5139
  263ETHOX   C149251  16.592   9.519  10.118  0.0323  0.0546 -0.0933
  263ETHOX  H1149252  16.535   9.613  10.099  0.8324  0.8114  1.1943
  263ETHOX  H1349253  16.696   9.539  10.085  0.0349 -0.7728 -0.6214
  263ETHOX   C249254  16.601   9.487  10.268  0.3975 -0.6875  0.3891
  263ETHOX  H2149255  16.498   9.478  10.310 -0.1254  0.0356 -0.6864
  263ETHOX  H2349256  16.645   9.582  10.305 -0.2735 -0.4502  0.6039
  264ETHOX   O149257  16.685   9.375  10.316  0.1974  0.0661 -0.3951
  264ETHOX   C149258  16.689   9.385  10.460  0.0932 -0.4653 -0.1974
  264ETHOX  H1149259  16.585   9.375  10.498  0.2580  1.5499  0.9455
  264ETHOX  H1349260  16.721   9.489  10.485  0.8511 -0.0545 -2.5545
  264ETHOX   C249261  16.781   9.282  10.526  0.4240 -0.0316 -0.0509
  264ETHOX  H2149262  16.768   9.189  10.467 -4.1353  2.0237 -2.8276
  264ETHOX  H2349263  16.743   9.269  10.630 -1.0615  0.7630 -0.4604
  265ETHOX   O149264  16.913   9.323  10.504 -0.0887  0.1978 -0.1615
  265ETHOX   C149265  16.998   9.240  10.581  0.1874  0.0527 -0.5045
  265ETHOX  H1149266  17.023   9.285  10.679 -0.2896  0.9275 -0.7772
  265ETHOX  H1349267  16.954   9.140  10.602  2.5073 -1.1194 -0.8755
  265ETHOX   C249268  17.133   9.221  10.511  0.5491  0.7522 -0.0220
  265ETHOX  H2149269  17.179   9.135  10.564 -1.1413 -1.3419 -1.7309
  265ETHOX  H2349270  17.179   9.322  10.508 -0.6743  1.3081 -1.3215
  265ETHOX   OZ49271  17.110   9.173  10.377 -0.0731  0.2819  0.0523
  265ETHOX  HZ149272  17.200   9.162  10.345 -0.4899 -1.5868 -0.5983
    1ETHOX   O149273  13.900   8.280  16.722 -0.3741  0.1082  0.8667
    1ETHOX  HO149274  13.960   8.252  16.791  0.5993 -0.5774 -0.2171
    1ETHOX   C149275  13.996   8.349  16.644 -0.1057 -0.4850 -0.0555
    1ETHOX  H1149276  13.969   8.345  16.536  1.1320  1.2456 -0.4680
    1ETHOX  H1349277  14.086   8.284  16.639  0.0640 -0.2844  0.3803
    1ETHOX   C249278  14.040   8.484  16.689  0.3088  0.0231 -0.1709
    1ETHOX  H2149279  14.146   8.504  16.661  0.3785 -0.1326 -0.0180
    1ETHOX  H2349280  14.031   8.486  16.800  0.5021 -0.8799 -0.1385
    2ETHOX   O149281  13.962   8.591  16.638  0.2363  0.0885  0.5104
    2ETHOX   C149282  13.948   8.694  16.734 -0.1043  0.2144 -0.1029
    2ETHOX  H1149283  13.894   8.653  16.822 -1.6337 -0.8822 -1.4688
    2ETHOX  H1349284  14.055   8.720  16.752  1.0630 -2.9556 -1.6315
    2ETHOX   C249285  13.873   8.811  16.687 -0.1025  0.4687 -0.6647
    2ETHOX  H2149286  13.920   8.853  16.596  0.6888  0.6790 -0.1658
    2ETHOX  H2349287  13.874   8.897  16.757  3.3785 -0.5932  0.7838
    3ETHOX   O149288  13.731   8.787  16.676 -0.0408 -0.2337 -0.0957
    3ETHOX   C149289  13.669   8.905  16.635 -0.6192 -0.3523  0.2600
    3ETHOX  H1149290  13.718   8.945  16.543  0.4097  0.8606  1.2982
    3ETHOX  H1349291  13.680   8.981  16.715  1.0558 -1.5146  1.2225
    3ETHOX   C249292  13.523   8.881  16.600  0.1838  0.0547 -0.8711
    3ETHOX  H2149293  13.466   8.974  16.624  2.2214  0.7803  1.5558
    3ETHOX  H2349294  13.484   8.806  16.672  1.5487 -0.2835 -0.4612
    4ETHOX   O149295  13.499   8.842  16.463 -1.0802  0.8296  0.2499
    4ETHOX   C149296  13.370   8.792  16.437  0.3032 -0.0916  0.1149
    4ETHOX  H1149297  13.320   8.767  16.533  1.3771  1.2658  1.0540
    4ETHOX  H1349298  13.304   8.872  16.395 -1.7135 -1.5265  0.3865
    4ETHOX   C249299  13.368   8.673  16.338 -0.3743  0.0115 -0.1429
    4ETHOX  H2149300  13.454   8.678  16.268  1.3711 -1.3011  1.7596
    4ETHOX  H2349301  13.273   8.665  16.281  0.6144 -2.0018 -1.6440
    5ETHOX   O149302  13.380   8.548  16.412  0.2925 -0.0698 -0.1932
    5ETHOX   C149303  13.358   8.445  16.326  0.2905  0.3058  0.2914
    5ETHOX  H1149304  13.257   8.459  16.283  0.7134  1.9769 -0.2161
    5ETHOX  H1349305  13.435   8.446  16.245 -0.4929 -0.9974 -0.5123
    5ETHOX   C249306  13.346   8.309  16.403 -0.2560  0.5030  0.4390
    5ETHOX  H2149307  13.314   8.234  16.328 -1.7438  0.6040  0.9444
    5ETHOX  H2349308  13.255   8.326  16.464  0.1384  0.9118  0.9247
    6ETHOX   O149309  13.458   8.278  16.481 -0.2535  0.5609  0.1484
    6ETHOX   C149310  13.580   8.274  16.407 -0.3975 -0.4401  0.0589
    6ETHOX  H1149311  13.557   8.229  16.308  0.8413 -1.1164  0.0627
    6ETHOX  H1349312  13.619   8.378  16.400 -2.3284  0.6325  3.0621
    6ETHOX   C249313  13.689   8.191  16.483 -0.2042  0.1227  0.7867
    6ETHOX  H2149314  13.680   8.225  16.589 -0.7740 -0.5965  0.9769
    6ETHOX  H2349315  13.789   8.213  16.439  0.5203 -0.6124  2.0138
    7ETHOX   O149316  13.635   8.056  16.476 -0.2004  0.0838  0.1781
    7ETHOX   C149317  13.699   7.979  16.579 -0.3802 -0.4423  0.5609
    7ETHOX  H1149318  13.808   7.969  16.557 -0.2652 -1.1819  1.4028
    7ETHOX  H1349319  13.693   8.042  16.670 -0.6011  0.0682  0.2005
    7ETHOX   C249320  13.649   7.834  16.593  0.8278  0.3164  0.0974
    7ETHOX  H2149321  13.539   7.847  16.594  0.7573 -0.2737  0.0799
    7ETHOX  H2349322  13.672   7.789  16.692  0.0368 -1.2555 -0.3994
    8ETHOX   O149323  13.683   7.748  16.481 -0.2329 -0.4635 -0.2864
    8ETHOX   C149324  13.576   7.726  16.387 -0.4306 -0.4596  0.8767
    8ETHOX  H1149325  13.547   7.829  16.356 -1.0810 -0.9205 -0.0737
    8ETHOX  H1349326  13.490   7.671  16.430 -0.8401 -0.9142 -0.4798
    8ETHOX   C249327  13.628   7.649  16.264  0.1980  0.1778 -0.4102
    8ETHOX  H2149328  13.538   7.627  16.203 -0.1602  1.5496 -0.4095
    8ETHOX  H2349329  13.682   7.555  16.286  0.1859  0.1971 -0.2985
    9ETHOX   O149330  13.711   7.727  16.177  0.0405  0.1763 -0.0215
    9ETHOX   C149331  13.743   7.664  16.053  0.1375 -0.3081 -0.0972
    9ETHOX  H1149332  13.768   7.556  16.068  1.2376  0.1988  2.2520
    9ETHOX  H1349333  13.649   7.672  15.995 -2.2446 -2.1434  3.1382
    9ETHOX   C249334  13.846   7.741  15.972 -0.1158  0.6351  0.4286
    9ETHOX  H2149335  13.941   7.709  16.020 -0.2873 -1.5837 -0.6001
    9ETHOX  H2349336  13.835   7.852  15.966  0.8050  0.6593 -1.7971
   10ETHOX   O149337  13.843   7.680  15.842  0.1778  0.3089 -0.7790
   10ETHOX   C149338  13.831   7.776  15.745 -0.5739 -0.2126  0.2679
   10ETHOX  H1149339  13.915   7.848  15.757 -0.6790  0.4988 -2.5584
   10ETHOX  H1349340  13.734   7.827  15.761 -0.6262 -0.1536 -0.2114
   10ETHOX   C249341  13.836   7.699  15.615 -0.3303 -0.4124  0.0110
   10ETHOX  H2149342  13.829   7.775  15.534 -0.2019 -0.4262 -0.0134
   10ETHOX  H2349343  13.747   7.633  15.620 -1.6302  1.2933  0.0489
   11ETHOX   O149344  13.951   7.619  15.591  0.3752  0.0258 -0.1836
   11ETHOX   C149345  13.956   7.565  15.463  0.0432 -0.3805  0.2708
   11ETHOX  H1149346  13.988   7.459  15.464 -1.0098 -0.7492 -1.0422
   11ETHOX  H1349347  13.854   7.572  15.419  0.0869  1.3636  0.3545
   11ETHOX   C249348  14.052   7.652  15.375 -0.1169  0.3282  0.3530
   11ETHOX  H2149349  14.153   7.660  15.422  1.2118  1.4205 -2.4738
   11ETHOX  H2349350  14.068   7.589  15.285  3.2280 -2.1645  2.4552
   12ETHOX   O149351  13.987   7.776  15.350 -0.1748 -0.2721  0.0234
   12ETHOX   C149352  14.060   7.862  15.260  0.0781  0.3557  1.2710
   12ETHOX  H1149353  14.060   7.821  15.157  3.7458 -1.0658  1.7149
   12ETHOX  H1349354  14.167   7.865  15.290  0.7647  0.4990 -1.0633
   12ETHOX   C249355  13.991   7.998  15.261 -0.6142 -0.4410  0.0192
   12ETHOX  H2149356  14.066   8.071  15.223  0.4044 -1.5105 -0.0912
   12ETHOX  H2349357  13.961   8.021  15.366 -0.5114  1.2902 -0.3087
   13ETHOX   O149358  13.871   8.001  15.186  0.6249  0.4459  0.2215
   13ETHOX   C149359  13.822   8.129  15.168  1.0060  0.5006 -0.7647
   13ETHOX  H1149360  13.815   8.183  15.264  1.4652 -0.0440 -0.4203
   13ETHOX  H1349361  13.894   8.181  15.101  1.4322 -1.2213 -1.7099
   13ETHOX   C249362  13.674   8.140  15.124  0.4977  0.2615 -0.8056
   13ETHOX  H2149363  13.639   8.243  15.146  1.7440  0.3544  0.9644
   13ETHOX  H2349364  13.616   8.066  15.182  1.7885 -2.3265 -2.6024
   14ETHOX   O149365  13.645   8.115  14.985 -0.0472  0.2504  0.2558
   14ETHOX   C149366  13.713   8.205  14.900 -0.4474 -0.1123 -0.3279
   14ETHOX  H1149367  13.823   8.191  14.888 -0.4607 -1.4020  0.7688
   14ETHOX  H1349368  13.694   8.308  14.935  0.6398 -0.2090  0.5772
   14ETHOX   C249369  13.660   8.210  14.751 -0.3373  0.2252 -0.7269
   14ETHOX  H2149370  13.665   8.114  14.695  0.2769 -1.4088  1.9001
   14ETHOX  H2349371  13.722   8.270  14.682 -3.0616  0.0325 -3.5517
   15ETHOX   O149372  13.532   8.271  14.745  0.0597 -0.2078 -0.2827
   15ETHOX   C149373  13.482   8.271  14.609  0.2343  0.2340 -0.4660
   15ETHOX  H1149374  13.558   8.319  14.544 -0.1186  1.0045 -0.3168
   15ETHOX  H1349375  13.468   8.165  14.578 -0.2665  0.7937 -2.2715
   15ETHOX   C249376  13.342   8.341  14.606  0.9345 -0.5237 -0.6016
   15ETHOX  H2149377  13.292   8.308  14.512  1.5195 -0.7334 -0.8513
   15ETHOX  H2349378  13.283   8.310  14.694 -0.4109  2.8376 -0.1748
   16ETHOX   O149379  13.379   8.478  14.613 -0.0550  0.1172  0.1181
   16ETHOX   C149380  13.267   8.564  14.621 -0.3291  0.3783  0.2269
   16ETHOX  H1149381  13.296   8.666  14.589  3.7630  0.2670  2.9123
   16ETHOX  H1349382  13.180   8.519  14.568 -1.0504  1.3890  0.5053
   16ETHOX   C249383  13.233   8.583  14.769  0.0388  0.0531 -0.0740
   16ETHOX  H2149384  13.238   8.483  14.817  0.9049  0.9177  1.7433
   16ETHOX  H2349385  13.128   8.616  14.777  0.2792  0.5079  1.6279
   17ETHOX   O149386  13.318   8.671  14.846  0.0193 -0.2396  0.8022
   17ETHOX   C149387  13.309   8.812  14.816  0.3775  0.2207 -0.2242
   17ETHOX  H1149388  13.351   8.827  14.714 -1.8184  1.5346 -1.0197
   17ETHOX  H1349389  13.203   8.843  14.821 -0.0065 -1.0444 -0.2123
   17ETHOX   C249390  13.387   8.890  14.918 -0.6031 -0.2560  0.2507
   17ETHOX  H2149391  13.395   8.998  14.894  1.8714 -0.3408  0.3893
   17ETHOX  H2349392  13.485   8.838  14.922 -1.1646 -1.6939 -2.4518
   18ETHOX   O149393  13.337   8.885  15.053  1.1015  0.1420  0.2255
   18ETHOX   C149394  13.413   8.957  15.148 -0.8846  0.6526  0.5506
   18ETHOX  H1149395  13.495   8.887  15.176 -0.1018  1.6642  0.8496
   18ETHOX  H1349396  13.455   9.051  15.105  1.1157 -1.0520 -1.5391
   18ETHOX   C249397  13.326   8.994  15.265  0.2290 -0.3617 -0.0765
   18ETHOX  H2149398  13.384   9.053  15.339  0.2950  0.5516 -0.8361
   18ETHOX  H2349399  13.289   8.896  15.301  2.2936 -1.3542 -0.5036
   19ETHOX   O149400  13.208   9.053  15.214  0.3144  0.1550 -0.2090
   19ETHOX   C149401  13.228   9.188  15.189  0.0600 -0.0266  0.0585
   19ETHOX  H1149402  13.296   9.191  15.101 -0.3857 -2.5775 -0.4601
   19ETHOX  H1349403  13.273   9.242  15.275 -2.6949  4.6227 -1.0384
   19ETHOX   C249404  13.094   9.263  15.161  0.1902 -0.1215  0.4099
   19ETHOX  H2149405  13.054   9.201  15.077  0.6417 -1.8779  1.4334
   19ETHOX  H2349406  13.121   9.362  15.120  1.7171 -0.8999 -0.5754
   20ETHOX   O149407  13.002   9.272  15.270  0.2701  0.0218 -0.2116
   20ETHOX   C149408  12.908   9.374  15.242  0.5901 -0.4475 -0.4446
   20ETHOX  H1149409  12.956   9.471  15.267 -0.4520  0.7429 -2.8000
   20ETHOX  H1349410  12.890   9.377  15.132 -1.6065 -0.6461 -0.1454
   20ETHOX   C249411  12.772   9.374  15.310 -0.7925 -0.1830 -0.0876
   20ETHOX  H2149412  12.701   9.448  15.268 -0.2020  0.4426 -0.0117
   20ETHOX  H2349413  12.779   9.402  15.417  1.9912 -0.2105 -0.1733
   21ETHOX   O149414  12.727   9.236  15.293 -0.5416 -0.0364 -0.2453
   21ETHOX   C149415  12.585   9.228  15.323 -0.2701  0.4409  0.2595
   21ETHOX  H1149416  12.566   9.300  15.405 -5.3827  0.0734 -0.2875
   21ETHOX  H1349417  12.563   9.125  15.361 -0.1108 -0.5610 -2.1604
   21ETHOX   C249418  12.507   9.245  15.189 -0.5072  0.4367 -0.7543
   21ETHOX  H2149419  12.403   9.210  15.203 -0.2459  0.0936  0.4366
   21ETHOX  H2349420  12.572   9.184  15.123  1.1819  1.3910 -0.0403
   22ETHOX   O149421  12.510   9.378  15.136  0.1636  0.3668  0.2090
   22ETHOX   C149422  12.477   9.379  14.998 -0.4589  0.4525  0.8825
   22ETHOX  H1149423  12.530   9.300  14.941  0.8386  1.1737  1.0238
   22ETHOX  H1349424  12.367   9.371  14.989 -0.3053 -0.2543 -0.7834
   22ETHOX   C249425  12.522   9.521  14.958 -0.0971  0.3905 -0.9144
   22ETHOX  H2149426  12.473   9.537  14.859  0.3677 -1.1364 -1.4218
   22ETHOX  H2349427  12.491   9.596  15.034  1.0436  0.2472 -0.2888
   23ETHOX   O149428  12.667   9.536  14.947 -0.0283 -0.1651  0.2106
   23ETHOX   C149429  12.708   9.665  14.895 -0.2154  0.0680  0.4723
   23ETHOX  H1149430  12.618   9.731  14.891 -0.9349 -0.9498 -0.5577
   23ETHOX  H1349431  12.744   9.653  14.791 -2.9575 -0.3533 -0.5026
   23ETHOX   C249432  12.827   9.722  14.972 -0.6135 -0.4826 -0.1785
   23ETHOX  H2149433  12.875   9.804  14.913  0.8651 -1.0746  0.1635
   23ETHOX  H2349434  12.902   9.642  14.989  0.1873  0.4620  0.9124
   24ETHOX   O149435  12.760   9.765  15.096  0.2290  0.4807  0.1921
   24ETHOX   C149436  12.853   9.816  15.195 -0.2084  0.2626  0.2149
   24ETHOX  H1149437  12.941   9.754  15.223 -0.9977 -0.4593  1.1428
   24ETHOX  H1349438  12.897   9.908  15.149  0.1900 -0.6301 -1.2468
   24ETHOX   C249439  12.781   9.852  15.326  0.5141  0.0564  0.7448
   24ETHOX  H2149440  12.855   9.887  15.401 -0.8106  4.5179  0.2089
   24ETHOX  H2349441  12.729   9.762  15.365  1.3905 -1.6027 -1.6172
   25ETHOX   O149442  12.687   9.961  15.307  0.0276 -0.4154 -0.5444
   25ETHOX   C149443  12.675  10.038  15.424  0.3029  0.3509 -0.4030
   25ETHOX  H1149444  12.763  10.105  15.433  0.6876 -0.3762  1.5866
   25ETHOX  H1349445  12.678   9.966  15.509  1.2178  1.0326  0.1605
   25ETHOX   C249446  12.544  10.121  15.416 -0.1248  0.2076  0.3875
   25ETHOX  H2149447  12.513  10.162  15.514 -0.0282 -0.5660  0.7488
   25ETHOX  H2349448  12.458  10.059  15.383 -1.0231  1.0491  1.1113
   26ETHOX   O149449  12.557  10.232  15.326 -0.0417  0.4710 -0.4129
   26ETHOX   C149450  12.445  10.316  15.331  0.1670 -0.0170 -0.3476
   26ETHOX  H1149451  12.356  10.254  15.307 -1.4217  1.0925  2.2234
   26ETHOX  H1349452  12.430  10.344  15.438 -1.3511 -0.1838 -0.4884
   26ETHOX   C249453  12.460  10.442  15.233 -0.8074 -0.0008  0.1505
   26ETHOX  H2149454  12.366  10.502  15.234 -0.1887  1.0097  1.2702
   26ETHOX  H2349455  12.481  10.397  15.134 -0.6446  1.3135 -0.4352
   27ETHOX   O149456  12.560  10.531  15.288 -0.0180 -0.4225  0.0575
   27ETHOX   C149457  12.584  10.641  15.195 -0.0592 -0.2755  0.0381
   27ETHOX  H1149458  12.495  10.703  15.170  1.0852  1.5840  0.4217
   27ETHOX  H1349459  12.615  10.593  15.100  1.3686  1.0654 -0.2047
   27ETHOX   C249460  12.695  10.731  15.248 -0.9005  0.2176  0.1704
   27ETHOX  H2149461  12.722  10.806  15.171  0.6211 -0.7647 -0.3122
   27ETHOX  H2349462  12.788  10.670  15.251 -0.9719  0.0493 -0.8027
   28ETHOX   O149463  12.658  10.771  15.381  0.6608  0.2110 -0.4486
   28ETHOX   C149464  12.728  10.888  15.424  0.1013  0.7383  0.2239
   28ETHOX  H1149465  12.834  10.856  15.423 -0.2266 -0.4853  1.7499
   28ETHOX  H1349466  12.721  10.979  15.361 -1.1165 -0.3256 -1.2646
   28ETHOX   C249467  12.684  10.923  15.568  0.1412 -0.0946 -0.3443
   28ETHOX  H2149468  12.752  10.866  15.635  1.1271 -0.9879 -2.0412
   28ETHOX  H2349469  12.577  10.893  15.566 -0.9442  3.3215 -0.9957
   29ETHOX   O149470  12.701  11.067  15.596  0.1644 -0.1887  0.2733
   29ETHOX   C149471  12.638  11.097  15.722 -0.1549  0.0059  1.0838
   29ETHOX  H1149472  12.678  11.038  15.807  0.2815  1.1372  1.6840
   29ETHOX  H1349473  12.527  11.086  15.714 -0.2776  1.9227 -0.5740
   29ETHOX   C249474  12.674  11.238  15.762  0.4253  0.2106  0.1373
   29ETHOX  H2149475  12.595  11.261  15.836  0.2368  1.4741 -0.4273
   29ETHOX  H2349476  12.662  11.306  15.675  0.0092 -0.2103 -0.1418
   30ETHOX   O149477  12.802  11.248  15.824  0.1574  0.0449 -0.7142
   30ETHOX   C149478  12.830  11.383  15.847  0.7295 -0.3717  0.4015
   30ETHOX  H1149479  12.933  11.376  15.888  0.6635  1.0248  0.8486
   30ETHOX  H1349480  12.816  11.435  15.750 -1.2874 -1.1761  0.2036
   30ETHOX   C249481  12.754  11.453  15.965 -0.2284  0.9217 -0.4997
   30ETHOX  H2149482  12.648  11.474  15.939 -0.7760  1.6491  2.1243
   30ETHOX  H2349483  12.800  11.550  15.992  0.9284  0.1282  0.4938
   31ETHOX   O149484  12.756  11.386  16.089  0.2113 -0.8689 -0.0400
   31ETHOX   C149485  12.629  11.377  16.146  0.4688  0.2768  0.4437
   31ETHOX  H1149486  12.570  11.470  16.135  0.0959 -0.1924 -2.0869
   31ETHOX  H1349487  12.581  11.297  16.085  2.1875  0.8518 -1.8418
   31ETHOX   C249488  12.635  11.332  16.295 -0.1318  0.3090 -0.0800
   31ETHOX  H2149489  12.710  11.250  16.286 -0.6356 -0.2815  0.9424
   31ETHOX  H2349490  12.534  11.298  16.326  0.0837 -1.1492 -0.8634
   32ETHOX   O149491  12.695  11.420  16.394 -0.2669  0.0067  0.3770
   32ETHOX   C149492  12.668  11.380  16.525 -0.1886  0.5467 -0.6522
   32ETHOX  H1149493  12.689  11.471  16.585 -0.6091  0.2458 -0.0403
   32ETHOX  H1349494  12.560  11.355  16.534 -0.6330  2.6921  0.8736
   32ETHOX   C249495  12.767  11.268  16.569  0.3209 -0.1991  0.0931
   32ETHOX  H2149496  12.773  11.282  16.679  1.9742  1.6735 -0.1884
   32ETHOX  H2349497  12.864  11.293  16.522 -1.4384 -0.6081 -4.1782
   33ETHOX   O149498  12.714  11.140  16.540 -0.4725  0.8037  0.6147
   33ETHOX   C149499  12.817  11.049  16.508 -0.2311 -0.2122  0.2029
   33ETHOX  H1149500  12.852  11.087  16.409  0.7906  0.5682  0.8436
   33ETHOX  H1349501  12.907  11.047  16.573  0.9487  0.1184 -1.3476
   33ETHOX   C249502  12.765  10.909  16.494  0.1769  0.5200  0.4548
   33ETHOX  H2149503  12.835  10.838  16.445 -1.2533 -0.9996  0.5214
   33ETHOX  H2349504  12.686  10.909  16.417 -0.0100  2.3823  0.6105
   34ETHOX   O149505  12.709  10.849  16.616 -0.6528  0.1475  0.1389
   34ETHOX   C149506  12.621  10.749  16.582  0.0688 -0.5523 -0.4212
   34ETHOX  H1149507  12.687  10.676  16.530  0.8410  1.2275 -2.1142
   34ETHOX  H1349508  12.543  10.783  16.510  1.2185  1.0014 -0.9873
   34ETHOX   C249509  12.559  10.692  16.704  0.4874 -0.0996 -0.6876
   34ETHOX  H2149510  12.487  10.614  16.671 -0.0688  0.4461 -0.7997
   34ETHOX  H2349511  12.509  10.771  16.764  0.0202 -0.1819 -0.9586
   35ETHOX   O149512  12.662  10.633  16.788  0.0122 -0.1083  0.5165
   35ETHOX   C149513  12.617  10.577  16.908 -0.6353 -0.6712  0.0585
   35ETHOX  H1149514  12.533  10.638  16.948 -1.4864 -0.1262 -2.4025
   35ETHOX  H1349515  12.556  10.485  16.896  0.3009 -1.4690  1.1623
   35ETHOX   C249516  12.719  10.555  17.020 -0.2908  0.4631  0.9144
   35ETHOX  H2149517  12.812  10.506  16.986 -0.7964 -1.0854  1.6622
   35ETHOX  H2349518  12.677  10.479  17.090  1.0746  0.4667  1.7611
   36ETHOX   O149519  12.750  10.678  17.081  0.2395 -0.5076 -0.0546
   36ETHOX   C149520  12.805  10.652  17.207 -0.2152  0.4694  0.4430
   36ETHOX  H1149521  12.874  10.567  17.194 -1.0565 -0.0852 -0.5758
   36ETHOX  H1349522  12.722  10.625  17.276 -0.9158 -0.8357 -0.8524
   36ETHOX   C249523  12.887  10.763  17.269 -0.0739 -0.2000  1.0410
   36ETHOX  H2149524  12.954  10.803  17.190 -1.8382  0.9516  0.0752
   36ETHOX  H2349525  12.954  10.719  17.347  2.0926  1.0164 -0.0307
   37ETHOX   O149526  12.817  10.869  17.340  0.6253  0.0408 -0.5158
   37ETHOX   C149527  12.774  10.965  17.252  0.6671  0.1313 -0.2454
   37ETHOX  H1149528  12.863  11.006  17.199  2.3610 -3.1861 -0.2441
   37ETHOX  H1349529  12.722  10.901  17.178  1.4344 -0.3076 -0.4218
   37ETHOX   C249530  12.676  11.063  17.311 -0.0012 -0.1822  0.0978
   37ETHOX  H2149531  12.606  11.004  17.375  0.4739  2.2083  3.0533
   37ETHOX  H2349532  12.622  11.127  17.238 -1.3360  1.2402  2.2015
   38ETHOX   O149533  12.752  11.145  17.400  0.5101  0.0797  0.1135
   38ETHOX   C149534  12.685  11.256  17.441 -0.1265 -0.1249 -0.3538
   38ETHOX  H1149535  12.648  11.318  17.356 -0.3291  0.6821  0.3079
   38ETHOX  H1349536  12.748  11.323  17.504  1.3988 -2.4765  0.7588
   38ETHOX   C249537  12.565  11.233  17.529 -0.8023  0.2137  0.6306
   38ETHOX  H2149538  12.534  11.317  17.595  0.7537  1.7498 -0.5032
   38ETHOX  H2349539  12.604  11.144  17.582  4.7434  1.9230  0.0853
   39ETHOX   O149540  12.459  11.194  17.442 -0.0944 -0.1655 -0.7525
   39ETHOX   C149541  12.338  11.159  17.514 -0.4102  0.2526  0.2773
   39ETHOX  H1149542  12.276  11.126  17.428  2.0829  2.0316 -2.4276
   39ETHOX  H1349543  12.345  11.074  17.585 -1.4332  0.1915  0.3201
   39ETHOX   C249544  12.281  11.277  17.593  0.3073  0.3187 -0.5463
   39ETHOX  H2149545  12.309  11.375  17.548  0.0949  0.9629  0.7031
   39ETHOX  H2349546  12.322  11.266  17.696 -1.6910  0.6858  0.3181
   40ETHOX   O149547  12.132  11.291  17.591 -0.7339 -0.3992  0.4312
   40ETHOX   C149548  12.094  11.382  17.699 -0.2319  0.4167  0.0994
   40ETHOX  H1149549  12.075  11.478  17.646 -0.0005 -0.6281 -1.9724
   40ETHOX  H1349550  12.172  11.402  17.774  0.2916  0.3747 -0.4260
   40ETHOX   C249551  11.959  11.336  17.763  0.0132  0.3611 -0.3276
   40ETHOX  H2149552  11.941  11.403  17.850 -0.6683  0.8060 -0.7991
   40ETHOX  H2349553  11.970  11.233  17.801  2.3534  0.4381 -0.6402
   41ETHOX   O149554  11.843  11.356  17.679 -0.6550 -0.4220 -0.4167
   41ETHOX   C149555  11.725  11.299  17.735 -0.3607  0.3206  0.4059
   41ETHOX  H1149556  11.752  11.192  17.743 -1.6356  0.0926  1.9754
   41ETHOX  H1349557  11.708  11.333  17.839 -1.2907 -3.0891  1.4767
   41ETHOX   C249558  11.595  11.295  17.650 -0.0207 -0.0909  0.2483
   41ETHOX  H2149559  11.521  11.218  17.682  0.0947 -0.0440  0.6264
   41ETHOX  H2349560  11.621  11.262  17.547 -2.3000 -1.1769 -0.0338
   42ETHOX   O149561  11.530  11.423  17.643 -0.2797 -0.4129  0.3166
   42ETHOX   C149562  11.469  11.446  17.517  0.6731  0.7369 -0.3619
   42ETHOX  H1149563  11.532  11.402  17.436  1.0974  1.0452 -0.2009
   42ETHOX  H1349564  11.376  11.384  17.516  1.8650 -1.2333  1.3909
   42ETHOX   C249565  11.436  11.594  17.494  0.1720  0.6251 -0.3077
   42ETHOX  H2149566  11.424  11.607  17.384 -1.5378  0.4278 -0.1727
   42ETHOX  H2349567  11.529  11.651  17.518 -1.2964  3.2096 -0.3861
   43ETHOX   O149568  11.321  11.640  17.562  0.4018  0.2368 -0.1891
   43ETHOX   C149569  11.294  11.773  17.525  0.3777  0.1968  0.8800
   43ETHOX  H1149570  11.379  11.842  17.541  0.0436  0.5021  1.3593
   43ETHOX  H1349571  11.274  11.770  17.415  0.5922 -1.0444  0.8542
   43ETHOX   C249572  11.174  11.822  17.604 -0.0395 -0.1855 -0.5007
   43ETHOX  H2149573  11.097  11.741  17.600  0.8533 -1.1350  0.7911
   43ETHOX  H2349574  11.122  11.913  17.565 -0.2436  0.5733  1.4021
   44ETHOX   O149575  11.208  11.856  17.735  0.2377  0.0419  0.2102
   44ETHOX   C149576  11.119  11.939  17.801 -0.1809 -0.7885 -0.3642
   44ETHOX  H1149577  11.064  12.010  17.735 -0.3445 -0.5463  0.0306
   44ETHOX  H1349578  11.041  11.875  17.847 -0.5320 -0.0986  0.0212
   44ETHOX   C249579  11.198  12.027  17.904 -0.3774  0.8375  0.2286
   44ETHOX  H2149580  11.115  12.073  17.962 -1.1996 -0.9316  0.4923
   44ETHOX  H2349581  11.262  12.098  17.847  1.4988  1.4776  2.9205
   45ETHOX   O149582  11.286  11.951  17.989  0.0703 -0.7229 -0.1930
   45ETHOX   C149583  11.218  11.922  18.111  0.4698  0.2627 -0.1276
   45ETHOX  H1149584  11.267  11.833  18.157  2.0172  0.5245 -1.2193
   45ETHOX  H1349585  11.111  11.895  18.093 -0.3328  2.5990  0.7776
   45ETHOX   C249586  11.214  12.029  18.222  0.2194 -0.2737 -0.4789
   45ETHOX  H2149587  11.311  12.083  18.219 -0.8331  1.7179  0.2193
   45ETHOX  H2349588  11.209  11.982  18.323  1.7892  1.9201  0.6860
   46ETHOX   O149589  11.103  12.124  18.194 -0.6170  0.0349  0.2811
   46ETHOX   C149590  11.087  12.229  18.294  0.0176  0.0414  0.2045
   46ETHOX  H1149591  11.047  12.183  18.386  1.5367 -0.8043  0.4712
   46ETHOX  H1349592  11.181  12.286  18.307 -0.1626 -0.1799  3.2019
   46ETHOX   C249593  11.000  12.333  18.239 -0.0176 -0.4894  0.1903
   46ETHOX  H2149594  10.933  12.363  18.322  1.1371  0.7672  0.7061
   46ETHOX  H2349595  10.926  12.288  18.169 -0.0342 -3.3581  1.9170
   47ETHOX   O149596  11.057  12.448  18.178 -0.1664 -0.0537  0.1297
   47ETHOX   C149597  11.110  12.413  18.045 -0.0672  0.1796 -0.7803
   47ETHOX  H1149598  11.034  12.408  17.964 -0.2785  1.4413 -0.6732
   47ETHOX  H1349599  11.155  12.311  18.048 -0.2270  0.0873 -1.3963
   47ETHOX   C249600  11.202  12.516  17.987 -0.3726 -0.3545 -0.2843
   47ETHOX  H2149601  11.169  12.620  18.011  1.1786  0.1118 -0.0911
   47ETHOX  H2349602  11.221  12.508  17.878 -1.9027 -0.3534 -0.5741
   48ETHOX   O149603  11.330  12.507  18.052  0.1051  0.0174 -0.3167
   48ETHOX   C149604  11.404  12.630  18.050  0.2324  0.1232 -0.7230
   48ETHOX  H1149605  11.371  12.699  17.969 -0.8512 -1.5875 -1.7863
   48ETHOX  H1349606  11.381  12.682  18.146 -1.6793 -0.1583 -0.9878
   48ETHOX   C249607  11.555  12.606  18.046  0.1000  0.3657 -0.1391
   48ETHOX  H2149608  11.602  12.696  18.092  0.6757 -0.0818  0.1505
   48ETHOX  H2349609  11.570  12.514  18.105  0.8562 -0.5256 -1.6592
   49ETHOX   O149610  11.592  12.601  17.910 -0.1703  0.3697 -0.1730
   49ETHOX   C149611  11.734  12.597  17.889  0.1983  0.4429 -0.0399
   49ETHOX  H1149612  11.782  12.517  17.949  3.3529  1.8751 -0.4547
   49ETHOX  H1349613  11.764  12.696  17.928  2.6010 -0.7471  1.3090
   49ETHOX   C249614  11.775  12.571  17.735  0.1278 -0.2823  0.1110
   49ETHOX  H2149615  11.744  12.468  17.709 -1.3410 -0.3232  1.7843
   49ETHOX  H2349616  11.886  12.576  17.734  0.2245 -1.1397  1.9297
   50ETHOX   O149617  11.732  12.674  17.648  0.5878  0.0416 -0.0970
   50ETHOX   C149618  11.782  12.675  17.518  0.0231  0.5774 -0.2055
   50ETHOX  H1149619  11.889  12.704  17.521  0.2346 -0.0388 -1.2041
   50ETHOX  H1349620  11.788  12.573  17.475  1.1984  0.0471  1.1164
   50ETHOX   C249621  11.708  12.785  17.437  0.6109 -0.5140  0.3896
   50ETHOX  H2149622  11.749  12.783  17.334 -0.3783  0.6932 -0.0388
   50ETHOX  H2349623  11.740  12.882  17.479 -0.2946 -0.8291  1.8638
   51ETHOX   O149624  11.566  12.775  17.433  0.3891 -0.2598 -0.2732
   51ETHOX   C149625  11.499  12.895  17.405 -0.3938  0.4969 -0.1235
   51ETHOX  H1149626  11.538  12.988  17.451 -2.2970  1.0672  0.4376
   51ETHOX  H1349627  11.392  12.895  17.436 -0.4570  1.8118 -0.2878
   51ETHOX   C249628  11.494  12.902  17.250  0.5412  0.4682  0.2717
   51ETHOX  H2149629  11.600  12.889  17.219 -0.2434 -1.9437 -1.7579
   51ETHOX  H2349630  11.453  13.001  17.221  1.5370  0.2861 -1.9305
   52ETHOX   O149631  11.401  12.793  17.211 -0.1800  0.5059  0.2425
   52ETHOX   C149632  11.418  12.751  17.080 -0.0335 -0.5369  0.1795
   52ETHOX  H1149633  11.419  12.843  17.019  2.5696  0.5777  1.7215
   52ETHOX  H1349634  11.520  12.710  17.060  0.1801  0.7630 -1.7265
   52ETHOX   C249635  11.310  12.646  17.040 -0.3579  0.3997  0.1039
   52ETHOX  H2149636  11.316  12.634  16.929  2.1058 -0.0853  0.2301
   52ETHOX  H2349637  11.211  12.689  17.067 -0.8363 -1.1659  0.9122
   53ETHOX   O149638  11.337  12.516  17.103  0.0171 -0.3889 -0.6092
   53ETHOX   C149639  11.261  12.410  17.035 -0.7313  0.3494  0.4246
   53ETHOX  H1149640  11.164  12.460  17.016 -0.1786  1.3950  0.2484
   53ETHOX  H1349641  11.310  12.399  16.935 -1.1277 -0.0859  0.2757
   53ETHOX   C249642  11.248  12.275  17.105 -0.4512  0.3810 -0.3159
   53ETHOX  H2149643  11.188  12.207  17.041 -0.1145  0.4785 -0.7394
   53ETHOX  H2349644  11.193  12.295  17.200 -0.4025  0.0500 -0.2179
   54ETHOX   O149645  11.371  12.213  17.124  0.0092  0.1043 -0.0653
   54ETHOX   C149646  11.357  12.087  17.193  0.7875  0.0041  0.2893
   54ETHOX  H1149647  11.290  12.104  17.280  0.7591 -0.3838  0.3437
   54ETHOX  H1349648  11.294  12.020  17.131  0.5117  0.4717  0.0557
   54ETHOX   C249649  11.487  12.010  17.226  0.1224  0.3448  0.4710
   54ETHOX  H2149650  11.470  11.953  17.320 -0.9424  0.1214  0.1578
   54ETHOX  H2349651  11.570  12.084  17.233  0.9272 -0.4299 -0.7101
   55ETHOX   O149652  11.530  11.926  17.125 -0.3274  0.2470 -0.1516
   55ETHOX   C149653  11.625  11.820  17.162 -0.2249 -0.1619 -0.6254
   55ETHOX  H1149654  11.713  11.860  17.216 -0.1170 -0.9966 -0.1591
   55ETHOX  H1349655  11.570  11.748  17.227 -1.1062  1.7498  0.8594
   55ETHOX   C249656  11.674  11.759  17.030  0.7895  0.4246  0.3833
   55ETHOX  H2149657  11.711  11.834  16.957  1.3143  1.2856  1.5097
   55ETHOX  H2349658  11.765  11.696  17.034  1.1854  0.8297 -1.2766
   56ETHOX   O149659  11.581  11.670  16.960  0.3018 -0.3100  0.2558
   56ETHOX   C149660  11.638  11.602  16.846 -0.4852 -0.1421 -0.0586
   56ETHOX  H1149661  11.715  11.530  16.879  1.7736  0.8544 -2.7613
   56ETHOX  H1349662  11.674  11.686  16.783 -1.3094 -1.3134 -2.1647
   56ETHOX   C249663  11.529  11.537  16.763  0.4387  0.0951 -0.0924
   56ETHOX  H2149664  11.446  11.610  16.750  0.4688  0.3901  1.2639
   56ETHOX  H2349665  11.492  11.448  16.819  0.4713  1.5836  2.4545
   57ETHOX   O149666  11.599  11.512  16.637 -0.0335  0.6167  0.4338
   57ETHOX   C149667  11.503  11.459  16.539  0.0724 -0.0323 -0.7744
   57ETHOX  H1149668  11.481  11.354  16.569  1.7377  0.1059  1.1508
   57ETHOX  H1349669  11.406  11.512  16.544  0.3328  0.6869 -2.5614
   57ETHOX   C249670  11.559  11.458  16.397 -0.7577 -0.0650 -0.1072
   57ETHOX  H2149671  11.592  11.559  16.364  0.0601 -0.7515 -1.4998
   57ETHOX  H2349672  11.470  11.436  16.334 -0.6349  1.3440 -0.8096
   58ETHOX   O149673  11.661  11.369  16.381 -1.2812  0.2299  0.2293
   58ETHOX   C149674  11.691  11.354  16.241 -0.6486  0.5761 -0.1207
   58ETHOX  H1149675  11.594  11.336  16.190  0.2008 -0.2623 -1.4983
   58ETHOX  H1349676  11.753  11.261  16.241 -0.4562  0.7020  0.2257
   58ETHOX   C249677  11.769  11.465  16.175  1.1877 -0.3180 -0.7959
   58ETHOX  H2149678  11.831  11.421  16.094  0.3824  0.8161 -2.0883
   58ETHOX  H2349679  11.843  11.510  16.244  0.9081 -1.9569  0.6547
   59ETHOX   O149680  11.686  11.571  16.131 -0.6981 -0.5530 -0.2207
   59ETHOX   C149681  11.775  11.673  16.079  0.2140  0.5372  0.1717
   59ETHOX  H1149682  11.831  11.720  16.162  2.7170 -0.4937 -0.8505
   59ETHOX  H1349683  11.840  11.627  16.002 -0.2699  0.8907 -0.4567
   59ETHOX   C249684  11.699  11.787  16.005  0.4821 -0.4579 -0.5628
   59ETHOX  H2149685  11.603  11.754  15.960  0.6635 -1.4161 -0.2726
   59ETHOX  H2349686  11.766  11.823  15.925 -0.6777  1.3627 -0.7776
   60ETHOX   O149687  11.668  11.889  16.097  0.3860 -0.1729  0.4949
   60ETHOX   C149688  11.589  11.996  16.045  0.6726 -0.6564  0.7938
   60ETHOX  H1149689  11.549  12.060  16.127  1.5544  1.5026 -0.3502
   60ETHOX  H1349690  11.504  11.948  15.993 -0.6629 -0.9045  3.0328
   60ETHOX   C249691  11.666  12.078  15.947  0.0675  0.2744  0.6504
   60ETHOX  H2149692  11.732  12.018  15.881  1.0704  0.0845  1.7841
   60ETHOX  H2349693  11.729  12.161  15.985 -2.1178  2.5767 -0.4354
   61ETHOX   O149694  11.569  12.145  15.864 -0.2362 -0.3255 -0.8846
   61ETHOX   C149695  11.632  12.221  15.762  0.3571 -0.4677  0.0146
   61ETHOX  H1149696  11.717  12.281  15.800 -0.3727  0.1423  0.7448
   61ETHOX  H1349697  11.672  12.143  15.693  2.7326 -1.3310  2.2068
   61ETHOX   C249698  11.534  12.317  15.698 -0.3038 -0.0486  0.0241
   61ETHOX  H2149699  11.442  12.257  15.681 -1.4911  1.6680  0.2085
   61ETHOX  H2349700  11.582  12.356  15.606  0.1544 -0.3665  0.1239
   62ETHOX   O149701  11.504  12.424  15.780  0.0799 -0.9338  0.0885
   62ETHOX   C149702  11.454  12.535  15.706  0.1694 -0.0677 -0.7492
   62ETHOX  H1149703  11.400  12.495  15.617  0.2734  2.0013 -1.7875
   62ETHOX  H1349704  11.539  12.596  15.669  1.2615 -0.9634  0.2375
   62ETHOX   C249705  11.350  12.630  15.777  0.4138  0.8077 -0.3059
   62ETHOX  H2149706  11.395  12.729  15.754  0.8518  0.7435  0.2620
   62ETHOX  H2349707  11.354  12.620  15.887 -0.5291  0.9899 -0.2456
   63ETHOX   O149708  11.215  12.602  15.727 -0.1182  0.3286  0.6819
   63ETHOX   C149709  11.111  12.645  15.804  0.2518 -0.0793 -0.4398
   63ETHOX  H1149710  11.110  12.582  15.895 -1.1525  1.5937  0.7738
   63ETHOX  H1349711  11.136  12.745  15.847  0.6796 -0.8124  1.0701
   63ETHOX   C249712  10.986  12.649  15.717 -0.7958  1.0393  0.4669
   63ETHOX  H2149713  10.967  12.545  15.686 -0.4629  1.4740 -1.2879
   63ETHOX  H2349714  11.002  12.702  15.621 -0.1679 -0.5439 -0.3350
   64ETHOX   O149715  10.874  12.709  15.787 -0.5844  0.0637  0.2494
   64ETHOX   C149716  10.754  12.642  15.754 -0.6535  0.4572  0.2380
   64ETHOX  H1149717  10.771  12.532  15.756 -1.4779  0.3228  0.2262
   64ETHOX  H1349718  10.726  12.682  15.654  0.2729  0.4559 -0.0314
   64ETHOX   C249719  10.640  12.662  15.861  1.0830  0.8078 -0.1435
   64ETHOX  H2149720  10.589  12.758  15.837 -1.8549 -0.6357 -0.2365
   64ETHOX  H2349721  10.679  12.683  15.963  1.6238  3.6229 -0.8598
   65ETHOX   O149722  10.532  12.571  15.849 -0.4832  0.3133 -0.0825
   65ETHOX   C149723  10.579  12.453  15.922 -0.1740  0.3573  0.7995
   65ETHOX  H1149724  10.688  12.438  15.917 -0.4028 -0.9539 -0.9898
   65ETHOX  H1349725  10.565  12.463  16.032 -2.5945 -0.7225  0.6686
   65ETHOX   C249726  10.491  12.327  15.892 -0.2158  0.1255  0.1647
   65ETHOX  H2149727  10.385  12.359  15.902 -1.2080 -2.3645 -1.2039
   65ETHOX  H2349728  10.517  12.237  15.952  1.2811  0.3792 -0.0844
   66ETHOX   O149729  10.511  12.287  15.751  0.9820 -0.6245 -0.0397
   66ETHOX   C149730  10.473  12.152  15.725 -0.6596 -0.1109  0.1972
   66ETHOX  H1149731  10.538  12.095  15.794 -0.9407  0.9982  1.4089
   66ETHOX  H1349732  10.497  12.131  15.618 -1.2576 -1.3346  0.2897
   66ETHOX   C249733  10.326  12.105  15.747  0.1722 -0.0622  0.1790
   66ETHOX  H2149734  10.283  12.138  15.844 -0.9060 -0.2153 -0.2294
   66ETHOX  H2349735  10.340  11.996  15.763  3.8244  0.0737 -1.2152
   67ETHOX   O149736  10.235  12.140  15.647  0.2842  0.5996  0.1898
   67ETHOX   C149737  10.108  12.082  15.673 -0.1582 -0.3272  0.1340
   67ETHOX  H1149738  10.050  12.065  15.579 -0.3744 -1.1903  0.4142
   67ETHOX  H1349739  10.114  11.984  15.725 -3.5553 -1.3317 -1.1105
   67ETHOX   C249740  10.030  12.174  15.766 -0.8745  0.5801 -0.3011
   67ETHOX  H2149741  10.097  12.213  15.845  0.2800 -3.1216  0.7348
   67ETHOX  H2349742   9.945  12.118  15.811  1.5427 -1.4311  2.1312
   68ETHOX   O149743   9.966  12.275  15.687  0.4077  0.3557 -0.6416
   68ETHOX   C149744   9.965  12.402  15.753  0.1057 -0.7694  0.2068
   68ETHOX  H1149745  10.004  12.411  15.857  0.6923  0.1431 -0.0775
   68ETHOX  H1349746  10.035  12.464  15.692  0.9132  1.7417  3.4242
   68ETHOX   C249747   9.826  12.463  15.736 -0.2311  0.3417  0.2952
   68ETHOX  H2149748   9.800  12.475  15.628  0.7630  0.7691  0.0945
   68ETHOX  H2349749   9.829  12.565  15.779  0.5647 -0.2505  1.6909
   69ETHOX   O149750   9.727  12.388  15.804  0.3549 -0.2229 -0.2742
   69ETHOX   C149751   9.603  12.456  15.829  0.2076 -0.0846 -0.0003
   69ETHOX  H1149752   9.614  12.539  15.902  0.9151  0.3906 -0.6359
   69ETHOX  H1349753   9.579  12.501  15.730  5.2819 -1.3922 -2.1738
   69ETHOX   C249754   9.494  12.358  15.884 -0.1056  1.2301 -0.1625
   69ETHOX  H2149755   9.392  12.397  15.862 -0.4676 -0.4565 -1.7176
   69ETHOX  H2349756   9.505  12.336  15.993 -0.2685  1.6846 -0.0503
   70ETHOX   O149757   9.511  12.238  15.814  0.4150  0.2376  0.6679
   70ETHOX   C149758   9.414  12.141  15.854 -0.8149 -0.0965  0.8050
   70ETHOX  H1149759   9.413  12.136  15.965 -1.1412 -0.7413  0.7727
   70ETHOX  H1349760   9.309  12.154  15.821 -0.0158  0.0630 -1.9400
   70ETHOX   C249761   9.470  11.996  15.820 -0.5186 -1.0592 -0.5638
   70ETHOX  H2149762   9.417  11.918  15.877 -0.5028 -0.9272 -0.3676
   70ETHOX  H2349763   9.581  11.995  15.829 -0.3751  0.7034 -1.6402
   71ETHOX   O149764   9.428  11.964  15.693  0.5733  0.0201  0.0795
   71ETHOX   C149765   9.505  11.863  15.636  0.3635  0.3171  0.5207
   71ETHOX  H1149766   9.506  11.772  15.701  0.8134 -0.8416 -1.0388
   71ETHOX  H1349767   9.608  11.904  15.641  1.2023 -1.7227  4.1977
   71ETHOX   C249768   9.453  11.829  15.500 -0.5385  0.4151 -0.0741
   71ETHOX  H2149769   9.536  11.772  15.453  2.1028  3.6485  0.2677
   71ETHOX  H2349770   9.431  11.920  15.442  1.4233  1.8446  1.2767
   72ETHOX   O149771   9.330  11.750  15.511  0.6522 -0.6579 -0.3645
   72ETHOX   C149772   9.340  11.640  15.413  0.1006  0.4494  0.7458
   72ETHOX  H1149773   9.333  11.683  15.311  2.5878  1.1973  0.8292
   72ETHOX  H1349774   9.441  11.595  15.415  0.4694  0.6902 -3.6259
   72ETHOX   C249775   9.227  11.536  15.435  0.0668 -0.0044 -0.3417
   72ETHOX  H2149776   9.229  11.499  15.539  3.9616 -3.4112 -1.3559
   72ETHOX  H2349777   9.265  11.451  15.373  1.8991  0.8519 -0.4744
   73ETHOX   O149778   9.097  11.558  15.402 -0.0515 -0.2172 -0.1205
   73ETHOX   C149779   9.008  11.447  15.427 -0.4721  0.0311 -0.2410
   73ETHOX  H1149780   9.023  11.414  15.532  0.2303  0.2459 -0.2703
   73ETHOX  H1349781   9.033  11.364  15.357 -3.6655 -2.2340  1.0794
   73ETHOX   C249782   8.866  11.497  15.433  0.0306 -0.4305 -0.5366
   73ETHOX  H2149783   8.845  11.559  15.523  0.3095 -0.2497 -0.5966
   73ETHOX  H2349784   8.795  11.411  15.434  1.2148 -1.4457 -1.4860
   74ETHOX   O149785   8.847  11.559  15.305 -0.0401  0.0765 -0.2172
   74ETHOX   C149786   8.724  11.624  15.290 -0.3054 -0.8669  0.1827
   74ETHOX  H1149787   8.655  11.555  15.235 -0.3362  0.4479 -1.4983
   74ETHOX  H1349788   8.681  11.664  15.384  2.4236  0.1169  1.0911
   74ETHOX   C249789   8.749  11.748  15.203  0.2594  0.7127  0.5437
   74ETHOX  H2149790   8.650  11.786  15.171  0.1805 -0.8123 -1.1453
   74ETHOX  H2349791   8.800  11.728  15.106 -0.0199  0.0677  0.5263
   75ETHOX   O149792   8.812  11.846  15.287  0.1270  0.4105  0.4057
   75ETHOX   C149793   8.851  11.964  15.218 -0.0537 -0.1253 -0.0821
   75ETHOX  H1149794   8.770  12.002  15.151  0.9032 -2.5017 -2.7742
   75ETHOX  H1349795   8.930  11.935  15.146 -0.4494 -0.3239 -0.4453
   75ETHOX   C249796   8.884  12.096  15.296 -0.0131  0.8998  0.0677
   75ETHOX  H2149797   8.929  12.175  15.233  2.1557 -0.1154  0.2196
   75ETHOX  H2349798   8.966  12.076  15.368  0.0044  0.7329  0.0025
   76ETHOX   O149799   8.767  12.145  15.366  0.1553  0.0650  0.1818
   76ETHOX   C149800   8.770  12.276  15.396 -0.2820 -1.0727 -0.0238
   76ETHOX  H1149801   8.828  12.284  15.491 -0.8871 -1.4594  0.3840
   76ETHOX  H1349802   8.829  12.344  15.330 -0.6434  1.0170  1.6632
   76ETHOX   C249803   8.627  12.340  15.413 -1.0948 -0.0874  0.0486
   76ETHOX  H2149804   8.653  12.432  15.468  3.0573 -1.2420  0.4245
   76ETHOX  H2349805   8.557  12.276  15.470 -1.2843  3.6580  4.6343
   77ETHOX   O149806   8.565  12.392  15.293  0.4873  0.2547  0.1555
   77ETHOX   C149807   8.434  12.446  15.310  0.4579  0.0485  0.1058
   77ETHOX  H1149808   8.432  12.512  15.399  1.5514  0.7697 -0.3944
   77ETHOX  H1349809   8.357  12.366  15.324 -0.8662  0.9825 -1.4295
   77ETHOX   C249810   8.392  12.531  15.199  1.0537 -0.1971 -0.9279
   77ETHOX  H2149811   8.287  12.560  15.224  1.1280 -0.4968 -0.2578
   77ETHOX  H2349812   8.398  12.475  15.103 -0.5677 -2.4247  0.1944
   78ETHOX   O149813   8.467  12.655  15.195 -0.1495  0.4340  0.1503
   78ETHOX   C149814   8.475  12.706  15.056  0.0344 -0.6428 -1.1006
   78ETHOX  H1149815   8.465  12.626  14.980  0.5118 -1.1659 -0.6181
   78ETHOX  H1349816   8.383  12.768  15.045 -0.9600 -2.1845 -1.7612
   78ETHOX   C249817   8.601  12.786  15.024 -0.0195  0.2219 -0.8178
   78ETHOX  H2149818   8.612  12.870  15.095  1.5436  1.5251 -2.4715
   78ETHOX  H2349819   8.595  12.827  14.921  1.5150  1.5383 -0.4279
   79ETHOX   O149820   8.724  12.703  15.033 -0.5342 -0.2426  0.1335
   79ETHOX   C149821   8.802  12.709  14.913 -0.7750  0.0813  0.3823
   79ETHOX  H1149822   8.752  12.653  14.831 -0.1536  1.0366 -0.6740
   79ETHOX  H1349823   8.815  12.809  14.866 -0.4089 -0.4417 -0.6551
   79ETHOX   C249824   8.948  12.650  14.936  0.4832 -0.6319 -0.2270
   79ETHOX  H2149825   9.011  12.641  14.845  2.2900  0.6873  0.8144
   79ETHOX  H2349826   8.926  12.546  14.969 -3.5203 -0.8548 -2.9308
   80ETHOX   O149827   9.023  12.714  15.036 -0.2552 -0.6329 -0.2014
   80ETHOX   C149828   9.079  12.833  14.996 -0.2112  0.1170  0.3932
   80ETHOX  H1149829   9.185  12.837  15.028  0.5448  0.8336 -2.0035
   80ETHOX  H1349830   9.074  12.836  14.885 -2.1817  0.1348  0.4457
   80ETHOX   C249831   9.007  12.945  15.068 -0.1418 -0.4743 -0.4507
   80ETHOX  H2149832   8.898  12.937  15.044 -0.2158  0.6654 -0.5682
   80ETHOX  H2349833   9.051  13.040  15.030  1.3733 -0.4087  1.3724
   81ETHOX   O149834   9.024  12.943  15.209  0.4383 -0.5041  0.2999
   81ETHOX   C149835   8.934  13.034  15.272  0.1381 -0.1162  0.1460
   81ETHOX  H1149836   8.950  13.128  15.214  2.7833  0.6596  1.9475
   81ETHOX  H1349837   8.830  12.998  15.256  0.1594  0.5541 -1.8542
   81ETHOX   C249838   8.981  13.067  15.417  0.4792  0.0330  0.8279
   81ETHOX  H2149839   9.089  13.090  15.423  0.3429  1.0561 -0.2656
   81ETHOX  H2349840   8.920  13.158  15.437 -0.4124  0.3638 -2.6853
   82ETHOX   O149841   8.945  12.963  15.506  0.4884  0.0440  0.0547
   82ETHOX   C149842   9.024  12.960  15.627  0.3462 -0.6208  0.3001
   82ETHOX  H1149843   9.013  13.056  15.682 -2.2212 -1.8307  2.0946
   82ETHOX  H1349844   9.130  12.952  15.593  0.4943 -2.4885  1.0393
   82ETHOX   C249845   8.989  12.848  15.721  0.0715 -0.5642  0.1470
   82ETHOX  H2149846   8.887  12.865  15.762 -0.2933  0.1973 -1.0252
   82ETHOX  H2349847   9.057  12.864  15.807 -0.6617  0.0945  0.6144
   83ETHOX   O149848   9.018  12.715  15.660  0.8941 -0.3520 -0.5222
   83ETHOX   C149849   8.989  12.609  15.744  0.5088 -0.2214 -0.7531
   83ETHOX  H1149850   9.041  12.623  15.842  2.0277 -2.1570 -1.2240
   83ETHOX  H1349851   8.880  12.600  15.760  0.5909  1.0284  0.7632
   83ETHOX   C249852   9.043  12.483  15.676 -0.2677  0.9609 -0.2126
   83ETHOX  H2149853   8.992  12.465  15.579 -0.4300  0.0272  0.0383
   83ETHOX  H2349854   9.024  12.393  15.738  1.2074 -1.2914 -2.7616
   84ETHOX   O149855   9.186  12.487  15.653  0.1157 -0.1553  0.7122
   84ETHOX   C149856   9.235  12.373  15.592 -0.7868  0.7107  0.3784
   84ETHOX  H1149857   9.154  12.318  15.539  0.1217  0.5577 -0.8839
   84ETHOX  H1349858   9.264  12.295  15.666  1.0249  1.2149  0.2284
   84ETHOX   C249859   9.351  12.403  15.494 -0.0108 -0.0142  0.0279
   84ETHOX  H2149860   9.399  12.304  15.480  0.9545  0.3185  0.8820
   84ETHOX  H2349861   9.422  12.475  15.540 -0.2358  0.5138 -0.4475
   85ETHOX   O149862   9.300  12.456  15.372  0.1502  0.0156  0.2481
   85ETHOX   C149863   9.398  12.526  15.295  0.1770  0.1619  0.0292
   85ETHOX  H1149864   9.413  12.623  15.347 -0.6995 -0.2212  1.0466
   85ETHOX  H1349865   9.488  12.461  15.296  0.6755  0.8393 -0.0816
   85ETHOX   C249866   9.348  12.548  15.150  0.0286  0.1345  0.1049
   85ETHOX  H2149867   9.407  12.625  15.096  2.3849 -0.6549  1.4074
   85ETHOX  H2349868   9.243  12.582  15.157 -0.1865 -0.9127  2.9405
   86ETHOX   O149869   9.367  12.420  15.082 -0.2987  0.0388  0.1270
   86ETHOX   C149870   9.261  12.393  14.999 -0.6425  0.0522  0.1951
   86ETHOX  H1149871   9.304  12.322  14.925  0.4397  2.6445 -1.8328
   86ETHOX  H1349872   9.228  12.485  14.945 -0.8514  0.0894  0.3848
   86ETHOX   C249873   9.141  12.325  15.069  0.2976 -0.6468  0.4169
   86ETHOX  H2149874   9.055  12.350  15.003 -0.4179 -0.0141  1.5476
   86ETHOX  H2349875   9.119  12.358  15.172 -2.2100 -0.7706 -0.0330
   87ETHOX   O149876   9.141  12.184  15.071  0.0256  0.1828  1.4132
   87ETHOX   C149877   9.238  12.144  15.167  0.3566  0.3087  0.7442
   87ETHOX  H1149878   9.339  12.173  15.132 -0.3697  0.1537 -1.6722
   87ETHOX  H1349879   9.223  12.216  15.251  0.5732  1.8890 -0.5299
   87ETHOX   C249880   9.229  12.000  15.202 -0.4364  0.0711 -0.2567
   87ETHOX  H2149881   9.120  11.980  15.210 -0.4343  0.7529  2.1714
   87ETHOX  H2349882   9.271  11.978  15.302 -1.5773 -1.6489 -0.1247
   88ETHOX   O149883   9.287  11.910  15.116  0.2961 -0.5754 -0.0759
   88ETHOX   C149884   9.195  11.861  15.015 -0.0136  0.2293  0.0712
   88ETHOX  H1149885   9.163  11.941  14.945  2.1151  0.3972 -0.7596
   88ETHOX  H1349886   9.108  11.809  15.062  0.2302  0.0071  0.2800
   88ETHOX   C249887   9.275  11.759  14.937 -0.3722 -0.5110 -0.0184
   88ETHOX  H2149888   9.201  11.694  14.885 -1.4913  0.5042  0.2651
   88ETHOX  H2349889   9.340  11.700  15.005  1.1469 -1.0054 -1.8132
   89ETHOX   O149890   9.378  11.825  14.855  0.2496 -0.4290  0.7499
   89ETHOX   C149891   9.329  11.871  14.730 -0.4340 -0.4220  0.0944
   89ETHOX  H1149892   9.299  11.785  14.667  0.9094 -0.0777 -1.0577
   89ETHOX  H1349893   9.245  11.942  14.743 -1.2035 -1.0883 -1.1336
   89ETHOX   C249894   9.451  11.934  14.652  0.4940 -0.3993 -0.1626
   89ETHOX  H2149895   9.423  11.938  14.545  1.4699  0.2265 -0.4044
   89ETHOX  H2349896   9.544  11.879  14.677  1.7580  1.3696 -0.7322
   90ETHOX   O149897   9.476  12.074  14.672 -0.0978  0.5611  0.2305
   90ETHOX   C149898   9.515  12.102  14.803 -0.4833  0.0442  0.1421
   90ETHOX  H1149899   9.425  12.097  14.867 -1.1463 -0.6896 -0.8263
   90ETHOX  H1349900   9.594  12.032  14.839 -1.1072 -0.3300  0.8102
   90ETHOX   C249901   9.577  12.243  14.825  0.5369  0.1603  0.1509
   90ETHOX  H2149902   9.560  12.270  14.931  0.1174  2.3576 -0.4299
   90ETHOX  H2349903   9.519  12.307  14.755 -2.0091 -2.1010 -0.0049
   91ETHOX   O149904   9.721  12.247  14.816  0.0237 -0.2169  0.1760
   91ETHOX   C149905   9.768  12.378  14.782 -0.8063  0.7702 -0.9751
   91ETHOX  H1149906   9.879  12.380  14.777 -0.7734  0.0380 -0.6126
   91ETHOX  H1349907   9.746  12.397  14.675 -0.7145 -2.9236 -1.7845
   91ETHOX   C249908   9.732  12.482  14.891 -0.2619 -0.9608 -0.3430
   91ETHOX  H2149909   9.622  12.491  14.901 -0.0795  0.4893  0.6215
   91ETHOX  H2349910   9.767  12.584  14.863 -1.7314 -0.7377 -1.4759
   92ETHOX   O149911   9.789  12.442  15.016  0.3686  0.1290 -0.1962
   92ETHOX   C149912   9.773  12.541  15.114 -0.5437  0.2424 -0.1652
   92ETHOX  H1149913   9.827  12.632  15.078 -0.2942  0.1976  0.0893
   92ETHOX  H1349914   9.665  12.564  15.111  0.2521  4.7610 -1.3078
   92ETHOX   C249915   9.820  12.489  15.258  0.2329 -0.6900  0.4870
   92ETHOX  H2149916   9.769  12.391  15.273  0.2224 -0.8001 -0.2595
   92ETHOX  H2349917   9.795  12.564  15.336  2.4531  1.8993 -1.1101
   93ETHOX   O149918   9.960  12.467  15.255 -0.3956 -0.0996  0.4934
   93ETHOX   C149919   9.998  12.380  15.362  0.8431  0.1063  0.2807
   93ETHOX  H1149920   9.953  12.278  15.355 -1.6583  1.0997  0.7779
   93ETHOX  H1349921   9.962  12.425  15.456  0.1068 -1.7429  0.9246
   93ETHOX   C249922  10.148  12.354  15.364  0.2968  0.2376  0.7652
   93ETHOX  H2149923  10.175  12.325  15.260  1.7670 -0.5179  1.3240
   93ETHOX  H2349924  10.182  12.277  15.437 -0.7699 -1.1799 -0.1700
   94ETHOX   O149925  10.212  12.482  15.385  0.3659  0.0690  0.4859
   94ETHOX   C149926  10.316  12.468  15.479 -0.0318  0.4502 -0.0059
   94ETHOX  H1149927  10.270  12.419  15.568 -2.5963  2.7596  0.0950
   94ETHOX  H1349928  10.389  12.399  15.431  0.8362  2.5262 -1.8575
   94ETHOX   C249929  10.387  12.589  15.529 -0.5734  0.3438  0.5110
   94ETHOX  H2149930  10.452  12.555  15.613  0.7267  0.7047 -0.3232
   94ETHOX  H2349931  10.316  12.664  15.571 -0.6776  0.6621 -0.2216
   95ETHOX   O149932  10.469  12.640  15.427  0.2111  0.4708  0.0387
   95ETHOX   C149933  10.533  12.764  15.459  0.0367 -1.1653  0.1627
   95ETHOX  H1149934  10.617  12.761  15.532  2.1722  1.4230 -1.9418
   95ETHOX  H1349935  10.453  12.833  15.494 -1.6062 -3.9232  2.2869
   95ETHOX   C249936  10.599  12.834  15.330 -0.2419  0.2561 -0.4842
   95ETHOX  H2149937  10.666  12.762  15.279 -1.1757  0.5830 -2.2239
   95ETHOX  H2349938  10.652  12.925  15.365  1.8372  0.0659 -2.8642
   96ETHOX   O149939  10.514  12.883  15.229  0.0246  0.5637  0.7153
   96ETHOX   C149940  10.538  12.835  15.102 -0.0674 -0.0411 -0.5786
   96ETHOX  H1149941  10.514  12.912  15.025 -0.7241  1.1445  0.7660
   96ETHOX  H1349942  10.648  12.826  15.091 -0.0826 -0.6929 -0.2611
   96ETHOX   C249943  10.460  12.706  15.078  0.4249  0.1109 -0.7116
   96ETHOX  H2149944  10.456  12.647  15.172 -2.6452  1.9535  0.4660
   96ETHOX  H2349945  10.504  12.647  14.995  1.1441  0.5220 -0.6299
   97ETHOX   O149946  10.324  12.746  15.054 -1.4110  0.2147  0.1894
   97ETHOX   C149947  10.236  12.646  15.039  0.3293 -0.3655  0.4662
   97ETHOX  H1149948  10.223  12.605  15.142  0.1421 -0.5409  0.3718
   97ETHOX  H1349949  10.272  12.577  14.960 -1.4734  2.2409 -2.8613
   97ETHOX   C249950  10.098  12.703  14.999  0.0579 -0.1487 -0.1520
   97ETHOX  H2149951  10.064  12.777  15.075 -0.8176  1.1595 -1.7416
   97ETHOX  H2349952  10.016  12.629  15.002  0.1827 -0.3251  3.3069
   98ETHOX   O149953  10.110  12.747  14.862  0.4724  0.5901 -0.2299
   98ETHOX   C149954  10.001  12.810  14.809  0.8281 -0.8557  0.0599
   98ETHOX  H1149955   9.915  12.766  14.864 -2.4291  4.3665 -0.1621
   98ETHOX  H1349956   9.999  12.917  14.839  0.4428 -0.8616  0.0564
   98ETHOX   C249957  10.003  12.796  14.664 -0.4430  0.0060 -0.8027
   98ETHOX  H2149958   9.900  12.799  14.622  0.6333 -0.9353 -3.7611
   98ETHOX  H2349959  10.054  12.698  14.646  0.2325  0.4057 -1.0838
   99ETHOX   O149960  10.077  12.891  14.604  0.1410 -0.2123  1.0871
   99ETHOX   C149961  10.039  12.926  14.470 -0.0251  0.2027 -0.3354
   99ETHOX  H1149962   9.948  12.990  14.473 -0.4598 -0.2912  3.7825
   99ETHOX  H1349963  10.023  12.826  14.423  1.0343 -0.7173  1.1726
   99ETHOX   C249964  10.148  13.003  14.407 -0.1105 -0.0139 -0.3831
   99ETHOX  H2149965  10.127  13.022  14.299 -1.1138 -0.7388 -0.3219
   99ETHOX  H2349966  10.234  12.933  14.401 -0.5444 -0.5683 -0.1369
  100ETHOX   O149967  10.181  13.128  14.479  0.1935 -0.2036  0.1572
  100ETHOX   C149968  10.296  13.202  14.426  0.4130  1.0176 -0.3743
  100ETHOX  H1149969  10.377  13.126  14.417  0.5969  0.7305  2.6086
  100ETHOX  H1349970  10.268  13.252  14.331  2.1472  2.4852 -0.1755
  100ETHOX   C249971  10.326  13.315  14.518  0.3688 -0.6117  0.1803
  100ETHOX  H2149972  10.346  13.287  14.624  2.0235  0.9600  0.3452
  100ETHOX  H2349973  10.243  13.388  14.516  0.5326 -0.4404 -1.4141
  101PROXS   O149974  10.445  13.375  14.477 -0.1734  0.1371 -0.2097
  101PROXS   C149975  10.490  13.480  14.564  0.6804  0.8239 -0.5046
  101PROXS  H1149976  10.412  13.560  14.555 -0.4927 -0.3183 -0.7953
  101PROXS  H1349977  10.485  13.434  14.665 -2.3378  0.5325 -0.6807
  101PROXS   C249978  10.622  13.533  14.531 -1.1538  0.3997  0.6178
  101PROXS  H2149979  10.637  13.538  14.421 -1.5411  0.6036  0.5736
  101PROXS   C349980  10.722  13.416  14.566  0.1992  0.4660  0.1940
  101PROXS  H3149981  10.713  13.366  14.665  0.2337  2.4909  1.2808
  101PROXS  H3249982  10.703  13.333  14.495 -0.4174 -0.0112  0.8982
  101PROXS  H3349983  10.828  13.450  14.564  0.6078 -0.5888  1.8894
  102PROXS   O149984  10.653  13.658  14.595  0.1329 -0.0824 -0.1631
  102PROXS   C149985  10.746  13.740  14.532 -0.1740  0.1142 -0.6408
  102PROXS  H1149986  10.835  13.681  14.500 -0.3570 -0.8364  0.5445
  102PROXS  H1349987  10.696  13.784  14.443  0.0383 -2.5038 -2.1743
  102PROXS   C249988  10.802  13.852  14.623 -0.0650 -0.3928 -0.1289
  102PROXS  H2149989  10.831  13.811  14.722 -2.4414 -0.1126  0.7489
  102PROXS   C349990  10.699  13.966  14.641  0.2534  0.4531  0.2741
  102PROXS  H3149991  10.739  14.043  14.710 -1.0299  0.7093  0.7691
  102PROXS  H3249992  10.676  14.008  14.541  0.4793 -0.0493  0.0104
  102PROXS  H3349993  10.603  13.926  14.680  0.5923  0.3809  1.0617
  103PROXR   O149994  10.925  13.906  14.561  0.1793  0.5289 -0.8197
  103PROXR   C149995  11.015  13.977  14.646 -0.6800 -0.3208 -1.0597
  103PROXR  H1149996  11.041  14.076  14.603 -0.1481 -0.7680 -1.7921
  103PROXR  H1349997  10.978  13.977  14.751 -2.1467 -1.1893 -1.5409
  103PROXR   C249998  11.141  13.888  14.654 -0.0939 -0.7057  0.2758
  103PROXR  H2149999  11.178  13.854  14.555  1.6212  1.2337  0.1849
  103PROXR   C350000  11.107  13.759  14.732  0.2971  0.4522 -0.5711
  103PROXR  H3150001  11.184  13.679  14.735 -0.6799 -0.4980  2.6085
  103PROXR  H3250002  11.076  13.791  14.833 -0.9856  0.0696 -0.8170
  103PROXR  H3350003  11.025  13.709  14.676  1.0195 -1.1960 -0.2419
  104PROXS   O150004  11.243  13.953  14.730 -0.3388 -0.2891  0.1326
  104PROXS   C150005  11.358  13.881  14.759 -0.0906 -0.1564 -0.4638
  104PROXS  H1150006  11.330  13.795  14.823 -0.7772 -1.0201 -1.8707
  104PROXS  H1350007  11.412  13.841  14.670  0.0261  0.7070 -0.7915
  104PROXS   C250008  11.451  13.968  14.844  0.1420 -0.2628 -0.2864
  104PROXS  H2150009  11.386  14.018  14.919 -1.0868 -1.0103 -0.8343
  104PROXS   C350010  11.534  14.059  14.740  0.0435 -0.2525  0.0099
  104PROXS  H3150011  11.580  14.005  14.654 -2.8540 -0.6609 -1.4406
  104PROXS  H3250012  11.456  14.126  14.698 -0.0303 -0.3878 -0.0707
  104PROXS  H3350013  11.606  14.123  14.793  0.5644 -0.8577  0.0511
  105PROXS   O150014  11.536  13.887  14.913  0.1437  0.2262 -0.0504
  105PROXS   C150015  11.624  13.950  15.010  0.2604  0.1257 -0.1319
  105PROXS  H1150016  11.687  14.026  14.960 -1.9207  2.1535  0.0007
  105PROXS  H1350017  11.558  14.000  15.084  1.0053  0.1531  0.5262
  105PROXS   C250018  11.699  13.837  15.087  0.4190 -0.2614 -0.1924
  105PROXS  H2150019  11.733  13.761  15.014 -0.1015 -0.4566 -0.2343
  105PROXS   C350020  11.619  13.775  15.196  0.5550  0.0500 -1.0542
  105PROXS  H3150021  11.590  13.852  15.270  1.1783 -0.1008 -0.6518
  105PROXS  H3250022  11.528  13.722  15.160 -1.5646  2.8212 -0.1415
  105PROXS  H3350023  11.677  13.705  15.260  0.2685 -0.4625 -1.3402
  106PROXS   O150024  11.819  13.892  15.136 -0.1767 -0.3840  0.3609
  106PROXS   C150025  11.933  13.880  15.049  0.4590 -0.8476  0.0541
  106PROXS  H1150026  11.969  13.776  15.062  0.5903 -0.6392  1.5199
  106PROXS  H1350027  11.911  13.891  14.941  0.7738  1.3252  0.1635
  106PROXS   C250028  12.044  13.977  15.096 -0.2409  0.2437 -0.2409
  106PROXS  H2150029  12.061  13.956  15.204  0.0453 -1.8813 -0.6471
  106PROXS   C350030  12.017  14.128  15.075  0.0175 -0.5593 -0.1774
  106PROXS  H3150031  11.913  14.152  15.104  0.2848  2.9886 -1.6874
  106PROXS  H3250032  12.086  14.188  15.137  0.4631  1.4254 -2.4570
  106PROXS  H3350033  12.041  14.153  14.969 -1.4519 -1.1601 -0.6830
  107PROXR   O150034  12.158  13.937  15.025  0.3506 -0.2958 -0.7183
  107PROXR   C150035  12.285  13.953  15.088 -0.4873  0.3668  0.4268
  107PROXR  H1150036  12.314  14.059  15.105 -0.1511  0.3145  0.1961
  107PROXR  H1350037  12.294  13.886  15.176 -1.8450 -2.1826 -1.2551
  107PROXR   C250038  12.384  13.886  14.989 -0.4052 -0.4291 -0.7168
  107PROXR  H2150039  12.335  13.794  14.953 -1.1101  0.0928 -1.1142
  107PROXR   C350040  12.515  13.855  15.067  0.1901  0.3339  0.6303
  107PROXR  H3150041  12.499  13.766  15.132  0.6497 -0.3902 -0.2229
  107PROXR  H3250042  12.590  13.836  14.987 -0.9170  2.7340 -1.0996
  107PROXR  H3350043  12.546  13.946  15.123  1.3585 -0.1097  0.7407
  108PROXS   O150044  12.431  13.963  14.875  0.2243 -0.6731  0.2598
  108PROXS   C150045  12.460  13.883  14.760 -0.4268 -0.0578  0.1685
  108PROXS  H1150046  12.546  13.912  14.697  1.3355 -1.7385  1.6647
  108PROXS  H1350047  12.483  13.778  14.789  1.8806  1.1062  3.0284
  108PROXS   C250048  12.337  13.887  14.664 -0.2233 -0.5803 -0.2863
  108PROXS  H2150049  12.255  13.847  14.728  0.2250 -0.7887  0.1717
  108PROXS   C350050  12.352  13.797  14.541 -0.8191 -0.5370 -0.4465
  108PROXS  H3150051  12.408  13.704  14.563  0.5087  0.4275  0.3527
  108PROXS  H3250052  12.249  13.763  14.513 -2.2107  3.4844 -0.8633
  108PROXS  H3350053  12.400  13.844  14.453  0.5698 -0.2758  0.4295
  109PROXS   O150054  12.316  14.021  14.627 -0.7709 -0.2954  0.3368
  109PROXS   C150055  12.184  14.064  14.646  0.1022 -0.6643 -0.7911
  109PROXS  H1150056  12.116  14.017  14.573 -1.2013 -0.4473  0.2453
  109PROXS  H1350057  12.148  14.042  14.749 -1.7623  0.3133 -1.1883
  109PROXS   C250058  12.174  14.219  14.617 -0.8511  0.1166 -0.1058
  109PROXS  H2150059  12.245  14.248  14.537  1.2885 -0.2376  1.5519
  109PROXS   C350060  12.231  14.290  14.739 -0.1041 -0.1573 -0.8035
  109PROXS  H3150061  12.272  14.389  14.707  1.1398  0.2969  1.8844
  109PROXS  H3250062  12.164  14.301  14.827 -1.7851 -0.4928 -1.9929
  109PROXS  H3350063  12.318  14.229  14.770 -0.3239  0.1951  0.5927
  110PROXR   O150064  12.041  14.252  14.594 -0.2114 -0.0056 -0.3460
  110PROXR   C150065  12.022  14.284  14.456 -0.9156 -0.5189  0.0403
  110PROXR  H1150066  12.060  14.386  14.434 -2.8923  0.3903  0.5660
  110PROXR  H1350067  12.069  14.207  14.392  0.4897  0.3593 -0.0335
  110PROXR   C250068  11.876  14.294  14.419 -0.4011 -0.2672 -0.0311
  110PROXR  H2150069  11.824  14.373  14.477  1.4237  0.7284  0.3159
  110PROXR   C350070  11.801  14.164  14.450  0.2079  0.3356  0.1102
  110PROXR  H3150071  11.811  14.152  14.560  0.8119  0.2943  0.0545
  110PROXR  H3250072  11.696  14.183  14.416 -0.0915 -1.1645  0.1288
  110PROXR  H3350073  11.845  14.076  14.398 -0.6942  0.1803 -0.4162
  111PROXS   O150074  11.868  14.327  14.280  0.2971 -0.0325  0.1867
  111PROXS   C150075  11.769  14.428  14.246 -1.1861 -0.4903 -0.1880
  111PROXS  H1150076  11.671  14.425  14.299 -0.7533  0.5411  0.7213
  111PROXS  H1350077  11.804  14.531  14.269 -0.0537 -0.3480 -2.3366
  111PROXS   C250078  11.747  14.426  14.094  0.0234  0.5071 -0.6105
  111PROXS  H2150079  11.721  14.321  14.070 -0.5325  0.6693 -0.7416
  111PROXS   C350080  11.867  14.459  14.011 -0.0720 -0.1692  0.4151
  111PROXS  H3150081  11.955  14.403  14.048 -1.1556 -2.7882 -0.6813
  111PROXS  H3250082  11.833  14.437  13.907  1.3841  1.0516 -0.3450
  111PROXS  H3350083  11.879  14.569  14.013  2.0798 -0.1501 -3.6344
  112PROXR   O150084  11.639  14.517  14.064 -0.0811 -0.2882 -0.2094
  112PROXR   C150085  11.544  14.446  13.981  0.0796 -0.5283  0.2343
  112PROXR  H1150086  11.597  14.402  13.894 -0.1450  2.2104 -1.4037
  112PROXR  H1350087  11.491  14.371  14.044 -1.0594 -0.7423 -0.9425
  112PROXR   C250088  11.433  14.535  13.924 -0.0625  0.2551  0.6694
  112PROXR  H2150089  11.471  14.628  13.877 -0.3274  0.4009  0.7418
  112PROXR   C350090  11.342  14.575  14.039  0.2634 -0.0315  0.6917
  112PROXR  H3150091  11.392  14.588  14.138  2.6931 -2.2921 -0.1262
  112PROXR  H3250092  11.275  14.661  14.017  0.5056 -0.4147 -1.8285
  112PROXR  H3350093  11.271  14.491  14.054 -2.0056  1.6748  0.1447
  113PROXS   O150094  11.362  14.456  13.830  0.1222  0.1941  0.0345
  113PROXS   C150095  11.286  14.533  13.746 -0.2197 -0.2864  0.1118
  113PROXS  H1150096  11.217  14.601  13.801  0.9139  0.0579  1.1535
  113PROXS  H1350097  11.360  14.601  13.699 -0.7376 -1.1985 -2.1901
  113PROXS   C250098  11.208  14.456  13.637  0.0471  0.1489 -0.1738
  113PROXS  H2150099  11.283  14.389  13.588 -1.6943 -2.0714  0.0465
  113PROXS   C350100  11.138  14.543  13.534  0.1469  0.0764  0.6128
  113PROXS  H3150101  11.071  14.487  13.465 -0.1108  0.2393  0.7291
  113PROXS  H3250102  11.066  14.612  13.584 -1.3715 -1.3576  0.4762
  113PROXS  H3350103  11.211  14.604  13.477 -0.0801  1.0587  1.3244
  114PROXR   O150104  11.107  14.370  13.688  0.2595 -0.3427  0.2778
  114PROXR   C150105  11.151  14.248  13.747  0.3326 -0.6584  0.9205
  114PROXR  H1150106  11.229  14.206  13.681  0.9733 -0.4458  1.5367
  114PROXR  H1350107  11.213  14.266  13.837  0.9118  0.7716  0.2594
  114PROXR   C250108  11.031  14.151  13.771  0.2020  0.2425  0.1413
  114PROXR  H2150109  10.971  14.169  13.680  0.4485  0.7587  0.0774
  114PROXR   C350110  10.961  14.182  13.899 -0.1222 -0.5066 -0.0985
  114PROXR  H3150111  10.879  14.108  13.897  0.2034 -0.8646 -1.1529
  114PROXR  H3250112  11.024  14.185  13.990  0.3963  2.6990 -0.4333
  114PROXR  H3350113  10.923  14.286  13.884  0.2398 -0.5715 -1.6409
  115PROXR   O150114  11.080  14.013  13.764 -0.1150  0.7102 -0.2315
  115PROXR   C150115  10.979  13.923  13.723  0.4511 -0.4454  0.1171
  115PROXR  H1150116  10.918  13.905  13.814  2.1031  0.2401  1.4240
  115PROXR  H1350117  10.912  13.965  13.645 -1.6368  0.1583  2.1387
  115PROXR   C250118  11.033  13.784  13.688  0.2565  0.1404 -0.7652
  115PROXR  H2150119  11.110  13.739  13.753  0.5054 -1.5217 -2.1150
  115PROXR   C350120  11.108  13.787  13.551 -0.3765 -0.6682 -0.0974
  115PROXR  H3150121  11.176  13.700  13.541 -0.5934 -0.9822  1.0562
  115PROXR  H3250122  11.029  13.789  13.473 -0.6450 -1.3001  0.1492
  115PROXR  H3350123  11.163  13.883  13.547 -1.2730 -0.1922 -1.6522
  116PROXS   O150124  10.928  13.697  13.673 -0.4855 -0.3527 -0.2624
  116PROXS   C150125  10.936  13.588  13.765  0.3096 -0.1541  0.4221
  116PROXS  H1150126  10.930  13.634  13.866 -1.4549  0.9755 -0.1527
  116PROXS  H1350127  10.845  13.524  13.765  0.8383 -0.9548  2.2615
  116PROXS   C250128  11.056  13.486  13.738 -0.4629  0.1532 -0.1399
  116PROXS  H2150129  11.074  13.500  13.630 -2.8054 -0.0741 -0.6015
  116PROXS   C350130  11.017  13.340  13.770  0.0691  1.1022  0.2877
  116PROXS  H3150131  11.082  13.262  13.725 -1.5970 -0.6242  0.7747
  116PROXS  H3250132  11.010  13.329  13.880 -2.3304  1.6432  0.2566
  116PROXS  H3350133  10.914  13.320  13.733 -0.5484 -3.5770  3.6431
  117PROXS   O150134  11.168  13.519  13.810  0.5234 -0.1203  0.0346
  117PROXS   C150135  11.281  13.443  13.781  0.3522 -0.1502 -0.7568
  117PROXS  H1150136  11.272  13.341  13.824  1.5502 -0.4019 -1.0633
  117PROXS  H1350137  11.286  13.447  13.670  0.2401  1.8646 -0.7280
  117PROXS   C250138  11.409  13.526  13.817 -0.7466  0.2731  0.1866
  117PROXS  H2150139  11.392  13.547  13.925 -1.8058 -0.9119  0.2646
  117PROXS   C350140  11.417  13.662  13.740  0.6216  0.2446  0.0607
  117PROXS  H3150141  11.431  13.634  13.633 -0.0158  2.4016 -0.6314
  117PROXS  H3250142  11.317  13.710  13.744 -0.3774 -1.7408  0.1097
  117PROXS  H3350143  11.502  13.729  13.767  0.1157  2.2664 -2.8876
  118PROXR   O150144  11.526  13.452  13.785 -0.3345 -0.2688  0.4570
  118PROXR   C150145  11.642  13.497  13.866  0.2698  0.3275  0.4136
  118PROXR  H1150146  11.667  13.603  13.848  0.3908 -0.0836 -2.2536
  118PROXR  H1350147  11.613  13.487  13.973 -1.0720  0.8992  0.1221
  118PROXR   C250148  11.768  13.407  13.830  0.4712  0.0552 -0.0087
  118PROXR  H2150149  11.734  13.304  13.803  1.8413 -1.1681  2.4748
  118PROXR   C350150  11.867  13.398  13.949  0.4668 -0.1026 -0.7913
  118PROXR  H3150151  11.951  13.327  13.931  0.9249  0.1452  0.2679
  118PROXR  H3250152  11.903  13.499  13.977  0.0921 -0.4410  1.0780
  118PROXR  H3350153  11.813  13.368  14.042  0.3809  0.0917 -0.7778
  119PROXR   O150154  11.846  13.464  13.728  0.5871 -0.9026 -0.3014
  119PROXR   C150155  11.792  13.444  13.598 -0.0433 -0.2464  0.5504
  119PROXR  H1150156  11.833  13.346  13.565  0.2681 -0.3746  1.2921
  119PROXR  H1350157  11.681  13.440  13.602 -0.0335 -1.3000 -0.0022
  119PROXR   C250158  11.836  13.564  13.496 -0.1037  0.1160 -0.0812
  119PROXR  H2150159  11.945  13.584  13.503 -0.4444  1.7618  1.5153
  119PROXR   C350160  11.767  13.703  13.509  0.2289 -0.6550 -0.3216
  119PROXR  H3150161  11.810  13.781  13.442 -0.3231 -0.8312 -0.8858
  119PROXR  H3250162  11.660  13.690  13.482 -0.2558  1.5630  0.3217
  119PROXR  H3350163  11.776  13.748  13.610 -0.3244 -1.1367 -0.0531
  120PROXS   O150164  11.800  13.523  13.363 -0.1628  0.3056  0.6330
  120PROXS   C150165  11.870  13.414  13.320  0.5633 -0.3483  0.4802
  120PROXS  H1150166  11.977  13.422  13.347  0.8629 -2.1722 -0.0127
  120PROXS  H1350167  11.825  13.318  13.354  1.5531 -1.4325 -1.1350
  120PROXS   C250168  11.860  13.409  13.163 -0.5684  0.6140  0.3182
  120PROXS  H2150169  11.889  13.510  13.126 -1.0355  1.0405  1.0808
  120PROXS   C350170  11.710  13.398  13.109  0.1908  0.5278 -0.0054
  120PROXS  H3150171  11.702  13.382  12.999 -2.4456 -2.1279  0.4439
  120PROXS  H3250172  11.665  13.304  13.147 -2.6242  0.7601 -2.3822
  120PROXS  H3350173  11.652  13.489  13.138 -0.1282  0.6678 -1.0523
  121PROXS   O150174  11.949  13.308  13.119  0.1699 -0.2668 -0.6192
  121PROXS   C150175  12.028  13.346  13.004  0.8626  0.0648 -1.0335
  121PROXS  H1150176  11.965  13.403  12.931  0.3800  0.8448 -0.0289
  121PROXS  H1350177  12.104  13.420  13.038 -1.0012  1.7207 -0.2599
  121PROXS   C250178  12.097  13.218  12.933 -0.2426 -0.2234 -0.1832
  121PROXS  H2150179  12.116  13.136  13.005  1.5355  1.4418  1.3497
  121PROXS   C350180  12.232  13.251  12.861  0.2676  0.4878  0.0325
  121PROXS  H3150181  12.273  13.155  12.823 -0.5779 -0.5675  1.6595
  121PROXS  H3250182  12.222  13.310  12.767  0.0790 -0.0321 -0.2785
  121PROXS  H3350183  12.303  13.302  12.929  0.0708  1.0884 -0.2039
  122PROXS   O150184  12.018  13.163  12.825 -0.2631 -0.1110  0.1461
  122PROXS   C150185  11.893  13.111  12.861  0.0981  0.0744  0.0765
  122PROXS  H1150186  11.900  13.040  12.946 -1.1247 -1.7316 -1.2602
  122PROXS  H1350187  11.835  13.198  12.897  0.7706 -0.0902  1.6768
  122PROXS   C250188  11.836  13.042  12.735 -0.5382  0.3919  0.1215
  122PROXS  H2150189  11.911  12.970  12.695 -0.5391  0.5919 -0.2412
  122PROXS   C350190  11.823  13.158  12.633 -0.0407  0.2534 -0.0496
  122PROXS  H3150191  11.783  13.136  12.532  0.4246  1.5984 -0.5504
  122PROXS  H3250192  11.770  13.242  12.682 -1.2076  0.6419 -1.8843
  122PROXS  H3350193  11.927  13.195  12.620  0.4576 -0.5039  1.5634
  123PROXS   O150194  11.710  12.967  12.759  1.0103 -0.0055 -0.0069
  123PROXS   C150195  11.690  12.878  12.654 -0.5713 -0.5487 -0.5648
  123PROXS  H1150196  11.702  12.932  12.557 -0.4801 -1.7808 -1.2531
  123PROXS  H1350197  11.770  12.801  12.661  0.4387  0.5967  1.2782
  123PROXS   C250198  11.546  12.811  12.650 -0.0033 -0.2412  1.3993
  123PROXS  H2150199  11.514  12.792  12.755 -2.3447  2.2191  1.2459
  123PROXS   C350200  11.554  12.683  12.562 -0.8993 -0.2522  0.8618
  123PROXS  H3150201  11.603  12.713  12.467 -0.8422 -1.0130  0.6505
  123PROXS  H3250202  11.628  12.621  12.616  0.8765  1.6505  0.7570
  123PROXS  H3350203  11.454  12.640  12.541 -0.7647  0.3295 -1.1816
  124PROXR   O150204  11.458  12.897  12.582  0.2608 -0.1594  0.1688
  124PROXR   C150205  11.424  13.013  12.655  0.5050  0.0320 -0.0326
  124PROXR  H1150206  11.516  13.074  12.667 -0.4841  1.4047  0.8863
  124PROXR  H1350207  11.360  13.076  12.590  0.2403  1.3197  1.4166
  124PROXR   C250208  11.356  12.991  12.786 -0.6855  0.0548  0.0509
  124PROXR  H2150209  11.432  12.967  12.863  0.2722  2.9647  0.1335
  124PROXR   C350210  11.251  12.888  12.765  0.2097  0.1286 -0.5368
  124PROXR  H3150211  11.160  12.927  12.715 -1.8448 -0.4261  2.4907
  124PROXR  H3250212  11.294  12.804  12.706  0.6451 -0.8466  1.1051
  124PROXR  H3350213  11.225  12.840  12.862  0.7513 -0.1665 -0.5313
  125PROXS   O150214  11.299  13.117  12.827 -0.5749  0.1973  0.3301
  125PROXS   C150215  11.323  13.156  12.963 -0.1028  0.3743  0.6679
  125PROXS  H1150216  11.264  13.099  13.038 -1.7158  0.4801 -0.4738
  125PROXS  H1350217  11.433  13.150  12.982  0.3844 -0.2692 -1.9877
  125PROXS   C250218  11.289  13.303  12.982  0.4288  0.1136  0.9647
  125PROXS  H2150219  11.188  13.323  12.941  1.2334  0.7291 -0.8489
  125PROXS   C350220  11.391  13.385  12.897 -0.2758  0.0298 -0.0368
  125PROXS  H3150221  11.376  13.494  12.912  0.7023 -0.1536  3.1898
  125PROXS  H3250222  11.498  13.362  12.918 -0.2216  0.3849  0.0880
  125PROXS  H3350223  11.371  13.360  12.791  0.1568 -0.4042 -0.0160
  126PROXS   O150224  11.294  13.340  13.121  0.5197 -0.2968  0.2328
  126PROXS   C150225  11.244  13.473  13.145  0.1343  0.0209  0.1762
  126PROXS  H1150226  11.215  13.533  13.055 -0.7793  0.2670  0.6200
  126PROXS  H1350227  11.157  13.459  13.213  0.1185 -3.2795 -0.3829
  126PROXS   C250228  11.361  13.557  13.221  0.3766  0.7436 -0.4243
  126PROXS  H2150229  11.455  13.553  13.163 -0.9311 -1.8090 -2.6204
  126PROXS   C350230  11.380  13.489  13.364  0.2846 -0.5480  0.1217
  126PROXS  H3150231  11.460  13.538  13.424  1.1454 -1.3041 -0.3946
  126PROXS  H3250232  11.284  13.473  13.419  0.6828 -1.9538  0.4454
  126PROXS  H3350233  11.403  13.381  13.350 -2.0355 -1.3899  1.9977
  127PROXR   O150234  11.309  13.689  13.238 -0.4445 -0.3156 -0.0641
  127PROXR   C150235  11.418  13.775  13.267  0.7272 -0.8198  0.1355
  127PROXR  H1150236  11.464  13.754  13.365 -0.0310 -1.8331  0.2958
  127PROXR  H1350237  11.495  13.770  13.187 -0.2078  0.6944 -0.9382
  127PROXR   C250238  11.363  13.924  13.269  0.5542  0.3640 -0.4349
  127PROXR  H2150239  11.276  13.925  13.337 -1.6196  1.1385 -3.0671
  127PROXR   C350240  11.314  13.974  13.134 -0.5771 -0.4645  0.7093
  127PROXR  H3150241  11.243  13.904  13.085 -1.1308 -0.2887  1.2522
  127PROXR  H3250242  11.257  14.069  13.143  0.9114  0.6317 -0.7601
  127PROXR  H3350243  11.409  13.973  13.077 -1.2940 -0.8104 -0.5055
  128PROXR   O150244  11.474  14.000  13.325 -0.0842  1.3372  0.8662
  128PROXR   C150245  11.439  14.134  13.366  0.0570  0.9887  0.1713
  128PROXR  H1150246  11.437  14.210  13.285  1.8848 -1.8333 -2.7550
  128PROXR  H1350247  11.341  14.139  13.418 -0.0776  2.0060 -0.1656
  128PROXR   C250248  11.547  14.178  13.467  0.1714  0.7088 -0.2617
  128PROXR  H2150249  11.642  14.157  13.413  0.6387  1.2326  0.3333
  128PROXR   C350250  11.526  14.097  13.600 -0.2110 -0.3674  0.1247
  128PROXR  H3150251  11.592  14.137  13.680  1.1292 -3.6418  0.8412
  128PROXR  H3250252  11.426  14.116  13.645 -0.4676 -0.2700 -0.4803
  128PROXR  H3350253  11.547  13.990  13.579  0.0773 -0.6247  1.6038
  129PROXS   O150254  11.531  14.318  13.489  0.2148 -0.2718 -0.2897
  129PROXS   C150255  11.651  14.395  13.453  0.4867  0.5828 -0.1276
  129PROXS  H1150256  11.731  14.344  13.510  0.5812  0.1665 -0.6275
  129PROXS  H1350257  11.657  14.391  13.342 -0.0618 -1.0505 -0.1241
  129PROXS   C250258  11.654  14.540  13.503  1.4989 -0.0463  0.0530
  129PROXS  H2150259  11.734  14.603  13.458  0.6361  0.2378 -1.1471
  129PROXS   C350260  11.661  14.537  13.657  0.1231 -0.0385  0.2231
  129PROXS  H3150261  11.585  14.468  13.700  1.7000 -1.0415  1.4643
  129PROXS  H3250262  11.763  14.519  13.695  0.4821  0.9937 -0.2157
  129PROXS  H3350263  11.635  14.642  13.683  0.8043 -0.3501  2.3226
  130PROXS   O150264  11.530  14.598  13.465 -0.0485  0.1318  0.1817
  130PROXS   C150265  11.525  14.629  13.328  0.4952  0.2906 -0.2157
  130PROXS  H1150266  11.603  14.582  13.264 -0.2847 -3.0394  1.0421
  130PROXS  H1350267  11.427  14.589  13.291 -0.3658  2.1242 -0.0034
  130PROXS   C250268  11.537  14.783  13.312  0.0104  0.2040 -0.2121
  130PROXS  H2150269  11.601  14.816  13.396 -1.6282  2.5851  0.2191
  130PROXS   C350270  11.403  14.848  13.330 -0.2596 -0.7095 -0.3746
  130PROXS  H3150271  11.349  14.791  13.408 -0.8188  2.6504  1.9498
  130PROXS  H3250272  11.409  14.958  13.343  0.5538 -1.0193  2.3682
  130PROXS  H3350273  11.349  14.837  13.233  0.0406 -1.2991 -0.4767
  131PROXS   O150274  11.600  14.812  13.190  0.2214 -0.2111  0.6424
  131PROXS   C150275  11.617  14.953  13.179  0.4962  0.1739  0.2168
  131PROXS  H1150276  11.527  14.996  13.131 -0.1011 -0.7692  0.4539
  131PROXS  H1350277  11.626  15.006  13.277  1.0465  2.7654 -1.1461
  131PROXS   C250278  11.743  14.990  13.090  0.0806  1.1834  0.2159
  131PROXS  H2150279  11.829  14.927  13.122 -1.2748 -1.1929 -0.5401
  131PROXS   C350280  11.767  15.136  13.074  0.4435 -0.3950 -0.1394
  131PROXS  H3150281  11.678  15.189  13.034  0.7091  1.4362  1.5182
  131PROXS  H3250282  11.780  15.188  13.172  0.3520  0.8900 -0.7901
  131PROXS  H3350283  11.853  15.161  13.009  0.5838 -0.6702 -0.0571
  132PROXS   O150284  11.708  14.954  12.957 -0.6850 -0.0619  0.4225
  132PROXS   C150285  11.753  14.830  12.917  0.7105  0.3010  0.4350
  132PROXS  H1150286  11.852  14.833  12.866  1.1488 -0.9603  1.1599
  132PROXS  H1350287  11.760  14.764  13.006  1.9690 -1.2383 -0.7365
  132PROXS   C250288  11.653  14.779  12.813 -0.5628  0.5924 -0.1184
  132PROXS  H2150289  11.662  14.851  12.729  2.3479  2.8086  1.8759
  132PROXS   C350290  11.507  14.779  12.863 -0.2189  0.1870 -0.3423
  132PROXS  H3150291  11.472  14.882  12.889  3.3746  0.8306  2.9009
  132PROXS  H3250292  11.438  14.742  12.784  1.6060 -0.8018 -1.5306
  132PROXS  H3350293  11.490  14.723  12.958 -3.9586  0.3347 -0.7727
  133PROXS   O150294  11.704  14.648  12.770  0.0565  0.2104  0.1811
  133PROXS   C150295  11.616  14.591  12.676 -0.0412 -0.1035  1.8898
  133PROXS  H1150296  11.519  14.559  12.719 -0.9106  0.9466  0.7754
  133PROXS  H1350297  11.592  14.672  12.604  0.1800 -0.7173  1.1233
  133PROXS   C250298  11.674  14.469  12.597 -0.8926  0.4138 -0.6560
  133PROXS  H2150299  11.660  14.384  12.667 -2.1081  0.4893 -0.7772
  133PROXS   C350300  11.822  14.475  12.564 -0.7662 -0.6626  0.3746
  133PROXS  H3150301  11.840  14.555  12.489  0.4475 -1.0250  0.2567
  133PROXS  H3250302  11.881  14.496  12.656 -0.2901 -0.1128 -0.0547
  133PROXS  H3350303  11.854  14.379  12.517  0.2586 -0.4372  0.5901
  134PROXS   O150304  11.593  14.451  12.481  0.4751  0.0215 -0.1781
  134PROXS   C150305  11.530  14.328  12.478  0.0503  0.1216  0.4354
  134PROXS  H1150306  11.602  14.244  12.475 -1.9062 -1.6360  0.4822
  134PROXS  H1350307  11.464  14.317  12.566 -1.5915  0.3222 -0.7333
  134PROXS   C250308  11.445  14.303  12.348 -0.5357 -0.3462 -0.3032
  134PROXS  H2150309  11.506  14.323  12.257 -1.1441 -3.2920 -1.4677
  134PROXS   C350310  11.326  14.398  12.346  0.3636  0.2563 -1.1098
  134PROXS  H3150311  11.281  14.408  12.245  0.9131  1.3141 -1.2607
  134PROXS  H3250312  11.237  14.363  12.403  0.5645 -0.5216 -1.2643
  134PROXS  H3350313  11.357  14.503  12.362  0.7649  0.3085 -2.1369
  135PROXS   O150314  11.407  14.164  12.347  0.0332 -0.1694  0.6978
  135PROXS   C150315  11.340  14.123  12.227 -0.5245 -0.0044  0.0891
  135PROXS  H1150316  11.264  14.198  12.197  1.4098  1.4125 -1.4660
  135PROXS  H1350317  11.415  14.127  12.146 -0.1082 -0.2069  0.4653
  135PROXS   C250318  11.283  13.983  12.256  0.1941  0.1482  0.3271
  135PROXS  H2150319  11.225  13.993  12.351 -0.0288 -0.1997  0.2293
  135PROXS   C350320  11.401  13.879  12.277  0.3457  0.7941 -0.3183
  135PROXS  H3150321  11.462  13.863  12.185  0.6647 -4.4276  0.4788
  135PROXS  H3250322  11.476  13.903  12.356  3.7522 -2.0235 -2.3609
  135PROXS  H3350323  11.372  13.776  12.306  1.2018  0.5144 -0.4105
  136PROXS   O150324  11.207  13.953  12.142  0.3919  0.1794  0.3726
  136PROXS   C150325  11.121  13.835  12.148 -0.1690  0.7572 -0.0017
  136PROXS  H1150326  11.084  13.818  12.044 -1.0057  0.0947  0.3970
  136PROXS  H1350327  11.173  13.742  12.177 -3.4291 -1.7084 -1.3747
  136PROXS   C250328  11.005  13.848  12.240  0.2848  1.0077 -0.6521
  136PROXS  H2150329  10.934  13.769  12.207  0.5551  0.5276 -0.0876
  136PROXS   C350330  10.926  13.981  12.240 -0.1047  0.1455  0.7747
  136PROXS  H3150331  10.909  13.998  12.131 -1.5320 -0.5429  0.8699
  136PROXS  H3250332  10.828  13.969  12.291  0.1255 -3.6408  0.5938
  136PROXS  H3350333  10.999  14.056  12.276 -0.8447  0.7366  1.0796
  137PROXS   O150334  11.041  13.809  12.371 -0.1289  0.3039 -0.6018
  137PROXS   C150335  10.941  13.758  12.457 -0.2718 -0.4615  0.3161
  137PROXS  H1150336  10.907  13.842  12.520  0.0286 -1.0905  1.3393
  137PROXS  H1350337  10.852  13.722  12.402 -0.7627  0.7074  0.3194
  137PROXS   C250338  11.004  13.653  12.555 -0.4385 -0.5188  0.8683
  137PROXS  H2150339  11.087  13.713  12.599 -2.3880  3.7006 -0.6033
  137PROXS   C350340  11.056  13.537  12.468 -0.1513  0.4708 -0.0400
  137PROXS  H3150341  11.096  13.457  12.534  0.5114  0.1612 -0.7903
  137PROXS  H3250342  10.972  13.490  12.412  1.5775 -2.2580 -0.5565
  137PROXS  H3350343  11.137  13.573  12.401  0.3623  1.7575  1.2203
  138PROXR   O150344  10.912  13.616  12.657  0.2133  0.1629 -0.1300
  138PROXR   C150345  10.960  13.529  12.756  0.0663  0.5092 -0.4050
  138PROXR  H1150346  10.935  13.429  12.715 -1.3273  0.0448  1.4623
  138PROXR  H1350347  11.070  13.523  12.774  0.5658  0.4639 -3.0941
  138PROXR   C250348  10.887  13.539  12.893 -0.5655  0.0452  0.1399
  138PROXR  H2150349  10.778  13.537  12.871 -0.5012 -0.2669 -0.1432
  138PROXR   C350350  10.907  13.676  12.956 -0.4552 -0.5334  0.0540
  138PROXR  H3150351  10.849  13.683  13.050  0.6024  1.7598  0.5998
  138PROXR  H3250352  11.013  13.706  12.974 -0.5301  1.5667 -2.4482
  138PROXR  H3350353  10.856  13.755  12.898 -0.9171  0.3321  1.5949
  139PROXS   O150354  10.938  13.445  12.986  0.1539 -0.6358  0.1959
  139PROXS   C150355  10.833  13.413  13.085  0.1296 -0.3164  0.0811
  139PROXS  H1150356  10.754  13.491  13.091 -0.3435 -0.8944  2.9402
  139PROXS  H1350357  10.796  13.314  13.050 -1.7021  0.2913  0.1918
  139PROXS   C250358  10.895  13.388  13.222  0.3702 -0.0685  0.4561
  139PROXS  H2150359  10.953  13.482  13.235  2.1876 -0.3280 -4.0685
  139PROXS   C350360  10.975  13.255  13.227 -0.2997  0.8664 -0.1031
  139PROXS  H3150361  10.905  13.170  13.239  1.2784 -0.2951  1.4724
  139PROXS  H3250362  11.043  13.234  13.142 -1.3201 -0.5346 -0.5987
  139PROXS  H3350363  11.036  13.246  13.320  0.5585  0.3916 -0.7018
  140PROXR   O150364  10.798  13.375  13.326  0.0794 -0.7941  0.5726
  140PROXR   C150365  10.712  13.493  13.331  0.9471  0.1567 -0.1189
  140PROXR  H1150366  10.764  13.578  13.281 -0.9709  0.5670 -1.5109
  140PROXR  H1350367  10.625  13.476  13.265  0.1940 -2.5734  1.4274
  140PROXR   C250368  10.668  13.541  13.473 -0.4956 -1.0143  0.3173
  140PROXR  H2150369  10.752  13.579  13.535 -1.3579  2.5775 -0.4810
  140PROXR   C350370  10.590  13.432  13.547 -0.0290 -0.0999 -0.0202
  140PROXR  H3150371  10.659  13.348  13.571 -0.8403 -0.8595 -0.2823
  140PROXR  H3250372  10.546  13.473  13.641 -0.2554  0.1343 -0.2276
  140PROXR  H3350373  10.516  13.393  13.474  1.6516 -1.1879 -1.2118
  141PROXS   O150374  10.587  13.659  13.452  0.4906 -0.0066  0.0248
  141PROXS   C150375  10.668  13.776  13.448  0.8694  0.5291 -0.1658
  141PROXS  H1150376  10.707  13.798  13.549 -0.4638  2.4220 -0.0008
  141PROXS  H1350377  10.754  13.773  13.377 -0.4611 -0.1774 -1.8190
  141PROXS   C250378  10.578  13.897  13.414 -0.2500  0.2734  0.4634
  141PROXS  H2150379  10.481  13.884  13.467  0.3974 -2.0319  1.2208
  141PROXS   C350380  10.559  13.912  13.255 -0.3400  0.4700 -0.4378
  141PROXS  H3150381  10.474  13.981  13.234 -0.8475 -0.1196 -0.3675
  141PROXS  H3250382  10.655  13.940  13.208  1.3088 -1.0082  1.8172
  141PROXS  H3350383  10.533  13.813  13.211 -1.3120  0.4798  0.0887
  142PROXS   O150384  10.649  14.008  13.476  0.2614  0.2885  1.0193
  142PROXS   C150385  10.613  14.136  13.416 -0.1436  1.2509 -0.1452
  142PROXS  H1150386  10.647  14.138  13.311 -0.5395 -0.9516 -0.3730
  142PROXS  H1350387  10.502  14.149  13.418 -0.2194  0.6101  0.5253
  142PROXS   C250388  10.677  14.251  13.481  0.2998 -0.2263 -0.4905
  142PROXS  H2150389  10.783  14.220  13.473 -0.4238 -3.5177  1.1136
  142PROXS   C350390  10.650  14.272  13.633  0.2315  0.1555 -0.2735
  142PROXS  H3150391  10.691  14.183  13.685 -0.8815  0.2994  0.9120
  142PROXS  H3250392  10.704  14.359  13.677 -2.7746  0.6887  2.7493
  142PROXS  H3350393  10.541  14.294  13.643 -0.0093 -1.3145  0.6866
  143PROXS   O150394  10.658  14.367  13.402 -0.3695  0.4833  0.7200
  143PROXS   C150395  10.759  14.463  13.439  0.1620 -0.2608  0.6276
  143PROXS  H1150396  10.844  14.415  13.492  1.3052 -0.4934 -1.2847
  143PROXS  H1350397  10.807  14.502  13.346 -2.2329  1.4486  0.0197
  143PROXS   C250398  10.692  14.588  13.511 -0.5113  0.4606  0.7624
  143PROXS  H2150399  10.616  14.558  13.585 -1.4322 -2.2868 -1.1389
  143PROXS   C350400  10.632  14.686  13.408 -0.3668  0.0991  0.0291
  143PROXS  H3150401  10.575  14.762  13.465 -0.1921  2.0876 -2.2460
  143PROXS  H3250402  10.707  14.727  13.336 -0.1854  0.7324  0.5676
  143PROXS  H3350403  10.554  14.637  13.346  0.3167  2.5875 -3.0993
  144PROXS   O150404  10.790  14.659  13.579 -0.3468 -0.0806  0.0596
  144PROXS   C150405  10.743  14.751  13.679  0.3537  1.3721  0.6734
  144PROXS  H1150406  10.734  14.844  13.620  0.2029  0.5620 -0.6197
  144PROXS  H1350407  10.646  14.718  13.720  0.8896 -1.1937  0.0895
  144PROXS   C250408  10.852  14.772  13.798  0.2453 -0.5713 -0.0489
  144PROXS  H2150409  10.949  14.796  13.750  0.9975  0.1715  1.7593
  144PROXS   C350410  10.878  14.636  13.869  0.3241 -0.1161  0.0940
  144PROXS  H3150411  10.872  14.548  13.802 -1.3610 -0.4600  0.6556
  144PROXS  H3250412  10.971  14.635  13.928 -0.6188  0.6329  1.6645
  144PROXS  H3350413  10.800  14.634  13.948 -0.9331  0.7343 -1.0679
  145PROXR   O150414  10.799  14.863  13.887  0.1551 -0.0251 -0.4208
  145PROXR   C150415  10.810  14.999  13.841 -0.1319 -0.4031 -0.3071
  145PROXR  H1150416  10.918  15.027  13.845 -0.1537  0.6585 -3.5571
  145PROXR  H1350417  10.774  15.030  13.740 -1.2649  0.6338  0.3943
  145PROXR   C250418  10.726  15.094  13.938 -0.3968 -0.1164  0.3030
  145PROXR  H2150419  10.771  15.078  14.038  2.1795  1.8280 -0.4382
  145PROXR   C350420  10.574  15.062  13.932  0.1308  0.0913 -0.0542
  145PROXR  H3150421  10.519  15.138  13.992  0.8174 -0.1124  0.8541
  145PROXR  H3250422  10.536  15.045  13.829  1.3766 -0.6409 -0.4159
  145PROXR  H3350423  10.567  14.965  13.986  0.4522 -0.3357 -0.7579
  146PROXS   O150424  10.749  15.235  13.904 -0.0726  0.3258  0.1693
  146PROXS   C150425  10.886  15.279  13.912  0.0264 -0.0406 -0.0040
  146PROXS  H1150426  10.954  15.217  13.974  0.3175 -0.5822 -0.8513
  146PROXS  H1350427  10.917  15.269  13.806  0.9843 -0.9753  0.3533
  146PROXS   C250428  10.879  15.430  13.965 -0.1785  0.4102 -0.2525
  146PROXS  H2150429  10.845  15.415  14.070  1.1672  0.4034  0.1978
  146PROXS   C350430  10.786  15.518  13.895  0.3344  0.0229  0.3741
  146PROXS  H3150431  10.822  15.550  13.795  1.3898  0.8969  1.0024
  146PROXS  H3250432  10.694  15.459  13.878  0.3814 -0.1467  0.7036
  146PROXS  H3350433  10.766  15.611  13.953  1.6498  0.5349  0.0555
  147PROXR   O150434  11.004  15.495  13.964 -0.3043  0.3418 -0.0074
  147PROXR   C150435  11.096  15.458  14.069  0.4609  0.3735  0.2228
  147PROXR  H1150436  11.056  15.493  14.167  1.5826  1.5838  0.2733
  147PROXR  H1350437  11.099  15.347  14.064 -0.9006  0.3260  0.0576
  147PROXR   C250438  11.241  15.509  14.038  0.3941  0.0939 -0.2581
  147PROXR  H2150439  11.232  15.617  14.061 -0.5756 -0.3256  1.5197
  147PROXR   C350440  11.288  15.483  13.891 -0.3477 -0.5655  0.1607
  147PROXR  H3150441  11.374  15.547  13.861 -0.8867 -0.2400 -0.7288
  147PROXR  H3250442  11.296  15.375  13.866 -0.3200 -0.6399  0.4943
  147PROXR  H3350443  11.203  15.518  13.829  1.0385  2.5985 -0.1550
  148PROXR   O150444  11.329  15.442  14.129 -0.6665  0.8009  0.3712
  148PROXR   C150445  11.445  15.520  14.140 -0.4619 -0.0362 -0.4377
  148PROXR  H1150446  11.499  15.528  14.044  2.7008  0.1906  1.2293
  148PROXR  H1350447  11.416  15.624  14.165  0.3846  0.1473 -0.1980
  148PROXR   C250448  11.543  15.464  14.245  0.2992 -0.8918 -0.7186
  148PROXR  H2150449  11.577  15.361  14.220 -2.2509 -2.2452  0.9058
  148PROXR   C350450  11.461  15.465  14.381  0.4454 -0.2349 -0.2514
  148PROXR  H3150451  11.365  15.415  14.360  0.1849  0.1562 -0.0130
  148PROXR  H3250452  11.525  15.427  14.464  3.6043  1.2544 -1.8189
  148PROXR  H3350453  11.438  15.569  14.413  1.2277  0.1233 -0.8217
  149PROXR   O150454  11.662  15.547  14.264 -0.3666 -0.2353  0.4620
  149PROXR   C150455  11.746  15.546  14.142  0.0476  0.0206 -0.0803
  149PROXR  H1150456  11.761  15.441  14.110 -0.1889  0.8909 -3.4483
  149PROXR  H1350457  11.704  15.592  14.050 -1.7507 -2.6573 -0.7138
  149PROXR   C250458  11.899  15.592  14.166 -0.5167  0.5321  0.1884
  149PROXR  H2150459  11.897  15.675  14.241  2.8713 -0.5102  1.5913
  149PROXR   C350460  11.945  15.646  14.036 -0.3552 -0.0719  0.2464
  149PROXR  H3150461  11.879  15.726  13.995  1.0458  3.0370  3.5512
  149PROXR  H3250462  12.046  15.692  14.040 -1.1207  1.6046  1.4926
  149PROXR  H3350463  11.946  15.565  13.959  1.7901 -1.3630  1.5445
  150PROXS   O150464  11.990  15.486  14.215  0.7580  0.0502  0.1992
  150PROXS   C150465  11.961  15.445  14.347  0.7253  0.5491 -0.8054
  150PROXS  H1150466  11.973  15.529  14.420 -0.7294  0.6049 -0.6077
  150PROXS  H1350467  11.862  15.398  14.361  1.3463 -0.6937 -0.4431
  150PROXS   C250468  12.057  15.334  14.373 -0.1012  0.2518  0.4533
  150PROXS  H2150469  12.162  15.368  14.362  0.3800 -1.2686  0.1662
  150PROXS   C350470  12.032  15.215  14.273  0.8478 -0.0803  0.6887
  150PROXS  H3150471  12.019  15.251  14.169 -1.1402 -0.3296  0.8094
  150PROXS  H3250472  12.103  15.132  14.294 -1.3127 -2.4464 -0.8599
  150PROXS  H3350473  11.933  15.181  14.310 -0.0492 -0.4596 -1.8545
  151PROXR   O150474  12.049  15.297  14.507  0.6081  0.0058 -0.3391
  151PROXR   C150475  12.112  15.389  14.600  0.3143  0.0832  0.5221
  151PROXR  H1150476  12.198  15.443  14.555 -0.9266  1.0442 -0.7762
  151PROXR  H1350477  12.039  15.463  14.640  0.2647 -1.2241  3.0746
  151PROXR   C250478  12.172  15.319  14.722 -0.6855  0.1488  0.0584
  151PROXR  H2150479  12.104  15.241  14.762  2.0291 -2.2139  0.3467
  151PROXR   C350480  12.213  15.415  14.830  0.5483 -0.2858 -0.2177
  151PROXR  H3150481  12.219  15.367  14.930 -0.6997 -0.4119 -0.1894
  151PROXR  H3250482  12.311  15.459  14.801  0.3910  0.6385  0.5639
  151PROXR  H3350483  12.139  15.499  14.831 -0.9557 -1.5647  0.6876
  152PROXR   O150484  12.295  15.247  14.703 -0.5903 -0.2210 -0.6977
  152PROXR   C150485  12.268  15.118  14.666  0.7003 -0.8616  0.3519
  152PROXR  H1150486  12.171  15.117  14.612  0.9896  2.0114 -0.3664
  152PROXR  H1350487  12.349  15.082  14.599 -0.1430 -1.6243 -0.2875
  152PROXR   C250488  12.265  15.022  14.793 -0.8800  0.4565  0.8494
  152PROXR  H2150489  12.191  15.066  14.863 -1.2305  0.3930  0.5241
  152PROXR   C350490  12.400  15.017  14.867  0.2479 -0.2902 -0.7218
  152PROXR  H3150491  12.454  15.112  14.853 -1.0720  0.4935 -0.6770
  152PROXR  H3250492  12.394  15.001  14.977  0.4721  2.1597 -0.2992
  152PROXR  H3350493  12.468  14.937  14.829  2.2593 -0.2242  2.4074
  153PROXR   O150494  12.226  14.894  14.751 -0.1753  0.0041 -0.4685
  153PROXR   C150495  12.093  14.861  14.773  0.0813  0.9379 -0.5072
  153PROXR  H1150496  12.072  14.895  14.877  2.4632  2.5584 -0.4560
  153PROXR  H1350497  12.024  14.923  14.713  0.7600  0.0641 -2.2372
  153PROXR   C250498  12.084  14.711  14.755 -0.3562 -0.1029 -0.1075
  153PROXR  H2150499  12.175  14.659  14.791 -0.5078  1.0986  2.2194
  153PROXR   C350500  12.057  14.682  14.607  0.0893 -0.9316 -0.4581
  153PROXR  H3150501  12.055  14.575  14.578  0.6771 -2.1262  3.2876
  153PROXR  H3250502  11.958  14.729  14.588  0.0687 -0.2081  1.2218
  153PROXR  H3350503  12.136  14.731  14.548 -0.3776 -1.6622 -1.7211
  154PROXS   O150504  11.981  14.669  14.836  0.1319 -0.3350 -0.0405
  154PROXS   C150505  11.961  14.525  14.841 -0.8999  0.4741 -0.0631
  154PROXS  H1150506  11.990  14.485  14.741 -0.7151  1.1158 -0.2740
  154PROXS  H1350507  12.028  14.484  14.920  0.7403  3.2748  0.1319
  154PROXS   C250508  11.811  14.490  14.861 -0.7200  0.7482  0.2038
  154PROXS  H2150509  11.770  14.567  14.929 -2.6512 -0.0839  0.0499
  154PROXS   C350510  11.801  14.350  14.917 -0.7594 -0.4251  0.9898
  154PROXS  H3150511  11.840  14.341  15.021 -0.3943 -0.7846  0.8205
  154PROXS  H3250512  11.693  14.324  14.925 -1.1337  1.0209  0.8461
  154PROXS  H3350513  11.839  14.270  14.850 -2.0922  0.7237 -1.2626
  155PROXR   O150514  11.739  14.505  14.736  0.0296 -0.0172 -0.5106
  155PROXR   C150515  11.597  14.522  14.769  0.1966 -0.0375 -0.7533
  155PROXR  H1150516  11.533  14.468  14.696 -0.4972  0.1739 -0.3040
  155PROXR  H1350517  11.583  14.468  14.865 -2.0145  1.2699 -0.2757
  155PROXR   C250518  11.564  14.673  14.778 -0.2182  0.0516 -0.4059
  155PROXR  H2150519  11.650  14.730  14.819  0.6114 -1.1925 -0.3404
  155PROXR   C350520  11.447  14.686  14.875 -0.0623 -0.8230 -0.0961
  155PROXR  H3150521  11.350  14.679  14.821 -1.3544  2.4236  1.5689
  155PROXR  H3250522  11.444  14.618  14.963 -1.5676 -1.7582 -0.8314
  155PROXR  H3350523  11.447  14.792  14.908  0.0611 -0.2303 -1.8723
  156PROXS   O150524  11.520  14.724  14.654  0.0144 -0.1286 -0.2265
  156PROXS   C150525  11.618  14.717  14.554 -0.1855  0.0258 -1.2550
  156PROXS  H1150526  11.707  14.769  14.594  0.7376 -0.9557 -1.9818
  156PROXS  H1350527  11.651  14.614  14.530 -1.1131 -0.5618 -0.0924
  156PROXS   C250528  11.567  14.797  14.431  0.6753  0.4748  0.7842
  156PROXS  H2150529  11.565  14.901  14.469 -0.1411  1.6675 -2.2466
  156PROXS   C350530  11.421  14.754  14.391  0.2938 -0.0450  0.0490
  156PROXS  H3150531  11.344  14.774  14.468  1.2863 -2.0042  1.6582
  156PROXS  H3250532  11.391  14.807  14.298  2.3036  1.0049 -0.0569
  156PROXS  H3350533  11.405  14.644  14.381 -2.2275  0.3274 -0.7782
  157PROXS   O150534  11.658  14.777  14.320 -0.3099  0.9134 -0.3704
  157PROXS   C150535  11.687  14.894  14.250 -0.0628 -1.2952  0.1238
  157PROXS  H1150536  11.605  14.903  14.176 -1.2158  1.3130  1.5731
  157PROXS  H1350537  11.701  14.976  14.324  2.0900 -2.8565  1.5633
  157PROXS   C250538  11.815  14.871  14.173  0.5958  0.1223  0.1448
  157PROXS  H2150539  11.793  14.783  14.110  0.1191  1.1320 -1.1588
  157PROXS   C350540  11.930  14.829  14.254  0.7136 -0.5459  0.2442
  157PROXS  H3150541  12.013  14.794  14.188  0.1090 -2.7866  0.5843
  157PROXS  H3250542  11.956  14.911  14.324 -1.7730  0.0483  0.5821
  157PROXS  H3350543  11.898  14.737  14.308 -0.2017  0.1246  0.8655
  158PROXR   O150544  11.844  14.988  14.093  0.0287  0.0506 -0.6447
  158PROXR   C150545  11.835  14.968  13.956 -0.2391 -0.4555  0.3690
  158PROXR  H1150546  11.903  14.885  13.927  2.0964  1.3669  0.3255
  158PROXR  H1350547  11.733  14.934  13.928 -0.2839 -1.6030  1.8170
  158PROXR   C250548  11.873  15.095  13.873 -1.2516 -0.7028 -0.0650
  158PROXR  H2150549  11.982  15.113  13.889 -1.7901  0.4017  2.9223
  158PROXR   C350550  11.795  15.216  13.932 -0.3530 -0.3985 -0.8925
  158PROXR  H3150551  11.794  15.216  14.043  0.7724  3.4480 -0.7394
  158PROXR  H3250552  11.847  15.308  13.895 -3.8218  2.1810  0.1466
  158PROXR  H3350553  11.691  15.218  13.892 -0.3340  0.2215 -0.9177
  159PROXR   O150554  11.850  15.066  13.738  0.1369 -0.5495  0.4473
  159PROXR   C150555  11.950  15.126  13.649  0.0213 -0.6621 -0.8177
  159PROXR  H1150556  11.957  15.234  13.671  1.4523 -0.8532 -0.1996
  159PROXR  H1350557  12.055  15.090  13.661  1.0990  1.7141 -2.4414
  159PROXR   C250558  11.902  15.128  13.500  0.1346  0.5318 -0.6291
  159PROXR  H2150559  11.886  15.024  13.466  3.3961 -1.1418  2.2702
  159PROXR   C350560  12.014  15.186  13.411  0.2593 -0.3762 -0.5177
  159PROXR  H3150561  11.994  15.157  13.305  1.9069 -0.7511 -0.7539
  159PROXR  H3250562  12.024  15.296  13.425  0.0493 -0.4834  0.5319
  159PROXR  H3350563  12.110  15.140  13.443  0.5996  0.0364 -0.9234
  160PROXS   O150564  11.794  15.223  13.486 -0.2930  0.5196 -0.0079
  160PROXS   C150565  11.665  15.182  13.541  0.0727  0.3049  0.1534
  160PROXS  H1150566  11.657  15.072  13.528 -0.1679  0.3204  0.1650
  160PROXS  H1350567  11.675  15.202  13.650  2.9772  1.5368 -0.2425
  160PROXS   C250568  11.554  15.265  13.478  0.7321  0.0195 -0.2493
  160PROXS  H2150569  11.562  15.256  13.367  0.2123 -2.8920 -0.1202
  160PROXS   C350570  11.549  15.421  13.512 -1.3970 -0.5260  0.1542
  160PROXS  H3150571  11.649  15.462  13.488 -1.3818 -0.0608  0.9792
  160PROXS  H3250572  11.480  15.471  13.441 -0.3679  0.2488 -0.3104
  160PROXS  H3350573  11.529  15.457  13.615 -0.1744  0.6143  0.0074
  161PROXR   O150574  11.427  15.204  13.497 -0.0060  0.0417  0.5323
  161PROXR   C150575  11.393  15.200  13.635  0.1124  0.0596  0.3079
  161PROXR  H1150576  11.475  15.209  13.709  0.0782 -1.7623  0.6022
  161PROXR  H1350577  11.329  15.288  13.659  0.4428 -0.2777  2.6071
  161PROXR   C250578  11.309  15.075  13.673  0.8567  0.0791 -0.6934
  161PROXR  H2150579  11.382  14.992  13.676  2.1706  1.2048  1.6541
  161PROXR   C350580  11.190  15.043  13.577  0.1107  0.4438 -0.6580
  161PROXR  H3150581  11.114  15.124  13.581 -1.2808 -0.8631  0.4373
  161PROXR  H3250582  11.231  15.037  13.474  0.3120 -0.6815 -0.5277
  161PROXR  H3350583  11.140  14.947  13.601  0.4002  0.6476  0.8824
  162PROXR   O150584  11.249  15.094  13.800  0.0770 -0.1832  0.5233
  162PROXR   C150585  11.224  14.974  13.869 -0.0980  0.4413  0.0466
  162PROXR  H1150586  11.122  14.936  13.848  0.8667 -1.6562 -1.1853
  162PROXR  H1350587  11.300  14.893  13.869  1.8059  2.1634  0.6676
  162PROXR   C250588  11.216  15.015  14.018 -0.1278 -0.5610  0.2801
  162PROXR  H2150589  11.137  15.093  14.021  0.8747  0.5565 -1.1532
  162PROXR   C350590  11.339  15.096  14.067  0.5561 -0.0891  0.2255
  162PROXR  H3150591  11.427  15.028  14.073 -0.8330 -1.9703  0.4237
  162PROXR  H3250592  11.358  15.189  14.009  2.9203 -0.1882  0.7648
  162PROXR  H3350593  11.319  15.139  14.167  0.2297  0.5460 -0.1067
  163PROXS   O150594  11.186  14.903  14.108 -0.1154 -0.0113  0.0513
  163PROXS   C150595  11.154  14.942  14.240  0.7106  0.6302  0.0241
  163PROXS  H1150596  11.251  14.962  14.290  0.7862 -0.7436  0.4809
  163PROXS  H1350597  11.090  15.032  14.246 -1.5827 -1.0288  2.2751
  163PROXS   C250598  11.068  14.831  14.305  0.4756  0.7749  0.1693
  163PROXS  H2150599  11.124  14.735  14.313 -1.3256 -0.5507 -1.7948
  163PROXS   C350600  10.933  14.791  14.233  1.3383  0.2773  0.6191
  163PROXS  H3150601  10.875  14.705  14.273  0.3316 -0.0087 -1.3377
  163PROXS  H3250602  10.859  14.874  14.236  1.7070  0.6456 -0.2640
  163PROXS  H3350603  10.938  14.760  14.126 -0.0689  1.4870  0.1710
  164PROXR   O150604  11.029  14.870  14.439  0.5051 -0.5360  0.2624
  164PROXR   C150605  10.977  14.770  14.520 -0.4918 -0.3879  0.5611
  164PROXR  H1150606  10.871  14.757  14.491 -0.1962  1.4241 -1.6642
  164PROXR  H1350607  11.033  14.674  14.513 -1.6472 -1.0874  0.6983
  164PROXR   C250608  10.985  14.827  14.666 -0.4068 -0.5190  0.4568
  164PROXR  H2150609  10.937  14.927  14.665  0.3301 -0.1557 -0.6272
  164PROXR   C350610  11.135  14.851  14.704  0.1645 -0.6259  0.5950
  164PROXR  H3150611  11.196  14.913  14.635  1.9614 -0.4385  2.2557
  164PROXR  H3250612  11.141  14.883  14.810 -0.9090 -2.3469  1.2252
  164PROXR  H3350613  11.184  14.751  14.707  2.8046  0.5005 -1.2955
  165PROXR   O150614  10.924  14.733  14.746 -0.5476  0.0874 -0.0372
  165PROXR   C150615  10.941  14.782  14.876  0.4910 -0.4064  0.2636
  165PROXR  H1150616  11.037  14.744  14.917 -0.1797 -0.6642  1.6699
  165PROXR  H1350617  10.929  14.892  14.881  2.4602 -0.1868  1.5773
  165PROXR   C250618  10.833  14.722  14.971 -0.6258 -0.0229 -0.3423
  165PROXR  H2150619  10.839  14.611  14.973 -2.0286 -0.1376 -1.3348
  165PROXR   C350620  10.690  14.760  14.929 -0.2508 -0.2015  0.1326
  165PROXR  H3150621  10.678  14.870  14.919  1.8254  0.0321 -0.1531
  165PROXR  H3250622  10.656  14.718  14.832 -0.3620 -0.8157  0.4321
  165PROXR  H3350623  10.617  14.741  15.011  0.4760  1.0872  1.0983
  166ETHOX   O150624  10.854  14.777  15.103 -0.4584  0.0406  0.2588
  166ETHOX   C150625  10.820  14.690  15.208  0.4513  0.2361 -0.0008
  166ETHOX  H1150626  10.892  14.609  15.230  1.6794  1.2741 -0.0642
  166ETHOX  H1350627  10.719  14.647  15.188  1.9060 -3.0385 -0.9300
  166ETHOX   C250628  10.829  14.767  15.340 -0.2872  0.8744 -0.1556
  166ETHOX  H2150629  10.926  14.820  15.353  0.0255 -0.0882  1.7824
  166ETHOX  H2350630  10.820  14.687  15.417 -2.6456  2.0268  0.8685
  167ETHOX   O150631  10.724  14.843  15.355  0.4221 -0.4032  0.1466
  167ETHOX   C150632  10.736  14.929  15.469  0.2733 -0.0142  0.1043
  167ETHOX  H1150633  10.637  14.934  15.520  1.0132 -0.9345  1.7033
  167ETHOX  H1350634  10.803  14.896  15.551  0.2789  1.7156  0.8487
  167ETHOX   C250635  10.770  15.078  15.432  0.3241  0.1713 -0.0396
  167ETHOX  H2150636  10.753  15.146  15.518 -0.5966  1.0242 -0.8716
  167ETHOX  H2350637  10.692  15.116  15.362  0.6749  0.2433 -0.3907
  168ETHOX   O150638  10.897  15.095  15.370 -0.4989  0.2727 -0.2196
  168ETHOX   C150639  11.005  15.121  15.466  0.4387 -0.1853 -0.0851
  168ETHOX  H1150640  10.991  15.049  15.550  0.7525 -0.9523 -0.6814
  168ETHOX  H1350641  11.002  15.220  15.515  0.3634 -1.3624  2.4780
  168ETHOX   C250642  11.144  15.093  15.399 -0.4217 -0.1666  0.2583
  168ETHOX  H2150643  11.144  14.990  15.356  1.2382  0.0769 -0.3870
  168ETHOX  H2350644  11.216  15.095  15.484 -1.3596 -1.4496  1.1200
  169ETHOX   O150645  11.166  15.185  15.298 -0.3755  0.0393 -0.2292
  169ETHOX   C150646  11.291  15.148  15.234 -0.1658  0.1050 -0.0570
  169ETHOX  H1150647  11.371  15.204  15.286  0.9669 -0.4409 -1.1624
  169ETHOX  H1350648  11.304  15.038  15.229 -2.4118 -0.1884 -0.5993
  169ETHOX   C250649  11.291  15.175  15.087 -0.2889 -0.5703 -0.1782
  169ETHOX  H2150650  11.304  15.284  15.071  0.2840 -0.6208 -0.0741
  169ETHOX  H2350651  11.195  15.142  15.041 -0.9475 -0.2081  0.9072
  170ETHOX   O150652  11.402  15.116  15.019  0.3775  0.6002 -0.6269
  170ETHOX   C150653  11.407  15.131  14.874 -0.3692  0.4470  0.2438
  170ETHOX  H1150654  11.375  15.234  14.849  0.6333  0.8787  0.6766
  170ETHOX  H1350655  11.343  15.060  14.817 -1.9278  1.7435  0.3047
  170ETHOX   C250656  11.549  15.120  14.828  0.0610  0.0991  0.2119
  170ETHOX  H2150657  11.558  15.118  14.717  0.8958  0.2252  0.2663
  170ETHOX  H2350658  11.594  15.027  14.871  0.4593  0.8343  1.4481
  171ETHOX   O150659  11.637  15.229  14.851 -0.2181 -0.4553 -0.1184
  171ETHOX   C150660  11.593  15.360  14.807  0.1051 -0.2282 -0.2094
  171ETHOX  H1150661  11.508  15.343  14.736 -1.0958 -2.2588  1.6116
  171ETHOX  H1350662  11.542  15.418  14.888  1.2774 -3.1670  2.8348
  171ETHOX   C250663  11.713  15.434  14.755  0.3185 -0.2394 -0.7225
  171ETHOX  H2150664  11.760  15.383  14.668 -0.8655  1.8981 -2.7587
  171ETHOX  H2350665  11.778  15.438  14.845 -2.6791 -0.7338  1.6039
  172ETHOX   O150666  11.681  15.565  14.711  0.6072 -0.0560  0.2577
  172ETHOX   C150667  11.770  15.609  14.614  1.1081  0.8648  1.2291
  172ETHOX  H1150668  11.785  15.538  14.530 -1.2559  1.0387  0.6047
  172ETHOX  H1350669  11.864  15.641  14.665 -0.3655  0.8571  4.1604
  172ETHOX   C250670  11.718  15.748  14.564 -0.7657  0.4846 -0.4787
  172ETHOX  H2150671  11.683  15.810  14.649 -0.3377 -0.1672  0.1904
  172ETHOX  H2350672  11.635  15.725  14.493 -1.6653  2.5945 -0.1673
  173ETHOX   O150673  11.827  15.827  14.506  0.3232  0.3390 -0.6245
  173ETHOX   C150674  11.774  15.932  14.429 -0.5944 -0.4244  0.4668
  173ETHOX  H1150675  11.712  15.881  14.352 -0.6152  1.3794 -0.7649
  173ETHOX  H1350676  11.707  16.004  14.481  1.1195  0.6408  1.2572
  173ETHOX   C250677  11.883  16.011  14.353  0.1354 -0.0764  0.7106
  173ETHOX  H2150678  11.822  16.070  14.282  0.4051 -0.7822 -0.1275
  173ETHOX  H2350679  11.940  16.075  14.424  1.2107 -0.9175  0.6516
  174ETHOX   O150680  11.980  15.934  14.282 -0.8785  0.0839 -0.1953
  174ETHOX   C150681  12.084  16.020  14.224 -0.5063  0.0654 -0.1351
  174ETHOX  H1150682  12.040  16.072  14.136 -0.1366  0.0760 -0.3178
  174ETHOX  H1350683  12.111  16.097  14.300 -1.5309  1.5909 -1.2510
  174ETHOX   C250684  12.214  15.946  14.196  0.1549  0.4108  0.3188
  174ETHOX  H2150685  12.290  16.004  14.140 -0.9376  0.1189 -1.5552
  174ETHOX  H2350686  12.187  15.857  14.134  0.5894 -1.5493  2.7653
  175ETHOX   O150687  12.274  15.900  14.314  0.3649 -0.4426 -0.1053
  175ETHOX   C150688  12.384  15.828  14.286  0.2231 -0.2400 -0.7191
  175ETHOX  H1150689  12.342  15.737  14.237  0.2440 -0.7271  0.1523
  175ETHOX  H1350690  12.459  15.879  14.222  2.2169 -0.3742  1.3656
  175ETHOX   C250691  12.451  15.779  14.412  0.1668  0.6428  0.2381
  175ETHOX  H2150692  12.543  15.718  14.398  0.6487  0.9191  1.9866
  175ETHOX  H2350693  12.377  15.716  14.465  0.3080 -2.2410 -2.6861
  176ETHOX   O150694  12.490  15.896  14.484  0.1473 -0.3096  0.1737
  176ETHOX   C150695  12.554  15.871  14.610 -0.4191  0.1276  0.3243
  176ETHOX  H1150696  12.508  15.784  14.661  1.6766 -0.7677  0.7597
  176ETHOX  H1350697  12.656  15.832  14.590 -1.5260 -2.3262 -0.9037
  176ETHOX   C250698  12.558  15.989  14.705  0.2809 -0.5668 -0.1280
  176ETHOX  H2150699  12.568  15.949  14.808  0.4390 -0.0135  0.0741
  176ETHOX  H2350700  12.464  16.049  14.698  0.6072  0.2599  1.7630
  177ETHOX   O150701  12.678  16.073  14.692  0.4388  0.2420 -0.1551
  177ETHOX   C150702  12.665  16.186  14.784  0.0764  0.3005  0.3041
  177ETHOX  H1150703  12.630  16.153  14.885  1.5338 -0.7670  0.4867
  177ETHOX  H1350704  12.588  16.252  14.739 -1.0308 -0.5923  0.8224
  177ETHOX   C250705  12.791  16.271  14.801  0.0662 -0.8902 -0.5590
  177ETHOX  H2150706  12.877  16.211  14.836  0.8677 -0.8455 -2.3094
  177ETHOX  H2350707  12.775  16.358  14.868 -0.7225 -0.5691 -1.1496
  178ETHOX   O150708  12.820  16.336  14.675  0.2889  0.3485 -0.1387
  178ETHOX   C150709  12.965  16.367  14.680  0.6297 -0.1486 -0.2431
  178ETHOX  H1150710  12.990  16.419  14.774  1.6163  0.6647 -0.9375
  178ETHOX  H1350711  13.006  16.264  14.678 -1.1000 -0.8742 -1.5584
  178ETHOX   C250712  13.004  16.432  14.549  0.0105 -0.6405  0.0795
  178ETHOX  H2150713  12.979  16.367  14.462  0.3395  0.3667 -0.8011
  178ETHOX  H2350714  13.115  16.435  14.556  0.2845 -1.8669 -2.4008
  179ETHOX   O150715  12.974  16.574  14.542 -0.5665 -0.1614 -0.0598
  179ETHOX   C150716  12.941  16.608  14.412 -0.1483  0.2857  0.9040
  179ETHOX  H1150717  12.869  16.541  14.362  1.1449 -0.9601  0.6428
  179ETHOX  H1350718  13.038  16.599  14.357 -0.4894 -0.3116  0.3901
  179ETHOX   C250719  12.887  16.750  14.401 -0.3149  0.3196 -0.1845
  179ETHOX  H2150720  12.852  16.784  14.301 -0.3228 -0.7372 -0.5625
  179ETHOX  H2350721  12.962  16.818  14.446 -0.4108  0.6409 -0.5114
  180ETHOX   O150722  12.776  16.747  14.486  0.4559 -0.0990  0.1815
  180ETHOX   C150723  12.734  16.880  14.520  0.1982 -0.2440  0.5702
  180ETHOX  H1150724  12.802  16.925  14.595 -0.2212  2.4628 -0.5417
  180ETHOX  H1350725  12.737  16.942  14.427  1.3460  1.2167  1.5493
  180ETHOX   C250726  12.591  16.886  14.578  0.2395  0.3560 -0.6893
  180ETHOX  H2150727  12.563  16.992  14.591  1.4510  0.4817  1.2826
  180ETHOX  H2350728  12.588  16.838  14.678 -1.9784 -0.1421 -0.9442
  181ETHOX   O150729  12.502  16.810  14.493  0.4979  0.4775  0.8115
  181ETHOX   C150730  12.373  16.802  14.557  0.5714  0.3115  0.2941
  181ETHOX  H1150731  12.332  16.905  14.561  1.2546  0.6072 -0.1398
  181ETHOX  H1350732  12.374  16.759  14.659 -2.7429  0.9458  0.6962
  181ETHOX   C250733  12.271  16.727  14.467  0.1030  0.1697  0.3129
  181ETHOX  H2150734  12.270  16.744  14.357 -0.3626 -2.8558 -0.2396
  181ETHOX  H2350735  12.174  16.751  14.515  0.0285  0.3676  0.0646
  182ETHOX   O150736  12.279  16.588  14.474  0.0705  0.0629 -0.2597
  182ETHOX   C150737  12.170  16.529  14.403  0.6179 -0.0256 -0.2151
  182ETHOX  H1150738  12.073  16.560  14.448  1.6625  0.8023  1.5984
  182ETHOX  H1350739  12.174  16.558  14.296 -3.2094 -1.0413 -0.7890
  182ETHOX   C250740  12.184  16.372  14.432 -0.1782 -1.1144 -0.5026
  182ETHOX  H2150741  12.282  16.346  14.385  0.0321  0.9827 -1.3560
  182ETHOX  H2350742  12.104  16.325  14.371 -0.5094 -2.3011  0.8095
  183ETHOX   O150743  12.168  16.331  14.565  0.7141 -0.2093 -0.3936
  183ETHOX   C150744  12.219  16.196  14.579  0.4506  0.9810  0.6277
  183ETHOX  H1150745  12.329  16.181  14.574  0.6256  1.5485  2.1625
  183ETHOX  H1350746  12.159  16.135  14.508  2.6917 -0.4929 -0.0799
  183ETHOX   C250747  12.181  16.140  14.715 -0.9364 -0.7821 -0.5818
  183ETHOX  H2150748  12.194  16.031  14.703 -1.2109 -1.0521  1.3424
  183ETHOX  H2350749  12.078  16.143  14.757 -0.0890  0.3819  1.5526
  184ETHOX   O150750  12.272  16.183  14.812  0.2355 -0.4585  0.0011
  184ETHOX   C150751  12.225  16.303  14.878  0.3366  0.0156 -0.7907
  184ETHOX  H1150752  12.125  16.327  14.834 -0.3223 -0.7639  0.2222
  184ETHOX  H1350753  12.207  16.286  14.986 -0.1364  0.3958 -0.8053
  184ETHOX   C250754  12.322  16.411  14.873 -0.2561  0.0883  0.1426
  184ETHOX  H2150755  12.278  16.513  14.867  0.1216  0.1706 -2.7231
  184ETHOX  H2350756  12.388  16.402  14.783 -0.0313 -0.5017  0.3659
  185ETHOX   O150757  12.406  16.414  14.986 -0.0619 -0.5178 -0.8268
  185ETHOX   C150758  12.495  16.528  14.993  0.0080 -0.0664  0.0472
  185ETHOX  H1150759  12.575  16.521  14.915 -1.7420 -2.9855 -1.7091
  185ETHOX  H1350760  12.439  16.622  14.975 -0.7711 -0.5432 -0.1048
  185ETHOX   C250761  12.564  16.543  15.127  0.4097  0.3521 -0.4505
  185ETHOX  H2150762  12.489  16.571  15.204 -1.6223 -0.6738 -1.9699
  185ETHOX  H2350763  12.616  16.641  15.127  0.9439  0.1373  1.9689
  186ETHOX   O150764  12.664  16.439  15.162  0.1449  0.3771  0.8508
  186ETHOX   C150765  12.724  16.452  15.289  0.7618 -0.2540 -0.0839
  186ETHOX  H1150766  12.764  16.556  15.282 -1.5508  0.7335  0.2712
  186ETHOX  H1350767  12.650  16.460  15.372  0.5202  0.5624 -0.3586
  186ETHOX   C250768  12.833  16.347  15.311  0.0672  0.2429  0.2314
  186ETHOX  H2150769  12.886  16.382  15.402  0.0112 -0.3981  0.5188
  186ETHOX  H2350770  12.903  16.339  15.225  0.8017  1.1519  0.7238
  187ETHOX   O150771  12.774  16.216  15.330 -0.5521 -0.3604 -0.5730
  187ETHOX   C150772  12.775  16.169  15.469  0.6017 -0.8123  0.4319
  187ETHOX  H1150773  12.880  16.136  15.485  0.8563  0.2385  1.0806
  187ETHOX  H1350774  12.753  16.246  15.546 -2.6272 -0.3397 -0.8178
  187ETHOX   C250775  12.701  16.044  15.483  0.6734 -0.5750 -0.3262
  187ETHOX  H2150776  12.742  16.003  15.578  1.3130  2.3492  0.7868
  187ETHOX  H2350777  12.718  15.984  15.392  0.1826 -1.5260  0.1992
  188ETHOX   O150778  12.559  16.066  15.495  0.1430  0.1542 -0.5028
  188ETHOX   C150779  12.493  15.943  15.501  0.3787  0.7053  0.2755
  188ETHOX  H1150780  12.548  15.864  15.557  0.0378  0.9241  0.9385
  188ETHOX  H1350781  12.486  15.911  15.395 -2.8396 -1.7639  1.0491
  188ETHOX   C250782  12.352  15.939  15.547  0.3061  0.6668 -0.5125
  188ETHOX  H2150783  12.289  15.860  15.501 -0.8675  1.7409 -0.7866
  188ETHOX  H2350784  12.296  16.033  15.533  0.9941  1.2313  0.3911
  189ETHOX   O150785  12.347  15.904  15.689  1.0009  0.2011  0.2817
  189ETHOX   C150786  12.222  15.934  15.755 -0.6595  0.1009  0.6020
  189ETHOX  H1150787  12.141  15.931  15.679  0.2941 -1.3717 -0.4162
  189ETHOX  H1350788  12.193  15.867  15.838 -0.8687  0.8883  1.1757
  189ETHOX   C250789  12.226  16.079  15.811  0.2616 -0.2916 -0.1241
  189ETHOX  H2150790  12.305  16.080  15.889  1.2399  1.3533 -1.0811
  189ETHOX  H2350791  12.126  16.088  15.858 -0.2863  0.9020 -1.4593
  190ETHOX   O150792  12.235  16.177  15.706  0.0345  0.0915 -0.1205
  190ETHOX   C150793  12.265  16.303  15.759  0.4153  0.1093 -0.6995
  190ETHOX  H1150794  12.229  16.304  15.864  1.7233  0.3707 -0.2459
  190ETHOX  H1350795  12.216  16.385  15.701 -1.7844 -0.2184  0.5994
  190ETHOX   C250796  12.416  16.338  15.779  0.1229  0.1830  0.9593
  190ETHOX  H2150797  12.440  16.398  15.688 -1.7725 -0.4956 -0.0644
  190ETHOX  H2350798  12.471  16.242  15.784 -0.9862 -0.5178  0.2122
  191ETHOX   O150799  12.460  16.415  15.886  0.1849  0.0019  0.4085
  191ETHOX   C150800  12.589  16.472  15.866 -0.2340  0.1178  0.1727
  191ETHOX  H1150801  12.640  16.418  15.784 -1.6769  0.9569 -1.3586
  191ETHOX  H1350802  12.559  16.573  15.829 -0.6627  1.7032  4.3444
  191ETHOX   C250803  12.670  16.488  15.997  0.3467  0.2842  0.5149
  191ETHOX  H2150804  12.595  16.497  16.079 -0.0483  0.8868  0.0980
  191ETHOX  H2350805  12.724  16.583  15.980 -2.0434  1.8691  1.2796
  192ETHOX   O150806  12.751  16.377  16.030 -0.2741 -0.1203 -0.3607
  192ETHOX   C150807  12.866  16.416  16.110 -0.6041 -0.4090 -0.4921
  192ETHOX  H1150808  12.825  16.433  16.212  1.5626  0.8810  0.2457
  192ETHOX  H1350809  12.917  16.510  16.079 -0.1467 -0.2383  0.7149
  192ETHOX   C250810  12.976  16.314  16.115 -0.1784  0.5939 -0.5907
  192ETHOX  H2150811  12.936  16.221  16.161  2.0284  0.3524  1.0273
  192ETHOX  H2350812  13.049  16.329  16.198  0.3017 -2.3819 -0.3774
  193ETHOX   O150813  13.040  16.296  15.986 -0.1787 -0.2301 -0.0536
  193ETHOX   C150814  13.151  16.206  16.000 -0.1743 -0.7990 -0.0378
  193ETHOX  H1150815  13.211  16.241  15.914  0.9681 -0.0590  1.0321
  193ETHOX  H1350816  13.218  16.233  16.084  0.1860  0.1230 -0.6071
  193ETHOX   C250817  13.115  16.061  15.997  0.0538 -0.1483 -1.2478
  193ETHOX  H2150818  13.034  16.047  16.071  3.1966  0.6443  2.6853
  193ETHOX  H2350819  13.205  16.006  16.031 -1.1349 -0.5319  1.5198
  194ETHOX   O150820  13.070  16.016  15.872  0.2654  0.3869 -0.2367
  194ETHOX   C150821  13.054  15.877  15.863  0.2069  0.0826 -0.1772
  194ETHOX  H1150822  13.023  15.839  15.963 -2.5248  2.3621 -0.0158
  194ETHOX  H1350823  13.154  15.834  15.841 -0.2472 -0.5754 -1.0126
  194ETHOX   C250824  12.961  15.827  15.752 -0.6378 -0.1556  0.3694
  194ETHOX  H2150825  12.857  15.867  15.758 -0.4341  0.3246  0.7250
  194ETHOX  H2350826  12.960  15.718  15.774 -5.8431 -0.2945  0.8717
  195ETHOX   O150827  13.009  15.850  15.620 -0.4425 -0.8774 -0.0638
  195ETHOX   C150828  12.943  15.777  15.519  0.3050 -0.1951  0.1906
  195ETHOX  H1150829  12.982  15.673  15.524  0.8237 -0.0537 -0.6393
  195ETHOX  H1350830  12.833  15.775  15.532  0.0993  1.3175 -1.0174
  195ETHOX   C250831  12.984  15.847  15.380 -0.6503  0.2068 -0.3017
  195ETHOX  H2150832  13.090  15.834  15.350 -0.1356  1.7196  0.7142
  195ETHOX  H2350833  12.971  15.957  15.382  0.1939  0.4202 -2.7785
  196ETHOX   O150834  12.898  15.802  15.281  0.4293 -0.3446  0.1202
  196ETHOX   C150835  12.918  15.872  15.163  0.2862 -0.8447 -0.3481
  196ETHOX  H1150836  12.918  15.981  15.185  0.3743 -1.1423  1.2194
  196ETHOX  H1350837  13.020  15.848  15.127 -0.0471 -1.7348 -0.7330
  196ETHOX   C250838  12.815  15.846  15.058 -0.1592  0.1895 -0.5106
  196ETHOX  H2150839  12.847  15.903  14.969  2.9114 -0.0968  0.3018
  196ETHOX  H2350840  12.719  15.886  15.097  0.4062 -0.0502  1.2141
  197ETHOX   O150841  12.809  15.707  15.017 -0.5200  0.0330  0.2648
  197ETHOX   C150842  12.684  15.681  14.946 -0.8270  0.3681 -0.2526
  197ETHOX  H1150843  12.600  15.736  14.994 -0.5037  0.1898  0.5252
  197ETHOX  H1350844  12.688  15.720  14.842  2.5571  0.5410 -0.1639
  197ETHOX   C250845  12.650  15.533  14.936  0.6321  0.2790  0.2223
  197ETHOX  H2150846  12.729  15.466  14.895 -1.9051 -0.9491 -3.1112
  197ETHOX  H2350847  12.573  15.523  14.857  1.6395 -1.2926 -0.6246
  198ETHOX   O150848  12.598  15.473  15.056 -0.0936  0.2808 -0.1121
  198ETHOX   C150849  12.567  15.336  15.032  0.6932 -1.0033 -0.4697
  198ETHOX  H1150850  12.501  15.327  14.943 -1.4954  2.5297  0.5985
  198ETHOX  H1350851  12.654  15.269  15.016  1.1299 -0.6026  0.1962
  198ETHOX   C250852  12.501  15.289  15.165  0.0665 -0.0926  0.2730
  198ETHOX  H2150853  12.543  15.323  15.262 -1.3471  1.4761  0.3838
  198ETHOX  H2350854  12.500  15.180  15.144 -0.6856  0.3282 -2.1904
  199ETHOX   O150855  12.362  15.309  15.170  0.4304 -0.1709 -0.5372
  199ETHOX   C150856  12.309  15.260  15.284 -0.6707  0.4106  0.5696
  199ETHOX  H1150857  12.336  15.332  15.365  1.7234 -0.4117  0.5770
  199ETHOX  H1350858  12.352  15.159  15.302 -2.7530 -0.2837  2.0200
  199ETHOX   C250859  12.161  15.230  15.281  0.5631  0.0398 -0.5053
  199ETHOX  H2150860  12.121  15.181  15.373 -2.5052  1.9731 -0.6680
  199ETHOX  H2350861  12.146  15.158  15.198  2.8952 -0.7375 -0.3230
  200ETHOX   O150862  12.099  15.355  15.264  0.0085  0.1420 -0.0227
  200ETHOX   C150863  11.967  15.331  15.208  0.4845 -0.1224  0.2514
  200ETHOX  H1150864  11.906  15.277  15.284 -1.5468 -0.0993 -1.2667
  200ETHOX  H1350865  11.920  15.432  15.207 -0.5378 -0.5705 -1.3395
  200ETHOX   C250866  11.934  15.249  15.072 -0.2116 -0.2974 -0.1077
  200ETHOX  H2150867  12.012  15.266  14.995 -0.5151  1.2746 -0.0998
  200ETHOX  H2350868  11.835  15.280  15.031 -1.2936 -0.6341  2.0739
  201ETHOX   O150869  11.942  15.113  15.103  0.5485  0.1850  0.2096
  201ETHOX   C150870  11.834  15.041  15.042 -0.0167 -1.3714 -0.5585
  201ETHOX  H1150871  11.849  15.052  14.932 -2.7427 -2.2664 -1.1047
  201ETHOX  H1350872  11.734  15.080  15.072 -0.1587  0.5447 -3.1888
  201ETHOX   C250873  11.836  14.894  15.069  0.3966 -0.2409 -0.7088
  201ETHOX  H2150874  11.937  14.851  15.087  0.1998  0.3335  2.2826
  201ETHOX  H2350875  11.780  14.844  14.987 -0.9037 -0.6364  0.3711
  202ETHOX   O150876  11.769  14.852  15.186  0.1482  0.3788 -0.1484
  202ETHOX   C150877  11.769  14.709  15.213  0.7681  0.3067  0.8451
  202ETHOX  H1150878  11.686  14.698  15.286  1.1542 -1.9615  1.0212
  202ETHOX  H1350879  11.729  14.654  15.125  1.0006 -0.4625  1.2109
  202ETHOX   C250880  11.887  14.651  15.293  0.0671 -0.2850  0.1102
  202ETHOX  H2150881  11.865  14.543  15.308 -0.0153 -0.3190 -0.2629
  202ETHOX  H2350882  11.892  14.715  15.383  0.0660 -0.2723  0.1018
  203ETHOX   O150883  11.999  14.675  15.217 -0.0399 -0.2923 -0.3876
  203ETHOX   C150884  12.077  14.777  15.282 -0.7598  0.3345  0.2348
  203ETHOX  H1150885  12.126  14.746  15.377  0.3247  2.4081  0.4162
  203ETHOX  H1350886  12.013  14.866  15.297 -0.1477  0.7375  0.4925
  203ETHOX   C250887  12.200  14.814  15.204 -0.2744 -0.3540 -0.2084
  203ETHOX  H2150888  12.244  14.904  15.251 -0.6389  0.0606 -0.6528
  203ETHOX  H2350889  12.176  14.848  15.101  0.1177 -1.5055 -0.6930
  204ETHOX   O150890  12.291  14.703  15.203 -0.0289  0.5174  0.8723
  204ETHOX   C150891  12.285  14.637  15.074 -0.5437 -0.3575  0.2688
  204ETHOX  H1150892  12.184  14.595  15.058 -1.4723  1.4471  1.0925
  204ETHOX  H1350893  12.298  14.715  14.996  1.3077 -0.7841  0.0912
  204ETHOX   C250894  12.400  14.535  15.047 -0.0812 -0.4559 -0.7821
  204ETHOX  H2150895  12.499  14.585  15.042  1.1964 -2.6301  0.9224
  204ETHOX  H2350896  12.367  14.480  14.956  0.5350 -1.9613 -0.1391
  205ETHOX   O150897  12.417  14.450  15.155 -0.4290  0.6500 -0.2771
  205ETHOX   C150898  12.528  14.362  15.140 -0.1218  0.1586  0.6607
  205ETHOX  H1150899  12.516  14.302  15.233 -2.0144  0.8401  0.9107
  205ETHOX  H1350900  12.621  14.422  15.148  0.0265  0.4269 -2.2564
  205ETHOX   C250901  12.527  14.272  15.013  0.0289  0.9925  0.0044
  205ETHOX  H2150902  12.432  14.237  14.968 -0.7758  2.9897  0.0573
  205ETHOX  H2350903  12.576  14.175  15.038  1.1667  1.3013 -0.9341
  206ETHOX   O150904  12.610  14.320  14.907 -0.1873  0.2283 -0.4902
  206ETHOX   C150905  12.628  14.223  14.802  0.0771 -0.2695  0.2818
  206ETHOX  H1150906  12.532  14.178  14.770  1.1121 -1.6413 -1.0123
  206ETHOX  H1350907  12.668  14.266  14.708 -1.1910  1.0929  0.3301
  206ETHOX   C250908  12.733  14.115  14.832  0.2965  0.2348 -0.7194
  206ETHOX  H2150909  12.710  14.066  14.929 -1.1946  1.7750 -0.2420
  206ETHOX  H2350910  12.737  14.052  14.741  0.6298  0.9799 -1.2316
  207ETHOX   O150911  12.865  14.168  14.839  0.0820 -0.4135  0.5548
  207ETHOX   C150912  12.966  14.086  14.900  0.2487  0.4944  0.0105
  207ETHOX  H1150913  13.068  14.096  14.858  1.8143 -0.7427  3.1891
  207ETHOX  H1350914  12.936  13.980  14.885 -1.5619  1.0176 -0.4075
  207ETHOX   C250915  12.969  14.110  15.051 -0.2370  0.0550  0.0578
  207ETHOX  H2150916  13.031  14.031  15.098 -0.7080  1.5821  3.5869
  207ETHOX  H2350917  12.866  14.102  15.093 -0.2680 -0.4528 -0.1096
  208ETHOX   O150918  13.023  14.239  15.074 -0.0541 -0.7560 -0.1848
  208ETHOX   C150919  12.984  14.301  15.196 -0.3627  0.5502 -0.4060
  208ETHOX  H1150920  12.880  14.340  15.190 -1.4872 -1.3575  3.3635
  208ETHOX  H1350921  12.988  14.223  15.275  2.3247 -1.2392 -2.1308
  208ETHOX   C250922  13.084  14.412  15.228 -0.2289 -0.7414 -0.4640
  208ETHOX  H2150923  13.054  14.469  15.319 -1.2070  0.8782 -1.7340
  208ETHOX  H2350924  13.095  14.481  15.141  1.2380  0.8877  0.9299
  209ETHOX   O150925  13.217  14.367  15.258 -0.2461  0.2793  0.6225
  209ETHOX   C150926  13.301  14.476  15.308  0.3172  0.8711  0.1319
  209ETHOX  H1150927  13.262  14.497  15.409 -1.9725  1.7488 -0.8685
  209ETHOX  H1350928  13.283  14.567  15.247 -0.5543  1.7450  1.6413
  209ETHOX   C250929  13.451  14.443  15.307 -0.4784  0.1654 -0.1038
  209ETHOX  H2150930  13.499  14.539  15.333 -1.4415  0.4097  0.8561
  209ETHOX  H2350931  13.492  14.426  15.205 -0.8951  0.3140 -0.2995
  210ETHOX   O150932  13.479  14.342  15.401 -0.0210  0.7817  0.2071
  210ETHOX   C150933  13.603  14.272  15.370 -0.4503  0.2940 -0.5414
  210ETHOX  H1150934  13.601  14.233  15.266 -2.1349  0.6099 -0.6556
  210ETHOX  H1350935  13.686  14.343  15.388 -0.6480  0.1954  0.8490
  210ETHOX   C250936  13.605  14.143  15.465 -0.4843  0.3302  0.3059
  210ETHOX  H2150937  13.617  14.186  15.567 -0.3114 -2.1753  1.4092
  210ETHOX  H2350938  13.700  14.092  15.438  1.6055  3.9486  0.1538
  211ETHOX   O150939  13.488  14.055  15.449 -0.2357 -0.0198 -0.2158
  211ETHOX   C150940  13.493  13.933  15.529 -0.2302 -0.2856 -0.4069
  211ETHOX  H1150941  13.414  13.869  15.486 -0.9493  0.8298 -0.8092
  211ETHOX  H1350942  13.586  13.874  15.522 -0.8859 -1.7979  2.0784
  211ETHOX   C250943  13.450  13.966  15.682 -0.7801  0.0146  1.1192
  211ETHOX  H2150944  13.399  14.064  15.695  0.1359  0.7520 -0.5303
  211ETHOX  H2350945  13.537  13.972  15.752  0.0637 -1.0258  0.1886
  212ETHOX   O150946  13.365  13.858  15.735  0.4787  0.3866 -0.1984
  212ETHOX   C150947  13.445  13.742  15.750 -0.0985  0.0560 -0.0128
  212ETHOX  H1150948  13.499  13.713  15.657  1.5345  2.9065 -0.0877
  212ETHOX  H1350949  13.516  13.752  15.835 -2.4470  2.0185  1.8616
  212ETHOX   C250950  13.360  13.618  15.791 -0.1797  0.1047  0.0284
  212ETHOX  H2150951  13.301  13.579  15.706  0.7173  0.3875 -0.7354
  212ETHOX  H2350952  13.295  13.651  15.875  1.6613  1.8748  0.8319
  213ETHOX   O150953  13.442  13.514  15.841  0.2658 -0.0934  0.3863
  213ETHOX   C150954  13.365  13.400  15.878 -0.8113 -0.1359  0.4177
  213ETHOX  H1150955  13.313  13.419  15.974 -0.0010 -0.7020  0.9795
  213ETHOX  H1350956  13.302  13.361  15.795 -0.1832 -0.3798  0.0531
  213ETHOX   C250957  13.470  13.293  15.917 -0.1178  0.0187 -0.3307
  213ETHOX  H2150958  13.542  13.344  15.985 -0.5231  1.0947 -0.6928
  213ETHOX  H2350959  13.519  13.254  15.826  0.2159  2.0031 -1.0490
  214ETHOX   O150960  13.427  13.173  15.985 -0.0549 -0.2693  0.5451
  214ETHOX   C150961  13.535  13.082  16.024 -0.0043 -0.1867  0.4922
  214ETHOX  H1150962  13.626  13.146  16.013  0.7899 -1.3415  0.2125
  214ETHOX  H1350963  13.563  12.992  15.966  2.5602 -0.5532  2.1182
  214ETHOX   C250964  13.512  13.038  16.158 -0.2706 -0.0889 -0.4692
  214ETHOX  H2150965  13.480  13.130  16.211  1.0050  0.3241 -0.3803
  214ETHOX  H2350966  13.606  13.008  16.209 -0.6007  2.7161  2.0797
  215ETHOX   O150967  13.413  12.940  16.164 -0.2063  0.1227 -0.2043
  215ETHOX   C150968  13.477  12.807  16.166  0.6652 -0.4188  0.4921
  215ETHOX  H1150969  13.566  12.794  16.100 -0.0407 -3.0840 -0.0493
  215ETHOX  H1350970  13.506  12.784  16.271  0.7978 -0.3435  0.4723
  215ETHOX   C250971  13.372  12.694  16.147 -0.3553  0.1259 -1.1143
  215ETHOX  H2150972  13.288  12.694  16.218  0.4968  1.0841 -0.0624
  215ETHOX  H2350973  13.433  12.606  16.178  0.0029  0.6368 -0.3353
  216ETHOX   O150974  13.340  12.687  16.010  0.5610  0.1065 -0.1984
  216ETHOX   C150975  13.264  12.571  15.978  0.0374  0.3948 -0.4144
  216ETHOX  H1150976  13.179  12.567  16.051  1.8177  1.5527  1.8686
  216ETHOX  H1350977  13.316  12.477  16.005 -0.1085  0.5429  0.4392
  216ETHOX   C250978  13.229  12.552  15.827 -0.6436 -0.0308 -0.2349
  216ETHOX  H2150979  13.214  12.442  15.816  0.4765 -0.1631 -0.5967
  216ETHOX  H2350980  13.320  12.576  15.768  0.2829 -3.7250 -0.5645
  217ETHOX   O150981  13.109  12.618  15.777  0.3086  0.2217  0.0027
  217ETHOX   C150982  13.103  12.624  15.636 -0.3619  0.2424 -0.3485
  217ETHOX  H1150983  13.194  12.676  15.600 -0.5193  2.0992  1.7271
  217ETHOX  H1350984  13.102  12.526  15.583 -2.9083  0.1706 -0.2723
  217ETHOX   C250985  12.988  12.710  15.605 -0.1055  0.4571  0.0656
  217ETHOX  H2150986  13.009  12.766  15.511  2.6432  1.2670  1.0513
  217ETHOX  H2350987  12.998  12.786  15.686 -0.4369  0.0162  0.5273
  218ETHOX   O150988  12.870  12.636  15.597  0.2969 -0.2787 -0.2606
  218ETHOX   C150989  12.760  12.723  15.590 -0.1929 -0.3173  0.0359
  218ETHOX  H1150990  12.780  12.792  15.505  0.3608  0.4959  0.8184
  218ETHOX  H1350991  12.758  12.774  15.688 -0.9195  0.7035 -0.4911
  218ETHOX   C250992  12.624  12.640  15.561  0.1446 -0.2993  0.0899
  218ETHOX  H2150993  12.539  12.711  15.574  1.5258  0.8907  4.0482
  218ETHOX  H2350994  12.616  12.555  15.632 -0.9027  0.6843  1.1968
  219ETHOX   O150995  12.628  12.597  15.429  0.1550 -0.0939 -0.0073
  219ETHOX   C150996  12.515  12.512  15.385 -0.5007  0.1984  0.5104
  219ETHOX  H1150997  12.467  12.460  15.471  0.9130  0.0568  1.2528
  219ETHOX  H1350998  12.438  12.578  15.340 -0.8257 -1.7223 -1.9480
  219ETHOX   C250999  12.550  12.418  15.257  0.1826 -0.0407 -0.5988
  219ETHOX  H2151000  12.567  12.496  15.180 -0.3914 -0.0785 -0.7704
  219ETHOX  H2351001  12.462  12.365  15.215  0.5913 -1.8363  0.6977
  220ETHOX   O151002  12.660  12.327  15.287 -0.1301 -0.1962 -0.7686
  220ETHOX   C151003  12.732  12.303  15.171 -0.4778  0.1782 -0.0110
  220ETHOX  H1151004  12.768  12.397  15.123 -2.9842  1.5430  0.6001
  220ETHOX  H1351005  12.677  12.238  15.100  0.0564 -1.6714  1.1972
  220ETHOX   C251006  12.861  12.229  15.199 -0.2667  0.2159  0.7863
  220ETHOX  H2151007  12.896  12.174  15.109 -2.0390 -1.0592  0.8368
  220ETHOX  H2351008  12.851  12.156  15.282 -2.0769 -0.3843  0.0823
  221ETHOX   O151009  12.967  12.324  15.235  0.5922  0.6520  1.1082
  221ETHOX   C151010  13.077  12.258  15.285 -0.2472 -0.0390 -0.5050
  221ETHOX  H1151011  13.050  12.235  15.390  0.7139 -1.9953 -0.6477
  221ETHOX  H1351012  13.106  12.170  15.225 -0.9072  0.4209 -1.5257
  221ETHOX   C251013  13.187  12.365  15.278 -0.3254 -0.4739 -0.3225
  221ETHOX  H2151014  13.170  12.459  15.336 -1.8546 -3.6823  5.1718
  221ETHOX  H2351015  13.191  12.388  15.170 -1.4737  0.1847 -0.2447
  222ETHOX   O151016  13.311  12.303  15.310 -0.1694  0.0854  0.5070
  222ETHOX   C151017  13.418  12.393  15.314  0.0666 -0.5659  0.2971
  222ETHOX  H1151018  13.514  12.345  15.287  0.7035  0.7259  0.1696
  222ETHOX  H1351019  13.411  12.475  15.240 -1.5285  0.3426  1.3974
  222ETHOX   C251020  13.446  12.474  15.441 -0.4144  0.4294  0.1897
  222ETHOX  H2151021  13.360  12.514  15.497  1.2181  1.7157  1.9139
  222ETHOX  H2351022  13.519  12.556  15.422  2.3423 -1.7087  0.7190
  223ETHOX   O151023  13.509  12.388  15.528 -0.0805 -0.1948  0.5629
  223ETHOX   C151024  13.643  12.421  15.547 -0.2530 -0.2435  0.1066
  223ETHOX  H1151025  13.689  12.454  15.451 -1.8857 -0.9755 -0.9719
  223ETHOX  H1351026  13.638  12.503  15.621 -2.6380 -1.9104  1.9646
  223ETHOX   C251027  13.730  12.307  15.592  0.2658  0.8259 -0.0246
  223ETHOX  H2151028  13.668  12.249  15.664  0.1448  0.7962 -0.1514
  223ETHOX  H2351029  13.812  12.357  15.648 -1.7998  0.5532  3.5193
  224ETHOX   O151030  13.775  12.232  15.479  0.4393 -0.2793 -0.0475
  224ETHOX   C151031  13.695  12.121  15.453  0.3741 -0.3640  0.6079
  224ETHOX  H1151032  13.680  12.062  15.546  0.3514 -0.6275  0.4379
  224ETHOX  H1351033  13.594  12.159  15.426  1.2156  0.5001 -1.5445
  224ETHOX   C251034  13.760  12.028  15.342  0.2277 -0.8863 -0.3597
  224ETHOX  H2151035  13.710  11.929  15.350  1.0101 -1.1654  1.6139
  224ETHOX  H2351036  13.865  12.005  15.368  0.4889 -0.8933 -1.3685
  225ETHOX   O151037  13.749  12.084  15.216  0.1035  0.3992  0.8597
  225ETHOX   C151038  13.849  12.185  15.200  0.1568  0.0567  0.4361
  225ETHOX  H1151039  13.949  12.153  15.235  0.4374  0.1647 -0.2453
  225ETHOX  H1351040  13.822  12.281  15.248 -0.2627 -0.9534  2.3161
  225ETHOX   C251041  13.862  12.227  15.050 -0.8133 -0.2407  0.1061
  225ETHOX  H2151042  13.918  12.322  15.059  0.8350 -1.2372  0.9675
  225ETHOX  H2351043  13.762  12.238  15.003  0.0696  0.3646 -1.7459
  226ETHOX   O151044  13.941  12.134  14.976 -0.0806 -0.3096  0.5652
  226ETHOX   C151045  13.930  12.166  14.839  0.6424 -0.4705  0.1724
  226ETHOX  H1151046  13.825  12.147  14.809  0.6053 -1.9880  1.1629
  226ETHOX  H1351047  13.954  12.274  14.833 -2.1699  0.1535 -1.3576
  226ETHOX   C251048  14.037  12.092  14.752  0.5649  0.5537  0.1813
  226ETHOX  H2151049  14.129  12.106  14.813  1.2671 -1.7903 -0.2440
  226ETHOX  H2351050  14.062  12.140  14.655 -0.8594  1.4799  0.2379
  227ETHOX   O151051  14.012  11.952  14.736 -0.5783  0.3882  0.3090
  227ETHOX   C151052  14.122  11.880  14.694 -0.7284  0.3512  0.1870
  227ETHOX  H1151053  14.192  11.929  14.623  3.1307 -1.2886  2.5436
  227ETHOX  H1351054  14.088  11.789  14.642  0.9564 -1.3926  1.9533
  227ETHOX   C251055  14.220  11.835  14.808  0.4156 -0.0229  0.7334
  227ETHOX  H2151056  14.290  11.762  14.762  0.4795 -0.1847  1.0842
  227ETHOX  H2351057  14.167  11.784  14.891  4.6779 -1.8067  2.6595
  228ETHOX   O151058  14.299  11.940  14.864  0.4327 -0.2744  0.2033
  228ETHOX   C151059  14.384  11.897  14.968  0.0912 -1.0049  0.7082
  228ETHOX  H1151060  14.334  11.889  15.067 -0.5190  2.0326  0.7511
  228ETHOX  H1351061  14.425  11.799  14.938 -0.4960 -0.3365 -2.6882
  228ETHOX   C251062  14.502  11.994  14.987 -0.1313  0.5181  0.1927
  228ETHOX  H2151063  14.563  12.001  14.895 -0.1849  2.2637  0.2598
  228ETHOX  H2351064  14.569  11.945  15.061  0.4028  0.0850 -0.5684
  229ETHOX   O151065  14.467  12.125  15.018 -0.1214  0.0631 -0.1856
  229ETHOX   C151066  14.589  12.196  15.047 -0.2271  0.4253  0.2713
  229ETHOX  H1151067  14.640  12.222  14.952 -1.1119  1.3747  0.0431
  229ETHOX  H1351068  14.657  12.126  15.100 -1.0709  0.0574  0.9040
  229ETHOX   C251069  14.555  12.321  15.139 -0.2668 -0.0562  0.6801
  229ETHOX  H2151070  14.493  12.389  15.077 -1.5124 -0.6269  1.2647
  229ETHOX  H2351071  14.644  12.381  15.164  0.3226  0.5293 -2.3486
  230ETHOX   O151072  14.479  12.277  15.252  0.0676  0.2100  0.4497
  230ETHOX   C151073  14.437  12.389  15.333 -0.7373 -0.6114  0.6689
  230ETHOX  H1151074  14.524  12.418  15.396 -0.2298 -0.8690  0.1000
  230ETHOX  H1351075  14.395  12.473  15.273  0.1701 -1.8781 -1.8745
  230ETHOX   C251076  14.332  12.358  15.429  0.2007  0.6075 -0.6217
  230ETHOX  H2151077  14.329  12.435  15.508 -1.2387  0.6039 -0.6522
  230ETHOX  H2351078  14.359  12.257  15.469  0.6801  1.1664  0.5005
  231ETHOX   O151079  14.204  12.353  15.368 -0.4242 -0.0036 -0.4827
  231ETHOX   C151080  14.098  12.338  15.468  0.0067  0.5815  0.2349
  231ETHOX  H1151081  14.011  12.364  15.405  1.5347  2.7238 -1.1325
  231ETHOX  H1351082  14.110  12.417  15.545 -0.2984 -0.3598  1.2837
  231ETHOX   C251083  14.104  12.196  15.521  0.0316 -0.2457 -0.1880
  231ETHOX  H2151084  14.131  12.124  15.441  1.3451 -0.1812  0.1755
  231ETHOX  H2351085  14.006  12.158  15.558 -0.1589 -2.3924 -2.6496
  232ETHOX   O151086  14.200  12.202  15.626 -0.6451  0.5124  0.0715
  232ETHOX   C151087  14.200  12.081  15.703  0.2565 -0.6873  0.1262
  232ETHOX  H1151088  14.106  12.078  15.762  0.1556 -0.3360 -0.0134
  232ETHOX  H1351089  14.219  11.991  15.641  0.6341 -1.4423  1.3147
  232ETHOX   C251090  14.311  12.065  15.804 -0.1257  0.1420 -1.0460
  232ETHOX  H2151091  14.407  12.091  15.754  0.4980  1.5098  0.7691
  232ETHOX  H2351092  14.319  11.958  15.833 -1.4185  0.1381 -0.6595
  233ETHOX   O151093  14.287  12.147  15.912 -0.0814 -0.1335 -0.1434
  233ETHOX   C151094  14.404  12.167  15.992  0.1178 -0.0688  0.1486
  233ETHOX  H1151095  14.488  12.177  15.921 -0.9739  1.2171 -0.9949
  233ETHOX  H1351096  14.391  12.258  16.054 -1.3882 -1.1229  1.5022
  233ETHOX   C251097  14.436  12.066  16.103  0.5208 -0.5001 -0.4642
  233ETHOX  H2151098  14.537  12.087  16.145  1.1477 -2.1593 -1.0543
  233ETHOX  H2351099  14.453  11.967  16.056  4.2244 -0.1885 -0.0410
  234ETHOX   O151100  14.333  12.064  16.193 -0.2221 -0.3128 -0.2745
  234ETHOX   C151101  14.362  12.140  16.301  0.1225  0.0543 -0.0885
  234ETHOX  H1151102  14.453  12.101  16.350  0.3380 -0.5556 -0.9495
  234ETHOX  H1351103  14.373  12.243  16.259 -1.3060  0.4049  0.3187
  234ETHOX   C251104  14.251  12.149  16.403  0.3703  0.2148 -0.3917
  234ETHOX  H2151105  14.292  12.201  16.493  0.6945  3.1380 -2.1022
  234ETHOX  H2351106  14.229  12.045  16.436  0.5384  0.5614  0.8730
  235ETHOX   O151107  14.142  12.227  16.360 -0.0376  0.3451 -0.1577
  235ETHOX   C151108  14.057  12.255  16.473  0.2849  0.6134  0.7266
  235ETHOX  H1151109  13.953  12.249  16.433  0.1627 -1.0077  1.2079
  235ETHOX  H1351110  14.063  12.163  16.535 -0.4706  1.0750  1.5202
  235ETHOX   C251111  14.098  12.386  16.546 -0.1781 -0.1292 -0.0838
  235ETHOX  H2151112  14.104  12.464  16.467  1.3044  1.1029  1.1707
  235ETHOX  H2351113  14.196  12.388  16.598 -0.2015 -0.0240 -0.0457
  236ETHOX   O151114  13.994  12.414  16.637  0.0455  0.9863 -0.1217
  236ETHOX   C151115  13.977  12.558  16.655  0.0581  0.6294  0.9292
  236ETHOX  H1151116  13.947  12.591  16.554  3.0768  0.6611 -0.0280
  236ETHOX  H1351117  14.078  12.594  16.684  0.9194 -0.6352 -0.3805
  236ETHOX   C251118  13.876  12.586  16.768  0.2084 -0.5760 -0.4161
  236ETHOX  H2151119  13.781  12.528  16.768 -0.4991  0.4793  1.0614
  236ETHOX  H2351120  13.841  12.692  16.760  0.3407 -0.6002 -1.4540
  237ETHOX   O151121  13.934  12.566  16.895 -0.0536  0.7419  0.1989
  237ETHOX   C151122  13.853  12.612  17.006  0.1263 -0.0730  0.1150
  237ETHOX  H1151123  13.828  12.720  16.995 -1.8304 -0.5268 -0.2986
  237ETHOX  H1351124  13.755  12.561  16.994  0.4647 -0.4067 -1.4232
  237ETHOX   C251125  13.922  12.596  17.139  0.1036  0.1716  0.0858
  237ETHOX  H2151126  13.886  12.645  17.232 -1.2369 -2.0292  0.8172
  237ETHOX  H2351127  14.029  12.626  17.136  0.1768  0.1833  1.7559
  238ETHOX   O151128  13.921  12.460  17.173 -0.6686  0.2583  0.2578
  238ETHOX   C151129  13.988  12.431  17.293 -0.4751 -0.7592 -0.1900
  238ETHOX  H1151130  14.071  12.500  17.322 -2.0438  1.1198  0.0279
  238ETHOX  H1351131  14.025  12.327  17.299  0.9873 -0.2273  0.7276
  238ETHOX   C251132  13.882  12.441  17.403  0.4733 -0.4991 -0.4705
  238ETHOX  H2151133  13.810  12.521  17.378  2.2678  0.3288 -3.5959
  238ETHOX  H2351134  13.940  12.458  17.496  1.3487 -0.1779 -1.0531
  239ETHOX   O151135  13.801  12.323  17.419 -0.2872 -0.4415  0.7051
  239ETHOX   C151136  13.724  12.336  17.535  0.2049 -0.1412  0.0566
  239ETHOX  H1151137  13.786  12.366  17.621  0.9436 -0.5016 -0.3392
  239ETHOX  H1351138  13.655  12.423  17.534 -0.8229 -0.9327 -0.0349
  239ETHOX   C251139  13.643  12.204  17.565 -0.4935 -0.4835 -0.3212
  239ETHOX  H2151140  13.566  12.218  17.645 -1.2409 -0.7335 -0.9833
  239ETHOX  H2351141  13.594  12.179  17.469  0.7981  1.2342 -1.4999
  240ETHOX   O151142  13.730  12.102  17.614 -0.0956 -0.4997  0.2626
  240ETHOX   C151143  13.661  11.983  17.639 -0.7369 -0.5093 -0.1017
  240ETHOX  H1151144  13.611  11.944  17.548 -3.8624  2.0325  0.3165
  240ETHOX  H1351145  13.569  12.001  17.700 -0.2582  0.2741  0.4147
  240ETHOX   C251146  13.766  11.893  17.705 -0.4611  0.1655  0.7468
  240ETHOX  H2151147  13.861  11.896  17.646 -0.3423 -1.0060  0.8463
  240ETHOX  H2351148  13.728  11.789  17.696  0.6634 -0.0350 -4.0756
  241ETHOX   O151149  13.798  11.931  17.839  0.2516  0.0696  0.2874
  241ETHOX   C151150  13.734  11.862  17.947  0.5869  0.0883 -0.9270
  241ETHOX  H1151151  13.628  11.843  17.919 -0.5225  1.3573  2.0071
  241ETHOX  H1351152  13.772  11.759  17.962 -1.1067 -0.3534  0.6290
  241ETHOX   C251153  13.743  11.926  18.083 -0.8626 -0.4424 -0.5914
  241ETHOX  H2151154  13.845  11.961  18.110 -1.5480  0.1473  1.3401
  241ETHOX  H2351155  13.707  11.846  18.151  1.3757  1.0196  2.5588
  242ETHOX   O151156  13.660  12.043  18.085  0.1859  0.7587  0.0788
  242ETHOX   C151157  13.689  12.124  18.195  0.2051 -0.1097 -0.1710
  242ETHOX  H1151158  13.791  12.166  18.184  0.2636 -0.3836 -0.7061
  242ETHOX  H1351159  13.696  12.054  18.281 -0.6724 -1.2483 -0.9874
  242ETHOX   C251160  13.587  12.241  18.198 -0.0817 -0.1117 -0.5486
  242ETHOX  H2151161  13.487  12.205  18.231  0.2485  0.4157  1.1223
  242ETHOX  H2351162  13.587  12.282  18.094 -1.8933 -0.8887 -0.8917
  243ETHOX   O151163  13.621  12.335  18.296 -0.0913 -0.5217 -0.5285
  243ETHOX   C151164  13.570  12.468  18.274  0.5174  0.5984  0.3404
  243ETHOX  H1151165  13.500  12.461  18.187 -0.0167 -0.5856  0.8406
  243ETHOX  H1351166  13.507  12.484  18.365  0.5727  1.2292  0.2736
  243ETHOX   C251167  13.673  12.579  18.270  0.0002 -0.1184  0.0953
  243ETHOX  H2151168  13.751  12.559  18.347  1.8792  2.2276 -1.0481
  243ETHOX  H2351169  13.626  12.675  18.300 -0.1053 -0.6012  1.5328
  244ETHOX   O151170  13.732  12.590  18.136  0.4227 -0.0275  0.0066
  244ETHOX   C151171  13.835  12.688  18.137  0.2088 -0.0688  0.0221
  244ETHOX  H1151172  13.909  12.660  18.215 -0.7084 -1.1301  0.5387
  244ETHOX  H1351173  13.781  12.778  18.174 -0.5985 -0.2449 -0.6953
  244ETHOX   C251174  13.890  12.723  17.998  0.2678  0.2274 -0.4559
  244ETHOX  H2151175  13.962  12.807  18.011 -0.1296  0.4154  0.6338
  244ETHOX  H2351176  13.802  12.758  17.940 -0.2860 -0.0830  0.1778
  245ETHOX   O151177  13.952  12.611  17.935 -0.0542  0.7455  0.5396
  245ETHOX   C151178  13.986  12.648  17.801 -1.1846 -0.4195  0.2290
  245ETHOX  H1151179  13.894  12.646  17.739 -1.6149 -1.8534  0.8637
  245ETHOX  H1351180  14.032  12.748  17.789 -0.7832 -0.6081  0.1736
  245ETHOX   C251181  14.081  12.539  17.752  0.0460  0.4646  0.2060
  245ETHOX  H2151182  14.183  12.542  17.796  0.1864  2.5914 -0.1382
  245ETHOX  H2351183  14.085  12.548  17.641  2.2234 -1.9917 -0.0104
  246ETHOX   O151184  14.016  12.416  17.760  0.0788  0.0218 -0.0782
  246ETHOX   C151185  14.099  12.313  17.711  0.0205 -0.6249 -0.6391
  246ETHOX  H1151186  14.197  12.357  17.683 -0.1592  0.7129  0.7024
  246ETHOX  H1351187  14.054  12.266  17.621  1.0392  0.0589 -1.5322
  246ETHOX   C251188  14.110  12.198  17.812  0.8113 -0.3707  0.0706
  246ETHOX  H2151189  14.165  12.114  17.764 -2.0417 -1.0246 -2.3326
  246ETHOX  H2351190  14.002  12.181  17.832  0.4514  1.3355 -0.2240
  247ETHOX   O151191  14.167  12.232  17.941 -0.1528  0.4219  0.6683
  247ETHOX   C151192  14.189  12.114  18.021 -0.0315  0.1155 -0.4462
  247ETHOX  H1151193  14.100  12.060  18.059 -0.5697 -1.4103 -3.5378
  247ETHOX  H1351194  14.234  12.043  17.948  0.7221  0.2709 -0.1415
  247ETHOX   C251195  14.277  12.143  18.145  0.4081  0.0177 -0.0277
  247ETHOX  H2151196  14.310  12.057  18.207  1.2410  0.9032  0.8147
  247ETHOX  H2351197  14.370  12.195  18.114  1.5197 -1.1732  1.1744
  248ETHOX   O151198  14.210  12.234  18.233 -0.2110 -0.0871 -0.2059
  248ETHOX   C151199  14.163  12.169  18.347  0.0989  0.0928  0.2538
  248ETHOX  H1151200  14.121  12.074  18.308  2.4222 -0.1737 -1.7947
  248ETHOX  H1351201  14.238  12.143  18.424  0.8129  0.6922 -0.2256
  248ETHOX   C251202  14.055  12.264  18.419  0.4679 -0.2956 -0.4965
  248ETHOX  H2151203  14.017  12.212  18.509  1.4995 -4.7669 -2.3727
  248ETHOX  H2351204  13.982  12.291  18.340 -1.5507 -2.5352  0.4879
  249ETHOX   O151205  14.112  12.384  18.472  0.1643  0.4107 -0.4569
  249ETHOX   C151206  14.024  12.453  18.563 -0.3800 -0.3919  0.7933
  249ETHOX  H1151207  13.933  12.472  18.502  0.3162 -0.9817 -0.4632
  249ETHOX  H1351208  13.986  12.391  18.647  0.0327 -0.9807  0.5465
  249ETHOX   C251209  14.103  12.575  18.620 -0.4738 -0.3432 -1.1551
  249ETHOX  H2151210  14.206  12.540  18.641 -0.8024 -1.0453 -0.6270
  249ETHOX  H2351211  14.044  12.609  18.708  1.3212 -1.4610  0.5647
  250ETHOX   O151212  14.102  12.682  18.524  0.0896  0.0111  0.2974
  250ETHOX   C151213  14.173  12.791  18.582 -0.6004 -0.2622 -0.8267
  250ETHOX  H1151214  14.117  12.836  18.667  0.3918  2.1645 -1.3695
  250ETHOX  H1351215  14.266  12.765  18.637 -1.3898 -0.4198  0.4829
  250ETHOX   C251216  14.197  12.897  18.480 -0.2560 -0.5237 -0.2116
  250ETHOX  H2151217  14.250  12.855  18.392  0.3516  1.2434 -0.7308
  250ETHOX  H2351218  14.275  12.964  18.523  0.8602  0.0079 -2.8856
  251ETHOX   O151219  14.086  12.974  18.437  0.1534  0.0855 -0.4290
  251ETHOX   C151220  14.052  13.087  18.529  0.4114 -0.6048  0.9340
  251ETHOX  H1151221  14.130  13.163  18.510  0.2175 -1.0440 -2.1501
  251ETHOX  H1351222  14.055  13.047  18.632 -0.4480 -1.1025  0.7781
  251ETHOX   C251223  13.915  13.154  18.495  0.7260 -0.0049  0.2743
  251ETHOX  H2151224  13.933  13.202  18.397  1.8130  2.2611  1.5189
  251ETHOX  H2351225  13.912  13.236  18.570  0.7375  2.7870 -2.5707
  252ETHOX   O151226  13.806  13.060  18.504 -0.2949 -0.7613  0.1371
  252ETHOX   C151227  13.681  13.124  18.509  0.3521  0.0972  0.0953
  252ETHOX  H1151228  13.691  13.190  18.598  0.8178 -3.0163  2.5191
  252ETHOX  H1351229  13.669  13.183  18.415  1.3970  2.3551  1.2891
  252ETHOX   C251230  13.571  13.011  18.520  0.7692 -0.3708 -0.3539
  252ETHOX  H2151231  13.477  13.068  18.536  0.5374 -0.3097 -1.7925
  252ETHOX  H2351232  13.590  12.955  18.615  1.1011 -0.6398 -0.5789
  253ETHOX   O151233  13.553  12.940  18.400 -0.6505 -0.3250  0.3162
  253ETHOX   C151234  13.437  12.861  18.396 -0.2167 -0.1392 -0.8132
  253ETHOX  H1151235  13.345  12.902  18.444  0.3526 -0.6103  0.7566
  253ETHOX  H1351236  13.475  12.774  18.453  0.3746  0.3403 -0.4479
  253ETHOX   C251237  13.410  12.823  18.256  0.0176  0.3699  0.0738
  253ETHOX  H2151238  13.510  12.806  18.212  0.3818 -0.0372  1.0162
  253ETHOX  H2351239  13.359  12.906  18.203 -0.7107  0.1229  0.3683
  254ETHOX   O151240  13.320  12.712  18.249  0.3899  0.9902 -0.5263
  254ETHOX   C151241  13.282  12.676  18.121 -0.3445  0.1034  0.1816
  254ETHOX  H1151242  13.202  12.745  18.087 -0.6643  0.4712  1.6049
  254ETHOX  H1351243  13.376  12.658  18.065 -1.1681 -2.2699 -0.5519
  254ETHOX   C251244  13.221  12.534  18.137  1.0829 -0.9007  0.3073
  254ETHOX  H2151245  13.293  12.459  18.177  3.1796  0.8518  0.0363
  254ETHOX  H2351246  13.200  12.502  18.033 -0.8981  0.1847  0.3247
  255ETHOX   O151247  13.100  12.541  18.214  0.2544  0.0955  0.1677
  255ETHOX   C151248  13.038  12.412  18.225  0.0325 -0.2326  0.0647
  255ETHOX  H1151249  13.104  12.354  18.293 -0.0678  1.6403  1.8658
  255ETHOX  H1351250  13.033  12.355  18.130 -0.8296 -0.6994  0.3768
  255ETHOX   C251251  12.896  12.423  18.288 -0.4196 -0.2102  0.7907
  255ETHOX  H2151252  12.908  12.492  18.374 -0.1299 -1.0265  1.4130
  255ETHOX  H2351253  12.863  12.322  18.322 -2.5142 -0.4497 -1.6544
  256ETHOX   O151254  12.790  12.473  18.200  0.9121 -0.3781 -0.3469
  256ETHOX   C151255  12.802  12.614  18.187 -0.9104  0.4007  0.8842
  256ETHOX  H1151256  12.810  12.665  18.285 -0.2664  1.6928  0.1803
  256ETHOX  H1351257  12.888  12.643  18.123 -1.1390 -1.2979 -0.2508
  256ETHOX   C251258  12.677  12.676  18.116  0.5387 -0.5699  0.1661
  256ETHOX  H2151259  12.689  12.786  18.099  0.6667 -0.4742  0.8404
  256ETHOX  H2351260  12.591  12.667  18.185  0.0200 -0.9499 -0.5148
  257ETHOX   O151261  12.639  12.610  17.999  0.4515  0.1187  0.6864
  257ETHOX   C151262  12.506  12.640  17.950  0.2845 -0.1050 -0.3376
  257ETHOX  H1151263  12.469  12.727  18.007  2.2078  0.6691 -0.1716
  257ETHOX  H1351264  12.433  12.558  17.965  2.5341 -2.2064 -0.2271
  257ETHOX   C251265  12.502  12.689  17.801  0.2134  1.0673  0.4303
  257ETHOX  H2151266  12.396  12.688  17.767  0.8679  0.7030 -1.7567
  257ETHOX  H2351267  12.549  12.623  17.726  0.0163  3.4102 -1.8953
  258ETHOX   O151268  12.554  12.821  17.782 -0.4155 -0.0934  0.2729
  258ETHOX   C151269  12.514  12.878  17.655 -0.4646  0.3987 -0.2694
  258ETHOX  H1151270  12.514  12.807  17.570 -0.7284 -1.2443  1.0698
  258ETHOX  H1351271  12.406  12.907  17.660 -0.7778 -0.5100 -1.3382
  258ETHOX   C251272  12.594  13.010  17.626 -0.6618  0.4378  0.2568
  258ETHOX  H2151273  12.566  13.050  17.526 -1.7806 -1.4349 -0.2277
  258ETHOX  H2351274  12.703  12.991  17.633 -0.9467 -1.5459 -0.1450
  259ETHOX   O151275  12.551  13.111  17.715  0.4189  0.4160  0.0943
  259ETHOX   C151276  12.623  13.233  17.687 -0.0762 -0.0019 -0.7734
  259ETHOX  H1151277  12.734  13.223  17.677  0.2175  0.7840  1.2020
  259ETHOX  H1351278  12.586  13.266  17.588  1.4829 -0.5387 -1.5724
  259ETHOX   C251279  12.609  13.340  17.796  0.7491  0.1615 -0.6581
  259ETHOX  H2151280  12.501  13.340  17.825  0.7550  0.5767 -0.6318
  259ETHOX  H2351281  12.642  13.441  17.761 -2.0458  2.4807  2.6821
  260ETHOX   O151282  12.673  13.301  17.914 -0.4138  0.1111 -0.2930
  260ETHOX   C151283  12.685  13.424  17.992 -0.7361 -0.1350  1.0214
  260ETHOX  H1151284  12.585  13.472  17.990 -0.2877  0.8175  0.6889
  260ETHOX  H1351285  12.707  13.395  18.097  0.8114 -0.0867  0.7395
  260ETHOX   C251286  12.792  13.529  17.959 -0.2652  0.8464  0.8190
  260ETHOX  H2151287  12.787  13.605  18.039  0.7998  2.9599 -1.0076
  260ETHOX  H2351288  12.778  13.581  17.861 -0.0158 -0.4742  0.0586
  261ETHOX   O151289  12.924  13.488  17.967 -0.1348 -0.2159 -0.3332
  261ETHOX   C151290  13.009  13.597  17.948  0.2740  0.3901  0.0476
  261ETHOX  H1151291  12.963  13.679  17.890  1.4497  0.8140 -0.3263
  261ETHOX  H1351292  13.052  13.625  18.046 -0.7205 -1.5090  1.0886
  261ETHOX   C251293  13.125  13.563  17.858 -0.3186  0.2627  0.5124
  261ETHOX  H2151294  13.177  13.475  17.903 -0.0677 -1.4872 -2.8765
  261ETHOX  H2351295  13.199  13.645  17.863  0.3043 -0.2840  0.5219
  262ETHOX   O151296  13.084  13.539  17.725  0.1709 -0.1159  0.2544
  262ETHOX   C151297  13.068  13.397  17.692  0.2745  0.0852 -0.1246
  262ETHOX  H1151298  12.990  13.353  17.758  2.0651 -0.8303  1.4878
  262ETHOX  H1351299  13.161  13.339  17.711  0.4179  0.2961 -0.1908
  262ETHOX   C251300  13.028  13.391  17.542 -0.4324 -0.3356 -0.2332
  262ETHOX  H2151301  13.118  13.412  17.481  0.8969  0.1323  1.7949
  262ETHOX  H2351302  12.956  13.475  17.532  1.6656  1.5275 -0.4580
  263ETHOX   O151303  12.982  13.263  17.516  0.1506  0.1750 -0.4985
  263ETHOX   C151304  12.961  13.249  17.378  1.0835 -0.0873 -0.1464
  263ETHOX  H1151305  13.059  13.246  17.325  1.9026  1.9802  1.1347
  263ETHOX  H1351306  12.884  13.321  17.343 -1.5078 -1.0569  3.1010
  263ETHOX   C251307  12.910  13.105  17.355 -0.1304  0.1944 -0.7594
  263ETHOX  H2151308  12.878  13.099  17.249  0.7416 -0.7080 -0.9931
  263ETHOX  H2351309  12.817  13.089  17.414 -0.0637 -3.4859 -1.4060
  264ETHOX   O151310  13.010  13.008  17.383 -0.5327  0.5021  0.2775
  264ETHOX   C151311  12.972  12.876  17.334 -0.0727  0.2750  0.0960
  264ETHOX  H1151312  12.979  12.873  17.223  1.4646 -0.9060  0.1972
  264ETHOX  H1351313  12.868  12.855  17.366  0.6479 -1.2608  1.5812
  264ETHOX   C251314  13.069  12.767  17.390 -0.2067 -0.2020 -0.2907
  264ETHOX  H2151315  13.170  12.782  17.348  0.5708 -0.9762  1.1968
  264ETHOX  H2351316  13.050  12.663  17.355 -0.4502  0.0810 -1.0147
  265ETHOX   O151317  13.068  12.785  17.531  0.1862 -0.2084 -0.4802
  265ETHOX   C151318  13.162  12.690  17.582 -0.8274 -0.3625  0.1223
  265ETHOX  H1151319  13.121  12.590  17.554 -1.8487  0.0801  0.0020
  265ETHOX  H1351320  13.268  12.698  17.547 -1.0919 -1.3684 -0.9693
  265ETHOX   C251321  13.162  12.701  17.737  0.6563 -0.2473 -0.1100
  265ETHOX  H2151322  13.221  12.617  17.778 -1.1523 -1.7912 -0.5220
  265ETHOX  H2351323  13.063  12.683  17.784  1.1507  0.3252  1.2041
  265ETHOX   OZ51324  13.223  12.825  17.775  0.8856 -0.1388 -0.6430
  265ETHOX  HZ151325  13.169  12.894  17.737 -0.7040 -2.0467 -2.0874
    1ETHOX   O151326   9.159   6.298  10.075  0.2758 -0.1837 -0.0700
    1ETHOX  HO151327   9.197   6.248  10.002  1.1700  0.5555 -0.1292
    1ETHOX   C151328   9.023   6.250  10.071  0.0768 -0.1692  0.4292
    1ETHOX  H1151329   8.975   6.308  10.153  1.3060  1.5008  0.0381
    1ETHOX  H1351330   9.016   6.143  10.099 -0.5891  0.6626  4.0714
    1ETHOX   C251331   8.959   6.283   9.937  0.0742 -0.4423 -0.4672
    1ETHOX  H2151332   8.995   6.380   9.898 -4.4634  1.7075  0.0593
    1ETHOX  H2351333   8.852   6.303   9.955  0.4203 -0.6831  2.2685
    2ETHOX   O151334   8.996   6.179   9.846  0.2868 -0.1406 -0.0600
    2ETHOX   C151335   8.943   6.202   9.720 -0.0508  0.0481 -0.2006
    2ETHOX  H1151336   8.834   6.212   9.740  0.1901  0.5057  0.9459
    2ETHOX  H1351337   8.976   6.300   9.680 -0.5627  0.6486  0.8146
    2ETHOX   C251338   8.977   6.087   9.615  0.6589 -0.4166 -0.7434
    2ETHOX  H2151339   8.896   6.099   9.540  1.2384  0.3308 -1.2679
    2ETHOX  H2351340   8.961   5.990   9.666 -2.7552  0.9737  1.1385
    3ETHOX   O151341   9.115   6.115   9.584  0.1576 -0.2737 -0.1006
    3ETHOX   C151342   9.126   6.212   9.483  0.3105 -0.2670 -0.0462
    3ETHOX  H1151343   9.070   6.305   9.509 -0.2619 -1.2977  2.6612
    3ETHOX  H1351344   9.090   6.175   9.384  2.9378 -2.2598 -0.3720
    3ETHOX   C251345   9.272   6.263   9.480  0.1384 -0.7125 -0.3110
    3ETHOX  H2151346   9.281   6.322   9.387 -1.1722  2.4051  1.3998
    3ETHOX  H2351347   9.350   6.184   9.483  0.7907 -0.1164 -1.0893
    4ETHOX   O151348   9.294   6.357   9.584  0.6487 -0.5497  0.0062
    4ETHOX   C151349   9.436   6.398   9.595  0.2462  0.5174 -0.5659
    4ETHOX  H1151350   9.486   6.371   9.499  1.8990 -1.6200  0.7820
    4ETHOX  H1351351   9.433   6.507   9.616  0.4475  0.0443  2.2304
    4ETHOX   C251352   9.517   6.326   9.708 -0.1643  0.0874  0.9600
    4ETHOX  H2151353   9.627   6.342   9.697 -0.4404  0.7433 -1.5481
    4ETHOX  H2351354   9.494   6.219   9.692  1.2522 -0.1500  0.3325
    5ETHOX   O151355   9.471   6.385   9.828  0.5149  0.1455  0.2131
    5ETHOX   C151356   9.550   6.335   9.937  0.2137 -0.7613  0.7260
    5ETHOX  H1151357   9.526   6.230   9.962 -1.6206 -0.9704 -1.5721
    5ETHOX  H1351358   9.658   6.360   9.922  0.1343 -0.1343  1.1175
    5ETHOX   C251359   9.524   6.423  10.069  0.0989  0.6228  0.6772
    5ETHOX  H2151360   9.562   6.379  10.164  0.8057  2.9915  1.5852
    5ETHOX  H2351361   9.414   6.436  10.084  0.3814  3.1494  1.1662
    6ETHOX   O151362   9.586   6.546  10.043 -0.1798 -0.3879 -0.0233
    6ETHOX   C151363   9.530   6.644  10.131 -0.2789  0.7828 -0.1315
    6ETHOX  H1151364   9.430   6.680  10.098 -0.6705  0.9047  1.1444
    6ETHOX  H1351365   9.519   6.590  10.227  3.2569  0.7085  0.3575
    6ETHOX   C251366   9.618   6.771  10.146  0.7149 -0.0098 -0.2759
    6ETHOX  H2151367   9.574   6.850  10.210  4.8586  2.8196 -0.5265
    6ETHOX  H2351368   9.638   6.822  10.049  2.9860 -0.3485 -0.0442
    7ETHOX   O151369   9.745   6.738  10.208  0.3012 -0.6622 -0.2944
    7ETHOX   C151370   9.795   6.858  10.276  1.5850 -0.2389  0.2565
    7ETHOX  H1151371   9.828   6.941  10.210  0.6141  0.1572  0.2563
    7ETHOX  H1351372   9.715   6.893  10.344  0.0226 -1.3824 -0.9144
    7ETHOX   C251373   9.907   6.818  10.371  0.5918  0.4509 -0.7845
    7ETHOX  H2151374   9.877   6.725  10.424 -0.4997  1.1330 -0.1632
    7ETHOX  H2351375   9.919   6.906  10.439  0.7209 -0.0444 -0.1572
    8ETHOX   O151376  10.028   6.807  10.298  0.3456  0.3158 -0.0016
    8ETHOX   C151377  10.140   6.820  10.381  0.4068  0.0527  0.1899
    8ETHOX  H1151378  10.120   6.904  10.450 -1.3873 -0.3650  0.2466
    8ETHOX  H1351379  10.220   6.856  10.313  0.8424  0.8108  1.0927
    8ETHOX   C251380  10.173   6.692  10.455 -0.6510  1.0680  0.5760
    8ETHOX  H2151381  10.078   6.657  10.499 -1.8108  2.6306 -0.5415
    8ETHOX  H2351382  10.240   6.718  10.540 -1.2678 -4.4529  3.1865
    9ETHOX   O151383  10.243   6.592  10.383 -0.2699 -0.1945 -0.3239
    9ETHOX   C151384  10.273   6.485  10.477  0.1987  0.1505  0.1276
    9ETHOX  H1151385  10.330   6.544  10.552  0.6393  0.9793 -0.8398
    9ETHOX  H1351386  10.176   6.440  10.508 -0.6853  1.8037 -0.1242
    9ETHOX   C251387  10.370   6.372  10.424 -0.5112 -0.5025  0.3653
    9ETHOX  H2151388  10.329   6.317  10.337  1.3744 -1.1881 -0.1503
    9ETHOX  H2351389  10.387   6.291  10.499 -0.9008 -1.2490 -0.3392
   10ETHOX   O151390  10.500   6.422  10.382  0.2474 -0.0547  0.5961
   10ETHOX   C151391  10.579   6.320  10.322 -0.4028  0.2061 -0.6590
   10ETHOX  H1151392  10.524   6.281  10.234  0.9357 -2.4623 -0.4174
   10ETHOX  H1351393  10.594   6.235  10.391 -1.8385  0.0926 -0.4622
   10ETHOX   C251394  10.714   6.389  10.280  0.6257 -0.2308  0.5725
   10ETHOX  H2151395  10.700   6.489  10.232  0.6546 -0.0664  0.9071
   10ETHOX  H2351396  10.771   6.316  10.220  0.2208 -2.5266  2.8230
   11ETHOX   O151397  10.788   6.410  10.398 -0.6830 -0.8253 -0.5122
   11ETHOX   C151398  10.884   6.509  10.372  0.1606 -0.5746  0.0055
   11ETHOX  H1151399  10.951   6.464  10.296  3.0765  0.7626  1.5935
   11ETHOX  H1351400  10.837   6.607  10.350 -0.2842 -1.1448 -1.7061
   11ETHOX   C251401  10.953   6.523  10.508  0.2728 -0.6726  0.0451
   11ETHOX  H2151402  10.996   6.625  10.514 -0.3736 -0.3343 -0.8263
   11ETHOX  H2351403  10.881   6.525  10.593  0.8505 -1.7658  0.5881
   12ETHOX   O151404  11.050   6.428  10.544  0.0905  0.1211  0.3438
   12ETHOX   C151405  11.064   6.411  10.682 -0.0903 -0.6201 -0.2276
   12ETHOX  H1151406  10.975   6.351  10.711 -1.3246  0.9481 -0.5643
   12ETHOX  H1351407  11.045   6.507  10.735  2.5228 -0.0058 -0.2813
   12ETHOX   C251408  11.197   6.344  10.719 -0.3045 -0.4796  0.4061
   12ETHOX  H2151409  11.219   6.254  10.658  1.3979 -0.8258  1.4738
   12ETHOX  H2351410  11.188   6.308  10.824 -0.6034  2.6309  1.5386
   13ETHOX   O151411  11.310   6.429  10.711 -0.9246 -0.5321  0.3785
   13ETHOX   C151412  11.421   6.385  10.783  0.1140  0.0733 -0.1815
   13ETHOX  H1151413  11.494   6.468  10.776 -0.1792  0.4627  1.1969
   13ETHOX  H1351414  11.399   6.379  10.891  0.6533 -0.5453 -0.0963
   13ETHOX   C251415  11.490   6.267  10.727  0.5275  0.6036 -0.2989
   13ETHOX  H2151416  11.600   6.268  10.743  0.7441 -0.8485 -1.4494
   13ETHOX  H2351417  11.482   6.277  10.616 -1.7170  1.0756 -0.1458
   14ETHOX   O151418  11.438   6.137  10.771  0.6913  0.1585  0.1406
   14ETHOX   C151419  11.466   6.034  10.681  0.0258 -0.0929 -0.2184
   14ETHOX  H1151420  11.571   6.002  10.667 -0.3793 -0.6704 -2.2080
   14ETHOX  H1351421  11.437   6.065  10.578  1.6397  0.7357 -0.4693
   14ETHOX   C251422  11.381   5.915  10.715  0.1578  0.4394 -0.5778
   14ETHOX  H2151423  11.390   5.830  10.644  1.2108  0.5731 -0.6211
   14ETHOX  H2351424  11.274   5.944  10.729  0.3804  0.6152  0.8298
   15ETHOX   O151425  11.431   5.864  10.834  0.2197  0.0829  0.0739
   15ETHOX   C151426  11.336   5.779  10.897  0.3137 -0.0366  0.4059
   15ETHOX  H1151427  11.236   5.826  10.906  1.2949  2.2505  0.1222
   15ETHOX  H1351428  11.329   5.690  10.832 -2.8564  1.5334 -1.6248
   15ETHOX   C251429  11.387   5.741  11.035  0.2992  0.1233 -0.4680
   15ETHOX  H2151430  11.318   5.668  11.083  0.0878  1.1516  0.8386
   15ETHOX  H2351431  11.488   5.695  11.030  0.3611  0.2356 -0.2791
   16ETHOX   O151432  11.396   5.853  11.129  0.4279  0.1175 -0.3857
   16ETHOX   C151433  11.464   5.824  11.249 -1.0265  0.1530 -0.2955
   16ETHOX  H1151434  11.401   5.767  11.319 -0.0841  2.7040  2.8666
   16ETHOX  H1351435  11.553   5.760  11.227 -0.9640  0.6937 -1.7879
   16ETHOX   C251436  11.518   5.943  11.327 -0.1689 -0.3489 -0.1082
   16ETHOX  H2151437  11.530   6.030  11.259 -1.3380 -0.6781 -0.7818
   16ETHOX  H2351438  11.610   5.907  11.376  0.8772  0.0106 -1.7256
   17ETHOX   O151439  11.425   5.981  11.428 -0.3882 -0.4386  0.5450
   17ETHOX   C151440  11.480   6.090  11.510  1.2134 -0.3381 -0.2399
   17ETHOX  H1151441  11.578   6.064  11.556 -0.4851 -1.6887  2.9551
   17ETHOX  H1351442  11.497   6.174  11.440 -1.4366 -0.2444 -0.8814
   17ETHOX   C251443  11.388   6.118  11.632  0.1281  0.2865 -0.5455
   17ETHOX  H2151444  11.289   6.150  11.591  0.1201  0.5748 -0.3025
   17ETHOX  H2351445  11.426   6.206  11.689 -0.0801  1.6937 -2.4641
   18ETHOX   O151446  11.384   6.015  11.731 -0.4717  0.3104 -0.4202
   18ETHOX   C151447  11.301   6.053  11.841  0.2276  0.0635  0.2355
   18ETHOX  H1151448  11.360   6.115  11.911  2.0378 -1.6464  0.3095
   18ETHOX  H1351449  11.213   6.113  11.807 -0.5161 -0.8639  0.4630
   18ETHOX   C251450  11.248   5.926  11.911  0.3526 -0.1862  0.1980
   18ETHOX  H2151451  11.200   5.864  11.833 -2.5175 -0.0182  1.6979
   18ETHOX  H2351452  11.166   5.958  11.979  1.1655  1.6674  0.3587
   19ETHOX   O151453  11.341   5.849  11.984 -0.3008  0.1266  0.2682
   19ETHOX   C151454  11.328   5.882  12.121  0.6632 -0.3505 -0.5173
   19ETHOX  H1151455  11.233   5.840  12.159  0.9741 -2.1766 -1.6042
   19ETHOX  H1351456  11.327   5.992  12.137  1.2486 -0.4928  0.6325
   19ETHOX   C251457  11.442   5.822  12.200  0.0971  0.0608  0.3926
   19ETHOX  H2151458  11.437   5.862  12.304 -1.2548  0.3766  0.2237
   19ETHOX  H2351459  11.536   5.845  12.146 -0.2926 -0.6380 -0.6169
   20ETHOX   O151460  11.433   5.681  12.202 -0.0468 -0.0214  0.2116
   20ETHOX   C151461  11.542   5.617  12.277  0.7972 -0.1579  0.1245
   20ETHOX  H1151462  11.628   5.614  12.207  2.0556  2.5334  1.4186
   20ETHOX  H1351463  11.568   5.684  12.361 -1.7819  1.6121 -0.3724
   20ETHOX   C251464  11.511   5.476  12.325  0.1716 -0.7666  0.1523
   20ETHOX  H2151465  11.410   5.471  12.372  0.7838 -0.9932  1.5050
   20ETHOX  H2351466  11.584   5.443  12.402 -2.7767 -2.3215  2.5013
   21ETHOX   O151467  11.507   5.394  12.213 -0.2931  0.4536 -0.0429
   21ETHOX   C151468  11.527   5.253  12.229 -0.3598  0.3064 -0.1551
   21ETHOX  H1151469  11.625   5.240  12.279  1.4791  3.4967 -2.5837
   21ETHOX  H1351470  11.534   5.214  12.126  0.9537  0.8523 -0.2817
   21ETHOX   C251471  11.414   5.182  12.302 -0.0706  0.6348  0.0917
   21ETHOX  H2151472  11.423   5.072  12.313 -1.1631  0.6928  1.8743
   21ETHOX  H2351473  11.319   5.195  12.246  0.0146 -1.0128 -0.4863
   22ETHOX   O151474  11.401   5.228  12.434 -0.2516 -0.7318  0.9118
   22ETHOX   C151475  11.294   5.167  12.503  0.2975  0.2065  0.0719
   22ETHOX  H1151476  11.195   5.209  12.477 -0.3537 -1.3755 -0.1189
   22ETHOX  H1351477  11.289   5.059  12.479 -1.3370  0.3420 -0.3326
   22ETHOX   C251478  11.324   5.167  12.654 -0.7756  0.9135 -0.0927
   22ETHOX  H2151479  11.249   5.104  12.706 -0.0601  0.4270  0.3863
   22ETHOX  H2351480  11.422   5.116  12.664 -1.4993 -0.5649 -0.3035
   23ETHOX   O151481  11.339   5.298  12.707 -0.4294  0.8685  0.2858
   23ETHOX   C151482  11.367   5.293  12.846 -0.2495  0.1421 -0.1003
   23ETHOX  H1151483  11.391   5.186  12.866 -1.6474 -0.6487 -2.3880
   23ETHOX  H1351484  11.280   5.313  12.912 -0.5319 -1.2323 -0.0420
   23ETHOX   C251485  11.488   5.376  12.889 -0.7854  0.3984  0.4174
   23ETHOX  H2151486  11.487   5.363  12.999  0.3968 -0.1526  0.3752
   23ETHOX  H2351487  11.467   5.481  12.860 -1.1736 -0.3648 -2.3093
   24ETHOX   O151488  11.618   5.321  12.847 -0.5382 -0.6615  0.6193
   24ETHOX   C151489  11.666   5.407  12.746 -0.2351  0.5340  0.7432
   24ETHOX  H1151490  11.584   5.406  12.672  0.8586 -1.5853 -0.5591
   24ETHOX  H1351491  11.673   5.511  12.784 -0.5674  0.7884  0.1103
   24ETHOX   C251492  11.791   5.360  12.676  1.1593 -0.0172 -0.4578
   24ETHOX  H2151493  11.802   5.438  12.598  0.1856 -0.7451 -1.3697
   24ETHOX  H2351494  11.771   5.269  12.614  0.7435 -0.0492 -0.2788
   25ETHOX   O151495  11.913   5.359  12.755  0.0413 -0.0582 -0.3087
   25ETHOX   C151496  12.019   5.298  12.692 -0.2707 -0.1819 -0.1644
   25ETHOX  H1151497  12.022   5.329  12.585  1.6372  1.5192  0.3120
   25ETHOX  H1351498  12.010   5.190  12.718  0.6165 -0.4509 -0.9250
   25ETHOX   C251499  12.149   5.349  12.750 -0.5482  1.0204 -0.5344
   25ETHOX  H2151500  12.147   5.460  12.758 -0.4267  0.9430  0.8968
   25ETHOX  H2351501  12.223   5.315  12.674  1.6869  0.2703  1.8388
   26ETHOX   O151502  12.181   5.278  12.879  0.3366 -0.0837 -0.4514
   26ETHOX   C151503  12.279   5.179  12.862 -0.2260  0.1459  0.9762
   26ETHOX  H1151504  12.225   5.094  12.815 -1.1723 -0.3642  2.9153
   26ETHOX  H1351505  12.364   5.224  12.805  0.1161 -1.3516  0.2692
   26ETHOX   C251506  12.316   5.124  12.994  0.7264  0.5974 -0.8757
   26ETHOX  H2151507  12.354   5.020  12.979  0.6226  0.1437  1.5349
   26ETHOX  H2351508  12.237   5.101  13.070  2.0481 -1.5358 -0.0392
   27ETHOX   O151509  12.418   5.202  13.053 -0.0262 -0.2536  0.3352
   27ETHOX   C151510  12.468   5.148  13.170 -0.2169  0.1376  0.4330
   27ETHOX  H1151511  12.503   5.044  13.157  0.8098  0.3523  1.3727
   27ETHOX  H1351512  12.388   5.140  13.247  0.6965 -0.3604  1.3487
   27ETHOX   C251513  12.566   5.236  13.244 -0.4271 -1.3500  0.2670
   27ETHOX  H2151514  12.609   5.192  13.337 -0.1495  1.2668  1.4781
   27ETHOX  H2351515  12.518   5.335  13.259 -0.9151 -0.7955 -3.8671
   28ETHOX   O151516  12.677   5.256  13.153 -0.3211  0.7294  0.3454
   28ETHOX   C151517  12.760   5.364  13.199  0.2046  0.2329 -0.5430
   28ETHOX  H1151518  12.725   5.458  13.153 -2.4790 -0.6840 -0.5246
   28ETHOX  H1351519  12.761   5.378  13.309  0.9809 -0.3799 -0.4572
   28ETHOX   C251520  12.911   5.347  13.154  1.0902  0.1578 -0.6922
   28ETHOX  H2151521  12.953   5.447  13.180  0.5915  0.5440 -1.3269
   28ETHOX  H2351522  12.927   5.328  13.046  1.8289  1.4723 -0.8403
   29ETHOX   O151523  12.984   5.248  13.225 -0.3979  0.0357  0.0420
   29ETHOX   C151524  13.123   5.247  13.177 -0.0101  0.3656 -0.2384
   29ETHOX  H1151525  13.150   5.335  13.115  1.8434  1.6141  2.2083
   29ETHOX  H1351526  13.107   5.159  13.110 -1.7618 -0.3108  0.9906
   29ETHOX   C251527  13.222   5.225  13.286 -0.5416  0.3805 -0.0854
   29ETHOX  H2151528  13.317   5.187  13.242  0.2961 -0.2487  2.1521
   29ETHOX  H2351529  13.192   5.140  13.350 -2.7563  0.9308 -0.2992
   30ETHOX   O151530  13.250   5.336  13.371  0.0409  0.2224  0.0430
   30ETHOX   C151531  13.358   5.318  13.459  0.2576 -0.4320 -0.2028
   30ETHOX  H1151532  13.326   5.241  13.533 -2.6399  1.8366  1.1033
   30ETHOX  H1351533  13.447   5.275  13.409 -1.7188 -1.9105 -2.6569
   30ETHOX   C251534  13.393   5.447  13.525 -0.5380 -0.4575  0.1149
   30ETHOX  H2151535  13.410   5.532  13.455 -0.2356 -0.1769  0.5224
   30ETHOX  H2351536  13.488   5.418  13.575  0.2940  1.9313  0.0478
   31ETHOX   O151537  13.289   5.485  13.620 -0.0256 -0.3650 -0.5279
   31ETHOX   C151538  13.297   5.424  13.747 -0.6421 -0.1285 -0.2496
   31ETHOX  H1151539  13.201   5.447  13.799 -1.1319  0.2638 -1.3010
   31ETHOX  H1351540  13.319   5.318  13.725 -1.5805 -0.0893 -1.4930
   31ETHOX   C251541  13.411   5.488  13.840  0.0511  0.6113  0.3863
   31ETHOX  H2151542  13.510   5.492  13.790  0.8331  3.1989  1.9476
   31ETHOX  H2351543  13.423   5.408  13.915  3.7765  1.2083  0.6143
   32ETHOX   O151544  13.385   5.615  13.904  0.3553  0.3646 -0.7873
   32ETHOX   C151545  13.393   5.729  13.825 -0.4121 -0.2835  0.0175
   32ETHOX  H1151546  13.489   5.726  13.769 -0.2572  3.6032 -0.1969
   32ETHOX  H1351547  13.306   5.716  13.757 -0.7406 -0.0436  0.3897
   32ETHOX   C251548  13.387   5.851  13.912 -0.2026 -0.0784  0.1328
   32ETHOX  H2151549  13.296   5.841  13.974  0.9098 -0.8359  1.6912
   32ETHOX  H2351550  13.380   5.941  13.848  2.6245  0.1747  0.0749
   33ETHOX   O151551  13.503   5.864  13.991  0.2904 -0.0095 -0.2208
   33ETHOX   C151552  13.542   6.003  14.001  0.5026 -0.1667 -0.0891
   33ETHOX  H1151553  13.591   6.046  13.911  0.5118 -1.5638 -0.7843
   33ETHOX  H1351554  13.457   6.072  14.019  0.0406 -0.4498 -1.1166
   33ETHOX   C251555  13.638   6.020  14.120  0.0572  0.2324 -0.5949
   33ETHOX  H2151556  13.671   6.125  14.138 -0.9704  0.3140  0.9981
   33ETHOX  H2351557  13.739   5.981  14.094  0.7063  2.2967 -1.3230
   34ETHOX   O151558  13.586   5.974  14.237 -0.2032 -0.0157 -0.0359
   34ETHOX   C151559  13.683   5.941  14.330  0.4251  0.4944 -0.0043
   34ETHOX  H1151560  13.722   6.036  14.373 -3.6748  2.0052  0.7804
   34ETHOX  H1351561  13.766   5.883  14.285  0.2195  1.2184 -1.3663
   34ETHOX   C251562  13.632   5.874  14.463  0.1217  0.3090  0.5386
   34ETHOX  H2151563  13.526   5.904  14.481 -0.3602  0.0112 -1.5398
   34ETHOX  H2351564  13.700   5.884  14.550  1.2347 -2.6546  0.1266
   35ETHOX   O151565  13.628   5.733  14.434  0.0296 -0.3122 -0.0073
   35ETHOX   C151566  13.629   5.663  14.561 -0.2295 -0.0279 -0.0544
   35ETHOX  H1151567  13.722   5.682  14.617  0.5012  0.8153 -1.4868
   35ETHOX  H1351568  13.552   5.689  14.637  0.8393 -0.7563  1.3084
   35ETHOX   C251569  13.640   5.515  14.521 -0.2192 -0.2914 -0.0273
   35ETHOX  H2151570  13.694   5.458  14.599  1.7563 -0.7434 -1.6471
   35ETHOX  H2351571  13.704   5.485  14.436  1.4527  1.1243  0.6790
   36ETHOX   O151572  13.509   5.454  14.501  0.1280  0.0259 -0.4634
   36ETHOX   C151573  13.445   5.504  14.379  0.2027  0.3131 -0.1963
   36ETHOX  H1151574  13.514   5.508  14.292  1.3456  1.7910  0.7305
   36ETHOX  H1351575  13.408   5.607  14.398 -0.3407  0.3237 -1.2429
   36ETHOX   C251576  13.319   5.418  14.332 -0.7979 -0.1013 -0.3438
   36ETHOX  H2151577  13.270   5.483  14.256 -0.5927  0.6140  0.1275
   36ETHOX  H2351578  13.263   5.389  14.423  0.6472 -2.0526 -0.0191
   37ETHOX   O151579  13.381   5.300  14.282 -0.5843  0.4661  0.7003
   37ETHOX   C151580  13.277   5.233  14.212  0.1300 -0.4964  0.1758
   37ETHOX  H1151581  13.215   5.185  14.290 -1.0520  3.0092  1.6133
   37ETHOX  H1351582  13.217   5.312  14.161  0.4367  0.3810  1.1563
   37ETHOX   C251583  13.318   5.134  14.097  0.6892 -0.4471 -0.9777
   37ETHOX  H2151584  13.342   5.035  14.141  0.0803  0.2332  1.0042
   37ETHOX  H2351585  13.412   5.167  14.048  2.1003 -1.4320  0.9278
   38ETHOX   O151586  13.212   5.114  14.004 -0.2556  0.4015  0.0191
   38ETHOX   C151587  13.245   5.039  13.887 -0.4050  0.0620  0.5408
   38ETHOX  H1151588  13.289   4.945  13.927  0.0805  0.9258  2.0637
   38ETHOX  H1351589  13.322   5.086  13.823 -0.8001 -1.0092 -0.7791
   38ETHOX   C251590  13.121   5.005  13.803 -0.6708 -0.6038  0.1101
   38ETHOX  H2151591  13.029   4.974  13.858 -0.7562  0.2293  0.4448
   38ETHOX  H2351592  13.144   4.923  13.731 -0.0138 -1.8829  1.7018
   39ETHOX   O151593  13.086   5.121  13.722 -0.3690 -0.1432  0.2067
   39ETHOX   C151594  12.986   5.083  13.623 -0.6999 -0.1284 -0.3862
   39ETHOX  H1151595  13.042   5.025  13.546 -1.1832 -0.8173 -0.2193
   39ETHOX  H1351596  12.909   5.010  13.656 -0.5950  0.6726  1.7751
   39ETHOX   C251597  12.923   5.201  13.560 -0.6183 -0.0951  0.4233
   39ETHOX  H2151598  12.873   5.177  13.463  0.4973  0.9210 -0.4346
   39ETHOX  H2351599  12.996   5.281  13.534 -1.6100  0.9975  0.9089
   40ETHOX   O151600  12.841   5.261  13.664  0.2085 -0.2498 -0.3363
   40ETHOX   C151601  12.773   5.370  13.607 -0.8623 -0.0813 -0.6176
   40ETHOX  H1151602  12.713   5.336  13.520  1.2269 -1.5927 -1.5553
   40ETHOX  H1351603  12.848   5.446  13.574 -0.5249 -0.0502  0.2033
   40ETHOX   C251604  12.668   5.437  13.698  0.3130  0.9535 -0.3562
   40ETHOX  H2151605  12.643   5.532  13.646 -1.1844  0.0919 -1.2837
   40ETHOX  H2351606  12.704   5.460  13.801 -1.4799  0.0797  0.5180
   41ETHOX   O151607  12.546   5.359  13.695 -0.0596 -0.0664  0.2586
   41ETHOX   C151608  12.435   5.433  13.750 -0.7854  0.3138 -0.3915
   41ETHOX  H1151609  12.356   5.359  13.775 -0.7547  0.7042  0.9559
   41ETHOX  H1351610  12.457   5.480  13.849 -1.6295 -1.0852  0.5019
   41ETHOX   C251611  12.378   5.547  13.660 -0.1919 -0.5728  0.6409
   41ETHOX  H2151612  12.293   5.597  13.710 -0.3577 -0.3586  0.1480
   41ETHOX  H2351613  12.333   5.497  13.572  1.0757  0.0983 -0.4202
   42ETHOX   O151614  12.463   5.659  13.628  0.1998 -0.5556 -0.0403
   42ETHOX   C151615  12.386   5.776  13.589  0.3275  0.3909  0.1699
   42ETHOX  H1151616  12.352   5.764  13.484  0.1042 -1.5751  0.4323
   42ETHOX  H1351617  12.316   5.801  13.672 -0.6415  0.4719 -0.6545
   42ETHOX   C251618  12.491   5.882  13.594  0.2481 -0.2274  0.3264
   42ETHOX  H2151619  12.563   5.886  13.679  0.9893 -2.1727 -0.1568
   42ETHOX  H2351620  12.427   5.973  13.599 -1.1173 -1.2014  1.6508
   43ETHOX   O151621  12.560   5.903  13.474 -0.3618 -0.3902 -0.5666
   43ETHOX   C151622  12.647   6.016  13.480 -0.1958 -0.2874  0.2102
   43ETHOX  H1151623  12.582   6.098  13.518 -1.7443 -1.1108 -0.5884
   43ETHOX  H1351624  12.731   6.000  13.551  0.9995 -0.3785 -1.1878
   43ETHOX   C251625  12.722   6.052  13.349  0.4401 -0.1003 -0.0713
   43ETHOX  H2151626  12.752   5.956  13.302 -0.5921  0.0907 -1.1503
   43ETHOX  H2351627  12.808   6.119  13.373 -0.3230  0.4926  1.1481
   44ETHOX   O151628  12.644   6.122  13.249 -0.1885 -0.3809  0.1210
   44ETHOX   C151629  12.727   6.186  13.157 -0.9126  0.2801  0.3773
   44ETHOX  H1151630  12.792   6.258  13.210 -0.1215 -1.2426  1.5816
   44ETHOX  H1351631  12.797   6.108  13.118  0.8503  1.5994  0.8004
   44ETHOX   C251632  12.649   6.245  13.041  0.5871  0.4489 -0.0096
   44ETHOX  H2151633  12.576   6.165  13.017  0.5958  0.2826  0.5041
   44ETHOX  H2351634  12.715   6.269  12.954 -2.1240 -0.5412 -2.5197
   45ETHOX   O151635  12.584   6.364  13.072  0.1108 -0.7300 -0.3655
   45ETHOX   C151636  12.498   6.395  12.967  0.4599  0.1827  0.7451
   45ETHOX  H1151637  12.404   6.338  12.985  0.4826  0.2373  1.0451
   45ETHOX  H1351638  12.537   6.370  12.866 -0.0201 -2.8841  1.2253
   45ETHOX   C251639  12.453   6.543  12.983 -0.7841 -0.0625  0.2054
   45ETHOX  H2151640  12.398   6.568  13.076 -0.6046 -0.0378  0.3069
   45ETHOX  H2351641  12.385   6.575  12.901  0.1510  3.3907  0.6311
   46ETHOX   O151642  12.570   6.626  12.975 -0.0858  0.3320 -0.1532
   46ETHOX   C151643  12.535   6.764  12.996 -0.0196  0.1409  0.6101
   46ETHOX  H1151644  12.468   6.799  12.915 -0.7317 -2.0745  0.1527
   46ETHOX  H1351645  12.483   6.777  13.093 -1.0014 -0.7271  0.2306
   46ETHOX   C251646  12.668   6.845  12.999  0.4415  0.0501  0.0355
   46ETHOX  H2151647  12.659   6.954  12.980 -1.5441 -0.1239 -0.1563
   46ETHOX  H2351648  12.735   6.800  12.922 -1.1505 -1.7814 -0.3602
   47ETHOX   O151649  12.740   6.827  13.124 -0.2094 -0.3065 -0.2796
   47ETHOX   C151650  12.869   6.887  13.121 -0.4856 -0.5840 -0.0956
   47ETHOX  H1151651  12.907   6.922  13.219 -1.3366  1.4381 -0.4464
   47ETHOX  H1351652  12.867   6.977  13.057 -3.4240 -0.1262  0.4906
   47ETHOX   C251653  12.968   6.764  13.081  0.3301 -0.2752  0.0828
   47ETHOX  H2151654  12.942   6.681  13.149 -0.5318  0.0182  0.1176
   47ETHOX  H2351655  13.077   6.785  13.091  0.0346  1.3883  0.0731
   48ETHOX   O151656  12.947   6.708  12.947 -0.4032  0.1417  0.3542
   48ETHOX   C151657  12.981   6.800  12.839 -0.1696 -0.6456  0.0112
   48ETHOX  H1151658  12.924   6.895  12.845 -2.2366 -1.8718  0.6178
   48ETHOX  H1351659  13.090   6.817  12.857 -0.3564  1.1933 -0.4187
   48ETHOX   C251660  12.971   6.731  12.706  1.4675  0.2263  0.8612
   48ETHOX  H2151661  13.023   6.787  12.625  0.5532  1.0502  0.8286
   48ETHOX  H2351662  13.008   6.626  12.712 -1.2277 -1.0852 -2.2680
   49ETHOX   O151663  12.835   6.726  12.666  0.2593  0.3479  0.1984
   49ETHOX   C151664  12.822   6.675  12.537  0.0718  0.1093  0.1966
   49ETHOX  H1151665  12.872   6.576  12.531 -2.4547 -1.1456 -3.5324
   49ETHOX  H1351666  12.864   6.746  12.463  2.2317  0.4222  1.6059
   49ETHOX   C251667  12.668   6.641  12.523 -0.1522  0.6453  0.0713
   49ETHOX  H2151668  12.663   6.591  12.622  1.1263  2.9720  1.3729
   49ETHOX  H2351669  12.658   6.564  12.443  1.0018 -1.0153  1.4454
   50ETHOX   O151670  12.578   6.749  12.515  0.2048  0.5932 -0.6995
   50ETHOX   C151671  12.439   6.716  12.541  0.5522  0.1026  0.2148
   50ETHOX  H1151672  12.402   6.618  12.503  1.2848  1.2158 -3.8256
   50ETHOX  H1351673  12.422   6.720  12.651  1.3131  0.4210  0.3256
   50ETHOX   C251674  12.335   6.808  12.474 -0.5138  0.3290 -0.0353
   50ETHOX  H2151675  12.357   6.907  12.518  1.1260 -0.4004  0.9173
   50ETHOX  H2351676  12.230   6.789  12.505 -0.3446  1.4691  1.3241
   51ETHOX   O151677  12.342   6.798  12.333 -0.0287  0.0645 -0.3744
   51ETHOX   C151678  12.274   6.905  12.270 -0.5191 -0.2172  0.3999
   51ETHOX  H1151679  12.345   6.990  12.279 -1.0376  0.2180  0.4501
   51ETHOX  H1351680  12.177   6.930  12.318 -1.1424 -2.1991  0.2721
   51ETHOX   C251681  12.242   6.863  12.127  0.2441 -0.9088  0.9939
   51ETHOX  H2151682  12.320   6.791  12.095  0.0990 -0.5698 -0.1402
   51ETHOX  H2351683  12.249   6.941  12.049 -2.3792  0.5684  2.1294
   52ETHOX   O151684  12.118   6.798  12.119 -0.9966  0.5630  0.1322
   52ETHOX   C151685  12.107   6.717  11.997 -0.2447 -0.5681  0.7034
   52ETHOX  H1151686  12.091   6.784  11.909  0.0840  0.5507  1.4827
   52ETHOX  H1351687  12.199   6.658  11.977 -0.3374 -0.0351 -1.6047
   52ETHOX   C251688  11.987   6.620  12.001  0.3551 -0.6010  0.2523
   52ETHOX  H2151689  11.972   6.569  11.904 -1.1791  1.4508 -0.6577
   52ETHOX  H2351690  11.893   6.672  12.030  1.9042  1.8480  1.2161
   53ETHOX   O151691  12.017   6.514  12.099  0.4301  0.7957 -0.3284
   53ETHOX   C151692  11.944   6.394  12.079  0.0719 -0.6286  0.5080
   53ETHOX  H1151693  11.837   6.420  12.064 -0.4097 -2.6319  0.1549
   53ETHOX  H1351694  11.967   6.350  11.980 -2.0124  1.1957 -0.8659
   53ETHOX   C251695  11.968   6.287  12.186  0.4193  0.0774  1.0420
   53ETHOX  H2151696  12.079   6.274  12.189  0.5418 -0.9055 -2.7505
   53ETHOX  H2351697  11.917   6.196  12.146 -0.5944  0.6997  0.8822
   54ETHOX   O151698  11.927   6.328  12.315 -0.1042 -0.2477 -0.0945
   54ETHOX   C151699  11.962   6.238  12.419 -0.1455 -0.2838  0.5379
   54ETHOX  H1151700  11.933   6.135  12.388 -1.4953 -0.1902  1.4018
   54ETHOX  H1351701  12.070   6.249  12.442  0.6027  0.5551 -2.8320
   54ETHOX   C251702  11.889   6.269  12.551  0.2922 -0.2882 -0.2264
   54ETHOX  H2151703  11.916   6.367  12.595 -0.7341 -1.1084  2.3827
   54ETHOX  H2351704  11.915   6.192  12.626  1.0969  0.5755  0.3976
   55ETHOX   O151705  11.749   6.257  12.549 -0.7964 -0.1881  0.3375
   55ETHOX   C151706  11.688   6.296  12.667  0.2445  0.0581  0.1013
   55ETHOX  H1151707  11.706   6.214  12.741 -0.8840  0.2559  0.6101
   55ETHOX  H1351708  11.735   6.386  12.712 -0.1060 -0.4047  1.4338
   55ETHOX   C251709  11.543   6.323  12.664  0.7175  0.4554 -0.7364
   55ETHOX  H2151710  11.497   6.238  12.610  1.9697  0.2112 -1.4425
   55ETHOX  H2351711  11.495   6.326  12.765 -0.5830  1.1749 -1.3493
   56ETHOX   O151712  11.507   6.442  12.582 -0.1819 -0.2314  0.2312
   56ETHOX   C151713  11.371   6.474  12.601  0.1820  0.9236  0.2050
   56ETHOX  H1151714  11.350   6.498  12.708 -0.1569 -0.4194  0.4577
   56ETHOX  H1351715  11.309   6.389  12.567  0.4066  0.9569 -0.2884
   56ETHOX   C251716  11.338   6.593  12.514 -0.5547  0.6889  0.1270
   56ETHOX  H2151717  11.231   6.616  12.533 -0.3336  0.2091  2.2072
   56ETHOX  H2351718  11.362   6.559  12.410 -0.5540 -0.2575  0.4234
   57ETHOX   O151719  11.407   6.712  12.546  0.2038  0.2443  0.5527
   57ETHOX   C151720  11.381   6.812  12.444  0.3296  0.4495  0.3231
   57ETHOX  H1151721  11.416   6.777  12.344  1.4100 -2.7580  1.6669
   57ETHOX  H1351722  11.272   6.829  12.438  0.3196  0.2006 -0.1851
   57ETHOX   C251723  11.457   6.942  12.468  0.0645  0.0891  0.1253
   57ETHOX  H2151724  11.469   7.013  12.384  0.5401  1.7635  1.5437
   57ETHOX  H2351725  11.560   6.923  12.506 -0.3826  1.0799  1.9842
   58ETHOX   O151726  11.390   7.018  12.570  0.6625 -0.4167 -0.7468
   58ETHOX   C151727  11.433   6.981  12.702  0.0049 -0.1651  0.1499
   58ETHOX  H1151728  11.464   7.070  12.762 -1.0645 -1.7045  3.2421
   58ETHOX  H1351729  11.523   6.916  12.693  0.9105  1.1986 -1.1753
   58ETHOX   C251730  11.328   6.900  12.777  0.0674  0.1156 -0.0330
   58ETHOX  H2151731  11.382   6.830  12.844  0.2477 -0.1146 -0.4150
   58ETHOX  H2351732  11.278   6.827  12.710  1.9676 -1.3417  0.0310
   59ETHOX   O151733  11.227   6.972  12.854  0.5414 -0.2720  0.6561
   59ETHOX   C151734  11.142   7.040  12.762  0.5070  0.2854 -0.4136
   59ETHOX  H1151735  11.196   7.119  12.705 -2.4138  0.4788 -3.2422
   59ETHOX  H1351736  11.100   6.965  12.691  0.6215 -1.6969  1.5222
   59ETHOX   C251737  11.036   7.132  12.828 -0.2420 -0.1644 -0.1875
   59ETHOX  H2151738  10.974   7.080  12.905 -0.7635  0.4934 -0.1460
   59ETHOX  H2351739  10.968   7.178  12.752 -1.5323 -0.2392  0.8741
   60ETHOX   O151740  11.094   7.244  12.892  0.0666  0.3931 -0.2569
   60ETHOX   C151741  10.999   7.301  12.995  0.2024  0.3105 -0.0902
   60ETHOX  H1151742  10.966   7.218  13.062  0.6908  0.2887  0.1249
   60ETHOX  H1351743  10.904   7.334  12.949  0.0286  0.7760  0.5883
   60ETHOX   C251744  11.062   7.399  13.094  0.1811 -0.8261  0.0097
   60ETHOX  H2151745  11.144   7.345  13.145  1.3163  1.5063  0.8072
   60ETHOX  H2351746  10.988   7.417  13.176  0.7461  2.8687 -0.0866
   61ETHOX   O151747  11.105   7.524  13.035  0.6847  0.0239  0.2542
   61ETHOX   C151748  11.152   7.621  13.127  0.2761 -0.5531 -1.3053
   61ETHOX  H1151749  11.079   7.644  13.207 -0.2051 -3.3976 -0.8192
   61ETHOX  H1351750  11.240   7.584  13.184 -0.9192  0.9842  1.7901
   61ETHOX   C251751  11.167   7.757  13.047 -0.0626 -0.2800  0.1347
   61ETHOX  H2151752  11.250   7.747  12.974 -0.2081  3.0118 -0.6398
   61ETHOX  H2351753  11.181   7.836  13.123 -2.9103  1.0485 -0.5845
   62ETHOX   O151754  11.040   7.785  12.982  0.3141  0.0763  0.0902
   62ETHOX   C151755  11.061   7.899  12.901 -0.7968  0.1468  0.0161
   62ETHOX  H1151756  11.147   7.885  12.833 -0.5590  0.7005  0.1972
   62ETHOX  H1351757  11.068   7.990  12.964  0.2274 -0.1105  0.2875
   62ETHOX   C251758  10.933   7.915  12.818  0.0978  0.5749  0.4060
   62ETHOX  H2151759  10.927   8.010  12.761 -0.3366  0.2795 -0.0516
   62ETHOX  H2351760  10.843   7.910  12.883 -0.9896  0.0794 -1.0896
   63ETHOX   O151761  10.914   7.813  12.720 -0.1036  0.1837  0.2987
   63ETHOX   C151762  10.786   7.814  12.657  0.3572 -0.5361  1.1507
   63ETHOX  H1151763  10.703   7.795  12.729 -0.5970 -0.2838  0.1349
   63ETHOX  H1351764  10.769   7.912  12.608 -1.4696 -0.5120  1.7579
   63ETHOX   C251765  10.781   7.709  12.539  0.6059 -0.3178 -0.2162
   63ETHOX  H2151766  10.806   7.608  12.578 -0.9964 -1.0260 -0.9450
   63ETHOX  H2351767  10.854   7.743  12.462  2.1669 -2.6878  0.1037
   64ETHOX   O151768  10.655   7.718  12.475 -0.1079  0.2662  0.1854
   64ETHOX   C151769  10.552   7.656  12.552 -0.3169 -0.9943 -0.7602
   64ETHOX  H1151770  10.551   7.706  12.652 -0.2170 -0.2629 -1.1219
   64ETHOX  H1351771  10.580   7.550  12.571  4.6563 -0.0078 -1.3259
   64ETHOX   C251772  10.416   7.662  12.484 -0.6938 -0.6587  0.0218
   64ETHOX  H2151773  10.387   7.766  12.455 -3.0158 -0.5085  2.4575
   64ETHOX  H2351774  10.338   7.625  12.554 -0.6982 -0.4196  0.1462
   65ETHOX   O151775  10.409   7.589  12.365  0.4412  1.0618  0.3617
   65ETHOX   C151776  10.279   7.609  12.312 -0.4962  0.3103 -0.0565
   65ETHOX  H1151777  10.201   7.579  12.386 -0.0464 -0.6234  0.0477
   65ETHOX  H1351778  10.266   7.716  12.283 -1.8426 -0.1208 -1.1862
   65ETHOX   C251779  10.261   7.535  12.189 -0.2290 -0.3809  0.1668
   65ETHOX  H2151780  10.339   7.556  12.112 -0.6004 -2.2375 -0.7849
   65ETHOX  H2351781  10.168   7.569  12.140 -0.4807  1.8946  2.0693
   66ETHOX   O151782  10.257   7.392  12.210  0.7510  0.4018 -0.0703
   66ETHOX   C151783  10.292   7.317  12.097  0.0266 -0.2642  0.2889
   66ETHOX  H1151784  10.398   7.339  12.071 -0.2027 -0.2676 -0.6879
   66ETHOX  H1351785  10.231   7.349  12.010 -0.0854 -1.0151  0.0857
   66ETHOX   C251786  10.274   7.165  12.134  0.6202 -0.1239 -0.0403
   66ETHOX  H2151787  10.307   7.100  12.050 -3.8402 -1.6326 -0.9117
   66ETHOX  H2351788  10.164   7.154  12.135  0.5555  0.2057 -1.2881
   67ETHOX   O151789  10.338   7.133  12.260  0.7512  0.0912  0.0804
   67ETHOX   C151790  10.322   7.000  12.296 -0.5673 -0.5173 -0.1947
   67ETHOX  H1151791  10.221   6.961  12.270 -0.3656 -0.9877 -0.2824
   67ETHOX  H1351792  10.399   6.957  12.229 -0.2092 -1.3124  0.7082
   67ETHOX   C251793  10.342   6.981  12.442 -0.8505 -0.6866  0.0313
   67ETHOX  H2151794  10.439   7.028  12.470 -0.9572  0.1534 -0.9406
   67ETHOX  H2351795  10.337   6.873  12.465 -0.8253 -0.7417 -0.2164
   68ETHOX   O151796  10.244   7.054  12.509  0.6188 -0.1509 -0.2878
   68ETHOX   C151797  10.251   7.023  12.648  0.4488  0.2512 -0.2165
   68ETHOX  H1151798  10.225   6.917  12.664  2.3654 -0.2679 -0.3201
   68ETHOX  H1351799  10.352   7.055  12.681  0.0145  2.2725 -0.6759
   68ETHOX   C251800  10.154   7.107  12.727 -0.5931  0.4474 -0.5523
   68ETHOX  H2151801  10.147   7.215  12.701 -1.9417  0.2971 -0.8644
   68ETHOX  H2351802  10.192   7.102  12.832 -1.5522 -2.6938 -0.2415
   69ETHOX   O151803  10.029   7.054  12.706 -0.2194  0.4086 -0.1441
   69ETHOX   C151804   9.920   7.121  12.783  0.4349  0.0050  0.4224
   69ETHOX  H1151805   9.928   7.140  12.893 -1.5775 -0.0130  0.6095
   69ETHOX  H1351806   9.919   7.223  12.739  3.3588  0.3157  0.8619
   69ETHOX   C251807   9.780   7.065  12.760 -0.2003  1.0321  0.7428
   69ETHOX  H2151808   9.756   7.048  12.653 -2.2679 -1.7347  1.5491
   69ETHOX  H2351809   9.696   7.127  12.796 -1.7531 -1.1735  1.1051
   70ETHOX   O151810   9.761   6.955  12.842 -0.1995  0.6809  0.2063
   70ETHOX   C151811   9.626   6.918  12.848 -0.4512 -0.3097  0.4406
   70ETHOX  H1151812   9.562   7.003  12.882 -0.9212 -0.7001  0.5511
   70ETHOX  H1351813   9.595   6.897  12.743 -0.6047  2.2098 -0.1047
   70ETHOX   C251814   9.613   6.790  12.932  0.0766 -0.1740  0.2386
   70ETHOX  H2151815   9.510   6.770  12.968  0.2991 -2.3039 -0.1694
   70ETHOX  H2351816   9.673   6.790  13.026  0.0710 -1.0514  0.2506
   71ETHOX   O151817   9.646   6.678  12.849 -0.0782  0.0760 -0.9049
   71ETHOX   C151818   9.595   6.553  12.901  0.2614  0.5471  0.2570
   71ETHOX  H1151819   9.485   6.567  12.910  0.1808 -0.0374  0.1587
   71ETHOX  H1351820   9.644   6.512  12.991  1.1398  0.6570 -0.1574
   71ETHOX   C251821   9.616   6.441  12.798  0.5075 -0.4094 -0.4042
   71ETHOX  H2151822   9.725   6.422  12.801  0.5580 -0.4414 -1.8739
   71ETHOX  H2351823   9.586   6.484  12.700  1.3716  0.3990 -0.3304
   72ETHOX   O151824   9.535   6.337  12.835  0.2166 -0.7347  0.0032
   72ETHOX   C151825   9.562   6.220  12.765 -0.2084 -0.3001  0.5272
   72ETHOX  H1151826   9.575   6.240  12.656  2.1909 -1.8132  0.4450
   72ETHOX  H1351827   9.663   6.179  12.789  0.6475  1.7268  0.5830
   72ETHOX   C251828   9.460   6.121  12.811 -0.2475  0.0283 -0.7663
   72ETHOX  H2151829   9.485   6.029  12.754  1.2374 -0.8363  1.1832
   72ETHOX  H2351830   9.354   6.140  12.781 -0.0322  1.5003 -0.6790
   73ETHOX   O151831   9.474   6.067  12.947 -0.3022 -0.3534 -0.3111
   73ETHOX   C151832   9.384   5.963  12.977 -0.0727  0.2319  0.1493
   73ETHOX  H1151833   9.352   5.903  12.889 -3.3654 -0.5478  1.7095
   73ETHOX  H1351834   9.284   5.993  13.016  0.4847 -1.0782  2.8359
   73ETHOX   C251835   9.438   5.863  13.083 -0.0318 -0.0352 -0.2975
   73ETHOX  H2151836   9.358   5.796  13.122 -0.6058  0.6799 -0.2155
   73ETHOX  H2351837   9.498   5.914  13.162 -0.2576  2.8131 -1.8429
   74ETHOX   O151838   9.538   5.776  13.023 -0.3352  0.0768  0.4306
   74ETHOX   C151839   9.616   5.715  13.129 -0.6889 -0.8573 -0.8626
   74ETHOX  H1151840   9.562   5.707  13.226  1.2740  0.7948  0.4524
   74ETHOX  H1351841   9.652   5.613  13.107 -2.7988 -1.7753 -0.2855
   74ETHOX   C251842   9.735   5.807  13.155 -0.0293 -0.0763  0.1164
   74ETHOX  H2151843   9.776   5.821  13.052 -1.1940  1.6603 -0.1556
   74ETHOX  H2351844   9.814   5.755  13.213  0.6797  0.7640 -0.0712
   75ETHOX   O151845   9.717   5.938  13.215 -0.5934  0.0964 -0.1478
   75ETHOX   C151846   9.829   6.023  13.183  0.5646  0.0756  0.8590
   75ETHOX  H1151847   9.827   6.040  13.074  0.4411 -0.6267  0.7430
   75ETHOX  H1351848   9.925   5.970  13.206  0.0351 -0.9217  0.8305
   75ETHOX   C251849   9.826   6.155  13.262 -0.4807 -0.4996  0.8828
   75ETHOX  H2151850   9.729   6.210  13.265 -0.9796 -1.2592 -0.4945
   75ETHOX  H2351851   9.903   6.225  13.223 -0.5131  0.2198  2.0519
   76ETHOX   O151852   9.855   6.124  13.394 -0.0134  0.0270  0.2112
   76ETHOX   C151853   9.833   6.232  13.481  0.3105 -1.0170 -0.3653
   76ETHOX  H1151854   9.872   6.330  13.446  0.8147 -1.2039 -0.3288
   76ETHOX  H1351855   9.723   6.245  13.494  0.1390 -2.0259 -0.7509
   76ETHOX   C251856   9.901   6.212  13.620  0.2184 -0.5790 -0.6061
   76ETHOX  H2151857   9.853   6.127  13.673 -1.6244  2.3890  2.9131
   76ETHOX  H2351858   9.882   6.298  13.687  1.3239 -1.8548  1.4321
   77ETHOX   O151859  10.043   6.185  13.615  0.2992  0.6086  0.0789
   77ETHOX   C151860  10.084   6.044  13.618 -0.0994  0.0712 -0.0860
   77ETHOX  H1151861  10.041   5.979  13.539  1.1651  0.7481 -1.3844
   77ETHOX  H1351862  10.055   5.995  13.713  1.6907  1.1833  1.0980
   77ETHOX   C251863  10.235   6.034  13.617 -0.4777  0.0904  0.1071
   77ETHOX  H2151864  10.258   5.927  13.637 -0.5127 -0.1467 -1.0498
   77ETHOX  H2351865  10.280   6.102  13.692 -0.7450  2.8165 -2.0240
   78ETHOX   O151866  10.283   6.057  13.484 -0.4223 -0.2041  0.3487
   78ETHOX   C151867  10.325   6.192  13.463  0.2484 -0.0248  0.0575
   78ETHOX  H1151868  10.238   6.260  13.467 -0.6028 -1.1036  0.2056
   78ETHOX  H1351869  10.384   6.216  13.554 -0.3035  1.9379 -0.0608
   78ETHOX   C251870  10.403   6.214  13.332 -0.1485  0.8658 -0.7816
   78ETHOX  H2151871  10.460   6.121  13.311 -0.5526  0.1061  1.2389
   78ETHOX  H2351872  10.466   6.302  13.358 -0.0921  0.5915  0.0282
   79ETHOX   O151873  10.319   6.245  13.221  0.3128  0.5533 -0.1916
   79ETHOX   C151874  10.226   6.137  13.189 -0.5400  0.2554  0.3178
   79ETHOX  H1151875  10.275   6.037  13.190 -1.8435 -0.4092  1.6721
   79ETHOX  H1351876  10.151   6.133  13.271  0.3923  2.3929  1.3413
   79ETHOX   C251877  10.168   6.171  13.047 -0.0983 -0.4503  0.0941
   79ETHOX  H2151878  10.080   6.104  13.034 -0.2025 -0.6172  1.5084
   79ETHOX  H2351879  10.250   6.157  12.974 -0.8371 -0.2175 -0.7990
   80ETHOX   O151880  10.117   6.305  13.046  0.3901  0.1285 -0.2330
   80ETHOX   C151881  10.073   6.337  12.914  0.3832  0.5009 -0.3652
   80ETHOX  H1151882  10.153   6.331  12.837  1.4931  1.2491  0.7041
   80ETHOX  H1351883   9.996   6.261  12.888  0.3574 -1.0726  3.6463
   80ETHOX   C251884   9.999   6.468  12.933  0.0453  0.1661  0.4096
   80ETHOX  H2151885   9.931   6.471  13.021  0.8649  0.2505  1.0494
   80ETHOX  H2351886   9.930   6.482  12.847  0.4404 -0.1433  0.0365
   81ETHOX   O151887  10.089   6.575  12.952 -0.1264 -0.6646  0.6208
   81ETHOX   C151888  10.029   6.700  12.947 -0.7933 -0.2905 -0.0360
   81ETHOX  H1151889  10.093   6.764  12.883  0.4598  2.0380  3.2477
   81ETHOX  H1351890   9.927   6.696  12.903 -1.0541 -1.1375  0.6174
   81ETHOX   C251891  10.020   6.770  13.089  0.1717 -0.0946  0.4078
   81ETHOX  H2151892   9.948   6.854  13.080 -1.9137 -1.7370  1.0190
   81ETHOX  H2351893   9.998   6.693  13.167 -1.3526  0.8936  0.9839
   82ETHOX   O151894  10.147   6.815  13.122 -0.4290 -0.3128 -0.5589
   82ETHOX   C151895  10.163   6.954  13.104 -0.4465 -0.8077 -0.5152
   82ETHOX  H1151896  10.119   7.010  13.189 -1.3968  0.1178 -1.5894
   82ETHOX  H1351897  10.112   6.981  13.009  2.1648  0.7234 -1.5861
   82ETHOX   C251898  10.309   6.998  13.094 -0.3532  0.5136  0.8939
   82ETHOX  H2151899  10.366   6.987  13.189 -1.8237  0.5597  1.8217
   82ETHOX  H2351900  10.313   7.108  13.078  0.4659  0.7056  2.2618
   83ETHOX   O151901  10.371   6.936  12.985 -0.3145 -0.6154 -0.1206
   83ETHOX   C151902  10.427   6.803  13.017  0.1811 -0.1390 -0.3346
   83ETHOX  H1151903  10.481   6.802  13.114  0.1093 -1.5241 -0.2833
   83ETHOX  H1351904  10.352   6.721  13.009  0.2676 -0.1219 -1.5335
   83ETHOX   C251905  10.536   6.770  12.913  0.8925 -0.1997  0.1088
   83ETHOX  H2151906  10.485   6.783  12.815 -1.2122  1.0535  1.2966
   83ETHOX  H2351907  10.568   6.665  12.925 -4.0664 -1.7758  2.3743
   84ETHOX   O151908  10.647   6.860  12.916  0.0951  0.3022  0.3416
   84ETHOX   C151909  10.746   6.830  12.820 -0.4873  0.0484 -0.3384
   84ETHOX  H1151910  10.747   6.721  12.798 -0.0064 -0.2129  0.8970
   84ETHOX  H1351911  10.845   6.853  12.865 -1.2274 -0.9097  1.8815
   84ETHOX   C251912  10.744   6.907  12.692  0.6519 -0.0620  0.4953
   84ETHOX  H2151913  10.773   7.013  12.708 -0.7320  0.1972  1.6006
   84ETHOX  H2351914  10.640   6.912  12.651  1.4254 -1.5734 -1.8842
   85ETHOX   O151915  10.835   6.867  12.588 -0.1723 -0.5598 -0.2850
   85ETHOX   C151916  10.802   6.939  12.465  1.0065  0.0175 -0.2163
   85ETHOX  H1151917  10.700   6.908  12.432  0.8072  0.8963 -0.4415
   85ETHOX  H1351918  10.802   7.048  12.484  0.0809 -0.0761  0.4341
   85ETHOX   C251919  10.888   6.911  12.345 -0.4536 -0.3625 -0.6125
   85ETHOX  H2151920  10.842   6.956  12.254 -1.7007  0.0368  0.1968
   85ETHOX  H2351921  10.925   6.807  12.332  2.2222  0.3584  0.4831
   86ETHOX   O151922  11.011   6.988  12.371 -0.3610  0.6867  0.0164
   86ETHOX   C151923  11.105   6.984  12.263  0.1246  0.3495 -0.0599
   86ETHOX  H1151924  11.080   6.910  12.184  0.2605 -0.5892  0.7550
   86ETHOX  H1351925  11.200   6.958  12.315 -0.2511  0.1991  0.5718
   86ETHOX   C251926  11.133   7.121  12.201  0.2690  0.0491  0.2373
   86ETHOX  H2151927  11.240   7.116  12.171 -0.2398  2.1893 -2.2585
   86ETHOX  H2351928  11.108   7.205  12.270  0.9163 -0.1157  0.6807
   87ETHOX   O151929  11.071   7.142  12.080  0.4511  0.0597  1.2076
   87ETHOX   C151930  11.082   7.283  12.043 -0.0605  0.8345 -0.3592
   87ETHOX  H1151931  11.033   7.339  12.126 -1.6442 -1.4100  0.3287
   87ETHOX  H1351932  11.189   7.309  12.037  0.6179 -1.8923 -2.3077
   87ETHOX   C251933  11.019   7.308  11.906  0.9377  0.4910 -0.2472
   87ETHOX  H2151934  11.022   7.418  11.895  1.3675  0.2271 -4.1537
   87ETHOX  H2351935  10.914   7.272  11.907  1.2119 -0.3958 -1.0165
   88ETHOX   O151936  11.095   7.259  11.801  0.2834 -0.0215  0.0426
   88ETHOX   C151937  11.035   7.273  11.675  0.7345 -1.3476 -0.3054
   88ETHOX  H1151938  11.011   7.381  11.669  2.6562 -0.8378  0.4628
   88ETHOX  H1351939  10.940   7.215  11.677  0.2794 -0.5985  0.5113
   88ETHOX   C251940  11.120   7.213  11.564 -0.5257  0.5425 -0.0638
   88ETHOX  H2151941  11.058   7.182  11.477  0.5843  0.3024 -0.7933
   88ETHOX  H2351942  11.167   7.125  11.612 -0.1738  0.7000 -0.1167
   89ETHOX   O151943  11.207   7.304  11.501 -0.7900 -0.6216 -0.2672
   89ETHOX   C151944  11.332   7.244  11.451  0.8399 -0.5159 -0.3053
   89ETHOX  H1151945  11.386   7.202  11.539  0.1740  0.3575  0.5463
   89ETHOX  H1351946  11.303   7.156  11.390  2.2285 -0.7770 -0.6094
   89ETHOX   C251947  11.417   7.347  11.380 -0.5292  0.7858  0.0539
   89ETHOX  H2151948  11.364   7.396  11.296  1.8640  2.5824 -0.5088
   89ETHOX  H2351949  11.508   7.302  11.334 -1.8636 -0.5471 -1.4379
   90ETHOX   O151950  11.458   7.439  11.476  0.0206  0.3185 -0.4605
   90ETHOX   C151951  11.543   7.543  11.433  0.2916 -0.1952 -0.4422
   90ETHOX  H1151952  11.619   7.563  11.511 -2.1318  0.4076  1.8963
   90ETHOX  H1351953  11.588   7.508  11.338  2.1380 -1.3911  0.7988
   90ETHOX   C251954  11.466   7.677  11.401 -0.3813  0.1729 -0.4027
   90ETHOX  H2151955  11.392   7.655  11.322  0.2345 -2.8390 -0.2816
   90ETHOX  H2351956  11.534   7.762  11.380 -2.2938  2.1054  0.7929
   91ETHOX   O151957  11.395   7.714  11.520 -0.4062  0.4924 -0.0141
   91ETHOX   C151958  11.323   7.839  11.497 -0.8765  0.8046 -0.0422
   91ETHOX  H1151959  11.272   7.834  11.399  2.2958 -1.8563 -1.7672
   91ETHOX  H1351960  11.241   7.846  11.572 -1.3722  1.1226 -0.6005
   91ETHOX   C251961  11.409   7.970  11.511 -0.4240 -0.1920 -0.0435
   91ETHOX  H2151962  11.463   7.966  11.608 -1.3248 -0.2205  0.4731
   91ETHOX  H2351963  11.336   8.054  11.512 -1.0393 -0.6718 -1.6467
   92ETHOX   O151964  11.511   7.988  11.412  0.2552  0.4031  0.5974
   92ETHOX   C151965  11.614   8.087  11.441  0.8391 -0.0625 -0.0169
   92ETHOX  H1151966  11.607   8.128  11.544 -1.1867 -2.8988  1.1001
   92ETHOX  H1351967  11.716   8.043  11.430  0.5879 -0.7988  0.5496
   92ETHOX   C251968  11.603   8.195  11.337  0.0757  0.0455 -0.1278
   92ETHOX  H2151969  11.617   8.136  11.244 -1.4402 -2.2712  1.0044
   92ETHOX  H2351970  11.698   8.253  11.340  0.3913 -0.4792  0.4348
   93ETHOX   O151971  11.490   8.279  11.349 -0.0229 -0.2070 -0.5369
   93ETHOX   C151972  11.517   8.391  11.433  0.1138 -0.0048 -0.0433
   93ETHOX  H1151973  11.605   8.443  11.389  0.8017 -1.9493 -1.1072
   93ETHOX  H1351974  11.534   8.369  11.541 -1.6338  1.1810  0.5208
   93ETHOX   C251975  11.408   8.494  11.441 -0.2706  0.0921 -0.2180
   93ETHOX  H2151976  11.397   8.533  11.338  1.3768  0.7888 -0.1575
   93ETHOX  H2351977  11.445   8.582  11.498  1.2010  0.5410 -1.7749
   94ETHOX   O151978  11.278   8.453  11.490  0.0951 -0.5447 -0.6213
   94ETHOX   C151979  11.194   8.562  11.490  0.4337  0.3633 -0.0745
   94ETHOX  H1151980  11.235   8.643  11.553 -2.9650  1.0275  1.5257
   94ETHOX  H1351981  11.189   8.608  11.390  0.7993  2.3963  0.8029
   94ETHOX   C251982  11.062   8.520  11.549 -0.2436  0.2421  0.4477
   94ETHOX  H2151983  11.005   8.610  11.582 -1.7776  0.2342 -1.9074
   94ETHOX  H2351984  11.086   8.449  11.631 -0.8351 -0.2555  0.1937
   95ETHOX   O151985  10.975   8.454  11.460 -0.3247  0.3703  0.1822
   95ETHOX   C151986  10.855   8.413  11.526 -0.4418  0.1233  0.1808
   95ETHOX  H1151987  10.876   8.349  11.614  0.7195  0.2151 -0.0106
   95ETHOX  H1351988  10.803   8.340  11.460  0.7278  0.4998 -1.2151
   95ETHOX   C251989  10.752   8.520  11.571 -0.2938  0.3014 -0.2771
   95ETHOX  H2151990  10.805   8.574  11.652 -2.1996  0.7076  0.7534
   95ETHOX  H2351991  10.663   8.466  11.611 -0.4325 -0.2203 -1.2474
   96ETHOX   O151992  10.710   8.613  11.477 -0.0282 -0.7425 -0.1418
   96ETHOX   C151993  10.629   8.718  11.526  0.3027 -0.3935  0.0280
   96ETHOX  H1151994  10.535   8.681  11.572 -0.6920 -0.2514 -1.8058
   96ETHOX  H1351995  10.683   8.762  11.613 -1.8878 -0.9839  1.7813
   96ETHOX   C251996  10.604   8.840  11.426  0.0646 -0.5151  0.5725
   96ETHOX  H2151997  10.503   8.881  11.451  0.0233 -1.0983  1.4132
   96ETHOX  H2351998  10.593   8.785  11.330  1.8640 -0.5455  0.3554
   97ETHOX   O151999  10.709   8.937  11.440 -0.3164 -0.5892  0.1417
   97ETHOX   C152000  10.825   8.896  11.367 -0.1491 -0.8953 -0.4018
   97ETHOX  H1152001  10.790   8.855  11.270 -1.0125  2.2508 -1.5455
   97ETHOX  H1352002  10.856   8.815  11.436 -1.8865  1.8079  4.0068
   97ETHOX   C252003  10.946   8.995  11.335 -0.0240  0.3078 -0.4667
   97ETHOX  H2152004  10.911   9.093  11.296 -0.7578  1.1190  2.0564
   97ETHOX  H2352005  11.002   8.950  11.251 -0.1183  0.3664 -0.5613
   98ETHOX   O152006  11.038   9.019  11.437  0.1976  0.6820 -1.0318
   98ETHOX   C152007  11.132   9.122  11.410 -0.1106  0.6296 -0.1402
   98ETHOX  H1152008  11.161   9.123  11.303 -1.2712 -1.9143 -0.5371
   98ETHOX  H1352009  11.078   9.217  11.429  1.5662  1.3035  1.6089
   98ETHOX   C252010  11.247   9.124  11.517  0.5225 -0.5753  0.2708
   98ETHOX  H2152011  11.207   9.103  11.618 -1.6824 -0.5959 -0.5596
   98ETHOX  H2352012  11.282   9.228  11.530 -1.5725 -0.0499  2.5581
   99ETHOX   O152013  11.356   9.043  11.485 -0.2667 -0.2252 -0.1840
   99ETHOX   C152014  11.467   9.051  11.576  1.3526 -0.1423  0.2685
   99ETHOX  H1152015  11.531   8.966  11.544  2.1830  0.7869 -0.5885
   99ETHOX  H1352016  11.428   9.037  11.679  0.4412 -0.0039 -0.0483
   99ETHOX   C252017  11.534   9.181  11.555 -0.3401 -0.3217 -0.2531
   99ETHOX  H2152018  11.517   9.225  11.455 -3.0063 -1.2769 -0.2960
   99ETHOX  H2352019  11.643   9.160  11.563 -0.0795  1.1788  0.4069
  100ETHOX   O152020  11.497   9.277  11.649  0.5350  0.2436 -0.0119
  100ETHOX   C152021  11.567   9.393  11.626  0.2920 -0.2055 -1.2347
  100ETHOX  H1152022  11.596   9.431  11.726  0.9142 -1.6093 -0.8621
  100ETHOX  H1352023  11.672   9.384  11.590  0.2309 -1.7350 -1.0764
  100ETHOX   C252024  11.483   9.494  11.545 -0.5370 -0.2456  0.4230
  100ETHOX  H2152025  11.528   9.594  11.562  2.6629 -1.6529  0.9773
  100ETHOX  H2352026  11.379   9.489  11.585 -0.5362  0.0705  0.4630
  101PROXS   O152027  11.486   9.462  11.410  0.5650 -0.0152  0.4140
  101PROXS   C152028  11.428   9.560  11.324  0.4395 -0.2139 -0.0661
  101PROXS  H1152029  11.327   9.591  11.360 -0.1229  2.3531 -3.3077
  101PROXS  H1352030  11.484   9.656  11.325 -1.2582  0.8418 -0.4926
  101PROXS   C252031  11.416   9.509  11.176 -0.6761 -0.2350  0.9757
  101PROXS  H2152032  11.346   9.423  11.189 -1.5083  0.1233 -0.8640
  101PROXS   C352033  11.554   9.456  11.115 -0.0582  0.7167 -0.6604
  101PROXS  H3152034  11.595   9.384  11.189 -1.2354  0.8104  0.1133
  101PROXS  H3252035  11.545   9.411  11.014 -2.0248  0.6179 -0.4776
  101PROXS  H3352036  11.626   9.539  11.099  0.1787  0.3938 -1.3349
  102PROXS   O152037  11.347   9.598  11.090 -0.0529 -0.2569 -0.2705
  102PROXS   C152038  11.307   9.527  10.972 -0.1511  0.6295 -0.3971
  102PROXS  H1152039  11.388   9.490  10.906 -0.5404 -0.9658 -0.0490
  102PROXS  H1352040  11.247   9.438  11.003  0.4665  0.3420 -0.0060
  102PROXS   C252041  11.212   9.612  10.883  0.1792  0.2747 -0.7106
  102PROXS  H2152042  11.268   9.697  10.839 -0.4050  0.1734 -1.6837
  102PROXS   C352043  11.096   9.671  10.962  0.0499  0.7075  0.0182
  102PROXS  H3152044  11.025   9.589  10.985 -3.0041  3.2698  0.5482
  102PROXS  H3252045  11.133   9.714  11.057 -0.6125  0.4862  0.3831
  102PROXS  H3352046  11.046   9.754  10.907 -0.0154 -0.0316 -1.0649
  103PROXR   O152047  11.156   9.541  10.772 -0.0533 -0.2339 -0.7708
  103PROXR   C152048  11.086   9.625  10.680 -0.2463  0.1850  0.3345
  103PROXR  H1152049  10.989   9.658  10.724 -1.2764 -2.2174 -0.0127
  103PROXR  H1352050  11.155   9.706  10.647 -1.4163  0.8916 -0.4392
  103PROXR   C252051  11.056   9.545  10.553 -0.6223 -0.6107  0.0073
  103PROXR  H2152052  10.986   9.467  10.588 -0.9970 -0.2990 -0.0437
  103PROXR   C352053  11.186   9.477  10.489  0.4613 -0.1614 -0.0482
  103PROXR  H3152054  11.163   9.405  10.407  0.5390 -0.6004  0.3057
  103PROXR  H3252055  11.252   9.555  10.448  0.2549  0.5891  1.0015
  103PROXR  H3352056  11.242   9.421  10.568 -2.6959 -2.2811  0.8737
  104PROXS   O152057  10.999   9.634  10.458 -0.0985 -0.0066  0.5062
  104PROXS   C152058  10.920   9.560  10.368 -0.0507 -1.2050  0.0328
  104PROXS  H1152059  10.980   9.486  10.310  0.9949 -0.1183 -0.3289
  104PROXS  H1352060  10.844   9.508  10.430 -0.4948  0.1472  0.6804
  104PROXS   C252061  10.844   9.648  10.258 -0.3014  0.2609 -0.7675
  104PROXS  H2152062  10.808   9.739  10.311 -0.5764 -0.0833 -0.3613
  104PROXS   C352063  10.728   9.579  10.201  0.0243 -0.0530 -0.0899
  104PROXS  H3152064  10.683   9.646  10.125  1.1377 -0.2428 -0.9505
  104PROXS  H3252065  10.749   9.484  10.147 -0.7072  0.1317 -0.7026
  104PROXS  H3352066  10.642   9.561  10.268  0.1834 -2.7573 -0.4961
  105PROXS   O152067  10.931   9.669  10.145 -0.5039  0.0005 -0.0450
  105PROXS   C152068  11.051   9.742  10.175 -0.6530  0.1460  0.4582
  105PROXS  H1152069  11.113   9.675  10.239 -3.0561 -2.8276 -0.0917
  105PROXS  H1352070  11.109   9.758  10.081 -1.0405  1.9964  0.5061
  105PROXS   C252071  11.034   9.875  10.249 -0.0841  0.2216  1.0007
  105PROXS  H2152072  10.998   9.853  10.352 -0.1148 -1.0902  0.7265
  105PROXS   C352073  10.925   9.968  10.174  0.0768  0.2006  0.0831
  105PROXS  H3152074  10.941  10.064  10.228  0.5182  0.2239 -0.0840
  105PROXS  H3252075  10.963   9.980  10.071  1.7166 -2.2187  0.3245
  105PROXS  H3352076  10.821   9.927  10.179  0.8118 -1.7094  0.5696
  106PROXS   O152077  11.155   9.950  10.248  0.0588  0.4080  0.6766
  106PROXS   C152078  11.238   9.925  10.362  0.3217 -0.4573  1.1088
  106PROXS  H1152079  11.186   9.955  10.455 -1.9917  0.2121 -0.3239
  106PROXS  H1352080  11.257   9.816  10.359  1.3166 -0.2726 -0.1294
  106PROXS   C252081  11.375   9.999  10.352  0.8612  0.3844 -0.0733
  106PROXS  H2152082  11.364  10.103  10.390 -0.6796 -0.4470  1.9829
  106PROXS   C352083  11.422  10.006  10.207 -0.0774 -0.0175 -0.3309
  106PROXS  H3152084  11.345  10.066  10.154  0.4274  0.4580 -0.5333
  106PROXS  H3252085  11.510  10.074  10.208  0.9191 -1.2430 -0.9410
  106PROXS  H3352086  11.441   9.910  10.155  1.4559 -0.3231  0.7457
  107PROXR   O152087  11.466   9.925  10.436 -0.0866  0.5771  0.2632
  107PROXR   C152088  11.428   9.942  10.576 -0.1044  0.2795  0.4312
  107PROXR  H1152089  11.414  10.049  10.602  2.4778  0.6841  0.4300
  107PROXR  H1352090  11.334   9.890  10.607 -1.2334 -0.1561 -3.2608
  107PROXR   C252091  11.534   9.873  10.669 -0.5579 -0.0450  0.1190
  107PROXR  H2152092  11.626   9.934  10.656 -0.7905  0.1922 -0.4235
  107PROXR   C352093  11.541   9.725  10.631 -0.1724  0.2723  0.5162
  107PROXR  H3152094  11.457   9.659  10.661  0.1480 -0.3778 -0.0041
  107PROXR  H3252095  11.569   9.706  10.526 -1.4104 -0.0959  0.2394
  107PROXR  H3352096  11.623   9.679  10.690  1.3701 -0.5394 -2.0976
  108PROXS   O152097  11.486   9.893  10.810 -0.1410  0.0740  1.1011
  108PROXS   C152098  11.574   9.823  10.901  0.5732 -0.2559 -0.4249
  108PROXS  H1152099  11.524   9.724  10.906 -0.8825  0.4075 -1.3580
  108PROXS  H1352100  11.678   9.810  10.863  0.7913 -0.8314  0.3467
  108PROXS   C252101  11.586   9.893  11.037  0.2484 -0.0933  0.3912
  108PROXS  H2152102  11.491   9.868  11.089  1.1832 -0.1233  2.1809
  108PROXS   C352103  11.578  10.049  11.020 -0.6185 -0.2544  0.1877
  108PROXS  H3152104  11.483  10.082  10.972 -1.4908 -1.0629  1.3124
  108PROXS  H3252105  11.594  10.107  11.114  0.4910 -2.0118  1.1449
  108PROXS  H3352106  11.656  10.076  10.946 -0.5156 -2.2436 -0.4842
  109PROXS   O152107  11.701   9.854  11.103 -0.6402 -0.2459 -0.2172
  109PROXS   C152108  11.701   9.870  11.243  0.1207 -0.0055 -0.6458
  109PROXS  H1152109  11.666   9.973  11.269  0.7914  1.1749 -3.9102
  109PROXS  H1352110  11.626   9.803  11.291  0.5348  0.3940  0.6189
  109PROXS   C252111  11.840   9.838  11.305 -0.3529 -0.6374 -0.0607
  109PROXS  H2152112  11.903   9.917  11.260 -0.5830 -0.1016  0.5452
  109PROXS   C352113  11.887   9.698  11.273  0.1023  0.0153 -0.2629
  109PROXS  H3152114  11.918   9.694  11.166  2.5432 -0.8301  0.3987
  109PROXS  H3252115  11.982   9.681  11.328  0.1834  4.2111  1.2807
  109PROXS  H3352116  11.813   9.620  11.301  0.5013 -0.9936 -1.8553
  110PROXR   O152117  11.819   9.850  11.442 -0.0992  0.0668 -0.6100
  110PROXR   C152118  11.936   9.902  11.511  0.5545  0.6005  0.2279
  110PROXR  H1152119  11.931   9.869  11.617  2.0090 -0.3668  0.0256
  110PROXR  H1352120  12.028   9.859  11.467  0.4894 -1.7037  2.1171
  110PROXR   C252121  11.926  10.059  11.515  0.1209  0.3523 -0.4892
  110PROXR  H2152122  12.018  10.094  11.567 -0.9854 -0.7412  2.4063
  110PROXR   C352123  11.811  10.107  11.608 -0.2597 -0.7492  0.5028
  110PROXR  H3152124  11.822  10.214  11.633 -1.0463  0.4895 -3.6061
  110PROXR  H3252125  11.715  10.104  11.551 -0.6059  0.0732  1.0226
  110PROXR  H3352126  11.802  10.043  11.699 -1.3451  1.3429  1.9396
  111PROXS   O152127  11.920  10.104  11.386  0.3589  0.1119  0.0591
  111PROXS   C152128  11.939  10.243  11.380  0.3486  0.3160  0.2853
  111PROXS  H1152129  11.843  10.286  11.416 -0.1472 -0.9432  0.5390
  111PROXS  H1352130  12.022  10.274  11.447  0.4107  0.2679  0.2316
  111PROXS   C252131  11.977  10.291  11.235  0.3231 -0.2860  0.3951
  111PROXS  H2152132  11.926  10.240  11.150 -0.4106  2.5162 -0.9675
  111PROXS   C352133  12.127  10.277  11.203 -0.3925  0.8017 -0.1859
  111PROXS  H3152134  12.156  10.172  11.223 -3.5128  0.1758  1.7844
  111PROXS  H3252135  12.143  10.309  11.098 -2.8384  1.0515 -0.5285
  111PROXS  H3352136  12.176  10.348  11.274  1.4030 -0.2795 -0.2832
  112PROXR   O152137  11.952  10.435  11.228  0.1355 -0.1955 -0.0202
  112PROXR   C152138  11.900  10.467  11.099 -0.5107 -0.3596 -0.3215
  112PROXR  H1152139  11.963  10.441  11.010 -2.4943 -0.4649 -1.7718
  112PROXR  H1352140  11.812  10.400  11.086  1.1684 -2.3327 -2.4973
  112PROXR   C252141  11.857  10.617  11.086 -0.5146 -0.0698  0.1498
  112PROXR  H2152142  11.953  10.668  11.062 -0.8167 -0.4988 -2.1462
  112PROXR   C352143  11.800  10.669  11.223  0.1060 -0.7196 -0.0440
  112PROXR  H3152144  11.877  10.675  11.303 -0.4641  1.7892  0.3844
  112PROXR  H3252145  11.755  10.768  11.203 -2.7245 -2.0931 -0.9937
  112PROXR  H3352146  11.723  10.600  11.264  0.9092 -1.9496 -0.5246
  113PROXS   O152147  11.764  10.641  10.976  0.2058 -0.2501  0.0034
  113PROXS   C152148  11.826  10.648  10.852  0.8355 -0.5717 -0.0599
  113PROXS  H1152149  11.924  10.698  10.864  1.6726 -1.9519 -0.9252
  113PROXS  H1352150  11.845  10.551  10.801 -2.4149 -1.2010 -0.2965
  113PROXS   C252151  11.742  10.744  10.754 -0.5895 -0.3116  0.0379
  113PROXS  H2152152  11.723  10.839  10.807  1.6978 -1.3295  2.9498
  113PROXS   C352153  11.609  10.694  10.725  0.4947  0.2514  0.3715
  113PROXS  H3152154  11.613  10.585  10.707 -0.9078  0.0515  1.0992
  113PROXS  H3252155  11.542  10.711  10.812  0.6013  0.2091  0.4608
  113PROXS  H3352156  11.576  10.751  10.635  2.2609  1.4018  0.4023
  114PROXR   O152157  11.813  10.762  10.627 -0.3955  0.2373 -0.6811
  114PROXR   C152158  11.928  10.839  10.639 -0.5527  0.0241  0.2306
  114PROXR  H1152159  11.909  10.919  10.713 -3.1974  0.4016 -0.7723
  114PROXR  H1352160  12.009  10.768  10.668 -0.6758 -1.0987 -2.0033
  114PROXR   C252161  11.956  10.903  10.501 -0.8122 -0.1706  0.2447
  114PROXR  H2152162  11.870  10.968  10.475 -1.4198 -0.8225  0.5975
  114PROXR   C352163  11.961  10.800  10.385 -0.1121  0.3335  0.0087
  114PROXR  H3152164  12.061  10.751  10.394 -0.3361 -0.1185  0.0415
  114PROXR  H3252165  11.877  10.727  10.386 -0.0949  0.2445 -1.8858
  114PROXR  H3352166  11.959  10.866  10.296  0.2701 -0.6331 -0.7294
  115PROXR   O152167  12.074  10.982  10.506 -0.1647 -0.2076 -0.1220
  115PROXR   C152168  12.085  11.090  10.603  0.1161  0.2540 -0.0094
  115PROXR  H1152169  11.990  11.148  10.612  0.9407  1.5794  0.3955
  115PROXR  H1352170  12.102  11.037  10.699  0.3646  0.0708 -0.1560
  115PROXR   C252171  12.204  11.181  10.589 -0.1352  0.7411 -0.3108
  115PROXR  H2152172  12.193  11.228  10.489  0.2556 -0.4760 -0.9548
  115PROXR   C352173  12.338  11.101  10.585 -0.3245  0.4042  0.5214
  115PROXR  H3152174  12.352  11.028  10.502  1.7883  0.7384  0.5290
  115PROXR  H3252175  12.418  11.175  10.566  1.6010 -2.0143 -1.4424
  115PROXR  H3352176  12.366  11.059  10.684  0.3670  0.5934  0.4092
  116PROXS   O152177  12.197  11.277  10.697 -0.2868  0.6507  0.5583
  116PROXS   C152178  12.283  11.387  10.685 -0.5178 -0.2015 -0.0424
  116PROXS  H1152179  12.383  11.360  10.725 -0.2949 -2.4467 -1.9317
  116PROXS  H1352180  12.291  11.419  10.579 -1.0493  0.6228  0.1539
  116PROXS   C252181  12.239  11.527  10.753 -1.0069  1.0769 -0.0885
  116PROXS  H2152182  12.145  11.567  10.710 -0.9928  0.7062 -0.4671
  116PROXS   C352183  12.351  11.633  10.728 -0.3756  0.1594 -0.1342
  116PROXS  H3152184  12.346  11.718  10.801  0.9063 -0.3979  0.6514
  116PROXS  H3252185  12.448  11.586  10.755  0.0216  0.6722 -0.6369
  116PROXS  H3352186  12.350  11.679  10.627 -1.7687 -0.9950 -0.6650
  117PROXS   O152187  12.226  11.521  10.898  0.2854  0.2047  0.6085
  117PROXS   C152188  12.128  11.428  10.932 -0.1834 -0.5165  1.0373
  117PROXS  H1152189  12.056  11.431  10.848  2.2846  0.2170 -1.1933
  117PROXS  H1352190  12.177  11.329  10.932 -0.1452 -0.5559 -1.5545
  117PROXS   C252191  12.057  11.460  11.068  0.1125  0.4488 -0.0927
  117PROXS  H2152192  11.987  11.542  11.043 -1.9224 -0.6255  1.7273
  117PROXS   C352193  12.154  11.507  11.176 -0.4254 -0.6052  0.9240
  117PROXS  H3152194  12.201  11.602  11.144 -1.0812  0.9162  4.1086
  117PROXS  H3252195  12.094  11.535  11.265 -0.9128  1.2196  0.0726
  117PROXS  H3352196  12.224  11.421  11.185  2.2558  0.9522 -2.5440
  118PROXR   O152197  11.988  11.346  11.125  0.1781 -0.5699  0.1648
  118PROXR   C152198  11.881  11.303  11.045  0.7242 -0.1408 -0.5650
  118PROXR  H1152199  11.804  11.384  11.049 -1.0004 -1.6965 -0.7629
  118PROXR  H1352200  11.902  11.281  10.938  1.8675  0.4352 -0.4799
  118PROXR   C252201  11.817  11.181  11.114 -0.2862  0.1860 -0.9799
  118PROXR  H2152202  11.786  11.207  11.218  0.8539 -1.4644 -0.1826
  118PROXR   C352203  11.914  11.064  11.121 -0.1693  0.5845  0.0050
  118PROXR  H3152204  12.015  11.096  11.154  0.7216  0.5827 -2.5330
  118PROXR  H3252205  11.883  10.988  11.196  0.8799 -1.4475 -1.5347
  118PROXR  H3352206  11.925  11.012  11.024  2.2548  1.4466 -0.2646
  119PROXR   O152207  11.702  11.135  11.046  0.3286  0.4551 -1.0478
  119PROXR   C152208  11.625  11.047  11.126 -0.1235 -0.3315 -0.0859
  119PROXR  H1152209  11.632  10.944  11.085  0.2413 -0.1937 -0.3790
  119PROXR  H1352210  11.642  11.055  11.235 -0.1187  0.3658 -0.1333
  119PROXR   C252211  11.485  11.104  11.109 -0.1860  0.1837  0.5473
  119PROXR  H2152212  11.455  11.120  11.003 -1.8814  2.4605  1.2678
  119PROXR   C352213  11.462  11.234  11.181  0.7787 -0.2503  0.1967
  119PROXR  H3152214  11.356  11.266  11.181  0.6931 -0.5221  0.9270
  119PROXR  H3252215  11.491  11.208  11.285  1.9291 -0.7423 -0.2265
  119PROXR  H3352216  11.509  11.326  11.141 -0.8774  0.4531 -0.2465
  120PROXS   O152217  11.388  11.010  11.161 -0.2741 -0.2460  0.0555
  120PROXS   C152218  11.295  10.968  11.057 -0.4025  1.4144 -0.3296
  120PROXS  H1152219  11.215  11.043  11.038 -1.6985  0.0987 -0.2586
  120PROXS  H1352220  11.353  10.950  10.964  1.9925  3.8873  0.5601
  120PROXS   C252221  11.240  10.823  11.099  0.1037  0.4666 -0.2229
  120PROXS  H2152222  11.187  10.828  11.197  0.9083 -0.3735  0.2729
  120PROXS   C352223  11.360  10.731  11.108  0.1331  0.0205  0.1751
  120PROXS  H3152224  11.438  10.757  11.183  0.8227 -2.3043  0.3394
  120PROXS  H3252225  11.332  10.626  11.129  1.2082 -0.0171  1.5884
  120PROXS  H3352226  11.421  10.726  11.015 -1.4931  2.1075 -1.0959
  121PROXS   O152227  11.151  10.779  10.995 -0.2712  0.0986 -0.0913
  121PROXS   C152228  11.052  10.687  11.041 -0.0010 -0.1447 -0.0270
  121PROXS  H1152229  11.084  10.612  11.117 -0.2256 -2.8033 -2.3680
  121PROXS  H1352230  10.977  10.746  11.096  1.7616  2.7887 -0.5666
  121PROXS   C252231  10.993  10.605  10.921 -1.6407 -0.0199  0.1935
  121PROXS  H2152232  10.975  10.670  10.833  0.7004 -1.7581 -1.6948
  121PROXS   C352233  10.864  10.550  10.966  0.1942 -0.2405  0.6867
  121PROXS  H3152234  10.798  10.633  10.997 -2.0260 -0.1375 -3.5791
  121PROXS  H3252235  10.811  10.479  10.898 -0.1912  1.4531 -0.8507
  121PROXS  H3352236  10.880  10.486  11.055  2.1453 -0.8883 -0.0701
  122PROXS   O152237  11.094  10.509  10.877 -0.4541  0.0687  0.7095
  122PROXS   C152238  11.192  10.559  10.792 -0.1298 -0.1646  0.3221
  122PROXS  H1152239  11.163  10.626  10.708  2.4814 -0.0771 -0.5812
  122PROXS  H1352240  11.268  10.621  10.844  0.7944 -0.3552 -0.7649
  122PROXS   C252241  11.265  10.450  10.709  0.4550 -0.1041  0.0431
  122PROXS  H2152242  11.199  10.377  10.657 -0.1581 -0.2266  0.9736
  122PROXS   C352243  11.345  10.375  10.815 -0.2501 -0.2305 -0.3595
  122PROXS  H3152244  11.425  10.316  10.766 -0.4852  0.3306 -1.4454
  122PROXS  H3252245  11.408  10.446  10.873  2.3438 -2.1635 -0.6415
  122PROXS  H3352246  11.276  10.318  10.880 -0.6996 -0.8413 -1.3506
  123PROXS   O152247  11.348  10.505  10.603  0.1825  0.2425  0.5197
  123PROXS   C152248  11.436  10.421  10.526 -0.3000  0.4343  0.2042
  123PROXS  H1152249  11.512  10.379  10.595  0.1419  0.1597 -0.4353
  123PROXS  H1352250  11.385  10.337  10.474 -0.8077  1.6792 -1.4111
  123PROXS   C252251  11.489  10.492  10.408  0.4044  0.6655  0.3318
  123PROXS  H2152252  11.545  10.586  10.427  2.1695 -0.3192  0.1699
  123PROXS   C352253  11.373  10.538  10.321  1.0943  0.0583  0.4905
  123PROXS  H3152254  11.404  10.593  10.229  0.4210  0.1692  0.3252
  123PROXS  H3252255  11.319  10.447  10.286  2.2401 -1.8597  3.3638
  123PROXS  H3352256  11.308  10.599  10.387  0.4075 -0.5750  0.4132
  124PROXR   O152257  11.581  10.415  10.333 -0.3652  0.1979  0.0112
  124PROXR   C152258  11.709  10.425  10.396  0.2913 -0.2534 -0.2062
  124PROXR  H1152259  11.749  10.522  10.357 -0.3692 -0.2473 -0.9004
  124PROXR  H1352260  11.710  10.420  10.507 -0.0468  0.0721 -0.1860
  124PROXR   C252261  11.807  10.323  10.334 -0.1838 -0.2507 -0.1799
  124PROXR  H2152262  11.791  10.323  10.224  0.1357 -1.4332 -0.2373
  124PROXR   C352263  11.800  10.180  10.388 -0.4498  0.0399 -0.6004
  124PROXR  H3152264  11.840  10.179  10.492  0.0169  2.0336 -0.7263
  124PROXR  H3252265  11.693  10.148  10.388 -1.4787  3.1747 -0.4093
  124PROXR  H3352266  11.838  10.096  10.326 -1.0264 -1.1192  0.5484
  125PROXS   O152267  11.936  10.381  10.361 -0.3510 -0.5105 -0.2743
  125PROXS   C152268  12.049  10.299  10.330  0.1831 -0.5834 -0.1000
  125PROXS  H1152269  12.055  10.214  10.402 -0.0659 -2.5307 -2.2735
  125PROXS  H1352270  12.045  10.274  10.222 -1.6288  1.4104 -0.5741
  125PROXS   C252271  12.174  10.384  10.343  0.0394  0.5791 -0.3734
  125PROXS  H2152272  12.154  10.489  10.312  0.7349  1.2862  1.4658
  125PROXS   C352273  12.292  10.324  10.259 -0.4859 -0.1110 -0.6402
  125PROXS  H3152274  12.272  10.332  10.150  1.3573 -0.1152 -1.0101
  125PROXS  H3252275  12.385  10.378  10.286 -0.1818 -0.3701 -1.1500
  125PROXS  H3352276  12.304  10.215  10.279 -0.9862 -0.2654 -1.1563
  126PROXS   O152277  12.217  10.394  10.484 -0.1962  0.0619 -0.0537
  126PROXS   C152278  12.167  10.511  10.559  0.3831  0.1257 -0.1594
  126PROXS  H1152279  12.221  10.604  10.532  0.8229  0.0170  0.3318
  126PROXS  H1352280  12.059  10.525  10.538  0.2609  1.3523  1.1656
  126PROXS   C252281  12.188  10.485  10.705  0.3445 -0.1661 -0.3834
  126PROXS  H2152282  12.296  10.458  10.711  1.0276  2.4523  0.6106
  126PROXS   C352283  12.108  10.367  10.759  1.0348 -0.1574 -0.1792
  126PROXS  H3152284  12.000  10.394  10.757  0.4545 -1.9504  2.2496
  126PROXS  H3252285  12.129  10.274  10.703  0.2331 -2.0085  2.4332
  126PROXS  H3352286  12.123  10.352  10.868 -1.1031 -0.7067  0.0814
  127PROXR   O152287  12.169  10.611  10.778 -0.0245  0.0988 -0.1196
  127PROXR   C152288  12.238  10.609  10.901  0.2453 -0.2575  0.3105
  127PROXR  H1152289  12.198  10.526  10.963 -3.3186  0.7866 -0.4075
  127PROXR  H1352290  12.348  10.591  10.889 -0.1264 -2.2379 -0.6381
  127PROXR   C252291  12.222  10.747  10.973  0.2145  0.2888  0.1777
  127PROXR  H2152292  12.113  10.768  10.965 -0.0816 -1.6056 -1.5021
  127PROXR   C352293  12.312  10.854  10.910 -0.4033 -0.6824 -0.4184
  127PROXR  H3152294  12.321  10.949  10.967 -2.7868 -0.3249 -0.5164
  127PROXR  H3252295  12.414  10.811  10.905 -0.2594 -0.3048 -0.8094
  127PROXR  H3352296  12.274  10.884  10.810 -1.3452  1.2350  0.4554
  128PROXR   O152297  12.264  10.729  11.110 -0.2513 -0.0805  0.4537
  128PROXR   C152298  12.211  10.825  11.199  0.5678 -0.6249  0.3257
  128PROXR  H1152299  12.240  10.930  11.177 -3.1450  0.8749  1.8588
  128PROXR  H1352300  12.102  10.829  11.181  0.6269 -0.2250  0.0503
  128PROXR   C252301  12.246  10.807  11.351  0.0980 -0.3172  0.8862
  128PROXR  H2152302  12.355  10.815  11.368  0.2888  0.8616 -0.6721
  128PROXR   C352303  12.182  10.682  11.415 -0.2413  0.4000  0.1526
  128PROXR  H3152304  12.219  10.595  11.357 -0.6845 -0.1963  0.7500
  128PROXR  H3252305  12.220  10.662  11.517  1.3773 -1.0482 -0.6873
  128PROXR  H3352306  12.073  10.697  11.431 -0.2325  0.8884 -0.2206
  129PROXS   O152307  12.175  10.909  11.420 -0.2279 -0.2291 -0.4235
  129PROXS   C152308  12.254  11.017  11.473 -0.1046  0.9397  0.3025
  129PROXS  H1152309  12.307  10.968  11.558 -1.9804 -1.2769  0.2618
  129PROXS  H1352310  12.315  11.055  11.388  0.7401  0.7238  0.7897
  129PROXS   C252311  12.170  11.127  11.528  0.6294  0.7489 -0.2066
  129PROXS  H2152312  12.120  11.088  11.619  2.8262  0.3129  0.8807
  129PROXS   C352313  12.068  11.185  11.424  0.1915 -0.0644  0.2683
  129PROXS  H3152314  12.124  11.244  11.348 -0.5164 -0.5155 -0.6156
  129PROXS  H3252315  12.022  11.096  11.378  0.4911 -0.7323  1.2096
  129PROXS  H3352316  11.988  11.249  11.466  0.7284  1.5515 -1.0684
  130PROXS   O152317  12.253  11.230  11.576  0.2672 -0.4484  0.6241
  130PROXS   C152318  12.182  11.303  11.677  0.3084  0.5826 -1.1195
  130PROXS  H1152319  12.106  11.365  11.625  0.3691 -0.4877 -2.5426
  130PROXS  H1352320  12.140  11.237  11.756 -2.3704  1.9088 -1.3329
  130PROXS   C252321  12.268  11.402  11.755  0.8689  0.1591  0.1061
  130PROXS  H2152322  12.332  11.455  11.682  1.3467  0.0866  0.4671
  130PROXS   C352323  12.356  11.328  11.858  0.6885 -0.1581  0.2002
  130PROXS  H3152324  12.405  11.239  11.812 -0.2234 -0.2112 -0.7124
  130PROXS  H3252325  12.433  11.398  11.894  0.9367  0.3845 -1.3200
  130PROXS  H3352326  12.295  11.282  11.939  1.5017 -2.0799 -0.2230
  131PROXS   O152327  12.181  11.493  11.821  0.0596  0.0854  0.1461
  131PROXS   C152328  12.248  11.598  11.902  0.4905 -0.0271 -0.1821
  131PROXS  H1152329  12.297  11.553  11.991 -0.5392 -1.2771 -0.2100
  131PROXS  H1352330  12.328  11.649  11.844  3.1764 -1.6724  1.8066
  131PROXS   C252331  12.140  11.701  11.932  0.4870 -0.0421  0.2793
  131PROXS  H2152332  12.079  11.727  11.843  0.6018  1.3468  0.5872
  131PROXS   C352333  12.194  11.828  11.989  0.2045  0.1475 -0.4524
  131PROXS  H3152334  12.122  11.912  11.983  1.2680  0.9743 -3.3337
  131PROXS  H3252335  12.232  11.808  12.091 -0.1787 -0.8764 -0.4895
  131PROXS  H3352336  12.276  11.865  11.924 -0.3293 -1.0845 -1.9041
  132PROXS   O152337  12.052  11.644  12.031 -0.0471 -0.3769 -0.5242
  132PROXS   C152338  11.940  11.580  11.965  0.2544  0.4910 -0.1125
  132PROXS  H1152339  11.862  11.655  11.940  1.0141  0.2818 -3.6266
  132PROXS  H1352340  11.954  11.537  11.864  1.4069  0.6141 -0.0206
  132PROXS   C252341  11.873  11.476  12.059 -0.3126 -0.6869 -0.5828
  132PROXS  H2152342  11.831  11.526  12.148 -1.6069 -1.5770 -0.6733
  132PROXS   C352343  11.981  11.381  12.111  0.1082 -0.3201  0.5538
  132PROXS  H3152344  12.060  11.435  12.166 -1.4595  1.1780  1.4101
  132PROXS  H3252345  11.940  11.293  12.165 -0.6307 -0.6721 -0.5318
  132PROXS  H3352346  12.025  11.346  12.015 -2.4962  2.0689 -1.6904
  133PROXS   O152347  11.766  11.414  11.986 -0.3780 -0.2986 -0.4572
  133PROXS   C152348  11.691  11.329  12.075  1.1592 -0.5261 -0.1450
  133PROXS  H1152349  11.740  11.230  12.071  0.0473 -1.0933  0.1178
  133PROXS  H1352350  11.687  11.363  12.181  1.1978 -0.0026 -0.3049
  133PROXS   C252351  11.550  11.312  12.030  0.6442  0.3567  0.3619
  133PROXS  H2152352  11.547  11.267  11.929  0.7329 -3.0172  1.7131
  133PROXS   C352353  11.481  11.454  12.038 -0.2441 -0.3742  0.0982
  133PROXS  H3152354  11.520  11.495  12.134 -1.9019 -0.4505  0.8384
  133PROXS  H3252355  11.519  11.517  11.955 -2.6140  1.0600  0.0225
  133PROXS  H3352356  11.371  11.443  12.042 -0.2520 -2.0018 -2.3061
  134PROXS   O152357  11.487  11.225  12.117  0.3714 -0.1824 -0.1831
  134PROXS   C152358  11.524  11.088  12.097 -0.5269  0.4666  0.0254
  134PROXS  H1152359  11.535  11.047  11.994 -3.0502 -1.6927  0.5034
  134PROXS  H1352360  11.619  11.065  12.149  0.5162 -1.8519 -2.6689
  134PROXS   C252361  11.420  10.989  12.162 -0.2544 -0.1610 -0.2509
  134PROXS  H2152362  11.319  11.013  12.121  0.0240 -0.9858 -1.4848
  134PROXS   C352363  11.419  11.009  12.319  0.3051  0.1731  0.0266
  134PROXS  H3152364  11.355  11.093  12.354  2.2346  1.4350  0.6568
  134PROXS  H3252365  11.384  10.912  12.361  0.1247  0.2683  0.0935
  134PROXS  H3352366  11.523  11.029  12.353  1.4046 -2.9931 -1.0328
  135PROXS   O152367  11.457  10.858  12.136 -0.2442  0.6912  0.0522
  135PROXS   C152368  11.337  10.774  12.130  0.2353 -0.3360  0.0308
  135PROXS  H1152369  11.356  10.680  12.186  1.3330 -0.7420 -0.9776
  135PROXS  H1352370  11.252  10.828  12.176  1.5320  1.0916  0.8567
  135PROXS   C252371  11.295  10.743  11.986 -0.8087 -0.4526 -0.7546
  135PROXS  H2152372  11.389  10.703  11.943 -1.0282 -0.8726 -0.8495
  135PROXS   C352373  11.247  10.861  11.903 -0.7019 -0.6761  1.1117
  135PROXS  H3152374  11.208  10.813  11.811  0.7909 -3.0333  1.6116
  135PROXS  H3252375  11.168  10.925  11.949 -1.1799 -0.1894 -0.3489
  135PROXS  H3352376  11.337  10.923  11.886 -0.1744 -1.0765  2.3360
  136PROXS   O152377  11.202  10.642  11.992  0.5564  0.8287  0.3518
  136PROXS   C152378  11.082  10.667  12.064  0.1901 -0.4685  0.0674
  136PROXS  H1152379  11.104  10.653  12.172  1.1539 -0.6994 -0.1457
  136PROXS  H1352380  11.038  10.767  12.047  1.6684 -0.0573 -1.5945
  136PROXS   C252381  10.972  10.558  12.040 -0.1536  0.5842  1.1068
  136PROXS  H2152382  11.017  10.461  12.069 -1.3310 -0.0343  0.9503
  136PROXS   C352383  10.928  10.538  11.894  0.0839  0.4460 -0.7099
  136PROXS  H3152384  10.866  10.446  11.882  0.6607 -0.1372  0.6308
  136PROXS  H3252385  10.877  10.627  11.851  0.2844  0.5298 -0.7744
  136PROXS  H3352386  11.022  10.521  11.836  0.3834  1.4352 -0.5285
  137PROXS   O152387  10.865  10.586  12.130  0.3399  0.5910 -0.7847
  137PROXS   C152388  10.790  10.469  12.164 -0.7000 -0.2622 -0.0107
  137PROXS  H1152389  10.725  10.438  12.079 -1.2294 -1.9936  0.9768
  137PROXS  H1352390  10.855  10.384  12.194 -0.9357 -0.5629 -0.3403
  137PROXS   C252391  10.687  10.502  12.279 -0.0815 -0.1608  0.0290
  137PROXS  H2152392  10.630  10.593  12.252 -1.8057 -1.6651 -1.7371
  137PROXS   C352393  10.755  10.524  12.418  0.1989  0.0152  0.1670
  137PROXS  H3152394  10.835  10.452  12.442  1.8216  1.2258 -1.3544
  137PROXS  H3252395  10.789  10.630  12.409 -0.4202  0.1054 -1.5209
  137PROXS  H3352396  10.683  10.534  12.502  0.2766  1.7016  0.0776
  138PROXR   O152397  10.596  10.400  12.290  0.0045  0.3084 -0.9245
  138PROXR   C152398  10.470  10.434  12.337  0.3228 -0.1309  0.0253
  138PROXR  H1152399  10.480  10.446  12.447  2.3600 -0.0129 -0.1241
  138PROXR  H1352400  10.435  10.527  12.287 -2.7376 -1.5589 -0.7353
  138PROXR   C252401  10.362  10.324  12.302 -0.3687 -0.0581 -0.1988
  138PROXR  H2152402  10.268  10.368  12.340 -1.1411 -1.0133 -0.9778
  138PROXR   C352403  10.373  10.189  12.380  0.5841  0.6908 -0.2085
  138PROXR  H3152404  10.472  10.142  12.365  1.0785  0.8919  2.0248
  138PROXR  H3252405  10.357  10.187  12.490  0.2435 -2.7726 -0.2082
  138PROXR  H3352406  10.297  10.125  12.331  1.8580 -0.3814 -0.8293
  139PROXS   O152407  10.354  10.318  12.157 -0.6010 -0.1085 -0.4136
  139PROXS   C152408  10.435  10.208  12.111 -0.2505  0.1542  0.2162
  139PROXS  H1152409  10.532  10.218  12.165 -1.2308  1.5262  1.7947
  139PROXS  H1352410  10.400  10.105  12.135  0.3728 -0.3773 -1.0515
  139PROXS   C252411  10.444  10.216  11.960  0.3402  0.5501  1.2820
  139PROXS  H2152412  10.464  10.325  11.945  0.8253  0.0579 -2.9896
  139PROXS   C352413  10.299  10.183  11.908 -0.4458 -0.1622  0.1850
  139PROXS  H3152414  10.221  10.221  11.977 -1.9147 -1.9605 -0.4389
  139PROXS  H3252415  10.285  10.205  11.800 -1.8333 -0.6907  0.2373
  139PROXS  H3352416  10.278  10.074  11.911 -0.0859 -0.2327  0.2126
  140PROXR   O152417  10.545  10.130  11.899 -0.3930  0.2525 -0.6851
  140PROXR   C152418  10.577  10.179  11.768  0.0003  0.1897 -0.3570
  140PROXR  H1152419  10.492  10.159  11.699  2.2941 -0.6721 -3.1319
  140PROXR  H1352420  10.590  10.289  11.771 -0.0753  0.2086 -0.6859
  140PROXR   C252421  10.697  10.113  11.708  0.2100  0.7888  0.6889
  140PROXR  H2152422  10.683  10.002  11.713  2.1315  0.5130  0.7359
  140PROXR   C352423  10.824  10.146  11.774  0.0156  0.2813 -0.2982
  140PROXR  H3152424  10.906  10.076  11.747  0.5846  0.5613  0.6714
  140PROXR  H3252425  10.862  10.248  11.750 -0.7158  0.5677 -0.2696
  140PROXR  H3352426  10.818  10.141  11.885  1.1275 -1.7880 -0.2947
  141PROXS   O152427  10.698  10.137  11.569 -0.0862  0.1445  0.0461
  141PROXS   C152428  10.771  10.032  11.499  0.1360 -0.6165  0.1746
  141PROXS  H1152429  10.869  10.008  11.544  0.2401 -1.0611 -0.2869
  141PROXS  H1352430  10.714   9.939  11.520  0.8358 -1.2658 -0.7466
  141PROXS   C252431  10.779  10.066  11.350 -0.3912  0.3005 -0.4481
  141PROXS  H2152432  10.814  10.171  11.338  0.6942 -0.1506 -1.4191
  141PROXS   C352433  10.636  10.061  11.291  0.1267  0.4649  0.3248
  141PROXS  H3152434  10.567  10.133  11.340  1.4238  2.4190 -0.6254
  141PROXS  H3252435  10.645  10.059  11.181  0.8843 -0.6834  0.3886
  141PROXS  H3352436  10.587   9.964  11.315 -0.8805  1.1165  0.9738
  142PROXS   O152437  10.858   9.975  11.278  0.6040  0.1226  0.3125
  142PROXS   C152438  10.999   9.987  11.299  0.0122 -0.5175  0.3564
  142PROXS  H1152439  11.024   9.982  11.407  1.3084  1.0801  0.1739
  142PROXS  H1352440  11.039   9.902  11.240  1.2634  1.3742 -1.6739
  142PROXS   C252441  11.055  10.120  11.236  0.0480 -0.3319  0.4688
  142PROXS  H2152442  10.983  10.141  11.153 -0.0457 -1.0588  0.3565
  142PROXS   C352443  11.201  10.093  11.193  0.3839  0.3968 -0.1699
  142PROXS  H3152444  11.208   9.990  11.151 -0.9369  0.4774 -0.6537
  142PROXS  H3252445  11.243  10.165  11.119  0.7054  2.9643  2.3739
  142PROXS  H3352446  11.263  10.103  11.284 -2.0785 -0.5699  1.7209
  143PROXS   O152447  11.044  10.223  11.330 -0.4048  0.2675 -0.2076
  143PROXS   C152448  11.075  10.355  11.293 -0.1667 -0.0681  0.0200
  143PROXS  H1152449  11.182  10.369  11.270 -0.2216  2.3575  0.9453
  143PROXS  H1352450  11.014  10.387  11.206  0.4265  1.1103  0.0114
  143PROXS   C252451  11.049  10.444  11.419  0.4657 -0.8389 -0.8530
  143PROXS  H2152452  11.112  10.408  11.503 -0.8587 -1.1281  0.0545
  143PROXS   C352453  10.901  10.437  11.469 -0.4872 -0.2193 -0.0746
  143PROXS  H3152454  10.827  10.468  11.392 -0.5862  1.1240  0.5311
  143PROXS  H3252455  10.871  10.333  11.492  0.6166  0.0517  3.0728
  143PROXS  H3352456  10.884  10.491  11.565 -0.5235 -1.5432  0.6836
  144PROXS   O152457  11.077  10.579  11.399 -0.3879 -0.2350  0.3243
  144PROXS   C152458  11.102  10.660  11.514  0.2727 -0.2578  0.1754
  144PROXS  H1152459  11.009  10.700  11.559 -0.3934  0.8019 -2.0120
  144PROXS  H1352460  11.153  10.598  11.591  2.5214  0.6939 -0.4649
  144PROXS   C252461  11.174  10.792  11.477 -0.3570 -0.1488  0.7646
  144PROXS  H2152462  11.119  10.830  11.388 -0.0150  0.8719  0.9705
  144PROXS   C352463  11.322  10.771  11.433 -0.2772  0.3240  0.0142
  144PROXS  H3152464  11.358  10.860  11.378 -0.4559 -0.4466 -1.3930
  144PROXS  H3252465  11.384  10.761  11.525  1.4083  0.2316 -1.0867
  144PROXS  H3352466  11.339  10.681  11.370 -0.1303 -0.8159  1.5988
  145PROXR   O152467  11.148  10.885  11.586 -0.3524  0.4302 -0.3943
  145PROXR   C152468  11.199  11.013  11.552 -0.2374  0.9520  0.3383
  145PROXR  H1152469  11.305  11.017  11.519 -0.2046 -1.9904 -0.1101
  145PROXR  H1352470  11.133  11.047  11.469 -0.1806  2.1031  0.7387
  145PROXR   C252471  11.181  11.113  11.663 -0.1048 -0.0477  0.1078
  145PROXR  H2152472  11.235  11.078  11.754 -3.0848 -0.8896  1.6837
  145PROXR   C352473  11.040  11.135  11.707  0.1607 -0.4641  0.3233
  145PROXR  H3152474  10.975  11.164  11.622 -0.5904 -1.3979  0.5627
  145PROXR  H3252475  11.003  11.036  11.740  0.2206 -0.7397 -0.4178
  145PROXR  H3352476  11.030  11.221  11.777 -0.6187 -0.7264  0.5395
  146PROXS   O152477  11.217  11.246  11.610 -0.2022 -0.6519  0.3850
  146PROXS   C152478  11.283  11.330  11.705 -0.0669 -0.6131  0.5652
  146PROXS  H1152479  11.229  11.337  11.802 -0.4270  2.0073  0.2618
  146PROXS  H1352480  11.386  11.292  11.722 -0.4811 -1.5215  1.0858
  146PROXS   C252481  11.306  11.465  11.634 -0.0597  0.3105 -0.2240
  146PROXS  H2152482  11.206  11.512  11.628  0.4143  1.2805 -0.7683
  146PROXS   C352483  11.379  11.450  11.498 -0.4651  0.4462  0.5341
  146PROXS  H3152484  11.310  11.409  11.422  1.2350  1.8659 -1.9465
  146PROXS  H3252485  11.411  11.550  11.459  2.5766 -0.6364 -0.0461
  146PROXS  H3352486  11.457  11.371  11.509 -2.0779 -1.0712  1.4011
  147PROXR   O152487  11.393  11.534  11.716 -0.0838  0.0281  0.3731
  147PROXR   C152488  11.343  11.668  11.738  0.7125  0.0760  0.5018
  147PROXR  H1152489  11.280  11.699  11.651 -0.7783  1.1418  1.9023
  147PROXR  H1352490  11.280  11.657  11.829  1.6376  0.8691  1.2445
  147PROXR   C252491  11.458  11.767  11.762  0.3319 -0.4132  0.1375
  147PROXR  H2152492  11.523  11.710  11.832  0.0057 -1.3598 -0.3258
  147PROXR   C352493  11.402  11.893  11.830 -0.3308  0.2356  0.2066
  147PROXR  H3152494  11.321  11.947  11.777 -2.1814  0.3145  2.9402
  147PROXR  H3252495  11.366  11.860  11.930 -2.2196  1.0873 -0.1560
  147PROXR  H3352496  11.481  11.965  11.861  2.3974 -2.5273  0.1467
  148PROXR   O152497  11.518  11.793  11.640 -0.2185 -0.1318  0.3346
  148PROXR   C152498  11.633  11.874  11.638 -0.4782  0.2356 -0.1143
  148PROXR  H1152499  11.668  11.881  11.533  1.7171 -0.4525  0.5053
  148PROXR  H1352500  11.605  11.975  11.673  1.1870  0.9611 -0.7676
  148PROXR   C252501  11.753  11.816  11.716  0.6971  0.3994  1.1776
  148PROXR  H2152502  11.724  11.786  11.819 -0.3458  0.1308  0.8135
  148PROXR   C352503  11.869  11.920  11.722  0.0968 -0.2798 -0.0641
  148PROXR  H3152504  11.831  12.016  11.763 -1.6999 -0.8527 -0.2863
  148PROXR  H3252505  11.948  11.877  11.788  0.7677 -1.0519 -1.3293
  148PROXR  H3352506  11.923  11.937  11.627  1.8900  0.9786  1.1050
  149PROXR   O152507  11.808  11.697  11.647 -0.3022  0.0818 -0.4991
  149PROXR   C152508  11.726  11.579  11.660  0.2502  0.7101  0.1427
  149PROXR  H1152509  11.715  11.524  11.755 -0.6555 -0.5006 -0.6321
  149PROXR  H1352510  11.619  11.600  11.640 -0.0433  0.4991  1.4495
  149PROXR   C252511  11.777  11.489  11.549 -0.9301 -0.0897 -0.2021
  149PROXR  H2152512  11.885  11.471  11.568 -1.0400  0.1316  0.6454
  149PROXR   C352513  11.762  11.549  11.410 -0.0202 -0.0243  0.0803
  149PROXR  H3152514  11.833  11.634  11.411  0.5026 -0.4606  0.3967
  149PROXR  H3252515  11.796  11.478  11.332  1.3228  0.8934 -0.1969
  149PROXR  H3352516  11.658  11.587  11.397 -0.1615  0.4697  2.2346
  150PROXS   O152517  11.709  11.364  11.552 -0.4622  0.9386 -0.1775
  150PROXS   C152518  11.778  11.273  11.643 -0.3928 -0.3547  0.2423
  150PROXS  H1152519  11.889  11.283  11.646 -0.2605 -1.5343 -0.0558
  150PROXS  H1352520  11.736  11.310  11.739  0.4160 -1.7201  1.1546
  150PROXS   C252521  11.748  11.121  11.635 -0.0166 -0.5174 -0.1993
  150PROXS  H2152522  11.785  11.096  11.533  1.2782  0.1390  0.0839
  150PROXS   C352523  11.599  11.108  11.654  0.4313  0.0022 -0.1527
  150PROXS  H3152524  11.562  11.003  11.650 -0.7862  0.4204 -0.2514
  150PROXS  H3252525  11.565  11.144  11.753 -0.4283 -4.1984  1.3001
  150PROXS  H3352526  11.546  11.158  11.571  2.7664 -1.1385 -2.4827
  151PROXR   O152527  11.823  11.053  11.732  0.0804 -0.5534  0.0417
  151PROXR   C152528  11.815  10.915  11.729 -0.0288 -0.1874 -0.0036
  151PROXR  H1152529  11.773  10.883  11.631  3.1416  1.9811 -2.2923
  151PROXR  H1352530  11.912  10.862  11.723 -1.3222 -2.6669 -0.3118
  151PROXR   C252531  11.739  10.860  11.848  0.0336  0.3437  0.3204
  151PROXR  H2152532  11.636  10.902  11.844 -0.2699 -0.3420  0.7286
  151PROXR   C352533  11.813  10.888  11.973  0.5821 -0.6067 -0.6088
  151PROXR  H3152534  11.910  10.838  11.953  1.1291  0.4526 -0.6667
  151PROXR  H3252535  11.828  10.996  11.990  0.1376 -0.9375  2.4039
  151PROXR  H3352536  11.771  10.850  12.069  2.6551  0.4400  0.7853
  152PROXR   O152537  11.739  10.720  11.837  0.5625  0.8860 -0.7272
  152PROXR   C152538  11.627  10.673  11.760  0.3616  0.2331 -0.2357
  152PROXR  H1152539  11.532  10.685  11.818 -0.0871  1.0277 -1.1027
  152PROXR  H1352540  11.624  10.719  11.659 -0.9567 -1.3101 -0.9453
  152PROXR   C252541  11.644  10.528  11.732  0.5916  0.4953  0.2964
  152PROXR  H2152542  11.692  10.482  11.821  1.1499  0.4805 -0.0040
  152PROXR   C352543  11.730  10.499  11.610  0.2335 -0.4050 -0.4683
  152PROXR  H3152544  11.804  10.416  11.612  1.3958  0.6139  0.7539
  152PROXR  H3252545  11.666  10.483  11.521 -0.1876 -1.2500 -0.0285
  152PROXR  H3352546  11.798  10.585  11.596  0.1848 -0.2575  0.1782
  153PROXR   O152547  11.514  10.472  11.709  0.5859 -0.1487 -0.2597
  153PROXR   C152548  11.504  10.328  11.724  0.4395  0.4309  0.1246
  153PROXR  H1152549  11.571  10.279  11.650 -0.2979  1.9093 -1.6092
  153PROXR  H1352550  11.546  10.290  11.819 -0.1431 -0.5660 -0.0018
  153PROXR   C252551  11.356  10.275  11.707 -0.0519  0.1678  0.0606
  153PROXR  H2152552  11.317  10.328  11.617 -1.2470  1.3093  1.1998
  153PROXR   C352553  11.280  10.315  11.834 -0.0876  0.4017  0.1199
  153PROXR  H3152554  11.174  10.287  11.814  0.5630 -0.5974 -2.2618
  153PROXR  H3252555  11.320  10.259  11.921  0.5967 -1.9520 -1.6056
  153PROXR  H3352556  11.276  10.425  11.846 -0.2336  0.4781 -0.5629
  154PROXS   O152557  11.356  10.136  11.709  0.1592 -0.0660  0.2720
  154PROXS   C152558  11.242  10.080  11.655  0.1707  0.6615  0.2478
  154PROXS  H1152559  11.159  10.115  11.719 -0.2714  1.4036 -0.7081
  154PROXS  H1352560  11.215  10.122  11.556 -0.9087 -0.5245  0.0060
  154PROXS   C252561  11.249   9.926  11.643  0.4294 -0.2679  0.2785
  154PROXS  H2152562  11.273   9.878  11.740 -0.6256 -3.3584 -0.8860
  154PROXS   C352563  11.349   9.896  11.537 -0.4125  0.5450  0.1678
  154PROXS  H3152564  11.313   9.920  11.434  1.5600 -1.1143 -0.9850
  154PROXS  H3252565  11.440   9.955  11.560 -0.2041 -0.0288  0.8617
  154PROXS  H3352566  11.375   9.788  11.529 -1.3388  0.1887  1.5657
  155PROXR   O152567  11.129   9.871  11.591  0.4540 -0.0953 -0.0807
  155PROXR   C152568  11.122   9.728  11.598  0.0179  0.3278  0.4985
  155PROXR  H1152569  11.170   9.675  11.512  1.9462 -1.3030  2.4456
  155PROXR  H1352570  11.174   9.688  11.688  1.0542 -0.1656 -0.2911
  155PROXR   C252571  10.974   9.682  11.600  0.0311 -0.3888  0.2855
  155PROXR  H2152572  10.934   9.744  11.517 -1.0688  0.6350  1.5286
  155PROXR   C352573  10.901   9.721  11.733  0.5218 -0.0944 -0.0518
  155PROXR  H3152574  10.928   9.649  11.813 -1.6559 -0.5920  0.3046
  155PROXR  H3252575  10.918   9.826  11.765 -0.1893  0.8165 -2.4601
  155PROXR  H3352576  10.794   9.716  11.706  0.8745 -0.3603 -1.4453
  156PROXS   O152577  10.956   9.551  11.569 -0.0203  0.7957  0.3998
  156PROXS   C152578  10.837   9.525  11.496  0.2585  0.3970  0.1359
  156PROXS  H1152579  10.785   9.613  11.452 -0.1069  0.0301 -0.1650
  156PROXS  H1352580  10.860   9.463  11.407  1.3081  2.2790 -0.9818
  156PROXS   C252581  10.728   9.435  11.572 -0.0628  0.1810 -0.3861
  156PROXS  H2152582  10.707   9.512  11.649 -2.0613  0.7843 -1.4497
  156PROXS   C352583  10.780   9.301  11.612 -0.1831  0.6801  0.0241
  156PROXS  H3152584  10.823   9.248  11.525  1.2883  0.0724  1.0833
  156PROXS  H3252585  10.852   9.310  11.696 -2.9579  0.8273  2.5776
  156PROXS  H3352586  10.704   9.232  11.655  0.6347 -0.5882 -0.5081
  157PROXS   O152587  10.618   9.428  11.484  0.7495  0.2462  0.1671
  157PROXS   C152588  10.491   9.402  11.555 -0.8868 -0.3662  0.0432
  157PROXS  H1152589  10.492   9.325  11.635  1.3277 -0.3473  0.0986
  157PROXS  H1352590  10.473   9.497  11.609 -0.4267 -0.2681  0.0265
  157PROXS   C252591  10.364   9.370  11.474 -0.2089 -0.0107  0.6578
  157PROXS  H2152592  10.285   9.378  11.551  0.3005  2.9868  0.9731
  157PROXS   C352593  10.369   9.222  11.419 -0.1549  0.1705 -0.0053
  157PROXS  H3152594  10.344   9.149  11.498  2.1694  0.2867  0.9135
  157PROXS  H3252595  10.284   9.211  11.348 -1.1067  1.7371  0.8306
  157PROXS  H3352596  10.464   9.187  11.374  0.3893  2.9496 -1.2554
  158PROXR   O152597  10.334   9.479  11.376  0.3423  0.3327 -0.2103
  158PROXR   C152598  10.417   9.471  11.262  0.4063  0.4012  0.4635
  158PROXR  H1152599  10.520   9.434  11.280  0.4871  0.5041  0.2183
  158PROXR  H1352600  10.370   9.405  11.186 -3.5635 -1.0965  3.8215
  158PROXR   C252601  10.436   9.609  11.194 -0.6447 -0.2225 -0.3116
  158PROXR  H2152602  10.468   9.689  11.264 -0.4677  0.5024 -1.2071
  158PROXR   C352603  10.303   9.660  11.130 -0.0533 -0.2609 -0.4933
  158PROXR  H3152604  10.315   9.765  11.096  0.3928 -0.6166 -1.4623
  158PROXR  H3252605  10.267   9.604  11.041 -1.8519 -1.1348  0.7350
  158PROXR  H3352606  10.229   9.648  11.212  0.6118 -2.5149 -0.1418
  159PROXR   O152607  10.529   9.588  11.089  0.0080 -0.1033  0.2263
  159PROXR   C152608  10.600   9.705  11.049  0.1077 -0.1886 -0.0306
  159PROXR  H1152609  10.545   9.801  11.059 -0.2702 -0.5933  2.3147
  159PROXR  H1352610  10.687   9.723  11.117 -0.3872  0.5654  0.4251
  159PROXR   C252611  10.650   9.692  10.904 -0.2276  0.3460  0.0033
  159PROXR  H2152612  10.563   9.698  10.836 -0.0297 -0.0782 -0.2923
  159PROXR   C352613  10.720   9.558  10.885  0.3281 -0.4296  0.0434
  159PROXR  H3152614  10.745   9.535  10.779 -0.5469 -1.9665  0.1421
  159PROXR  H3252615  10.812   9.564  10.947 -0.4976  0.8977  1.2153
  159PROXR  H3352616  10.663   9.464  10.905 -2.5879  0.9159 -1.2694
  160PROXS   O152617  10.744   9.797  10.881  1.0817  0.5756  0.2605
  160PROXS   C152618  10.746   9.857  10.750  0.2236  0.4445  0.3117
  160PROXS  H1152619  10.754   9.776  10.674 -0.6859  0.5343  0.1117
  160PROXS  H1352620  10.652   9.914  10.731  0.4323  0.2457 -1.5602
  160PROXS   C252621  10.855   9.968  10.727  1.2132  0.1748 -0.3239
  160PROXS  H2152622  10.954   9.918  10.721  1.1985 -0.1465  1.5371
  160PROXS   C352623  10.848  10.073  10.839  0.0282 -0.4744  0.2843
  160PROXS  H3152624  10.888  10.014  10.924  0.7268  1.2506  1.1946
  160PROXS  H3252625  10.914  10.161  10.832  2.3962 -2.2469 -2.2186
  160PROXS  H3352626  10.742  10.085  10.868  0.3079 -0.9384  1.5391
  161PROXR   O152627  10.828  10.022  10.597  0.1909 -0.8504 -0.3619
  161PROXR   C152628  10.951  10.088  10.543  0.3579  0.3224  0.2652
  161PROXR  H1152629  11.028  10.102  10.621  1.1549  4.1103 -0.9815
  161PROXR  H1352630  10.988  10.036  10.452 -0.5914  0.1010 -0.0122
  161PROXR   C252631  10.915  10.234  10.500  0.9323 -0.3983 -0.2695
  161PROXR  H2152632  10.832  10.223  10.427 -0.4520 -1.7308  1.4439
  161PROXR   C352633  11.037  10.297  10.435  0.0699 -0.3133  0.1180
  161PROXR  H3152634  11.066  10.238  10.346 -1.1596 -0.1796 -0.3943
  161PROXR  H3252635  11.006  10.398  10.400 -2.8475 -1.4238 -0.8480
  161PROXR  H3352636  11.126  10.283  10.499 -0.5628  0.6479  1.2488
  162PROXR   O152637  10.873  10.303  10.617 -0.0328 -0.4167 -0.2650
  162PROXR   C152638  10.732  10.318  10.624 -0.0065  0.1404 -0.4155
  162PROXR  H1152639  10.676  10.230  10.584  2.9586 -1.5009 -1.2314
  162PROXR  H1352640  10.705  10.331  10.731 -0.5211  1.7486 -0.7099
  162PROXR   C252641  10.675  10.437  10.547  0.1639 -0.3817 -0.2414
  162PROXR  H2152642  10.711  10.424  10.442 -0.7601  0.1798 -0.6393
  162PROXR   C352643  10.723  10.571  10.596  0.4437 -0.0521  0.6339
  162PROXR  H3152644  10.664  10.651  10.546 -2.6281 -0.8714  2.6610
  162PROXR  H3252645  10.686  10.585  10.700 -1.0655  1.4469 -0.0487
  162PROXR  H3352646  10.833  10.588  10.593  0.3799  0.2083 -1.2496
  163PROXS   O152647  10.530  10.422  10.550  0.4107  0.2013  0.1268
  163PROXS   C152648  10.456  10.486  10.442  0.3305  0.4322 -0.1202
  163PROXS  H1152649  10.487  10.592  10.435 -1.7493  0.9906 -1.7126
  163PROXS  H1352650  10.473  10.448  10.339 -0.2602  1.8238 -0.7562
  163PROXS   C252651  10.305  10.481  10.470 -0.6864  0.9108 -0.2637
  163PROXS  H2152652  10.291  10.488  10.580 -2.0562  1.1652 -0.4391
  163PROXS   C352653  10.252  10.342  10.427 -0.2725  0.5018  0.4749
  163PROXS  H3152654  10.152  10.330  10.473 -0.5606  2.7495  0.5291
  163PROXS  H3252655  10.244  10.334  10.316 -1.1481 -0.1292  0.5712
  163PROXS  H3352656  10.325  10.267  10.466  1.6870  1.7165 -0.7157
  164PROXR   O152657  10.250  10.595  10.400  0.0386 -0.3800 -0.1639
  164PROXR   C152658  10.118  10.632  10.446 -0.4663 -0.4505 -0.1977
  164PROXR  H1152659  10.048  10.560  10.399  2.6383 -1.4208 -3.7822
  164PROXR  H1352660  10.131  10.636  10.556 -0.5170  1.8672 -0.2120
  164PROXR   C252661  10.074  10.776  10.395  0.1385 -0.6071  0.0799
  164PROXR  H2152662  10.084  10.782  10.284  2.3658 -1.0461  0.2008
  164PROXR   C352663  10.155  10.884  10.457 -0.5027 -0.0245  0.1347
  164PROXR  H3152664  10.142  10.899  10.566 -1.9536 -0.8698  0.1062
  164PROXR  H3252665  10.262  10.857  10.444 -0.2802  0.6643  0.5165
  164PROXR  H3352666  10.141  10.978  10.401 -0.4202  0.4788  0.9478
  165PROXR   O152667   9.946  10.817  10.438 -0.2541 -1.0275 -0.1059
  165PROXR   C152668   9.844  10.767  10.352  0.2106  0.0629  0.0758
  165PROXR  H1152669   9.836  10.843  10.272  1.0908 -1.5021 -1.5890
  165PROXR  H1352670   9.883  10.673  10.307  0.5472 -0.2191  0.9111
  165PROXR   C252671   9.711  10.755  10.434  0.4708  0.3720  0.2688
  165PROXR  H2152672   9.699  10.862  10.463  0.9690  0.3730  0.4775
  165PROXR   C352673   9.724  10.684  10.571  0.1013 -0.3138  0.1477
  165PROXR  H3152674   9.785  10.749  10.637  0.2467  0.7028 -0.9756
  165PROXR  H3252675   9.627  10.679  10.626  0.1945 -1.9005  0.2360
  165PROXR  H3352676   9.770  10.583  10.560  0.0046 -0.3837  0.3688
  166ETHOX   O152677   9.608  10.710  10.349  0.6447  0.5825  0.0693
  166ETHOX   C152678   9.477  10.682  10.408 -0.3934 -0.3503 -0.1325
  166ETHOX  H1152679   9.438  10.762  10.474  2.4018 -0.0119  1.2437
  166ETHOX  H1352680   9.495  10.592  10.471  0.5348 -2.1695 -2.8355
  166ETHOX   C252681   9.376  10.648  10.304 -0.1339 -0.1609 -0.3953
  166ETHOX  H2152682   9.367  10.717  10.217 -0.7369  1.3028  0.7820
  166ETHOX  H2352683   9.281  10.670  10.357  0.9890  0.0314  1.6269
  167ETHOX   O152684   9.404  10.520  10.254  0.1764  0.0455 -0.8541
  167ETHOX   C152685   9.300  10.464  10.186 -0.2147  0.0094 -0.9172
  167ETHOX  H1152686   9.210  10.529  10.174 -1.2669 -1.3921 -0.8915
  167ETHOX  H1352687   9.339  10.425  10.089  0.4259  0.0999 -0.7015
  167ETHOX   C252688   9.243  10.348  10.261 -0.0296  0.1449 -0.7157
  167ETHOX  H2152689   9.164  10.295  10.203 -0.6737  1.0587 -0.6936
  167ETHOX  H2352690   9.194  10.378  10.356 -1.1677  0.9390 -1.5270
  168ETHOX   O152691   9.340  10.241  10.271  0.2729  0.0409 -0.1855
  168ETHOX   C152692   9.285  10.109  10.282 -0.2150 -0.4259  0.7218
  168ETHOX  H1152693   9.232  10.087  10.186 -0.4430  1.6794  0.3284
  168ETHOX  H1352694   9.198  10.113  10.351 -0.4160 -1.3623  0.5450
  168ETHOX   C252695   9.384   9.993  10.317 -0.1062  0.4680 -0.1118
  168ETHOX  H2152696   9.316   9.905  10.310 -1.2312  1.2916  0.0945
  168ETHOX  H2352697   9.437   9.993  10.415  0.7476  0.3385 -0.5642
  169ETHOX   O152698   9.491   9.987  10.213  0.3665 -0.2724 -0.1823
  169ETHOX   C152699   9.574   9.874  10.225 -0.7107 -0.3134  0.4769
  169ETHOX  H1152700   9.621   9.882  10.325  0.3805  0.8899 -0.0986
  169ETHOX  H1352701   9.509   9.784  10.225 -2.0633  0.6262 -0.7921
  169ETHOX   C252702   9.691   9.875  10.132 -0.4682 -0.3379  0.1020
  169ETHOX  H2152703   9.677   9.879  10.022  0.7680  1.8771 -0.0061
  169ETHOX  H2352704   9.746   9.780  10.151  1.8407  0.4971 -1.9329
  170ETHOX   O152705   9.777   9.986  10.171  0.1715  0.0218 -0.0655
  170ETHOX   C152706   9.898   9.987  10.102 -0.6124  0.3536 -0.0106
  170ETHOX  H1152707   9.871  10.010   9.996  0.9245  0.3483 -0.4365
  170ETHOX  H1352708   9.943   9.885  10.101 -1.3087  0.0248 -1.7371
  170ETHOX   C252709   9.997  10.091  10.166  0.0302  0.0324  0.9977
  170ETHOX  H2152710   9.944  10.182  10.203 -1.1501  0.3566 -1.3517
  170ETHOX  H2352711  10.062  10.133  10.087 -0.5760  0.1113  0.5310
  171ETHOX   O152712  10.076  10.049  10.273 -0.6388 -0.0950 -0.2284
  171ETHOX   C152713  10.005  10.012  10.390 -0.0853  0.6121 -0.4938
  171ETHOX  H1152714   9.948  10.100  10.430  0.2800 -0.4490  2.6602
  171ETHOX  H1352715   9.937   9.927  10.368 -0.3793  0.8654 -0.5896
  171ETHOX   C252716  10.104   9.974  10.499  0.1795  0.7348  0.6170
  171ETHOX  H2152717  10.164  10.061  10.532  2.2571 -0.9605  1.5650
  171ETHOX  H2352718  10.182   9.908  10.454 -0.4028  1.1198 -1.0492
  172ETHOX   O152719  10.035   9.911  10.606 -0.5483  0.3247  0.2641
  172ETHOX   C152720  10.119   9.874  10.712 -0.3314  0.3483 -0.6491
  172ETHOX  H1152721  10.167   9.958  10.766 -0.0986  0.1238 -0.4978
  172ETHOX  H1352722  10.202   9.810  10.674 -0.9789 -1.1517  0.3554
  172ETHOX   C252723  10.044   9.787  10.813 -0.7953 -0.1860  0.1029
  172ETHOX  H2152724   9.941   9.824  10.835 -0.1072 -0.1175  3.7569
  172ETHOX  H2352725  10.104   9.775  10.905 -1.7640 -0.2304  0.7416
  173ETHOX   O152726  10.030   9.668  10.743  0.1821  0.6026  0.2259
  173ETHOX   C152727   9.985   9.555  10.826  0.0131  0.7994  0.4982
  173ETHOX  H1152728  10.061   9.521  10.899 -0.4588 -1.4366  0.0499
  173ETHOX  H1352729   9.889   9.588  10.871  0.5732  2.9267  0.2002
  173ETHOX   C252730   9.950   9.422  10.737  0.3653 -0.0948 -0.5123
  173ETHOX  H2152731   9.898   9.365  10.817  0.0273 -0.2331 -0.8318
  173ETHOX  H2352732   9.886   9.455  10.653 -0.0086  0.0071 -0.1927
  174ETHOX   O152733  10.065   9.366  10.697 -0.6884  0.0750  0.6288
  174ETHOX   C152734  10.046   9.228  10.668  0.3741  0.5417 -0.2116
  174ETHOX  H1152735  10.011   9.169  10.755  0.0609 -2.1318 -2.0431
  174ETHOX  H1352736   9.962   9.222  10.595 -1.1262 -0.3140  1.5126
  174ETHOX   C252737  10.182   9.165  10.627 -0.9745  0.0069  0.1861
  174ETHOX  H2152738  10.222   9.232  10.548  1.2131  1.9999  2.7939
  174ETHOX  H2352739  10.164   9.068  10.576 -0.1125 -0.0856  0.0406
  175ETHOX   O152740  10.273   9.140  10.734 -0.5125  0.7535 -0.4188
  175ETHOX   C152741  10.343   9.261  10.772  0.4420  0.4251 -0.7382
  175ETHOX  H1152742  10.406   9.291  10.686  0.3294  2.7949 -0.0603
  175ETHOX  H1352743  10.284   9.354  10.788  0.4349  0.3846 -0.5165
  175ETHOX   C252744  10.408   9.255  10.918  0.2504 -1.2113  0.2508
  175ETHOX  H2152745  10.344   9.205  10.993  0.6868 -1.2913  0.5740
  175ETHOX  H2352746  10.428   9.362  10.940 -0.2444 -1.1591  0.4391
  176ETHOX   O152747  10.537   9.204  10.909  0.6775  0.4338  0.4085
  176ETHOX   C152748  10.594   9.217  11.034 -0.8091  0.4695  0.0384
  176ETHOX  H1152749  10.617   9.318  11.076  0.9559 -0.8950  2.5986
  176ETHOX  H1352750  10.535   9.167  11.114 -1.1674  2.2118  0.9215
  176ETHOX   C252751  10.730   9.144  11.022  0.3658 -0.6268 -0.8200
  176ETHOX  H2152752  10.711   9.053  10.962  1.9565 -0.7252 -1.2150
  176ETHOX  H2352753  10.774   9.126  11.122  0.6353  0.6403 -0.6871
  177ETHOX   O152754  10.826   9.230  10.956 -0.1778 -0.2008 -0.2744
  177ETHOX   C152755  10.942   9.151  10.927 -0.2778  0.3843 -0.0961
  177ETHOX  H1152756  10.925   9.088  10.837  0.6081 -2.4022  1.5854
  177ETHOX  H1352757  10.964   9.082  11.011  2.8710  2.3449  0.8536
  177ETHOX   C252758  11.061   9.251  10.907 -0.3498 -0.1735  0.2924
  177ETHOX  H2152759  11.078   9.325  10.987 -0.3422 -0.5169  0.6118
  177ETHOX  H2352760  11.038   9.317  10.820 -1.4283 -0.4753  0.3357
  178ETHOX   O152761  11.190   9.189  10.898  0.8852  0.4585  0.3528
  178ETHOX   C152762  11.227   9.169  10.761  1.0587  0.3109  0.0569
  178ETHOX  H1152763  11.135   9.134  10.710  0.4140  0.5783  1.0104
  178ETHOX  H1352764  11.242   9.272  10.722 -0.7046  0.1773 -1.0704
  178ETHOX   C252765  11.345   9.075  10.736  0.4011  0.1484  0.5489
  178ETHOX  H2152766  11.429   9.135  10.775 -0.3123  0.2579  1.9704
  178ETHOX  H2352767  11.343   9.060  10.626 -2.0881 -1.7607  0.7520
  179ETHOX   O152768  11.331   8.953  10.807  0.0774 -0.9952  0.4183
  179ETHOX   C152769  11.215   8.872  10.756 -0.2624 -0.3673 -0.0084
  179ETHOX  H1152770  11.220   8.877  10.645  0.6242  3.6995  0.0658
  179ETHOX  H1352771  11.118   8.920  10.784  0.6181  1.4959 -0.0235
  179ETHOX   C252772  11.204   8.729  10.806  0.4813 -0.2761  0.0355
  179ETHOX  H2152773  11.307   8.688  10.801  0.2643 -0.6769 -1.6714
  179ETHOX  H2352774  11.133   8.670  10.744  1.0647 -0.2432 -0.6813
  180ETHOX   O152775  11.151   8.725  10.935 -0.6123  0.5060 -0.9552
  180ETHOX   C152776  11.176   8.601  11.001  0.2245  0.0106  0.8454
  180ETHOX  H1152777  11.181   8.513  10.933 -0.4366  0.8965 -0.3684
  180ETHOX  H1352778  11.275   8.611  11.051  0.4703 -0.8909  0.5624
  180ETHOX   C252779  11.079   8.588  11.116  0.0262 -0.3341  0.0097
  180ETHOX  H2152780  11.092   8.681  11.175 -0.2629 -0.9691  1.0834
  180ETHOX  H2352781  11.104   8.501  11.180 -1.0017 -0.3137  0.4584
  181ETHOX   O152782  10.945   8.567  11.077  0.0614 -0.5650  0.2157
  181ETHOX   C152783  10.866   8.530  11.189  0.2445 -0.4937  0.5444
  181ETHOX  H1152784  10.870   8.610  11.266 -0.6303  1.3667 -1.2666
  181ETHOX  H1352785  10.908   8.435  11.229 -0.0417 -1.1953 -0.7512
  181ETHOX   C252786  10.723   8.509  11.143  0.4510  0.3322 -0.3440
  181ETHOX  H2152787  10.669   8.459  11.227 -1.2726 -1.0043 -2.1703
  181ETHOX  H2352788  10.727   8.442  11.055 -1.0932  0.9736 -0.9219
  182ETHOX   O152789  10.664   8.633  11.105  0.3832  0.2113 -0.2442
  182ETHOX   C152790  10.563   8.613  11.011  0.8002  0.4681 -0.0938
  182ETHOX  H1152791  10.613   8.600  10.912  2.3952 -0.7713  0.8194
  182ETHOX  H1352792  10.513   8.515  11.029 -0.3059  0.9504 -0.5001
  182ETHOX   C252793  10.464   8.730  11.009 -0.0774  0.1304  0.2747
  182ETHOX  H2152794  10.399   8.727  10.919 -0.2737  2.0816  0.3008
  182ETHOX  H2352795  10.517   8.827  11.001 -1.4429  1.0767  2.0734
  183ETHOX   O152796  10.370   8.732  11.112  0.3222 -0.4208  0.1213
  183ETHOX   C152797  10.294   8.848  11.099 -0.3073 -0.2396 -1.0896
  183ETHOX  H1152798  10.242   8.847  11.000  1.9122 -0.0824 -2.3131
  183ETHOX  H1352799  10.363   8.935  11.090  0.5054 -1.0285 -3.1210
  183ETHOX   C252800  10.185   8.859  11.212  0.6883  0.8137 -0.1796
  183ETHOX  H2152801  10.236   8.838  11.308 -0.2358 -3.3646 -0.4472
  183ETHOX  H2352802  10.107   8.780  11.208 -0.3037  1.5615  2.4666
  184ETHOX   O152803  10.126   8.991  11.212  0.0551  0.2605 -0.4160
  184ETHOX   C152804  10.026   8.997  11.313 -0.3067 -0.5335  0.1429
  184ETHOX  H1152805   9.929   8.944  11.299 -0.5319 -0.4313  1.2052
  184ETHOX  H1352806  10.071   8.958  11.407  0.1755 -0.9333 -0.2554
  184ETHOX   C252807   9.982   9.138  11.360 -0.6353 -0.4372  0.8251
  184ETHOX  H2152808  10.074   9.196  11.383 -0.0295  0.6250 -3.4551
  184ETHOX  H2352809   9.915   9.113  11.445 -1.2154 -0.8450  0.2552
  185ETHOX   O152810   9.913   9.215  11.258 -0.0176  0.0256  0.7569
  185ETHOX   C152811   9.864   9.337  11.310  0.4553 -0.8587 -0.2865
  185ETHOX  H1152812   9.789   9.312  11.387  0.3229  1.1103  0.2992
  185ETHOX  H1352813   9.939   9.404  11.358 -1.4573  2.2609 -1.2802
  185ETHOX   C252814   9.785   9.429  11.215  0.4554 -0.1915 -0.4820
  185ETHOX  H2152815   9.843   9.446  11.122 -0.9560  1.5176 -1.0865
  185ETHOX  H2352816   9.761   9.520  11.273  1.5419 -0.6976  0.8341
  186ETHOX   O152817   9.649   9.378  11.187  0.1019 -1.0410 -0.0031
  186ETHOX   C152818   9.649   9.300  11.072 -0.6795  0.7246 -0.4420
  186ETHOX  H1152819   9.663   9.363  10.981  2.8220 -0.4744 -0.9042
  186ETHOX  H1352820   9.725   9.219  11.076 -1.6218 -0.1229  0.9369
  186ETHOX   C252821   9.505   9.226  11.055  0.3712  0.5839 -0.3544
  186ETHOX  H2152822   9.506   9.188  10.950 -0.9733  0.2063 -0.2606
  186ETHOX  H2352823   9.418   9.295  11.062 -0.7561 -0.7720 -0.4166
  187ETHOX   O152824   9.477   9.127  11.155 -0.1216  0.5188  0.2385
  187ETHOX   C152825   9.368   9.045  11.123  0.7050  0.5283 -0.5936
  187ETHOX  H1152826   9.275   9.107  11.124 -1.1808 -2.0814  1.8809
  187ETHOX  H1352827   9.381   8.987  11.030  1.7421 -2.1786  1.1303
  187ETHOX   C252828   9.334   8.939  11.227  0.5038 -0.0303 -0.6050
  187ETHOX  H2152829   9.233   8.896  11.213 -0.1958  1.4973 -0.4540
  187ETHOX  H2352830   9.333   8.986  11.328  0.6227 -1.4849  0.1020
  188ETHOX   O152831   9.435   8.834  11.222  0.8030  0.2355  0.5030
  188ETHOX   C152832   9.425   8.740  11.107  0.5064 -0.8845  0.0325
  188ETHOX  H1152833   9.327   8.733  11.057  1.4618 -0.8247 -1.9539
  188ETHOX  H1352834   9.450   8.642  11.153 -1.2671 -1.3716  0.0168
  188ETHOX   C252835   9.542   8.766  11.012  0.0317 -0.3333  0.0355
  188ETHOX  H2152836   9.633   8.775  11.075 -1.0289 -0.5930  1.6587
  188ETHOX  H2352837   9.522   8.857  10.951 -2.1096 -0.2985  0.6930
  189ETHOX   O152838   9.540   8.658  10.917  0.5067  0.3013  0.3830
  189ETHOX   C152839   9.593   8.698  10.795 -0.0395  0.8681 -0.2610
  189ETHOX  H1152840   9.535   8.779  10.745 -0.9451  1.3450  1.4964
  189ETHOX  H1352841   9.692   8.738  10.826  0.3254 -0.2353  0.0583
  189ETHOX   C252842   9.624   8.582  10.703  0.2597  0.1517  0.1535
  189ETHOX  H2152843   9.705   8.514  10.738 -0.1882 -1.7627 -2.2637
  189ETHOX  H2352844   9.671   8.617  10.608 -1.5617 -0.5401 -1.0658
  190ETHOX   O152845   9.512   8.507  10.669 -0.6116 -0.2785  0.4847
  190ETHOX   C152846   9.516   8.472  10.529  0.3374  0.5372  1.0189
  190ETHOX  H1152847   9.609   8.415  10.505 -1.1974 -2.2325  1.1639
  190ETHOX  H1352848   9.513   8.561  10.463  1.1777  0.4442  0.8343
  190ETHOX   C252849   9.402   8.376  10.476  0.1868  0.2113 -0.5178
  190ETHOX  H2152850   9.401   8.379  10.365 -1.0702 -0.7579 -0.5419
  190ETHOX  H2352851   9.308   8.414  10.520  0.9268  1.1731  0.2969
  191ETHOX   O152852   9.433   8.247  10.509 -0.1445  0.1937  0.4103
  191ETHOX   C152853   9.330   8.156  10.474 -1.2515 -0.5563  0.5582
  191ETHOX  H1152854   9.233   8.189  10.517  0.2922 -1.1799  4.9410
  191ETHOX  H1352855   9.334   8.165  10.363 -0.4374  0.9162  0.6793
  191ETHOX   C252856   9.351   8.012  10.519  0.3672  0.4833  0.1109
  191ETHOX  H2152857   9.273   7.953  10.467 -0.6266 -0.5626  2.6559
  191ETHOX  H2352858   9.344   8.002  10.629 -0.0451 -0.8760 -0.0248
  192ETHOX   O152859   9.479   7.959  10.485 -0.7557 -0.1897  0.8090
  192ETHOX   C152860   9.493   7.819  10.516  0.0535 -0.2518 -0.1528
  192ETHOX  H1152861   9.411   7.763  10.466  0.1896  1.0331 -1.9418
  192ETHOX  H1352862   9.493   7.820  10.627  0.5303  2.4107 -0.0948
  192ETHOX   C252863   9.633   7.772  10.482 -0.0990 -0.7921  0.3665
  192ETHOX  H2152864   9.655   7.797  10.376  1.4621  2.2147  1.2781
  192ETHOX  H2352865   9.630   7.661  10.492 -2.7061 -1.1524 -2.8084
  193ETHOX   O152866   9.728   7.831  10.559 -0.5602 -0.0446 -0.7506
  193ETHOX   C152867   9.858   7.816  10.501 -0.3209  0.1244 -0.1103
  193ETHOX  H1152868   9.876   7.708  10.484 -0.5393 -0.0718  0.8455
  193ETHOX  H1352869   9.856   7.865  10.401 -0.0808  2.0308  0.7644
  193ETHOX   C252870   9.961   7.882  10.589  0.2239  0.8870  0.0811
  193ETHOX  H2152871   9.991   7.822  10.678  0.5999 -0.7323 -1.0876
  193ETHOX  H2352872   9.932   7.981  10.631  0.8924  0.0502  2.6788
  194ETHOX   O152873  10.079   7.890  10.510  0.3302  0.0966 -1.0537
  194ETHOX   C152874  10.149   7.768  10.478 -0.1282  0.0671  0.5634
  194ETHOX  H1152875  10.096   7.725  10.390  0.5395 -2.2971  1.2461
  194ETHOX  H1352876  10.145   7.693  10.560  0.5794  0.1841  0.7109
  194ETHOX   C252877  10.298   7.791  10.440 -0.5778 -0.0119 -0.7069
  194ETHOX  H2152878  10.315   7.877  10.372  0.7744  1.3947  1.2782
  194ETHOX  H2352879  10.333   7.703  10.382  0.7427 -0.0979  0.1724
  195ETHOX   O152880  10.390   7.795  10.549  0.3469  0.3386  0.2932
  195ETHOX   C152881  10.369   7.905  10.636  0.4586  0.2838 -0.5842
  195ETHOX  H1152882  10.328   7.991  10.578 -2.5423 -0.1027  0.7749
  195ETHOX  H1352883  10.295   7.866  10.708  0.1234 -2.8408 -2.4297
  195ETHOX   C252884  10.490   7.959  10.722  0.3462 -0.0203  0.3458
  195ETHOX  H2152885  10.568   8.006  10.658 -0.6561  3.2507  1.3371
  195ETHOX  H2352886  10.547   7.873  10.763 -0.2165 -1.0384 -0.9403
  196ETHOX   O152887  10.456   8.051  10.825 -0.5268  0.0832  0.4981
  196ETHOX   C152888  10.577   8.065  10.901  0.2112 -0.2970  0.0667
  196ETHOX  H1152889  10.641   7.975  10.913 -0.7653 -1.0076  0.0639
  196ETHOX  H1352890  10.638   8.143  10.851  0.8169 -2.4345 -2.7691
  196ETHOX   C252891  10.545   8.123  11.040  0.7879 -0.1488  0.0141
  196ETHOX  H2152892  10.482   8.214  11.028  2.6746  1.7558  3.0234
  196ETHOX  H2352893  10.641   8.158  11.084  0.4975  3.5398 -1.8583
  197ETHOX   O152894  10.485   8.024  11.123  0.2181  0.4889 -0.5303
  197ETHOX   C152895  10.423   8.085  11.231 -0.4415  0.4393  0.2634
  197ETHOX  H1152896  10.501   8.129  11.296  0.1109 -1.5864  1.0378
  197ETHOX  H1352897  10.357   8.163  11.189 -1.9373 -0.2781  1.2201
  197ETHOX   C252898  10.335   7.976  11.302  0.1690 -0.3790  0.9411
  197ETHOX  H2152899  10.260   7.933  11.233  0.3631  1.3304 -0.3910
  197ETHOX  H2352900  10.278   8.022  11.386 -1.7830 -0.4174 -0.3237
  198ETHOX   O152901  10.427   7.883  11.344 -0.1651  0.2195 -0.1481
  198ETHOX   C152902  10.365   7.755  11.355  0.1649 -0.0220  0.8316
  198ETHOX  H1152903  10.259   7.771  11.384 -0.3447 -0.3355 -0.7649
  198ETHOX  H1352904  10.358   7.705  11.256  1.0805 -1.1647  1.3234
  198ETHOX   C252905  10.439   7.659  11.450 -0.6125  0.3092  0.1335
  198ETHOX  H2152906  10.543   7.656  11.412 -1.2171 -0.6897 -1.5683
  198ETHOX  H2352907  10.399   7.557  11.433  0.1623 -0.8346  4.1383
  199ETHOX   O152908  10.433   7.690  11.592  0.6350  0.7394 -0.1274
  199ETHOX   C152909  10.472   7.815  11.630 -0.5530  0.7974  0.0741
  199ETHOX  H1152910  10.407   7.894  11.585  0.7397  1.6032 -0.4202
  199ETHOX  H1352911  10.570   7.841  11.585 -1.0852  0.7907 -1.1233
  199ETHOX   C252912  10.478   7.820  11.783  0.6100  0.1522  0.0085
  199ETHOX  H2152913  10.380   7.793  11.828 -0.2916 -0.7216 -2.3519
  199ETHOX  H2352914  10.484   7.930  11.802 -1.8111  0.5940 -1.3458
  200ETHOX   O152915  10.581   7.744  11.846 -0.4405 -0.0838 -0.6003
  200ETHOX   C152916  10.574   7.747  11.992 -0.7319  0.2896  1.3449
  200ETHOX  H1152917  10.560   7.852  12.027 -1.1786  0.3441  1.0083
  200ETHOX  H1352918  10.497   7.681  12.036 -0.1930 -1.8713 -0.7956
  200ETHOX   C252919  10.706   7.705  12.063  1.0660  0.6927 -0.2577
  200ETHOX  H2152920  10.716   7.754  12.162  2.3441 -0.6169  0.3024
  200ETHOX  H2352921  10.793   7.748  12.008  0.1306 -0.2277 -2.6007
  201ETHOX   O152922  10.737   7.575  12.091 -0.0816  0.7993 -0.4377
  201ETHOX   C152923  10.671   7.523  12.206 -0.8489  0.1634 -0.1296
  201ETHOX  H1152924  10.561   7.527  12.194 -0.9815  1.1664  1.1434
  201ETHOX  H1352925  10.706   7.576  12.297 -0.6305 -0.3103  0.0638
  201ETHOX   C252926  10.714   7.373  12.232 -0.1494  0.0624  0.0010
  201ETHOX  H2152927  10.663   7.338  12.324 -1.3694  3.0202  0.5621
  201ETHOX  H2352928  10.825   7.373  12.240 -0.1921  0.8499  0.7073
  202ETHOX   O152929  10.668   7.291  12.127 -0.3557  0.1446  0.2652
  202ETHOX   C152930  10.696   7.151  12.153 -0.0505 -1.2927 -0.7462
  202ETHOX  H1152931  10.805   7.134  12.139  0.1450 -0.0749 -0.8463
  202ETHOX  H1352932  10.656   7.121  12.252 -2.5194  0.5700 -1.0784
  202ETHOX   C252933  10.620   7.069  12.054  0.4259 -0.1224 -0.2219
  202ETHOX  H2152934  10.522   7.119  12.055 -0.5120 -1.8087 -1.5035
  202ETHOX  H2352935  10.608   6.963  12.086  1.3340 -1.3371 -3.4702
  203ETHOX   O152936  10.673   7.075  11.925 -0.0794 -0.4110  0.4503
  203ETHOX   C152937  10.773   6.978  11.897 -0.4955 -0.0812 -0.0573
  203ETHOX  H1152938  10.745   6.877  11.936 -0.2814 -0.1839 -0.1661
  203ETHOX  H1352939  10.865   7.015  11.947 -1.1109  0.6698  0.5313
  203ETHOX   C252940  10.796   6.960  11.748 -0.1246  0.8630 -0.2369
  203ETHOX  H2152941  10.888   6.900  11.736 -1.0339 -0.7410  0.4377
  203ETHOX  H2352942  10.801   7.063  11.705 -1.5135  0.7438 -0.7339
  204ETHOX   O152943  10.685   6.895  11.695  0.7992 -0.3370  0.4191
  204ETHOX   C152944  10.701   6.872  11.559 -0.3059 -0.1835  0.1233
  204ETHOX  H1152945  10.630   6.937  11.504 -0.7797  1.1898  2.2671
  204ETHOX  H1352946  10.801   6.895  11.516 -0.8723  0.1387 -1.0575
  204ETHOX   C252947  10.659   6.722  11.528 -0.7927  0.0870  0.5877
  204ETHOX  H2152948  10.700   6.648  11.600 -1.2664  1.1388  1.9898
  204ETHOX  H2352949  10.708   6.700  11.431 -0.1887 -1.7751  1.2668
  205ETHOX   O152950  10.525   6.695  11.520  0.2030  0.0600 -0.3060
  205ETHOX   C152951  10.488   6.557  11.523 -0.0254  0.3580  0.6466
  205ETHOX  H1152952  10.380   6.562  11.496 -0.3159 -1.3709  1.3680
  205ETHOX  H1352953  10.496   6.518  11.627  1.1717 -0.1720  0.3707
  205ETHOX   C252954  10.550   6.477  11.401 -1.1822  0.4415 -0.2057
  205ETHOX  H2152955  10.575   6.543  11.315  2.2390  1.0209  1.0826
  205ETHOX  H2352956  10.478   6.395  11.380 -0.8252 -0.0916  0.6163
  206ETHOX   O152957  10.681   6.422  11.431 -0.0936 -0.0039  0.5914
  206ETHOX   C152958  10.665   6.293  11.506 -0.1392 -0.1770  0.3167
  206ETHOX  H1152959  10.617   6.318  11.603 -2.0910  1.5593 -1.0103
  206ETHOX  H1352960  10.604   6.221  11.448  2.1637  0.3058 -3.0010
  206ETHOX   C252961  10.799   6.232  11.549 -0.6676 -0.0697  0.4024
  206ETHOX  H2152962  10.855   6.308  11.608 -0.8212  0.0050  0.4520
  206ETHOX  H2352963  10.778   6.138  11.605  0.4632 -0.7701 -0.3078
  207ETHOX   O152964  10.876   6.180  11.443  0.1333  0.0137 -0.4178
  207ETHOX   C152965  10.994   6.109  11.476  0.6386 -0.1029 -0.5596
  207ETHOX  H1152966  10.969   6.025  11.545 -3.9367 -0.9968 -2.8926
  207ETHOX  H1352967  11.059   6.178  11.534 -0.0648 -1.3043  1.7593
  207ETHOX   C252968  11.056   6.059  11.348  0.2929  0.3601 -0.2446
  207ETHOX  H2152969  11.152   6.017  11.385 -1.5429 -0.9602  3.6480
  207ETHOX  H2352970  11.083   6.147  11.286 -0.0579  1.6498  1.3636
  208ETHOX   O152971  10.987   5.949  11.293  0.2809 -0.5238  0.7499
  208ETHOX   C152972  11.036   5.898  11.169  0.0612 -0.0284 -0.5114
  208ETHOX  H1152973  11.036   5.977  11.091 -1.5193  0.6786  0.1600
  208ETHOX  H1352974  11.138   5.858  11.184  1.1196  3.1456  2.1260
  208ETHOX   C252975  10.941   5.791  11.113 -0.3843  0.4197  0.0742
  208ETHOX  H2152976  10.981   5.764  11.013 -0.2242 -2.7095  0.8727
  208ETHOX  H2352977  10.840   5.836  11.112 -0.1859  0.8702 -0.0155
  209ETHOX   O152978  10.952   5.683  11.205 -0.1506 -0.2200 -0.2804
  209ETHOX   C152979  10.866   5.575  11.164 -0.0301  0.1765  0.1936
  209ETHOX  H1152980  10.892   5.539  11.062 -1.7032  0.3392 -0.3084
  209ETHOX  H1352981  10.760   5.606  11.172  0.6806  2.5083  1.3186
  209ETHOX   C252982  10.885   5.461  11.262  0.1279 -0.3698 -0.7049
  209ETHOX  H2152983  10.816   5.377  11.239  0.9685 -1.7254  1.4822
  209ETHOX  H2352984  10.835   5.509  11.348  1.2255 -0.4066 -0.0292
  210ETHOX   O152985  11.022   5.415  11.287 -0.1594 -0.3319  0.2075
  210ETHOX   C152986  11.060   5.311  11.196  0.8716  0.1060 -0.2114
  210ETHOX  H1152987  11.010   5.221  11.236  1.0654 -0.1662 -0.5715
  210ETHOX  H1352988  11.013   5.340  11.100 -0.6354  0.3371  0.5677
  210ETHOX   C252989  11.214   5.298  11.206 -0.1073 -0.4127 -0.6236
  210ETHOX  H2152990  11.235   5.201  11.154 -3.6929 -2.0287  0.6149
  210ETHOX  H2352991  11.235   5.294  11.315  0.9725 -0.8199 -0.8378
  211ETHOX   O152992  11.285   5.409  11.150  0.3498  0.2050  0.3708
  211ETHOX   C152993  11.423   5.412  11.197 -0.0494  0.9970  1.5752
  211ETHOX  H1152994  11.437   5.518  11.226  1.2564  0.7308  1.9879
  211ETHOX  H1352995  11.446   5.341  11.280  1.9623 -1.7427 -1.1005
  211ETHOX   C252996  11.514   5.394  11.081 -0.4673  0.4911  0.1824
  211ETHOX  H2152997  11.619   5.411  11.115 -0.8515  3.6932  0.0633
  211ETHOX  H2352998  11.495   5.474  11.007 -0.1187  2.6273  2.3014
  212ETHOX   O152999  11.500   5.259  11.028  0.6698  0.3707  0.5380
  212ETHOX   C153000  11.541   5.243  10.897 -0.4080 -0.4126 -0.3330
  212ETHOX  H1153001  11.482   5.156  10.861 -2.0245  1.1437 -1.6141
  212ETHOX  H1353002  11.516   5.330  10.833  0.2838 -0.9477 -1.3556
  212ETHOX   C253003  11.692   5.221  10.870 -0.2928 -0.8980 -0.3822
  212ETHOX  H2153004  11.705   5.164  10.776 -1.3170  0.4301 -1.3739
  212ETHOX  H2353005  11.732   5.154  10.949  0.0804  1.0289  1.1564
  213ETHOX   O153006  11.764   5.342  10.869  0.0797  0.5990 -0.2192
  213ETHOX   C153007  11.889   5.337  10.811 -0.4858  0.0022 -0.2507
  213ETHOX  H1153008  11.958   5.296  10.887 -3.2432 -2.1359  1.2847
  213ETHOX  H1353009  11.889   5.265  10.726  1.1944  1.3125 -1.4217
  213ETHOX   C253010  11.939   5.461  10.735  0.3713  0.4736 -0.6997
  213ETHOX  H2153011  11.851   5.506  10.685  0.7453  1.1324 -0.7780
  213ETHOX  H2353012  12.016   5.429  10.661 -1.6683  1.1762 -3.2516
  214ETHOX   O153013  12.005   5.544  10.832 -0.4873  0.2427  0.3395
  214ETHOX   C153014  12.057   5.658  10.769  0.2425  0.0469 -0.5228
  214ETHOX  H1153015  12.116   5.635  10.678 -0.4628  0.2360 -1.0292
  214ETHOX  H1353016  12.120   5.706  10.848 -0.3864  0.8185 -0.4736
  214ETHOX   C253017  11.948   5.760  10.731 -0.1593 -0.7295 -0.5029
  214ETHOX  H2153018  11.869   5.710  10.671 -0.5086 -1.1704  0.3071
  214ETHOX  H2353019  12.001   5.819  10.653  0.3814 -2.5997 -1.6034
  215ETHOX   O153020  11.900   5.847  10.843 -0.3736 -0.6445  0.4234
  215ETHOX   C153021  11.767   5.891  10.819 -0.0125  0.3389 -0.1948
  215ETHOX  H1153022  11.773   5.925  10.714  2.9486  0.9997  0.1040
  215ETHOX  H1353023  11.708   5.797  10.815  1.3883 -0.6784  1.6030
  215ETHOX   C253024  11.723   6.001  10.916 -0.1440 -0.1025 -0.0748
  215ETHOX  H2153025  11.709   5.947  11.012  0.7930 -2.7562 -1.3273
  215ETHOX  H2353026  11.629   6.047  10.879 -1.5712 -0.7776  2.4728
  216ETHOX   O153027  11.813   6.111  10.915 -0.3011  0.1833 -0.1963
  216ETHOX   C153028  11.803   6.186  11.030  0.1680 -0.2529 -0.4838
  216ETHOX  H1153029  11.855   6.125  11.107  1.9011  1.6813 -0.0091
  216ETHOX  H1353030  11.696   6.205  11.054  0.0174 -2.3332  0.7719
  216ETHOX   C253031  11.884   6.316  11.022 -0.3620  0.8043 -0.5557
  216ETHOX  H2153032  11.875   6.391  11.103  0.2470 -1.4890  1.7927
  216ETHOX  H2353033  11.849   6.369  10.931 -1.9583 -0.0796 -0.4954
  217ETHOX   O153034  12.020   6.281  11.008  0.1540  0.2828  0.7863
  217ETHOX   C153035  12.102   6.387  10.965  0.8092  0.4107  0.1288
  217ETHOX  H1153036  12.058   6.425  10.871 -0.3883  0.3323  0.6277
  217ETHOX  H1353037  12.096   6.472  11.037  0.4648  0.3393  0.1914
  217ETHOX   C253038  12.247   6.328  10.939  0.1524  0.0831  0.4310
  217ETHOX  H2153039  12.303   6.413  10.895 -1.5709  0.1842 -1.7359
  217ETHOX  H2353040  12.248   6.242  10.868 -0.0714  1.0966 -0.8275
  218ETHOX   O153041  12.304   6.286  11.062 -0.0952  0.9605 -0.4480
  218ETHOX   C153042  12.409   6.194  11.036 -0.2731 -0.5753 -0.2413
  218ETHOX  H1153043  12.487   6.232  10.967  1.7257 -0.9426  1.6850
  218ETHOX  H1353044  12.377   6.096  10.994 -0.0538  0.0083 -1.8176
  218ETHOX   C253045  12.488   6.171  11.171  1.0847 -0.2879  0.5426
  218ETHOX  H2153046  12.516   6.272  11.206 -0.0701  1.4487 -3.0291
  218ETHOX  H2353047  12.582   6.115  11.157  0.2599 -1.7729  0.7251
  219ETHOX   O153048  12.413   6.106  11.270  0.2807 -0.0773  0.1592
  219ETHOX   C153049  12.479   6.095  11.391 -0.3310  0.2400  0.0842
  219ETHOX  H1153050  12.566   6.029  11.374 -1.2005 -0.7395 -0.7678
  219ETHOX  H1353051  12.517   6.195  11.419 -1.0028  0.7187 -0.6600
  219ETHOX   C253052  12.382   6.041  11.500 -0.0258  0.5583 -0.6669
  219ETHOX  H2153053  12.432   5.992  11.586 -0.4878 -0.3824 -0.9164
  219ETHOX  H2353054  12.318   5.970  11.443  1.3525 -1.8176  0.5613
  220ETHOX   O153055  12.291   6.144  11.541  0.5250 -0.1421  0.2388
  220ETHOX   C153056  12.169   6.083  11.590 -0.4390 -0.0587 -0.4399
  220ETHOX  H1153057  12.195   5.993  11.651 -2.0797 -0.1146  0.2300
  220ETHOX  H1353058  12.103   6.044  11.509 -1.0404  0.4703 -0.2094
  220ETHOX   C253059  12.098   6.199  11.667  0.9949  0.1944  0.1081
  220ETHOX  H2153060  12.089   6.292  11.607  0.7767  0.0110 -0.1441
  220ETHOX  H2353061  12.157   6.218  11.760 -0.5729  1.9187  0.8216
  221ETHOX   O153062  11.964   6.171  11.696 -0.1499 -0.0611 -0.1950
  221ETHOX   C153063  11.947   6.057  11.791 -0.0342  0.2781  0.6409
  221ETHOX  H1153064  11.971   5.958  11.746 -2.8543  0.6348 -1.9454
  221ETHOX  H1353065  12.006   6.068  11.884  0.1830 -0.4620  0.6005
  221ETHOX   C253066  11.801   6.036  11.844 -0.3745 -0.5559  0.5883
  221ETHOX  H2153067  11.815   5.942  11.901 -1.4098 -0.9941  0.1545
  221ETHOX  H2353068  11.731   6.013  11.760 -0.8098  1.7780  0.2172
  222ETHOX   O153069  11.755   6.153  11.918  0.4618 -0.0730 -0.3199
  222ETHOX   C153070  11.646   6.120  11.995  0.1092  0.8330  1.0952
  222ETHOX  H1153071  11.564   6.075  11.935  0.8831  1.7907 -0.7293
  222ETHOX  H1353072  11.673   6.046  12.074 -0.1236 -0.1975  0.2323
  222ETHOX   C253073  11.587   6.246  12.061 -0.4426 -0.3091 -0.0485
  222ETHOX  H2153074  11.550   6.293  11.967  0.0841 -2.3581 -1.3492
  222ETHOX  H2353075  11.678   6.288  12.107 -0.6617 -0.0267  0.1280
  223ETHOX   O153076  11.480   6.215  12.142  0.9880 -0.3235  0.3826
  223ETHOX   C153077  11.402   6.324  12.187 -0.5674  0.3272  0.1401
  223ETHOX  H1153078  11.452   6.355  12.281  0.1316 -2.0877  0.6230
  223ETHOX  H1353079  11.406   6.399  12.105  0.2521 -0.9476 -1.0426
  223ETHOX   C253080  11.260   6.277  12.213 -0.4295  0.4943 -0.2310
  223ETHOX  H2153081  11.216   6.231  12.122  2.3907 -0.9314 -0.9862
  223ETHOX  H2353082  11.198   6.365  12.241  0.8821  0.4328  3.4062
  224ETHOX   O153083  11.242   6.177  12.317 -0.1689 -0.3774  0.5575
  224ETHOX   C153084  11.103   6.137  12.339  0.1249 -0.9125  0.4515
  224ETHOX  H1153085  11.037   6.224  12.360  1.3388 -0.0861  0.9753
  224ETHOX  H1353086  11.066   6.087  12.247  1.6901  0.3814 -0.9297
  224ETHOX   C253087  11.094   6.031  12.452  0.2603 -0.0895 -0.1081
  224ETHOX  H2153088  10.992   6.036  12.497  0.1515 -0.7918 -0.2669
  224ETHOX  H2353089  11.166   6.060  12.532  0.1514  1.6481 -0.5880
  225ETHOX   O153090  11.121   5.903  12.406  0.1085 -0.2617 -0.2583
  225ETHOX   C153091  11.148   5.809  12.511  0.4337  0.0994  0.2336
  225ETHOX  H1153092  11.051   5.792  12.563 -1.1860  2.8878 -1.5896
  225ETHOX  H1353093  11.228   5.851  12.576 -0.7836  1.4155  0.9468
  225ETHOX   C253094  11.198   5.677  12.447 -0.4493  0.1129 -0.2156
  225ETHOX  H2153095  11.264   5.620  12.516 -0.2580 -0.7414 -1.0909
  225ETHOX  H2353096  11.252   5.704  12.354 -0.0364  3.1424  0.7909
  226ETHOX   O153097  11.082   5.589  12.415 -0.4754 -0.3781 -0.0767
  226ETHOX   C153098  11.116   5.485  12.318 -0.4787  0.1954  0.0747
  226ETHOX  H1153099  11.146   5.539  12.225 -2.2338 -0.5387 -0.9569
  226ETHOX  H1353100  11.205   5.432  12.357 -0.3492  0.0659 -0.3946
  226ETHOX   C253101  11.007   5.388  12.301 -0.0868 -0.0102  0.1491
  226ETHOX  H2153102  11.040   5.321  12.219  0.4224  2.2468 -1.5972
  226ETHOX  H2353103  10.907   5.424  12.266  0.6027  0.5500 -1.3446
  227ETHOX   O153104  10.985   5.311  12.420 -0.0199 -0.0776 -0.6181
  227ETHOX   C153105  10.866   5.233  12.410  0.5371  0.0944 -1.1434
  227ETHOX  H1153106  10.878   5.156  12.330 -0.5697 -1.1620 -0.1483
  227ETHOX  H1353107  10.779   5.301  12.401  0.2647  0.0159  0.6378
  227ETHOX   C253108  10.850   5.163  12.549 -0.4609 -0.2058  0.0177
  227ETHOX  H2153109  10.951   5.137  12.586 -1.2215 -0.1244  2.3440
  227ETHOX  H2353110  10.801   5.064  12.540 -0.2762 -0.1024 -2.7940
  228ETHOX   O153111  10.780   5.243  12.639  0.2045 -0.1231 -0.3307
  228ETHOX   C153112  10.759   5.168  12.764 -0.1981  0.2956  0.3065
  228ETHOX  H1153113  10.676   5.096  12.748 -2.0846  2.4935 -0.4562
  228ETHOX  H1353114  10.852   5.113  12.789  0.3400  1.5294  1.1692
  228ETHOX   C253115  10.718   5.261  12.879 -0.1565  0.2726  0.3245
  228ETHOX  H2153116  10.771   5.358  12.864  0.3327 -0.1312 -0.6596
  228ETHOX  H2353117  10.748   5.210  12.974 -0.8950 -0.0399  0.3940
  229ETHOX   O153118  10.579   5.281  12.892 -0.0492 -0.3842  0.3283
  229ETHOX   C153119  10.541   5.366  12.999 -0.3425  0.1243 -0.5746
  229ETHOX  H1153120  10.589   5.466  12.993 -0.8628  0.6184  2.1724
  229ETHOX  H1353121  10.586   5.320  13.090  2.4253  0.1083 -1.8447
  229ETHOX   C253122  10.389   5.385  13.028 -0.7834  0.4320 -0.0446
  229ETHOX  H2153123  10.385   5.417  13.134 -1.9599 -1.2595  0.4615
  229ETHOX  H2353124  10.333   5.290  13.013 -1.4283  1.1336 -2.5844
  230ETHOX   O153125  10.324   5.486  12.956 -0.2041 -0.2123  0.2658
  230ETHOX   C153126  10.182   5.470  12.963 -0.4984  0.0251 -0.2700
  230ETHOX  H1153127  10.138   5.526  12.878  1.7597  1.4999 -0.5550
  230ETHOX  H1353128  10.157   5.364  12.943  2.5853 -0.6475 -1.0505
  230ETHOX   C253129  10.110   5.507  13.097 -0.2922  0.0425 -0.6380
  230ETHOX  H2153130  10.000   5.494  13.086 -0.2637 -1.1036  0.2660
  230ETHOX  H2353131  10.137   5.613  13.119  0.7982 -0.1271 -1.1100
  231ETHOX   O153132  10.143   5.412  13.201  0.0167  0.7101  0.4799
  231ETHOX   C153133  10.131   5.470  13.330  0.2927  0.4969 -0.5139
  231ETHOX  H1153134  10.037   5.529  13.333 -0.0613  0.0840 -2.3889
  231ETHOX  H1353135  10.224   5.530  13.338  0.4206  0.3797 -1.0904
  231ETHOX   C253136  10.135   5.359  13.435  0.0912 -0.1000 -0.0948
  231ETHOX  H2153137  10.066   5.278  13.402 -1.8842  1.4251  0.1208
  231ETHOX  H2353138  10.095   5.400  13.530  1.5838  1.2597 -0.0205
  232ETHOX   O153139  10.271   5.313  13.454  0.3245  0.0139  0.2608
  232ETHOX   C153140  10.284   5.259  13.588  0.3654 -0.2824  0.7558
  232ETHOX  H1153141  10.237   5.321  13.667 -1.8392 -1.7861  0.7193
  232ETHOX  H1353142  10.222   5.167  13.595 -1.8696  0.8661 -1.9705
  232ETHOX   C253143  10.431   5.231  13.621  0.2499  0.4850  0.0557
  232ETHOX  H2153144  10.467   5.178  13.530  1.6802  0.8998  0.3486
  232ETHOX  H2353145  10.439   5.156  13.703  1.0353 -0.9572 -1.2976
  233ETHOX   O153146  10.511   5.345  13.647 -0.5342  0.1360 -0.2468
  233ETHOX   C153147  10.644   5.305  13.684 -0.5926 -0.0433 -0.1621
  233ETHOX  H1153148  10.642   5.270  13.790  0.3947 -2.8677 -0.9752
  233ETHOX  H1353149  10.673   5.223  13.615  1.1698  1.7544 -1.6498
  233ETHOX   C253150  10.732   5.428  13.669 -0.1321  0.1432 -0.2613
  233ETHOX  H2153151  10.693   5.517  13.724 -0.9112  0.8404 -1.8705
  233ETHOX  H2353152  10.735   5.464  13.564  0.8451  1.4392  0.1816
  234ETHOX   O153153  10.866   5.402  13.697 -0.3315 -0.1589 -0.4221
  234ETHOX   C153154  10.891   5.421  13.838 -0.6206  0.3768  0.1224
  234ETHOX  H1153155  10.853   5.520  13.869  0.2607  0.4828  0.8893
  234ETHOX  H1353156  10.845   5.341  13.899 -1.4907 -0.5691 -1.6715
  234ETHOX   C253157  11.043   5.423  13.856  0.3707  0.1643 -0.4498
  234ETHOX  H2153158  11.096   5.340  13.804  0.2194  0.7508 -1.5611
  234ETHOX  H2353159  11.061   5.403  13.964 -0.5366 -3.2159 -0.8081
  235ETHOX   O153160  11.105   5.544  13.806 -0.1138 -0.2897 -0.0020
  235ETHOX   C153161  11.246   5.532  13.832  1.2514  0.1037 -0.7067
  235ETHOX  H1153162  11.262   5.563  13.937 -1.0330  4.7118 -1.4771
  235ETHOX  H1353163  11.277   5.426  13.817 -0.3639 -0.6113  0.7182
  235ETHOX   C253164  11.334   5.619  13.746 -0.0104 -0.9189  0.4119
  235ETHOX  H2153165  11.294   5.647  13.646 -0.7398 -1.4226  0.5595
  235ETHOX  H2353166  11.432   5.570  13.728  1.1760  0.2744  3.0909
  236ETHOX   O153167  11.371   5.734  13.818  0.5582  0.1702  0.1827
  236ETHOX   C153168  11.492   5.792  13.768  0.4138 -0.5044  0.0858
  236ETHOX  H1153169  11.511   5.767  13.662  2.1857 -1.2333  0.5407
  236ETHOX  H1353170  11.577   5.745  13.822 -1.0043  0.1268  3.0901
  236ETHOX   C253171  11.504   5.946  13.769 -0.1181 -0.2492 -0.7180
  236ETHOX  H2153172  11.598   5.983  13.725 -0.3633  1.6950  0.2717
  236ETHOX  H2353173  11.493   5.981  13.874 -1.4058  0.5325 -1.0882
  237ETHOX   O153174  11.403   6.010  13.696 -0.2152 -0.1249  0.6719
  237ETHOX   C153175  11.332   6.113  13.765 -0.2809  0.2849  1.0457
  237ETHOX  H1153176  11.276   6.053  13.840  0.8661 -3.3917 -0.7940
  237ETHOX  H1353177  11.407   6.179  13.814  2.0496  0.0245 -1.8659
  237ETHOX   C253178  11.223   6.185  13.676  0.0696  0.3063  0.1611
  237ETHOX  H2153179  11.273   6.238  13.592  2.9001  0.4690  1.8204
  237ETHOX  H2353180  11.175   6.263  13.739  0.7723  1.2211 -0.4094
  238ETHOX   O153181  11.110   6.099  13.630  0.8613 -0.0764  0.5840
  238ETHOX   C153182  11.155   5.998  13.538 -0.0640 -0.2873  0.0132
  238ETHOX  H1153183  11.184   5.908  13.595  1.1336  1.4579  2.3125
  238ETHOX  H1353184  11.241   6.039  13.480 -1.3661  2.7420  0.0655
  238ETHOX   C253185  11.035   5.956  13.450  0.4337  0.3269 -0.9111
  238ETHOX  H2153186  10.965   5.911  13.524  0.2742  1.2536 -0.4806
  238ETHOX  H2353187  11.066   5.877  13.378  0.9363  0.3212 -0.6965
  239ETHOX   O153188  10.971   6.060  13.367  0.8430  0.5494  0.3024
  239ETHOX   C153189  10.874   6.007  13.277 -0.6989 -0.2160 -1.0239
  239ETHOX  H1153190  10.922   5.961  13.189  0.2514  0.3328 -0.8087
  239ETHOX  H1353191  10.811   5.924  13.314 -1.2062  0.5888 -0.0270
  239ETHOX   C253192  10.783   6.118  13.211 -0.1639 -0.3882 -0.6339
  239ETHOX  H2153193  10.680   6.077  13.201 -0.0710 -0.4793 -1.2575
  239ETHOX  H2353194  10.763   6.191  13.292  0.1873 -1.3751  0.3635
  240ETHOX   O153195  10.836   6.176  13.094 -0.3228  0.2679  0.1856
  240ETHOX   C153196  10.755   6.276  13.028  0.1729  0.2008  0.0031
  240ETHOX  H1153197  10.703   6.338  13.104  0.3219  2.5079 -1.6792
  240ETHOX  H1353198  10.677   6.234  12.962 -2.8948  3.0878  1.5193
  240ETHOX   C253199  10.835   6.357  12.934  0.1087  0.0851  0.0193
  240ETHOX  H2153200  10.777   6.432  12.877  0.3813  0.7682  0.6321
  240ETHOX  H2353201  10.880   6.291  12.856 -2.1257  0.5724 -1.7678
  241ETHOX   O153202  10.943   6.416  12.996 -0.4433 -0.2780 -0.1791
  241ETHOX   C153203  11.030   6.492  12.913  0.3854 -0.1685  0.2507
  241ETHOX  H1153204  11.054   6.436  12.821  0.8061 -1.5399  1.1600
  241ETHOX  H1353205  10.960   6.572  12.881 -1.4356 -1.8548 -0.1619
  241ETHOX   C253206  11.163   6.530  12.988 -0.6083  0.3850  0.4558
  241ETHOX  H2153207  11.155   6.546  13.097  0.8924  0.5684  0.5603
  241ETHOX  H2353208  11.223   6.614  12.947 -1.2349  0.3247 -0.6454
  242ETHOX   O153209  11.262   6.432  12.974 -0.0184  0.2032  0.2942
  242ETHOX   C153210  11.233   6.307  13.039 -0.5027 -0.6447 -0.0170
  242ETHOX  H1153211  11.151   6.247  12.994 -1.2024 -0.2515  0.6918
  242ETHOX  H1353212  11.188   6.319  13.140 -0.5834  1.3090 -0.2456
  242ETHOX   C253213  11.354   6.218  13.052 -0.8063 -0.4930 -0.1406
  242ETHOX  H2153214  11.322   6.147  13.130 -1.7207  2.1839  2.0655
  242ETHOX  H2353215  11.446   6.271  13.087 -1.8010  1.3218 -0.1565
  243ETHOX   O153216  11.388   6.145  12.931 -0.0030 -0.2308 -0.1054
  243ETHOX   C153217  11.413   6.008  12.954 -0.3620 -0.2375 -0.6833
  243ETHOX  H1153218  11.515   5.997  12.997 -0.5404 -1.0900 -0.4781
  243ETHOX  H1353219  11.338   5.966  13.024 -2.1631  1.5176 -1.4407
  243ETHOX   C253220  11.403   5.936  12.818 -0.5058 -0.5562 -0.5191
  243ETHOX  H2153221  11.308   5.963  12.767  0.5881  0.9930 -1.8236
  243ETHOX  H2353222  11.401   5.826  12.835  2.8169 -0.6629 -0.0519
  244ETHOX   O153223  11.517   5.961  12.739 -0.1312  0.0219  0.2683
  244ETHOX   C153224  11.510   5.914  12.605 -0.0559 -0.3049  0.0693
  244ETHOX  H1153225  11.459   5.998  12.555  1.9098  1.4105  0.7673
  244ETHOX  H1353226  11.458   5.817  12.592 -1.1639  0.5332 -2.2886
  244ETHOX   C253227  11.657   5.887  12.555  0.8025 -0.1847  0.6876
  244ETHOX  H2153228  11.726   5.971  12.578 -1.5370  1.1876  3.3443
  244ETHOX  H2353229  11.645   5.880  12.445  0.6160  1.5909  0.5567
  245ETHOX   O153230  11.708   5.762  12.602  0.6042 -0.9596  0.3921
  245ETHOX   C153231  11.835   5.739  12.545 -0.3531  0.1811 -0.2482
  245ETHOX  H1153232  11.833   5.658  12.469  0.2373  0.5425 -0.6605
  245ETHOX  H1353233  11.874   5.829  12.492 -1.4733  1.5014  1.0988
  245ETHOX   C253234  11.935   5.684  12.657  0.1746  0.0314  0.1862
  245ETHOX  H2153235  12.019   5.620  12.620  1.0862  0.8100  0.8768
  245ETHOX  H2353236  11.872   5.635  12.735 -0.7876  0.9527  0.0040
  246ETHOX   O153237  12.004   5.794  12.724 -0.0024  0.3379 -0.2137
  246ETHOX   C153238  12.091   5.739  12.829 -0.1753  0.6241  0.0265
  246ETHOX  H1153239  12.068   5.636  12.864  2.2664  0.8979  2.8001
  246ETHOX  H1353240  12.081   5.798  12.922 -1.9999 -1.5603  1.2867
  246ETHOX   C253241  12.241   5.745  12.789 -0.5565  0.5390 -0.6557
  246ETHOX  H2153242  12.286   5.718  12.887  0.3050  2.1226 -0.5683
  246ETHOX  H2353243  12.279   5.848  12.773 -0.3993  0.3514 -1.5085
  247ETHOX   O153244  12.279   5.647  12.691 -0.1798 -0.9033 -0.4106
  247ETHOX   C153245  12.366   5.694  12.588 -0.1744  0.1320 -0.1529
  247ETHOX  H1153246  12.331   5.789  12.542  0.1509 -0.5370 -1.8675
  247ETHOX  H1353247  12.468   5.714  12.629 -1.2891  3.5055  1.2983
  247ETHOX   C253248  12.374   5.597  12.468 -0.5818 -0.2883 -0.1754
  247ETHOX  H2153249  12.285   5.539  12.434 -1.7009  2.0831 -1.5409
  247ETHOX  H2353250  12.399   5.659  12.379  0.9656  1.0072  1.1281
  248ETHOX   O153251  12.489   5.518  12.463  0.2966 -0.1288  0.1566
  248ETHOX   C153252  12.477   5.397  12.540 -0.5307  0.7809  0.3863
  248ETHOX  H1153253  12.434   5.432  12.637  2.4913  0.8695  1.7904
  248ETHOX  H1353254  12.396   5.336  12.495 -1.0894  1.3702  0.5613
  248ETHOX   C253255  12.600   5.331  12.592  0.0623 -0.0531 -0.2172
  248ETHOX  H2153256  12.570   5.271  12.680  1.6560 -0.7969 -0.1467
  248ETHOX  H2353257  12.677   5.402  12.629 -0.9021  1.0457 -0.2490
  249ETHOX   O153258  12.658   5.253  12.481 -0.0089 -0.1368 -0.3671
  249ETHOX   C153259  12.768   5.179  12.527 -0.6688 -0.2204 -0.1624
  249ETHOX  H1153260  12.849   5.246  12.564  1.9309 -2.2300 -1.8613
  249ETHOX  H1353261  12.745   5.125  12.621  1.3021 -0.0960  0.4453
  249ETHOX   C253262  12.836   5.092  12.421  0.1529  0.4206  0.4161
  249ETHOX  H2153263  12.921   5.038  12.469 -0.4458  1.2932  2.5712
  249ETHOX  H2353264  12.880   5.151  12.337 -1.1336 -1.7308 -1.9298
  250ETHOX   O153265  12.745   4.992  12.368 -0.4970 -0.6643  0.3085
  250ETHOX   C153266  12.640   5.037  12.282  0.4881 -0.3653 -0.0359
  250ETHOX  H1153267  12.556   5.074  12.344 -0.2193  0.6695 -1.5537
  250ETHOX  H1353268  12.686   5.116  12.219  2.3300  2.0525  3.9405
  250ETHOX   C253269  12.587   4.923  12.197 -0.0291 -0.0616  0.2930
  250ETHOX  H2153270  12.492   4.948  12.145  0.7766  0.9786 -0.7380
  250ETHOX  H2353271  12.570   4.840  12.269 -0.8980  0.6733  0.9449
  251ETHOX   O153272  12.689   4.881  12.111  0.1528 -0.1355  0.0484
  251ETHOX   C153273  12.655   4.760  12.039  0.4055  0.2223 -0.5071
  251ETHOX  H1153274  12.546   4.766  12.016  0.0908 -0.1557  0.8192
  251ETHOX  H1353275  12.673   4.676  12.109 -1.9055  0.2703  0.2359
  251ETHOX   C253276  12.738   4.731  11.913 -0.4029  1.1413 -0.0858
  251ETHOX  H2153277  12.723   4.809  11.836 -0.2235  0.8603 -0.4063
  251ETHOX  H2353278  12.709   4.630  11.877 -1.4599  2.2330 -2.5168
  252ETHOX   O153279  12.878   4.724  11.943 -0.3504 -0.2147  0.1257
  252ETHOX   C153280  12.945   4.685  11.826  0.0674  0.4858  0.2236
  252ETHOX  H1153281  12.888   4.649  11.738 -0.5922  2.2106 -0.1063
  252ETHOX  H1353282  12.983   4.783  11.789 -2.5452  1.3276 -0.4647
  252ETHOX   C253283  13.073   4.599  11.830 -0.0949 -0.1387  0.6313
  252ETHOX  H2153284  13.142   4.650  11.900  0.5328 -0.0996 -0.0069
  252ETHOX  H2353285  13.133   4.608  11.737 -0.3487  2.4447  0.6518
  253ETHOX   O153286  13.049   4.462  11.850 -0.3935 -0.1966 -0.6632
  253ETHOX   C153287  12.993   4.384  11.745  0.2909 -0.5424  0.0209
  253ETHOX  H1153288  13.078   4.349  11.683  0.3080 -1.0290  0.3147
  253ETHOX  H1353289  12.926   4.451  11.687 -0.1800  1.1766  2.3655
  253ETHOX   C253290  12.915   4.257  11.804  0.0894 -0.6338 -0.8169
  253ETHOX  H2153291  12.846   4.207  11.733 -0.3642 -2.9799  1.1680
  253ETHOX  H2353292  12.859   4.295  11.892  0.2791 -1.8707 -0.1385
  254ETHOX   O153293  13.004   4.159  11.864 -0.2426  0.8954  0.0463
  254ETHOX   C153294  13.041   4.048  11.771  0.5091  0.8472 -0.4534
  254ETHOX  H1153295  13.062   4.089  11.669 -0.7722  1.9039 -0.3174
  254ETHOX  H1353296  13.132   4.006  11.820 -0.3749  2.5440  2.9073
  254ETHOX   C253297  12.926   3.951  11.744  0.7945  0.4847 -0.4290
  254ETHOX  H2153298  12.957   3.859  11.691 -0.0494 -0.0909  0.0614
  254ETHOX  H2353299  12.846   3.999  11.684 -0.0103  0.1631  0.3732
  255ETHOX   O153300  12.874   3.918  11.869  0.4520  0.0265  0.1275
  255ETHOX   C153301  12.754   3.847  11.841  0.5298 -0.1187 -0.1766
  255ETHOX  H1153302  12.767   3.782  11.752  0.5438  1.8401 -1.6705
  255ETHOX  H1353303  12.661   3.905  11.824 -0.6522 -1.4613  1.4368
  255ETHOX   C253304  12.737   3.751  11.959 -0.1006  0.3109  0.7378
  255ETHOX  H2153305  12.634   3.711  11.955 -0.4376  1.2404 -0.0123
  255ETHOX  H2353306  12.758   3.810  12.051 -0.3988  4.1278 -1.4436
  256ETHOX   O153307  12.826   3.641  11.957  0.1709 -0.2150  0.7273
  256ETHOX   C153308  12.856   3.588  12.083  0.2277 -0.2179 -0.2732
  256ETHOX  H1153309  12.958   3.549  12.067  0.6269  1.0430 -0.9284
  256ETHOX  H1353310  12.862   3.675  12.152 -2.8216  0.2381 -0.4434
  256ETHOX   C253311  12.751   3.491  12.130  0.0245 -0.6011 -0.6213
  256ETHOX  H2153312  12.652   3.540  12.120  1.1362  1.4102 -2.6734
  256ETHOX  H2353313  12.769   3.468  12.237 -1.5382  0.4098 -0.1065
  257ETHOX   O153314  12.759   3.376  12.057  0.3155 -0.3105  0.6247
  257ETHOX   C153315  12.654   3.280  12.089 -0.0850 -0.9045 -0.2409
  257ETHOX  H1153316  12.562   3.341  12.094  1.3521  1.3983 -0.5420
  257ETHOX  H1353317  12.668   3.239  12.191  0.2603  1.1057  0.5593
  257ETHOX   C253318  12.643   3.179  11.977 -0.3172 -0.5388  0.0742
  257ETHOX  H2153319  12.646   3.223  11.875  1.9919 -0.1401  0.2410
  257ETHOX  H2353320  12.554   3.119  12.005  1.9582 -2.7485  3.4334
  258ETHOX   O153321  12.760   3.101  11.974  0.2591  0.0348 -0.7463
  258ETHOX   C153322  12.770   3.027  11.856  0.1213  0.1044  0.2529
  258ETHOX  H1153323  12.670   2.983  11.834  0.2714 -1.8951  2.9938
  258ETHOX  H1353324  12.803   3.081  11.765  2.6915 -3.1965 -1.0268
  258ETHOX   C253325  12.863   2.901  11.870  0.0003 -0.5658 -0.1322
  258ETHOX  H2153326  12.961   2.935  11.910  0.2866  0.3278 -1.5234
  258ETHOX  H2353327  12.889   2.859  11.771 -0.4210 -1.4801  0.1350
  259ETHOX   O153328  12.801   2.801  11.955  0.5955  0.6753 -0.9730
  259ETHOX   C153329  12.885   2.680  11.958  0.3247 -0.4830  0.0514
  259ETHOX  H1153330  12.877   2.619  11.866 -2.8426  0.3659 -0.3594
  259ETHOX  H1353331  12.990   2.712  11.976  0.6232 -1.1471 -0.4779
  259ETHOX   C253332  12.825   2.593  12.072  0.1382 -0.7895 -0.1963
  259ETHOX  H2153333  12.785   2.670  12.142 -2.0119 -0.4056 -1.7555
  259ETHOX  H2353334  12.907   2.529  12.113 -0.8852 -1.1889  1.3371
  260ETHOX   O153335  12.722   2.503  12.029 -0.6452 -0.5427 -0.6972
  260ETHOX   C153336  12.633   2.455  12.132 -0.5189  0.0780  0.7600
  260ETHOX  H1153337  12.688   2.401  12.213 -0.8540  0.2664  1.1181
  260ETHOX  H1353338  12.577   2.535  12.185  1.8880  0.2597  3.2754
  260ETHOX   C253339  12.538   2.344  12.076  0.3389  0.0461 -0.4531
  260ETHOX  H2153340  12.494   2.381  11.980 -0.0552  0.5564 -0.0821
  260ETHOX  H2353341  12.456   2.324  12.148 -0.9230 -0.6605 -2.0085
  261ETHOX   O153342  12.615   2.225  12.056 -0.4815  0.5630 -0.0833
  261ETHOX   C153343  12.532   2.130  12.007  0.4573 -0.5204  0.4053
  261ETHOX  H1153344  12.462   2.095  12.086 -0.3836 -0.4542 -0.2940
  261ETHOX  H1353345  12.467   2.160  11.921 -0.2243 -2.8213  0.0458
  261ETHOX   C253346  12.599   1.993  11.971 -0.3061  0.2585  0.5739
  261ETHOX  H2153347  12.519   1.917  11.959 -2.3168  2.1773  1.0706
  261ETHOX  H2353348  12.662   1.965  12.058  2.6913  3.7428 -0.2201
  262ETHOX   O153349  12.682   1.998  11.856 -0.1153  0.1720  0.0229
  262ETHOX   C153350  12.751   1.872  11.850 -0.2213 -0.0603 -0.2654
  262ETHOX  H1153351  12.686   1.782  11.848 -0.1254 -0.1229 -1.9760
  262ETHOX  H1353352  12.818   1.859  11.938  1.1093  1.0923 -1.0610
  262ETHOX   C253353  12.844   1.854  11.733  0.8978 -0.6637  0.1183
  262ETHOX  H2153354  12.790   1.881  11.640  2.6948  1.4370 -0.3966
  262ETHOX  H2353355  12.870   1.747  11.720  1.1695 -0.6837  0.7879
  263ETHOX   O153356  12.963   1.934  11.749  0.4949  0.1166 -0.2958
  263ETHOX   C153357  13.042   1.922  11.632 -0.1598  0.2118 -0.0586
  263ETHOX  H1153358  12.997   1.960  11.538 -1.5662  1.4302  1.0435
  263ETHOX  H1353359  13.069   1.815  11.624  0.0446  0.1473  1.2156
  263ETHOX   C253360  13.174   2.003  11.638  0.2000 -0.3268  0.3448
  263ETHOX  H2153361  13.251   1.974  11.564 -0.4382  1.4354 -1.0687
  263ETHOX  H2353362  13.223   1.987  11.736 -2.2359 -0.5134  1.6123
  264ETHOX   O153363  13.157   2.145  11.611 -0.0567  0.1607 -0.6008
  264ETHOX   C153364  13.228   2.231  11.702  0.0943 -0.0111 -0.3513
  264ETHOX  H1153365  13.266   2.318  11.645 -0.2821  0.3986  0.0097
  264ETHOX  H1353366  13.303   2.188  11.772  0.4116  0.5343 -0.3502
  264ETHOX   C253367  13.122   2.295  11.791 -0.0345 -0.6847  0.3330
  264ETHOX  H2153368  13.029   2.317  11.734  1.0483  0.3660 -1.1235
  264ETHOX  H2353369  13.162   2.390  11.832  0.0042 -0.3308 -0.5052
  265ETHOX   O153370  13.088   2.217  11.895  0.7037 -0.3374 -0.1957
  265ETHOX   C153371  12.988   2.273  11.987  0.3381  0.6386 -0.2200
  265ETHOX  H1153372  13.041   2.352  12.043  0.8144 -0.7895  1.4462
  265ETHOX  H1353373  12.901   2.318  11.935  1.5491  0.1266 -2.8596
  265ETHOX   C253374  12.953   2.171  12.097 -0.4774  0.5460 -0.1048
  265ETHOX  H2153375  13.038   2.131  12.157 -0.4658  2.3872  1.1955
  265ETHOX  H2353376  12.895   2.090  12.048 -2.2018  1.4188  0.4103
  265ETHOX   OZ53377  12.860   2.227  12.191 -0.4521 -0.2045  0.2430
  265ETHOX  HZ153378  12.782   2.235  12.136 -0.1679  0.8217 -0.0338
    1ETHOX   O153379  16.519   9.514  16.626 -0.5007  0.2825  0.5969
    1ETHOX  HO153380  16.552   9.604  16.617  1.1671 -0.4441 -1.7012
    1ETHOX   C153381  16.526   9.460  16.487  0.0280  0.4451 -0.0952
    1ETHOX  H1153382  16.500   9.352  16.494 -1.1124  0.5395 -2.1665
    1ETHOX  H1353383  16.629   9.476  16.448  0.4701 -2.7336 -0.5388
    1ETHOX   C253384  16.416   9.520  16.397 -0.2607  0.1186 -0.7485
    1ETHOX  H2153385  16.460   9.511  16.296  1.6824  0.1832  0.0418
    1ETHOX  H2353386  16.416   9.631  16.404 -1.1970  0.0766  0.3125
    2ETHOX   O153387  16.285   9.461  16.403 -0.1582 -0.0576 -0.1876
    2ETHOX   C153388  16.209   9.496  16.514  0.7299  0.5117 -0.3374
    2ETHOX  H1153389  16.223   9.413  16.586 -1.3560 -0.2739 -0.7735
    2ETHOX  H1353390  16.249   9.587  16.564 -0.6575  0.7843  0.3079
    2ETHOX   C253391  16.060   9.531  16.477 -0.2138  0.2051 -0.2400
    2ETHOX  H2153392  16.003   9.523  16.572 -0.1311 -0.2255 -0.2227
    2ETHOX  H2353393  16.013   9.457  16.409  1.5770 -1.5335  0.3004
    3ETHOX   O153394  16.050   9.661  16.425 -0.1446  0.3435 -0.6302
    3ETHOX   C153395  16.062   9.657  16.285 -0.6710 -0.0862  0.0978
    3ETHOX  H1153396  16.129   9.575  16.252  1.3202  1.8435 -0.8883
    3ETHOX  H1353397  16.119   9.744  16.249  0.7627 -0.7054  0.7920
    3ETHOX   C253398  15.927   9.651  16.218 -0.2543 -0.6242  1.0737
    3ETHOX  H2153399  15.842   9.594  16.263 -1.7059  1.8650  1.6602
    3ETHOX  H2353400  15.937   9.612  16.114 -0.7164 -0.9175  1.1323
    4ETHOX   O153401  15.892   9.787  16.218 -0.3118  0.3291  0.0829
    4ETHOX   C153402  15.779   9.802  16.141 -0.5060 -0.2965 -0.0219
    4ETHOX  H1153403  15.797   9.791  16.032 -1.2596 -2.8503  0.0532
    4ETHOX  H1353404  15.711   9.719  16.170  1.9667 -2.7875 -0.8782
    4ETHOX   C253405  15.717   9.937  16.184  0.6183 -0.3046 -0.0543
    4ETHOX  H2153406  15.632   9.959  16.117 -1.1884  2.2018  2.7746
    4ETHOX  H2353407  15.791  10.017  16.164  1.0523 -0.9840 -1.2615
    5ETHOX   O153408  15.653   9.936  16.313  0.1610  0.7501 -0.0457
    5ETHOX   C153409  15.584  10.063  16.347 -0.2594  0.3848 -0.1131
    5ETHOX  H1153410  15.644  10.148  16.308  1.3669 -0.5816  0.1973
    5ETHOX  H1353411  15.486  10.062  16.295  0.1425 -1.2185 -0.9038
    5ETHOX   C253412  15.556  10.079  16.498 -0.2893  0.2892 -0.0163
    5ETHOX  H2153413  15.645  10.075  16.564  1.5971  0.3795 -2.4395
    5ETHOX  H2353414  15.489  10.000  16.540 -1.2274  1.7737  1.3785
    6ETHOX   O153415  15.490  10.202  16.524  0.3700 -0.5044 -0.9221
    6ETHOX   C153416  15.442  10.201  16.657  0.3787  0.0835  0.8332
    6ETHOX  H1153417  15.365  10.121  16.664  0.1198  0.3597  1.1821
    6ETHOX  H1353418  15.516  10.169  16.735  1.6086  0.8626  0.0094
    6ETHOX   C253419  15.377  10.333  16.704 -0.1565 -0.3073 -0.2592
    6ETHOX  H2153420  15.457  10.408  16.722  0.1551 -0.5591 -0.5639
    6ETHOX  H2353421  15.325  10.314  16.800 -1.3793  1.7862 -0.4557
    7ETHOX   O153422  15.297  10.392  16.603  0.0523 -0.6447 -0.0582
    7ETHOX   C153423  15.188  10.468  16.645 -0.0312 -0.4275  0.1710
    7ETHOX  H1153424  15.124  10.482  16.555 -0.6163  1.1399  0.7800
    7ETHOX  H1353425  15.130  10.409  16.719 -3.2029  2.0816 -0.1147
    7ETHOX   C253426  15.211  10.607  16.694  0.2213 -0.5370  0.4048
    7ETHOX  H2153427  15.120  10.668  16.675  1.1322  0.1963 -1.9082
    7ETHOX  H2353428  15.294  10.645  16.631  1.5434 -2.0374  1.1543
    8ETHOX   O153429  15.257  10.638  16.825  0.6873  0.5113 -0.5524
    8ETHOX   C153430  15.249  10.769  16.857 -0.8377 -0.5665  0.0273
    8ETHOX  H1153431  15.141  10.777  16.885 -0.7577 -3.5114  1.4836
    8ETHOX  H1353432  15.276  10.828  16.767 -0.1882  0.3520  0.8120
    8ETHOX   C253433  15.329  10.829  16.976  0.4069  0.6677 -0.0635
    8ETHOX  H2153434  15.273  10.924  16.992 -5.0852 -2.2520  0.7315
    8ETHOX  H2353435  15.437  10.841  16.954  1.3553 -2.3825  2.1707
    9ETHOX   O153436  15.314  10.751  17.091  0.1907 -0.1010  0.1986
    9ETHOX   C153437  15.365  10.821  17.203 -0.1381 -0.0192 -0.2435
    9ETHOX  H1153438  15.472  10.842  17.180 -0.3211  2.3450  0.8138
    9ETHOX  H1353439  15.326  10.924  17.209 -2.1895 -0.8489  4.1782
    9ETHOX   C253440  15.363  10.734  17.330  0.2611  0.7484 -0.9620
    9ETHOX  H2153441  15.435  10.777  17.403  1.4009 -1.6428 -0.5724
    9ETHOX  H2353442  15.400  10.631  17.314 -0.2752  0.3432  0.3147
   10ETHOX   O153443  15.229  10.742  17.383  0.1934  0.5842  0.0117
   10ETHOX   C153444  15.211  10.637  17.469  0.3487  0.2047 -0.3603
   10ETHOX  H1153445  15.271  10.657  17.560  0.7649 -0.7337 -0.4133
   10ETHOX  H1353446  15.246  10.542  17.422  1.5470  0.3898  0.1296
   10ETHOX   C253447  15.062  10.627  17.513 -0.0533  0.5949  0.5326
   10ETHOX  H2153448  15.061  10.529  17.566 -2.2468  0.7282  0.8540
   10ETHOX  H2353449  14.991  10.640  17.428  0.8936  0.3337 -0.3171
   11ETHOX   O153450  15.046  10.738  17.597 -1.0033 -0.3011 -0.2225
   11ETHOX   C153451  14.916  10.786  17.601 -0.1336 -0.3505 -0.8814
   11ETHOX  H1153452  14.884  10.825  17.502  0.4114 -1.6000 -1.5726
   11ETHOX  H1353453  14.848  10.706  17.635 -0.0077 -0.1556 -0.1574
   11ETHOX   C253454  14.895  10.905  17.698  0.1992  0.2279  0.2838
   11ETHOX  H2153455  14.786  10.921  17.714 -0.0952 -0.2804 -1.0671
   11ETHOX  H2353456  14.945  10.884  17.795 -2.6668 -0.7058  1.6733
   12ETHOX   O153457  14.954  11.027  17.642  1.3459 -0.7247 -0.0311
   12ETHOX   C153458  14.972  11.132  17.745  0.3262  0.0625 -0.3042
   12ETHOX  H1153459  15.065  11.109  17.802 -0.4588 -2.5604  0.0473
   12ETHOX  H1353460  14.893  11.133  17.822  0.6910 -3.6294  0.3420
   12ETHOX   C253461  14.992  11.261  17.670  0.0635 -0.4852 -0.4996
   12ETHOX  H2153462  15.057  11.236  17.584 -1.2285 -1.8375 -1.1256
   12ETHOX  H2353463  15.037  11.345  17.727  0.6547 -0.8151 -0.4758
   13ETHOX   O153464  14.862  11.305  17.633 -0.1851 -0.7501  0.2450
   13ETHOX   C153465  14.844  11.427  17.563 -0.3439  0.2708  0.1135
   13ETHOX  H1153466  14.877  11.520  17.615  0.9377  0.4200 -0.9173
   13ETHOX  H1353467  14.917  11.428  17.480  0.5506  2.2416  0.8533
   13ETHOX   C253468  14.698  11.448  17.517 -0.2179 -0.6422 -0.2850
   13ETHOX  H2153469  14.688  11.539  17.455  1.2858 -0.7980 -0.7952
   13ETHOX  H2353470  14.632  11.456  17.606  1.4020  0.9350  0.8371
   14ETHOX   O153471  14.660  11.336  17.433  0.9879  0.1279 -0.1534
   14ETHOX   C153472  14.522  11.298  17.460  0.2402  0.0064  0.2817
   14ETHOX  H1153473  14.470  11.389  17.497  0.8484 -0.2415  1.8265
   14ETHOX  H1353474  14.516  11.218  17.537 -1.6092  0.5014  0.6971
   14ETHOX   C253475  14.447  11.263  17.328 -0.2792 -0.2843  0.3334
   14ETHOX  H2153476  14.469  11.339  17.251 -1.2166 -1.3676 -1.0683
   14ETHOX  H2353477  14.337  11.253  17.343 -0.3713  2.3368  1.9571
   15ETHOX   O153478  14.493  11.141  17.280  0.2124  0.0179 -0.1630
   15ETHOX   C153479  14.395  11.077  17.199  0.0462 -0.7825 -0.6053
   15ETHOX  H1153480  14.320  11.016  17.255 -0.9865  0.3487 -0.7295
   15ETHOX  H1353481  14.342  11.156  17.142 -0.5750  0.3394  1.4059
   15ETHOX   C253482  14.461  10.989  17.092 -0.3067  0.3625  0.0695
   15ETHOX  H2153483  14.535  10.926  17.146 -0.4670  0.3508  0.2755
   15ETHOX  H2353484  14.383  10.917  17.061 -4.2633  3.8717  0.8923
   16ETHOX   O153485  14.519  11.052  16.975  0.4035  0.3053 -0.3046
   16ETHOX   C153486  14.564  10.953  16.880  0.1060  0.4304 -1.1919
   16ETHOX  H1153487  14.639  10.884  16.923 -0.8989  0.4446  0.6616
   16ETHOX  H1353488  14.477  10.890  16.853 -0.3770  0.8094 -0.5484
   16ETHOX   C253489  14.622  11.015  16.754  0.1099  1.0952  1.1969
   16ETHOX  H2153490  14.579  11.111  16.719  3.7987  3.0567  1.5045
   16ETHOX  H2353491  14.594  10.935  16.683 -2.7185  2.2102  0.9105
   17ETHOX   O153492  14.762  11.040  16.763  0.4314  0.0838 -0.1303
   17ETHOX   C153493  14.823  11.041  16.640  0.4052 -0.0651  0.0668
   17ETHOX  H1153494  14.793  10.950  16.583 -1.3713 -0.9399  2.2358
   17ETHOX  H1353495  14.781  11.126  16.582  0.1690 -0.2529 -0.0395
   17ETHOX   C253496  14.971  11.041  16.662  0.1630 -0.3491 -0.9482
   17ETHOX  H2153497  15.023  11.063  16.567  1.9529  0.3749  0.1535
   17ETHOX  H2353498  14.999  10.939  16.696  0.6043  0.1822  0.3318
   18ETHOX   O153499  15.017  11.118  16.770 -0.5940 -0.0929 -0.1973
   18ETHOX   C153500  15.030  11.258  16.733  0.7683 -0.4140  0.0798
   18ETHOX  H1153501  15.063  11.265  16.627  1.9439 -1.0507  0.3892
   18ETHOX  H1353502  14.932  11.310  16.744  0.9198  0.1635 -1.1674
   18ETHOX   C253503  15.132  11.326  16.830  0.0177  0.0344 -0.3749
   18ETHOX  H2153504  15.227  11.269  16.834 -0.3776 -0.5910  0.4442
   18ETHOX  H2353505  15.087  11.336  16.931  1.7406  0.6520  0.3568
   19ETHOX   O153506  15.156  11.456  16.790  0.0378  0.1776 -0.0088
   19ETHOX   C153507  15.229  11.527  16.883 -1.1597 -0.1450  0.1673
   19ETHOX  H1153508  15.316  11.471  16.924 -2.6273 -1.9626  0.9528
   19ETHOX  H1353509  15.172  11.547  16.977 -0.3947  0.2248  0.5639
   19ETHOX   C253510  15.270  11.655  16.808  0.2180 -0.5166  0.3473
   19ETHOX  H2153511  15.190  11.732  16.809  0.1634 -0.5743  0.4290
   19ETHOX  H2353512  15.300  11.628  16.704  1.1000 -1.7846  0.8975
   20ETHOX   O153513  15.395  11.711  16.850 -0.3686  0.1479 -0.2759
   20ETHOX   C153514  15.386  11.773  16.973 -0.2889 -0.1471 -0.3246
   20ETHOX  H1153515  15.348  11.713  17.058 -0.6716  0.4914 -0.0328
   20ETHOX  H1353516  15.491  11.791  17.004 -0.7818  0.2210  1.2469
   20ETHOX   C253517  15.322  11.907  16.978 -0.7321  0.1910 -0.7312
   20ETHOX  H2153518  15.351  11.969  16.891  1.5254  2.5344  1.4896
   20ETHOX  H2353519  15.365  11.964  17.064  0.9880 -0.4744 -1.1167
   21ETHOX   O153520  15.180  11.905  16.997 -0.3186 -0.0078  0.6399
   21ETHOX   C153521  15.145  11.919  17.135  0.1235 -0.6225  0.1446
   21ETHOX  H1153522  15.153  12.029  17.147 -1.6485 -0.3944 -0.4809
   21ETHOX  H1353523  15.208  11.856  17.202 -1.7528 -1.4507  1.1893
   21ETHOX   C253524  15.000  11.879  17.156  0.5174 -0.5035 -0.1080
   21ETHOX  H2153525  14.943  11.936  17.080 -1.1764  0.1982  1.6085
   21ETHOX  H2353526  14.975  11.920  17.256 -1.6985  2.0953 -1.5749
   22ETHOX   O153527  14.977  11.743  17.132  0.4627  0.1498 -0.0245
   22ETHOX   C153528  14.856  11.707  17.194 -0.2577 -0.0368  0.7543
   22ETHOX  H1153529  14.864  11.713  17.305  0.7510  0.3227  0.6758
   22ETHOX  H1353530  14.775  11.774  17.158 -0.5499  1.8652  4.4099
   22ETHOX   C253531  14.833  11.559  17.144  0.1110  0.0096  0.0864
   22ETHOX  H2153532  14.726  11.530  17.155  0.3984 -1.5382 -0.8975
   22ETHOX  H2353533  14.857  11.547  17.036  0.0527  0.5345  0.0128
   23ETHOX   O153534  14.906  11.472  17.222  0.3918  1.3220  0.1121
   23ETHOX   C153535  14.883  11.338  17.180  0.3995 -0.6011  0.0076
   23ETHOX  H1153536  14.863  11.337  17.070  2.3837  2.5078 -0.4969
   23ETHOX  H1353537  14.805  11.282  17.236  2.2665 -2.6964  0.6709
   23ETHOX   C253538  15.009  11.251  17.213 -1.0783 -0.5080 -0.3271
   23ETHOX  H2153539  14.983  11.147  17.181 -1.9910 -0.8887  1.4535
   23ETHOX  H2353540  15.024  11.234  17.322  2.7649  2.9075 -0.1183
   24ETHOX   O153541  15.141  11.288  17.154  0.4829  0.7945 -0.1599
   24ETHOX   C153542  15.246  11.205  17.210 -0.1954 -0.1565  0.4356
   24ETHOX  H1153543  15.262  11.221  17.318 -1.7449  1.1333  0.5077
   24ETHOX  H1353544  15.223  11.096  17.203 -0.9321 -0.1479  2.2891
   24ETHOX   C253545  15.384  11.234  17.137 -0.7077 -0.3991 -0.6026
   24ETHOX  H2153546  15.463  11.178  17.192 -0.3437  0.8032  0.1466
   24ETHOX  H2353547  15.410  11.341  17.126 -0.9981 -0.5750 -3.7622
   25ETHOX   O153548  15.387  11.177  17.010 -0.2626 -0.3762 -0.3384
   25ETHOX   C153549  15.508  11.199  16.942  0.1621 -0.1863 -0.0493
   25ETHOX  H1153550  15.589  11.176  17.014 -0.3175 -0.1317  0.5121
   25ETHOX  H1353551  15.511  11.305  16.910 -0.7647  0.0465  0.6227
   25ETHOX   C253552  15.519  11.110  16.815  0.4346  0.4833 -0.0926
   25ETHOX  H2153553  15.513  11.004  16.848  1.6685  0.7646  1.1838
   25ETHOX  H2353554  15.619  11.125  16.768  0.2906 -0.2410 -0.6552
   26ETHOX   O153555  15.418  11.137  16.719  0.1797  0.4291 -0.0620
   26ETHOX   C153556  15.448  11.061  16.606 -0.2208 -0.1751  0.7324
   26ETHOX  H1153557  15.524  11.111  16.542 -0.7125  1.1488  1.1511
   26ETHOX  H1353558  15.484  10.962  16.642 -0.7786 -0.2157  1.1765
   26ETHOX   C253559  15.320  11.041  16.526 -0.4476  0.4904  0.0938
   26ETHOX  H2153560  15.239  10.997  16.589  0.1852  0.3616  0.8310
   26ETHOX  H2353561  15.342  10.963  16.451  0.2725  0.0769  0.7269
   27ETHOX   O153562  15.260  11.157  16.461 -0.1806 -0.5811 -0.9485
   27ETHOX   C153563  15.207  11.122  16.338  0.2908  0.6581  0.4041
   27ETHOX  H1153564  15.163  11.021  16.347  1.2499  0.2922  1.0577
   27ETHOX  H1353565  15.286  11.128  16.260 -0.4060 -1.1323 -0.4840
   27ETHOX   C253566  15.103  11.229  16.287 -0.4880  0.8472  0.6182
   27ETHOX  H2153567  15.084  11.202  16.181 -0.3932  0.5224  0.6838
   27ETHOX  H2353568  15.149  11.330  16.290  1.3038  0.0817  0.2939
   28ETHOX   O153569  14.978  11.224  16.357 -0.3342  0.1819  0.2639
   28ETHOX   C153570  14.897  11.336  16.314 -0.2354 -0.8743  0.6208
   28ETHOX  H1153571  14.891  11.341  16.203  0.7140  1.2671  0.6242
   28ETHOX  H1353572  14.793  11.321  16.350 -0.9872  2.8341  0.4271
   28ETHOX   C253573  14.939  11.470  16.384 -0.2692 -0.0609  0.2065
   28ETHOX  H2153574  14.965  11.446  16.489 -1.7587  0.0659  0.6267
   28ETHOX  H2353575  14.849  11.531  16.406  0.1565  0.4420  0.6062
   29ETHOX   O153576  15.047  11.546  16.321  0.4259 -0.7174 -0.1451
   29ETHOX   C153577  14.992  11.627  16.215 -0.2196 -0.4319 -1.1459
   29ETHOX  H1153578  14.957  11.724  16.256  1.9851  0.5903 -1.5128
   29ETHOX  H1353579  14.907  11.579  16.163 -0.0045 -3.8418  1.2712
   29ETHOX   C253580  15.104  11.653  16.121 -0.0242  0.2742 -0.2995
   29ETHOX  H2153581  15.192  11.699  16.171  0.1924  0.9647 -1.2846
   29ETHOX  H2353582  15.066  11.728  16.048 -1.1537  1.3372  1.3136
   30ETHOX   O153583  15.144  11.529  16.063 -0.0838 -0.1384  0.6863
   30ETHOX   C153584  15.229  11.565  15.956 -0.6639 -0.2541  0.2699
   30ETHOX  H1153585  15.271  11.667  15.969 -1.7308 -0.0319  2.5836
   30ETHOX  H1353586  15.316  11.496  15.955 -0.8783 -0.6402 -3.0220
   30ETHOX   C253587  15.161  11.567  15.814 -0.1914  0.2305  0.1198
   30ETHOX  H2153588  15.188  11.647  15.742 -2.9079  1.1224 -0.0064
   30ETHOX  H2353589  15.057  11.600  15.834  0.6591  2.0175  1.9722
   31ETHOX   O153590  15.173  11.436  15.763 -0.0049 -0.2952 -0.0178
   31ETHOX   C153591  15.132  11.441  15.623  0.2770  0.7016 -0.2144
   31ETHOX  H1153592  15.022  11.457  15.616  0.6217  2.5593 -3.6459
   31ETHOX  H1353593  15.197  11.514  15.571  2.1645 -1.0034 -0.3751
   31ETHOX   C253594  15.158  11.299  15.556 -0.2923  0.0787  0.2413
   31ETHOX  H2153595  15.263  11.273  15.582  1.0890  2.0180 -2.8482
   31ETHOX  H2353596  15.148  11.303  15.446 -1.2044 -0.2028  0.3048
   32ETHOX   O153597  15.071  11.199  15.595  0.3032  0.6098  0.4603
   32ETHOX   C153598  15.129  11.069  15.567  0.2324 -0.0639 -0.4164
   32ETHOX  H1153599  15.153  11.052  15.460 -0.5254  1.1140 -0.8024
   32ETHOX  H1353600  15.218  11.053  15.632  0.9237  0.9433 -1.0879
   32ETHOX   C253601  15.039  10.947  15.604  0.3754 -0.3115  0.3751
   32ETHOX  H2153602  15.077  10.853  15.559 -2.0926 -0.6114 -1.2632
   32ETHOX  H2353603  14.939  10.967  15.562  0.6203  0.0823 -0.0290
   33ETHOX   O153604  15.025  10.928  15.748 -0.8835 -0.5565 -0.2239
   33ETHOX   C153605  14.939  10.822  15.778  0.0083 -0.9252  0.0233
   33ETHOX  H1153606  14.855  10.818  15.705 -1.2117 -0.5207  1.3582
   33ETHOX  H1353607  15.010  10.739  15.762  2.4709  1.2568 -1.0405
   33ETHOX   C253608  14.889  10.827  15.918  0.2805  0.2545 -0.0985
   33ETHOX  H2153609  14.810  10.905  15.926  1.9207  1.8456  1.6373
   33ETHOX  H2353610  14.967  10.848  15.994  0.5663 -1.0608 -0.0001
   34ETHOX   O153611  14.833  10.699  15.954 -0.0292  0.1212  0.1329
   34ETHOX   C153612  14.772  10.713  16.074  0.0531  0.0739  0.2497
   34ETHOX  H1153613  14.664  10.739  16.062  0.2522  1.1687  0.7553
   34ETHOX  H1353614  14.821  10.785  16.142 -0.3852  0.4271  0.2004
   34ETHOX   C253615  14.760  10.573  16.143  0.2174 -0.3081  0.9727
   34ETHOX  H2153616  14.707  10.505  16.072 -0.8556  0.5191  0.9598
   34ETHOX  H2353617  14.709  10.579  16.241  1.5423 -0.7525  1.7256
   35ETHOX   O153618  14.896  10.534  16.173  0.2502  0.2265 -0.0680
   35ETHOX   C153619  14.907  10.410  16.241 -0.2339  0.4461  0.9457
   35ETHOX  H1153620  14.866  10.417  16.344  2.5267  0.1396  2.1644
   35ETHOX  H1353621  14.854  10.330  16.184  1.8875 -0.5539  0.2821
   35ETHOX   C253622  15.050  10.359  16.261  0.2195 -0.7879  0.4882
   35ETHOX  H2153623  15.039  10.275  16.334  1.4485 -1.1042  0.3318
   35ETHOX  H2353624  15.111  10.438  16.308 -1.8112  2.7953 -2.4030
   36ETHOX   O153625  15.113  10.303  16.142  0.1902 -0.0644  0.5951
   36ETHOX   C153626  15.211  10.207  16.179  0.0744  0.2462 -0.4848
   36ETHOX  H1153627  15.162  10.113  16.213 -0.9482  1.3256  1.1664
   36ETHOX  H1353628  15.259  10.242  16.272 -0.9483  1.4410 -0.3831
   36ETHOX   C253629  15.318  10.164  16.075 -0.0867  0.4503  0.1824
   36ETHOX  H2153630  15.264  10.163  15.978 -1.8777  1.2600  1.1380
   36ETHOX  H2353631  15.370  10.074  16.115  3.1140  1.4525 -1.3275
   37ETHOX   O153632  15.416  10.265  16.084 -0.2083 -0.3092 -0.4651
   37ETHOX   C153633  15.518  10.237  15.992  0.3412  1.0958  0.1584
   37ETHOX  H1153634  15.543  10.129  15.999 -1.5183  0.5864 -0.3320
   37ETHOX  H1353635  15.470  10.250  15.892  1.7927  0.7834 -0.6084
   37ETHOX   C253636  15.640  10.326  16.009 -0.2119 -0.1105  1.0147
   37ETHOX  H2153637  15.609  10.427  15.978 -0.4797 -1.2420 -2.9896
   37ETHOX  H2353638  15.719  10.301  15.934  0.6738  2.3133  1.0555
   38ETHOX   O153639  15.697  10.307  16.133  0.1642 -0.3823 -0.0976
   38ETHOX   C153640  15.789  10.405  16.184 -0.2760 -0.5532  0.2856
   38ETHOX  H1153641  15.779  10.505  16.137 -1.5106  0.1676  1.9603
   38ETHOX  H1353642  15.893  10.376  16.158 -0.9727 -0.8154 -2.5402
   38ETHOX   C253643  15.791  10.425  16.337 -0.0184  0.4371 -0.0332
   38ETHOX  H2153644  15.688  10.428  16.377 -0.0032  0.2286  0.0217
   38ETHOX  H2353645  15.847  10.519  16.357 -0.1030  0.6789 -0.8763
   39ETHOX   O153646  15.855  10.318  16.397  0.1101  0.1261 -0.3384
   39ETHOX   C153647  15.851  10.335  16.543  0.1042  0.7247  0.5402
   39ETHOX  H1153648  15.913  10.415  16.590  1.1771 -1.8043  3.7470
   39ETHOX  H1353649  15.743  10.334  16.569 -0.0037 -2.8159  0.4247
   39ETHOX   C253650  15.902  10.210  16.618  0.0735 -0.1263  0.1695
   39ETHOX  H2153651  15.867  10.124  16.557 -1.2245  0.7370 -0.3595
   39ETHOX  H2353652  15.838  10.212  16.709 -2.1588 -0.9831 -1.2788
   40ETHOX   O153653  16.045  10.216  16.650 -0.6581  0.2739  0.6745
   40ETHOX   C153654  16.103  10.086  16.694 -0.0008 -0.1148 -0.0689
   40ETHOX  H1153655  16.023  10.033  16.751  1.5438 -1.5358  0.8601
   40ETHOX  H1353656  16.193  10.109  16.753  0.3463 -1.2162 -0.1479
   40ETHOX   C253657  16.146   9.995  16.572 -0.1316  0.0392 -0.7992
   40ETHOX  H2153658  16.068   9.994  16.493 -1.3121 -2.3082  0.3228
   40ETHOX  H2353659  16.164   9.893  16.613 -1.5551 -0.2080 -0.7354
   41ETHOX   O153660  16.263  10.040  16.511 -0.0712  0.2912  0.1506
   41ETHOX   C153661  16.306   9.958  16.405  0.2195 -0.8067  0.0350
   41ETHOX  H1153662  16.353   9.868  16.451  0.5471 -0.2631  0.7962
   41ETHOX  H1353663  16.221   9.927  16.341 -1.4539  0.0834  1.7492
   41ETHOX   C253664  16.406  10.042  16.329  0.1124 -0.7915 -0.5490
   41ETHOX  H2153665  16.500  10.037  16.387 -0.3969 -0.2571  0.3357
   41ETHOX  H2353666  16.361  10.143  16.326 -0.6432 -1.0425  1.1543
   42ETHOX   O153667  16.433   9.981  16.203 -0.1972 -0.0974  0.2273
   42ETHOX   C153668  16.437  10.083  16.101 -0.8115 -0.2560 -0.8476
   42ETHOX  H1153669  16.468  10.176  16.152 -0.0859 -0.8491 -0.1779
   42ETHOX  H1353670  16.518  10.075  16.027 -0.0205  0.2920 -0.0668
   42ETHOX   C253671  16.308  10.121  16.027  0.0698  1.2829  0.5442
   42ETHOX  H2153672  16.324  10.220  15.979  1.2708  0.0405 -1.7982
   42ETHOX  H2353673  16.224  10.117  16.100  0.1316 -1.7703  0.5946
   43ETHOX   O153674  16.287  10.036  15.912 -0.1332 -0.2727 -0.1721
   43ETHOX   C153675  16.177  10.088  15.828 -0.4565  0.4658  0.6256
   43ETHOX  H1153676  16.190  10.198  15.818  3.3954  0.0286 -1.3160
   43ETHOX  H1353677  16.190  10.050  15.725 -0.7517  1.8268  0.0715
   43ETHOX   C253678  16.040  10.053  15.887 -0.4129 -0.0300 -0.0745
   43ETHOX  H2153679  15.973  10.140  15.871 -2.2706 -1.4226 -0.1711
   43ETHOX  H2353680  16.055  10.032  15.995 -1.6213 -1.0528 -0.0839
   44ETHOX   O153681  15.981   9.946  15.816 -0.1931  1.1731 -0.1405
   44ETHOX   C153682  16.050   9.825  15.837  0.0851  0.3208  0.4632
   44ETHOX  H1153683  16.159   9.823  15.816  0.0947  1.2138  0.3659
   44ETHOX  H1353684  16.034   9.796  15.943  0.3779 -0.0590  0.4034
   44ETHOX   C253685  15.980   9.713  15.762 -0.0956  0.1852 -0.6279
   44ETHOX  H2153686  15.874   9.731  15.790  0.7043  1.4774  1.8272
   44ETHOX  H2353687  16.011   9.617  15.809  0.7309 -0.5215 -2.5034
   45ETHOX   O153688  15.995   9.705  15.621  0.5333 -0.4383  0.0755
   45ETHOX   C153689  15.917   9.607  15.555  0.5912  0.0198 -0.3558
   45ETHOX  H1153690  15.838   9.571  15.625  1.6630 -0.0397  0.8672
   45ETHOX  H1353691  15.989   9.525  15.534  0.8762 -0.1882  1.3228
   45ETHOX   C253692  15.863   9.656  15.418 -0.2213  0.5460 -0.4674
   45ETHOX  H2153693  15.801   9.575  15.375 -0.1071 -0.4792  1.2047
   45ETHOX  H2353694  15.949   9.683  15.353 -1.6691  1.5687 -2.0643
   46ETHOX   O153695  15.778   9.769  15.440 -0.1508  0.5111  0.3719
   46ETHOX   C153696  15.774   9.860  15.331 -0.2503  0.0307 -0.1197
   46ETHOX  H1153697  15.877   9.896  15.309  0.1126  0.1566  1.7020
   46ETHOX  H1353698  15.739   9.798  15.245 -1.6591  0.6104  0.0028
   46ETHOX   C253699  15.674   9.961  15.349 -0.1514  0.4849  0.2601
   46ETHOX  H2153700  15.573   9.925  15.380 -0.6390  0.4646 -1.2665
   46ETHOX  H2353701  15.670  10.005  15.247 -0.4174  0.9450  0.4676
   47ETHOX   O153702  15.715  10.070  15.430 -0.0433  0.5571 -0.8629
   47ETHOX   C153703  15.617  10.180  15.424  0.6793  0.9040 -0.2362
   47ETHOX  H1153704  15.530  10.162  15.491 -0.3458  1.0310 -1.4956
   47ETHOX  H1353705  15.575  10.202  15.323  0.1337 -0.1337 -0.2559
   47ETHOX   C253706  15.667  10.324  15.467 -0.2163 -0.1296  0.3170
   47ETHOX  H2153707  15.605  10.398  15.411  1.4001  1.1742  0.1959
   47ETHOX  H2353708  15.770  10.332  15.426 -0.8120 -1.8977 -1.7445
   48ETHOX   O153709  15.669  10.346  15.608  0.2554 -0.4960 -0.1962
   48ETHOX   C153710  15.688  10.485  15.657  0.2562  0.4749 -0.2777
   48ETHOX  H1153711  15.723  10.477  15.762 -3.0399 -0.3972  0.8676
   48ETHOX  H1353712  15.754  10.548  15.593 -0.1792  1.5147  0.2763
   48ETHOX   C253713  15.547  10.546  15.667 -0.6031  0.5613 -0.5245
   48ETHOX  H2153714  15.502  10.559  15.566 -1.4924 -0.8985 -0.3464
   48ETHOX  H2353715  15.471  10.486  15.720 -3.0202  3.5120 -0.3915
   49ETHOX   O153716  15.552  10.677  15.724  0.2105  0.0006 -0.0168
   49ETHOX   C153717  15.426  10.746  15.724  0.1480 -0.5780 -0.3987
   49ETHOX  H1153718  15.372  10.733  15.820 -0.5743  1.4642 -0.4809
   49ETHOX  H1353719  15.358  10.721  15.640 -0.9657 -1.6158  0.7531
   49ETHOX   C253720  15.457  10.893  15.708 -0.1890 -0.4013  0.0712
   49ETHOX  H2153721  15.540  10.925  15.775 -0.2764  0.4781 -0.2314
   49ETHOX  H2353722  15.369  10.958  15.727  0.2622  0.2969 -0.1891
   50ETHOX   O153723  15.497  10.929  15.575 -0.4623 -0.1146  0.6487
   50ETHOX   C153724  15.636  10.941  15.575 -0.0341  0.0194  0.3126
   50ETHOX  H1153725  15.660  11.020  15.649  1.1822 -0.3274  0.3042
   50ETHOX  H1353726  15.680  10.848  15.616 -1.9875 -0.0500  2.4717
   50ETHOX   C253727  15.694  10.984  15.446  0.1244 -0.3655  0.4476
   50ETHOX  H2153728  15.804  10.986  15.462  0.0385  2.9048  1.4212
   50ETHOX  H2353729  15.658  11.087  15.424 -0.0296 -0.0392  2.0517
   51ETHOX   O153730  15.660  10.885  15.347 -0.7775  0.0690 -0.1074
   51ETHOX   C153731  15.747  10.896  15.237  0.1436  0.8314  0.4379
   51ETHOX  H1153732  15.851  10.867  15.263  0.3996 -1.5998 -2.7567
   51ETHOX  H1353733  15.732  11.001  15.204 -0.8742  0.3421 -0.6957
   51ETHOX   C253734  15.706  10.798  15.132 -0.4878  0.2515 -0.0836
   51ETHOX  H2153735  15.720  10.829  15.027 -2.4469 -0.1932 -0.5248
   51ETHOX  H2353736  15.595  10.790  15.142 -0.4997  1.7564  1.5286
   52ETHOX   O153737  15.737  10.659  15.153 -1.5035 -0.2098  0.3266
   52ETHOX   C153738  15.854  10.619  15.083 -0.0253  0.3200 -0.0956
   52ETHOX  H1153739  15.821  10.599  14.979 -0.1157 -2.3193  0.3817
   52ETHOX  H1353740  15.939  10.690  15.086  0.5611 -0.4030  1.5272
   52ETHOX   C253741  15.915  10.486  15.134 -0.0902  0.3684 -0.1264
   52ETHOX  H2153742  15.943  10.486  15.242  1.2974 -0.9536 -0.4589
   52ETHOX  H2353743  16.011  10.479  15.078  0.5892 -2.6947  1.2198
   53ETHOX   O153744  15.832  10.375  15.102 -0.4138  0.4081 -0.1606
   53ETHOX   C153745  15.915  10.259  15.085  0.2667 -0.6204 -0.6845
   53ETHOX  H1153746  16.013  10.291  15.044 -0.5550  1.9430 -0.8369
   53ETHOX  H1353747  15.926  10.211  15.184  0.5566 -0.8592 -0.8323
   53ETHOX   C253748  15.860  10.146  14.994  0.6708 -0.8438 -0.1094
   53ETHOX  H2153749  15.773  10.095  15.040  1.2155 -1.8544 -0.1590
   53ETHOX  H2353750  15.938  10.067  14.987  0.0391 -1.7928  2.4550
   54ETHOX   O153751  15.835  10.187  14.860 -0.2183 -0.2794 -0.1210
   54ETHOX   C153752  15.867  10.079  14.766 -1.0622 -0.2011 -0.0803
   54ETHOX  H1153753  15.975  10.053  14.774 -1.3329 -0.8660  2.3960
   54ETHOX  H1353754  15.809   9.990  14.798  2.5483 -2.4608  0.8484
   54ETHOX   C253755  15.845  10.106  14.618  0.5078 -0.1877 -0.5514
   54ETHOX  H2153756  15.740  10.138  14.601  0.1075  0.5045  2.5608
   54ETHOX  H2353757  15.863  10.008  14.570  2.0466 -0.6257  0.8273
   55ETHOX   O153758  15.942  10.198  14.567 -0.5498  0.5232 -0.4038
   55ETHOX   C153759  15.897  10.255  14.453  0.6772 -0.1436  0.6361
   55ETHOX  H1153760  15.854  10.171  14.394 -0.6900 -0.4311  1.9634
   55ETHOX  H1353761  15.826  10.337  14.478  0.2777 -0.4686  0.5717
   55ETHOX   C253762  16.012  10.321  14.362 -0.1610 -0.8206 -0.3014
   55ETHOX  H2153763  15.955  10.357  14.274  0.2167 -1.1523 -0.6805
   55ETHOX  H2353764  16.072  10.393  14.422  1.0058 -1.8566 -0.1949
   56ETHOX   O153765  16.105  10.224  14.316 -0.1223 -0.2322 -0.3760
   56ETHOX   C153766  16.144  10.249  14.180  0.2326  0.0347 -0.0752
   56ETHOX  H1153767  16.174  10.354  14.164 -0.9600  0.1987 -1.5086
   56ETHOX  H1353768  16.061  10.220  14.111 -0.1531  0.2164  0.3073
   56ETHOX   C253769  16.260  10.160  14.137  0.2937  0.2724 -0.0330
   56ETHOX  H2153770  16.271  10.188  14.030  1.5209  1.5781  0.4136
   56ETHOX  H2353771  16.233  10.052  14.148  1.8642 -0.1068  0.2649
   57ETHOX   O153772  16.380  10.196  14.201  0.1428 -0.0197  0.4076
   57ETHOX   C153773  16.481  10.098  14.182 -0.3065 -0.2087  0.6113
   57ETHOX  H1153774  16.460  10.001  14.232  0.5805  0.1920  1.8370
   57ETHOX  H1353775  16.492  10.090  14.072 -2.4892  2.2184  0.1194
   57ETHOX   C253776  16.618  10.149  14.235  0.5225  0.4486 -0.2014
   57ETHOX  H2153777  16.646  10.248  14.193  1.0211  0.2652 -0.3106
   57ETHOX  H2353778  16.695  10.087  14.184 -0.4621 -0.5578 -0.5024
   58ETHOX   O153779  16.630  10.147  14.381  0.4770 -0.4677  0.6813
   58ETHOX   C153780  16.767  10.175  14.417 -0.1082 -0.4650  0.4288
   58ETHOX  H1153781  16.836  10.139  14.337 -0.8666 -0.4725 -0.2339
   58ETHOX  H1353782  16.786  10.112  14.506 -0.8792 -2.5364 -0.7897
   58ETHOX   C253783  16.781  10.322  14.457 -0.1290 -0.0003  0.1248
   58ETHOX  H2153784  16.723  10.354  14.546 -1.0747 -1.2845 -0.0022
   58ETHOX  H2353785  16.753  10.390  14.374 -0.9166  0.0930  0.4588
   59ETHOX   O153786  16.922  10.337  14.489  0.3378 -0.0642  0.0962
   59ETHOX   C153787  16.962  10.470  14.533 -0.4433  0.5933  0.4179
   59ETHOX  H1153788  16.884  10.519  14.594 -2.4738 -2.6433  0.6919
   59ETHOX  H1353789  17.053  10.456  14.595  0.6213 -1.4773 -1.4555
   59ETHOX   C253790  17.002  10.569  14.421  0.4747 -0.0851 -0.1357
   59ETHOX  H2153791  16.993  10.671  14.464 -0.5224 -0.3132  0.2369
   59ETHOX  H2353792  16.924  10.564  14.342 -0.9511  0.3718  1.1883
   60ETHOX   O153793  17.129  10.538  14.373 -0.1371 -0.0870 -0.1810
   60ETHOX   C153794  17.176  10.644  14.291  0.0024  0.4524 -0.3434
   60ETHOX  H1153795  17.278  10.667  14.328  0.4284  0.5939 -1.5522
   60ETHOX  H1353796  17.113  10.733  14.310 -1.3284 -0.5228 -0.0761
   60ETHOX   C253797  17.163  10.604  14.143 -0.1325 -0.4958  0.8917
   60ETHOX  H2153798  17.221  10.515  14.110  1.9137  0.2175  2.3573
   60ETHOX  H2353799  17.200  10.684  14.075 -1.1844 -0.8961 -0.1873
   61ETHOX   O153800  17.031  10.575  14.110 -0.0140 -0.6170  0.4096
   61ETHOX   C153801  17.022  10.518  13.980 -0.2269 -0.7804 -0.3778
   61ETHOX  H1153802  17.080  10.580  13.909 -0.4168  0.1206  0.2335
   61ETHOX  H1353803  17.059  10.414  13.978 -1.1741 -1.1293 -0.3823
   61ETHOX   C253804  16.870  10.519  13.953  0.0792  0.0695 -0.0564
   61ETHOX  H2153805  16.815  10.459  14.029 -2.3051  0.4944 -1.3467
   61ETHOX  H2353806  16.844  10.469  13.857  1.4103  0.8964 -0.8695
   62ETHOX   O153807  16.806  10.644  13.943 -0.4272 -0.1223 -0.4492
   62ETHOX   C153808  16.827  10.710  13.820 -0.2501 -0.2478  0.2627
   62ETHOX  H1153809  16.930  10.697  13.782 -1.0967 -0.3043 -2.2261
   62ETHOX  H1353810  16.822  10.821  13.829 -0.6014 -0.2701  0.3900
   62ETHOX   C253811  16.722  10.673  13.714 -0.2011 -0.9593  0.0257
   62ETHOX  H2153812  16.733  10.565  13.687  1.5537 -0.9272  0.4563
   62ETHOX  H2353813  16.741  10.745  13.631  3.0871 -1.1389  0.4850
   63ETHOX   O153814  16.597  10.698  13.767  0.5473 -0.3002  0.2453
   63ETHOX   C153815  16.544  10.832  13.751  0.3112  0.1930  0.0166
   63ETHOX  H1153816  16.615  10.907  13.792  0.1985  1.5983 -2.1625
   63ETHOX  H1353817  16.532  10.847  13.641  1.1022 -1.2715 -0.2960
   63ETHOX   C253818  16.422  10.838  13.841 -0.2105  0.2423 -0.0510
   63ETHOX  H2153819  16.356  10.749  13.836  0.0932 -0.0188  0.4760
   63ETHOX  H2353820  16.353  10.919  13.808 -0.1822 -0.1855 -1.1848
   64ETHOX   O153821  16.464  10.843  13.979  0.2424 -0.0360 -0.4993
   64ETHOX   C153822  16.359  10.887  14.067  0.1320  0.3024 -0.1038
   64ETHOX  H1153823  16.269  10.830  14.034  0.8870 -3.7229  3.8001
   64ETHOX  H1353824  16.337  10.994  14.050 -1.0565  0.1678  0.4966
   64ETHOX   C253825  16.393  10.863  14.211  0.5375  0.0591 -0.6091
   64ETHOX  H2153826  16.321  10.919  14.274  2.0515  1.5465 -0.1077
   64ETHOX  H2353827  16.500  10.895  14.220  0.0472  2.3505 -2.0637
   65ETHOX   O153828  16.372  10.723  14.254  0.2209 -0.0493  0.1462
   65ETHOX   C153829  16.474  10.638  14.212  0.8415 -0.6601  0.6894
   65ETHOX  H1153830  16.478  10.622  14.102  0.3209  0.4108  0.5078
   65ETHOX  H1353831  16.570  10.690  14.235  0.2105  0.8715  0.0023
   65ETHOX   C253832  16.471  10.498  14.282 -0.1387 -0.0792  0.1270
   65ETHOX  H2153833  16.567  10.445  14.264  0.0558  0.1838  0.3834
   65ETHOX  H2353834  16.384  10.446  14.237 -1.6502  2.2450  0.1737
   66ETHOX   O153835  16.467  10.522  14.422  0.3877  0.2264  0.1261
   66ETHOX   C153836  16.425  10.404  14.485  0.3952 -0.7926 -0.2094
   66ETHOX  H1153837  16.486  10.312  14.468  0.5790 -1.3419  2.7654
   66ETHOX  H1353838  16.319  10.388  14.457  0.5082 -2.3630  0.1497
   66ETHOX   C253839  16.414  10.421  14.633 -0.1525 -0.1519  0.2339
   66ETHOX  H2153840  16.356  10.337  14.676 -1.4351  0.5284 -0.1163
   66ETHOX  H2353841  16.350  10.510  14.651  0.7472  0.2228  1.8055
   67ETHOX   O153842  16.546  10.450  14.685  0.0271 -0.1919 -0.2489
   67ETHOX   C153843  16.538  10.537  14.802 -0.4308  0.0161  0.1872
   67ETHOX  H1153844  16.454  10.607  14.784  0.4355  0.5808 -1.9503
   67ETHOX  H1353845  16.496  10.486  14.892  0.0340  1.6346  1.3754
   67ETHOX   C253846  16.662  10.609  14.843  0.3626 -0.2825  0.2768
   67ETHOX  H2153847  16.743  10.537  14.865  0.2403 -0.7908 -0.8704
   67ETHOX  H2353848  16.642  10.661  14.940 -0.3041 -0.4617  0.2425
   68ETHOX   O153849  16.704  10.707  14.744 -0.2225 -0.0659 -0.9941
   68ETHOX   C153850  16.817  10.784  14.794  0.4179 -0.3583  0.3921
   68ETHOX  H1153851  16.800  10.804  14.902 -1.2583 -0.5348  0.1747
   68ETHOX  H1353852  16.908  10.722  14.781  2.6332  2.4148  1.5430
   68ETHOX   C253853  16.854  10.921  14.734 -0.0992 -0.4508 -1.0431
   68ETHOX  H2153854  16.857  10.916  14.623  2.1014  0.3743 -1.0636
   68ETHOX  H2353855  16.957  10.941  14.768 -0.7801 -0.5981  1.2635
   69ETHOX   O153856  16.763  11.021  14.778  0.4493  0.4392  0.5057
   69ETHOX   C153857  16.643  11.008  14.701  0.9433 -0.1193  0.0126
   69ETHOX  H1153858  16.657  10.986  14.593  0.1394 -0.2208 -0.0730
   69ETHOX  H1353859  16.575  10.942  14.758 -1.0209  4.6583  4.0103
   69ETHOX   C253860  16.569  11.144  14.684  0.3215 -0.7297  0.3524
   69ETHOX  H2153861  16.652  11.213  14.658 -0.4319  0.7703  1.7247
   69ETHOX  H2353862  16.532  11.179  14.783 -0.9979 -0.8775 -0.0602
   70ETHOX   O153863  16.467  11.135  14.587 -0.9480  0.5896 -0.1978
   70ETHOX   C153864  16.448  11.256  14.512  0.4292  0.0323 -0.1681
   70ETHOX  H1153865  16.401  11.331  14.579 -2.5830  1.2549 -3.3169
   70ETHOX  H1353866  16.547  11.290  14.475  0.4784 -0.8503 -0.8835
   70ETHOX   C253867  16.353  11.239  14.390 -0.0494  0.0605 -0.3180
   70ETHOX  H2153868  16.394  11.174  14.309 -1.4805 -0.9536 -0.2644
   70ETHOX  H2353869  16.337  11.344  14.359  1.3815  0.5609  0.5498
   71ETHOX   O153870  16.229  11.198  14.437 -0.0228 -0.3680  0.7267
   71ETHOX   C153871  16.124  11.188  14.339  0.2753  0.5314 -0.3454
   71ETHOX  H1153872  16.040  11.131  14.384 -1.3144  0.6038 -3.0445
   71ETHOX  H1353873  16.159  11.136  14.248  2.2378 -0.5744  0.9667
   71ETHOX   C253874  16.071  11.324  14.286 -0.6133  1.0292 -0.2170
   71ETHOX  H2153875  15.989  11.308  14.212 -1.4742 -0.8607  1.0580
   71ETHOX  H2353876  16.155  11.369  14.230 -0.6243  0.2429 -0.8868
   72ETHOX   O153877  16.030  11.412  14.389 -0.0121 -0.2299  0.2962
   72ETHOX   C153878  15.984  11.539  14.343 -0.3952  0.0420 -0.2986
   72ETHOX  H1153879  16.069  11.590  14.292  1.3330 -2.3259  0.0231
   72ETHOX  H1353880  15.924  11.533  14.250  1.8353  0.5495 -1.8625
   72ETHOX   C253881  15.911  11.629  14.443 -0.1983 -0.1675  0.1956
   72ETHOX  H2153882  15.844  11.556  14.494  0.5013 -0.5937  0.5189
   72ETHOX  H2353883  15.854  11.708  14.388  0.2118  1.8885  2.5459
   73ETHOX   O153884  15.990  11.692  14.547  0.6276 -0.2954  0.0358
   73ETHOX   C153885  15.896  11.748  14.641  0.3040 -0.2304 -0.0192
   73ETHOX  H1153886  15.843  11.675  14.706  1.3089  0.3431  1.4910
   73ETHOX  H1353887  15.813  11.789  14.579  1.2319 -0.5761 -1.5434
   73ETHOX   C253888  15.967  11.844  14.734 -0.2773  0.2116  0.5399
   73ETHOX  H2153889  15.891  11.907  14.785 -1.8918  0.4095 -1.9384
   73ETHOX  H2353890  16.025  11.900  14.657 -0.2532 -2.0064 -1.1724
   74ETHOX   O153891  16.060  11.761  14.811  0.0491  0.7100  0.4796
   74ETHOX   C153892  16.192  11.783  14.761 -0.3113  0.5521 -0.3320
   74ETHOX  H1153893  16.195  11.766  14.651 -0.1334 -0.7800 -0.1436
   74ETHOX  H1353894  16.233  11.885  14.773 -1.9693  1.0132  2.0683
   74ETHOX   C253895  16.288  11.684  14.822 -0.2327 -0.3817 -0.2337
   74ETHOX  H2153896  16.380  11.680  14.760  0.9396  1.5798  1.2418
   74ETHOX  H2353897  16.236  11.586  14.821 -1.4044  0.1039 -4.0688
   75ETHOX   O153898  16.301  11.719  14.958 -0.0652 -0.2228  0.0455
   75ETHOX   C153899  16.389  11.631  15.034 -0.1267  0.1451  0.0167
   75ETHOX  H1153900  16.495  11.635  15.000 -0.0486 -2.1202 -0.1482
   75ETHOX  H1353901  16.361  11.524  15.023 -1.3497  0.6045 -1.6709
   75ETHOX   C253902  16.384  11.672  15.184 -0.3306  0.0781 -0.4012
   75ETHOX  H2153903  16.424  11.584  15.239  3.7552  0.3834 -2.4932
   75ETHOX  H2353904  16.276  11.677  15.210 -0.1634  3.2460  0.0316
   76ETHOX   O153905  16.443  11.792  15.223  0.8087 -0.3421  0.4139
   76ETHOX   C153906  16.466  11.800  15.363  0.0451 -0.1059  0.4310
   76ETHOX  H1153907  16.376  11.765  15.419 -0.7228 -1.4990 -1.5735
   76ETHOX  H1353908  16.550  11.732  15.389  0.7769  0.9402  0.8682
   76ETHOX   C253909  16.498  11.951  15.404 -0.5510 -0.4773  0.2802
   76ETHOX  H2153910  16.586  11.976  15.341 -1.7008 -0.1409 -1.2797
   76ETHOX  H2353911  16.522  11.947  15.512  0.7883 -3.4039 -0.0441
   77ETHOX   O153912  16.394  12.043  15.371  0.2330 -0.4345 -0.4360
   77ETHOX   C153913  16.275  12.027  15.447 -0.6286 -0.4894  0.2787
   77ETHOX  H1153914  16.285  12.030  15.557 -1.0889  4.4482  0.3936
   77ETHOX  H1353915  16.232  11.927  15.425 -2.0543  0.5946 -2.3134
   77ETHOX   C253916  16.172  12.132  15.401  0.1034 -0.6281 -0.1281
   77ETHOX  H2153917  16.068  12.097  15.416 -0.2378 -0.6700 -2.2831
   77ETHOX  H2353918  16.185  12.154  15.293 -0.9647  0.3825 -0.0666
   78ETHOX   O153919  16.188  12.260  15.465 -0.0548  0.0923 -0.0448
   78ETHOX   C153920  16.107  12.365  15.410  0.3103  0.1421 -0.2503
   78ETHOX  H1153921  16.131  12.374  15.302  0.2703 -0.1211 -0.2821
   78ETHOX  H1353922  16.002  12.332  15.424  1.0764 -1.9916  1.0625
   78ETHOX   C253923  16.116  12.502  15.485  0.1990 -0.3045 -0.0213
   78ETHOX  H2153924  16.052  12.573  15.428  0.3359 -0.7033 -0.6916
   78ETHOX  H2353925  16.213  12.553  15.461 -0.6118  1.0727 -0.4761
   79ETHOX   O153926  16.096  12.495  15.627 -0.0850  0.1314  0.5068
   79ETHOX   C153927  15.963  12.514  15.661  0.1860  0.2740 -1.2110
   79ETHOX  H1153928  15.928  12.611  15.621  3.5710  1.9362 -0.5615
   79ETHOX  H1353929  15.905  12.428  15.621  0.3447 -1.1067  1.2938
   79ETHOX   C253930  15.952  12.518  15.820 -0.1410 -0.2804  0.3506
   79ETHOX  H2153931  16.007  12.425  15.845 -0.1752 -0.4094 -0.0402
   79ETHOX  H2353932  15.846  12.510  15.851 -0.6567  1.5004 -0.7861
   80ETHOX   O153933  16.013  12.631  15.885  0.2696  0.0271  0.1050
   80ETHOX   C153934  15.980  12.655  16.023 -0.1773 -0.5607  0.5093
   80ETHOX  H1153935  15.996  12.559  16.077 -2.0528 -0.4282  1.3783
   80ETHOX  H1353936  16.050  12.735  16.056 -0.3615 -0.2687  0.1967
   80ETHOX   C253937  15.837  12.707  16.044 -0.1722 -0.6570  0.6567
   80ETHOX  H2153938  15.780  12.614  16.023 -1.1963  0.4796 -2.1235
   80ETHOX  H2353939  15.798  12.771  15.962 -0.7445 -2.5034 -0.5646
   81ETHOX   O153940  15.812  12.759  16.170 -0.4671  0.4964  0.5423
   81ETHOX   C153941  15.740  12.881  16.161  0.7455 -0.0366 -0.1032
   81ETHOX  H1153942  15.808  12.955  16.114  2.0160 -0.5100  0.9415
   81ETHOX  H1353943  15.647  12.867  16.101 -0.5743  1.4668  1.5026
   81ETHOX   C253944  15.701  12.930  16.299 -0.7606 -0.3754 -0.0809
   81ETHOX  H2153945  15.609  12.992  16.302 -1.3820 -1.3312  2.0302
   81ETHOX  H2353946  15.677  12.849  16.371  0.9996 -1.4224 -0.6114
   82ETHOX   O153947  15.809  13.000  16.348  0.6596  0.2120  0.4220
   82ETHOX   C153948  15.800  13.017  16.483 -0.3660  0.3097  0.0409
   82ETHOX  H1153949  15.798  12.921  16.538  1.6270 -0.5900 -1.3631
   82ETHOX  H1353950  15.713  13.075  16.521  0.9091  1.6442  1.0750
   82ETHOX   C253951  15.927  13.097  16.530  0.4391 -0.4474 -0.6085
   82ETHOX  H2153952  15.908  13.122  16.637  0.1528  0.2322 -0.8080
   82ETHOX  H2353953  15.934  13.191  16.472  1.3484  0.0620  0.2968
   83ETHOX   O153954  16.040  13.017  16.518 -0.0631 -0.1386  0.1617
   83ETHOX   C153955  16.159  13.091  16.539  0.2337 -0.1362  0.2390
   83ETHOX  H1153956  16.158  13.182  16.476  1.5618 -0.6406 -0.5375
   83ETHOX  H1353957  16.171  13.133  16.641  0.6512  1.2081 -0.3315
   83ETHOX   C253958  16.273  13.006  16.486 -0.1258 -0.1312 -0.1546
   83ETHOX  H2153959  16.363  13.069  16.504  0.1723 -0.5435 -0.1745
   83ETHOX  H2353960  16.263  12.965  16.383  1.5619  1.8507 -1.1719
   84ETHOX   O153961  16.281  12.895  16.573 -0.2188 -0.3085  1.0960
   84ETHOX   C153962  16.384  12.800  16.534 -0.0494  0.3406 -0.2049
   84ETHOX  H1153963  16.481  12.852  16.548  0.6761 -0.8897 -0.5114
   84ETHOX  H1353964  16.372  12.757  16.433  0.8736 -1.9174  0.5726
   84ETHOX   C253965  16.397  12.675  16.618  0.3564 -0.3380  0.6473
   84ETHOX  H2153966  16.301  12.620  16.615 -0.4875  1.1356 -1.3540
   84ETHOX  H2353967  16.417  12.728  16.714  0.8660  0.0524  0.3267
   85ETHOX   O153968  16.501  12.588  16.580  0.0558  0.5593  0.5001
   85ETHOX   C153969  16.525  12.481  16.666 -0.0981  0.3191 -0.0119
   85ETHOX  H1153970  16.589  12.513  16.751  1.4220 -1.1877 -0.5317
   85ETHOX  H1353971  16.429  12.452  16.715  0.8789 -0.2360  1.6750
   85ETHOX   C253972  16.603  12.369  16.607 -0.9044 -0.3995  0.1011
   85ETHOX  H2153973  16.607  12.279  16.671 -1.7198 -1.6977 -1.5747
   85ETHOX  H2353974  16.706  12.407  16.587 -1.0156 -0.9215 -1.6094
   86ETHOX   O153975  16.558  12.327  16.480 -0.4684 -0.1185 -0.0687
   86ETHOX   C153976  16.655  12.229  16.431 -0.7504 -0.0828  0.2932
   86ETHOX  H1153977  16.653  12.139  16.496 -3.0809 -1.0122 -0.9372
   86ETHOX  H1353978  16.760  12.264  16.443 -0.8060  0.0525  0.3991
   86ETHOX   C253979  16.623  12.178  16.291  0.1726  0.0877  0.7410
   86ETHOX  H2153980  16.706  12.117  16.250 -1.2356  0.2146 -2.5707
   86ETHOX  H2353981  16.603  12.267  16.228 -0.9579 -0.4157  0.3615
   87ETHOX   O153982  16.518  12.084  16.298  0.4483  0.1909 -0.4610
   87ETHOX   C153983  16.441  12.079  16.173  0.5572  1.1719 -0.2112
   87ETHOX  H1153984  16.403  12.177  16.137  1.3983  0.5321 -3.1345
   87ETHOX  H1353985  16.505  12.043  16.089 -2.0353 -1.2357 -1.3041
   87ETHOX   C253986  16.314  11.980  16.186  0.2554 -0.4732  0.2002
   87ETHOX  H2153987  16.252  11.997  16.096 -1.0769 -0.6103  1.0709
   87ETHOX  H2353988  16.259  12.022  16.273 -0.2988 -2.4671  0.8707
   88ETHOX   O153989  16.348  11.843  16.206  0.0996  0.4849  0.2311
   88ETHOX   C153990  16.233  11.773  16.248  0.0549  0.3455  0.2154
   88ETHOX  H1153991  16.152  11.774  16.172  0.1569 -1.3915  0.0585
   88ETHOX  H1353992  16.197  11.820  16.342  2.0380  0.1350  1.1450
   88ETHOX   C253993  16.271  11.629  16.273  0.3365  0.4119  0.5905
   88ETHOX  H2153994  16.195  11.575  16.332  1.6580 -1.5520  0.5967
   88ETHOX  H2353995  16.364  11.637  16.334  1.6715  0.0379 -1.2895
   89ETHOX   O153996  16.288  11.560  16.146 -0.1732  0.0137  0.0889
   89ETHOX   C153997  16.404  11.471  16.144 -0.4902  0.3041 -0.0535
   89ETHOX  H1153998  16.489  11.516  16.200  0.2084 -0.4878 -0.4506
   89ETHOX  H1353999  16.382  11.373  16.192 -2.5782 -0.7662 -2.9096
   89ETHOX   C254000  16.434  11.452  15.996 -0.0041  0.2749 -0.5338
   89ETHOX  H2154001  16.541  11.424  15.982  0.9163  2.3328  1.7385
   89ETHOX  H2354002  16.408  11.544  15.939  0.0751  1.5500  1.4084
   90ETHOX   O154003  16.364  11.346  15.933 -0.3275 -0.1182 -0.8940
   90ETHOX   C154004  16.396  11.216  15.987 -0.1672 -0.9100  0.5466
   90ETHOX  H1154005  16.505  11.215  16.008 -0.2608 -0.8227  1.0328
   90ETHOX  H1354006  16.352  11.209  16.089 -2.5917 -0.5791 -0.4146
   90ETHOX   C254007  16.352  11.110  15.882  0.9709 -0.1153  0.3040
   90ETHOX  H2154008  16.388  11.010  15.915 -0.8519 -0.7101  0.6032
   90ETHOX  H2354009  16.397  11.130  15.782 -0.4941  1.5582 -0.0626
   91ETHOX   O154010  16.210  11.102  15.879  0.7407 -0.0465 -0.7218
   91ETHOX   C154011  16.157  11.028  15.774  0.1540  0.3877  0.1041
   91ETHOX  H1154012  16.137  11.081  15.679  0.8162 -3.9472 -2.7384
   91ETHOX  H1354013  16.233  10.954  15.742 -0.3389  0.3469 -1.0218
   91ETHOX   C254014  16.025  10.960  15.821 -0.2040  0.0003  0.4203
   91ETHOX  H2154015  16.037  10.901  15.914  1.2423  0.2475  0.4202
   91ETHOX  H2354016  15.995  10.894  15.737 -0.1625 -0.3766  0.6992
   92ETHOX   O154017  15.930  11.060  15.825 -0.0168 -0.3456 -0.0618
   92ETHOX   C154018  15.809  11.028  15.898  0.5200  0.2940  0.2795
   92ETHOX  H1154019  15.757  10.942  15.850 -0.2398  2.1949 -2.5424
   92ETHOX  H1354020  15.849  11.001  15.998 -0.1647 -0.7392  0.2915
   92ETHOX   C254021  15.706  11.142  15.924 -0.5262  0.3976  0.0957
   92ETHOX  H2154022  15.760  11.225  15.973 -1.0182  1.4399 -1.0506
   92ETHOX  H2354023  15.632  11.096  15.994 -0.4222 -1.7231 -1.0996
   93ETHOX   O154024  15.635  11.195  15.808 -0.1380  0.3549  0.5166
   93ETHOX   C154025  15.551  11.296  15.844 -0.1162 -0.3384 -0.4368
   93ETHOX  H1154026  15.593  11.360  15.925  1.6507  0.2574 -1.7690
   93ETHOX  H1354027  15.460  11.261  15.898 -1.3579  3.9964  0.7467
   93ETHOX   C254028  15.497  11.377  15.717 -0.6828  0.4234  0.1277
   93ETHOX  H2154029  15.401  11.422  15.750 -1.7002 -0.2426 -1.7895
   93ETHOX  H2354030  15.468  11.299  15.643 -1.0274 -0.9783  1.6696
   94ETHOX   O154031  15.593  11.473  15.675  0.4773  0.4145 -0.3455
   94ETHOX   C154032  15.533  11.556  15.578 -0.5725 -0.6787  0.1439
   94ETHOX  H1154033  15.500  11.495  15.491 -0.9797  1.4443 -1.2665
   94ETHOX  H1354034  15.437  11.593  15.621 -1.7091 -2.0244 -1.1114
   94ETHOX   C254035  15.609  11.680  15.514  0.4670 -0.3685 -0.0251
   94ETHOX  H2154036  15.685  11.641  15.444 -0.1113 -1.1937 -0.2032
   94ETHOX  H2354037  15.654  11.746  15.592  0.5836 -2.3899  1.7033
   95ETHOX   O154038  15.504  11.739  15.434 -0.1421 -0.0236  0.9324
   95ETHOX   C154039  15.549  11.802  15.323  0.3820 -0.0209  0.5017
   95ETHOX  H1154040  15.616  11.735  15.265 -0.6085  0.0037 -0.7306
   95ETHOX  H1354041  15.604  11.891  15.361  0.5034  0.0374  0.1929
   95ETHOX   C254042  15.436  11.847  15.223  0.2392  0.5291  0.1772
   95ETHOX  H2154043  15.487  11.909  15.146  2.6145 -1.7448 -0.2271
   95ETHOX  H2354044  15.360  11.905  15.280  0.2031 -0.4279  1.1254
   96ETHOX   O154045  15.376  11.733  15.160 -0.1998  0.2693 -0.0841
   96ETHOX   C154046  15.302  11.769  15.041 -0.0525 -0.1502 -1.2138
   96ETHOX  H1154047  15.219  11.830  15.083 -2.0994 -2.9637 -0.9389
   96ETHOX  H1354048  15.365  11.843  14.987  1.9424  2.0647  3.4623
   96ETHOX   C254049  15.262  11.647  14.959  0.6647  0.3619  0.6887
   96ETHOX  H2154050  15.223  11.575  15.034  2.7671  0.5680  2.0949
   96ETHOX  H2354051  15.346  11.591  14.912 -1.9427 -2.4414 -0.9515
   97ETHOX   O154052  15.171  11.692  14.856  0.1025 -0.0370  0.7437
   97ETHOX   C154053  15.081  11.595  14.813  0.0967 -0.1639 -0.0499
   97ETHOX  H1154054  15.025  11.557  14.901 -2.8885  0.7598 -1.4410
   97ETHOX  H1354055  15.137  11.503  14.786 -0.5450 -0.7321  0.5158
   97ETHOX   C254056  14.985  11.634  14.700 -0.1432  0.7206  0.0128
   97ETHOX  H2154057  14.928  11.544  14.669  0.8627 -1.8248  4.5974
   97ETHOX  H2354058  15.049  11.671  14.617  2.0300 -1.9973  0.3252
   98ETHOX   O154059  14.892  11.731  14.748 -0.3090 -0.9119  0.6757
   98ETHOX   C154060  14.776  11.739  14.669  0.0260  0.3355 -0.5838
   98ETHOX  H1154061  14.727  11.838  14.683 -1.0538 -0.1897 -0.5166
   98ETHOX  H1354062  14.808  11.727  14.563  3.6783  1.7625  0.2033
   98ETHOX   C254063  14.673  11.628  14.705  0.1993  0.2311  0.0671
   98ETHOX  H2154064  14.721  11.527  14.702  1.1231  0.5527  2.1748
   98ETHOX  H2354065  14.598  11.633  14.623  0.2507 -0.2556 -0.0137
   99ETHOX   O154066  14.608  11.641  14.831  0.2149  0.1349 -0.1649
   99ETHOX   C154067  14.701  11.608  14.931  0.9790 -0.3131  0.4034
   99ETHOX  H1154068  14.780  11.686  14.944 -1.1334  1.8866  0.6697
   99ETHOX  H1354069  14.743  11.507  14.913 -1.4170 -1.1686 -0.7555
   99ETHOX   C254070  14.632  11.576  15.066 -0.0782 -0.4170 -0.2377
   99ETHOX  H2154071  14.575  11.665  15.101  3.6615  1.3165  2.0362
   99ETHOX  H2354072  14.708  11.548  15.142 -1.4814  1.5665  2.0695
  100ETHOX   O154073  14.540  11.469  15.049 -0.1678 -0.5604 -0.2904
  100ETHOX   C154074  14.533  11.393  15.171 -0.3396  0.5853  0.0586
  100ETHOX  H1154075  14.627  11.338  15.189 -1.0309 -0.6890 -0.1285
  100ETHOX  H1354076  14.509  11.444  15.267 -1.8379  1.0611 -0.5310
  100ETHOX   C254077  14.414  11.289  15.166  0.0542 -0.5044  0.7449
  100ETHOX  H2154078  14.416  11.234  15.262 -2.4366 -2.6089 -0.2717
  100ETHOX  H2354079  14.423  11.219  15.080  0.2176 -0.3780  0.6604
  101PROXS   O154080  14.283  11.345  15.180 -0.0400 -0.6141 -0.5004
  101PROXS   C154081  14.215  11.355  15.063 -0.5096  0.7173  0.6055
  101PROXS  H1154082  14.278  11.428  15.007  0.5468  0.2761  1.1901
  101PROXS  H1354083  14.218  11.256  15.012 -1.1091  1.1439 -0.2800
  101PROXS   C254084  14.072  11.412  15.066  0.0503 -0.1382  0.0285
  101PROXS  H2154085  14.068  11.518  15.099  0.2211  0.6616 -2.3069
  101PROXS   C354086  13.968  11.334  15.153  0.0673  0.3813 -0.3851
  101PROXS  H3154087  13.877  11.397  15.159  0.0166  0.1542  2.1185
  101PROXS  H3254088  13.950  11.235  15.106  1.9738 -1.6929  2.8949
  101PROXS  H3354089  14.001  11.306  15.255 -0.2571  2.7644  0.4260
  102PROXS   O154090  14.030  11.411  14.929  0.2026  0.7946  0.7570
  102PROXS   C154091  13.940  11.523  14.906  0.3073 -0.1297  0.7147
  102PROXS  H1154092  13.856  11.532  14.979 -0.3015 -1.3360  0.2075
  102PROXS  H1354093  13.998  11.617  14.904  1.3839 -0.7926 -0.1254
  102PROXS   C254094  13.875  11.506  14.767 -0.2810  0.0905  0.1745
  102PROXS  H2154095  13.806  11.420  14.764 -1.6481  1.1677 -1.6200
  102PROXS   C354096  13.986  11.493  14.657  0.7514  0.1420 -0.0131
  102PROXS  H3154097  14.044  11.587  14.653 -2.6610  2.4477 -0.1132
  102PROXS  H3254098  14.070  11.423  14.677 -0.1109 -1.8713 -2.8126
  102PROXS  H3354099  13.953  11.481  14.551  1.1480 -1.1425 -0.0103
  103PROXR   O154100  13.809  11.627  14.742  0.2291  0.3316  0.0168
  103PROXR   C154101  13.720  11.625  14.632  0.8453  0.4073  0.6290
  103PROXR  H1154102  13.779  11.629  14.538  1.4148  0.0555  0.9563
  103PROXR  H1354103  13.652  11.537  14.627  1.0785  0.2884 -1.3682
  103PROXR   C254104  13.628  11.747  14.644 -0.3703  0.1052 -0.6364
  103PROXR  H2154105  13.673  11.846  14.669  1.0598 -0.7008  0.1231
  103PROXR   C354106  13.524  11.726  14.758  0.7054  0.7462 -0.8224
  103PROXR  H3154107  13.595  11.726  14.844 -0.4662  3.3072  0.2304
  103PROXR  H3254108  13.458  11.814  14.764  0.1243  0.3069 -0.6751
  103PROXR  H3354109  13.466  11.631  14.755  1.7028  0.0744 -0.0056
  104PROXS   O154110  13.554  11.766  14.522 -0.4894  0.1901  0.0109
  104PROXS   C154111  13.491  11.891  14.514 -0.1173 -0.4659 -0.0943
  104PROXS  H1154112  13.416  11.897  14.596 -1.2521 -0.1941 -1.1361
  104PROXS  H1354113  13.570  11.969  14.522 -0.4967 -0.1448  0.6217
  104PROXS   C254114  13.418  11.908  14.384 -0.1138 -0.4372 -0.0740
  104PROXS  H2154115  13.322  11.852  14.392 -0.6528  0.3149 -1.0918
  104PROXS   C354116  13.482  11.859  14.259  0.3784  0.0863  0.5331
  104PROXS  H3154117  13.583  11.902  14.241 -0.5392  2.7762  1.3333
  104PROXS  H3254118  13.484  11.748  14.263 -0.4386  0.0671  4.7137
  104PROXS  H3354119  13.413  11.887  14.176 -0.2315 -0.7965  0.7329
  105PROXS   O154120  13.382  12.043  14.369 -0.6281 -0.3933 -0.9145
  105PROXS   C154121  13.246  12.072  14.398 -0.0190 -0.3808  0.0107
  105PROXS  H1154122  13.175  12.002  14.348 -0.5591 -0.6549  1.1327
  105PROXS  H1354123  13.233  12.071  14.508 -0.5410  0.5439 -0.0309
  105PROXS   C254124  13.195  12.212  14.343 -0.3096  0.1916 -0.3687
  105PROXS  H2154125  13.284  12.279  14.345  0.5905 -0.8434 -2.5783
  105PROXS   C354126  13.090  12.267  14.433 -0.2472 -0.2802 -0.3808
  105PROXS  H3154127  13.076  12.373  14.404 -1.3484 -0.2491  0.2231
  105PROXS  H3254128  12.996  12.208  14.422 -1.5011  1.4260  0.8267
  105PROXS  H3354129  13.130  12.265  14.536  1.2862 -1.1605 -0.9637
  106PROXS   O154130  13.146  12.190  14.207 -0.0533 -0.0921  0.8009
  106PROXS   C154131  13.092  12.309  14.141 -0.6958  0.0822  0.2550
  106PROXS  H1154132  12.988  12.324  14.177 -0.4706  0.0615  0.9326
  106PROXS  H1354133  13.157  12.396  14.163 -0.3413  0.2183 -1.2145
  106PROXS   C254134  13.092  12.276  13.992  0.7432  0.0075  0.7337
  106PROXS  H2154135  13.034  12.183  13.977 -0.9360  0.9905  0.8230
  106PROXS   C354136  13.241  12.259  13.960 -0.1562 -0.2446 -0.6602
  106PROXS  H3154137  13.263  12.247  13.852  0.8142 -0.4022 -0.4591
  106PROXS  H3254138  13.312  12.338  13.995  0.0637 -0.6237 -0.2322
  106PROXS  H3354139  13.278  12.165  14.007  3.5366  1.2789 -0.1669
  107PROXR   O154140  13.045  12.391  13.918  0.4272 -0.3423 -0.0615
  107PROXR   C154141  12.906  12.416  13.945 -0.0219 -0.1702  0.1861
  107PROXR  H1154142  12.854  12.319  13.957 -1.2219  0.3814 -0.4481
  107PROXR  H1354143  12.905  12.474  14.040 -0.2595 -0.6265  0.4683
  107PROXR   C254144  12.835  12.508  13.840 -0.5693 -0.2666 -0.7177
  107PROXR  H2154145  12.828  12.452  13.745  0.7197  0.5254 -1.2895
  107PROXR   C354146  12.897  12.648  13.835 -0.4801  0.1082  0.2868
  107PROXR  H3154147  12.891  12.704  13.930  0.0933 -2.3027  1.8142
  107PROXR  H3254148  13.002  12.633  13.803 -0.2718  1.7791  0.0836
  107PROXR  H3354149  12.853  12.703  13.749 -0.0340 -0.0612 -0.0561
  108PROXS   O154150  12.703  12.544  13.890  0.3404 -0.2131  0.5643
  108PROXS   C154151  12.604  12.442  13.873  0.0480 -0.2160 -0.1670
  108PROXS  H1154152  12.606  12.412  13.766  1.0557  0.3299 -0.3166
  108PROXS  H1354153  12.620  12.352  13.936 -0.5748  0.1810  0.5799
  108PROXS   C254154  12.466  12.514  13.903 -0.0585  0.9358  0.7429
  108PROXS  H2154155  12.461  12.571  13.998  2.2462 -1.5881  2.5116
  108PROXS   C354156  12.361  12.410  13.915 -0.1763  0.0072 -0.2078
  108PROXS  H3154157  12.381  12.346  14.003 -2.9010  1.9571  1.9863
  108PROXS  H3254158  12.261  12.453  13.939 -0.1119  0.2658 -0.3933
  108PROXS  H3354159  12.351  12.354  13.820  0.2380 -0.5299  0.0639
  109PROXS   O154160  12.414  12.584  13.786  0.4816 -0.3174  0.1299
  109PROXS   C154161  12.454  12.719  13.794 -0.6234 -0.8087 -0.4423
  109PROXS  H1154162  12.381  12.767  13.863 -1.0252  1.5230 -2.3492
  109PROXS  H1354163  12.561  12.729  13.823 -0.0879  0.7293 -2.6783
  109PROXS   C254164  12.439  12.784  13.664  0.1806 -0.6105  0.4556
  109PROXS  H2154165  12.333  12.761  13.640 -0.0272  0.6930  0.0493
  109PROXS   C354166  12.529  12.734  13.549 -0.1621 -0.8911  0.0891
  109PROXS  H3154167  12.637  12.743  13.571  0.4692  0.3453 -3.0276
  109PROXS  H3254168  12.498  12.628  13.534  0.1272 -0.8912 -0.5540
  109PROXS  H3354169  12.530  12.782  13.449  0.3945 -0.2869  0.3826
  110PROXR   O154170  12.466  12.926  13.673  0.3605  0.0257 -0.3768
  110PROXR   C154171  12.349  12.999  13.658  0.6364 -0.4092  0.4527
  110PROXR  H1154172  12.291  12.957  13.573 -2.0138  1.4116  1.2320
  110PROXR  H1354173  12.283  12.988  13.747 -0.8902 -1.6218 -0.7581
  110PROXR   C254174  12.381  13.144  13.629 -0.0245 -0.2885  0.5957
  110PROXR  H2154175  12.470  13.175  13.688 -0.8224  1.1032  1.1078
  110PROXR   C354176  12.256  13.236  13.663 -0.0793 -0.5589  0.1009
  110PROXR  H3154177  12.237  13.229  13.773  2.5145 -0.4165  0.6226
  110PROXR  H3254178  12.283  13.343  13.654 -0.1201 -0.3748  1.8493
  110PROXR  H3354179  12.162  13.211  13.609 -0.7193 -0.1086  0.9679
  111PROXS   O154180  12.418  13.160  13.494  0.1238 -0.4344  0.5845
  111PROXS   C154181  12.550  13.127  13.455 -0.4828 -0.4517 -0.4967
  111PROXS  H1154182  12.620  13.174  13.527  0.4792 -2.5548  0.0252
  111PROXS  H1354183  12.566  13.017  13.468 -0.3779 -0.2808  0.9712
  111PROXS   C254184  12.582  13.163  13.315  0.5220 -0.0016  0.0041
  111PROXS  H2154185  12.602  13.271  13.300 -2.0351  0.7095  1.1884
  111PROXS   C354186  12.461  13.132  13.218  0.6742 -0.0103 -0.0705
  111PROXS  H3154187  12.486  13.177  13.120 -0.7828 -0.1939 -0.5519
  111PROXS  H3254188  12.438  13.024  13.204 -1.2948  0.3780 -0.0040
  111PROXS  H3354189  12.366  13.183  13.244  1.2113  0.5959  0.7621
  112PROXR   O154190  12.689  13.083  13.273 -0.1015 -0.1954  0.4335
  112PROXR   C154191  12.819  13.129  13.310  1.1508 -0.2737 -0.2808
  112PROXR  H1154192  12.855  13.200  13.232  0.2338 -0.8241 -1.2377
  112PROXR  H1354193  12.807  13.164  13.415 -1.5023 -0.4964 -0.4444
  112PROXR   C254194  12.914  13.007  13.323  0.1829 -0.3132  0.2535
  112PROXR  H2154195  12.920  12.963  13.221 -2.6765  1.1618 -0.6601
  112PROXR   C354196  12.860  12.895  13.419 -0.6909 -0.0727  0.9240
  112PROXR  H3154197  12.856  12.915  13.529  1.1544 -0.8709  1.1783
  112PROXR  H3254198  12.761  12.865  13.379 -0.8753  1.2633  0.3164
  112PROXR  H3354199  12.926  12.806  13.417 -0.5940 -0.0641  2.2545
  113PROXS   O154200  13.043  13.057  13.372 -0.1982  0.2284 -0.2022
  113PROXS   C154201  13.152  12.972  13.350 -0.1700 -0.0909  0.2458
  113PROXS  H1154202  13.140  12.877  13.407  2.2200  0.0711  1.1549
  113PROXS  H1354203  13.175  12.946  13.245  2.9928  1.2095  0.5037
  113PROXS   C254204  13.279  13.048  13.382  0.4605 -0.2686 -0.2246
  113PROXS  H2154205  13.272  13.108  13.476 -2.1035  0.9139 -1.0738
  113PROXS   C354206  13.328  13.119  13.259 -0.1951  0.8174  0.7555
  113PROXS  H3154207  13.245  13.178  13.213 -0.1374 -1.3598 -2.4632
  113PROXS  H3254208  13.418  13.180  13.285  1.1489  1.1095 -3.7488
  113PROXS  H3354209  13.356  13.047  13.180 -1.1180 -0.3900  1.4950
  114PROXR   O154210  13.388  12.965  13.401  0.2731  0.0262  0.9085
  114PROXR   C154211  13.389  12.892  13.520  0.1361 -0.4736 -0.2587
  114PROXR  H1154212  13.284  12.887  13.557  0.5432  0.1519  1.0437
  114PROXR  H1354213  13.442  12.794  13.513 -0.5071 -0.7490 -1.4504
  114PROXR   C254214  13.480  12.976  13.620  0.4723  0.5697 -0.9378
  114PROXR  H2154215  13.422  13.065  13.651  0.8169  0.5814 -0.3078
  114PROXR   C354216  13.619  13.004  13.559 -0.1050 -0.2973  0.1675
  114PROXR  H3154217  13.607  13.050  13.458  1.4393  0.0104  0.1053
  114PROXR  H3254218  13.675  13.074  13.625 -0.3182 -0.3984  0.4588
  114PROXR  H3354219  13.677  12.910  13.558  1.5161  0.5335  3.2024
  115PROXR   O154220  13.485  12.896  13.734  0.3945  0.0367 -0.5483
  115PROXR   C154221  13.564  12.943  13.842  0.1816  0.5383 -0.1606
  115PROXR  H1154222  13.555  12.874  13.928 -1.0137  0.5796 -0.2269
  115PROXR  H1354223  13.668  12.925  13.809  0.4495 -2.1977  1.8444
  115PROXR   C254224  13.545  13.088  13.889 -0.4566  0.4072  0.6205
  115PROXR  H2154225  13.531  13.155  13.801 -1.0505 -0.3075  0.1607
  115PROXR   C354226  13.664  13.132  13.975 -0.2034  0.9692 -0.3216
  115PROXR  H3154227  13.759  13.118  13.919 -1.0469 -1.2766 -1.2758
  115PROXR  H3254228  13.657  13.236  14.014 -2.6119 -0.4738  3.6763
  115PROXR  H3354229  13.666  13.070  14.067  0.2548  2.0070  0.3789
  116PROXS   O154230  13.425  13.093  13.973 -0.4361 -0.3047 -0.0706
  116PROXS   C154231  13.301  13.078  13.903  0.0314 -0.3120  0.1791
  116PROXS  H1154232  13.281  13.163  13.835  0.9338 -0.2401 -0.0122
  116PROXS  H1354233  13.296  12.990  13.836  2.5051  0.4628 -1.1309
  116PROXS   C254234  13.195  13.065  14.015  0.1324  0.8353  0.0042
  116PROXS  H2154235  13.182  13.165  14.062 -1.2159  0.2192  0.9884
  116PROXS   C354236  13.221  12.962  14.121  1.0496 -0.0632 -0.0879
  116PROXS  H3154237  13.305  12.988  14.189  0.5421  1.3227  0.0469
  116PROXS  H3254238  13.134  12.935  14.185  1.7655 -0.5466  0.7033
  116PROXS  H3354239  13.242  12.865  14.071 -0.8396 -1.8814  2.3703
  117PROXS   O154240  13.070  13.036  13.947  0.1183 -0.1782 -0.2992
  117PROXS   C154241  12.957  13.030  14.036  0.1761  0.3988  0.3984
  117PROXS  H1154242  12.946  12.945  14.106 -1.5280 -0.4712 -0.8586
  117PROXS  H1354243  12.957  13.123  14.096  1.9356  1.0694 -0.5507
  117PROXS   C254244  12.826  13.026  13.948  0.2804 -0.0852 -0.1345
  117PROXS  H2154245  12.821  12.924  13.904 -1.4653 -0.9010  1.7940
  117PROXS   C354246  12.819  13.134  13.842 -0.4540  0.2263  0.5347
  117PROXS  H3154247  12.830  13.232  13.893  1.1045  0.1381  0.4135
  117PROXS  H3254248  12.903  13.126  13.768  0.7625  0.0455  1.8898
  117PROXS  H3354249  12.720  13.128  13.791  1.6445 -0.0730 -4.0949
  118PROXR   O154250  12.721  13.051  14.036  0.2317  0.5891 -0.4443
  118PROXR   C154251  12.597  13.001  13.979 -0.0256  0.3601  0.5508
  118PROXR  H1154252  12.542  13.089  13.942 -0.1051 -0.0708 -0.3811
  118PROXR  H1354253  12.625  12.913  13.916  2.6374  0.7794  1.0298
  118PROXR   C254254  12.510  12.949  14.092 -0.3380  0.5015 -0.0823
  118PROXR  H2154255  12.410  12.932  14.046 -0.6723 -0.4435  0.9480
  118PROXR   C354256  12.488  13.042  14.213 -0.0754 -0.5135 -0.4281
  118PROXR  H3154257  12.413  13.121  14.195  0.5335  0.6964  1.8776
  118PROXR  H3254258  12.458  12.989  14.306  0.4763  0.9383  0.6049
  118PROXR  H3354259  12.586  13.089  14.236  0.7085 -1.5624 -1.4957
  119PROXR   O154260  12.538  12.815  14.136  0.5427 -0.0592  0.0708
  119PROXR   C154261  12.666  12.804  14.207  0.4344  0.8089  0.7864
  119PROXR  H1154262  12.744  12.788  14.130 -2.1408 -1.3608 -1.6148
  119PROXR  H1354263  12.693  12.893  14.268 -2.8436  1.0642  2.0822
  119PROXR   C254264  12.662  12.683  14.293 -0.0039 -0.2589 -0.2450
  119PROXR  H2154265  12.655  12.593  14.228  2.5857 -0.2688 -0.6094
  119PROXR   C354266  12.547  12.688  14.392  0.1966  0.1506  0.1369
  119PROXR  H3154267  12.461  12.701  14.324  0.0932 -2.0327 -0.2323
  119PROXR  H3254268  12.528  12.590  14.442 -0.7420  0.0676 -0.3677
  119PROXR  H3354269  12.535  12.773  14.462 -3.9539  0.5097 -0.7676
  120PROXS   O154270  12.770  12.682  14.385  0.1574 -0.4959  0.2113
  120PROXS   C154271  12.884  12.635  14.323 -0.2126 -0.6284  0.2448
  120PROXS  H1154272  12.874  12.525  14.307  1.2445 -0.7448  0.0056
  120PROXS  H1354273  12.912  12.678  14.225 -0.3125 -1.5167 -0.1897
  120PROXS   C254274  13.006  12.651  14.415 -0.1833 -0.6861 -0.0091
  120PROXS  H2154275  12.999  12.573  14.494  0.1670 -0.8991 -0.1855
  120PROXS   C354276  13.008  12.794  14.473  0.9187  0.2130  0.2144
  120PROXS  H3154277  12.907  12.816  14.513  0.7709  0.9628 -0.5402
  120PROXS  H3254278  13.082  12.813  14.555  0.7710 -0.6941  0.5702
  120PROXS  H3354279  13.026  12.871  14.395 -0.8215  0.4340  0.0006
  121PROXS   O154280  13.130  12.633  14.343 -0.1653 -0.4720  0.2273
  121PROXS   C154281  13.248  12.620  14.417  0.2405 -0.3673 -0.0416
  121PROXS  H1154282  13.252  12.692  14.502  0.9988 -1.6101  1.0134
  121PROXS  H1354283  13.256  12.517  14.457  1.5829 -0.9736 -1.7563
  121PROXS   C254284  13.381  12.649  14.344 -0.2776  1.0868  0.4774
  121PROXS  H2154285  13.359  12.741  14.286  0.2917  1.5856  1.0246
  121PROXS   C354286  13.432  12.543  14.241 -0.4134  0.5332  1.1882
  121PROXS  H3154287  13.364  12.536  14.154 -2.2237  0.4329  2.5322
  121PROXS  H3254288  13.534  12.570  14.208 -0.4577  0.7396  1.2144
  121PROXS  H3354289  13.445  12.446  14.294  1.9816  1.0224  1.6308
  122PROXS   O154290  13.485  12.680  14.438  0.1918  0.1328 -0.9076
  122PROXS   C154291  13.568  12.783  14.395 -0.1398  0.0527 -0.2995
  122PROXS  H1154292  13.625  12.754  14.305  0.6208  0.0478  0.1728
  122PROXS  H1354293  13.516  12.879  14.375  3.1756  2.1357  0.3483
  122PROXS   C254294  13.656  12.833  14.514 -0.0814 -0.4878  0.6550
  122PROXS  H2154295  13.583  12.874  14.586 -0.7435  1.5499 -1.0757
  122PROXS   C354296  13.758  12.944  14.462 -0.3840  0.1804  0.0038
  122PROXS  H3154297  13.816  12.898  14.380  0.1605  0.5242  0.1949
  122PROXS  H3254298  13.702  13.027  14.413  0.0367  0.3577 -0.1811
  122PROXS  H3354299  13.824  12.989  14.540 -0.1792  1.1967 -0.7250
  123PROXS   O154300  13.728  12.730  14.568 -0.3489 -0.0762 -0.7356
  123PROXS   C154301  13.790  12.765  14.690  0.6502 -0.3911 -0.5837
  123PROXS  H1154302  13.880  12.826  14.668 -0.2736  0.1473 -3.3128
  123PROXS  H1354303  13.728  12.831  14.755  0.9208  0.6810 -1.3829
  123PROXS   C254304  13.851  12.647  14.767  0.0338  0.7776 -0.0956
  123PROXS  H2154305  13.913  12.589  14.696 -0.0457 -0.1523  0.5659
  123PROXS   C354306  13.745  12.557  14.836 -0.0632  0.3781 -0.5216
  123PROXS  H3154307  13.777  12.464  14.887 -0.7369  0.5174  0.1654
  123PROXS  H3254308  13.689  12.620  14.909  0.0307  0.1699 -0.2685
  123PROXS  H3354309  13.669  12.541  14.756 -1.9150  0.0239  1.2408
  124PROXR   O154310  13.945  12.697  14.866  0.2446  0.1896  0.1797
  124PROXR   C154311  14.082  12.704  14.830 -0.2215  0.1141 -0.3894
  124PROXR  H1154312  14.097  12.739  14.726  0.3228  0.2167 -0.2777
  124PROXR  H1354313  14.134  12.777  14.896  2.1089 -0.5770 -1.3887
  124PROXR   C254314  14.142  12.564  14.849  0.8246 -0.3833  1.1977
  124PROXR  H2154315  14.111  12.501  14.763  4.5438 -0.3786 -0.3162
  124PROXR   C354316  14.109  12.506  14.982 -0.2948 -0.7879  0.0110
  124PROXR  H3154317  14.124  12.397  14.998  1.7963 -0.1918  2.7433
  124PROXR  H3254318  14.159  12.566  15.061 -1.5051 -0.0541  0.2491
  124PROXR  H3354319  14.002  12.520  15.006  0.2249  1.7273  1.1275
  125PROXS   O154320  14.278  12.576  14.839  0.1357 -0.0172 -0.1971
  125PROXS   C154321  14.356  12.458  14.804  0.7894  0.1882  0.3057
  125PROXS  H1154322  14.461  12.483  14.776  1.6714 -3.2496  0.0113
  125PROXS  H1354323  14.355  12.390  14.892 -1.5940 -0.8450 -0.4438
  125PROXS   C254324  14.308  12.389  14.672  0.0445 -0.7182 -0.4397
  125PROXS  H2154325  14.206  12.349  14.690  0.4561 -1.0409  1.4542
  125PROXS   C354326  14.402  12.278  14.622  0.2760  0.6664 -0.6006
  125PROXS  H3154327  14.494  12.332  14.589 -0.6153  0.6637 -3.2619
  125PROXS  H3254328  14.419  12.202  14.701  0.6793  1.0997 -0.2583
  125PROXS  H3354329  14.354  12.224  14.538 -1.0684 -0.3364  0.7562
  126PROXS   O154330  14.306  12.491  14.570 -0.9053 -0.1700  0.0993
  126PROXS   C154331  14.223  12.451  14.461 -0.2532 -0.3700 -0.3010
  126PROXS  H1154332  14.286  12.387  14.396  1.2490  1.6198 -0.9022
  126PROXS  H1354333  14.133  12.392  14.489  0.3031 -0.7621  0.7320
  126PROXS   C254334  14.182  12.566  14.365 -0.0067  0.0031  0.0146
  126PROXS  H2154335  14.273  12.613  14.323 -0.1687  2.0887  1.8088
  126PROXS   C354336  14.099  12.675  14.436  0.4704  0.1900  0.0759
  126PROXS  H3154337  14.054  12.752  14.370 -0.9274 -0.7844 -0.1401
  126PROXS  H3254338  14.012  12.623  14.482  0.0429  1.1987  0.4259
  126PROXS  H3354339  14.157  12.712  14.523  0.4064  0.1984  0.1142
  127PROXR   O154340  14.107  12.512  14.254 -0.1512  0.3756  0.3078
  127PROXR   C154341  14.091  12.604  14.143 -0.2693 -0.1968 -0.0630
  127PROXR  H1154342  13.982  12.625  14.146  0.2183  3.0250 -1.0346
  127PROXR  H1354343  14.145  12.701  14.148  0.5461 -0.5669 -1.2838
  127PROXR   C254344  14.139  12.541  14.014  0.0398  0.8631 -0.1893
  127PROXR  H2154345  14.097  12.438  14.008  1.4549  0.3003 -0.8213
  127PROXR   C354346  14.292  12.533  14.002 -0.0252 -1.2464 -0.0901
  127PROXR  H3154347  14.324  12.639  13.996  0.5889 -1.3767  0.6760
  127PROXR  H3254348  14.332  12.499  14.100  0.3603  2.2036  1.0882
  127PROXR  H3354349  14.335  12.473  13.919  0.9217  2.1260 -2.2076
  128PROXR   O154350  14.085  12.614  13.902 -0.3956 -0.6871  0.1052
  128PROXR   C154351  13.953  12.574  13.863 -0.1173 -0.2182 -0.3830
  128PROXR  H1154352  13.959  12.463  13.854  0.2611 -0.3466  1.1474
  128PROXR  H1354353  13.881  12.592  13.945 -0.2087  0.2669 -0.5680
  128PROXR   C254354  13.906  12.652  13.736 -0.3865 -1.2286 -0.3925
  128PROXR  H2154355  13.975  12.636  13.650 -1.5007  0.4883 -1.6701
  128PROXR   C354356  13.922  12.807  13.752  0.0861 -0.3534  0.4244
  128PROXR  H3154357  13.879  12.866  13.668 -0.0898 -1.0512  0.0170
  128PROXR  H3254358  13.874  12.852  13.841 -0.8927 -0.5271 -0.0053
  128PROXR  H3354359  14.031  12.830  13.753 -0.3391  2.2540 -1.4655
  129PROXS   O154360  13.770  12.623  13.712  0.2179 -0.0041 -0.3216
  129PROXS   C154361  13.752  12.490  13.671 -0.2676 -0.8581 -0.3250
  129PROXS  H1154362  13.831  12.455  13.602 -0.3810 -0.0512 -0.8703
  129PROXS  H1354363  13.741  12.422  13.759 -1.2893 -0.3373 -0.0246
  129PROXS   C254364  13.615  12.482  13.595 -0.3151  0.2936 -0.8989
  129PROXS  H2154365  13.603  12.570  13.528 -0.3075  0.2347 -0.9790
  129PROXS   C354366  13.495  12.468  13.696 -0.5277  0.3459  0.2165
  129PROXS  H3154367  13.501  12.538  13.782 -0.2714  0.4996  0.0750
  129PROXS  H3254368  13.405  12.486  13.633 -0.6140 -1.0479 -0.0859
  129PROXS  H3354369  13.494  12.365  13.739 -0.3896  0.0901 -0.3823
  130PROXS   O154370  13.613  12.361  13.517 -0.1284 -0.0339 -0.6842
  130PROXS   C154371  13.509  12.355  13.424 -0.6067 -0.4742  0.3878
  130PROXS  H1154372  13.416  12.327  13.478 -0.1311 -0.9203  0.9838
  130PROXS  H1354373  13.498  12.447  13.362  0.8657  0.9733  2.1670
  130PROXS   C254374  13.552  12.238  13.323  0.3046  0.3417  0.2759
  130PROXS  H2154375  13.566  12.145  13.383  0.1673 -0.1617 -0.4491
  130PROXS   C354376  13.691  12.268  13.244 -0.2010 -0.6575  0.9940
  130PROXS  H3154377  13.777  12.276  13.315  0.9809 -0.2000 -0.4384
  130PROXS  H3254378  13.710  12.187  13.170 -1.0115 -0.7450  0.8754
  130PROXS  H3354379  13.686  12.369  13.199  2.3500 -0.5419  0.8019
  131PROXS   O154380  13.441  12.212  13.237 -0.0633  0.1766 -0.3497
  131PROXS   C154381  13.454  12.073  13.189  0.6715  0.5823 -0.2418
  131PROXS  H1154382  13.548  12.048  13.134  1.5742  0.5898  1.2613
  131PROXS  H1354383  13.431  12.009  13.277 -0.2760 -1.1285 -1.6688
  131PROXS   C254384  13.334  12.025  13.101  0.1490  0.0183  0.1570
  131PROXS  H2154385  13.238  12.067  13.139  0.6509  0.5334  0.8749
  131PROXS   C354386  13.314  11.873  13.098  0.5161  0.2538  0.6306
  131PROXS  H3154387  13.400  11.816  13.054  0.1978 -0.0317  0.3740
  131PROXS  H3254388  13.293  11.843  13.203  1.3871 -0.8500  0.5107
  131PROXS  H3354389  13.225  11.842  13.039  0.7139  1.3026 -0.2595
  132PROXS   O154390  13.354  12.070  12.967  0.1726 -0.2750 -0.2110
  132PROXS   C154391  13.302  12.203  12.948  0.4599  0.0718  0.6645
  132PROXS  H1154392  13.194  12.187  12.932  0.4128  0.8218  0.1673
  132PROXS  H1354393  13.308  12.269  13.038 -0.6850  1.0550  0.0499
  132PROXS   C254394  13.378  12.281  12.835 -0.2169 -0.4255 -0.2703
  132PROXS  H2154395  13.363  12.224  12.741  1.3640  0.9431 -1.4015
  132PROXS   C354396  13.525  12.287  12.874 -0.6117 -0.1026 -0.8262
  132PROXS  H3154397  13.539  12.332  12.974 -3.2723  1.5642 -1.0983
  132PROXS  H3254398  13.571  12.187  12.882  0.9329  0.7023  1.1473
  132PROXS  H3354399  13.581  12.343  12.796  0.2591 -0.0051 -0.1452
  133PROXS   O154400  13.332  12.419  12.817 -0.0798  0.0187 -0.3250
  133PROXS   C154401  13.211  12.422  12.746  0.1316 -0.2553 -0.0693
  133PROXS  H1154402  13.216  12.352  12.660 -0.6415  0.9022 -1.0750
  133PROXS  H1354403  13.131  12.386  12.814 -2.4218  0.3803 -2.5978
  133PROXS   C254404  13.191  12.564  12.698 -0.6861  0.1777 -0.1865
  133PROXS  H2154405  13.252  12.643  12.746  0.2961  0.4608 -1.8535
  133PROXS   C354406  13.045  12.605  12.689  0.3262  0.4346 -0.0433
  133PROXS  H3154407  13.004  12.529  12.619  2.3253 -0.7096 -0.0738
  133PROXS  H3254408  12.998  12.596  12.789  3.0424  1.3237  1.4376
  133PROXS  H3354409  13.028  12.713  12.670 -2.1214  0.1712  0.3076
  134PROXS   O154410  13.236  12.569  12.560  0.1740  0.4128 -0.2553
  134PROXS   C154411  13.378  12.545  12.539  0.2027  0.0999 -0.6571
  134PROXS  H1154412  13.429  12.537  12.637 -2.3962 -0.6216  0.7326
  134PROXS  H1354413  13.383  12.451  12.480 -2.8996 -2.4169  2.6506
  134PROXS   C254414  13.461  12.660  12.464 -0.0776  0.2640  0.5433
  134PROXS  H2154415  13.463  12.743  12.537 -0.1219 -0.6944  1.6594
  134PROXS   C354416  13.396  12.725  12.337  0.3236  0.3140  0.5414
  134PROXS  H3154417  13.299  12.776  12.353 -1.0768 -2.3890  1.2939
  134PROXS  H3254418  13.478  12.793  12.304 -0.9646  0.1674 -3.6231
  134PROXS  H3354419  13.366  12.656  12.255 -0.3301  3.1658 -1.8062
  135PROXS   O154420  13.595  12.604  12.448  0.0636 -0.1264  0.2868
  135PROXS   C154421  13.667  12.601  12.568  0.0913  0.2407 -0.1200
  135PROXS  H1154422  13.612  12.647  12.653  0.1981 -2.1963  1.3639
  135PROXS  H1354423  13.679  12.493  12.593  0.3967  0.3430  0.1893
  135PROXS   C254424  13.794  12.687  12.543 -0.3691  0.2303 -1.2242
  135PROXS  H2154425  13.758  12.789  12.515  1.1369  0.9365 -0.6752
  135PROXS   C354426  13.888  12.642  12.434  0.4287  0.6219 -0.2207
  135PROXS  H3154427  13.945  12.552  12.466  0.1040  0.0534 -1.2093
  135PROXS  H3254428  13.833  12.613  12.341 -0.1962 -0.1428  0.3723
  135PROXS  H3354429  13.962  12.721  12.412 -0.4637  0.7765 -3.2027
  136PROXS   O154430  13.877  12.696  12.663  0.6130 -0.0684 -0.3150
  136PROXS   C154431  13.805  12.768  12.766 -0.1586 -0.0140  0.0765
  136PROXS  H1154432  13.724  12.832  12.724 -0.3094 -0.1122  0.2204
  136PROXS  H1354433  13.768  12.697  12.842 -2.5292  2.5379  1.4984
  136PROXS   C254434  13.911  12.872  12.829 -0.8054 -0.6433 -0.2022
  136PROXS  H2154435  13.960  12.925  12.744  1.3033  0.1315  1.4060
  136PROXS   C354436  14.024  12.813  12.906 -0.3634 -0.8897 -0.8597
  136PROXS  H3154437  14.011  12.704  12.889 -0.9716 -0.9598 -0.0132
  136PROXS  H3254438  14.124  12.854  12.883 -0.2467 -0.5311  0.2327
  136PROXS  H3354439  13.997  12.834  13.012 -0.5660  1.5313 -1.3248
  137PROXS   O154440  13.836  12.971  12.905 -0.0823  0.1604  0.6319
  137PROXS   C154441  13.793  13.080  12.816 -0.5616  0.3448  0.2630
  137PROXS  H1154442  13.877  13.135  12.768  2.7557 -2.8617  1.8106
  137PROXS  H1354443  13.721  13.038  12.743 -0.3507  2.9664 -1.5677
  137PROXS   C254444  13.712  13.179  12.901 -0.3144 -0.4498 -0.1067
  137PROXS  H2154445  13.770  13.208  12.991 -0.4272 -0.0380 -0.1614
  137PROXS   C354446  13.576  13.129  12.953 -0.4345  0.2287 -0.7072
  137PROXS  H3154447  13.535  13.205  13.023  0.4962  0.3316 -0.2588
  137PROXS  H3254448  13.508  13.117  12.866 -3.3135 -0.6520  1.5097
  137PROXS  H3354449  13.589  13.031  13.003 -0.0678  1.8019  2.5988
  138PROXR   O154450  13.683  13.288  12.808 -0.3254 -0.0846 -0.4238
  138PROXR   C154451  13.757  13.401  12.838 -0.0043 -0.5820 -0.4992
  138PROXR  H1154452  13.768  13.410  12.948  0.3672 -0.0050 -0.5789
  138PROXR  H1354453  13.859  13.381  12.800  0.3764 -1.2570  0.8519
  138PROXR   C254454  13.702  13.531  12.784  0.2412 -0.2467 -0.8979
  138PROXR  H2154455  13.651  13.594  12.860 -1.6164 -0.4687 -1.8893
  138PROXR   C354456  13.598  13.516  12.671  0.9835 -0.6446 -0.0431
  138PROXR  H3154457  13.507  13.462  12.705  0.4384 -1.1200 -2.1479
  138PROXR  H3254458  13.561  13.615  12.637 -1.5364 -1.0205  1.3234
  138PROXR  H3354459  13.640  13.462  12.584  0.2553 -3.0261  1.0194
  139PROXS   O154460  13.810  13.604  12.736 -0.6521 -0.1285  0.4480
  139PROXS   C154461  13.887  13.659  12.845 -0.3061  0.1365  0.2826
  139PROXS  H1154462  13.836  13.752  12.876 -0.2353  1.0793 -2.2064
  139PROXS  H1354463  13.897  13.590  12.932 -1.9819  0.6926  0.9383
  139PROXS   C254464  14.035  13.701  12.811 -0.0180  0.1861 -0.3257
  139PROXS  H2154465  14.028  13.789  12.743 -1.9181  0.5847  0.3434
  139PROXS   C354466  14.104  13.581  12.751 -0.1080 -0.4594  0.9196
  139PROXS  H3154467  14.121  13.503  12.828  0.9085 -0.0746  1.1029
  139PROXS  H3254468  14.041  13.536  12.671  0.8999 -1.0794  0.4533
  139PROXS  H3354469  14.203  13.604  12.704 -0.2170 -0.3923  0.7212
  140PROXR   O154470  14.103  13.729  12.930  0.3330  0.1693  0.3885
  140PROXR   C154471  14.207  13.826  12.920  0.0566  0.4102  0.0578
  140PROXR  H1154472  14.277  13.821  12.834 -2.0404 -0.3061 -1.6799
  140PROXR  H1354473  14.156  13.924  12.905  1.0928  0.9971  0.2617
  140PROXR   C254474  14.287  13.828  13.049  0.4904 -0.0006 -0.6320
  140PROXR  H2154475  14.224  13.808  13.138 -0.7509  0.4024 -1.3903
  140PROXR   C354476  14.343  13.970  13.067 -0.1120  0.3439 -0.0893
  140PROXR  H3154477  14.262  14.042  13.088  0.8035  1.8398 -1.5249
  140PROXR  H3254478  14.410  13.970  13.156 -0.7131  2.6987  0.4328
  140PROXR  H3354479  14.411  13.988  12.982 -1.1657 -0.2513 -1.0878
  141PROXS   O154480  14.393  13.731  13.061 -0.0543 -0.0503  0.2714
  141PROXS   C154481  14.356  13.593  13.038  0.1167 -0.2890 -0.3931
  141PROXS  H1154482  14.246  13.582  13.047 -0.2161  0.4464 -2.8505
  141PROXS  H1354483  14.389  13.553  12.940  3.4027  0.2347  0.3623
  141PROXS   C254484  14.425  13.505  13.145 -1.1458 -0.0568  0.0152
  141PROXS  H2154485  14.408  13.544  13.247  0.1669 -0.4031  0.3903
  141PROXS   C354486  14.577  13.508  13.131 -0.1332 -0.0874  0.2024
  141PROXS  H3154487  14.617  13.610  13.111  1.2965 -0.5711  0.4813
  141PROXS  H3254488  14.621  13.449  13.214  1.6495  0.1552 -0.5293
  141PROXS  H3354489  14.607  13.454  13.039 -3.4270 -0.6862 -0.6240
  142PROXS   O154490  14.393  13.371  13.128 -0.3088 -0.1239  0.6674
  142PROXS   C154491  14.269  13.339  13.198  0.2073 -0.2817  0.3638
  142PROXS  H1154492  14.300  13.324  13.304 -1.3827 -0.6985  0.8015
  142PROXS  H1354493  14.195  13.422  13.191  1.2842  1.1637  3.7873
  142PROXS   C254494  14.210  13.209  13.144 -0.0696  0.6330 -0.0643
  142PROXS  H2154495  14.287  13.130  13.159  0.7012  0.9074 -2.1590
  142PROXS   C354496  14.188  13.211  12.991 -0.1925  0.1623 -0.2754
  142PROXS  H3154497  14.187  13.110  12.944  2.2317  0.0603 -0.2505
  142PROXS  H3254498  14.111  13.277  12.948 -1.8826 -3.3946 -3.3734
  142PROXS  H3354499  14.286  13.247  12.951 -0.3487  0.8790 -0.0189
  143PROXS   O154500  14.080  13.187  13.207  0.5435  0.1815 -0.0629
  143PROXS   C154501  14.039  13.047  13.225  0.0475 -0.2704  0.1554
  143PROXS  H1154502  14.005  13.009  13.126  0.6758  0.7405 -0.4630
  143PROXS  H1354503  14.122  12.989  13.272  0.3188  0.3230  0.4258
  143PROXS   C254504  13.926  13.049  13.329  0.5538 -0.2929 -0.2466
  143PROXS  H2154505  13.859  13.127  13.287  0.1026  0.5081  1.8472
  143PROXS   C354506  13.968  13.102  13.468 -0.3761 -0.1373 -0.1017
  143PROXS  H3154507  14.013  13.204  13.459 -1.0755  0.0303 -2.5596
  143PROXS  H3254508  13.888  13.138  13.535 -0.4430  1.9909 -1.2401
  143PROXS  H3354509  14.054  13.044  13.508  0.3550  1.5059  0.8081
  144PROXS   O154510  13.859  12.923  13.354 -0.0447 -0.1371  0.4338
  144PROXS   C154511  13.805  12.851  13.245 -0.4944  0.4805 -0.0123
  144PROXS  H1154512  13.728  12.910  13.192 -2.2202 -1.5057  0.1575
  144PROXS  H1354513  13.876  12.819  13.166  1.1587  0.3424  1.4682
  144PROXS   C254514  13.740  12.722  13.302 -0.0326 -0.1213 -0.5437
  144PROXS  H2154515  13.683  12.754  13.393 -1.1912  3.0820 -2.2267
  144PROXS   C354516  13.835  12.616  13.355 -0.5611  0.6080  0.1678
  144PROXS  H3154517  13.901  12.665  13.430  2.5626 -1.6253 -0.8868
  144PROXS  H3254518  13.786  12.527  13.398 -0.2699  0.4143  0.1043
  144PROXS  H3354519  13.897  12.570  13.274 -0.4830 -0.2256  0.6906
  145PROXR   O154520  13.646  12.656  13.212 -0.4016  0.2028  0.2021
  145PROXR   C154521  13.514  12.713  13.213  0.3473 -0.0602  0.4597
  145PROXR  H1154522  13.466  12.701  13.313 -0.4291  1.2749  0.2721
  145PROXR  H1354523  13.513  12.823  13.198 -0.7547 -0.4089 -2.7437
  145PROXR   C254524  13.432  12.654  13.092 -0.2214 -0.2371 -0.1574
  145PROXR  H2154525  13.447  12.544  13.084 -1.6445 -0.9491  4.1173
  145PROXR   C354526  13.477  12.726  12.960 -0.0843 -0.2089 -0.5206
  145PROXR  H3154527  13.585  12.707  12.945  0.3276  0.9283  0.7767
  145PROXR  H3254528  13.418  12.695  12.871 -2.3673 -0.0476  0.8426
  145PROXR  H3354529  13.470  12.836  12.976  0.5978  0.1921 -2.6833
  146PROXS   O154530  13.297  12.683  13.111 -0.0039  0.2887  0.2462
  146PROXS   C154531  13.242  12.596  13.214 -0.7279 -0.2067  0.3457
  146PROXS  H1154532  13.320  12.528  13.255  0.2456 -2.4396 -4.5752
  146PROXS  H1354533  13.193  12.658  13.293  1.1635 -0.6577  1.9614
  146PROXS   C254534  13.128  12.516  13.152 -0.2053  0.2279 -0.4468
  146PROXS  H2154535  13.170  12.457  13.067  1.7544 -0.4593  0.9417
  146PROXS   C354536  13.024  12.610  13.086 -0.0512 -0.2265 -0.7049
  146PROXS  H3154537  12.995  12.693  13.154 -0.1269  0.1006 -1.1338
  146PROXS  H3254538  13.057  12.659  12.992 -2.6745  2.3049 -0.4565
  146PROXS  H3354539  12.937  12.547  13.057 -0.3023 -0.7268  0.9883
  147PROXR   O154540  13.064  12.439  13.257  0.6628 -0.2066  0.1600
  147PROXR   C154541  13.129  12.309  13.280 -0.1024 -0.2689 -0.1314
  147PROXR  H1154542  13.102  12.240  13.197  0.3255 -0.2634 -0.2775
  147PROXR  H1354543  13.239  12.326  13.280  0.0760 -1.3600  0.4477
  147PROXR   C254544  13.073  12.241  13.411  0.0962 -0.2235 -0.4936
  147PROXR  H2154545  12.969  12.213  13.384  0.0228  0.6214 -1.1363
  147PROXR   C354546  13.088  12.339  13.528 -0.5561  0.2406  0.3049
  147PROXR  H3154547  13.041  12.326  13.628 -0.8833  1.2978  0.3087
  147PROXR  H3254548  13.194  12.368  13.543 -1.4915  3.0405  2.7133
  147PROXR  H3354549  13.048  12.438  13.497 -1.2050  0.0123  0.3890
  148PROXR   O154550  13.147  12.127  13.440  0.3093  0.5376  0.6697
  148PROXR   C154551  13.093  12.060  13.548  0.0145 -0.1842 -0.3410
  148PROXR  H1154552  13.125  12.105  13.644  1.6053 -0.6243 -0.6269
  148PROXR  H1354553  12.983  12.068  13.554  0.1484  0.7527  1.4483
  148PROXR   C254554  13.139  11.911  13.542 -0.5435  0.5444 -0.6202
  148PROXR  H2154555  13.249  11.917  13.535 -0.5700  0.7643 -0.8879
  148PROXR   C354556  13.084  11.829  13.428  0.1903 -0.2036  0.1196
  148PROXR  H3154557  13.151  11.852  13.341  0.9143 -0.2581  0.6527
  148PROXR  H3254558  13.070  11.721  13.448 -0.4426 -0.2211 -0.3762
  148PROXR  H3354559  12.982  11.868  13.412  0.0778 -0.9054 -0.9791
  149PROXR   O154560  13.102  11.853  13.666  0.2775  0.4062  0.3107
  149PROXR   C154561  13.184  11.748  13.709 -0.5943 -0.2501  0.9415
  149PROXR  H1154562  13.174  11.650  13.657  0.0698 -1.2994  2.6982
  149PROXR  H1354563  13.285  11.792  13.693 -0.8178  0.0399  0.2957
  149PROXR   C254564  13.172  11.729  13.861  1.1153 -0.3019 -0.1969
  149PROXR  H2154565  13.070  11.696  13.889  1.1117 -0.9272 -0.8939
  149PROXR   C354566  13.214  11.857  13.934  0.8817 -0.3120  0.0978
  149PROXR  H3154567  13.187  11.841  14.040  0.1320 -0.1112 -0.0617
  149PROXR  H3254568  13.321  11.886  13.923  0.9959 -1.0083 -0.8189
  149PROXR  H3354569  13.155  11.949  13.913  0.3666 -0.4033  1.1081
  150PROXS   O154570  13.266  11.632  13.899  0.4175 -0.0498 -0.0882
  150PROXS   C154571  13.238  11.568  14.022  0.2530 -0.3742  0.2114
  150PROXS  H1154572  13.209  11.640  14.101  1.0305  1.4096 -1.0636
  150PROXS  H1354573  13.154  11.499  13.999 -0.9399  1.4477 -1.1705
  150PROXS   C254574  13.356  11.479  14.075 -0.1323  0.2288 -0.3470
  150PROXS  H2154575  13.442  11.549  14.084  1.5819 -1.9067  0.7980
  150PROXS   C354576  13.386  11.354  13.991 -0.5636 -0.1008  0.2691
  150PROXS  H3154577  13.386  11.386  13.885  0.3474 -0.9028  0.0053
  150PROXS  H3254578  13.484  11.311  14.020 -0.7062  0.6212  1.8867
  150PROXS  H3354579  13.307  11.276  13.995 -1.1059  0.1539 -2.6692
  151PROXR   O154580  13.330  11.437  14.206  0.7553 -0.1693 -0.6246
  151PROXR   C154581  13.453  11.428  14.284  1.0327 -0.3116  0.4369
  151PROXR  H1154582  13.538  11.381  14.231  2.2173 -0.0504  2.0532
  151PROXR  H1354583  13.482  11.532  14.312  0.6924 -0.4096  1.1597
  151PROXR   C254584  13.420  11.343  14.403 -0.4517 -0.0937  0.0778
  151PROXR  H2154585  13.351  11.256  14.391  0.5125 -0.8171 -0.3565
  151PROXR   C354586  13.357  11.430  14.506 -0.0090  0.4140 -0.6119
  151PROXR  H3154587  13.357  11.383  14.607 -1.7586 -1.0559 -1.2507
  151PROXR  H3254588  13.408  11.528  14.517 -0.3132  0.5541 -0.4103
  151PROXR  H3354589  13.250  11.450  14.482 -0.2198 -0.2756 -0.2757
  152PROXR   O154590  13.539  11.304  14.468  0.7651 -0.1715  0.0943
  152PROXR   C154591  13.576  11.166  14.449  0.8723  0.0879  0.8210
  152PROXR  H1154592  13.498  11.100  14.491 -1.2079  1.4047 -0.7778
  152PROXR  H1354593  13.583  11.145  14.340  2.2971  0.8550  0.7355
  152PROXR   C254594  13.713  11.143  14.504 -0.9659 -1.2324 -0.3836
  152PROXR  H2154595  13.694  11.123  14.612 -0.8381 -1.1608 -0.3475
  152PROXR   C354596  13.819  11.250  14.490 -0.1521  0.2046 -0.4430
  152PROXR  H3154597  13.774  11.349  14.508  0.3287  0.1701  1.0547
  152PROXR  H3254598  13.904  11.239  14.560 -1.2671 -3.3918  0.5806
  152PROXR  H3354599  13.859  11.254  14.386 -1.3672 -2.5196 -1.1187
  153PROXR   O154600  13.758  11.024  14.448 -0.1674 -0.0102 -0.3179
  153PROXR   C154601  13.843  10.947  14.531 -0.2764  0.3542  0.6118
  153PROXR  H1154602  13.903  11.013  14.597 -0.1827  0.8744  0.0203
  153PROXR  H1354603  13.781  10.885  14.599 -0.4463  1.9681  1.9866
  153PROXR   C254604  13.922  10.854  14.437 -0.5682  0.4257 -0.3105
  153PROXR  H2154605  13.980  10.919  14.368  0.9887 -0.3408  0.2425
  153PROXR   C354606  13.840  10.742  14.368 -0.3159 -0.2882 -0.9937
  153PROXR  H3154607  13.787  10.682  14.445 -0.1452  0.7773 -0.0136
  153PROXR  H3254608  13.778  10.781  14.285 -0.7501  1.2875  0.0353
  153PROXR  H3354609  13.910  10.677  14.310 -0.2384  0.6252 -1.9357
  154PROXS   O154610  14.012  10.786  14.518 -1.3651  0.7083 -0.3462
  154PROXS   C154611  14.129  10.862  14.560 -0.7326  0.5895  0.1595
  154PROXS  H1154612  14.216  10.816  14.510  1.1431  2.9685  1.0521
  154PROXS  H1354613  14.123  10.964  14.516 -1.3537 -0.6210 -2.8377
  154PROXS   C254614  14.155  10.865  14.713  0.1014 -0.2794 -0.2920
  154PROXS  H2154615  14.215  10.774  14.737  0.1520 -0.2775 -0.4112
  154PROXS   C354616  14.027  10.871  14.803 -0.3537  0.2011 -0.5975
  154PROXS  H3154617  13.967  10.778  14.803  1.1396 -0.8020  0.1309
  154PROXS  H3254618  14.075  10.860  14.903  1.1152 -1.2664 -1.4280
  154PROXS  H3354619  13.976  10.970  14.794  0.4538  0.5447 -1.4743
  155PROXR   O154620  14.227  10.984  14.735 -0.0604 -0.0657  0.6344
  155PROXR   C154621  14.368  10.966  14.708  0.0495  0.2424 -0.9303
  155PROXR  H1154622  14.408  10.882  14.770  1.1791 -0.2055 -2.2157
  155PROXR  H1354623  14.387  10.926  14.606  0.1469  0.0374 -0.8337
  155PROXR   C254624  14.439  11.100  14.738  0.4022  0.3798 -0.1140
  155PROXR  H2154625  14.440  11.113  14.849 -2.0288 -0.6817  0.1132
  155PROXR   C354626  14.357  11.220  14.680  0.4181 -0.3219 -0.6491
  155PROXR  H3154627  14.248  11.210  14.697  0.4927 -2.1843 -1.0706
  155PROXR  H3254628  14.393  11.312  14.731  2.3799 -1.6553  0.4886
  155PROXR  H3354629  14.375  11.231  14.570  0.9347  1.4622 -0.4249
  156PROXS   O154630  14.569  11.093  14.681 -0.3316  0.1009 -0.3910
  156PROXS   C154631  14.676  11.157  14.753 -0.7753 -0.4590 -0.3682
  156PROXS  H1154632  14.646  11.258  14.788  0.6935 -0.2131  0.2618
  156PROXS  H1354633  14.709  11.095  14.839 -0.9131 -0.5291 -0.3663
  156PROXS   C254634  14.803  11.190  14.663 -0.9102 -0.4476 -0.3661
  156PROXS  H2154635  14.826  11.100  14.603 -0.5790 -0.7561  0.2186
  156PROXS   C354636  14.935  11.225  14.743 -0.3563 -0.1209 -0.6652
  156PROXS  H3154637  14.959  11.137  14.806 -0.7036 -0.7494 -1.3880
  156PROXS  H3254638  15.023  11.245  14.679  0.2085 -1.6699 -0.4053
  156PROXS  H3354639  14.915  11.311  14.810  0.0668  0.6868 -1.5563
  157PROXS   O154640  14.776  11.308  14.590  0.8647  0.3352  0.2060
  157PROXS   C154641  14.685  11.296  14.479  0.2963 -0.3739  0.7073
  157PROXS  H1154642  14.590  11.249  14.512 -0.3891  1.2141  1.1021
  157PROXS  H1354643  14.664  11.397  14.438 -2.2855 -1.6436 -1.4522
  157PROXS   C254644  14.752  11.222  14.364 -0.1076  0.1825  1.2000
  157PROXS  H2154645  14.802  11.130  14.402 -1.2011 -1.4525 -1.1129
  157PROXS   C354646  14.867  11.296  14.290  0.7912 -0.3182 -0.5626
  157PROXS  H3154647  14.828  11.391  14.248  0.7778  0.6160  1.4241
  157PROXS  H3254648  14.936  11.333  14.369  0.6640  2.3463 -1.6186
  157PROXS  H3354649  14.921  11.233  14.215 -1.5331 -1.4774 -1.3624
  158PROXR   O154650  14.651  11.182  14.272 -1.1128  0.1509 -0.6347
  158PROXR   C154651  14.580  11.063  14.311 -0.2701 -0.4049  0.3911
  158PROXR  H1154652  14.639  10.973  14.283 -0.7459 -1.1308  1.6409
  158PROXR  H1354653  14.558  11.050  14.419 -1.5745 -2.0603 -0.0304
  158PROXR   C254654  14.444  11.055  14.245  0.2066  0.0931 -0.3784
  158PROXR  H2154655  14.457  11.093  14.141 -0.4670 -0.3379 -0.6278
  158PROXR   C354656  14.338  11.138  14.315  0.8914 -0.0016 -0.1488
  158PROXR  H3154657  14.238  11.116  14.270  0.2627  0.3466  1.0359
  158PROXR  H3254658  14.323  11.109  14.421 -0.8528 -0.2816 -0.4332
  158PROXR  H3354659  14.365  11.246  14.312  2.1780 -0.3287 -1.0615
  159PROXR   O154660  14.399  10.914  14.247  0.8325  0.6050 -0.2612
  159PROXR   C154661  14.324  10.887  14.127  0.7427  0.1839 -0.0459
  159PROXR  H1154662  14.238  10.956  14.117  0.2605 -0.4105 -0.0661
  159PROXR  H1354663  14.395  10.894  14.041  1.4352  2.2496  0.6357
  159PROXR   C254664  14.250  10.746  14.128 -0.0489 -0.1855  0.4224
  159PROXR  H2154665  14.161  10.760  14.192  0.6064 -0.2008  1.3704
  159PROXR   C354666  14.327  10.622  14.178 -0.0469  0.1430 -0.4701
  159PROXR  H3154667  14.413  10.608  14.109  0.2626  1.1580 -0.3083
  159PROXR  H3254668  14.368  10.656  14.275  1.8019 -1.7217 -0.5267
  159PROXR  H3354669  14.264  10.535  14.204 -2.1623  2.2164  1.9351
  160PROXS   O154670  14.204  10.720  13.997 -0.3019 -0.5943 -0.0198
  160PROXS   C154671  14.091  10.631  13.996  0.0857 -0.4254  0.1882
  160PROXS  H1154672  14.125  10.527  14.013  0.6146 -0.0676  1.4248
  160PROXS  H1354673  14.021  10.662  14.077 -2.4681  2.9234 -2.9713
  160PROXS   C254674  14.013  10.651  13.861 -0.3146  0.1080  0.3477
  160PROXS  H2154675  14.010  10.752  13.815 -2.1459  0.3165  0.8525
  160PROXS   C354676  13.866  10.628  13.887 -0.9908 -0.5654 -0.1788
  160PROXS  H3154677  13.807  10.643  13.794 -0.0674  0.8101 -0.5741
  160PROXS  H3254678  13.857  10.518  13.903  2.1459 -0.5976  2.3807
  160PROXS  H3354679  13.829  10.687  13.973  0.6802  2.2240 -1.2285
  161PROXR   O154680  14.040  10.552  13.756  0.1752  0.5563 -0.5106
  161PROXR   C154681  14.180  10.529  13.740 -0.3881  0.2592 -0.1812
  161PROXR  H1154682  14.233  10.489  13.829  0.4960  0.9321 -0.3989
  161PROXR  H1354683  14.187  10.446  13.667  1.2849  1.2607 -1.2063
  161PROXR   C254684  14.254  10.646  13.670 -0.6303 -0.0918 -0.5327
  161PROXR  H2154685  14.240  10.743  13.722  1.4805 -1.4101  2.8357
  161PROXR   C354686  14.213  10.666  13.522  0.0332 -0.7274  0.5873
  161PROXR  H3154687  14.237  10.573  13.466  3.1325 -0.4760  1.3404
  161PROXR  H3254688  14.105  10.690  13.513  1.0234  4.4133 -0.4253
  161PROXR  H3354689  14.264  10.752  13.474 -1.1545 -0.6291 -0.5710
  162PROXR   O154690  14.396  10.623  13.667 -0.3942  0.6650  0.1424
  162PROXR   C154691  14.459  10.644  13.792  0.7468  0.9980 -0.2004
  162PROXR  H1154692  14.420  10.736  13.841 -0.2192  0.5357 -0.0760
  162PROXR  H1354693  14.446  10.561  13.864  0.7892  1.3861  0.2578
  162PROXR   C254694  14.613  10.671  13.776 -0.1518 -0.0169  0.4044
  162PROXR  H2154695  14.626  10.764  13.717  0.6484  0.3070  1.0713
  162PROXR   C354696  14.679  10.549  13.713 -0.2091  0.8407  0.5588
  162PROXR  H3154697  14.790  10.554  13.716 -0.1547 -0.5935  1.8028
  162PROXR  H3254698  14.645  10.456  13.761  1.5562 -0.0551  0.1740
  162PROXR  H3354699  14.638  10.541  13.610  0.6417  3.4165 -0.0765
  163PROXS   O154700  14.662  10.687  13.909 -0.1947  0.0996 -0.3772
  163PROXS   C154701  14.802  10.727  13.922  0.1892 -0.7067  0.2225
  163PROXS  H1154702  14.871  10.640  13.925  1.5600  0.3436  2.6849
  163PROXS  H1354703  14.825  10.784  13.830  3.5083 -2.7669 -0.4082
  163PROXS   C254704  14.821  10.819  14.046 -0.5177  0.1900 -0.2757
  163PROXS  H2154705  14.785  10.783  14.144  0.2928  0.9584  0.3238
  163PROXS   C354706  14.759  10.968  14.029 -1.1143  0.2539  0.7075
  163PROXS  H3154707  14.812  11.029  13.953 -3.2340 -2.0009 -2.9281
  163PROXS  H3254708  14.652  10.956  13.999 -0.2069 -2.2061 -2.0863
  163PROXS  H3354709  14.762  11.023  14.125 -2.4631  0.0124  0.9171
  164PROXR   O154710  14.963  10.839  14.075  0.3189 -0.1183  0.1233
  164PROXR   C154711  14.992  10.895  14.204 -0.4627  0.1424 -0.0611
  164PROXR  H1154712  14.976  11.005  14.194 -1.3044  0.0743  0.4431
  164PROXR  H1354713  14.928  10.850  14.283 -0.3450 -0.7104 -0.4480
  164PROXR   C254714  15.141  10.881  14.245 -0.8014 -0.3337 -0.9567
  164PROXR  H2154715  15.206  10.920  14.163 -0.9692  0.4119 -0.7356
  164PROXR   C354716  15.182  10.730  14.253 -0.2145  0.2419 -0.3662
  164PROXR  H3154717  15.152  10.666  14.167  1.6986  0.4454 -1.2336
  164PROXR  H3254718  15.293  10.723  14.254 -0.2723 -1.5315 -1.6298
  164PROXR  H3354719  15.145  10.695  14.352  0.6404  2.6746  0.9187
  165PROXR   O154720  15.159  10.950  14.372  0.0564  0.3342  0.3758
  165PROXR   C154721  15.290  11.006  14.387 -0.1943  0.3350  0.2841
  165PROXR  H1154722  15.354  10.918  14.408 -0.2491 -0.1958 -1.5973
  165PROXR  H1354723  15.329  11.041  14.289 -0.6804 -0.7210 -0.2989
  165PROXR   C254724  15.287  11.127  14.494  0.5320 -0.4385 -0.7201
  165PROXR  H2154725  15.252  11.093  14.593 -0.7566  0.1041 -0.9713
  165PROXR   C354726  15.183  11.237  14.451 -0.2433 -0.4799 -0.1960
  165PROXR  H3154727  15.086  11.183  14.445 -0.1849 -0.4669 -1.6964
  165PROXR  H3254728  15.175  11.326  14.518 -1.2575 -0.8438  0.1849
  165PROXR  H3354729  15.215  11.270  14.349  1.4909 -0.3640  0.3643
  166ETHOX   O154730  15.412  11.194  14.501  0.6018 -0.1106 -0.1493
  166ETHOX   C154731  15.511  11.103  14.553 -0.6346 -0.4188 -0.3905
  166ETHOX  H1154732  15.539  11.028  14.477 -0.8234 -0.2639 -0.6138
  166ETHOX  H1354733  15.475  11.057  14.648 -4.6634  0.5557 -1.2534
  166ETHOX   C254734  15.645  11.186  14.582  0.3252 -0.1713  0.2771
  166ETHOX  H2154735  15.655  11.246  14.489 -1.7296 -1.6178 -0.9954
  166ETHOX  H2354736  15.718  11.103  14.575  0.2356 -0.1950 -0.4488
  167ETHOX   O154737  15.652  11.260  14.701  0.1382 -0.0274 -0.5863
  167ETHOX   C154738  15.656  11.408  14.694 -0.6442 -0.4885  0.7134
  167ETHOX  H1154739  15.747  11.445  14.643 -0.5635 -2.7414 -0.9690
  167ETHOX  H1354740  15.562  11.452  14.655 -2.8849 -2.7430  3.1186
  167ETHOX   C254741  15.672  11.451  14.837 -0.4788  0.4753  0.4438
  167ETHOX  H2154742  15.675  11.561  14.821  1.0873  0.5653  1.2182
  167ETHOX  H2354743  15.767  11.416  14.882  0.0374 -0.9215 -1.5709
  168ETHOX   O154744  15.570  11.410  14.923 -0.1334  0.6499 -0.0645
  168ETHOX   C154745  15.596  11.447  15.054 -0.4034 -0.3262  0.2110
  168ETHOX  H1154746  15.591  11.558  15.057  1.5221 -0.1932 -0.5602
  168ETHOX  H1354747  15.701  11.425  15.082 -0.0478 -0.0435 -0.8825
  168ETHOX   C254748  15.500  11.394  15.155 -0.7538 -0.6196 -0.0065
  168ETHOX  H2154749  15.395  11.415  15.123 -0.3261 -1.4591 -2.1002
  168ETHOX  H2354750  15.516  11.451  15.249 -0.8994  0.0729 -0.3984
  169ETHOX   O154751  15.511  11.253  15.174 -0.1996  0.5929 -0.0503
  169ETHOX   C154752  15.409  11.191  15.257  0.0876  0.3052 -0.1313
  169ETHOX  H1154753  15.448  11.186  15.361 -0.5696 -0.9858  0.0741
  169ETHOX  H1354754  15.313  11.244  15.240  0.3758  1.4365  1.4641
  169ETHOX   C254755  15.396  11.042  15.204  0.8179  0.0153  0.0264
  169ETHOX  H2154756  15.365  10.962  15.275  0.3916 -0.0142 -0.1876
  169ETHOX  H2354757  15.498  11.021  15.167  1.3517 -1.6959  2.2136
  170ETHOX   O154758  15.305  11.052  15.095 -0.3635 -0.1002  0.2534
  170ETHOX   C154759  15.326  10.947  15.003  0.6377  0.2859  0.3100
  170ETHOX  H1154760  15.433  10.941  14.973  0.5417 -1.9997  0.2037
  170ETHOX  H1354761  15.264  10.979  14.917 -1.9142 -3.2973  0.5762
  170ETHOX   C254762  15.286  10.807  15.061 -0.4342 -0.1321 -0.2108
  170ETHOX  H2154763  15.211  10.815  15.143  0.0371 -0.5783  0.2701
  170ETHOX  H2354764  15.366  10.743  15.104 -1.3883 -0.7729  0.6706
  171ETHOX   O154765  15.221  10.723  14.967 -0.2769  0.6326  0.0238
  171ETHOX   C154766  15.234  10.586  15.000 -0.1476  0.1377  0.2038
  171ETHOX  H1154767  15.342  10.560  15.005 -0.2883 -1.1468 -2.0492
  171ETHOX  H1354768  15.192  10.582  15.103  0.1239 -0.8956  0.2853
  171ETHOX   C254769  15.145  10.494  14.914  0.0525  0.1938  0.1495
  171ETHOX  H2154770  15.045  10.542  14.926  0.1971  0.5800 -0.1692
  171ETHOX  H2354771  15.149  10.388  14.947  1.6698  0.3745  0.6041
  172ETHOX   O154772  15.191  10.502  14.779 -0.0377  0.3671  0.6489
  172ETHOX   C154773  15.095  10.476  14.681 -0.4532  0.9296 -0.0510
  172ETHOX  H1154774  15.145  10.521  14.593  1.9464 -1.4791 -0.0338
  172ETHOX  H1354775  15.005  10.538  14.701 -0.6485  0.5269  0.3504
  172ETHOX   C254776  15.077  10.330  14.650  0.2549  0.0332  0.1499
  172ETHOX  H2154777  15.173  10.276  14.649  0.9504  1.1197  2.4246
  172ETHOX  H2354778  15.020  10.328  14.554  0.6877  0.0544 -0.1089
  173ETHOX   O154779  14.999  10.267  14.757  0.5775  0.3209 -0.3716
  173ETHOX   C154780  14.856  10.283  14.741 -0.0105 -0.8743 -0.3127
  173ETHOX  H1154781  14.820  10.389  14.739 -1.5083 -1.3523 -0.0625
  173ETHOX  H1354782  14.835  10.254  14.636  1.4977  0.6789 -1.0925
  173ETHOX   C254783  14.764  10.205  14.837  0.3110  0.8603  0.0190
  173ETHOX  H2154784  14.659  10.213  14.801  0.3489  3.0954  0.2689
  173ETHOX  H2354785  14.797  10.099  14.843 -1.6659  0.2537  1.1934
  174ETHOX   O154786  14.767  10.274  14.966  0.4727  0.2216  0.1439
  174ETHOX   C154787  14.673  10.213  15.054  0.5960 -0.3586 -0.0607
  174ETHOX  H1154788  14.639  10.292  15.125  0.7879  0.8211 -1.2410
  174ETHOX  H1354789  14.587  10.180  14.992 -0.4883  1.9576  0.0604
  174ETHOX   C254790  14.719  10.087  15.134  0.5490  0.3440 -0.1698
  174ETHOX  H2154791  14.789  10.026  15.074  0.7606  1.3308 -0.9524
  174ETHOX  H2354792  14.629  10.023  15.147 -0.2300  0.9887 -2.0351
  175ETHOX   O154793  14.773  10.106  15.261  0.2087  0.5295 -0.6605
  175ETHOX   C154794  14.687  10.175  15.353 -0.0941  0.2751  0.0270
  175ETHOX  H1154795  14.706  10.280  15.323  0.5405  0.6139  1.5399
  175ETHOX  H1354796  14.582  10.145  15.333  0.3416 -0.8222 -0.7227
  175ETHOX   C254797  14.727  10.152  15.500  0.3497  0.4608 -0.5749
  175ETHOX  H2154798  14.709  10.248  15.554  1.0424 -0.7043  1.8916
  175ETHOX  H2354799  14.835  10.126  15.501 -0.3291 -2.7411 -0.6573
  176ETHOX   O154800  14.667  10.038  15.562  0.0280  0.4179 -0.0061
  176ETHOX   C154801  14.684  10.040  15.706 -0.4890 -0.1260  0.7403
  176ETHOX  H1154802  14.793  10.052  15.719 -0.4103  1.9551 -1.2257
  176ETHOX  H1354803  14.648  10.141  15.733  1.4728  1.1810 -1.2133
  176ETHOX   C254804  14.622   9.909  15.771 -0.6589 -0.5699  0.1163
  176ETHOX  H2154805  14.518   9.918  15.732  0.1626  1.1181 -1.8510
  176ETHOX  H2354806  14.629   9.929  15.880 -0.6093  3.9749 -0.5415
  177ETHOX   O154807  14.692   9.791  15.738 -0.4609 -0.0504 -0.0714
  177ETHOX   C154808  14.622   9.670  15.772 -0.5549 -0.2897  0.1371
  177ETHOX  H1154809  14.523   9.679  15.721 -0.7610  3.5502  0.9145
  177ETHOX  H1354810  14.610   9.674  15.882  1.9848  1.0052  0.4568
  177ETHOX   C254811  14.682   9.542  15.723  0.7404 -0.0858  0.1317
  177ETHOX  H2154812  14.609   9.464  15.753 -2.1090  3.1255  2.3113
  177ETHOX  H2354813  14.776   9.525  15.779  0.6449  2.1160  1.0574
  178ETHOX   O154814  14.708   9.536  15.582 -0.5536 -0.3644  0.0415
  178ETHOX   C154815  14.793   9.435  15.537 -0.2414 -0.2590  0.2626
  178ETHOX  H1154816  14.894   9.456  15.578  0.2079  0.6830 -1.2349
  178ETHOX  H1354817  14.756   9.332  15.555 -1.4869  0.2187  0.5420
  178ETHOX   C254818  14.823   9.450  15.390  0.0813  0.5467 -1.0642
  178ETHOX  H2154819  14.921   9.402  15.370 -0.1885 -0.9425  0.8442
  178ETHOX  H2354820  14.838   9.558  15.370 -0.4039  0.5158 -1.6269
  179ETHOX   O154821  14.724   9.401  15.301  0.2814  0.0294  0.4862
  179ETHOX   C154822  14.609   9.483  15.288 -0.4177 -0.8710 -0.0399
  179ETHOX  H1154823  14.639   9.583  15.252  0.9527 -0.8759  0.9707
  179ETHOX  H1354824  14.547   9.490  15.380 -2.2051 -1.2914 -1.1572
  179ETHOX   C254825  14.523   9.418  15.181 -0.2844  0.2099  0.5246
  179ETHOX  H2154826  14.492   9.314  15.207 -2.2374  0.8491  0.9343
  179ETHOX  H2354827  14.581   9.416  15.086 -0.4840 -0.5250  0.4075
  180ETHOX   O154828  14.404   9.491  15.160  0.7834  0.3361  0.1043
  180ETHOX   C154829  14.311   9.414  15.076 -0.4260  0.3785 -0.0870
  180ETHOX  H1154830  14.374   9.378  14.992  1.8568  1.9737  0.8311
  180ETHOX  H1354831  14.265   9.328  15.130 -0.4654  1.6096  1.9365
  180ETHOX   C254832  14.198   9.512  15.039  0.0023 -0.4744  0.3114
  180ETHOX  H2154833  14.163   9.573  15.125 -1.4699  0.3458 -0.8194
  180ETHOX  H2354834  14.116   9.443  15.011 -1.7659  1.7173 -0.1597
  181ETHOX   O154835  14.240   9.591  14.930 -0.6562  0.2444 -0.7218
  181ETHOX   C154836  14.126   9.637  14.861 -0.7032  0.0649  0.0822
  181ETHOX  H1154837  14.052   9.674  14.935 -1.5716  0.1703 -0.8313
  181ETHOX  H1354838  14.082   9.574  14.782 -0.8303  1.2289 -0.7939
  181ETHOX   C254839  14.167   9.763  14.769  0.4064 -0.0113  0.0206
  181ETHOX  H2154840  14.218   9.838  14.834  1.2426  0.3202 -0.9988
  181ETHOX  H2354841  14.083   9.822  14.727  1.0276  1.7612  1.1537
  182ETHOX   O154842  14.240   9.724  14.654  0.0024  0.4547 -0.0039
  182ETHOX   C154843  14.273   9.827  14.569  0.1798 -0.6393  0.3458
  182ETHOX  H1154844  14.183   9.850  14.508 -0.4915  2.5411  2.2848
  182ETHOX  H1354845  14.287   9.917  14.633 -1.2079 -1.1945  1.4889
  182ETHOX   C254846  14.393   9.813  14.484  0.0221  0.3368 -0.1889
  182ETHOX  H2154847  14.481   9.793  14.548  1.8065 -1.8054 -3.0488
  182ETHOX  H2354848  14.399   9.903  14.418 -1.1130 -1.2275 -2.6016
  183ETHOX   O154849  14.383   9.704  14.399 -0.2804  0.6720  0.0350
  183ETHOX   C154850  14.496   9.703  14.321 -0.6152  0.4387 -0.0667
  183ETHOX  H1154851  14.591   9.710  14.378 -0.1544  1.1192 -0.8932
  183ETHOX  H1354852  14.489   9.781  14.242 -0.4312 -2.0276 -2.6673
  183ETHOX   C254853  14.498   9.570  14.228  0.4047 -0.1800 -0.2074
  183ETHOX  H2154854  14.562   9.595  14.141 -0.5023  0.5926 -0.6770
  183ETHOX  H2354855  14.395   9.554  14.188  1.0667 -1.1220 -1.6219
  184ETHOX   O154856  14.540   9.461  14.311  0.5483  0.1812  0.4855
  184ETHOX   C154857  14.569   9.346  14.225 -0.5116 -0.3100  0.1224
  184ETHOX  H1154858  14.505   9.353  14.134 -2.5859 -0.5301  1.4779
  184ETHOX  H1354859  14.677   9.352  14.201 -0.0471  0.6337  2.2409
  184ETHOX   C254860  14.547   9.216  14.298  0.9490  0.5209 -0.0819
  184ETHOX  H2154861  14.546   9.126  14.232 -1.6258 -1.7125  2.7028
  184ETHOX  H2354862  14.446   9.221  14.344  0.4909  1.0855 -1.1065
  185ETHOX   O154863  14.646   9.185  14.399  0.2973  0.4099  0.4037
  185ETHOX   C154864  14.592   9.084  14.490  0.1503  0.1264 -0.1437
  185ETHOX  H1154865  14.505   9.129  14.543 -0.4455 -2.0307  0.8214
  185ETHOX  H1354866  14.549   9.004  14.425  0.0600  0.7142 -0.8233
  185ETHOX   C254867  14.691   9.014  14.587  0.1054 -0.0161  0.8119
  185ETHOX  H2154868  14.738   9.088  14.655 -1.1516  1.9648 -0.3708
  185ETHOX  H2354869  14.763   8.962  14.520  0.1479  1.5448 -0.4052
  186ETHOX   O154870  14.622   8.918  14.669 -0.3403 -0.7850 -0.3508
  186ETHOX   C154871  14.705   8.825  14.744 -0.0447  0.2772 -0.1600
  186ETHOX  H1154872  14.786   8.882  14.794  0.5404  0.6185 -1.4450
  186ETHOX  H1354873  14.647   8.771  14.822  1.4780 -0.3343  0.5840
  186ETHOX   C254874  14.776   8.720  14.649 -0.4137 -0.1341  0.4377
  186ETHOX  H2154875  14.703   8.680  14.576 -2.0084 -0.4737  2.1596
  186ETHOX  H2354876  14.825   8.639  14.707  1.0209 -0.2172 -0.8186
  187ETHOX   O154877  14.884   8.785  14.585 -0.0929 -0.0656  0.5335
  187ETHOX   C154878  14.942   8.689  14.488 -0.0826 -0.4068  0.0500
  187ETHOX  H1154879  15.049   8.715  14.474 -0.4502  1.1235 -0.0763
  187ETHOX  H1354880  14.919   8.586  14.520  1.1876 -0.4372  0.9414
  187ETHOX   C254881  14.876   8.708  14.348  0.8354 -1.1383  0.2259
  187ETHOX  H2154882  14.766   8.694  14.352  0.3019  2.3883  0.9479
  187ETHOX  H2354883  14.923   8.633  14.281  1.9091 -0.3400  0.0678
  188ETHOX   O154884  14.905   8.832  14.293 -0.2961 -0.6046  0.3464
  188ETHOX   C154885  14.829   8.860  14.176  0.0530 -0.5295  0.9869
  188ETHOX  H1154886  14.719   8.849  14.191  0.4523 -4.2323  2.2021
  188ETHOX  H1354887  14.862   8.773  14.115  2.2489 -0.0605  1.4143
  188ETHOX   C254888  14.854   9.007  14.124 -0.3245  0.0016 -0.4373
  188ETHOX  H2154889  14.949   9.023  14.068 -0.5537  1.0861 -0.5443
  188ETHOX  H2354890  14.830   9.078  14.206 -3.2687 -0.3161 -0.9235
  189ETHOX   O154891  14.751   9.033  14.038 -0.3212 -0.4619 -0.6681
  189ETHOX   C154892  14.770   9.159  13.970  0.6291 -0.0653 -0.1252
  189ETHOX  H1154893  14.773   9.245  14.041  0.0542  1.7048 -2.1450
  189ETHOX  H1354894  14.863   9.158  13.908  0.9067 -0.5556  0.2888
  189ETHOX   C254895  14.652   9.201  13.875 -0.4854 -0.0452  0.1411
  189ETHOX  H2154896  14.648   9.120  13.799  0.7978  0.2591 -0.2691
  189ETHOX  H2354897  14.667   9.298  13.822 -2.3425  0.3400  0.2360
  190ETHOX   O154898  14.533   9.206  13.955 -0.2177  0.0517  0.5463
  190ETHOX   C154899  14.414   9.231  13.883  0.5501  0.4614  0.5025
  190ETHOX  H1154900  14.388   9.154  13.807 -3.5533  1.5386  0.5733
  190ETHOX  H1354901  14.423   9.326  13.827  0.2763 -1.3806 -2.9771
  190ETHOX   C254902  14.290   9.217  13.965 -0.6440 -0.0177 -0.0459
  190ETHOX  H2154903  14.199   9.237  13.905  0.2129  1.8301 -0.8295
  190ETHOX  H2354904  14.281   9.303  14.035 -1.0462  0.3423 -0.5348
  191ETHOX   O154905  14.282   9.096  14.037  0.1203  0.3112  0.4552
  191ETHOX   C154906  14.147   9.071  14.091  0.4233 -0.8811 -0.7312
  191ETHOX  H1154907  14.060   9.128  14.051 -0.2449 -0.4883  1.1927
  191ETHOX  H1354908  14.131   8.962  14.098 -2.8666 -0.4028  3.8104
  191ETHOX   C254909  14.151   9.109  14.244 -0.1932 -0.4607  0.2019
  191ETHOX  H2154910  14.232   9.054  14.297  1.5283 -1.3279 -3.0543
  191ETHOX  H2354911  14.055   9.070  14.284 -0.0431 -0.7134  0.3150
  192ETHOX   O154912  14.171   9.247  14.262 -0.2677  1.0870 -0.1553
  192ETHOX   C154913  14.138   9.279  14.395  0.0438 -0.0276 -0.3655
  192ETHOX  H1154914  14.224   9.240  14.454 -1.1271  0.5732  1.8469
  192ETHOX  H1354915  14.048   9.227  14.434  0.4377 -0.4998 -0.0662
  192ETHOX   C254916  14.140   9.434  14.415 -0.3765 -0.3824  0.1380
  192ETHOX  H2154917  14.227   9.481  14.365 -2.1103  0.9159 -1.8004
  192ETHOX  H2354918  14.151   9.446  14.525 -1.6458  0.8588  0.1501
  193ETHOX   O154919  14.032   9.503  14.361 -0.2714  0.1028 -0.3797
  193ETHOX   C154920  14.033   9.645  14.392 -0.9895  0.9688  0.2109
  193ETHOX  H1154921  14.012   9.646  14.501 -0.7900  3.3246  0.2731
  193ETHOX  H1354922  14.129   9.689  14.359 -0.8293  1.9295  1.8643
  193ETHOX   C254923  13.929   9.718  14.312  0.2761 -0.9364 -0.2591
  193ETHOX  H2154924  13.890   9.810  14.361  0.5113 -1.2206  0.4727
  193ETHOX  H2354925  13.835   9.658  14.305 -0.0131 -0.3982 -1.2009
  194ETHOX   O154926  13.970   9.737  14.180 -0.0703  0.0949  0.1101
  194ETHOX   C154927  14.040   9.858  14.169 -0.3430  0.2293 -0.5360
  194ETHOX  H1154928  14.121   9.859  14.246 -1.6328 -0.0072  0.8566
  194ETHOX  H1354929  13.975   9.946  14.189  1.2816  1.1746  0.8677
  194ETHOX   C254930  14.101   9.871  14.031 -0.7073  0.0500  0.7285
  194ETHOX  H2154931  14.142   9.973  14.015 -0.5958 -0.0765  0.2037
  194ETHOX  H2354932  14.025   9.874  13.950  1.1054  1.1157 -1.0070
  195ETHOX   O154933  14.200   9.774  14.009 -0.0935  0.2831  0.1136
  195ETHOX   C154934  14.267   9.790  13.886 -0.2886  0.1757 -0.5430
  195ETHOX  H1154935  14.189   9.784  13.807  1.3383  0.3285 -2.2459
  195ETHOX  H1354936  14.304   9.893  13.871 -0.1625 -0.1050 -2.3889
  195ETHOX   C254937  14.373   9.679  13.861  0.5233 -0.0902  0.1134
  195ETHOX  H2154938  14.384   9.680  13.750  0.5016  2.1125  0.0774
  195ETHOX  H2354939  14.329   9.591  13.911 -1.7650  1.4189  0.9369
  196ETHOX   O154940  14.500   9.716  13.914 -0.6752  0.1812 -0.5013
  196ETHOX   C154941  14.603   9.630  13.860  0.8610 -0.4760  0.6875
  196ETHOX  H1154942  14.630   9.559  13.941  1.5218  0.6112  1.4467
  196ETHOX  H1354943  14.560   9.564  13.783  1.5169  2.7216 -2.7213
  196ETHOX   C254944  14.728   9.703  13.809 -0.5016  0.3454 -0.0910
  196ETHOX  H2154945  14.692   9.803  13.777  1.6456  1.9087  1.9581
  196ETHOX  H2354946  14.766   9.661  13.714 -1.7210  0.2357 -0.5467
  197ETHOX   O154947  14.837   9.724  13.906  0.3045 -0.1446  0.5676
  197ETHOX   C154948  14.805   9.810  14.014 -0.2539 -0.8830 -0.3442
  197ETHOX  H1154949  14.825   9.917  13.990  0.9744 -1.2048 -0.8085
  197ETHOX  H1354950  14.699   9.792  14.040 -0.3342 -0.3436 -0.2758
  197ETHOX   C254951  14.902   9.777  14.132  0.2311  0.0995  0.6869
  197ETHOX  H2154952  14.944   9.677  14.107  0.5153  0.1960  0.7758
  197ETHOX  H2354953  14.850   9.771  14.230 -0.1941  0.0354  0.4620
  198ETHOX   O154954  15.007   9.869  14.134  0.9889 -0.3873 -0.1688
  198ETHOX   C154955  15.043   9.916  14.261  0.4543  0.0913 -0.1979
  198ETHOX  H1154956  15.109  10.004  14.248  0.5316  0.0317 -0.2071
  198ETHOX  H1354957  14.957   9.956  14.318  2.3861  1.7677  1.7089
  198ETHOX   C254958  15.122   9.813  14.341  0.1540  0.1634  0.5579
  198ETHOX  H2154959  15.071   9.714  14.338  1.0680 -0.3265 -2.3664
  198ETHOX  H2354960  15.136   9.852  14.444  0.3072 -1.1983  1.0859
  199ETHOX   O154961  15.257   9.805  14.283  0.2688  0.1819  0.2315
  199ETHOX   C154962  15.343   9.731  14.369  0.4470 -0.6056 -0.6950
  199ETHOX  H1154963  15.320   9.623  14.355 -0.4650 -0.4347 -0.5585
  199ETHOX  H1354964  15.323   9.766  14.472 -1.7073 -3.3477 -0.0467
  199ETHOX   C254965  15.493   9.755  14.328  0.3804 -0.8596  0.0680
  199ETHOX  H2154966  15.509   9.734  14.220  1.1546  3.9498 -1.0052
  199ETHOX  H2354967  15.541   9.681  14.395 -1.4626 -0.7272  1.6383
  200ETHOX   O154968  15.523   9.894  14.356  0.7412  0.1322  0.0098
  200ETHOX   C154969  15.666   9.908  14.360  0.2665 -0.4964  0.3385
  200ETHOX  H1154970  15.696  10.004  14.408 -0.2697 -0.0271 -0.2335
  200ETHOX  H1354971  15.721   9.826  14.409  1.0814  0.6945  1.4921
  200ETHOX   C254972  15.704   9.930  14.209  0.0805  0.2478 -0.1806
  200ETHOX  H2154973  15.652   9.861  14.140 -0.0600  0.1813 -0.0061
  200ETHOX  H2354974  15.812   9.905  14.200 -0.0949 -0.5699 -0.0289
  201ETHOX   O154975  15.693  10.064  14.172 -0.5460 -0.5574  0.4123
  201ETHOX   C154976  15.762  10.097  14.058  0.3561 -0.6897  0.1976
  201ETHOX  H1154977  15.723  10.035  13.975 -0.6093 -0.5887  0.5717
  201ETHOX  H1354978  15.871  10.075  14.069  0.3558 -1.9396 -1.9176
  201ETHOX   C254979  15.736  10.249  14.035  0.0348  0.0083 -0.1571
  201ETHOX  H2154980  15.704  10.288  14.134 -2.0904  1.0395 -1.2044
  201ETHOX  H2354981  15.646  10.266  13.974  0.3894 -0.3549 -0.7866
  202ETHOX   O154982  15.847  10.332  14.001  0.6255 -0.1359 -0.1570
  202ETHOX   C154983  15.865  10.343  13.858 -0.2503  0.1149 -0.1180
  202ETHOX  H1154984  15.869  10.238  13.822  2.2675  0.6137 -1.5246
  202ETHOX  H1354985  15.776  10.392  13.814  1.0721  2.4387 -0.3518
  202ETHOX   C254986  15.986  10.420  13.807  0.3092 -0.5623 -0.3604
  202ETHOX  H2154987  15.965  10.522  13.845  1.0299 -1.0924  1.5961
  202ETHOX  H2354988  15.997  10.427  13.697  1.6707 -0.1587 -0.2203
  203ETHOX   O154989  16.113  10.383  13.859  0.1463 -0.3056  0.0029
  203ETHOX   C154990  16.207  10.485  13.838  0.2404  0.0655 -0.3192
  203ETHOX  H1154991  16.170  10.578  13.887 -1.0124 -0.6111  0.0571
  203ETHOX  H1354992  16.220  10.505  13.729 -3.1430  3.0406 -0.3837
  203ETHOX   C254993  16.341  10.446  13.894  0.2645 -0.1405  0.6897
  203ETHOX  H2154994  16.315  10.406  13.994 -1.4887  0.1385  0.3873
  203ETHOX  H2354995  16.389  10.544  13.914 -0.3791  0.4698 -0.6268
  204ETHOX   O154996  16.418  10.355  13.820  0.0005  0.0882  0.2314
  204ETHOX   C154997  16.545  10.346  13.880 -0.9801  0.4047  0.3631
  204ETHOX  H1154998  16.601  10.441  13.863 -2.9895  1.5721 -0.0617
  204ETHOX  H1354999  16.542  10.346  13.991 -0.8724  1.7023  0.3862
  204ETHOX   C255000  16.622  10.226  13.826 -0.7604  0.4219  0.1457
  204ETHOX  H2155001  16.631  10.231  13.716 -0.3704 -2.1452 -0.0101
  204ETHOX  H2355002  16.557  10.139  13.851 -1.3408  0.8393  0.1156
  205ETHOX   O155003  16.746  10.204  13.900 -0.1234 -0.2415 -0.5164
  205ETHOX   C155004  16.817  10.087  13.861  0.5113  0.4836 -0.3013
  205ETHOX  H1155005  16.812  10.081  13.750 -2.9977 -1.3249 -0.1915
  205ETHOX  H1355006  16.743  10.013  13.899 -0.4818  1.6343  0.0861
  205ETHOX   C255007  16.956  10.085  13.907 -0.0288 -0.0431  0.1366
  205ETHOX  H2155008  16.974   9.979  13.935 -1.0994  0.5972  3.7099
  205ETHOX  H2355009  16.975  10.140  14.002 -0.0884 -1.7480  1.1685
  206ETHOX   O155010  17.034  10.138  13.799 -0.1858  0.3656  0.5135
  206ETHOX   C155011  17.166  10.168  13.838  0.4816 -0.1051  0.4518
  206ETHOX  H1155012  17.216  10.223  13.755  0.1484  3.7874  2.5794
  206ETHOX  H1355013  17.176  10.238  13.923  2.5459 -2.3092  2.1484
  206ETHOX   C255014  17.245  10.041  13.873 -0.1494  0.3639  0.0008
  206ETHOX  H2155015  17.332  10.081  13.930 -0.8524 -0.2422  1.5508
  206ETHOX  H2355016  17.193   9.978  13.948 -0.0036 -2.1331 -1.8907
  207ETHOX   O155017  17.299   9.962  13.765  0.2867 -0.5738 -0.2450
  207ETHOX   C155018  17.416   9.884  13.809  0.1304  0.4955  0.5120
  207ETHOX  H1155019  17.373   9.795  13.860 -2.4864 -0.9825 -3.7176
  207ETHOX  H1355020  17.485   9.939  13.877 -0.5638 -1.7360  3.2196
  207ETHOX   C255021  17.497   9.823  13.695  0.0142 -0.4796  0.0860
  207ETHOX  H2155022  17.425   9.784  13.620  0.8505  0.6240 -1.3194
  207ETHOX  H2355023  17.566   9.744  13.732  0.2285 -0.6306 -0.6190
  208ETHOX   O155024  17.593   9.907  13.634 -0.1221 -0.8250 -0.2010
  208ETHOX   C155025  17.628   9.856  13.507 -0.0640  0.6239 -0.2977
  208ETHOX  H1155026  17.707   9.780  13.525 -0.6911 -0.1381 -0.7077
  208ETHOX  H1355027  17.555   9.799  13.447  1.8946  0.4562 -2.6817
  208ETHOX   C255028  17.685   9.964  13.422  0.3439 -0.2432  0.5543
  208ETHOX  H2155029  17.757  10.022  13.484  0.5166  2.5864 -2.0939
  208ETHOX  H2355030  17.613  10.046  13.399  1.5290  0.6827  0.0351
  209ETHOX   O155031  17.742   9.899  13.312 -0.0735 -0.1076 -0.0893
  209ETHOX   C155032  17.821   9.988  13.229  0.2158 -0.2515 -0.7192
  209ETHOX  H1155033  17.922   9.998  13.272  0.7493 -1.4336 -1.6379
  209ETHOX  H1355034  17.782  10.092  13.225 -0.7829 -0.5655  0.1519
  209ETHOX   C255035  17.842   9.939  13.091 -0.3206  0.5068 -0.6819
  209ETHOX  H2155036  17.873   9.833  13.104 -0.5880  0.7003  2.3455
  209ETHOX  H2355037  17.919   9.991  13.031 -0.2280 -0.5012 -1.4638
  210ETHOX   O155038  17.725   9.951  13.016  0.0379  0.3426 -0.5216
  210ETHOX   C155039  17.733   9.887  12.891  0.1456  0.9028  0.0328
  210ETHOX  H1155040  17.695   9.959  12.816 -0.1994  0.1420 -0.5299
  210ETHOX  H1355041  17.837   9.869  12.855 -0.5613 -0.4232 -1.4662
  210ETHOX   C255042  17.660   9.748  12.902  0.4240 -0.4072 -0.1029
  210ETHOX  H2155043  17.686   9.704  13.001 -0.0265 -0.4158  0.0129
  210ETHOX  H2355044  17.676   9.674  12.821  2.3191  0.0340 -0.1739
  211ETHOX   O155045  17.520   9.770  12.904 -0.1705  0.1789  0.1350
  211ETHOX   C155046  17.467   9.747  12.774  0.1247 -0.3956 -0.0076
  211ETHOX  H1155047  17.532   9.797  12.699  0.0077 -2.9231 -1.9149
  211ETHOX  H1355048  17.475   9.638  12.756 -1.1968 -0.2179 -1.8758
  211ETHOX   C255049  17.321   9.787  12.782  0.3145 -0.0740 -0.0619
  211ETHOX  H2155050  17.275   9.739  12.871 -1.4762 -0.7462 -1.2899
  211ETHOX  H2355051  17.268   9.748  12.693 -1.7025 -0.2228  1.1265
  212ETHOX   O155052  17.313   9.927  12.784 -0.1559  0.1520 -0.5257
  212ETHOX   C155053  17.179   9.967  12.799  0.5514  0.4931  0.1150
  212ETHOX  H1155054  17.170  10.071  12.761 -3.7325 -0.2490 -1.5226
  212ETHOX  H1355055  17.110   9.918  12.727 -1.4556 -0.9456  2.8047
  212ETHOX   C255056  17.109   9.961  12.936 -0.2026 -0.6401 -0.2893
  212ETHOX  H2155057  17.035  10.042  12.950  0.2567 -0.4094  0.9363
  212ETHOX  H2355058  17.190   9.975  13.011  0.1732 -1.2991 -0.5643
  213ETHOX   O155059  17.044   9.839  12.956 -0.1258 -0.3401 -0.6225
  213ETHOX   C155060  16.974   9.841  13.082  0.1890  0.3446 -0.1559
  213ETHOX  H1155061  17.027   9.875  13.174 -1.2896  3.2437 -0.2771
  213ETHOX  H1355062  16.887   9.908  13.065  0.1736 -0.0317 -1.6202
  213ETHOX   C255063  16.900   9.704  13.111 -0.8426 -0.8183 -0.1957
  213ETHOX  H2155064  16.846   9.670  13.019 -0.2179  0.0744 -0.9066
  213ETHOX  H2355065  16.815   9.721  13.181 -1.4301  1.3722 -1.3550
  214ETHOX   O155066  16.991   9.606  13.160  0.3691 -0.0465 -0.4231
  214ETHOX   C155067  16.916   9.499  13.224  0.0578 -0.2017 -0.0891
  214ETHOX  H1155068  16.815   9.487  13.179 -0.0051  1.9856 -0.6528
  214ETHOX  H1355069  16.875   9.520  13.325 -1.2801 -1.9660 -0.2176
  214ETHOX   C255070  16.992   9.367  13.219 -0.6374 -0.7566  0.2434
  214ETHOX  H2155071  16.952   9.300  13.299 -2.4315 -1.5553 -1.2438
  214ETHOX  H2355072  17.096   9.395  13.244 -1.2307  3.3779 -1.2233
  215ETHOX   O155073  16.989   9.310  13.086 -0.0568  0.5680  0.3477
  215ETHOX   C155074  17.064   9.188  13.084 -0.0177 -0.1702 -0.1242
  215ETHOX  H1155075  17.166   9.219  13.114  0.4894 -0.0348 -1.8468
  215ETHOX  H1355076  17.031   9.109  13.155  0.0110 -1.8609 -1.9086
  215ETHOX   C255077  17.069   9.124  12.941 -0.1824 -0.1060 -0.2192
  215ETHOX  H2155078  17.123   9.028  12.956  1.0290  0.3870 -1.2436
  215ETHOX  H2355079  17.127   9.183  12.867  1.0639 -1.4825 -0.3664
  216ETHOX   O155080  16.941   9.089  12.903 -0.7745 -0.4982 -0.3814
  216ETHOX   C155081  16.942   9.061  12.762  0.8469 -0.1466 -0.0634
  216ETHOX  H1155082  17.028   8.992  12.742  1.9369  1.0325  0.3948
  216ETHOX  H1355083  16.953   9.157  12.709 -2.0333 -0.3592 -1.2096
  216ETHOX   C255084  16.810   9.005  12.717  0.1542 -0.3863  0.9676
  216ETHOX  H2155085  16.824   8.981  12.609 -0.4840  4.6035 -0.4878
  216ETHOX  H2355086  16.728   9.080  12.723  1.1288  0.8706 -0.6141
  217ETHOX   O155087  16.787   8.884  12.793  0.4374 -0.4374 -0.3590
  217ETHOX   C155088  16.657   8.839  12.768 -0.1935  0.6108  0.7217
  217ETHOX  H1155089  16.587   8.921  12.794 -1.8725 -0.5063 -0.1010
  217ETHOX  H1355090  16.655   8.830  12.657  1.4885  0.2452  0.7073
  217ETHOX   C255091  16.618   8.716  12.842 -0.5820 -0.2086  0.2989
  217ETHOX  H2155092  16.704   8.646  12.847  0.5107  1.1120  0.4189
  217ETHOX  H2355093  16.534   8.673  12.782  2.1385  1.3919 -5.3547
  218ETHOX   O155094  16.585   8.743  12.972  0.2322 -0.7776  0.3358
  218ETHOX   C155095  16.529   8.622  13.028 -0.3945 -0.2745 -0.0560
  218ETHOX  H1155096  16.609   8.545  13.022 -0.7935 -0.6728 -0.3377
  218ETHOX  H1355097  16.437   8.588  12.976 -1.5354  2.6088 -0.1125
  218ETHOX   C255098  16.496   8.646  13.176  0.4608  0.2906  0.1440
  218ETHOX  H2155099  16.457   8.549  13.213  0.2456  0.1230 -0.5074
  218ETHOX  H2355100  16.418   8.725  13.177 -0.4775 -0.6344  1.1442
  219ETHOX   O155101  16.610   8.676  13.255  0.6960 -0.3570 -0.2196
  219ETHOX   C155102  16.572   8.717  13.384 -0.1765  0.1436  1.0273
  219ETHOX  H1155103  16.532   8.820  13.371 -1.2955 -0.2769  1.0378
  219ETHOX  H1355104  16.489   8.649  13.412 -1.7098  0.4822 -2.2003
  219ETHOX   C255105  16.694   8.707  13.477 -0.2728  0.0120 -0.7109
  219ETHOX  H2155106  16.675   8.752  13.577 -2.1589  0.1646 -1.1011
  219ETHOX  H2355107  16.781   8.752  13.425 -0.3602  0.2238 -0.6698
  220ETHOX   O155108  16.729   8.571  13.497  0.2301 -0.2992 -0.1811
  220ETHOX   C155109  16.843   8.560  13.581 -0.2757  0.4463  0.0038
  220ETHOX  H1155110  16.864   8.654  13.637  1.5206  0.7615 -1.0991
  220ETHOX  H1355111  16.931   8.543  13.515 -1.0966 -2.6029 -0.4351
  220ETHOX   C255112  16.829   8.446  13.676  0.9939 -0.2347 -0.0618
  220ETHOX  H2155113  16.736   8.443  13.736  1.1950  0.2608  0.2851
  220ETHOX  H2355114  16.913   8.433  13.747  0.1620 -1.6012  0.7088
  221ETHOX   O155115  16.837   8.324  13.604  0.0276 -0.2979  0.0011
  221ETHOX   C155116  16.782   8.216  13.669  0.1723 -0.6340 -0.0027
  221ETHOX  H1155117  16.674   8.238  13.667  0.8910  3.6986  0.1123
  221ETHOX  H1355118  16.805   8.136  13.595  4.0729 -1.6444  1.9892
  221ETHOX   C255119  16.853   8.175  13.804  0.0736 -0.0646  0.0447
  221ETHOX  H2155120  16.960   8.205  13.807  0.2932 -0.9261  2.3589
  221ETHOX  H2355121  16.840   8.067  13.824  0.0466  0.0725  0.7809
  222ETHOX   O155122  16.785   8.251  13.907 -0.3743 -0.1448  0.3026
  222ETHOX   C155123  16.816   8.202  14.042  0.4422  0.0944  1.3319
  222ETHOX  H1155124  16.778   8.097  14.039 -1.5132  0.7933 -0.3444
  222ETHOX  H1355125  16.927   8.207  14.052  0.5372  4.6184 -0.1278
  222ETHOX   C255126  16.741   8.281  14.153 -0.5047 -0.0617  0.8921
  222ETHOX  H2155127  16.755   8.389  14.131 -0.3366  0.2022  2.2025
  222ETHOX  H2355128  16.785   8.244  14.248  0.3023 -0.8363  0.2351
  223ETHOX   O155129  16.604   8.242  14.156 -0.6671  0.6354  0.1382
  223ETHOX   C155130  16.545   8.301  14.270  0.7565  0.4581 -0.1636
  223ETHOX  H1155131  16.601   8.267  14.360 -0.5216 -0.8137  0.2027
  223ETHOX  H1355132  16.542   8.410  14.254  2.0673  0.2663 -2.0130
  223ETHOX   C255133  16.401   8.257  14.301  0.0751 -0.0940  0.1190
  223ETHOX  H2155134  16.325   8.269  14.221 -2.2441 -1.1992  2.0437
  223ETHOX  H2355135  16.359   8.323  14.380 -2.2989 -0.9461 -0.3449
  224ETHOX   O155136  16.405   8.122  14.344 -0.6346 -0.0951 -0.1363
  224ETHOX   C155137  16.296   8.090  14.427  0.7678 -0.4404  0.2779
  224ETHOX  H1155138  16.314   8.137  14.527  0.4512 -2.7615  1.4902
  224ETHOX  H1355139  16.205   8.130  14.376  0.8776 -1.1575 -0.4891
  224ETHOX   C255140  16.293   7.939  14.435 -0.0485 -0.2038 -0.0796
  224ETHOX  H2155141  16.277   7.902  14.332 -1.1206  0.8647 -0.3151
  224ETHOX  H2355142  16.200   7.929  14.495 -0.5740  1.7079 -0.5150
  225ETHOX   O155143  16.410   7.878  14.503  0.3798 -0.3188 -0.1061
  225ETHOX   C155144  16.383   7.735  14.519 -0.8078 -0.6034  0.3264
  225ETHOX  H1155145  16.306   7.707  14.444 -0.7933 -1.1987  0.5217
  225ETHOX  H1355146  16.331   7.702  14.612 -2.1516 -0.4070 -0.3304
  225ETHOX   C255147  16.519   7.662  14.519  0.1198 -0.3368 -0.0300
  225ETHOX  H2155148  16.499   7.555  14.537 -0.0898 -0.7360 -2.3673
  225ETHOX  H2355149  16.581   7.703  14.602 -2.4475  0.4936  1.6129
  226ETHOX   O155150  16.583   7.684  14.393  0.5733  0.3680  0.0881
  226ETHOX   C155151  16.709   7.622  14.392  0.2619  0.4467 -0.1548
  226ETHOX  H1155152  16.769   7.680  14.465  0.6202 -1.8764  1.5112
  226ETHOX  H1355153  16.696   7.515  14.422  1.6985  0.4747  0.6929
  226ETHOX   C255154  16.770   7.627  14.250  0.7303  0.8266 -0.2663
  226ETHOX  H2155155  16.878   7.608  14.265  0.3023 -3.9577 -1.4534
  226ETHOX  H2355156  16.753   7.724  14.199  0.2309  0.6217 -0.5003
  227ETHOX   O155157  16.724   7.512  14.175 -0.6754  0.0790 -0.1905
  227ETHOX   C155158  16.742   7.522  14.037  0.0402 -0.1539 -0.4544
  227ETHOX  H1155159  16.848   7.500  14.012  0.3197 -0.0856  0.5985
  227ETHOX  H1355160  16.731   7.629  14.008 -0.1578 -0.2939 -0.9007
  227ETHOX   C255161  16.647   7.428  13.959 -0.4545 -0.2233  0.3355
  227ETHOX  H2155162  16.678   7.326  13.990  1.5490  0.7886  1.9291
  227ETHOX  H2355163  16.653   7.448  13.850  1.1704  1.2788  0.6619
  228ETHOX   O155164  16.515   7.439  14.005  0.4100  0.0193  0.5164
  228ETHOX   C155165  16.434   7.326  13.957 -0.3004  0.5992 -0.0137
  228ETHOX  H1155166  16.438   7.312  13.847  0.1846  1.2227 -0.0779
  228ETHOX  H1355167  16.475   7.233  14.002  1.2312  1.6727  0.9174
  228ETHOX   C255168  16.287   7.331  14.010  0.0311 -0.5012 -0.0046
  228ETHOX  H2155169  16.293   7.371  14.114  1.8417 -0.2513 -0.1708
  228ETHOX  H2355170  16.239   7.232  14.001  2.4481 -1.8648  1.0633
  229ETHOX   O155171  16.208   7.421  13.925  0.6569 -0.3245 -0.4049
  229ETHOX   C155172  16.079   7.432  13.992  0.8231 -0.0246  0.0832
  229ETHOX  H1155173  16.090   7.486  14.089  3.1829  1.5191 -0.9608
  229ETHOX  H1355174  16.021   7.337  13.998  1.9109 -0.6694  0.9150
  229ETHOX   C255175  15.995   7.535  13.914  0.7815  0.2896  0.2703
  229ETHOX  H2155176  16.038   7.638  13.921 -1.4682  1.1600  3.1920
  229ETHOX  H2355177  15.898   7.551  13.964  0.4260  0.2186 -0.3907
  230ETHOX   O155178  15.970   7.498  13.777 -0.6202 -0.1765 -0.2279
  230ETHOX   C155179  15.859   7.411  13.765 -0.0124  0.0800 -0.9165
  230ETHOX  H1155180  15.878   7.327  13.835 -4.3320  0.1085  0.5338
  230ETHOX  H1355181  15.763   7.461  13.791 -0.8564 -2.3382  1.0003
  230ETHOX   C255182  15.857   7.348  13.630  0.0695 -0.2140  0.2385
  230ETHOX  H2155183  15.770   7.278  13.632 -0.4683  0.4435  1.0581
  230ETHOX  H2355184  15.955   7.304  13.606 -0.4999 -0.7184 -1.2413
  231ETHOX   O155185  15.816   7.421  13.522 -0.2937 -0.8553 -0.2059
  231ETHOX   C155186  15.909   7.513  13.473  0.2576 -0.4764  0.4656
  231ETHOX  H1155187  15.999   7.456  13.441 -0.8131 -1.3780 -1.0623
  231ETHOX  H1355188  15.937   7.587  13.551 -3.5657  1.1550  0.5025
  231ETHOX   C255189  15.859   7.592  13.351  0.2751 -0.3028 -0.2516
  231ETHOX  H2155190  15.810   7.518  13.284  0.7299 -2.0683  1.3032
  231ETHOX  H2355191  15.943   7.636  13.292  0.2346  0.2683  0.1114
  232ETHOX   O155192  15.759   7.692  13.374 -0.0938 -0.5735 -0.2471
  232ETHOX   C155193  15.746   7.778  13.259  0.0646  0.0700 -0.1235
  232ETHOX  H1155194  15.847   7.799  13.217  0.0997  0.8160  0.3001
  232ETHOX  H1355195  15.688   7.721  13.183  1.3280 -2.1750  0.4947
  232ETHOX   C255196  15.670   7.907  13.293 -0.0475 -0.1818  1.2711
  232ETHOX  H2155197  15.660   7.959  13.196 -0.2462  0.6254  1.7126
  232ETHOX  H2355198  15.748   7.964  13.349  1.7013 -1.5621  0.3669
  233ETHOX   O155199  15.540   7.906  13.349  0.1517 -0.4594 -0.1607
  233ETHOX   C155200  15.476   8.033  13.323 -0.3267  0.6318 -0.1532
  233ETHOX  H1155201  15.550   8.112  13.348  1.8708 -0.5448 -2.4625
  233ETHOX  H1355202  15.451   8.038  13.215 -1.8071 -1.6525  0.0027
  233ETHOX   C255203  15.349   8.030  13.404  0.5060  0.0845  0.2271
  233ETHOX  H2155204  15.290   7.940  13.379  1.5232 -0.4313 -0.3704
  233ETHOX  H2355205  15.284   8.117  13.379 -0.4959 -0.0695  2.1416
  234ETHOX   O155206  15.367   8.040  13.542  0.6250 -0.9084 -0.5136
  234ETHOX   C155207  15.269   8.115  13.610  1.1855  0.3483  0.4049
  234ETHOX  H1155208  15.276   8.215  13.562  1.6896 -1.0746 -2.8028
  234ETHOX  H1355209  15.175   8.057  13.598  1.3377 -0.4574  2.6206
  234ETHOX   C255210  15.302   8.138  13.761  0.4894 -0.2387  0.8479
  234ETHOX  H2155211  15.241   8.220  13.803  0.4405  0.9274 -1.3850
  234ETHOX  H2355212  15.405   8.178  13.766  0.0124  1.1535 -0.0703
  235ETHOX   O155213  15.285   8.025  13.835  0.7122  1.0384  0.7009
  235ETHOX   C155214  15.311   8.043  13.974  0.0373  0.3313 -0.5192
  235ETHOX  H1155215  15.402   8.105  13.976 -0.0333  0.5488 -2.3107
  235ETHOX  H1355216  15.224   8.107  14.001  0.0484  1.0108 -1.9979
  235ETHOX   C255217  15.311   7.917  14.064  0.2197  0.0812 -0.3773
  235ETHOX  H2155218  15.211   7.869  14.065 -1.1104  2.4808 -3.0502
  235ETHOX  H2355219  15.340   7.960  14.163  1.6730  1.4643 -1.3656
  236ETHOX   O155220  15.422   7.830  14.039 -0.2367 -0.0746 -0.2937
  236ETHOX   C155221  15.419   7.731  14.143 -0.0944 -1.4610  0.6746
  236ETHOX  H1155222  15.323   7.675  14.134 -0.1196 -1.3335  0.0910
  236ETHOX  H1355223  15.419   7.774  14.245  1.0487 -1.1755  0.5750
  236ETHOX   C255224  15.542   7.642  14.127 -0.2707 -0.3748  0.2491
  236ETHOX  H2155225  15.542   7.607  14.022 -0.4319  1.2430 -0.3143
  236ETHOX  H2355226  15.520   7.555  14.193  0.4031 -0.0703  0.8865
  237ETHOX   O155227  15.674   7.683  14.158  0.4340  0.9215  0.4031
  237ETHOX   C155228  15.731   7.770  14.062 -0.3942 -0.4223 -0.7588
  237ETHOX  H1155229  15.748   7.711  13.970  1.3649 -0.8164 -0.2123
  237ETHOX  H1355230  15.668   7.857  14.034  3.0862  3.0791  1.2981
  237ETHOX   C255231  15.871   7.822  14.115  0.0615 -0.2716  0.4577
  237ETHOX  H2155232  15.950   7.745  14.109  2.6274  2.2072  0.1027
  237ETHOX  H2355233  15.849   7.839  14.222 -1.4160 -1.0022  0.2923
  238ETHOX   O155234  15.913   7.948  14.055 -0.3856  0.5691 -0.3893
  238ETHOX   C155235  16.044   7.993  14.090  0.0152 -1.2335 -0.5604
  238ETHOX  H1155236  16.117   7.918  14.051  1.5698 -0.2947  0.4172
  238ETHOX  H1355237  16.062   7.994  14.200 -0.5434 -0.8825 -0.4707
  238ETHOX   C255238  16.068   8.128  14.028  0.0837 -0.3937  0.1725
  238ETHOX  H2155239  16.038   8.127  13.922 -0.4442  0.3872  0.3079
  238ETHOX  H2355240  16.178   8.137  14.040  0.4742 -3.0535 -0.7795
  239ETHOX   O155241  16.014   8.235  14.101  0.1570 -0.0076 -0.1661
  239ETHOX   C155242  16.027   8.357  14.017  0.0229  0.2766 -0.1676
  239ETHOX  H1155243  16.132   8.394  14.016 -0.2162  1.0034  0.4511
  239ETHOX  H1355244  16.004   8.350  13.909  0.2334  1.5862 -0.3219
  239ETHOX   C255245  15.945   8.478  14.075  0.2268 -0.4464  0.0731
  239ETHOX  H2155246  15.924   8.550  13.993  0.3598  1.4966  1.6721
  239ETHOX  H2355247  15.846   8.446  14.114  0.8178  0.3188  2.3257
  240ETHOX   O155248  16.023   8.556  14.165 -0.4426 -0.0852  0.3635
  240ETHOX   C155249  15.950   8.675  14.208 -0.7668 -0.3278  0.2782
  240ETHOX  H1155250  15.845   8.651  14.237 -1.4122  0.0676 -1.5940
  240ETHOX  H1355251  15.961   8.758  14.134  2.2102 -0.7918  0.0804
  240ETHOX   C255252  16.020   8.739  14.323 -0.3264 -0.1357 -0.5144
  240ETHOX  H2155253  16.030   8.663  14.403  2.7355  1.5111  0.8763
  240ETHOX  H2355254  15.941   8.811  14.354  0.4116  0.5155 -0.0808
  241ETHOX   O155255  16.137   8.813  14.294  0.7203  0.1019  0.6490
  241ETHOX   C155256  16.184   8.900  14.398 -0.4175  0.0991 -0.2937
  241ETHOX  H1155257  16.130   8.995  14.415  1.9739  1.7405 -1.3055
  241ETHOX  H1355258  16.182   8.851  14.497  0.0859  2.0185  0.7078
  241ETHOX   C255259  16.331   8.955  14.377 -0.6445 -0.1563 -0.7654
  241ETHOX  H2155260  16.390   8.865  14.350 -0.2225 -0.2850  0.5027
  241ETHOX  H2355261  16.366   8.995  14.475  1.3269 -2.1510 -0.5650
  242ETHOX   O155262  16.329   9.062  14.285 -0.5715  0.3563  0.4240
  242ETHOX   C155263  16.309   9.190  14.333 -0.5602 -0.7245 -0.6038
  242ETHOX  H1155264  16.376   9.214  14.418  1.5187  0.4742 -2.4812
  242ETHOX  H1355265  16.203   9.203  14.363  0.3783  0.1662  2.8617
  242ETHOX   C255266  16.335   9.298  14.222  0.1249  0.0357  0.1135
  242ETHOX  H2155267  16.290   9.392  14.261  0.7962  0.6259 -0.4986
  242ETHOX  H2355268  16.279   9.259  14.134 -0.6132 -0.8726  0.9629
  243ETHOX   O155269  16.479   9.303  14.184  0.6642 -0.5153 -0.2059
  243ETHOX   C155270  16.514   9.405  14.087  0.4566  0.2756 -0.0589
  243ETHOX  H1155271  16.447   9.378  14.002 -1.3924  3.7201  0.1232
  243ETHOX  H1355272  16.488   9.507  14.122  1.7006  0.6197 -0.0778
  243ETHOX   C255273  16.669   9.401  14.052  0.4191  0.3891 -0.6920
  243ETHOX  H2155274  16.691   9.500  14.008 -0.9096  0.7737 -0.5300
  243ETHOX  H2355275  16.688   9.315  13.984  1.9662  0.9122 -0.9503
  244ETHOX   O155276  16.761   9.369  14.157 -0.5053  0.1376  0.1008
  244ETHOX   C155277  16.897   9.397  14.120 -0.2250  0.0138 -0.1063
  244ETHOX  H1155278  16.894   9.495  14.069  0.6305  0.0958 -0.0011
  244ETHOX  H1355279  16.940   9.315  14.059  0.4416  0.2052  0.1052
  244ETHOX   C255280  16.995   9.393  14.247 -0.0294 -0.4931 -0.0212
  244ETHOX  H2155281  17.094   9.379  14.199  0.3150 -1.1754  0.8677
  244ETHOX  H2355282  16.970   9.316  14.323 -1.3103  0.2888  0.3801
  245ETHOX   O155283  17.011   9.519  14.307  0.3904 -0.5889 -0.5891
  245ETHOX   C155284  17.087   9.509  14.421 -0.8178  0.1353  0.4418
  245ETHOX  H1155285  17.048   9.431  14.490  0.1700 -1.1481 -0.4113
  245ETHOX  H1355286  17.188   9.481  14.384 -0.8452  0.3736  0.1834
  245ETHOX   C255287  17.107   9.638  14.501  0.6399 -0.4503 -0.2604
  245ETHOX  H2155288  17.131   9.720  14.431 -2.7669 -0.1698 -1.2827
  245ETHOX  H2355289  17.188   9.615  14.573  0.7165 -0.1243 -0.2454
  246ETHOX   O155290  16.986   9.676  14.577  0.4269  0.0455  0.8036
  246ETHOX   C155291  16.978   9.820  14.601 -0.2813  0.1840  0.1511
  246ETHOX  H1155292  16.954   9.865  14.503 -2.8228 -3.4620 -1.1421
  246ETHOX  H1355293  17.078   9.854  14.635 -0.1984  1.2778 -1.1300
  246ETHOX   C255294  16.870   9.856  14.709  0.2027 -0.5773  0.7015
  246ETHOX  H2155295  16.769   9.820  14.680 -0.8125  1.2474  1.7630
  246ETHOX  H2355296  16.865   9.967  14.715  0.3759 -0.4852 -0.6836
  247ETHOX   O155297  16.907   9.808  14.838  0.0733 -0.2719  0.6667
  247ETHOX   C155298  16.801   9.844  14.924 -0.3138 -0.0008 -0.8378
  247ETHOX  H1155299  16.768   9.948  14.903  0.7367  0.3274 -0.9383
  247ETHOX  H1355300  16.712   9.785  14.893 -1.9252  2.8049 -1.9745
  247ETHOX   C255301  16.839   9.808  15.073 -0.7877  0.1478  0.5555
  247ETHOX  H2155302  16.757   9.770  15.139 -0.0729 -0.5262  1.0827
  247ETHOX  H2355303  16.911   9.723  15.070  0.0207  0.8398  0.0854
  248ETHOX   O155304  16.904   9.907  15.159  0.7064 -0.0416  0.4849
  248ETHOX   C155305  16.926   9.851  15.286  0.2928  0.5927  0.0241
  248ETHOX  H1155306  16.842   9.800  15.338  1.4594  0.3156  1.6892
  248ETHOX  H1355307  17.008   9.777  15.278  0.9549  1.3425 -0.2592
  248ETHOX   C255308  16.962   9.968  15.375 -0.2487  0.1354  0.6787
  248ETHOX  H2155309  16.975   9.946  15.483 -0.4373 -0.2397  0.6273
  248ETHOX  H2355310  16.879  10.042  15.381  0.8640  1.2765  2.6327
  249ETHOX   O155311  17.077  10.035  15.343  0.9476 -0.0358 -0.4183
  249ETHOX   C155312  17.069  10.170  15.391 -0.5871  0.4543  0.4879
  249ETHOX  H1155313  16.986  10.232  15.350  0.0760  0.7946 -0.3549
  249ETHOX  H1355314  17.049  10.166  15.501 -0.5325  1.6026  0.5549
  249ETHOX   C255315  17.206  10.230  15.387  0.0681 -0.1502 -0.7401
  249ETHOX  H2155316  17.281  10.163  15.434  0.6550  1.7793  1.2128
  249ETHOX  H2355317  17.212  10.322  15.448  0.3786 -0.5072 -0.2233
  250ETHOX   O155318  17.230  10.247  15.248 -0.0123 -0.8178  0.1856
  250ETHOX   C155319  17.369  10.286  15.221 -0.2977  0.5662  0.8451
  250ETHOX  H1155320  17.391  10.390  15.253  2.5563  0.0132  0.9009
  250ETHOX  H1355321  17.426  10.217  15.286 -0.6914  0.1472  0.7477
  250ETHOX   C255322  17.409  10.275  15.071 -0.8028 -0.1086  0.4118
  250ETHOX  H2155323  17.368  10.187  15.018  1.2273 -0.4115 -0.7619
  250ETHOX  H2355324  17.519  10.267  15.083 -1.0623 -2.8918  1.7696
  251ETHOX   O155325  17.380  10.406  15.001  0.0798  0.3087 -0.0565
  251ETHOX   C155326  17.281  10.386  14.909 -0.4490 -0.0398  0.4399
  251ETHOX  H1155327  17.204  10.313  14.942 -0.9414 -1.7287 -3.7263
  251ETHOX  H1355328  17.335  10.343  14.822  1.4548  1.6319  0.7382
  251ETHOX   C255329  17.204  10.507  14.861  0.8306 -0.1302 -0.9015
  251ETHOX  H2155330  17.160  10.483  14.761  3.1510  1.6190 -2.4604
  251ETHOX  H2355331  17.283  10.582  14.838  1.0304  0.2004  0.7743
  252ETHOX   O155332  17.095  10.548  14.944 -0.4917  0.8023  0.1146
  252ETHOX   C155333  17.143  10.590  15.069 -0.4662  0.6022  0.0397
  252ETHOX  H1155334  17.156  10.503  15.136  1.7590  0.1889 -0.8554
  252ETHOX  H1355335  17.243  10.639  15.067 -1.3668  2.5349  0.1176
  252ETHOX   C255336  17.046  10.686  15.145 -0.7926 -1.1511  0.3895
  252ETHOX  H2155337  17.023  10.766  15.071 -1.6005 -1.5538  0.2056
  252ETHOX  H2355338  17.085  10.725  15.242 -3.5571  2.4519  0.2450
  253ETHOX   O155339  16.920  10.630  15.172  0.1661  0.4506 -0.0684
  253ETHOX   C155340  16.908  10.556  15.290  0.0117 -0.0044 -0.0500
  253ETHOX  H1155341  16.930  10.622  15.376  2.8603 -2.5666  1.3857
  253ETHOX  H1355342  16.984  10.476  15.301  0.5417  0.6755  1.4695
  253ETHOX   C255343  16.764  10.495  15.308  0.2888  0.1496 -0.6442
  253ETHOX  H2155344  16.775  10.403  15.370 -0.2903 -1.1588 -2.4194
  253ETHOX  H2355345  16.728  10.454  15.211  1.4501 -1.3308 -0.4723
  254ETHOX   O155346  16.668  10.585  15.372  0.2904 -0.2585 -0.0667
  254ETHOX   C155347  16.535  10.565  15.333 -0.1826 -1.4440  0.1678
  254ETHOX  H1155348  16.522  10.463  15.291 -0.1567 -0.5521 -2.1434
  254ETHOX  H1355349  16.460  10.588  15.412 -1.0856  0.5013 -1.1520
  254ETHOX   C255350  16.497  10.661  15.222 -0.1519  0.4412 -0.2268
  254ETHOX  H2155351  16.421  10.605  15.163 -0.1614 -0.4165  0.5713
  254ETHOX  H2355352  16.590  10.680  15.165  1.4037 -0.5653  1.8601
  255ETHOX   O155353  16.443  10.782  15.270  0.2554 -0.2789  0.5163
  255ETHOX   C155354  16.444  10.884  15.165  0.0326  0.0317 -0.8219
  255ETHOX  H1155355  16.385  10.970  15.204 -4.7516 -2.9392 -0.7188
  255ETHOX  H1355356  16.381  10.854  15.079 -0.2341 -1.8825 -0.0069
  255ETHOX   C255357  16.575  10.944  15.119 -0.3008 -0.2081  0.1861
  255ETHOX  H2155358  16.555  11.026  15.046 -0.9299 -0.7066 -0.2174
  255ETHOX  H2355359  16.639  10.875  15.061 -1.4410 -0.2022 -1.1439
  256ETHOX   O155360  16.646  10.994  15.228 -0.3930  0.0928 -0.0378
  256ETHOX   C155361  16.769  10.925  15.248  0.9264 -1.1425 -0.7538
  256ETHOX  H1155362  16.756  10.818  15.276  2.5215 -1.4321 -1.0420
  256ETHOX  H1355363  16.824  10.920  15.152  1.5259  1.5639 -0.6316
  256ETHOX   C255364  16.842  11.001  15.363 -0.1943 -0.0174  0.2331
  256ETHOX  H2155365  16.939  10.949  15.378  0.3133  1.0793  0.8464
  256ETHOX  H2355366  16.790  10.987  15.460  2.1293 -1.0793  1.3988
  257ETHOX   O155367  16.876  11.138  15.336  0.7224 -0.0195 -0.6167
  257ETHOX   C155368  16.982  11.184  15.422  0.3595  0.2779 -0.2150
  257ETHOX  H1155369  17.065  11.112  15.439  1.0872  1.1272 -0.1397
  257ETHOX  H1355370  16.932  11.198  15.520  0.4346 -0.6971 -0.0251
  257ETHOX   C255371  17.039  11.317  15.369  0.3729 -0.3002  0.0031
  257ETHOX  H2155372  16.958  11.392  15.364  0.9173  0.3182  0.3474
  257ETHOX  H2355373  17.080  11.281  15.272  1.7636  0.0957  0.4220
  258ETHOX   O155374  17.140  11.368  15.447  0.0959 -0.9466 -0.4076
  258ETHOX   C155375  17.201  11.482  15.392 -0.1905 -0.8146  0.0266
  258ETHOX  H1155376  17.258  11.460  15.299  2.9098  1.1749  1.3196
  258ETHOX  H1355377  17.125  11.561  15.371  0.1118 -0.7679 -0.9501
  258ETHOX   C255378  17.302  11.537  15.491 -0.3416 -0.1204 -0.1881
  258ETHOX  H2155379  17.240  11.547  15.583 -1.2922 -1.0040 -0.7197
  258ETHOX  H2355380  17.335  11.642  15.474 -2.0465  0.1556 -2.2964
  259ETHOX   O155381  17.415  11.448  15.508 -0.1757 -1.1626  0.0998
  259ETHOX   C155382  17.513  11.508  15.581  0.6589 -0.6605  0.2042
  259ETHOX  H1155383  17.539  11.598  15.522 -1.8304  0.8624  1.2711
  259ETHOX  H1355384  17.463  11.543  15.674 -2.2454  0.9811 -1.8175
  259ETHOX   C255385  17.622  11.413  15.610  0.6917 -0.7090  0.0312
  259ETHOX  H2155386  17.584  11.326  15.667 -1.4552 -0.6682 -1.1925
  259ETHOX  H2355387  17.685  11.468  15.683 -0.0373 -0.5659  0.5720
  260ETHOX   O155388  17.690  11.369  15.490  0.5840 -0.6119 -0.3988
  260ETHOX   C155389  17.835  11.373  15.498  0.1100 -0.4053 -0.6023
  260ETHOX  H1155390  17.866  11.480  15.492  1.8800 -0.5882  2.6595
  260ETHOX  H1355391  17.864  11.332  15.597 -1.7354 -1.6031 -0.5121
  260ETHOX   C255392  17.890  11.285  15.390 -0.3408 -0.5265 -0.5950
  260ETHOX  H2155393  17.871  11.176  15.391 -0.2481 -0.5629 -1.8067
  260ETHOX  H2355394  18.000  11.287  15.404 -0.5003  0.8929  0.7418
  261ETHOX   O155395  17.865  11.343  15.266  0.2003 -0.2308 -0.3798
  261ETHOX   C155396  17.860  11.246  15.161 -0.7855 -0.1981 -0.0119
  261ETHOX  H1155397  17.958  11.193  15.159  0.2898  1.7140 -0.2108
  261ETHOX  H1355398  17.780  11.169  15.172 -2.0728  1.2882  1.6664
  261ETHOX   C255399  17.845  11.315  15.023  0.1231  0.0669  0.0487
  261ETHOX  H2155400  17.862  11.241  14.942 -0.0397  1.9427 -1.7899
  261ETHOX  H2355401  17.920  11.396  15.009 -0.8853  1.4844  2.2853
  262ETHOX   O155402  17.713  11.354  15.004 -0.3455 -0.1920  0.8013
  262ETHOX   C155403  17.689  11.418  14.877  0.9871  0.2934  0.4885
  262ETHOX  H1155404  17.585  11.402  14.841  0.6330  2.4604  0.4574
  262ETHOX  H1355405  17.748  11.371  14.795  1.9302 -1.7330  2.2388
  262ETHOX   C255406  17.728  11.566  14.869 -0.4893 -0.0488 -0.5797
  262ETHOX  H2155407  17.658  11.614  14.940  1.4643  1.9144  0.1431
  262ETHOX  H2355408  17.701  11.615  14.773  0.3680 -1.2552 -1.4773
  263ETHOX   O155409  17.863  11.598  14.902 -0.0825 -0.1382 -0.0673
  263ETHOX   C155410  17.873  11.730  14.950  0.0721 -0.3822  0.4846
  263ETHOX  H1155411  17.804  11.754  15.034 -0.1386  0.1804  0.1512
  263ETHOX  H1355412  17.839  11.796  14.868 -0.6913 -1.1859  0.1373
  263ETHOX   C255413  18.014  11.764  14.990 -0.2889 -0.1564 -0.0777
  263ETHOX  H2155414  18.039  11.681  15.060  2.1310 -1.7134 -2.5636
  263ETHOX  H2355415  18.014  11.865  15.036 -1.3527 -0.6989  1.1506
  264ETHOX   O155416  18.102  11.762  14.877 -0.3152  0.6053 -0.2011
  264ETHOX   C155417  18.233  11.797  14.916  0.6722 -0.0315  0.7730
  264ETHOX  H1155418  18.269  11.729  14.996  3.1543 -1.4350 -1.3836
  264ETHOX  H1355419  18.235  11.900  14.958 -1.3244  0.4732 -0.2363
  264ETHOX   C255420  18.340  11.775  14.805 -0.4154 -0.1951  0.2841
  264ETHOX  H2155421  18.301  11.701  14.732 -0.8351 -2.9765  3.1502
  264ETHOX  H2355422  18.430  11.737  14.858  0.0338 -0.1755 -0.4391
  265ETHOX   O155423  18.383  11.897  14.738  1.3549  0.5415 -0.2445
  265ETHOX   C155424  18.475  11.865  14.636  0.7367 -0.2404  0.1319
  265ETHOX  H1155425  18.571  11.834  14.683 -0.9780 -2.8581  2.1539
  265ETHOX  H1355426  18.430  11.783  14.576 -0.1319 -0.1718  0.6726
  265ETHOX   C255427  18.510  11.983  14.547  0.6018 -0.0131 -0.3525
  265ETHOX  H2155428  18.620  11.997  14.537  0.8853 -2.0385 -0.3862
  265ETHOX  H2355429  18.478  12.073  14.605  2.6399  1.1488 -0.9497
  265ETHOX   OZ55430  18.451  11.978  14.415  0.0412 -0.4598  0.6433
  265ETHOX  HZ155431  18.399  12.056  14.394 -1.5188 -1.7415 -0.4699
    1ETHOX   O155432   6.742  11.252  14.282 -0.1867 -0.0198 -0.0728
    1ETHOX  HO155433   6.723  11.236  14.190  1.0844  1.7235 -0.6870
    1ETHOX   C155434   6.646  11.198  14.361 -0.2022  0.8546 -0.7598
    1ETHOX  H1155435   6.671  11.203  14.469  0.9081  0.1722 -0.9784
    1ETHOX  H1355436   6.621  11.093  14.335 -0.0922  0.1624  1.6783
    1ETHOX   C255437   6.518  11.274  14.322  0.1262  0.2739  0.0493
    1ETHOX  H2155438   6.537  11.382  14.336  3.2900 -0.5775  4.2347
    1ETHOX  H2355439   6.435  11.248  14.392 -1.1213 -1.3348 -1.8993
    2ETHOX   O155440   6.482  11.226  14.193 -0.1263 -0.5993  0.2140
    2ETHOX   C155441   6.376  11.295  14.131 -0.1475 -0.3394 -0.6869
    2ETHOX  H1155442   6.283  11.262  14.182  0.8900 -0.9174  0.9334
    2ETHOX  H1355443   6.396  11.403  14.142 -1.0237 -0.0157 -2.0650
    2ETHOX   C255444   6.361  11.262  13.986 -0.5782  0.2689  0.2781
    2ETHOX  H2155445   6.281  11.328  13.948 -2.1443 -1.2861  0.7538
    2ETHOX  H2355446   6.341  11.156  13.958  0.9509  0.2029 -0.6917
    3ETHOX   O155447   6.487  11.300  13.933 -0.0287  0.2544 -0.7339
    3ETHOX   C155448   6.475  11.306  13.791  0.3908  0.1974 -0.4639
    3ETHOX  H1155449   6.406  11.389  13.765  2.6436  2.0995 -0.6919
    3ETHOX  H1355450   6.424  11.213  13.757  0.8601  0.4761 -2.0496
    3ETHOX   C255451   6.608  11.323  13.719  0.3754  0.2745 -0.1039
    3ETHOX  H2155452   6.583  11.306  13.612 -0.4072 -0.2861  0.1609
    3ETHOX  H2355453   6.665  11.245  13.773 -0.8618 -1.0706 -0.6881
    4ETHOX   O155454   6.679  11.449  13.743  0.5608 -0.0407  0.1129
    4ETHOX   C155455   6.766  11.443  13.854 -0.0749 -0.6473 -1.1141
    4ETHOX  H1155456   6.710  11.426  13.949 -1.5891  0.1501 -1.8172
    4ETHOX  H1355457   6.838  11.360  13.840  1.2287  0.5007 -1.3905
    4ETHOX   C255458   6.840  11.576  13.874 -0.2219 -0.6009 -0.3043
    4ETHOX  H2155459   6.907  11.566  13.962  1.1512 -1.2454 -1.3889
    4ETHOX  H2355460   6.766  11.659  13.881 -0.8123 -1.0650 -0.9764
    5ETHOX   O155461   6.936  11.614  13.768  0.5714  0.0215 -0.6840
    5ETHOX   C155462   6.995  11.741  13.780 -0.1267 -0.2316 -1.2840
    5ETHOX  H1155463   6.927  11.826  13.756 -2.3539 -1.4165  0.4063
    5ETHOX  H1355464   7.031  11.747  13.886 -2.1646 -2.0154 -0.4257
    5ETHOX   C255465   7.111  11.748  13.687 -0.4474  0.2151 -0.3529
    5ETHOX  H2155466   7.195  11.683  13.720  1.7351  3.2209  0.3327
    5ETHOX  H2355467   7.166  11.844  13.691  1.5020 -0.8550  3.4581
    6ETHOX   O155468   7.066  11.719  13.557  0.6572  0.6284  0.7116
    6ETHOX   C155469   7.178  11.697  13.471  0.2906 -0.0233 -0.6497
    6ETHOX  H1155470   7.254  11.778  13.472  1.1072 -0.7762  0.0651
    6ETHOX  H1355471   7.229  11.602  13.498 -1.0708 -0.1496  1.7879
    6ETHOX   C255472   7.120  11.692  13.331 -0.4452 -0.2122 -0.6004
    6ETHOX  H2155473   7.024  11.638  13.315  0.0331 -1.0968 -0.5417
    6ETHOX  H2355474   7.192  11.657  13.254  0.8066  0.7927  0.0928
    7ETHOX   O155475   7.111  11.824  13.286 -0.0290  0.0404 -0.3081
    7ETHOX   C155476   7.094  11.833  13.147 -0.2232 -0.3044  0.1865
    7ETHOX  H1155477   7.181  11.797  13.089 -0.2093  1.6059 -1.1009
    7ETHOX  H1355478   6.991  11.799  13.121 -0.9439  0.7038  1.5830
    7ETHOX   C255479   7.096  11.982  13.097 -0.7680 -1.2035 -0.5440
    7ETHOX  H2155480   7.000  12.032  13.120 -0.1507 -0.8868  1.5895
    7ETHOX  H2355481   7.100  11.995  12.987 -2.5998 -0.8205 -0.6013
    8ETHOX   O155482   7.192  12.060  13.162 -0.2356 -0.2636 -0.0833
    8ETHOX   C155483   7.146  12.195  13.157 -0.1823 -0.2657 -0.1124
    8ETHOX  H1155484   7.052  12.208  13.216 -0.5620  0.7445 -0.9172
    8ETHOX  H1355485   7.132  12.234  13.055  1.4789  0.5957 -0.0400
    8ETHOX   C255486   7.241  12.296  13.234  0.4689  0.2170  0.1446
    8ETHOX  H2155487   7.259  12.263  13.339 -2.3655  2.4551  1.4907
    8ETHOX  H2355488   7.183  12.390  13.244 -0.4251 -0.5318  2.9818
    9ETHOX   O155489   7.359  12.312  13.150 -0.0818  0.6237 -0.1423
    9ETHOX   C155490   7.445  12.414  13.193  0.7010 -0.5200  0.0316
    9ETHOX  H1155491   7.396  12.513  13.190 -0.1311 -0.9336 -0.2240
    9ETHOX  H1355492   7.455  12.392  13.302 -3.3346  1.7275  1.0511
    9ETHOX   C255493   7.570  12.418  13.096  0.0332 -0.5662  0.2400
    9ETHOX  H2155494   7.630  12.507  13.123 -2.1980  0.6492  1.5265
    9ETHOX  H2355495   7.530  12.421  12.993  0.9742  0.6971 -0.0974
   10ETHOX   O155496   7.647  12.300  13.114 -0.4209  0.0505 -0.2555
   10ETHOX   C155497   7.753  12.287  13.024  0.4326 -0.3723 -1.0163
   10ETHOX  H1155498   7.725  12.298  12.917 -1.1773 -0.6828 -0.6526
   10ETHOX  H1355499   7.797  12.191  13.059 -0.7969 -0.5189  0.2314
   10ETHOX   C255500   7.867  12.388  13.061 -0.4281  0.4725  0.0943
   10ETHOX  H2155501   7.828  12.473  13.001 -2.2864 -1.1823 -1.1791
   10ETHOX  H2355502   7.965  12.360  13.017  1.0063  1.3274  2.5675
   11ETHOX   O155503   7.880  12.419  13.204  0.0099  0.1983  0.3895
   11ETHOX   C155504   7.924  12.557  13.223  0.6286  0.6027  0.5138
   11ETHOX  H1155505   8.023  12.569  13.175  0.9163  0.1148  0.9731
   11ETHOX  H1355506   7.844  12.621  13.182 -2.5112 -2.6144  1.0623
   11ETHOX   C255507   7.919  12.590  13.374  0.5766  0.1427 -0.0918
   11ETHOX  H2155508   7.975  12.522  13.442  0.0438  0.2143  0.4276
   11ETHOX  H2355509   7.995  12.670  13.387 -0.5776  1.4981 -1.3390
   12ETHOX   O155510   7.795  12.626  13.431  1.0189  0.1181 -0.1998
   12ETHOX   C155511   7.735  12.504  13.469  0.4446 -0.0817 -0.3495
   12ETHOX  H1155512   7.809  12.439  13.519 -0.1373  0.4370  1.2683
   12ETHOX  H1355513   7.703  12.456  13.374 -1.0131  0.9265 -0.3995
   12ETHOX   C255514   7.612  12.527  13.558 -0.8901  1.0562 -0.9032
   12ETHOX  H2155515   7.628  12.592  13.646  1.1671 -1.6664  0.9111
   12ETHOX  H2355516   7.585  12.432  13.609 -2.0562  2.1091  0.5576
   13ETHOX   O155517   7.498  12.580  13.491 -0.2327  0.3931 -0.1276
   13ETHOX   C155518   7.388  12.588  13.584 -0.8705  0.5080 -0.4853
   13ETHOX  H1155519   7.348  12.484  13.587  0.9745 -0.2515  0.9821
   13ETHOX  H1355520   7.422  12.604  13.689  1.4600 -0.8372 -0.9520
   13ETHOX   C255521   7.285  12.693  13.535 -0.1500 -0.0948  0.2553
   13ETHOX  H2155522   7.196  12.684  13.602 -0.7239  1.3410 -0.2719
   13ETHOX  H2355523   7.261  12.669  13.430  0.4001 -0.2875  0.1691
   14ETHOX   O155524   7.336  12.827  13.545  0.0591 -0.0909 -0.3400
   14ETHOX   C155525   7.319  12.895  13.672  1.0843  0.2091  0.0389
   14ETHOX  H1155526   7.386  12.979  13.701  1.0660  0.9638 -1.9632
   14ETHOX  H1355527   7.336  12.819  13.751 -0.6322  0.0904  0.3313
   14ETHOX   C255528   7.182  12.965  13.681 -0.1747 -0.4386  0.2191
   14ETHOX  H2155529   7.168  12.980  13.791 -0.4497 -2.7520  0.5409
   14ETHOX  H2355530   7.106  12.894  13.642  0.8827 -0.8231 -1.2024
   15ETHOX   O155531   7.173  13.094  13.625 -0.0151  0.5011  0.3910
   15ETHOX   C155532   7.058  13.172  13.661 -0.1812  0.7290 -0.7597
   15ETHOX  H1155533   6.987  13.112  13.722  1.0459  0.3354  0.3164
   15ETHOX  H1355534   7.094  13.254  13.727  1.3242 -0.9689  0.6386
   15ETHOX   C255535   6.982  13.201  13.534  0.1922  0.0726  0.2009
   15ETHOX  H2155536   6.976  13.102  13.484 -0.7708  0.3465 -0.2518
   15ETHOX  H2355537   6.883  13.238  13.570  0.8589  2.1835 -0.0205
   16ETHOX   O155538   7.045  13.307  13.460  0.6667  0.0441 -0.0264
   16ETHOX   C155539   6.966  13.346  13.349 -0.2806  0.1299  0.9790
   16ETHOX  H1155540   6.882  13.274  13.339 -0.1659  0.1306 -0.0899
   16ETHOX  H1355541   6.932  13.451  13.363 -0.3023  0.1984  0.4331
   16ETHOX   C255542   7.058  13.339  13.229 -0.7674 -0.1320 -0.1437
   16ETHOX  H2155543   7.010  13.371  13.134  0.7632 -0.1757 -0.9592
   16ETHOX  H2355544   7.097  13.236  13.216  1.5813  0.3988  1.9083
   17ETHOX   O155545   7.183  13.415  13.246  0.2927 -0.6419  0.0615
   17ETHOX   C155546   7.161  13.556  13.210 -0.4135 -0.4110 -0.5678
   17ETHOX  H1155547   7.064  13.594  13.251 -0.4317 -0.8367 -0.1985
   17ETHOX  H1355548   7.235  13.614  13.269 -0.6215 -0.3907 -0.3239
   17ETHOX   C255549   7.179  13.580  13.054  0.9072  0.1369 -0.2071
   17ETHOX  H2155550   7.284  13.557  13.027  1.0668  1.8503 -1.1601
   17ETHOX  H2355551   7.167  13.688  13.032  3.8777  0.8013  0.9674
   18ETHOX   O155552   7.104  13.496  12.971 -0.0589  0.3374  0.1526
   18ETHOX   C155553   7.107  13.532  12.832 -0.0170  0.2583 -0.2599
   18ETHOX  H1155554   7.087  13.642  12.833  1.5992  0.5794  1.4822
   18ETHOX  H1355555   7.191  13.498  12.767 -0.8534  1.4342 -2.0493
   18ETHOX   C255556   6.978  13.466  12.778 -1.3386  0.2302  0.1840
   18ETHOX  H2155557   6.969  13.499  12.673  0.2211  1.6930  0.4724
   18ETHOX  H2355558   6.895  13.508  12.839  0.6372  1.4202  2.2162
   19ETHOX   O155559   7.002  13.326  12.788  0.9503  0.2296  0.1056
   19ETHOX   C155560   6.926  13.246  12.690  0.3181  0.3100 -0.0257
   19ETHOX  H1155561   6.943  13.288  12.589  0.6893 -1.8109 -0.9106
   19ETHOX  H1355562   6.818  13.243  12.714  0.6834 -0.5002  1.6813
   19ETHOX   C255563   6.981  13.097  12.696 -0.1057  0.5645  0.4851
   19ETHOX  H2155564   6.920  13.030  12.631 -0.0143 -0.3794  1.3623
   19ETHOX  H2355565   6.969  13.075  12.804 -3.8480  0.3880  0.1607
   20ETHOX   O155566   7.124  13.087  12.662  0.3769  0.5708 -0.0082
   20ETHOX   C155567   7.177  12.958  12.692 -0.2495  0.5152 -0.1607
   20ETHOX  H1155568   7.165  12.931  12.799  0.0589  0.9225 -0.0209
   20ETHOX  H1355569   7.117  12.886  12.633 -0.6418 -0.6118  1.5580
   20ETHOX   C255570   7.327  12.946  12.659 -0.1434  0.0801 -0.4538
   20ETHOX  H2155571   7.346  12.961  12.551 -0.3636 -0.8681 -0.6272
   20ETHOX  H2355572   7.362  12.842  12.678  1.5672  0.0938 -2.9445
   21ETHOX   O155573   7.392  13.046  12.741 -0.1014  0.1572 -0.8490
   21ETHOX   C155574   7.532  13.015  12.756  0.5772  0.5433  0.3969
   21ETHOX  H1155575   7.589  13.024  12.661 -0.9058 -2.1151 -0.8526
   21ETHOX  H1355576   7.543  12.920  12.813  1.7547  0.6107  0.3113
   21ETHOX   C255577   7.588  13.132  12.841  0.1534  0.1429  0.4957
   21ETHOX  H2155578   7.694  13.111  12.866  0.0088 -0.3205  0.7214
   21ETHOX  H2355579   7.518  13.132  12.927 -0.9256  1.4691 -0.3289
   22ETHOX   O155580   7.569  13.260  12.780  0.0775 -0.0610 -0.3081
   22ETHOX   C155581   7.617  13.362  12.865 -0.4246  1.0016  0.3131
   22ETHOX  H1155582   7.593  13.341  12.972  2.5416  0.2416  0.9159
   22ETHOX  H1355583   7.728  13.365  12.868 -0.4636  2.1285  2.0510
   22ETHOX   C255584   7.564  13.498  12.831 -0.7008  0.0179 -0.2096
   22ETHOX  H2155585   7.453  13.497  12.835 -0.7382  0.7397 -0.8794
   22ETHOX  H2355586   7.602  13.570  12.907 -0.5453  0.3645 -0.6138
   23ETHOX   O155587   7.615  13.540  12.709  0.1574 -0.3654 -0.0341
   23ETHOX   C155588   7.613  13.687  12.705  0.4011  0.2415 -0.6879
   23ETHOX  H1155589   7.667  13.719  12.613  1.6616  0.6674  0.1637
   23ETHOX  H1355590   7.663  13.726  12.797  0.2948 -1.0566 -0.0528
   23ETHOX   C255591   7.479  13.756  12.693  0.5776 -0.2614 -0.1395
   23ETHOX  H2155592   7.414  13.712  12.614 -0.0354 -0.3177  0.3954
   23ETHOX  H2355593   7.493  13.852  12.638 -0.8774  0.6458  1.0158
   24ETHOX   O155594   7.409  13.780  12.814  0.9830 -0.0039  0.3058
   24ETHOX   C155595   7.293  13.861  12.778  0.4766  0.1081  0.1216
   24ETHOX  H1155596   7.266  13.854  12.671 -0.7836  2.2062  0.2512
   24ETHOX  H1355597   7.207  13.844  12.846  0.7993  0.3600  0.5992
   24ETHOX   C255598   7.319  14.011  12.796  0.4694 -0.3823  0.4287
   24ETHOX  H2155599   7.356  14.033  12.898  0.9158  1.1476 -0.0338
   24ETHOX  H2355600   7.220  14.061  12.790 -0.2051 -1.5005  1.7535
   25ETHOX   O155601   7.402  14.068  12.696 -0.3411  0.4023 -0.6610
   25ETHOX   C155602   7.471  14.186  12.740 -0.0789  0.0788 -0.0024
   25ETHOX  H1155603   7.402  14.237  12.810 -1.9726 -1.6926 -0.4731
   25ETHOX  H1355604   7.506  14.242  12.651  0.7760 -2.5583 -1.4463
   25ETHOX   C255605   7.597  14.141  12.811  0.2092  0.9102  0.2677
   25ETHOX  H2155606   7.671  14.092  12.744  0.9736 -2.9817  3.5667
   25ETHOX  H2355607   7.556  14.067  12.883  0.0719 -0.6859 -1.3795
   26ETHOX   O155608   7.661  14.250  12.881  0.0199 -0.3845 -0.2441
   26ETHOX   C155609   7.771  14.201  12.951  0.5372  0.7487 -0.3181
   26ETHOX  H1155610   7.734  14.142  13.038 -2.5482 -0.1346 -2.0669
   26ETHOX  H1355611   7.825  14.128  12.886  0.7110 -0.7597  1.4315
   26ETHOX   C255612   7.863  14.313  12.990 -0.1111  0.3433 -0.5050
   26ETHOX  H2155613   7.897  14.384  12.912 -0.8483  0.5933 -0.6077
   26ETHOX  H2355614   7.956  14.265  13.026  0.8454  2.4526 -0.0284
   27ETHOX   O155615   7.812  14.384  13.106  0.1542 -0.1037 -0.5342
   27ETHOX   C155616   7.898  14.488  13.149  0.5145 -0.0307  0.0723
   27ETHOX  H1155617   7.908  14.569  13.073  0.0227  0.0698  0.1130
   27ETHOX  H1355618   7.994  14.443  13.181  0.4926 -0.2792 -0.2033
   27ETHOX   C255619   7.845  14.549  13.282 -0.4658 -0.1558 -0.2943
   27ETHOX  H2155620   7.936  14.598  13.324  0.4173 -0.9540 -1.2149
   27ETHOX  H2355621   7.806  14.464  13.341  0.3242 -0.9319 -0.8583
   28ETHOX   O155622   7.746  14.643  13.264 -0.2783 -0.4728 -0.1125
   28ETHOX   C155623   7.724  14.713  13.386  0.4867  0.3052 -0.5436
   28ETHOX  H1155624   7.677  14.641  13.456  3.4508 -1.0879  0.1807
   28ETHOX  H1355625   7.821  14.747  13.429  0.9125  0.4236 -1.5713
   28ETHOX   C255626   7.637  14.839  13.357  0.8781  0.0605  0.3979
   28ETHOX  H2155627   7.539  14.799  13.323 -0.4182  2.9590  0.4478
   28ETHOX  H2355628   7.683  14.897  13.275 -1.1581  1.8355  0.4511
   29ETHOX   O155629   7.612  14.912  13.476 -0.1651  0.3803  0.3011
   29ETHOX   C155630   7.717  15.005  13.504  0.1916  0.0032 -0.2276
   29ETHOX  H1155631   7.702  15.095  13.441 -0.7228  0.0154 -0.0069
   29ETHOX  H1355632   7.816  14.961  13.480  1.6584  1.4701  2.5621
   29ETHOX   C255633   7.723  15.038  13.659 -0.1938  0.4507  0.1464
   29ETHOX  H2155634   7.622  15.046  13.704 -1.1452 -1.0701 -1.5771
   29ETHOX  H2355635   7.773  15.137  13.659  0.0111  0.3635 -1.0045
   30ETHOX   O155636   7.794  14.938  13.734 -0.2478  0.0856  0.3326
   30ETHOX   C155637   7.843  14.984  13.857  0.1312  0.0954 -0.2132
   30ETHOX  H1155638   7.864  14.892  13.916 -0.7124  0.5919  0.9202
   30ETHOX  H1355639   7.935  15.043  13.837 -1.4299  2.6192 -0.4437
   30ETHOX   C255640   7.759  15.078  13.939 -0.2024 -0.6072  0.8606
   30ETHOX  H2155641   7.773  15.064  14.048  0.3481 -2.3987  0.5895
   30ETHOX  H2355642   7.649  15.069  13.926 -0.3738  1.6434  0.2681
   31ETHOX   O155643   7.795  15.203  13.885 -0.2566 -0.8910 -0.6843
   31ETHOX   C155644   7.859  15.288  13.977 -1.3583  0.3331 -0.3527
   31ETHOX  H1155645   7.934  15.234  14.038  0.1636  0.9770 -1.5848
   31ETHOX  H1355646   7.915  15.364  13.919  0.7748  0.0115  1.1677
   31ETHOX   C255647   7.755  15.351  14.065  0.2126 -0.1928  0.6122
   31ETHOX  H2155648   7.805  15.407  14.146  0.2416  0.1926  0.3301
   31ETHOX  H2355649   7.685  15.275  14.106 -2.7987  2.5175  0.8586
   32ETHOX   O155650   7.685  15.455  13.995  0.0820  0.6828  0.5692
   32ETHOX   C155651   7.556  15.477  14.033  0.7863  0.6448 -0.3807
   32ETHOX  H1155652   7.503  15.379  14.030  3.3615 -0.8705 -0.2823
   32ETHOX  H1355653   7.567  15.507  14.139 -0.0687 -1.7962  0.4670
   32ETHOX   C255654   7.476  15.575  13.951 -0.2837 -0.1755  0.1918
   32ETHOX  H2155655   7.528  15.671  13.934 -2.1914  1.3615  2.3424
   32ETHOX  H2355656   7.394  15.609  14.018 -0.4134 -0.4087  0.1546
   33ETHOX   O155657   7.421  15.521  13.828  0.5696 -0.3585 -0.6910
   33ETHOX   C155658   7.344  15.623  13.763  0.2446  0.9352  0.2559
   33ETHOX  H1155659   7.237  15.594  13.750  0.4000  0.7531 -0.7485
   33ETHOX  H1355660   7.340  15.713  13.828  0.9123 -0.1813  1.9091
   33ETHOX   C255661   7.404  15.652  13.629 -0.5328 -0.2174 -0.0185
   33ETHOX  H2155662   7.345  15.723  13.567 -0.4922 -0.1493  0.0204
   33ETHOX  H2355663   7.403  15.560  13.567 -2.8237 -1.1438  1.2967
   34ETHOX   O155664   7.533  15.714  13.647  0.8730 -0.0630  0.0289
   34ETHOX   C155665   7.625  15.694  13.542  0.7878 -0.3166 -0.0398
   34ETHOX  H1155666   7.569  15.717  13.449 -0.6888 -1.9867  0.3872
   34ETHOX  H1355667   7.665  15.591  13.536 -0.3319 -0.7792  0.2050
   34ETHOX   C255668   7.745  15.793  13.554  0.3450 -0.1926  0.1127
   34ETHOX  H2155669   7.702  15.882  13.606 -3.2398 -0.7407 -1.5943
   34ETHOX  H2355670   7.781  15.813  13.451 -2.7331 -2.2482 -1.5193
   35ETHOX   O155671   7.854  15.745  13.626  0.9989 -0.2041 -0.5338
   35ETHOX   C155672   7.827  15.716  13.766  0.5356 -0.0551  0.2194
   35ETHOX  H1155673   7.786  15.808  13.815 -1.2250  0.7393 -2.5413
   35ETHOX  H1355674   7.742  15.646  13.781  0.3656 -0.2406 -1.5014
   35ETHOX   C255675   7.948  15.667  13.841  0.0874  0.4445 -0.5029
   35ETHOX  H2155676   8.002  15.593  13.778 -2.1977 -2.0205  0.2518
   35ETHOX  H2355677   7.921  15.608  13.931 -0.3083 -0.6804 -1.3330
   36ETHOX   O155678   8.047  15.767  13.868  0.4758 -0.0753 -0.3464
   36ETHOX   C155679   8.135  15.734  13.979  0.7781 -0.3190  0.2591
   36ETHOX  H1155680   8.084  15.720  14.076  1.2531  1.7510  0.8594
   36ETHOX  H1355681   8.196  15.825  13.998 -0.8279  0.9227 -0.2792
   36ETHOX   C255682   8.231  15.618  13.955  0.7045  0.4551 -0.3376
   36ETHOX  H2155683   8.266  15.625  13.850 -3.5307 -1.0142 -2.0823
   36ETHOX  H2355684   8.177  15.521  13.961  1.8623 -0.2915 -1.3769
   37ETHOX   O155685   8.341  15.619  14.043  0.3409 -0.2227  0.3748
   37ETHOX   C155686   8.402  15.488  14.054 -0.1165 -0.3171 -0.2655
   37ETHOX  H1155687   8.368  15.439  14.147 -1.0581  0.7198 -0.0370
   37ETHOX  H1355688   8.363  15.426  13.971  0.4681 -0.6083 -0.3292
   37ETHOX   C255689   8.554  15.491  14.055  0.5780 -0.5626 -0.1535
   37ETHOX  H2155690   8.590  15.389  14.080 -0.6366 -0.7083  1.1113
   37ETHOX  H2355691   8.581  15.559  14.137  0.7112 -1.0936  0.2497
   38ETHOX   O155692   8.603  15.533  13.927  0.1361 -0.5069 -0.6283
   38ETHOX   C155693   8.691  15.440  13.869  0.0137 -0.1163  0.2119
   38ETHOX  H1155694   8.701  15.467  13.762 -0.7381  1.7471  0.5688
   38ETHOX  H1355695   8.656  15.335  13.881  0.1608 -0.1510  0.3355
   38ETHOX   C255696   8.831  15.448  13.934 -0.3503 -0.2386  0.3433
   38ETHOX  H2155697   8.902  15.383  13.879 -0.6309  1.2387 -1.8923
   38ETHOX  H2355698   8.819  15.416  14.040  1.3669 -0.9669  0.3489
   39ETHOX   O155699   8.879  15.577  13.919 -0.1803  0.1433  0.1567
   39ETHOX   C155700   8.952  15.597  13.792  1.1000  0.8781 -0.4704
   39ETHOX  H1155701   9.055  15.558  13.806  1.0135  0.0218 -2.0910
   39ETHOX  H1355702   8.899  15.535  13.717 -1.0893 -1.5226  2.7877
   39ETHOX   C255703   8.954  15.749  13.756 -0.1803  0.2375 -0.2826
   39ETHOX  H2155704   8.853  15.788  13.780 -0.4553 -0.6768  0.0696
   39ETHOX  H2355705   8.981  15.754  13.648 -0.2146  0.6878 -0.2734
   40ETHOX   O155706   9.057  15.808  13.837  0.0157  0.0015  0.5116
   40ETHOX   C155707   9.104  15.930  13.779  0.5596  0.6355 -0.3176
   40ETHOX  H1155708   9.019  15.996  13.753 -0.7334 -0.8853 -0.0772
   40ETHOX  H1355709   9.170  15.927  13.689 -1.3700 -1.4979 -1.7733
   40ETHOX   C255710   9.177  16.017  13.886  0.0630  0.3908  0.1463
   40ETHOX  H2155711   9.115  16.046  13.973 -1.6859 -0.3225 -0.8084
   40ETHOX  H2355712   9.204  16.112  13.833  1.5374  0.8303  1.6218
   41ETHOX   O155713   9.298  15.956  13.927 -0.1635 -0.3171  0.1391
   41ETHOX   C155714   9.292  15.819  13.975 -0.0359 -0.3186  0.1406
   41ETHOX  H1155715   9.215  15.818  14.055  0.0825 -0.4092  0.2554
   41ETHOX  H1355716   9.275  15.741  13.898  1.1902 -0.9048  0.4362
   41ETHOX   C255717   9.429  15.783  14.035 -0.2573  0.7326 -0.3291
   41ETHOX  H2155718   9.427  15.685  14.087 -1.8454  0.8180 -0.1850
   41ETHOX  H2355719   9.455  15.866  14.104  0.1421 -0.4823  1.0430
   42ETHOX   O155720   9.520  15.778  13.921  0.5446  0.1871 -0.4204
   42ETHOX   C155721   9.655  15.782  13.968 -0.6620  0.3964 -0.4117
   42ETHOX  H1155722   9.671  15.877  14.023 -2.0827  0.5273 -0.1902
   42ETHOX  H1355723   9.673  15.694  14.034 -0.0056  0.2728 -0.7422
   42ETHOX   C255724   9.760  15.775  13.859 -0.5581  0.5898 -0.6166
   42ETHOX  H2155725   9.716  15.694  13.798  0.4409 -0.1686 -0.3536
   42ETHOX  H2355726   9.857  15.740  13.901  0.0870  2.4328 -0.4590
   43ETHOX   O155727   9.782  15.898  13.795  0.1066  0.7115  0.2892
   43ETHOX   C155728   9.910  15.902  13.735 -0.2330 -0.0791  0.5588
   43ETHOX  H1155729   9.977  15.873  13.818  2.0983  1.7848 -0.5542
   43ETHOX  H1355730   9.924  15.829  13.653  1.5551  1.4223 -0.5534
   43ETHOX   C255731   9.953  16.047  13.681  0.0566 -0.0914  0.0699
   43ETHOX  H2155732  10.064  16.047  13.686  0.0088 -0.2179  2.5794
   43ETHOX  H2355733   9.911  16.128  13.745 -0.5598  0.5173 -1.0593
   44ETHOX   O155734   9.905  16.079  13.551  0.0278  0.5445  0.3718
   44ETHOX   C155735   9.782  16.136  13.543 -0.0087 -0.4516 -0.2375
   44ETHOX  H1155736   9.714  16.064  13.593  2.0318 -2.3869 -0.0856
   44ETHOX  H1355737   9.785  16.226  13.609 -1.1646  0.9991 -2.0449
   44ETHOX   C255738   9.756  16.164  13.399  0.4271 -0.3501 -0.0610
   44ETHOX  H2155739   9.645  16.167  13.397  0.3514 -0.3256 -4.1747
   44ETHOX  H2355740   9.779  16.081  13.329  0.4912 -1.0223  0.7443
   45ETHOX   O155741   9.798  16.295  13.353 -0.1046  0.3199  0.8198
   45ETHOX   C155742   9.729  16.333  13.229 -0.3507 -0.1488  0.1512
   45ETHOX  H1155743   9.674  16.247  13.184 -1.3629 -0.2005  1.4380
   45ETHOX  H1355744   9.801  16.369  13.153  0.7914 -0.2795  1.1422
   45ETHOX   C255745   9.644  16.452  13.240 -0.3761 -0.1270 -0.3112
   45ETHOX  H2155746   9.632  16.497  13.140  0.6403  1.7064  0.3580
   45ETHOX  H2355747   9.705  16.519  13.304  0.1900  0.1955 -1.1767
   46ETHOX   O155748   9.515  16.415  13.302  0.2015  0.0880 -0.2842
   46ETHOX   C155749   9.468  16.513  13.393 -0.4613 -0.3694  0.4273
   46ETHOX  H1155750   9.550  16.522  13.468 -0.2756 -0.5609  0.2470
   46ETHOX  H1355751   9.463  16.610  13.339  3.1487 -0.3887 -0.2077
   46ETHOX   C255752   9.339  16.472  13.471  0.4704 -0.4241 -0.2373
   46ETHOX  H2155753   9.310  16.557  13.538  0.1473 -0.3071 -0.5248
   46ETHOX  H2355754   9.355  16.378  13.527  1.1703 -0.6940 -0.8798
   47ETHOX   O155755   9.229  16.468  13.385  0.4964  0.3770 -0.0147
   47ETHOX   C155756   9.201  16.330  13.348 -0.4955  0.1278 -0.0742
   47ETHOX  H1155757   9.126  16.288  13.418 -0.6094  2.2505  1.1908
   47ETHOX  H1355758   9.287  16.260  13.342 -0.7050 -0.3598  1.8199
   47ETHOX   C255759   9.131  16.319  13.215 -1.0378 -0.1981  0.4632
   47ETHOX  H2155760   9.131  16.212  13.183 -2.1831 -0.5361  1.5158
   47ETHOX  H2355761   9.200  16.387  13.161  0.0814 -1.4717  0.2433
   48ETHOX   O155762   8.995  16.365  13.224 -0.0039  0.3790 -0.3729
   48ETHOX   C155763   8.916  16.328  13.106  0.8390  0.1155  0.2818
   48ETHOX  H1155764   8.923  16.407  13.029  0.0339 -0.0854 -0.0063
   48ETHOX  H1355765   8.968  16.243  13.057 -1.6290 -1.4923  0.2396
   48ETHOX   C255766   8.768  16.304  13.141 -0.1393  0.2866 -0.3936
   48ETHOX  H2155767   8.727  16.391  13.197  4.1303  3.1818 -1.2788
   48ETHOX  H2355768   8.698  16.301  13.055 -1.2567 -0.5806  0.5095
   49ETHOX   O155769   8.745  16.184  13.211  0.0860 -0.1903  0.1110
   49ETHOX   C155770   8.788  16.182  13.344 -0.1922  0.3734 -0.5168
   49ETHOX  H1155771   8.744  16.269  13.398  1.2952  1.0508 -0.3485
   49ETHOX  H1355772   8.899  16.174  13.346 -0.3387 -2.3994  1.2650
   49ETHOX   C255773   8.735  16.062  13.419 -0.5841 -0.2613  0.2504
   49ETHOX  H2155774   8.631  16.046  13.385 -1.2454  1.1588  1.5001
   49ETHOX  H2355775   8.736  16.073  13.529  0.1540 -2.3394  0.5118
   50ETHOX   O155776   8.811  15.942  13.393 -0.4528  0.0632  0.0423
   50ETHOX   C155777   8.736  15.818  13.423  0.9769 -0.7215 -0.3115
   50ETHOX  H1155778   8.740  15.811  13.533  2.6908 -0.7316 -0.3480
   50ETHOX  H1355779   8.629  15.815  13.394  0.9641  1.5437 -0.6857
   50ETHOX   C255780   8.802  15.678  13.393  0.0894  0.0030  0.1238
   50ETHOX  H2155781   8.760  15.602  13.462  2.3061 -0.3034  1.2192
   50ETHOX  H2355782   8.908  15.686  13.423  0.1995  1.0474 -0.4795
   51ETHOX   O155783   8.788  15.640  13.254 -0.3486  0.7330 -0.4132
   51ETHOX   C155784   8.685  15.554  13.226  0.3401  0.4645  0.5317
   51ETHOX  H1155785   8.588  15.599  13.196 -0.1219  0.1013  1.4398
   51ETHOX  H1355786   8.652  15.497  13.316 -0.4554  1.1980  0.7162
   51ETHOX   C255787   8.740  15.461  13.121 -0.2738  0.0310 -0.1816
   51ETHOX  H2155788   8.820  15.400  13.168 -1.3875 -1.0141  0.4236
   51ETHOX  H2355789   8.781  15.521  13.037  0.6950 -2.2005 -1.3813
   52ETHOX   O155790   8.639  15.364  13.090  0.0037  0.3818 -0.3119
   52ETHOX   C155791   8.670  15.286  12.976  0.1703 -0.0424  0.3048
   52ETHOX  H1155792   8.779  15.271  12.962 -0.0446  0.9770 -3.8313
   52ETHOX  H1355793   8.602  15.199  12.987 -3.0239  1.8308 -2.6924
   52ETHOX   C255794   8.631  15.366  12.849  1.6779  0.1161 -0.2243
   52ETHOX  H2155795   8.532  15.417  12.856  1.3669 -0.2140 -1.8672
   52ETHOX  H2355796   8.619  15.292  12.767  2.1897  1.2722 -1.3825
   53ETHOX   O155797   8.731  15.452  12.805 -0.0935 -0.0848 -0.7787
   53ETHOX   C155798   8.712  15.511  12.678  0.0310 -0.0419 -0.1504
   53ETHOX  H1155799   8.707  15.433  12.598 -0.9318 -0.1394 -0.0108
   53ETHOX  H1355800   8.610  15.554  12.681 -0.4925 -1.1817 -0.7131
   53ETHOX   C255801   8.824  15.607  12.654 -0.1605  0.3916 -0.1031
   53ETHOX  H2155802   8.810  15.653  12.553  0.1811 -1.0965 -0.8604
   53ETHOX  H2355803   8.914  15.542  12.643  0.2285  0.8961  0.0493
   54ETHOX   O155804   8.849  15.717  12.739  0.7111  0.0441 -0.0041
   54ETHOX   C155805   8.969  15.784  12.693 -0.0775  0.4424  0.9005
   54ETHOX  H1155806   9.059  15.720  12.704  0.8298  1.7185  1.1989
   54ETHOX  H1355807   8.945  15.814  12.588  2.0308 -2.5541 -0.5877
   54ETHOX   C255808   8.978  15.906  12.782 -0.3897  0.3282 -0.4724
   54ETHOX  H2155809   8.880  15.960  12.778  0.1629  1.3679 -0.4110
   54ETHOX  H2355810   9.058  15.977  12.751  1.1725 -0.8379  0.7076
   55ETHOX   O155811   9.015  15.863  12.912 -0.0316  0.2462  0.4566
   55ETHOX   C155812   8.976  15.964  13.004  0.8263  0.0765  0.6350
   55ETHOX  H1155813   9.034  16.057  12.988  1.8687 -0.5811  0.4092
   55ETHOX  H1355814   8.866  15.976  12.994  0.9459  2.1244  1.3226
   55ETHOX   C255815   9.002  15.919  13.152  0.4338  0.0362  0.2903
   55ETHOX  H2155816   8.983  16.002  13.223 -0.7916 -1.5697  1.9256
   55ETHOX  H2355817   8.934  15.834  13.174  0.2583  0.5353  1.7781
   56ETHOX   O155818   9.138  15.894  13.180 -0.1100  0.6935  0.5943
   56ETHOX   C155819   9.157  15.819  13.298 -0.1769 -0.1810  0.8025
   56ETHOX  H1155820   9.095  15.868  13.375 -0.0378  1.4572 -0.0906
   56ETHOX  H1355821   9.265  15.822  13.323  0.3396  0.2355 -1.3409
   56ETHOX   C255822   9.130  15.672  13.268  0.4278  0.1129  0.0291
   56ETHOX  H2155823   9.204  15.629  13.197  0.6178 -2.2711  1.5750
   56ETHOX  H2355824   9.033  15.654  13.218 -0.5876 -0.5170  2.1267
   57ETHOX   O155825   9.138  15.600  13.390  0.2296 -0.1147  0.3627
   57ETHOX   C155826   9.116  15.461  13.365  0.0170  0.4774  0.3886
   57ETHOX  H1155827   9.024  15.445  13.305  0.5471 -2.1890  0.1784
   57ETHOX  H1355828   9.204  15.407  13.323  1.2212  1.9798  0.8846
   57ETHOX   C255829   9.079  15.407  13.502  0.4914  0.6446  0.0246
   57ETHOX  H2155830   8.975  15.434  13.528 -0.4636 -2.4154 -0.2878
   57ETHOX  H2355831   9.146  15.445  13.582 -1.3869  0.8454  1.5722
   58ETHOX   O155832   9.087  15.266  13.502  0.0525 -0.0370  0.1016
   58ETHOX   C155833   9.047  15.217  13.626 -0.1377 -0.8777 -0.0188
   58ETHOX  H1155834   8.947  15.253  13.659 -0.0773 -0.7682  0.0474
   58ETHOX  H1355835   9.116  15.267  13.698 -0.5301 -0.7688  0.2917
   58ETHOX   C255836   9.052  15.066  13.635  0.5493 -0.4746  0.6769
   58ETHOX  H2155837   9.156  15.036  13.609  0.8811  0.7243  0.5591
   58ETHOX  H2355838   8.972  15.017  13.575  0.2767  0.9047 -0.1292
   59ETHOX   O155839   9.030  15.039  13.770  0.0382  0.6684 -0.6477
   59ETHOX   C155840   9.070  14.913  13.801 -0.0025  1.1306 -1.1004
   59ETHOX  H1155841   9.006  14.845  13.741 -1.6980  1.0492  0.7105
   59ETHOX  H1355842   9.177  14.908  13.773  0.6303 -2.2227  1.2641
   59ETHOX   C255843   9.063  14.872  13.941 -1.0141  0.0648  0.0810
   59ETHOX  H2155844   9.123  14.943  14.003  1.8970 -2.1157  0.0090
   59ETHOX  H2355845   9.098  14.767  13.947 -2.3075 -0.4923 -1.6201
   60ETHOX   O155846   8.931  14.864  13.985 -0.6949  0.5157  0.0957
   60ETHOX   C155847   8.946  14.823  14.120  0.5188  0.6648 -1.0316
   60ETHOX  H1155848   9.015  14.891  14.174  0.6049  1.1574 -1.7417
   60ETHOX  H1355849   8.988  14.721  14.132  0.5871  0.6874 -1.0803
   60ETHOX   C255850   8.806  14.822  14.192  0.1570 -0.4151 -0.1087
   60ETHOX  H2155851   8.832  14.762  14.281 -1.1755  0.4267  0.8897
   60ETHOX  H2355852   8.734  14.760  14.134 -0.4330 -0.4953  0.6982
   61ETHOX   O155853   8.749  14.957  14.209 -0.0951  0.0577 -0.4035
   61ETHOX   C155854   8.635  14.948  14.290 -0.2264 -0.9308 -0.7336
   61ETHOX  H1155855   8.582  14.853  14.268 -0.8884 -0.1669 -2.6124
   61ETHOX  H1355856   8.671  14.941  14.395 -1.1282 -2.7428 -0.4977
   61ETHOX   C255857   8.544  15.061  14.271 -0.1513 -0.1020 -1.2296
   61ETHOX  H2155858   8.587  15.162  14.257 -0.3580 -0.0416 -1.4494
   61ETHOX  H2355859   8.481  15.069  14.362  0.2920  0.8136 -0.9999
   62ETHOX   O155860   8.452  15.011  14.169  0.2668  0.1027 -0.0423
   62ETHOX   C155861   8.364  15.121  14.125  0.2607  0.2945  0.5372
   62ETHOX  H1155862   8.427  15.196  14.073  0.8336  0.1041  0.9533
   62ETHOX  H1355863   8.313  15.170  14.211 -0.3557  2.2654 -0.8754
   62ETHOX   C255864   8.247  15.063  14.034 -0.3300  0.2897  0.0244
   62ETHOX  H2155865   8.284  14.981  13.969  1.6336  0.7158  0.5373
   62ETHOX  H2355866   8.203  15.144  13.971 -2.4773 -2.0656 -1.7261
   63ETHOX   O155867   8.130  15.024  14.109 -0.4956 -0.2515 -0.2207
   63ETHOX   C155868   8.136  14.887  14.158 -0.0538  1.1551  0.1187
   63ETHOX  H1155869   8.036  14.841  14.143  1.0871 -1.8681  0.9537
   63ETHOX  H1355870   8.212  14.829  14.101 -2.0066 -0.6657 -0.7893
   63ETHOX   C255871   8.173  14.874  14.305 -0.1096  0.1095 -0.5786
   63ETHOX  H2155872   8.097  14.938  14.355 -0.7052 -0.1706 -1.1136
   63ETHOX  H2355873   8.277  14.910  14.321 -0.8141  1.2181  2.0575
   64ETHOX   O155874   8.151  14.742  14.345 -0.2510  0.2953 -0.3755
   64ETHOX   C155875   8.201  14.713  14.473 -0.5052  1.2212  0.0128
   64ETHOX  H1155876   8.165  14.610  14.494 -1.2416  1.1648 -1.4514
   64ETHOX  H1355877   8.163  14.776  14.556 -1.3339  2.4357 -1.2594
   64ETHOX   C255878   8.352  14.707  14.472 -0.6152 -0.3816  0.4746
   64ETHOX  H2155879   8.385  14.653  14.381 -0.5697  1.5332 -0.6798
   64ETHOX  H2355880   8.386  14.642  14.556  0.2736 -0.4512  0.0769
   65ETHOX   O155881   8.427  14.827  14.473  0.1903 -0.1611  0.4263
   65ETHOX   C155882   8.437  14.875  14.604  0.4384 -0.2672 -0.3114
   65ETHOX  H1155883   8.409  14.982  14.615 -3.9102 -1.4584  3.2441
   65ETHOX  H1355884   8.359  14.827  14.668 -1.9742  2.0923 -1.2921
   65ETHOX   C255885   8.576  14.858  14.657 -0.4573 -0.3029  0.3876
   65ETHOX  H2155886   8.647  14.940  14.632 -0.3476 -1.4826 -3.8012
   65ETHOX  H2355887   8.618  14.769  14.606  0.0869  0.3178 -0.2706
   66ETHOX   O155888   8.575  14.836  14.799 -0.6177 -0.1302 -0.1734
   66ETHOX   C155889   8.709  14.820  14.846 -0.5639  1.1831 -0.4423
   66ETHOX  H1155890   8.775  14.897  14.801 -0.1619  2.9818  2.8667
   66ETHOX  H1355891   8.732  14.717  14.810 -1.2812  0.7475  0.3166
   66ETHOX   C255892   8.738  14.813  14.995  0.1028 -0.3082 -0.4956
   66ETHOX  H2155893   8.714  14.914  15.035 -0.2816 -0.1930 -1.0152
   66ETHOX  H2355894   8.844  14.793  15.019 -0.3559 -0.6343  1.4917
   67ETHOX   O155895   8.656  14.708  15.059  0.3224  0.1661 -0.1758
   67ETHOX   C155896   8.672  14.704  15.201  0.1064 -0.3741  0.5599
   67ETHOX  H1155897   8.670  14.811  15.232  2.5902  0.6197 -2.1941
   67ETHOX  H1355898   8.577  14.659  15.236 -1.7386  2.2142 -0.7985
   67ETHOX   C255899   8.798  14.631  15.245  0.2924 -0.5005 -0.5787
   67ETHOX  H2155900   8.835  14.546  15.184  0.8270  0.4947 -1.6917
   67ETHOX  H2355901   8.788  14.580  15.343  2.4297 -2.3643 -1.2541
   68ETHOX   O155902   8.913  14.711  15.258  0.0693 -0.6313 -0.1588
   68ETHOX   C155903   8.922  14.780  15.379  0.4540  0.0306  0.0684
   68ETHOX  H1155904   8.836  14.846  15.404  1.3240  0.3357  2.5637
   68ETHOX  H1355905   8.946  14.707  15.460 -3.4557 -0.9806  0.5475
   68ETHOX   C255906   9.050  14.859  15.373 -0.3767  0.9193 -0.1726
   68ETHOX  H2155907   9.140  14.807  15.333 -0.9766  0.7749 -1.3730
   68ETHOX  H2355908   9.077  14.895  15.475 -1.2970  2.9874 -0.5940
   69ETHOX   O155909   9.030  14.972  15.287  0.3167  0.4184  0.0981
   69ETHOX   C155910   9.148  15.050  15.283  0.0824  0.5790 -0.1720
   69ETHOX  H1155911   9.167  15.078  15.389 -0.5616 -0.6065  0.2736
   69ETHOX  H1355912   9.225  14.987  15.233 -0.2742 -0.1997  0.2509
   69ETHOX   C255913   9.145  15.176  15.191  0.7072 -0.3755 -0.5108
   69ETHOX  H2155914   9.116  15.160  15.084 -2.8996 -1.8715  0.5194
   69ETHOX  H2355915   9.250  15.211  15.195  0.8483 -0.6046 -1.7628
   70ETHOX   O155916   9.071  15.281  15.256 -0.1645  0.0990 -0.1910
   70ETHOX   C155917   9.061  15.396  15.169 -0.2663 -0.1448 -0.3483
   70ETHOX  H1155918   9.063  15.488  15.231 -0.7193 -1.0172  0.9942
   70ETHOX  H1355919   9.147  15.395  15.098  0.7845  1.2240  0.8415
   70ETHOX   C255920   8.924  15.392  15.106 -0.1452  0.1200  0.3282
   70ETHOX  H2155921   8.918  15.308  15.033  1.5463 -0.9561  1.3689
   70ETHOX  H2355922   8.922  15.485  15.045 -2.0763  0.0681  0.2470
   71ETHOX   O155923   8.808  15.383  15.184  0.2222  0.1941 -0.4095
   71ETHOX   C155924   8.692  15.341  15.118  0.5459  0.1615 -0.4814
   71ETHOX  H1155925   8.709  15.235  15.090 -0.9758  0.0312 -0.9772
   71ETHOX  H1355926   8.676  15.406  15.029 -0.2618 -0.5974 -0.9048
   71ETHOX   C255927   8.571  15.342  15.210  0.0170 -0.2889 -0.3106
   71ETHOX  H2155928   8.479  15.330  15.150 -1.0185  0.5473  1.0338
   71ETHOX  H2355929   8.566  15.443  15.254  2.0058 -0.0392 -0.5429
   72ETHOX   O155930   8.574  15.250  15.320  0.2261 -0.0409  0.2817
   72ETHOX   C155931   8.456  15.260  15.403  1.4102 -0.5076 -1.4431
   72ETHOX  H1155932   8.454  15.362  15.448  0.1748 -0.8145 -0.7618
   72ETHOX  H1355933   8.358  15.245  15.353  1.2408 -2.5824 -0.5682
   72ETHOX   C255934   8.478  15.150  15.512  0.2485  0.3770  0.0895
   72ETHOX  H2155935   8.420  15.164  15.606  1.6929 -3.1565  1.6711
   72ETHOX  H2355936   8.587  15.145  15.534  0.8784  2.2467 -2.1639
   73ETHOX   O155937   8.445  15.029  15.441 -0.0884  0.0506 -0.4914
   73ETHOX   C155938   8.417  14.925  15.535 -0.1473  0.7214  0.7798
   73ETHOX  H1155939   8.336  14.953  15.605 -1.2968 -0.7828  0.1028
   73ETHOX  H1355940   8.505  14.909  15.601  0.5978  1.8315  0.1107
   73ETHOX   C255941   8.364  14.796  15.466  0.1237 -0.3927 -0.2329
   73ETHOX  H2155942   8.380  14.709  15.534  1.0448  0.8863  1.2729
   73ETHOX  H2355943   8.435  14.782  15.382  1.8909  3.2279  0.4677
   74ETHOX   O155944   8.230  14.817  15.423 -0.0376 -0.2067  0.1843
   74ETHOX   C155945   8.205  14.741  15.310  0.0776 -0.0717  0.3292
   74ETHOX  H1155946   8.275  14.777  15.231 -0.3909  0.9823  0.3730
   74ETHOX  H1355947   8.233  14.638  15.341  1.9423  0.1921 -0.3643
   74ETHOX   C255948   8.065  14.772  15.259 -0.2037  0.1122 -0.4951
   74ETHOX  H2155949   8.059  14.747  15.151 -0.8836 -1.4788 -0.1232
   74ETHOX  H2355950   8.043  14.881  15.259 -0.5607  0.1206 -3.3350
   75ETHOX   O155951   7.960  14.706  15.327 -0.3786  0.0801  0.4339
   75ETHOX   C155952   7.842  14.782  15.328  0.1931 -0.2787  0.4270
   75ETHOX  H1155953   7.785  14.766  15.233  0.5754 -2.1076  0.4675
   75ETHOX  H1355954   7.866  14.890  15.338 -0.6658 -0.0433  0.1154
   75ETHOX   C255955   7.742  14.736  15.435  0.7979  0.0970  0.4895
   75ETHOX  H2155956   7.736  14.625  15.444  0.0175  0.1100  0.2009
   75ETHOX  H2355957   7.638  14.770  15.414  1.0333  1.5423  1.4900
   76ETHOX   O155958   7.787  14.780  15.561  0.3503  0.0550 -0.6107
   76ETHOX   C155959   7.704  14.732  15.664  0.4271  0.5592 -0.5382
   76ETHOX  H1155960   7.661  14.630  15.651 -0.1475  0.8747 -1.2546
   76ETHOX  H1355961   7.770  14.715  15.752 -0.1727  1.9938  0.2116
   76ETHOX   C255962   7.591  14.821  15.708  0.5716  0.0783  0.0017
   76ETHOX  H2155963   7.624  14.923  15.737 -0.6942  0.8839 -1.2655
   76ETHOX  H2355964   7.545  14.769  15.794 -2.9438  1.9986 -0.5502
   77ETHOX   O155965   7.487  14.838  15.607  0.3053  0.3059  0.5102
   77ETHOX   C155966   7.428  14.969  15.618  0.0988 -0.1117 -0.2446
   77ETHOX  H1155967   7.416  15.000  15.724 -0.5871  0.6205 -0.5266
   77ETHOX  H1355968   7.324  14.965  15.578 -0.9556  2.0632  1.9785
   77ETHOX   C255969   7.502  15.064  15.524 -0.0547 -0.3015  1.0680
   77ETHOX  H2155970   7.606  15.092  15.550  0.1653  1.0265 -0.9960
   77ETHOX  H2355971   7.462  15.167  15.523 -1.7984 -0.9096 -1.2623
   78ETHOX   O155972   7.495  15.020  15.387  0.3859 -0.1895 -0.6951
   78ETHOX   C155973   7.495  15.124  15.295  0.2967 -0.6993  0.0249
   78ETHOX  H1155974   7.395  15.171  15.302  0.3978 -0.5860  0.8201
   78ETHOX  H1355975   7.580  15.196  15.303  0.1367 -0.5062 -0.0016
   78ETHOX   C255976   7.507  15.064  15.154 -0.1092 -0.1705 -0.3560
   78ETHOX  H2155977   7.466  15.139  15.082 -1.5089 -0.6912 -0.1366
   78ETHOX  H2355978   7.433  14.983  15.136  1.0863 -0.7935 -3.0175
   79ETHOX   O155979   7.635  15.014  15.126 -0.0618 -0.9981  0.0550
   79ETHOX   C155980   7.735  15.120  15.099 -0.8212  0.5621  0.8487
   79ETHOX  H1155981   7.680  15.200  15.046 -0.4771  0.4807  0.3664
   79ETHOX  H1355982   7.765  15.165  15.196 -0.9764  2.9049 -0.1439
   79ETHOX   C255983   7.862  15.076  15.030 -0.0962 -0.4063  0.5997
   79ETHOX  H2155984   7.913  14.990  15.078 -2.1123 -1.2642  1.3216
   79ETHOX  H2355985   7.940  15.154  15.020  1.0714 -1.5091  0.7975
   80ETHOX   O155986   7.821  15.038  14.900  0.8120 -0.3241  0.2072
   80ETHOX   C155987   7.923  15.030  14.810  0.2048 -0.0778 -0.0287
   80ETHOX  H1155988   7.968  15.130  14.792  1.1097 -0.3948  0.4247
   80ETHOX  H1355989   8.007  14.969  14.850 -0.2711 -0.3461  0.5852
   80ETHOX   C255990   7.870  14.975  14.671 -0.0086 -0.5863  0.0496
   80ETHOX  H2155991   7.933  15.023  14.593 -1.6708  1.9040  0.1105
   80ETHOX  H2355992   7.764  15.006  14.655  0.8625  1.4358 -2.6192
   81ETHOX   O155993   7.876  14.833  14.643 -0.3057 -0.0079  0.2914
   81ETHOX   C155994   7.835  14.812  14.513  0.5710  0.1642 -0.2830
   81ETHOX  H1155995   7.847  14.907  14.456 -0.2379  0.5270  0.1337
   81ETHOX  H1355996   7.899  14.733  14.467  0.6307 -0.1472  0.3272
   81ETHOX   C255997   7.693  14.765  14.505  0.4775 -0.1776 -0.5480
   81ETHOX  H2155998   7.684  14.657  14.530  1.6701 -0.0214  0.6778
   81ETHOX  H2355999   7.626  14.812  14.581 -0.8513 -2.3415 -0.2786
   82ETHOX   O156000   7.643  14.782  14.374  0.3801 -0.8273  0.6796
   82ETHOX   C156001   7.523  14.710  14.344  0.0483 -0.1076 -0.4926
   82ETHOX  H1156002   7.475  14.709  14.444  1.9881 -2.4296  0.4961
   82ETHOX  H1356003   7.532  14.603  14.316 -1.2424  0.1021 -1.8373
   82ETHOX   C256004   7.434  14.782  14.243  0.5115 -1.2175 -0.5714
   82ETHOX  H2156005   7.430  14.889  14.271 -1.1206 -0.6753 -2.6302
   82ETHOX  H2356006   7.335  14.730  14.244  1.1164 -2.4190  0.1974
   83ETHOX   O156007   7.497  14.760  14.118 -0.4767 -0.7682  0.1853
   83ETHOX   C156008   7.443  14.864  14.025 -1.1000 -0.1249 -0.2002
   83ETHOX  H1156009   7.332  14.854  14.023 -1.0370 -1.5050  1.0205
   83ETHOX  H1356010   7.480  14.956  14.075 -2.4781 -0.5026  1.6372
   83ETHOX   C256011   7.495  14.853  13.884  0.3501  0.7798  0.2817
   83ETHOX  H2156012   7.606  14.850  13.879  0.4417 -0.1923  1.9513
   83ETHOX  H2356013   7.452  14.934  13.823 -2.0262 -1.5417 -1.3425
   84ETHOX   O156014   7.453  14.721  13.838 -0.2581  0.0711  0.3668
   84ETHOX   C156015   7.482  14.705  13.697 -0.1970  0.4459  0.8028
   84ETHOX  H1156016   7.591  14.698  13.677 -0.3786 -0.2006  0.0114
   84ETHOX  H1356017   7.433  14.786  13.639 -1.4107 -0.7994  0.0379
   84ETHOX   C256018   7.409  14.574  13.655 -0.3785  0.1903 -0.1494
   84ETHOX  H2156019   7.386  14.555  13.547 -0.7294  1.3504 -0.2991
   84ETHOX  H2356020   7.314  14.593  13.710 -0.6144  1.4662 -0.9324
   85ETHOX   O156021   7.477  14.465  13.714  0.3079  0.2050 -0.0798
   85ETHOX   C156022   7.394  14.348  13.727  0.1434 -0.7038  0.1791
   85ETHOX  H1156023   7.300  14.378  13.779  0.8017 -0.0903  1.0479
   85ETHOX  H1356024   7.369  14.312  13.625 -2.3079 -0.7563  0.7259
   85ETHOX   C256025   7.474  14.242  13.812  0.5907  0.2555  0.0141
   85ETHOX  H2156026   7.404  14.156  13.825 -0.0598  0.9320  1.1218
   85ETHOX  H2356027   7.505  14.292  13.906 -0.1125  0.2515  0.2526
   86ETHOX   O156028   7.586  14.199  13.733 -0.8089 -0.6108  0.4172
   86ETHOX   C156029   7.666  14.096  13.797  0.3705 -0.6596 -0.2391
   86ETHOX  H1156030   7.725  14.051  13.713 -2.1836  0.3809 -2.7554
   86ETHOX  H1356031   7.595  14.028  13.848 -0.1791 -0.1189 -0.2644
   86ETHOX   C256032   7.762  14.165  13.891 -0.6364 -0.0966  0.8895
   86ETHOX  H2156033   7.709  14.182  13.987 -2.3348 -0.1837  0.0020
   86ETHOX  H2356034   7.791  14.259  13.839  0.4777  0.3223  2.1789
   87ETHOX   O156035   7.869  14.077  13.898  0.6446  0.5948  0.6091
   87ETHOX   C156036   7.965  14.127  13.990  0.3640  0.0077  0.4130
   87ETHOX  H1156037   7.982  14.235  13.971 -0.0440  0.4225  2.1901
   87ETHOX  H1356038   7.928  14.124  14.095 -0.5373  1.7925  0.2015
   87ETHOX   C256039   8.096  14.052  13.988 -0.0928  0.5155  0.6857
   87ETHOX  H2156040   8.146  14.097  14.076 -0.4236  0.8889  0.6869
   87ETHOX  H2356041   8.157  14.064  13.896 -0.9453  0.8816  0.1597
   88ETHOX   O156042   8.087  13.913  14.014  0.2198 -0.3824 -0.4285
   88ETHOX   C156043   8.206  13.840  14.002 -0.0561 -0.3177 -0.3604
   88ETHOX  H1156044   8.261  13.859  14.097 -2.8698  2.0578  0.9239
   88ETHOX  H1356045   8.274  13.894  13.933  1.0153 -2.1957 -0.8418
   88ETHOX   C256046   8.186  13.684  13.979 -0.6954 -0.2613 -0.0513
   88ETHOX  H2156047   8.114  13.655  14.059 -0.6526  0.7194  0.3657
   88ETHOX  H2356048   8.282  13.630  13.994  0.3557  1.5507  0.0653
   89ETHOX   O156049   8.136  13.647  13.851 -0.6939 -0.4102  0.0289
   89ETHOX   C156050   8.091  13.516  13.848 -0.6144 -0.5575 -0.0328
   89ETHOX  H1156051   8.173  13.454  13.890  1.0729  2.3554  1.3092
   89ETHOX  H1356052   7.996  13.510  13.905 -1.4715 -1.7258 -1.5022
   89ETHOX   C256053   8.076  13.465  13.707  0.4927 -0.5418  0.6121
   89ETHOX  H2156054   8.176  13.467  13.659  0.2882 -1.6704  0.1112
   89ETHOX  H2356055   8.013  13.534  13.647 -0.5119 -2.0699 -0.1346
   90ETHOX   O156056   8.020  13.339  13.701 -0.3050 -0.2681 -0.4613
   90ETHOX   C156057   8.005  13.287  13.570 -0.1997 -0.2278  0.4184
   90ETHOX  H1156058   7.907  13.315  13.526  0.2101 -0.5426 -0.7193
   90ETHOX  H1356059   8.082  13.336  13.507 -1.8979  2.6255  0.3439
   90ETHOX   C256060   7.990  13.135  13.565  0.1487 -0.8233 -0.3362
   90ETHOX  H2156061   7.937  13.098  13.475  0.2624 -1.3995 -0.1727
   90ETHOX  H2356062   7.920  13.110  13.648  0.3632  1.5532  0.6452
   91ETHOX   O156063   8.116  13.077  13.583  0.5649  0.4415  0.0527
   91ETHOX   C156064   8.106  12.938  13.621 -0.1817 -0.2376 -0.1910
   91ETHOX  H1156065   8.054  12.919  13.717  1.1177 -0.7773  0.4353
   91ETHOX  H1356066   8.047  12.889  13.540  1.4383  0.1702 -1.6832
   91ETHOX   C256067   8.245  12.881  13.632 -0.2354  0.2478 -0.1565
   91ETHOX  H2156068   8.243  12.786  13.689 -0.4749  0.7707  0.7366
   91ETHOX  H2356069   8.313  12.941  13.697 -0.2820  0.2581 -0.1186
   92ETHOX   O156070   8.288  12.852  13.501 -0.1317  0.9795 -0.6617
   92ETHOX   C156071   8.413  12.781  13.499  0.7745  0.0180 -0.8565
   92ETHOX  H1156072   8.489  12.859  13.475  0.9634  0.1469  0.1385
   92ETHOX  H1356073   8.443  12.736  13.596  2.4274 -0.2392 -1.4548
   92ETHOX   C256074   8.418  12.672  13.393  0.5104 -0.5604 -0.5565
   92ETHOX  H2156075   8.527  12.650  13.384  0.9357  0.7456  0.9078
   92ETHOX  H2356076   8.384  12.706  13.293  2.7384  1.8176 -0.6285
   93ETHOX   O156077   8.351  12.557  13.441 -0.0302  0.1457  0.5701
   93ETHOX   C156078   8.380  12.448  13.351 -0.5298  0.3717  0.2977
   93ETHOX  H1156079   8.484  12.409  13.351 -0.7898 -0.4347 -1.8113
   93ETHOX  H1356080   8.368  12.492  13.250 -1.3807 -0.8818 -0.1715
   93ETHOX   C256081   8.278  12.336  13.372 -0.7247  0.2453 -0.0264
   93ETHOX  H2156082   8.289  12.261  13.291 -0.4054 -1.2393  1.3250
   93ETHOX  H2356083   8.174  12.371  13.356 -1.2086 -2.0772 -2.8730
   94ETHOX   O156084   8.281  12.261  13.505  0.3685  0.4139 -0.6111
   94ETHOX   C156085   8.177  12.168  13.510 -0.4269 -0.6646 -0.4518
   94ETHOX  H1156086   8.080  12.221  13.524 -2.1247 -3.4753 -0.7029
   94ETHOX  H1356087   8.174  12.120  13.410 -1.4166  0.8993 -1.2123
   94ETHOX   C256088   8.211  12.076  13.622 -0.4927 -0.5910  0.1008
   94ETHOX  H2156089   8.128  12.003  13.629  0.2700 -1.3719  1.4246
   94ETHOX  H2356090   8.232  12.121  13.721  0.1971 -2.1049  0.6710
   95ETHOX   O156091   8.336  12.006  13.589 -0.1375  0.1196 -0.0927
   95ETHOX   C156092   8.336  11.880  13.659 -0.0279  0.0915 -0.1942
   95ETHOX  H1156093   8.251  11.822  13.619  1.2008 -1.8441 -0.1267
   95ETHOX  H1356094   8.312  11.899  13.766  0.5787  1.1092 -0.2270
   95ETHOX   C256095   8.468  11.809  13.648 -0.0371  0.3701 -0.1490
   95ETHOX  H2156096   8.498  11.801  13.541 -0.6268 -2.1121 -0.2067
   95ETHOX  H2356097   8.457  11.706  13.689  0.5439 -0.3461 -1.6970
   96ETHOX   O156098   8.569  11.870  13.725 -0.3051 -0.7105 -0.0892
   96ETHOX   C156099   8.698  11.842  13.670  0.0591 -0.5079 -0.6291
   96ETHOX  H1156100   8.703  11.855  13.560  1.6708 -0.0229 -0.5124
   96ETHOX  H1356101   8.759  11.929  13.704  0.4475 -0.6861 -0.8709
   96ETHOX   C256102   8.774  11.717  13.713  0.4430 -0.4121  0.0604
   96ETHOX  H2156103   8.764  11.707  13.823 -1.3409  1.0123  0.0775
   96ETHOX  H2356104   8.881  11.721  13.683  0.4822  1.4138  0.2842
   97ETHOX   O156105   8.723  11.598  13.654  0.1591  0.6254  0.0790
   97ETHOX   C156106   8.776  11.486  13.725  0.6192 -0.8010  0.7895
   97ETHOX  H1156107   8.749  11.488  13.832 -1.0649 -1.0074  0.3964
   97ETHOX  H1356108   8.887  11.480  13.714  0.4405 -0.9198 -1.4472
   97ETHOX   C256109   8.724  11.348  13.681 -0.3336  0.1286  0.7519
   97ETHOX  H2156110   8.616  11.363  13.661 -0.6504  0.3250  2.4327
   97ETHOX  H2356111   8.758  11.277  13.759 -2.2732 -0.5585  1.0241
   98ETHOX   O156112   8.801  11.306  13.571 -0.9929 -0.4064 -0.4069
   98ETHOX   C156113   8.756  11.185  13.519 -0.0426 -0.0735  0.0260
   98ETHOX  H1156114   8.645  11.182  13.517 -0.1260  1.7263  0.4398
   98ETHOX  H1356115   8.774  11.193  13.410 -0.3775  1.4555  0.0684
   98ETHOX   C256116   8.802  11.052  13.588  0.1684  0.5839 -0.0971
   98ETHOX  H2156117   8.908  11.060  13.621 -0.4645 -2.1082  3.2110
   98ETHOX  H2356118   8.783  10.966  13.521  0.7036  1.2244 -1.0791
   99ETHOX   O156119   8.736  11.018  13.716  0.5365  0.4133  0.0628
   99ETHOX   C156120   8.769  10.880  13.754  0.0175 -0.1297  0.7497
   99ETHOX  H1156121   8.864  10.850  13.704  1.1856  1.3240  1.9963
   99ETHOX  H1356122   8.688  10.813  13.718 -0.4197  0.9109 -0.2533
   99ETHOX   C256123   8.781  10.862  13.906 -0.4893 -0.6332  0.1295
   99ETHOX  H2156124   8.792  10.758  13.943 -0.5281 -0.5473  0.3804
   99ETHOX  H2356125   8.702  10.918  13.959  0.1100 -1.9279  2.5236
  100ETHOX   O156126   8.909  10.914  13.953  0.3665  0.1127 -0.0389
  100ETHOX   C156127   8.905  11.056  13.986 -0.5099 -0.4475 -0.6762
  100ETHOX  H1156128   8.831  11.105  13.918 -0.1673  0.6301 -0.2871
  100ETHOX  H1356129   8.869  11.067  14.090 -1.3757 -1.4887 -0.8487
  100ETHOX   C256130   9.032  11.145  13.978 -0.2680 -0.0524 -0.0621
  100ETHOX  H2156131   9.005  11.252  13.966  0.2821  0.1828  0.7202
  100ETHOX  H2356132   9.070  11.106  13.881 -5.0682 -2.6533 -1.2498
  101PROXS   O156133   9.117  11.115  14.090  0.1029 -0.4492  0.4503
  101PROXS   C156134   9.242  11.180  14.076  0.4117  0.8544  0.8869
  101PROXS  H1156135   9.298  11.123  13.999  0.8336  0.8635  1.1808
  101PROXS  H1356136   9.217  11.284  14.047 -1.2007  0.6285  1.3616
  101PROXS   C256137   9.308  11.178  14.212 -0.8257 -0.3972 -0.8659
  101PROXS  H2156138   9.328  11.077  14.254  0.3779  0.1203 -0.1439
  101PROXS   C356139   9.238  11.253  14.326  0.1218 -0.4555 -0.7929
  101PROXS  H3156140   9.131  11.223  14.328 -0.4832  1.5088  1.2632
  101PROXS  H3256141   9.293  11.227  14.420  0.5505 -3.1927 -1.6984
  101PROXS  H3356142   9.236  11.360  14.298  1.4169 -0.4630 -0.9782
  102PROXS   O156143   9.437  11.240  14.203 -0.0100 -0.6870 -0.2394
  102PROXS   C156144   9.527  11.156  14.121  0.1274 -0.6541  0.5221
  102PROXS  H1156145   9.536  11.054  14.166 -0.4610  0.0530  2.3294
  102PROXS  H1356146   9.501  11.137  14.015  0.8439  0.5692  0.1101
  102PROXS   C256147   9.665  11.228  14.118 -0.0646  0.4445  0.0831
  102PROXS  H2156148   9.713  11.234  14.218 -0.4902  1.0093  0.2558
  102PROXS   C356149   9.645  11.362  14.064  0.3823  0.6763  0.0995
  102PROXS  H3156150   9.582  11.418  14.137 -0.7821 -2.7084  1.9217
  102PROXS  H3256151   9.731  11.427  14.039  0.5410 -0.1288 -1.5836
  102PROXS  H3356152   9.597  11.347  13.965 -0.8489 -4.0230  1.1642
  103PROXR   O156153   9.737  11.156  14.026  0.3653 -0.4295 -0.9824
  103PROXR   C156154   9.808  11.052  14.097 -0.4519  0.3254  0.1784
  103PROXR  H1156155   9.865  11.094  14.183  2.6821  1.2435 -2.1336
  103PROXR  H1356156   9.738  10.979  14.142 -1.3949  1.1360  0.0682
  103PROXR   C256157   9.916  10.993  14.003  0.3803 -0.2405  0.4439
  103PROXR  H2156158   9.966  11.085  13.965  0.7718 -1.3142 -1.7861
  103PROXR   C356159   9.860  10.935  13.871 -0.5933 -0.4041 -0.2428
  103PROXR  H3156160   9.936  10.929  13.790 -0.7192  1.7213 -0.5741
  103PROXR  H3256161   9.809  10.838  13.892  1.5256 -1.0490  2.5783
  103PROXR  H3356162   9.783  11.007  13.838  0.0588  0.4273  0.0269
  104PROXS   O156163  10.013  10.923  14.079  0.1338 -0.3560 -0.0237
  104PROXS   C156164  10.125  10.874  14.011  0.3020  0.8258 -0.1938
  104PROXS  H1156165  10.079  10.798  13.944 -0.0503  0.4296  0.4855
  104PROXS  H1356166  10.188  10.951  13.960  0.8381  0.4474 -0.1180
  104PROXS   C256167  10.220  10.790  14.101  0.9422 -0.0538  0.9718
  104PROXS  H2156168  10.158  10.709  14.144  0.6722 -0.7853 -0.7369
  104PROXS   C356169  10.295  10.868  14.209  0.5068  0.0177 -0.1185
  104PROXS  H3156170  10.382  10.825  14.261  0.3520 -2.7391 -1.9248
  104PROXS  H3256171  10.338  10.955  14.155 -1.0240  1.8786  1.5077
  104PROXS  H3356172  10.220  10.903  14.283  0.9804  0.7783  0.0168
  105PROXS   O156173  10.319  10.723  14.017  0.0233 -0.3768 -0.3243
  105PROXS   C156174  10.271  10.633  13.918 -0.5797  0.0818  0.3306
  105PROXS  H1156175  10.191  10.574  13.966  0.6894 -0.1984  2.2200
  105PROXS  H1356176  10.239  10.679  13.822  0.5380  1.7728  0.7202
  105PROXS   C256177  10.380  10.527  13.884  0.0158 -0.2936  0.1925
  105PROXS  H2156178  10.414  10.483  13.981  1.0826 -0.9893 -0.4804
  105PROXS   C356179  10.494  10.600  13.817 -0.0855 -0.4689  0.2334
  105PROXS  H3156180  10.570  10.528  13.781 -0.7746  0.0328 -2.4525
  105PROXS  H3256181  10.464  10.654  13.725  0.9520  2.1359  1.3442
  105PROXS  H3356182  10.547  10.676  13.879  1.2731 -1.0620 -0.1755
  106PROXS   O156183  10.331  10.428  13.795  0.0197 -0.0507 -0.2430
  106PROXS   C156184  10.403  10.300  13.792 -0.3299 -0.4501 -0.2628
  106PROXS  H1156185  10.513  10.306  13.783 -0.3689 -0.6693 -0.9618
  106PROXS  H1356186  10.384  10.252  13.890  1.3631  1.1049  0.8764
  106PROXS   C256187  10.345  10.209  13.675  1.5525 -0.3373  0.0950
  106PROXS  H2156188  10.374  10.251  13.576 -0.2121  0.7812  0.0100
  106PROXS   C356189  10.190  10.199  13.683 -0.0002  0.4073 -0.9393
  106PROXS  H3156190  10.186  10.130  13.769  1.6271  1.8024  0.3491
  106PROXS  H3256191  10.142  10.295  13.711  1.9323  1.3436 -0.6365
  106PROXS  H3356192  10.147  10.150  13.593  2.0741 -1.9136 -0.7680
  107PROXR   O156193  10.401  10.080  13.670 -0.1874 -0.4497 -0.1532
  107PROXR   C156194  10.530  10.071  13.609 -0.0528  0.8592  0.2007
  107PROXR  H1156195  10.589  10.161  13.638  2.0752 -0.8565  1.5017
  107PROXR  H1356196  10.586   9.984  13.650  0.3178  0.3593 -1.3100
  107PROXR   C256197  10.532  10.035  13.461 -0.6637  0.2102  0.0463
  107PROXR  H2156198  10.474  10.105  13.395 -1.0978  0.1689  0.3794
  107PROXR   C356199  10.454   9.904  13.445 -0.1178 -0.3091  0.1116
  107PROXR  H3156200  10.492   9.824  13.511 -2.0402 -0.7757  0.7156
  107PROXR  H3256201  10.348   9.911  13.478 -2.2536  0.0162 -5.7107
  107PROXR  H3356202  10.457   9.861  13.343 -0.4883 -1.8272  0.7214
  108PROXS   O156203  10.660  10.014  13.410  0.3598 -0.3142  0.0533
  108PROXS   C156204  10.724  10.137  13.369 -0.8192 -0.8202 -0.2908
  108PROXS  H1156205  10.727  10.206  13.456 -0.5377 -0.4089 -0.6247
  108PROXS  H1356206  10.831  10.114  13.351 -0.4643 -0.1828  0.8899
  108PROXS   C256207  10.666  10.200  13.244 -0.0224  0.2527  0.1127
  108PROXS  H2156208  10.618  10.117  13.188 -0.1773  0.1666  0.3700
  108PROXS   C356209  10.776  10.281  13.173 -0.6001 -0.2892  0.0721
  108PROXS  H3156210  10.728  10.305  13.076 -2.5465  3.8586  1.7813
  108PROXS  H3256211  10.797  10.378  13.225  2.4711 -1.1761  0.6337
  108PROXS  H3356212  10.868  10.221  13.169  0.0382  0.7303 -1.6512
  109PROXS   O156213  10.564  10.290  13.284 -0.0094  0.6241  0.3903
  109PROXS   C156214  10.478  10.331  13.182 -1.0089  0.2579 -0.1574
  109PROXS  H1156215  10.540  10.384  13.107  0.3482 -0.9713  0.0599
  109PROXS  H1356216  10.428  10.237  13.149  0.0267 -0.2173 -0.3954
  109PROXS   C256217  10.372  10.436  13.225  0.1196 -0.0743 -0.0024
  109PROXS  H2156218  10.318  10.406  13.318  1.7345 -0.8752  0.7162
  109PROXS   C356219  10.266  10.456  13.120 -0.4433 -0.0718  0.4331
  109PROXS  H3156220  10.204  10.367  13.097  0.5615 -0.8553  0.6884
  109PROXS  H3256221  10.188  10.529  13.151  0.6955  1.9980 -1.2685
  109PROXS  H3356222  10.310  10.501  13.028  0.4130  1.7380  1.6727
  110PROXR   O156223  10.429  10.559  13.238  0.1672  0.4917  0.4021
  110PROXR   C156224  10.491  10.582  13.366  0.0993  0.8029  0.5894
  110PROXR  H1156225  10.425  10.550  13.449  0.4863 -2.5253 -0.2617
  110PROXR  H1356226  10.592  10.535  13.371  0.3514  1.3890  1.3140
  110PROXR   C256227  10.504  10.733  13.373 -0.1005  0.3437 -0.4002
  110PROXR  H2156228  10.405  10.782  13.365 -2.0063 -3.1671  0.0223
  110PROXR   C356229  10.612  10.778  13.275 -0.1154 -0.7623  0.6301
  110PROXR  H3156230  10.574  10.767  13.171  0.9991 -0.2077  0.1495
  110PROXR  H3256231  10.652  10.881  13.285  0.0933 -0.6433 -1.1625
  110PROXR  H3356232  10.707  10.720  13.281  1.9163  2.4010  1.2241
  111PROXS   O156233  10.557  10.761  13.506  0.2318  0.2642 -0.6405
  111PROXS   C156234  10.566  10.900  13.526  0.3682  0.0799  0.2009
  111PROXS  H1156235  10.661  10.946  13.491 -1.0804  2.4871 -0.8390
  111PROXS  H1356236  10.480  10.947  13.472 -0.7154  0.4315  2.1418
  111PROXS   C256237  10.539  10.938  13.673  0.0188 -0.0938  0.0051
  111PROXS  H2156238  10.606  10.866  13.724 -1.4482 -1.7813 -0.3378
  111PROXS   C356239  10.392  10.924  13.707  0.7750  0.2019 -0.1326
  111PROXS  H3156240  10.346  10.834  13.660  0.9808  0.8006 -1.4968
  111PROXS  H3256241  10.389  10.904  13.817  2.5269  1.3707  0.1609
  111PROXS  H3356242  10.332  11.016  13.690  1.9824  1.4584  1.9362
  112PROXR   O156243  10.576  11.074  13.691 -0.3098 -1.0541  0.1542
  112PROXR   C156244  10.594  11.108  13.828 -0.1892  0.2249 -0.2460
  112PROXR  H1156245  10.494  11.099  13.876  1.0891  0.2695  2.6511
  112PROXR  H1356246  10.653  11.033  13.885  0.3157  0.5147 -0.3882
  112PROXR   C256247  10.645  11.249  13.860 -0.5688  0.3186  0.2586
  112PROXR  H2156248  10.601  11.325  13.791  0.2084 -0.3229 -0.9876
  112PROXR   C356249  10.796  11.254  13.831  0.6604 -1.0530 -0.5617
  112PROXR  H3156250  10.834  11.205  13.924 -1.5452 -1.9130 -0.0690
  112PROXR  H3256251  10.815  11.197  13.738 -2.3472  1.1787 -2.7385
  112PROXR  H3356252  10.825  11.361  13.818  2.4840 -1.3447  0.6269
  113PROXS   O156253  10.617  11.290  13.993  0.8233  0.5803 -0.0184
  113PROXS   C156254  10.479  11.332  14.013  0.3187  1.0133  0.2933
  113PROXS  H1156255  10.468  11.409  13.933 -2.8241  1.8465  1.3994
  113PROXS  H1356256  10.407  11.256  13.979 -0.0906  1.4907  0.0729
  113PROXS   C256257  10.463  11.374  14.161 -1.1036  0.6790 -0.3228
  113PROXS  H2156258  10.514  11.471  14.177  0.6604 -0.3586  0.6679
  113PROXS   C356259  10.530  11.272  14.246  0.5869  0.7958 -1.0510
  113PROXS  H3156260  10.510  11.288  14.354  2.9579  1.8833 -0.7027
  113PROXS  H3256261  10.483  11.176  14.215 -0.5207  0.8637  0.2899
  113PROXS  H3356262  10.640  11.266  14.238  0.4448 -0.9806 -2.2654
  114PROXR   O156263  10.332  11.400  14.194 -0.0456  0.2743  0.4863
  114PROXR   C156264  10.266  11.496  14.115 -0.3756  0.4902  0.0429
  114PROXR  H1156265  10.333  11.580  14.140  1.6580 -1.4051  1.3304
  114PROXR  H1356266  10.266  11.459  14.010  2.1395 -1.7145  0.6966
  114PROXR   C256267  10.123  11.522  14.156 -0.2096  0.1130  0.3650
  114PROXR  H2156268  10.124  11.579  14.251 -1.3487 -0.4806  0.7505
  114PROXR   C356269  10.047  11.386  14.170  0.0387  0.1867 -0.0306
  114PROXR  H3156270  10.097  11.332  14.253  3.2382 -0.1596 -2.0528
  114PROXR  H3256271   9.940  11.418  14.174  0.0763  0.6477 -1.9145
  114PROXR  H3356272  10.070  11.324  14.081  2.9442  0.6131  0.3431
  115PROXR   O156273  10.066  11.603  14.054 -0.6116 -0.4132 -0.6550
  115PROXR   C156274   9.945  11.663  14.095 -0.6383  0.3137 -0.9611
  115PROXR  H1156275   9.866  11.586  14.115 -0.5636  0.6943  0.9612
  115PROXR  H1356276   9.953  11.711  14.194 -0.4297  0.5681 -1.1029
  115PROXR   C256277   9.903  11.773  13.993 -0.7995  0.0201 -0.0692
  115PROXR  H2156278   9.931  11.742  13.890 -0.3342  2.4520 -0.7394
  115PROXR   C356279   9.972  11.908  14.021  0.3901 -0.3235 -1.0936
  115PROXR  H3156280   9.965  11.973  13.932  2.0622  0.9576 -0.3393
  115PROXR  H3256281   9.924  11.974  14.097  1.9529 -1.1544  0.7075
  115PROXR  H3356282  10.081  11.893  14.037  0.3973  0.8671  0.1913
  116PROXS   O156283   9.764  11.788  14.000 -0.5628 -0.6303 -0.1430
  116PROXS   C156284   9.720  11.863  13.886  0.4831 -0.0606  0.5117
  116PROXS  H1156285   9.736  11.971  13.907 -0.7997  0.0619  0.9631
  116PROXS  H1356286   9.774  11.825  13.797 -2.9504 -0.8675 -1.4005
  116PROXS   C256287   9.567  11.845  13.863 -0.8781 -0.1772 -0.0811
  116PROXS  H2156288   9.523  11.870  13.962  1.0470  1.9977  0.3054
  116PROXS   C356289   9.531  11.704  13.817 -0.0352  0.5550 -1.1127
  116PROXS  H3156290   9.569  11.623  13.883  0.1448  2.2899  1.0405
  116PROXS  H3256291   9.421  11.693  13.809  0.0661 -0.9123 -0.8434
  116PROXS  H3356292   9.580  11.686  13.719 -0.2867 -1.0007 -0.9807
  117PROXS   O156293   9.519  11.929  13.772  0.3161 -0.4474  0.3464
  117PROXS   C156294   9.483  12.056  13.827 -0.1623 -0.0863  0.6146
  117PROXS  H1156295   9.411  12.049  13.911  2.0286 -0.5026  2.5518
  117PROXS  H1356296   9.578  12.104  13.859  0.1953 -0.3587 -0.0059
  117PROXS   C256297   9.415  12.147  13.721  0.0125  0.2624  0.3024
  117PROXS  H2156298   9.315  12.101  13.708  0.5425 -0.2783 -2.2070
  117PROXS   C356299   9.491  12.143  13.592 -0.1001  0.0047  0.2433
  117PROXS  H3156300   9.489  12.038  13.556  0.2208 -0.6402  2.0033
  117PROXS  H3256301   9.446  12.212  13.518 -1.1087  2.3229  2.8626
  117PROXS  H3356302   9.601  12.159  13.603  0.1823 -0.4897 -1.5565
  118PROXR   O156303   9.412  12.284  13.775 -0.3547  0.3428  0.1453
  118PROXR   C156304   9.295  12.354  13.737  0.0883  0.0097 -0.3231
  118PROXR  H1156305   9.273  12.326  13.631 -2.5978  0.1188  0.1384
  118PROXR  H1356306   9.206  12.326  13.797  0.4591  0.9919  0.7265
  118PROXR   C256307   9.318  12.514  13.745  0.3858  0.1699  0.2621
  118PROXR  H2156308   9.397  12.530  13.821  0.4179 -0.3880  0.3515
  118PROXR   C356309   9.189  12.582  13.782 -0.7796 -0.2347  0.3684
  118PROXR  H3156310   9.113  12.548  13.708  0.1053 -0.4883 -0.4418
  118PROXR  H3256311   9.150  12.569  13.885  0.3546  0.4573  0.9041
  118PROXR  H3356312   9.199  12.690  13.758 -0.5696 -0.4376 -0.4970
  119PROXR   O156313   9.363  12.562  13.618 -0.3513 -0.2476  0.1094
  119PROXR   C156314   9.503  12.535  13.606  0.0252  0.0317  0.2085
  119PROXR  H1156315   9.528  12.429  13.630  2.2283  0.5751  0.5195
  119PROXR  H1356316   9.504  12.540  13.495 -1.5657 -3.0102 -0.0671
  119PROXR   C256317   9.600  12.636  13.666 -0.3371  0.2910 -0.1623
  119PROXR  H2156318   9.586  12.612  13.774  2.2210 -2.5128 -0.3240
  119PROXR   C356319   9.555  12.779  13.629  0.1470  1.0268 -0.1978
  119PROXR  H3156320   9.558  12.803  13.521 -3.3169  1.7141 -0.2574
  119PROXR  H3256321   9.451  12.797  13.664 -0.1823  1.5892 -1.4228
  119PROXR  H3356322   9.622  12.857  13.673  1.2409  0.0989 -0.1829
  120PROXS   O156323   9.734  12.621  13.616  0.6328  0.2957 -0.5390
  120PROXS   C156324   9.836  12.671  13.707 -0.4580  0.7462 -0.0350
  120PROXS  H1156325   9.802  12.757  13.769 -0.2765  0.9064 -0.1571
  120PROXS  H1356326   9.863  12.591  13.780  2.0340  1.9006  0.4326
  120PROXS   C256327   9.965  12.715  13.635  0.2606  0.0066 -0.3534
  120PROXS  H2156328  10.055  12.731  13.698  0.4821  0.0166 -0.6702
  120PROXS   C356329   9.941  12.834  13.546 -0.1308 -0.0338 -0.6316
  120PROXS  H3156330   9.919  12.932  13.594  0.6530 -0.4648  0.6704
  120PROXS  H3256331  10.039  12.852  13.497  0.5350  0.8536  0.9501
  120PROXS  H3356332   9.876  12.803  13.462  0.4099 -0.0414 -1.0485
  121PROXS   O156333  10.004  12.619  13.544  0.3643  0.3033 -0.2324
  121PROXS   C156334  10.078  12.510  13.601  0.1026 -0.6771 -0.0881
  121PROXS  H1156335  10.185  12.535  13.591  0.3309 -1.1331  1.0088
  121PROXS  H1356336  10.066  12.496  13.711 -0.0680 -1.2157 -0.1728
  121PROXS   C256337  10.050  12.376  13.535 -0.1303 -0.6864  0.2315
  121PROXS  H2156338  10.070  12.385  13.426 -0.2809  1.6134  0.3500
  121PROXS   C356339   9.905  12.330  13.552 -0.3703 -0.6096  0.4445
  121PROXS  H3156340   9.837  12.391  13.488  1.3836 -0.9516 -1.8647
  121PROXS  H3256341   9.887  12.224  13.523  0.8365 -0.1960 -2.0535
  121PROXS  H3356342   9.877  12.336  13.660 -0.1847 -1.4131  0.5471
  122PROXS   O156343  10.131  12.277  13.596  0.0098  0.2292 -0.2133
  122PROXS   C156344  10.160  12.159  13.522  0.1640  0.2277  0.2066
  122PROXS  H1156345  10.100  12.149  13.429 -0.5781 -1.0373  0.7981
  122PROXS  H1356346  10.271  12.161  13.517  0.1087  0.5817 -1.2690
  122PROXS   C256347  10.118  12.036  13.612  0.2025 -0.0558 -0.2662
  122PROXS  H2156348  10.008  12.045  13.609  0.1187 -1.0195 -0.6371
  122PROXS   C356349  10.176  12.041  13.754 -0.3058 -0.1940 -0.6368
  122PROXS  H3156350  10.138  12.128  13.812 -0.5491  0.2266 -1.4002
  122PROXS  H3256351  10.161  11.943  13.803  1.3814  0.0177  0.3627
  122PROXS  H3356352  10.286  12.054  13.758 -0.4842  1.6354 -0.7059
  123PROXS   O156353  10.160  11.915  13.547 -0.6107 -0.5156  0.1289
  123PROXS   C156354  10.077  11.799  13.584 -0.4171 -0.0474  0.3523
  123PROXS  H1156355  10.104  11.776  13.690 -1.4211 -0.5931  0.4993
  123PROXS  H1356356   9.968  11.818  13.585 -0.4342 -0.1384  0.1250
  123PROXS   C256357  10.117  11.666  13.498  1.0422 -0.1990  0.0845
  123PROXS  H2156358  10.227  11.656  13.491  0.9915  0.3402 -2.1824
  123PROXS   C356359  10.062  11.684  13.353 -0.8973  0.5642  0.3184
  123PROXS  H3156360  10.090  11.615  13.271 -1.1894  1.3162 -0.4299
  123PROXS  H3256361   9.951  11.687  13.349 -0.8807 -0.1257 -2.0721
  123PROXS  H3356362  10.098  11.783  13.318  1.2237 -0.1229  0.4223
  124PROXR   O156363  10.056  11.557  13.565 -0.3645 -0.0985  0.1976
  124PROXR   C156364  10.089  11.432  13.504 -0.0030  0.7332  0.1159
  124PROXR  H1156365  10.024  11.405  13.418  2.3530 -2.2665 -0.8998
  124PROXR  H1356366  10.195  11.425  13.472 -0.9683 -0.8593 -3.2363
  124PROXR   C256367  10.048  11.307  13.596 -0.5295 -0.5051  0.2353
  124PROXR  H2156368   9.939  11.317  13.614 -0.3713  1.2209  0.4395
  124PROXR   C356369  10.125  11.302  13.726  0.3448 -0.3581 -0.4946
  124PROXR  H3156370  10.234  11.289  13.708  0.8456  0.5216  1.5871
  124PROXR  H3256371  10.099  11.400  13.772 -1.4729 -1.8138  1.8017
  124PROXR  H3356372  10.080  11.233  13.800  0.5387 -0.3267 -0.3477
  125PROXS   O156373  10.079  11.193  13.514  0.1342 -0.0079 -0.2031
  125PROXS   C156374  10.031  11.070  13.571  0.0037 -0.1946 -0.5117
  125PROXS  H1156375  10.059  11.063  13.679 -0.9519  2.3561 -0.0428
  125PROXS  H1356376   9.920  11.066  13.580  0.1367 -0.5133  1.5398
  125PROXS   C256377  10.084  10.958  13.490 -0.0024  0.8032  0.0144
  125PROXS  H2156378  10.194  10.960  13.503  0.3527  1.5659 -2.5395
  125PROXS   C356379  10.064  10.987  13.337 -0.1895 -0.2856 -0.4201
  125PROXS  H3156380   9.955  10.998  13.318 -0.1888  1.0199  0.2147
  125PROXS  H3256381  10.106  11.088  13.313 -1.4254  0.6358  1.1071
  125PROXS  H3356382  10.105  10.908  13.271  1.7735  1.5392 -1.5244
  126PROXS   O156383  10.042  10.831  13.546 -0.2431 -0.5897 -0.1241
  126PROXS   C156384  10.055  10.718  13.467 -0.0829  0.1298 -0.5037
  126PROXS  H1156385   9.995  10.731  13.375 -2.0994  0.3244  0.7784
  126PROXS  H1356386  10.162  10.694  13.447 -0.0589 -2.2507  1.9341
  126PROXS   C256387   9.996  10.602  13.545  0.1202  0.0893  0.0164
  126PROXS  H2156388  10.030  10.616  13.650  0.6363 -3.7227  0.5080
  126PROXS   C356389  10.052  10.469  13.498  0.2489 -0.3423  0.0376
  126PROXS  H3156390  10.151  10.457  13.547  1.4530 -0.1514 -2.2043
  126PROXS  H3256391   9.985  10.387  13.533  0.5781 -0.7061 -0.1755
  126PROXS  H3356392  10.055  10.464  13.387 -1.3950  0.5085 -0.0708
  127PROXR   O156393   9.854  10.588  13.528 -0.5349  0.6457  0.6826
  127PROXR   C156394   9.782  10.693  13.595 -0.0173  0.0141  0.2913
  127PROXR  H1156395   9.829  10.694  13.696 -0.0586  1.5425  0.3153
  127PROXR  H1356396   9.800  10.788  13.541 -1.5565  1.4833  2.1712
  127PROXR   C256397   9.630  10.664  13.608 -0.3597 -0.0355  0.1874
  127PROXR  H2156398   9.621  10.569  13.665  0.4904  0.8056  1.8111
  127PROXR   C356399   9.568  10.641  13.470 -0.5636 -0.6126 -0.1959
  127PROXR  H3156400   9.582  10.731  13.406 -1.1317 -2.2414 -2.7657
  127PROXR  H3256401   9.628  10.564  13.418  0.4896  0.2745 -0.3422
  127PROXR  H3356402   9.459  10.620  13.474 -0.7413  0.1296 -0.9036
  128PROXR   O156403   9.571  10.780  13.670 -0.0514  0.1203 -0.2702
  128PROXR   C156404   9.473  10.752  13.771  0.7469  0.6217  0.1268
  128PROXR  H1156405   9.385  10.707  13.720 -0.2707  0.3527  2.0186
  128PROXR  H1356406   9.510  10.679  13.846  1.4190  0.8409  0.0133
  128PROXR   C256407   9.440  10.877  13.858  0.1120  0.3172 -0.2450
  128PROXR  H2156408   9.539  10.923  13.879  0.9581 -0.4260 -2.2708
  128PROXR   C356409   9.381  10.829  13.995  0.4504  0.7863  0.7018
  128PROXR  H3156410   9.442  10.744  14.033  2.3195  1.6571 -0.2285
  128PROXR  H3256411   9.402  10.903  14.075  1.5380  0.4898  0.7073
  128PROXR  H3356412   9.271  10.815  13.988  0.5232 -0.1533  1.2871
  129PROXS   O156413   9.361  10.980  13.794 -0.3159  0.1799 -0.2503
  129PROXS   C156414   9.428  11.032  13.678  0.1510  0.7997 -0.4796
  129PROXS  H1156415   9.539  11.040  13.684  0.4542 -2.2480 -0.0311
  129PROXS  H1356416   9.408  10.980  13.582  0.4904  0.2637 -0.2671
  129PROXS   C256417   9.375  11.173  13.662  0.3112  0.3751 -0.6281
  129PROXS  H2156418   9.377  11.226  13.760 -2.1463 -0.7463  0.1213
  129PROXS   C356419   9.235  11.165  13.599 -0.2173  0.1213 -0.0160
  129PROXS  H3156420   9.249  11.158  13.489  1.8447 -0.5029  0.2460
  129PROXS  H3256421   9.182  11.079  13.646 -0.6112  1.3232  1.8356
  129PROXS  H3356422   9.171  11.254  13.617 -1.1855 -0.8208  1.3722
  130PROXS   O156423   9.453  11.243  13.567  0.2955  1.0146  0.2820
  130PROXS   C156424   9.438  11.386  13.562 -0.4518  0.5836 -0.6048
  130PROXS  H1156425   9.332  11.416  13.548 -0.6443 -0.3401 -1.2454
  130PROXS  H1356426   9.474  11.422  13.661  0.5694 -1.4057 -0.1971
  130PROXS   C256427   9.545  11.452  13.459  0.6594 -0.3306  0.6633
  130PROXS  H2156428   9.534  11.414  13.355 -1.3013 -0.4210  0.8699
  130PROXS   C356429   9.687  11.407  13.509  0.3576 -0.2266  0.1368
  130PROXS  H3156430   9.673  11.298  13.524 -1.9423  0.2899  2.4668
  130PROXS  H3256431   9.771  11.430  13.440 -0.6077  0.7173 -0.7522
  130PROXS  H3356432   9.715  11.454  13.606 -1.0180  0.4584  0.2253
  131PROXS   O156433   9.528  11.597  13.463  0.5345 -0.3914 -0.2759
  131PROXS   C156434   9.616  11.676  13.382  0.5572 -0.3357  0.4372
  131PROXS  H1156435   9.709  11.688  13.442  0.7471 -0.7783  0.2345
  131PROXS  H1356436   9.634  11.637  13.280 -3.1932 -1.3916  0.0586
  131PROXS   C256437   9.551  11.812  13.347  0.6543 -0.4825 -0.1142
  131PROXS  H2156438   9.497  11.859  13.432  0.5230  0.4124 -0.6872
  131PROXS   C356439   9.431  11.779  13.255 -0.6608 -0.1609 -0.9124
  131PROXS  H3156440   9.375  11.700  13.310  0.3939 -0.2684  0.0476
  131PROXS  H3256441   9.370  11.869  13.232  0.1723  0.6338 -0.0937
  131PROXS  H3356442   9.471  11.731  13.163 -2.5168 -1.7467 -0.9711
  132PROXS   O156443   9.640  11.898  13.284 -0.6524 -0.1974  0.5348
  132PROXS   C156444   9.610  12.042  13.308  0.0526  0.0889  0.3260
  132PROXS  H1156445   9.502  12.054  13.285  0.0806 -1.6425 -0.9676
  132PROXS  H1356446   9.649  12.049  13.412 -0.7146 -1.8034  0.7859
  132PROXS   C256447   9.706  12.133  13.232 -0.4479  0.0397  0.4687
  132PROXS  H2156448   9.679  12.109  13.126 -0.2683  0.6944  0.2731
  132PROXS   C356449   9.855  12.084  13.259 -0.4885 -1.0650  0.1939
  132PROXS  H3156450   9.882  12.099  13.365  0.5996  0.5251 -0.2533
  132PROXS  H3256451   9.868  11.977  13.232  0.5504 -0.2770 -2.9669
  132PROXS  H3356452   9.935  12.138  13.202 -0.4616 -0.0704  1.1413
  133PROXS   O156453   9.673  12.265  13.264 -0.2018  0.6322  0.4439
  133PROXS   C156454   9.741  12.368  13.192 -0.6768  0.5360  0.5322
  133PROXS  H1156455   9.850  12.372  13.214 -0.0201  0.9424 -2.3843
  133PROXS  H1356456   9.725  12.357  13.082 -1.9864  0.8450  0.6720
  133PROXS   C256457   9.690  12.515  13.235  1.1523  0.3769 -0.3730
  133PROXS  H2156458   9.704  12.525  13.344 -2.3976 -1.2735  0.3714
  133PROXS   C356459   9.540  12.525  13.209  0.6302 -0.2405  0.0071
  133PROXS  H3156460   9.499  12.625  13.235  0.4022 -0.5747  0.9808
  133PROXS  H3256461   9.499  12.498  13.109  1.1866  1.8035 -0.8284
  133PROXS  H3356462   9.489  12.451  13.274 -0.1105  0.8329  0.6921
  134PROXS   O156463   9.749  12.614  13.154 -0.5016 -0.4151 -0.0888
  134PROXS   C156464   9.891  12.634  13.180 -0.0004 -0.0083  0.5896
  134PROXS  H1156465   9.912  12.641  13.289 -0.9637 -1.1571  0.8578
  134PROXS  H1356466   9.952  12.549  13.142 -0.9232  0.4526 -2.1249
  134PROXS   C256467   9.934  12.759  13.103  0.1854  0.1528  0.0298
  134PROXS  H2156468   9.874  12.765  13.009  0.3573  0.9338 -0.0425
  134PROXS   C356469  10.084  12.757  13.078 -0.4759 -0.2467  0.2284
  134PROXS  H3156470  10.119  12.663  13.032  1.1032  0.4504 -0.0514
  134PROXS  H3256471  10.115  12.842  13.014  0.1372 -0.6744 -0.0452
  134PROXS  H3356472  10.137  12.770  13.175 -0.7532  2.7066  0.0911
  135PROXS   O156473   9.905  12.873  13.176  0.1500 -0.3265  0.7092
  135PROXS   C156474   9.765  12.908  13.202 -0.1538  0.9955  0.2468
  135PROXS  H1156475   9.705  12.859  13.122  3.8864 -1.6746 -1.5100
  135PROXS  H1356476   9.742  12.858  13.298  1.2889 -0.0879  0.0627
  135PROXS   C256477   9.748  13.057  13.220 -0.7050 -0.4635  0.4663
  135PROXS  H2156478   9.789  13.095  13.124 -2.8678 -0.6877 -0.6044
  135PROXS   C356479   9.832  13.116  13.336 -0.0179  0.6379  0.0494
  135PROXS  H3156480   9.935  13.083  13.312 -0.6294 -0.8778 -0.6666
  135PROXS  H3256481   9.843  13.227  13.339  1.8029  0.4680  1.0131
  135PROXS  H3356482   9.801  13.079  13.436  0.3270 -1.1425 -0.4589
  136PROXS   O156483   9.610  13.093  13.232  0.2737  0.2264 -0.4776
  136PROXS   C156484   9.542  13.023  13.337  0.1634  0.5589 -0.7514
  136PROXS  H1156485   9.519  12.917  13.317 -1.9139  0.7436  0.3440
  136PROXS  H1356486   9.604  13.026  13.429 -1.1979  1.8884  0.1778
  136PROXS   C256487   9.410  13.097  13.365 -0.1261  0.4919 -0.0136
  136PROXS  H2156488   9.362  13.106  13.266 -1.9592 -2.7528  0.4460
  136PROXS   C356489   9.437  13.233  13.425 -0.5403 -0.2138 -0.5652
  136PROXS  H3156490   9.501  13.286  13.352  0.4440 -0.0421  0.3984
  136PROXS  H3256491   9.354  13.306  13.427 -0.6695 -0.3286 -1.5196
  136PROXS  H3356492   9.492  13.238  13.521  0.1413  1.0787 -1.0119
  137PROXS   O156493   9.337  13.016  13.451  0.3670 -0.3039 -0.1577
  137PROXS   C156494   9.195  13.049  13.437 -0.1968 -0.2172  0.1834
  137PROXS  H1156495   9.177  13.152  13.474  0.0054  0.0112 -0.3423
  137PROXS  H1356496   9.171  13.027  13.331  0.5636  0.4761 -0.1399
  137PROXS   C256497   9.128  12.931  13.520  0.7426 -0.4422  0.5622
  137PROXS  H2156498   9.142  12.936  13.630  2.2479  1.3990  0.3408
  137PROXS   C356499   9.172  12.792  13.460 -0.3136 -0.1714  0.7922
  137PROXS  H3156500   9.127  12.702  13.507  3.1058 -1.5827  1.7193
  137PROXS  H3256501   9.150  12.776  13.352  1.3333 -2.8571  0.7470
  137PROXS  H3356502   9.281  12.769  13.469  0.2041  1.4106 -0.7973
  138PROXR   O156503   8.991  12.939  13.498  0.0490  0.4032  0.1948
  138PROXR   C156504   8.917  13.039  13.576 -0.0913 -0.7156  0.9883
  138PROXR  H1156505   8.941  13.023  13.683  0.7775  0.9507  1.0617
  138PROXR  H1356506   8.947  13.138  13.536  1.1032 -1.1476  0.7760
  138PROXR   C256507   8.770  13.026  13.551 -0.2540  0.0348  0.3392
  138PROXR  H2156508   8.734  12.925  13.577  0.4337 -0.9969 -2.4056
  138PROXR   C356509   8.731  13.068  13.407  0.1121  0.3958 -0.3078
  138PROXR  H3156510   8.798  13.155  13.390  1.0387  0.4292  3.0091
  138PROXR  H3256511   8.779  12.987  13.347  2.0001  1.1311  0.1225
  138PROXR  H3356512   8.624  13.093  13.394 -0.2784 -0.5082  1.0232
  139PROXS   O156513   8.713  13.134  13.620  0.0236 -0.0593  0.1402
  139PROXS   C156514   8.575  13.131  13.646 -0.2170  0.0996 -0.9938
  139PROXS  H1156515   8.515  13.066  13.578 -0.6434 -0.1375 -0.3963
  139PROXS  H1356516   8.563  13.073  13.740  0.6499  2.2056  0.4787
  139PROXS   C256517   8.502  13.265  13.653  0.8812  0.3307  0.1971
  139PROXS  H2156518   8.572  13.337  13.701 -0.2431  0.2942  1.9889
  139PROXS   C356519   8.373  13.252  13.745  0.1404  0.1757  0.3688
  139PROXS  H3156520   8.309  13.342  13.746 -1.2256 -0.7518  2.3969
  139PROXS  H3256521   8.315  13.161  13.716 -0.0068 -0.2734  1.9958
  139PROXS  H3356522   8.412  13.239  13.848  1.2768  1.3223  0.1047
  140PROXR   O156523   8.462  13.301  13.518  0.0944 -0.0911 -0.1052
  140PROXR   C156524   8.534  13.414  13.461  0.2706  0.1412  0.5259
  140PROXR  H1156525   8.628  13.442  13.513  1.2520  3.2911 -2.5871
  140PROXR  H1356526   8.575  13.381  13.363  0.8329  1.1195  0.4191
  140PROXR   C256527   8.435  13.534  13.446 -0.4985 -0.1432  0.4815
  140PROXR  H2156528   8.383  13.536  13.544 -1.7861 -2.9744 -0.0407
  140PROXR   C356529   8.326  13.512  13.337 -0.0266 -0.3305  0.1549
  140PROXR  H3156530   8.249  13.591  13.321  0.3052  0.7264  3.0997
  140PROXR  H3256531   8.372  13.491  13.238 -1.7659 -1.9470 -0.3709
  140PROXR  H3356532   8.267  13.422  13.367  0.1557 -0.1160  1.2015
  141PROXS   O156533   8.502  13.661  13.429 -0.0213  0.0239 -0.1285
  141PROXS   C156534   8.591  13.656  13.318 -0.0790  0.0053 -0.0271
  141PROXS  H1156535   8.685  13.599  13.332  0.5977  1.0134 -0.4135
  141PROXS  H1356536   8.540  13.611  13.230 -0.8760 -0.4052  0.6287
  141PROXS   C256537   8.629  13.804  13.284 -0.1951  0.3533  0.5712
  141PROXS  H2156538   8.535  13.863  13.278 -0.2142  0.2369 -0.4489
  141PROXS   C356539   8.712  13.814  13.155  0.7851  0.1016  0.7399
  141PROXS  H3156540   8.655  13.806  13.059  2.8320 -0.7584 -0.4555
  141PROXS  H3256541   8.778  13.903  13.149  0.7833  0.1156  0.9222
  141PROXS  H3356542   8.779  13.726  13.146  2.8025  1.7611 -1.9005
  142PROXS   O156543   8.706  13.858  13.385  0.5157  0.4241  0.1371
  142PROXS   C156544   8.693  13.997  13.379 -0.1568 -0.8417  0.4097
  142PROXS  H1156545   8.697  14.042  13.278 -1.2970 -0.5100  0.4977
  142PROXS  H1356546   8.595  14.030  13.422 -0.2857 -1.8163  0.8823
  142PROXS   C256547   8.806  14.061  13.459 -0.3800  0.0431  0.4724
  142PROXS  H2156548   8.813  14.014  13.560 -1.3968 -0.9052  0.1279
  142PROXS   C356549   8.797  14.217  13.474 -0.4961  0.0906 -0.0941
  142PROXS  H3156550   8.713  14.253  13.538 -0.6851  0.0962 -0.3462
  142PROXS  H3256551   8.893  14.254  13.517 -1.0502  2.1227 -0.4930
  142PROXS  H3356552   8.779  14.258  13.372  1.9411 -0.2277 -0.7178
  143PROXS   O156553   8.924  14.040  13.391  0.4328 -0.3197  0.0518
  143PROXS   C156554   9.027  14.001  13.477  0.2155 -0.0738  0.1155
  143PROXS  H1156555   9.071  14.094  13.520  2.3939 -1.1059  0.2606
  143PROXS  H1356556   9.000  13.933  13.561  1.8623  0.4349  1.1110
  143PROXS   C256557   9.142  13.924  13.414  0.0947  0.0017 -0.3058
  143PROXS  H2156558   9.170  13.970  13.316 -2.1717  0.9267 -0.5604
  143PROXS   C356559   9.093  13.789  13.368  0.1354 -0.2803  0.1018
  143PROXS  H3156560   9.100  13.718  13.453 -0.9877 -0.0511  0.3975
  143PROXS  H3256561   8.994  13.805  13.319  1.4180  2.0651 -1.9807
  143PROXS  H3356562   9.162  13.738  13.297 -1.1498 -0.8913 -0.7505
  144PROXS   O156563   9.253  13.928  13.501 -0.6894  0.4613 -0.0387
  144PROXS   C156564   9.369  13.856  13.450 -0.4052 -0.3482  0.9060
  144PROXS  H1156565   9.356  13.746  13.438  2.4671 -0.6059 -0.9642
  144PROXS  H1356566   9.394  13.913  13.358 -2.0585  0.9695  1.2387
  144PROXS   C256567   9.485  13.867  13.559 -0.7884 -0.0570 -0.4473
  144PROXS  H2156568   9.436  13.857  13.658  2.7234 -0.4141  1.4278
  144PROXS   C356569   9.565  13.995  13.561 -0.0592  0.3020  0.4443
  144PROXS  H3156570   9.609  14.016  13.661 -0.7858  1.9547  0.4524
  144PROXS  H3256571   9.648  13.980  13.489 -0.5477  0.4976 -0.1682
  144PROXS  H3356572   9.498  14.076  13.526  1.0698  1.2435  0.3948
  145PROXR   O156573   9.584  13.766  13.544 -0.3249  0.0082 -0.2445
  145PROXR   C156574   9.647  13.734  13.667 -0.3015  0.1990  0.1370
  145PROXR  H1156575   9.692  13.825  13.711 -0.2578 -1.1421  3.0913
  145PROXR  H1356576   9.576  13.693  13.741  0.2087  1.1444  1.1735
  145PROXR   C256577   9.763  13.627  13.655  1.0343 -0.1035  0.1979
  145PROXR  H2156578   9.839  13.646  13.576  1.9901 -1.0969  0.8565
  145PROXR   C356579   9.713  13.488  13.616 -0.0913  0.1803  0.2488
  145PROXR  H3156580   9.675  13.437  13.708  0.6156 -1.6141 -0.3973
  145PROXR  H3256581   9.627  13.486  13.544  0.4369 -2.0163 -0.4180
  145PROXR  H3356582   9.800  13.431  13.577  0.7788  1.6585 -0.0334
  146PROXS   O156583   9.828  13.614  13.774 -0.7780  0.0407  0.2549
  146PROXS   C156584   9.924  13.716  13.804 -0.3917 -0.2528 -0.5805
  146PROXS  H1156585   9.996  13.736  13.721 -0.1300  2.4504  0.1858
  146PROXS  H1356586   9.874  13.811  13.830 -0.8505 -0.7932  0.5363
  146PROXS   C256587  10.015  13.683  13.928  0.6923  0.2973 -0.2903
  146PROXS  H2156588  10.062  13.582  13.921  0.7692  0.3449 -0.4544
  146PROXS   C356589   9.929  13.693  14.064  0.5270  0.7507 -0.2015
  146PROXS  H3156590   9.839  13.630  14.045  0.5606  1.0214 -1.3748
  146PROXS  H3256591   9.994  13.662  14.148  1.7532 -0.0598 -1.3966
  146PROXS  H3356592   9.888  13.796  14.076  0.3610  0.6672 -0.0522
  147PROXR   O156593  10.115  13.782  13.934  0.0831  0.7899 -0.3078
  147PROXR   C156594  10.228  13.736  13.859  0.0754  0.1574 -0.5040
  147PROXR  H1156595  10.244  13.626  13.864 -2.4822 -0.2698  0.0055
  147PROXR  H1356596  10.209  13.757  13.752 -0.3621  0.4327 -0.3770
  147PROXR   C256597  10.356  13.813  13.902  1.2341  0.0450  0.0469
  147PROXR  H2156598  10.329  13.916  13.934 -1.3358 -1.4313  3.2972
  147PROXR   C356599  10.449  13.815  13.782  0.0509 -0.4940 -0.1165
  147PROXR  H3156600  10.483  13.712  13.758  2.1151 -0.0138  0.5257
  147PROXR  H3256601  10.399  13.849  13.689  2.2736 -1.5339 -1.7889
  147PROXR  H3356602  10.535  13.883  13.795 -0.7968  0.3841  1.0779
  148PROXR   O156603  10.423  13.747  14.005 -0.5742  0.1110 -0.1234
  148PROXR   C156604  10.356  13.765  14.129  0.3421  0.1192  0.3830
  148PROXR  H1156605  10.313  13.867  14.134 -0.8301 -0.3203 -0.4982
  148PROXR  H1356606  10.269  13.697  14.139  0.4912 -0.0039  0.8626
  148PROXR   C256607  10.442  13.746  14.251  0.2298 -0.0286 -0.1995
  148PROXR  H2156608  10.467  13.640  14.275  2.5967 -0.6493 -4.3964
  148PROXR   C356609  10.366  13.810  14.372 -0.0889 -0.0415 -0.3255
  148PROXR  H3156610  10.259  13.782  14.382 -0.0864  0.4792  1.6059
  148PROXR  H3256611  10.417  13.775  14.465  0.4797 -0.2980 -0.7297
  148PROXR  H3356612  10.369  13.921  14.365 -0.2401 -0.0786 -0.9989
  149PROXR   O156613  10.562  13.825  14.239 -0.4024 -0.6260 -1.2315
  149PROXR   C156614  10.667  13.768  14.160 -1.1230  0.4506 -0.0026
  149PROXR  H1156615  10.693  13.667  14.198 -1.1287  0.6989  0.6938
  149PROXR  H1356616  10.645  13.759  14.052 -0.6972 -0.3939 -0.0201
  149PROXR   C256617  10.791  13.857  14.168 -0.3813  0.1517  0.1327
  149PROXR  H2156618  10.822  13.874  14.273 -1.3587 -1.4076  0.6963
  149PROXR   C356619  10.747  14.000  14.112  0.1256  0.1622  0.0471
  149PROXR  H3156620  10.744  13.992  14.002  0.6430  0.5896 -0.0024
  149PROXR  H3256621  10.648  14.022  14.158 -1.0154  0.3718 -2.3546
  149PROXR  H3356622  10.825  14.069  14.152  1.3130 -0.5200 -1.0136
  150PROXS   O156623  10.903  13.795  14.097  0.0989 -0.0192 -0.4782
  150PROXS   C156624  11.029  13.865  14.118  0.5103  0.1692 -0.1155
  150PROXS  H1156625  11.018  13.967  14.075 -0.7024  0.3077  0.4828
  150PROXS  H1356626  11.039  13.873  14.229  0.0032 -0.0438 -0.0477
  150PROXS   C256627  11.157  13.799  14.063  0.3324 -0.6802  0.0461
  150PROXS  H2156628  11.148  13.786  13.953  0.8712  0.2804 -0.1200
  150PROXS   C356629  11.181  13.662  14.120 -0.3413  0.4468  0.1360
  150PROXS  H3156630  11.280  13.627  14.084 -0.8291 -0.0532 -0.7674
  150PROXS  H3256631  11.180  13.654  14.230  0.5473  1.2698  0.2120
  150PROXS  H3356632  11.101  13.593  14.086 -1.5627  0.8920  1.9921
  151PROXR   O156633  11.272  13.880  14.084 -0.4567  0.0416 -0.3932
  151PROXR   C156634  11.290  13.982  13.979  0.0971  0.5022  0.4245
  151PROXR  H1156635  11.317  13.931  13.885 -0.8647 -1.0863  0.9604
  151PROXR  H1356636  11.189  14.029  13.973  0.2099  0.8565  1.1559
  151PROXR   C256637  11.399  14.078  14.012 -0.1930  0.2223 -0.0128
  151PROXR  H2156638  11.374  14.168  13.951  0.2283  0.5454  0.2858
  151PROXR   C356639  11.535  14.019  13.970  0.9727  0.0056 -0.3546
  151PROXR  H3156640  11.619  14.088  13.992 -1.0239  1.6809  2.7230
  151PROXR  H3256641  11.559  13.926  14.026  0.4038 -0.6227 -1.1198
  151PROXR  H3356642  11.548  13.979  13.867  1.3483 -0.5939 -0.0785
  152PROXR   O156643  11.405  14.105  14.150 -0.2731  0.3538  0.5124
  152PROXR   C156644  11.305  14.188  14.202  0.7242 -0.1209 -0.0702
  152PROXR  H1156645  11.310  14.287  14.152 -0.1402 -1.0484 -2.1327
  152PROXR  H1356646  11.206  14.144  14.175  0.4259 -0.6373  1.7412
  152PROXR   C256647  11.323  14.186  14.355 -0.2022 -0.4645 -0.6016
  152PROXR  H2156648  11.415  14.239  14.388  0.0259 -0.4805 -1.1943
  152PROXR   C356649  11.316  14.041  14.410 -0.7812 -0.3500  0.2045
  152PROXR  H3156650  11.389  13.980  14.352  3.1150  3.0911  1.0233
  152PROXR  H3256651  11.354  14.032  14.514 -0.5959 -2.2109  0.0197
  152PROXR  H3356652  11.213  14.000  14.409 -0.6366 -0.8162  1.6781
  153PROXR   O156653  11.213  14.271  14.404 -0.2197  0.2855  0.2550
  153PROXR   C156654  11.221  14.288  14.545 -0.0773  0.7213  0.2163
  153PROXR  H1156655  11.209  14.191  14.597  0.1592  0.1741 -0.7402
  153PROXR  H1356656  11.316  14.340  14.569 -0.4030  0.6711  1.6880
  153PROXR   C256657  11.105  14.374  14.593  0.5252 -0.2535 -0.6256
  153PROXR  H2156658  11.126  14.481  14.573  0.2439 -0.3528 -1.5000
  153PROXR   C356659  11.079  14.354  14.740 -0.2094  0.4173 -0.9243
  153PROXR  H3156660  11.003  14.431  14.768 -1.8019 -1.2666 -0.3946
  153PROXR  H3256661  11.047  14.248  14.750  0.6131  0.2643  0.2275
  153PROXR  H3356662  11.170  14.367  14.802 -0.3626  1.3983 -0.8810
  154PROXS   O156663  10.979  14.344  14.529  0.0025 -0.6884  0.3748
  154PROXS   C156664  10.963  14.403  14.404  0.4000  0.1079 -0.1820
  154PROXS  H1156665  10.948  14.513  14.411  2.2421  0.5476 -2.0687
  154PROXS  H1356666  11.052  14.393  14.338 -0.4333 -0.4190 -1.2635
  154PROXS   C256667  10.839  14.336  14.325  0.2834 -0.5992  0.3898
  154PROXS  H2156668  10.848  14.226  14.341  1.0431 -0.4703  0.9161
  154PROXS   C356669  10.851  14.366  14.172 -0.0423  0.2622  0.2025
  154PROXS  H3156670  10.838  14.476  14.166  1.8293  0.5625  0.8725
  154PROXS  H3256671  10.952  14.342  14.131 -1.9147 -2.5285 -3.4311
  154PROXS  H3356672  10.773  14.307  14.119  0.0809 -2.3004  2.6557
  155PROXR   O156673  10.715  14.396  14.367 -0.0986  0.1790  0.0873
  155PROXR   C156674  10.657  14.314  14.475 -1.0832 -0.5703  0.7816
  155PROXR  H1156675  10.620  14.220  14.429  1.7657 -0.7184 -1.5063
  155PROXR  H1356676  10.741  14.296  14.546  1.4012  3.3829 -0.7882
  155PROXR   C256677  10.546  14.390  14.553 -0.2243 -0.2395 -0.6223
  155PROXR  H2156678  10.486  14.457  14.487 -2.0215 -1.2117 -0.0601
  155PROXR   C356679  10.614  14.478  14.660  0.6084  0.2594  0.2731
  155PROXR  H3156680  10.669  14.565  14.618  0.5345  1.2897  2.1764
  155PROXR  H3256681  10.549  14.519  14.741  2.2676 -1.0447  2.3769
  155PROXR  H3356682  10.691  14.414  14.709 -2.1027 -1.7163  2.2728
  156PROXS   O156683  10.456  14.302  14.621 -0.0378 -0.4407 -0.5776
  156PROXS   C156684  10.387  14.220  14.531 -0.4138 -0.1941  0.3245
  156PROXS  H1156685  10.355  14.283  14.446 -2.9573 -0.3383  1.0999
  156PROXS  H1356686  10.441  14.132  14.490 -2.5590 -1.8033  0.7659
  156PROXS   C256687  10.257  14.168  14.598 -0.5457  0.9986  1.0655
  156PROXS  H2156688  10.205  14.256  14.641  1.4878  2.7828  0.0539
  156PROXS   C356689  10.288  14.074  14.714  0.1018 -0.0060 -0.5363
  156PROXS  H3156690  10.206  14.054  14.787 -0.4075 -0.6244 -1.2509
  156PROXS  H3256691  10.306  13.974  14.668  0.3849  0.7560 -2.1516
  156PROXS  H3356692  10.374  14.105  14.777 -1.3403  0.7705  1.1256
  157PROXS   O156693  10.184  14.106  14.498 -0.2180  0.8388 -0.1411
  157PROXS   C156694  10.047  14.089  14.537  0.3485  0.3065 -0.5153
  157PROXS  H1156695  10.036  13.992  14.589 -1.4517  1.5766  1.6426
  157PROXS  H1356696  10.004  14.165  14.606  0.9279 -0.6242  0.9124
  157PROXS   C256697   9.950  14.068  14.413 -0.7862 -0.3382 -0.2405
  157PROXS  H2156698  10.000  13.993  14.349  2.3705  1.1394  0.2921
  157PROXS   C356699   9.934  14.196  14.332 -0.1466  0.0797 -0.4510
  157PROXS  H3156700   9.892  14.282  14.389  0.6550 -0.5235  1.1194
  157PROXS  H3256701  10.036  14.227  14.302  1.4140 -2.2510  1.9494
  157PROXS  H3356702   9.872  14.177  14.242 -0.0160  0.9603 -0.7367
  158PROXR   O156703   9.829  14.017  14.463  0.0245 -0.0250  0.1138
  158PROXR   C156704   9.745  13.945  14.368 -0.6540 -0.1725  0.0514
  158PROXR  H1156705   9.728  14.012  14.281  0.1899 -0.8670 -0.6597
  158PROXR  H1356706   9.800  13.857  14.329  0.7365  1.0449 -0.8230
  158PROXR   C256707   9.616  13.886  14.430 -0.5608 -0.1496 -0.4916
  158PROXR  H2156708   9.557  13.974  14.464  0.9878 -0.2932  2.9479
  158PROXR   C356709   9.643  13.790  14.540 -0.4697  0.8297 -0.3328
  158PROXR  H3156710   9.713  13.824  14.619  0.5475 -2.8566  0.5388
  158PROXR  H3256711   9.545  13.762  14.586 -0.3272 -0.9595 -1.0301
  158PROXR  H3356712   9.690  13.700  14.497  1.8410  0.5468  2.4488
  159PROXR   O156713   9.540  13.816  14.326  0.0227  0.1394 -0.3335
  159PROXR   C156714   9.469  13.901  14.244  0.1351 -0.4095 -0.3745
  159PROXR  H1156715   9.371  13.916  14.294 -1.1190 -0.7725 -2.6059
  159PROXR  H1356716   9.517  13.998  14.215 -1.8714  0.0917 -2.3621
  159PROXR   C256717   9.452  13.835  14.106  0.3329  0.6513 -0.4360
  159PROXR  H2156718   9.414  13.733  14.126 -1.7539  1.6587  0.9949
  159PROXR   C356719   9.594  13.835  14.046 -0.4955 -0.0789  0.2281
  159PROXR  H3156720   9.661  13.787  14.120 -0.9432 -0.2404  0.5312
  159PROXR  H3256721   9.596  13.775  13.953  2.0774  1.7479 -1.0407
  159PROXR  H3356722   9.629  13.937  14.018  0.7520 -0.4552  0.3348
  160PROXS   O156723   9.357  13.906  14.028  0.4196  0.0746 -0.0788
  160PROXS   C156724   9.223  13.881  14.069  0.0302 -0.3344 -0.7611
  160PROXS  H1156725   9.199  13.776  14.042 -0.3102 -0.3639 -0.3546
  160PROXS  H1356726   9.209  13.881  14.180 -0.9069 -2.9839 -0.8192
  160PROXS   C256727   9.117  13.977  14.010  0.6126  0.3264 -0.4161
  160PROXS  H2156728   9.021  13.955  14.061  0.7748 -0.6234 -0.4916
  160PROXS   C356729   9.099  13.986  13.854 -0.4411  0.1609 -0.1643
  160PROXS  H3156730   9.190  14.021  13.801 -0.2338 -0.6181 -0.3252
  160PROXS  H3256731   9.086  13.883  13.816  1.0774  0.3215 -1.2147
  160PROXS  H3356732   9.015  14.053  13.824 -1.2104  0.9777  3.2938
  161PROXR   O156733   9.146  14.109  14.049 -0.0209 -0.0227 -0.3539
  161PROXR   C156734   9.110  14.132  14.185  0.0318 -0.3236 -0.6229
  161PROXR  H1156735   9.013  14.085  14.215 -1.0512  1.5745 -0.9784
  161PROXR  H1356736   9.188  14.091  14.252  0.7582  1.0761 -0.5729
  161PROXR   C256737   9.085  14.281  14.221 -0.0335  0.2462 -0.1243
  161PROXR  H2156738   9.167  14.347  14.187 -0.4799  1.0563  0.3330
  161PROXR   C356739   9.069  14.286  14.373 -0.4068  0.1081 -0.1793
  161PROXR  H3156740   9.169  14.275  14.420  0.0476 -0.0604 -1.1692
  161PROXR  H3256741   9.023  14.381  14.408  1.5673  1.5205 -1.2607
  161PROXR  H3356742   9.009  14.198  14.406  0.5721 -0.7877 -0.7173
  162PROXR   O156743   8.965  14.328  14.162  0.2412 -0.1623 -0.5102
  162PROXR   C156744   8.977  14.382  14.032  0.3890  0.1318 -0.1649
  162PROXR  H1156745   9.035  14.477  14.042  1.3551 -0.6586  2.5912
  162PROXR  H1356746   9.028  14.307  13.968 -0.4197 -1.1743  0.6753
  162PROXR   C256747   8.836  14.373  13.967  0.0487  0.7294  0.9325
  162PROXR  H2156748   8.762  14.421  14.034  0.7119  0.9048  1.5500
  162PROXR   C356749   8.797  14.229  13.928  0.1762  0.3970 -0.4574
  162PROXR  H3156750   8.870  14.165  13.874 -0.3789  1.0027 -1.9758
  162PROXR  H3256751   8.776  14.179  14.025  2.6798 -1.4640 -0.7593
  162PROXR  H3356752   8.706  14.240  13.865  1.3231  1.1403 -2.0545
  163PROXS   O156753   8.844  14.429  13.840 -0.0133 -0.1980 -0.5082
  163PROXS   C156754   8.842  14.572  13.833  0.4780 -0.3082  0.0906
  163PROXS  H1156755   8.815  14.606  13.935 -0.1087  0.1489 -0.2168
  163PROXS  H1356756   8.942  14.618  13.818  0.8072 -0.6183  1.2266
  163PROXS   C256757   8.755  14.623  13.721  0.3880 -0.9552  0.1612
  163PROXS  H2156758   8.647  14.596  13.721  0.1338 -0.0159 -0.6887
  163PROXS   C356759   8.810  14.568  13.585 -0.1077 -0.1972  0.5597
  163PROXS  H3156760   8.911  14.613  13.570 -1.1594  2.2789  0.4939
  163PROXS  H3256761   8.824  14.458  13.585  2.9467  0.0618 -0.9521
  163PROXS  H3356762   8.747  14.588  13.496 -0.4775  1.1374  1.0983
  164PROXR   O156763   8.749  14.763  13.723  0.0084 -0.5730 -0.0024
  164PROXR   C156764   8.653  14.824  13.639  0.1103 -0.1037 -0.5365
  164PROXR  H1156765   8.707  14.845  13.544 -0.4698  0.1318 -0.8155
  164PROXR  H1356766   8.556  14.772  13.625  0.6181 -2.2846  2.8560
  164PROXR   C256767   8.616  14.965  13.709 -0.4620  0.3302 -0.2849
  164PROXR  H2156768   8.713  15.017  13.726 -0.7283  0.0316  2.5515
  164PROXR   C356769   8.544  14.929  13.846 -0.4007 -0.3034  0.0629
  164PROXR  H3156770   8.603  14.864  13.914 -0.4671 -0.0582  0.3622
  164PROXR  H3256771   8.530  15.026  13.898  2.4479 -0.4394  1.2786
  164PROXR  H3356772   8.454  14.874  13.814 -0.9736  0.8048 -0.2762
  165PROXR   O156773   8.538  15.033  13.614  1.2712  0.0076 -0.1193
  165PROXR   C156774   8.530  15.176  13.640  0.3298  0.6978  0.6634
  165PROXR  H1156775   8.478  15.193  13.737 -1.2361  0.0519 -0.0327
  165PROXR  H1356776   8.633  15.218  13.645  0.0498  1.8698 -1.8111
  165PROXR   C256777   8.465  15.246  13.519 -0.5610 -0.6945 -0.0957
  165PROXR  H2156778   8.365  15.201  13.502 -1.3402  0.9590 -0.0554
  165PROXR   C356779   8.546  15.223  13.390  0.5573  0.2698  0.7127
  165PROXR  H3156780   8.536  15.120  13.350  0.0879  0.3884  0.5238
  165PROXR  H3256781   8.518  15.290  13.306  0.9919  0.2344  0.5387
  165PROXR  H3356782   8.655  15.239  13.405  0.4735  1.1469  0.4610
  166ETHOX   O156783   8.459  15.386  13.543  0.3159 -0.6438  0.1314
  166ETHOX   C156784   8.341  15.417  13.627  0.0261  0.2365 -0.8512
  166ETHOX  H1156785   8.369  15.522  13.651 -0.2906  0.2745 -0.6432
  166ETHOX  H1356786   8.324  15.365  13.724 -3.6470 -1.5475 -2.2555
  166ETHOX   C256787   8.209  15.420  13.550 -0.3368 -0.5199  0.4992
  166ETHOX  H2156788   8.232  15.455  13.447  1.9558  0.7869  1.3900
  166ETHOX  H2356789   8.155  15.501  13.604  0.6314 -0.7555  1.8736
  167ETHOX   O156790   8.141  15.289  13.556  0.0416  0.3178 -0.3279
  167ETHOX   C156791   8.017  15.285  13.496  0.3527 -0.1573  0.2336
  167ETHOX  H1156792   7.956  15.228  13.570 -0.9406  0.3875 -0.3798
  167ETHOX  H1356793   7.978  15.389  13.490  0.0856 -0.2110  0.9023
  167ETHOX   C256794   8.002  15.227  13.360 -0.2202  0.3039  0.0084
  167ETHOX  H2156795   8.066  15.271  13.281  2.2736 -1.7158  0.7537
  167ETHOX  H2356796   7.897  15.248  13.329 -0.4499 -0.8374 -0.0405
  168ETHOX   O156797   8.014  15.087  13.358  0.1343 -0.4320  0.2251
  168ETHOX   C156798   7.974  15.028  13.230 -0.6727 -0.0912 -0.3352
  168ETHOX  H1156799   7.976  15.115  13.161  2.3671 -0.6272 -1.0748
  168ETHOX  H1356800   7.871  14.988  13.239 -1.5429  2.0953  0.2207
  168ETHOX   C256801   8.083  14.942  13.167  0.0199  0.8284  0.1709
  168ETHOX  H2156802   8.065  14.843  13.212  0.7092  0.1678 -0.9655
  168ETHOX  H2356803   8.174  14.995  13.203  0.4952  0.3500 -0.3022
  169ETHOX   O156804   8.066  14.932  13.025 -0.2387  0.6201  0.2086
  169ETHOX   C156805   8.153  14.821  12.986  0.0924  0.3671 -1.0207
  169ETHOX  H1156806   8.255  14.844  13.023  0.0418 -1.7384  0.6198
  169ETHOX  H1356807   8.128  14.722  13.031 -2.1747  1.4732  0.3324
  169ETHOX   C256808   8.145  14.817  12.840 -0.3146 -0.0468  0.6022
  169ETHOX  H2156809   8.238  14.777  12.794  0.0070  1.5276 -0.1963
  169ETHOX  H2356810   8.129  14.917  12.794 -0.5292 -0.3425  0.0212
  170ETHOX   O156811   8.053  14.724  12.791 -0.1011  0.5389  0.2913
  170ETHOX   C156812   8.018  14.758  12.657  0.1632  0.9949 -0.1524
  170ETHOX  H1156813   8.117  14.774  12.608  1.0987  2.6068  2.0730
  170ETHOX  H1356814   7.958  14.852  12.653  0.3939  1.3994  3.1674
  170ETHOX   C256815   7.930  14.651  12.593 -0.6041  0.4261  0.4240
  170ETHOX  H2156816   7.912  14.688  12.490 -0.8468 -0.0903  0.2763
  170ETHOX  H2356817   7.831  14.648  12.645 -0.9321  2.0670 -0.0546
  171ETHOX   O156818   7.991  14.520  12.572  0.1350  0.1557 -0.3544
  171ETHOX   C156819   7.898  14.417  12.589  0.0686 -0.0714  0.8333
  171ETHOX  H1156820   7.833  14.429  12.678  2.0201 -0.8762  2.4352
  171ETHOX  H1356821   7.839  14.420  12.495  1.9209  2.4031 -0.3495
  171ETHOX   C256822   7.971  14.279  12.609  0.0489  0.0827 -0.3868
  171ETHOX  H2156823   8.043  14.278  12.524  0.2856  0.1131 -0.1859
  171ETHOX  H2356824   7.894  14.201  12.594 -1.8186  1.9343 -0.9042
  172ETHOX   O156825   8.036  14.279  12.733 -0.0093  0.4165  0.5855
  172ETHOX   C156826   8.149  14.193  12.735  0.1165 -0.5416 -0.6287
  172ETHOX  H1156827   8.225  14.237  12.804 -2.6919 -0.0057  2.3522
  172ETHOX  H1356828   8.194  14.194  12.633  0.9552  0.3073 -0.2681
  172ETHOX   C256829   8.121  14.047  12.782 -0.4826 -0.1303  0.0921
  172ETHOX  H2156830   8.044  14.046  12.862 -0.0386 -0.5847  0.5200
  172ETHOX  H2356831   8.211  13.999  12.827 -0.2999  0.5201  0.4378
  173ETHOX   O156832   8.065  13.957  12.686 -0.4898  0.1163 -0.1809
  173ETHOX   C156833   8.172  13.886  12.626  0.2066  0.6317 -0.6026
  173ETHOX  H1156834   8.249  13.961  12.597 -0.0348  1.3467  0.5424
  173ETHOX  H1356835   8.207  13.811  12.700  1.5474  2.7999  1.0846
  173ETHOX   C256836   8.129  13.807  12.494 -0.0125 -0.3552  0.0334
  173ETHOX  H2156837   8.072  13.881  12.434  1.4834  1.7652  1.1042
  173ETHOX  H2356838   8.221  13.772  12.443 -0.3884 -1.9985  0.4371
  174ETHOX   O156839   8.049  13.693  12.526 -0.7055  0.1790  0.2594
  174ETHOX   C156840   7.971  13.643  12.415 -0.2545 -0.1815  0.3345
  174ETHOX  H1156841   7.906  13.720  12.368 -0.8660 -1.3186 -0.7586
  174ETHOX  H1356842   8.035  13.617  12.328 -0.0079 -0.1969  0.5208
  174ETHOX   C256843   7.873  13.529  12.454 -0.5270 -0.1931 -0.0759
  174ETHOX  H2156844   7.804  13.532  12.367  0.6411  2.4465 -1.0242
  174ETHOX  H2356845   7.817  13.567  12.542  2.5428  1.9231  1.1482
  175ETHOX   O156846   7.937  13.401  12.471 -0.7029  0.4559 -0.2394
  175ETHOX   C156847   7.869  13.326  12.573  0.4511  0.1519 -0.0638
  175ETHOX  H1156848   7.854  13.394  12.658  0.4894  1.1226 -0.8181
  175ETHOX  H1356849   7.771  13.294  12.532  1.1540  0.0478 -1.7820
  175ETHOX   C256850   7.944  13.203  12.610 -0.5870  0.1473  0.5086
  175ETHOX  H2156851   7.911  13.171  12.711  0.1232 -0.3004  0.6061
  175ETHOX  H2356852   8.053  13.220  12.607 -0.5624 -0.1135 -0.8010
  176ETHOX   O156853   7.931  13.094  12.513 -0.3181 -0.0059  0.8822
  176ETHOX   C156854   7.990  12.968  12.551 -0.0519 -0.3304 -0.3929
  176ETHOX  H1156855   8.100  12.979  12.567 -0.0698  1.6574 -1.3115
  176ETHOX  H1356856   7.936  12.932  12.641 -1.2760  0.7101 -0.6852
  176ETHOX   C256857   7.973  12.865  12.436  0.4073  0.6593  0.3055
  176ETHOX  H2156858   7.869  12.858  12.398  0.9433 -2.2920 -0.9504
  176ETHOX  H2356859   7.999  12.766  12.480  0.7176  1.1206  1.1727
  177ETHOX   O156860   8.063  12.899  12.331  0.0164  0.0317 -0.1035
  177ETHOX   C156861   8.078  12.796  12.235  0.3379 -0.0230 -0.5042
  177ETHOX  H1156862   7.972  12.779  12.207 -1.2431  2.7272  2.9803
  177ETHOX  H1356863   8.122  12.705  12.282  2.6211  0.8874 -0.7108
  177ETHOX   C256864   8.177  12.839  12.122 -0.1612  0.2803 -0.2859
  177ETHOX  H2156865   8.162  12.944  12.089 -0.2619  0.5288  0.5372
  177ETHOX  H2356866   8.167  12.767  12.038  2.1144 -2.5367  1.6432
  178ETHOX   O156867   8.307  12.815  12.169  0.5941 -0.6751  0.4935
  178ETHOX   C156868   8.366  12.923  12.241  0.2238 -0.0284 -0.0781
  178ETHOX  H1156869   8.385  13.005  12.169  0.2274  1.3654  1.4349
  178ETHOX  H1356870   8.285  12.961  12.307  0.4624  0.6904 -0.1978
  178ETHOX   C256871   8.492  12.890  12.322 -0.5512  0.1707  0.1874
  178ETHOX  H2156872   8.524  12.977  12.383 -1.6252  0.7512 -0.0444
  178ETHOX  H2356873   8.570  12.855  12.252  0.1056  1.4954  0.2358
  179ETHOX   O156874   8.468  12.786  12.421  0.3745  0.2978 -0.5128
  179ETHOX   C156875   8.417  12.841  12.544 -0.1108  0.1618  0.2261
  179ETHOX  H1156876   8.322  12.891  12.516 -0.3233  0.3844  1.2790
  179ETHOX  H1356877   8.489  12.916  12.585  0.8790 -1.1144  0.8883
  179ETHOX   C256878   8.396  12.740  12.659  0.1242 -0.5339 -0.0262
  179ETHOX  H2156879   8.498  12.699  12.677  0.4018  0.3743  0.5353
  179ETHOX  H2356880   8.341  12.658  12.610 -1.0503  0.5160 -0.5289
  180ETHOX   O156881   8.342  12.783  12.781  0.0531  0.2436  0.2251
  180ETHOX   C156882   8.303  12.672  12.862  0.2019 -0.3958 -0.4607
  180ETHOX  H1156883   8.216  12.618  12.821  0.1211 -0.2185 -0.5240
  180ETHOX  H1356884   8.390  12.603  12.865  1.9492  1.7095  1.3497
  180ETHOX   C256885   8.280  12.716  13.003 -0.1172  0.2766 -0.6366
  180ETHOX  H2156886   8.372  12.768  13.038 -0.7534  0.0367  1.5255
  180ETHOX  H2356887   8.267  12.624  13.064 -0.7224 -0.7111 -2.1848
  181ETHOX   O156888   8.174  12.805  13.022 -0.1070 -0.4213  0.8250
  181ETHOX   C156889   8.164  12.859  13.153 -0.6006  0.3120 -0.4437
  181ETHOX  H1156890   8.258  12.910  13.183 -0.2329  0.8820 -2.4247
  181ETHOX  H1356891   8.143  12.779  13.227 -0.1358  2.5295  2.2478
  181ETHOX   C256892   8.065  12.969  13.152 -0.0242 -1.4542  0.9390
  181ETHOX  H2156893   8.061  13.020  13.250 -1.9046 -0.1716  0.2418
  181ETHOX  H2356894   7.963  12.928  13.138  0.3117 -1.4879 -2.0407
  182ETHOX   O156895   8.090  13.059  13.039  0.4643  0.2694 -0.2898
  182ETHOX   C156896   8.035  13.181  13.076 -0.0429  0.2598  0.1829
  182ETHOX  H1156897   7.926  13.165  13.092 -0.6175 -0.0690 -3.2661
  182ETHOX  H1356898   8.092  13.204  13.168  1.0288 -1.9863  0.1351
  182ETHOX   C256899   8.060  13.289  12.971 -0.2485 -0.7318 -0.5311
  182ETHOX  H2156900   8.013  13.267  12.873  1.5081 -3.0561 -0.9516
  182ETHOX  H2356901   8.170  13.278  12.955 -0.5003 -2.9503 -1.0607
  183ETHOX   O156902   8.027  13.418  13.018 -0.1523 -0.6504 -0.3072
  183ETHOX   C156903   8.082  13.519  12.932  0.2488  0.2475  0.3046
  183ETHOX  H1156904   8.080  13.472  12.831 -2.5010 -1.8636  1.2499
  183ETHOX  H1356905   8.181  13.552  12.972  0.5367  1.3784 -1.2469
  183ETHOX   C256906   7.971  13.629  12.927  0.0691 -0.8647  0.6350
  183ETHOX  H2156907   7.874  13.599  12.882 -1.6977  2.1408  2.1134
  183ETHOX  H2356908   8.019  13.711  12.869  0.4476 -0.5676  1.3605
  184ETHOX   O156909   7.956  13.707  13.040  0.0369 -0.0780 -0.3297
  184ETHOX   C156910   7.845  13.799  13.025  0.4466  0.3786  0.2019
  184ETHOX  H1156911   7.870  13.869  12.942  0.8268 -1.3233 -1.1749
  184ETHOX  H1356912   7.757  13.737  12.999 -0.7047  0.6708  3.0670
  184ETHOX   C256913   7.811  13.882  13.150 -0.0458 -0.0946 -0.5739
  184ETHOX  H2156914   7.817  13.815  13.238  0.3216 -0.6043 -0.9823
  184ETHOX  H2356915   7.710  13.923  13.131  0.1578  2.1102  2.3908
  185ETHOX   O156916   7.899  13.998  13.172 -0.3929 -0.5030  0.5814
  185ETHOX   C156917   7.862  14.067  13.294 -0.0998 -1.0457 -0.6422
  185ETHOX  H1156918   7.922  14.160  13.286 -0.6107 -0.8875 -3.6987
  185ETHOX  H1356919   7.753  14.089  13.296 -0.1021 -0.6228 -3.1317
  185ETHOX   C256920   7.904  13.985  13.418  0.4205 -0.5701  0.1348
  185ETHOX  H2156921   7.855  13.885  13.423 -1.0516  0.1632  1.6870
  185ETHOX  H2356922   7.856  14.033  13.506  1.3116 -2.3674  1.6618
  186ETHOX   O156923   8.040  13.968  13.443 -0.6236  0.2797  0.1645
  186ETHOX   C156924   8.070  13.863  13.532 -0.0644  0.2858 -0.5227
  186ETHOX  H1156925   7.995  13.870  13.614  0.4616  2.9286 -0.1638
  186ETHOX  H1356926   8.044  13.768  13.482 -0.8900  0.7008 -0.9049
  186ETHOX   C256927   8.209  13.864  13.584 -0.4096 -0.3798  0.5429
  186ETHOX  H2156928   8.283  13.835  13.506  1.5720 -0.1762  2.2466
  186ETHOX  H2356929   8.221  13.798  13.672 -1.1226 -0.2952  0.7066
  187ETHOX   O156930   8.241  13.990  13.632  0.2824  0.7326 -0.0490
  187ETHOX   C156931   8.381  14.012  13.644 -0.4847 -0.2444 -0.4828
  187ETHOX  H1156932   8.425  13.921  13.689 -3.9563 -0.2643  3.3867
  187ETHOX  H1356933   8.420  14.018  13.540 -1.0631  0.4615 -0.6726
  187ETHOX   C256934   8.429  14.134  13.721  0.5137 -0.2386 -0.4461
  187ETHOX  H2156935   8.537  14.113  13.735  0.1622 -2.4501 -0.5996
  187ETHOX  H2356936   8.379  14.153  13.818 -0.9005  1.4328 -1.4435
  188ETHOX   O156937   8.422  14.251  13.638 -0.1816  0.1029 -0.1949
  188ETHOX   C156938   8.475  14.360  13.709  0.2754  0.3667 -0.5647
  188ETHOX  H1156939   8.503  14.425  13.623  4.5230  0.3921  0.5945
  188ETHOX  H1356940   8.574  14.338  13.755 -0.2886 -0.1884  0.4288
  188ETHOX   C256941   8.385  14.426  13.816 -0.5641  0.0680 -0.2994
  188ETHOX  H2156942   8.289  14.443  13.762  0.7415  2.9622 -1.9069
  188ETHOX  H2356943   8.437  14.523  13.823 -0.3426 -0.1606  1.6369
  189ETHOX   O156944   8.354  14.376  13.944 -0.8779  0.4103  0.2215
  189ETHOX   C156945   8.302  14.468  14.039 -0.3041 -0.2844 -0.0328
  189ETHOX  H1156946   8.308  14.421  14.139 -1.1460 -0.9098 -0.2655
  189ETHOX  H1356947   8.375  14.552  14.033  1.7022 -1.8716  1.0813
  189ETHOX   C256948   8.157  14.511  14.016  0.6385 -0.3253 -0.7132
  189ETHOX  H2156949   8.129  14.572  14.104  2.0388  2.6005 -2.1456
  189ETHOX  H2356950   8.094  14.419  14.016  0.9906 -0.5683 -0.4102
  190ETHOX   O156951   8.154  14.593  13.901 -0.6138 -0.2763  0.1835
  190ETHOX   C156952   8.031  14.646  13.875 -0.2903  0.5240  0.3805
  190ETHOX  H1156953   7.997  14.721  13.949 -1.3474 -1.4433  1.9906
  190ETHOX  H1356954   7.950  14.570  13.874 -1.9845  2.2371  0.8620
  190ETHOX   C256955   8.015  14.705  13.728 -0.4941 -0.3777 -0.5346
  190ETHOX  H2156956   7.909  14.734  13.712 -0.5196  0.1394  0.4699
  190ETHOX  H2356957   8.044  14.630  13.650 -1.2557 -1.6341  0.3572
  191ETHOX   O156958   8.104  14.818  13.710  0.2008 -0.0578 -0.0326
  191ETHOX   C156959   8.101  14.873  13.575  0.4719 -0.1531  0.4148
  191ETHOX  H1156960   8.000  14.865  13.529  0.3314  1.2059  0.4412
  191ETHOX  H1356961   8.119  14.982  13.585  1.3777 -0.0021 -2.0933
  191ETHOX   C256962   8.210  14.805  13.489  0.4077  0.3344 -0.5633
  191ETHOX  H2156963   8.295  14.808  13.559  0.4681 -0.8085 -0.5722
  191ETHOX  H2356964   8.233  14.865  13.398  0.5471 -0.3206 -0.9605
  192ETHOX   O156965   8.169  14.674  13.443  0.7120  0.5413 -0.0058
  192ETHOX   C156966   8.247  14.572  13.495  0.0298  0.8885  0.0484
  192ETHOX  H1156967   8.225  14.572  13.604 -2.2851  0.2759 -0.3645
  192ETHOX  H1356968   8.355  14.587  13.474  0.3195  0.9090  1.4392
  192ETHOX   C256969   8.209  14.441  13.422 -0.1495 -0.1104 -0.7663
  192ETHOX  H2156970   8.099  14.425  13.419 -0.0125 -1.3263  0.1496
  192ETHOX  H2356971   8.253  14.356  13.479 -2.1787 -1.4259 -1.0595
  193ETHOX   O156972   8.259  14.431  13.287  0.0973  0.0175 -0.1833
  193ETHOX   C156973   8.247  14.305  13.221  0.0654  0.2048  0.1578
  193ETHOX  H1156974   8.274  14.218  13.285  1.0395  0.3559 -0.0294
  193ETHOX  H1356975   8.137  14.295  13.205 -0.2871  2.5741  0.7976
  193ETHOX   C256976   8.311  14.297  13.082  0.2283  0.5844  0.0497
  193ETHOX  H2156977   8.297  14.398  13.036  1.8569  1.3398  1.1094
  193ETHOX  H2356978   8.256  14.210  13.040 -0.5916  0.5196  1.2051
  194ETHOX   O156979   8.451  14.261  13.060 -0.2845  0.5483 -0.1266
  194ETHOX   C156980   8.546  14.338  13.131 -0.1502  1.0718  0.4331
  194ETHOX  H1156981   8.548  14.294  13.233  2.2445  0.0059 -0.0154
  194ETHOX  H1356982   8.509  14.443  13.140  1.3404  1.5782  0.8725
  194ETHOX   C256983   8.681  14.339  13.057  0.4882 -0.6031  0.0243
  194ETHOX  H2156984   8.751  14.419  13.088 -0.0473  0.6864 -1.8761
  194ETHOX  H2356985   8.669  14.362  12.949 -0.7903 -0.4923  0.1694
  195ETHOX   O156986   8.730  14.209  13.065  0.1325  0.4886 -0.3060
  195ETHOX   C156987   8.877  14.214  13.069 -0.0848 -0.5816  0.4269
  195ETHOX  H1156988   8.908  14.279  12.984  1.3960 -1.5580  0.1852
  195ETHOX  H1356989   8.923  14.256  13.161 -1.2802  0.1956  0.6972
  195ETHOX   C256990   8.937  14.078  13.040 -0.6846  0.1577  0.0142
  195ETHOX  H2156991   8.943  14.007  13.125  3.8621  0.4734  0.2138
  195ETHOX  H2356992   9.043  14.099  13.014 -0.9170  0.6632 -0.5489
  196ETHOX   O156993   8.892  14.026  12.915  0.2366 -0.3669 -0.4783
  196ETHOX   C156994   8.960  13.904  12.892  1.1904 -0.2063 -0.2745
  196ETHOX  H1156995   9.063  13.938  12.868  0.9416 -0.6664 -2.1794
  196ETHOX  H1356996   8.955  13.851  12.990  0.9081  0.3396  0.0145
  196ETHOX   C256997   8.893  13.826  12.785  0.3726 -0.0054 -0.0233
  196ETHOX  H2156998   8.944  13.848  12.688  1.8512 -0.5367  0.6043
  196ETHOX  H2356999   8.785  13.845  12.772  0.5443  0.8224 -0.2833
  197ETHOX   O157000   8.913  13.683  12.816 -0.2530  0.4615  0.4023
  197ETHOX   C157001   8.809  13.608  12.761  0.4974  0.4613  0.2031
  197ETHOX  H1157002   8.717  13.641  12.814  1.4057  2.4685  0.6100
  197ETHOX  H1357003   8.803  13.641  12.655 -1.2616 -2.1366 -0.5998
  197ETHOX   C257004   8.822  13.461  12.780 -0.4496  0.2430 -0.7984
  197ETHOX  H2157005   8.897  13.428  12.705 -1.6594  2.1291 -2.9495
  197ETHOX  H2357006   8.733  13.408  12.742 -0.1836  0.7041 -2.1074
  198ETHOX   O157007   8.845  13.418  12.911  0.2059 -0.3672 -0.0871
  198ETHOX   C157008   8.730  13.424  12.998  0.2549  0.1785 -0.0600
  198ETHOX  H1157009   8.727  13.533  13.020 -0.0392  0.3476 -0.9113
  198ETHOX  H1357010   8.638  13.404  12.939 -1.0978 -0.1955  2.0777
  198ETHOX   C257011   8.738  13.330  13.121 -0.4146 -0.8908 -0.4202
  198ETHOX  H2157012   8.760  13.222  13.104  1.7408 -0.7678  1.2567
  198ETHOX  H2357013   8.636  13.318  13.164 -0.8209  0.5558 -0.9284
  199ETHOX   O157014   8.832  13.378  13.215  0.5633 -0.1335  0.0732
  199ETHOX   C157015   8.972  13.350  13.190  0.1983 -0.5107  0.7637
  199ETHOX  H1157016   8.996  13.392  13.090 -0.2896  1.0350  1.2567
  199ETHOX  H1357017   8.990  13.242  13.206 -0.2431 -0.4947  1.3881
  199ETHOX   C257018   9.077  13.432  13.262 -0.5645 -0.5842 -0.4858
  199ETHOX  H2157019   9.058  13.541  13.251 -1.1125 -0.4824  1.0936
  199ETHOX  H2357020   9.177  13.406  13.221  0.8825  2.3408  0.8800
  200ETHOX   O157021   9.092  13.401  13.399 -0.1102  0.1249 -0.0027
  200ETHOX   C157022   8.969  13.440  13.466 -0.2155  0.0634 -0.3568
  200ETHOX  H1157023   8.913  13.513  13.401  2.9813 -0.3166 -3.8896
  200ETHOX  H1357024   8.911  13.349  13.490 -2.2927  0.9643 -1.5921
  200ETHOX   C257025   8.997  13.511  13.599 -0.1137  0.2650 -0.2126
  200ETHOX  H2157026   9.065  13.598  13.592  1.7699 -1.1338 -0.1889
  200ETHOX  H2357027   9.034  13.436  13.673  1.5563  1.0919 -0.1706
  201ETHOX   O157028   8.878  13.561  13.659 -0.5127  0.5816  0.4014
  201ETHOX   C157029   8.856  13.697  13.625  0.0208 -0.5101 -0.8405
  201ETHOX  H1157030   8.847  13.719  13.516 -0.0934  0.1746 -0.6987
  201ETHOX  H1357031   8.947  13.753  13.657  0.7647 -2.2649  0.2626
  201ETHOX   C257032   8.724  13.745  13.687  0.1867 -0.0976 -0.2428
  201ETHOX  H2157033   8.658  13.656  13.675 -1.9543  1.4300 -0.3100
  201ETHOX  H2357034   8.686  13.835  13.635  0.9220  1.0860  1.1789
  202ETHOX   O157035   8.741  13.780  13.823 -0.1326  0.2126  0.3725
  202ETHOX   C157036   8.613  13.814  13.878 -0.1137 -0.2035 -1.2786
  202ETHOX  H1157037   8.587  13.915  13.841  1.0936 -0.1794 -2.1036
  202ETHOX  H1357038   8.542  13.733  13.849  0.3203 -0.9896 -0.2122
  202ETHOX   C257039   8.615  13.837  14.034  0.5812  0.2826  0.3826
  202ETHOX  H2157040   8.668  13.753  14.084  0.4930 -0.3950 -0.6363
  202ETHOX  H2357041   8.509  13.832  14.066  0.2596 -2.8187 -0.8327
  203ETHOX   O157042   8.675  13.958  14.068 -0.1015 -0.8332  0.1389
  203ETHOX   C157043   8.650  14.012  14.195 -0.2971  0.0313  0.6813
  203ETHOX  H1157044   8.727  14.086  14.223  0.5593 -0.9110  0.8820
  203ETHOX  H1357045   8.652  13.923  14.262  1.0109 -0.0193  0.5920
  203ETHOX   C257046   8.513  14.078  14.198  0.0931  0.0629 -0.4832
  203ETHOX  H2157047   8.486  14.114  14.097  1.4500  0.1441 -0.8401
  203ETHOX  H2357048   8.501  14.160  14.273  2.2465  0.1894 -0.2012
  204ETHOX   O157049   8.410  13.987  14.229 -0.3880 -0.3268  0.4841
  204ETHOX   C157050   8.371  13.980  14.368  0.1961  0.5069  0.5995
  204ETHOX  H1157051   8.459  13.967  14.434  1.0134 -0.1302 -0.5771
  204ETHOX  H1357052   8.324  14.075  14.401 -0.6004  0.5810 -0.6958
  204ETHOX   C257053   8.279  13.857  14.376  0.0324 -0.3416 -0.0346
  204ETHOX  H2157054   8.194  13.875  14.307 -1.1524 -1.8374  0.9532
  204ETHOX  H2357055   8.231  13.857  14.477 -0.6981  1.1894 -0.3632
  205ETHOX   O157056   8.358  13.737  14.347  0.0282 -0.0819 -0.0646
  205ETHOX   C157057   8.270  13.630  14.318  0.1548  0.1062  0.6599
  205ETHOX  H1157058   8.203  13.671  14.239  2.4029  0.6146 -1.1025
  205ETHOX  H1357059   8.203  13.619  14.406 -0.8007  1.5343  0.1513
  205ETHOX   C257060   8.337  13.497  14.271 -0.1846  1.3692  0.3660
  205ETHOX  H2157061   8.269  13.411  14.251  0.3873  0.5456  1.7889
  205ETHOX  H2357062   8.411  13.469  14.348  1.7594 -1.3673 -2.2430
  206ETHOX   O157063   8.416  13.523  14.153  0.3047 -0.1281  0.2058
  206ETHOX   C157064   8.488  13.414  14.108 -0.6913 -0.7788 -0.4870
  206ETHOX  H1157065   8.550  13.368  14.188 -0.9133  1.0873  0.8209
  206ETHOX  H1357066   8.420  13.341  14.059  1.7728 -2.0866 -2.1953
  206ETHOX   C257067   8.596  13.451  14.002  0.2589  0.0721  0.2138
  206ETHOX  H2157068   8.538  13.456  13.907  2.2728  2.1093 -1.0309
  206ETHOX  H2357069   8.638  13.550  14.032 -1.4008  1.0303 -0.4506
  207ETHOX   O157070   8.692  13.345  14.007  0.5794  0.3182 -0.5135
  207ETHOX   C157071   8.794  13.363  13.912  0.1988 -0.4316 -0.2579
  207ETHOX  H1157072   8.779  13.466  13.873  0.3249 -0.6974 -1.0381
  207ETHOX  H1357073   8.771  13.287  13.834 -1.6903  0.0606 -0.2221
  207ETHOX   C257074   8.940  13.342  13.961 -0.2208 -0.3873  0.3400
  207ETHOX  H2157075   9.007  13.338  13.873 -0.7385 -2.9171  0.0041
  207ETHOX  H2357076   8.942  13.238  14.000  2.8437 -0.2487  0.7363
  208ETHOX   O157077   8.981  13.438  14.059  1.0243  1.0276 -0.0021
  208ETHOX   C157078   8.956  13.376  14.187  0.4509 -0.1706  0.0787
  208ETHOX  H1157079   8.852  13.342  14.205  1.2819 -2.8814  0.1524
  208ETHOX  H1357080   9.012  13.281  14.180 -0.3533 -0.5537 -1.3561
  208ETHOX   C257081   8.998  13.472  14.306 -0.3045  0.6790 -0.1958
  208ETHOX  H2157082   8.965  13.415  14.396  0.5276  0.3890 -0.0612
  208ETHOX  H2357083   8.965  13.577  14.295  0.5344  0.8107 -1.8188
  209ETHOX   O157084   9.143  13.470  14.306 -0.0133 -0.2792  1.0214
  209ETHOX   C157085   9.192  13.585  14.367 -0.1209 -0.8250  0.3090
  209ETHOX  H1157086   9.135  13.623  14.455  1.3394  3.9656 -0.4942
  209ETHOX  H1357087   9.183  13.670  14.296 -0.2959 -1.0239  0.0922
  209ETHOX   C257088   9.343  13.564  14.403  0.6565 -0.1403 -0.7945
  209ETHOX  H2157089   9.400  13.655  14.429  0.0937  0.2282 -0.8376
  209ETHOX  H2357090   9.399  13.514  14.321  0.3664 -3.0654  0.6508
  210ETHOX   O157091   9.354  13.484  14.526 -0.0026  0.0592  0.2477
  210ETHOX   C157092   9.489  13.439  14.540  0.5259  0.2099 -0.3927
  210ETHOX  H1157093   9.509  13.380  14.448  0.8853 -1.4747  0.7282
  210ETHOX  H1357094   9.557  13.526  14.549  2.0559 -1.0577  0.7584
  210ETHOX   C257095   9.520  13.343  14.649  0.0954  0.8023 -0.0659
  210ETHOX  H2157096   9.613  13.288  14.623 -1.5872 -1.7007 -1.0634
  210ETHOX  H2357097   9.442  13.268  14.673 -2.6518  3.5741  0.3252
  211ETHOX   O157098   9.532  13.410  14.775 -0.0214 -0.4187 -0.1393
  211ETHOX   C157099   9.523  13.319  14.888  0.3388 -0.6633 -0.7252
  211ETHOX  H1157100   9.423  13.278  14.913  0.4405 -1.1098 -1.0432
  211ETHOX  H1357101   9.604  13.243  14.886  1.9708  0.8147  2.5245
  211ETHOX   C257102   9.580  13.397  15.014  0.2313  0.0493 -0.5282
  211ETHOX  H2157103   9.679  13.437  14.983  0.1685 -0.8306 -1.9532
  211ETHOX  H2357104   9.595  13.314  15.086  1.0533  0.2756 -0.4295
  212ETHOX   O157105   9.511  13.507  15.074 -0.0178 -0.3771  0.0449
  212ETHOX   C157106   9.574  13.541  15.200 -0.2538 -0.2262  0.5134
  212ETHOX  H1157107   9.516  13.612  15.264 -0.6120  1.8849 -2.0014
  212ETHOX  H1357108   9.578  13.448  15.260 -0.5027 -1.2273 -0.9817
  212ETHOX   C257109   9.712  13.613  15.194 -0.2008 -0.8437  0.6167
  212ETHOX  H2157110   9.785  13.558  15.130  0.4467 -0.5328  1.0679
  212ETHOX  H2357111   9.757  13.614  15.296  0.6036  1.4360  0.3064
  213ETHOX   O157112   9.703  13.753  15.160  0.1477  0.0024  0.1857
  213ETHOX   C157113   9.711  13.780  15.022 -0.6507 -0.5698  0.2544
  213ETHOX  H1157114   9.664  13.694  14.969 -1.2742 -2.3901  3.4652
  213ETHOX  H1357115   9.663  13.877  15.000  0.4593  0.4922  2.2047
  213ETHOX   C257116   9.868  13.783  14.982  0.0150 -0.2379 -0.1275
  213ETHOX  H2157117   9.855  13.779  14.871 -0.9576 -2.1976  0.0132
  213ETHOX  H2357118   9.916  13.687  15.010 -0.7842 -0.1853  1.5313
  214ETHOX   O157119   9.951  13.892  15.013  0.4876 -0.6903 -0.2196
  214ETHOX   C157120   9.987  13.905  15.151  0.3032  0.3563  0.0415
  214ETHOX  H1157121  10.056  13.819  15.167 -0.3982  0.1873  2.5590
  214ETHOX  H1357122   9.897  13.895  15.216 -0.1095  0.0998 -0.5595
  214ETHOX   C257123  10.063  14.034  15.180  0.8613 -0.1157 -0.1346
  214ETHOX  H2157124  10.078  14.048  15.289 -0.0040 -0.8746  0.0958
  214ETHOX  H2357125   9.993  14.115  15.150  3.1848  1.9738 -0.1935
  215ETHOX   O157126  10.178  14.047  15.110 -0.1509  0.1904 -0.4088
  215ETHOX   C157127  10.238  14.170  15.140  0.4843  0.2004 -0.5282
  215ETHOX  H1157128  10.168  14.256  15.134 -1.8678 -1.5676  0.3368
  215ETHOX  H1357129  10.262  14.175  15.248  1.5728 -0.7823 -0.7016
  215ETHOX   C257130  10.373  14.180  15.068  0.2590  0.7624 -0.4731
  215ETHOX  H2157131  10.348  14.149  14.964 -0.5008  1.0278 -0.3757
  215ETHOX  H2357132  10.449  14.114  15.115 -1.6878  0.5432  2.6000
  216ETHOX   O157133  10.425  14.309  15.057 -0.2096  0.6419  0.1968
  216ETHOX   C157134  10.537  14.314  14.971 -0.0613 -0.0658  0.0176
  216ETHOX  H1157135  10.534  14.397  14.897 -2.7013 -0.7172 -0.7077
  216ETHOX  H1357136  10.535  14.225  14.905  1.1538 -0.0849 -0.0154
  216ETHOX   C257137  10.681  14.309  15.029  0.1853 -0.8803 -0.2954
  216ETHOX  H2157138  10.706  14.392  15.098  0.7014 -1.0666 -0.2541
  216ETHOX  H2357139  10.748  14.330  14.943  0.6598  0.8854  0.4519
  217ETHOX   O157140  10.728  14.195  15.102  0.0643 -0.1818  0.2096
  217ETHOX   C157141  10.751  14.081  15.015 -0.2978 -0.1971  0.9364
  217ETHOX  H1157142  10.653  14.049  14.974  0.2552 -2.4870  1.2536
  217ETHOX  H1357143  10.807  14.126  14.930 -0.7070  0.0329  0.7794
  217ETHOX   C257144  10.823  13.964  15.080  0.0730 -0.1369  0.3054
  217ETHOX  H2157145  10.793  13.866  15.037  1.2976  0.0574 -1.0520
  217ETHOX  H2357146  10.793  13.950  15.186  3.0057 -2.9768  0.9406
  218ETHOX   O157147  10.967  13.968  15.072 -0.1504 -0.2616  0.2111
  218ETHOX   C157148  11.022  13.856  15.132 -0.1908  0.3811  0.0970
  218ETHOX  H1157149  11.002  13.764  15.073  0.0539 -1.0821  2.1977
  218ETHOX  H1357150  10.979  13.840  15.233  0.3215 -1.9872 -0.0225
  218ETHOX   C257151  11.169  13.877  15.149  0.0198 -0.0577  0.6115
  218ETHOX  H2157152  11.210  13.935  15.063 -3.8038 -1.0029 -2.1048
  218ETHOX  H2357153  11.231  13.789  15.178  0.2607  0.9511  3.4733
  219ETHOX   O157154  11.188  13.972  15.255 -0.1826 -0.2985  0.5165
  219ETHOX   C157155  11.323  13.971  15.302  0.4937 -0.0801  0.2857
  219ETHOX  H1157156  11.352  13.873  15.345  0.6111  0.0098  0.4118
  219ETHOX  H1357157  11.393  13.998  15.220  1.3407 -0.1827  0.9555
  219ETHOX   C257158  11.335  14.071  15.414 -0.8214  0.4317 -0.1758
  219ETHOX  H2157159  11.296  14.170  15.381 -0.5673  0.4804 -0.3434
  219ETHOX  H2357160  11.442  14.088  15.439 -0.2450 -2.7941 -0.0393
  220ETHOX   O157161  11.277  14.034  15.542  0.3931  0.0885  0.1316
  220ETHOX   C157162  11.328  14.105  15.651 -0.2553  0.1463  0.8846
  220ETHOX  H1157163  11.277  14.203  15.666  0.3882  0.4314  1.2514
  220ETHOX  H1357164  11.439  14.113  15.649 -0.2683  0.2980  0.7663
  220ETHOX   C257165  11.300  14.034  15.790  0.0231 -0.3237  0.7094
  220ETHOX  H2157166  11.193  14.003  15.785 -0.5188  1.5786 -0.3141
  220ETHOX  H2357167  11.307  14.100  15.879 -1.1960  0.7333  0.0532
  221ETHOX   O157168  11.392  13.927  15.814 -0.0756 -0.1546 -0.0127
  221ETHOX   C157169  11.380  13.860  15.934  0.4661  0.0742 -0.0967
  221ETHOX  H1157170  11.414  13.916  16.023  2.4907 -0.8566 -0.2386
  221ETHOX  H1357171  11.277  13.825  15.957 -0.1595  1.8227 -0.1527
  221ETHOX   C257172  11.479  13.738  15.923  0.2860  0.1153 -0.0766
  221ETHOX  H2157173  11.459  13.681  15.830  0.9387 -2.1325  1.1082
  221ETHOX  H2357174  11.465  13.676  16.014  0.8834 -1.0842 -0.7800
  222ETHOX   O157175  11.615  13.773  15.923  0.3800  0.3386  0.1578
  222ETHOX   C157176  11.707  13.678  15.864  0.5331 -0.0989 -0.2544
  222ETHOX  H1157177  11.674  13.580  15.904 -1.8678  1.2283  1.3301
  222ETHOX  H1357178  11.688  13.691  15.755 -1.2865  1.4285  0.1914
  222ETHOX   C257179  11.843  13.701  15.909 -0.7074  0.2963  0.0819
  222ETHOX  H2157180  11.907  13.625  15.858 -1.7952  0.6487 -1.8736
  222ETHOX  H2357181  11.854  13.705  16.019  0.2405  2.3500 -0.0432
  223ETHOX   O157182  11.898  13.817  15.847  0.0991  0.0296  0.5176
  223ETHOX   C157183  12.025  13.862  15.893 -0.1577  0.5834 -0.0578
  223ETHOX  H1157184  12.035  13.847  16.003 -1.1669  0.7511  0.0659
  223ETHOX  H1357185  12.099  13.798  15.840 -1.6022 -0.9072 -0.3722
  223ETHOX   C257186  12.056  14.005  15.867  0.3315 -0.8071  0.1452
  223ETHOX  H2157187  12.158  14.037  15.900 -0.1787  0.6564  0.3966
  223ETHOX  H2357188  11.995  14.079  15.924 -0.3705 -0.0081 -1.5695
  224ETHOX   O157189  12.042  14.051  15.734  0.6823  0.5572  0.1032
  224ETHOX   C157190  12.072  14.190  15.719 -0.6961 -0.1246  0.1628
  224ETHOX  H1157191  12.023  14.245  15.802 -1.3339 -1.5759  0.7928
  224ETHOX  H1357192  12.182  14.199  15.724 -0.5906 -1.0832 -0.1436
  224ETHOX   C257193  12.028  14.229  15.577 -0.9961  0.3549 -0.0323
  224ETHOX  H2157194  12.063  14.152  15.505  2.8565  0.3166  1.6207
  224ETHOX  H2357195  12.072  14.327  15.550 -0.5590  0.5110  1.1890
  225ETHOX   O157196  11.887  14.255  15.575 -0.5654  0.0183 -0.1855
  225ETHOX   C157197  11.846  14.250  15.441  0.2456  0.4562  0.6173
  225ETHOX  H1157198  11.872  14.151  15.399  1.2963 -1.1037  4.5636
  225ETHOX  H1357199  11.896  14.330  15.382 -2.6796 -0.1951 -3.1646
  225ETHOX   C257200  11.698  14.288  15.419  0.5097  0.3963 -0.4581
  225ETHOX  H2157201  11.640  14.211  15.475 -0.1117  1.3043  0.1793
  225ETHOX  H2357202  11.673  14.285  15.311  3.2087 -0.9207 -1.1381
  226ETHOX   O157203  11.664  14.420  15.473 -0.5087  0.1410 -0.3373
  226ETHOX   C157204  11.527  14.429  15.504  0.3628  1.4044 -0.4129
  226ETHOX  H1157205  11.469  14.420  15.409 -1.3317 -1.0230  0.7440
  226ETHOX  H1357206  11.498  14.333  15.553  2.6346  0.9394  0.1179
  226ETHOX   C257207  11.482  14.545  15.584  0.0020  0.4639 -0.4522
  226ETHOX  H2157208  11.489  14.639  15.524  0.0800  1.1017  0.5320
  226ETHOX  H2357209  11.557  14.558  15.665 -1.8364  2.7198  1.0355
  227ETHOX   O157210  11.357  14.525  15.653 -0.4577 -0.4994 -0.4138
  227ETHOX   C157211  11.251  14.507  15.565  0.4733 -0.1246  0.5975
  227ETHOX  H1157212  11.257  14.422  15.494 -1.5620 -0.9510  1.3524
  227ETHOX  H1357213  11.248  14.594  15.496 -0.0915  0.0857  0.8773
  227ETHOX   C257214  11.121  14.492  15.633  0.5869 -0.8288 -0.3914
  227ETHOX  H2157215  11.047  14.488  15.549  0.6484  1.8930 -0.6366
  227ETHOX  H2357216  11.093  14.583  15.689 -0.6884 -0.7036 -1.1834
  228ETHOX   O157217  11.106  14.373  15.715 -0.5362 -0.2060 -0.1459
  228ETHOX   C157218  10.971  14.356  15.741 -0.0408 -0.6636 -0.3093
  228ETHOX  H1157219  10.927  14.441  15.798  0.3548 -1.2709  0.9415
  228ETHOX  H1357220  10.914  14.348  15.646 -0.1966  2.2254 -0.5516
  228ETHOX   C257221  10.947  14.219  15.806  0.2181 -0.9445  0.3027
  228ETHOX  H2157222  10.851  14.242  15.857 -0.3751 -1.8875 -0.3566
  228ETHOX  H2357223  11.024  14.187  15.880  1.2224  0.7227  0.0429
  229ETHOX   O157224  10.912  14.111  15.718 -0.2998 -0.2482 -0.7425
  229ETHOX   C157225  10.874  13.999  15.793  0.4223  0.2080  0.0982
  229ETHOX  H1157226  10.779  14.012  15.849  0.9988 -0.0852  1.1848
  229ETHOX  H1357227  10.948  13.970  15.871  0.7259  2.4292  0.7283
  229ETHOX   C257228  10.838  13.887  15.696 -0.8176 -0.4515  1.2365
  229ETHOX  H2157229  10.830  13.790  15.749 -0.9041 -1.1395 -0.0126
  229ETHOX  H2357230  10.919  13.875  15.621 -0.4282 -1.6912  1.8341
  230ETHOX   O157231  10.712  13.914  15.634  0.3290 -0.0206  0.6437
  230ETHOX   C157232  10.719  14.001  15.521 -0.6454  0.0948 -0.5599
  230ETHOX  H1157233  10.738  14.102  15.562  0.8718  0.4501 -2.0345
  230ETHOX  H1357234  10.798  13.968  15.451  0.7810  1.2419  0.4449
  230ETHOX   C257235  10.587  14.016  15.455  0.1831  0.0738 -0.1837
  230ETHOX  H2157236  10.579  14.112  15.402  0.3395 -0.2335 -0.7728
  230ETHOX  H2357237  10.501  14.012  15.525  0.2976 -1.7990 -0.0839
  231ETHOX   O157238  10.579  13.912  15.360  0.3910 -0.3591 -0.1507
  231ETHOX   C157239  10.445  13.889  15.314 -0.3265  0.1121 -0.6080
  231ETHOX  H1157240  10.402  13.980  15.266 -1.5690 -0.1176  0.0229
  231ETHOX  H1357241  10.384  13.856  15.400  0.8963 -0.9649 -0.1235
  231ETHOX   C257242  10.447  13.770  15.215  0.4167 -0.4855 -0.3349
  231ETHOX  H2157243  10.343  13.742  15.189 -0.2315 -0.2842  1.8461
  231ETHOX  H2357244  10.489  13.682  15.268  1.0165 -0.3659 -0.6056
  232ETHOX   O157245  10.512  13.823  15.094  0.0069  0.6573  0.4010
  232ETHOX   C157246  10.524  13.736  14.981 -0.3735 -0.3089  0.2919
  232ETHOX  H1157247  10.615  13.774  14.931 -0.4478 -0.8395 -0.2605
  232ETHOX  H1357248  10.532  13.629  15.011  1.7148 -0.7163 -1.5271
  232ETHOX   C257249  10.412  13.750  14.879 -0.2603 -0.3665 -0.1328
  232ETHOX  H2157250  10.457  13.734  14.778 -1.4732 -2.0983 -0.4413
  232ETHOX  H2357251  10.380  13.856  14.889 -0.1557 -0.2928 -0.5341
  233ETHOX   O157252  10.309  13.658  14.898 -0.1589  0.2728  0.0890
  233ETHOX   C157253  10.214  13.676  14.796 -0.2189 -0.1824  0.2938
  233ETHOX  H1157254  10.154  13.767  14.820 -0.5948 -0.8036  1.7783
  233ETHOX  H1357255  10.264  13.693  14.698 -1.5037  0.0203 -0.3504
  233ETHOX   C257256  10.123  13.564  14.775  0.9075 -0.0392  0.5746
  233ETHOX  H2157257  10.035  13.555  14.842  0.3194  0.3502 -0.1334
  233ETHOX  H2357258  10.182  13.470  14.788  0.0938 -0.5612  0.5491
  234ETHOX   O157259  10.071  13.567  14.638 -0.2957 -0.1014  0.2483
  234ETHOX   C157260   9.985  13.451  14.611 -0.7488  0.0915 -0.1159
  234ETHOX  H1157261  10.047  13.359  14.611  0.6189  0.9721 -0.3333
  234ETHOX  H1357262   9.903  13.448  14.686 -0.3633 -2.5876  0.2649
  234ETHOX   C257263   9.919  13.465  14.472 -0.4005  0.3028 -0.4076
  234ETHOX  H2157264  10.003  13.485  14.403 -1.1534 -1.6129 -1.9845
  234ETHOX  H2357265   9.844  13.546  14.466  0.5900  1.0876 -3.1071
  235ETHOX   O157266   9.854  13.340  14.438  0.0720  0.3474  0.2097
  235ETHOX   C157267   9.882  13.301  14.305  0.3543 -0.4389 -0.3085
  235ETHOX  H1157268   9.993  13.290  14.307  0.4585  0.3477 -1.0870
  235ETHOX  H1357269   9.843  13.198  14.294  0.1432 -0.5898  1.5262
  235ETHOX   C257270   9.820  13.380  14.190 -0.0221 -1.1099  0.2752
  235ETHOX  H2157271   9.880  13.349  14.102 -1.1290 -0.7201 -0.6294
  235ETHOX  H2357272   9.837  13.488  14.207 -1.5646 -0.9124  0.7375
  236ETHOX   O157273   9.677  13.356  14.161 -0.3624 -0.3429  0.0178
  236ETHOX   C157274   9.624  13.447  14.067  0.1590  0.3768  0.7056
  236ETHOX  H1157275   9.673  13.433  13.968 -0.3223  0.4257  0.4549
  236ETHOX  H1357276   9.633  13.553  14.096  3.0995  1.3303 -2.9086
  236ETHOX   C257277   9.480  13.407  14.038 -0.1181 -0.5464  0.0583
  236ETHOX  H2157278   9.421  13.412  14.132 -0.0021  1.8734  0.0712
  236ETHOX  H2357279   9.482  13.301  14.004  0.0242 -0.0264 -1.6611
  237ETHOX   O157280   9.427  13.508  13.947 -0.3556  0.3034  0.4235
  237ETHOX   C157281   9.301  13.470  13.892  0.1248 -0.6130 -0.1187
  237ETHOX  H1157282   9.218  13.483  13.965  1.0497  2.0656  0.5461
  237ETHOX  H1357283   9.279  13.545  13.813  1.3950  0.9017  0.9062
  237ETHOX   C257284   9.304  13.341  13.819 -0.2800 -0.1960  0.5804
  237ETHOX  H2157285   9.404  13.317  13.776 -0.3710  0.1092  0.1921
  237ETHOX  H2357286   9.233  13.347  13.733  0.9139  1.2037 -0.3497
  238ETHOX   O157287   9.261  13.230  13.907  0.1219 -0.5497  0.5357
  238ETHOX   C157288   9.276  13.114  13.832  0.3096  0.4726  0.6022
  238ETHOX  H1157289   9.384  13.089  13.833  0.4773  0.5509  4.9987
  238ETHOX  H1357290   9.239  13.112  13.727 -2.2653 -0.9316  1.4347
  238ETHOX   C257291   9.209  12.998  13.906  0.0280  0.3421 -0.5902
  238ETHOX  H2157292   9.202  13.009  14.016 -0.3458 -2.1527 -0.3125
  238ETHOX  H2357293   9.271  12.908  13.884  0.1313  0.5550 -1.1849
  239ETHOX   O157294   9.074  12.989  13.858  0.0685 -0.4207  0.2196
  239ETHOX   C157295   9.000  12.887  13.926 -0.1848  0.1659  0.0463
  239ETHOX  H1157296   9.058  12.793  13.926 -1.2107 -0.4869 -0.3726
  239ETHOX  H1357297   8.989  12.919  14.031 -0.1816  1.4881 -0.3316
  239ETHOX   C257298   8.853  12.853  13.873 -0.2867  0.0261 -0.3794
  239ETHOX  H2157299   8.786  12.824  13.957  0.6730  0.7846  0.6669
  239ETHOX  H2357300   8.803  12.930  13.810 -0.8495 -1.1384 -1.4027
  240ETHOX   O157301   8.858  12.729  13.803 -0.0213  0.3284 -0.2114
  240ETHOX   C157302   8.727  12.677  13.785  0.3936 -0.4313  0.7364
  240ETHOX  H1157303   8.665  12.751  13.729  0.8502  0.0615  0.8715
  240ETHOX  H1357304   8.676  12.668  13.883 -1.2363 -0.7237 -0.1012
  240ETHOX   C257305   8.731  12.544  13.709 -0.2416  0.3005 -0.0920
  240ETHOX  H2157306   8.639  12.488  13.738 -0.3383  0.8976  0.7818
  240ETHOX  H2357307   8.824  12.500  13.750  0.6466  2.4891  0.3394
  241ETHOX   O157308   8.713  12.558  13.571  0.1649  0.2153 -0.2693
  241ETHOX   C157309   8.834  12.604  13.503  1.1764  0.2394  0.1358
  241ETHOX  H1157310   8.879  12.679  13.572 -0.5468  1.9825 -0.5318
  241ETHOX  H1357311   8.907  12.522  13.488  0.8305  0.3990 -3.0150
  241ETHOX   C257312   8.801  12.667  13.371  0.3707 -0.2202  0.9148
  241ETHOX  H2157313   8.896  12.705  13.327 -0.4969 -0.3754 -1.2340
  241ETHOX  H2357314   8.743  12.761  13.365  1.9231  0.6992 -2.5161
  242ETHOX   O157315   8.758  12.571  13.268 -0.9096  0.1330 -0.2855
  242ETHOX   C157316   8.712  12.644  13.151  0.0234  0.0031  0.6398
  242ETHOX  H1157317   8.801  12.689  13.102 -0.2254 -0.8256 -0.6434
  242ETHOX  H1357318   8.634  12.720  13.171  0.1326  0.4063 -0.3767
  242ETHOX   C257319   8.666  12.541  13.037 -0.1354  0.5515 -0.0669
  242ETHOX  H2157320   8.740  12.460  13.021 -1.3733 -0.0358 -3.7733
  242ETHOX  H2357321   8.665  12.592  12.938  0.4444  0.2045 -0.2521
  243ETHOX   O157322   8.533  12.486  13.058 -0.4553  0.6869 -0.3948
  243ETHOX   C157323   8.517  12.382  12.960 -0.2178  0.7044  0.3875
  243ETHOX  H1157324   8.552  12.410  12.858  0.4766  0.3856  0.5284
  243ETHOX  H1357325   8.588  12.300  12.984  0.2024  0.5052 -1.4000
  243ETHOX   C257326   8.384  12.314  12.958 -0.1676 -0.1573 -0.0496
  243ETHOX  H2157327   8.347  12.300  13.061  0.7029 -0.8779  0.1815
  243ETHOX  H2357328   8.404  12.209  12.926 -1.6075  0.1647 -2.2079
  244ETHOX   O157329   8.291  12.375  12.871 -0.1209 -0.2195  0.3200
  244ETHOX   C157330   8.185  12.279  12.835  0.9293  0.6493 -0.3832
  244ETHOX  H1157331   8.136  12.263  12.934 -0.3539 -1.6202 -1.3161
  244ETHOX  H1357332   8.244  12.195  12.794  1.7983  0.5355  1.0347
  244ETHOX   C257333   8.100  12.333  12.718  0.0168  0.5886  0.2335
  244ETHOX  H2157334   8.027  12.259  12.677  2.0389 -0.6782 -1.2872
  244ETHOX  H2357335   8.170  12.348  12.634 -1.4879  2.8994 -0.7135
  245ETHOX   O157336   8.025  12.452  12.740  0.3979 -0.3048  0.0384
  245ETHOX   C157337   7.950  12.488  12.628  0.4096 -0.1147 -0.5436
  245ETHOX  H1157338   8.007  12.535  12.545  1.2960  0.9477  0.6324
  245ETHOX  H1357339   7.900  12.393  12.598  0.1708 -0.8780  2.0102
  245ETHOX   C257340   7.832  12.579  12.672 -0.3816 -0.5027 -0.2899
  245ETHOX  H2157341   7.864  12.678  12.710 -0.3560 -0.7409  0.3383
  245ETHOX  H2357342   7.766  12.528  12.746 -1.1025 -0.7467 -1.0831
  246ETHOX   O157343   7.750  12.592  12.553  0.6543 -0.1461  0.3677
  246ETHOX   C157344   7.653  12.695  12.563 -0.2062  1.1774  0.4810
  246ETHOX  H1157345   7.704  12.794  12.571 -0.1736  1.1715  0.3377
  246ETHOX  H1357346   7.593  12.678  12.655 -2.8932  1.7451 -1.0754
  246ETHOX   C257347   7.559  12.695  12.449 -0.3192  0.9364  0.3311
  246ETHOX  H2157348   7.475  12.764  12.469 -0.1565  1.1223  0.3741
  246ETHOX  H2357349   7.507  12.598  12.438 -1.3036  1.6725 -2.4877
  247ETHOX   O157350   7.639  12.720  12.334  0.0136 -0.1777  0.4337
  247ETHOX   C157351   7.569  12.698  12.215 -0.4677  0.9779 -0.5087
  247ETHOX  H1157352   7.520  12.599  12.219 -3.9366  2.5733  0.4306
  247ETHOX  H1357353   7.477  12.760  12.211 -2.8790 -2.1250  1.7196
  247ETHOX   C257354   7.650  12.712  12.082 -0.6061 -0.1628 -0.8700
  247ETHOX  H2157355   7.749  12.665  12.099 -0.8046 -0.0030  0.9560
  247ETHOX  H2357356   7.603  12.668  11.992  1.1102 -1.7033 -1.0654
  248ETHOX   O157357   7.673  12.850  12.056  0.0440 -0.0729 -0.2254
  248ETHOX   C157358   7.742  12.868  11.933 -0.0989  0.5430  0.1900
  248ETHOX  H1157359   7.848  12.836  11.946  0.4046  1.3435 -1.6620
  248ETHOX  H1357360   7.711  12.801  11.851  0.7051  0.0092  0.3146
  248ETHOX   C257361   7.734  13.013  11.896 -0.5869  0.4913 -0.4822
  248ETHOX  H2157362   7.818  13.047  11.832 -1.0356  1.6368 -0.4840
  248ETHOX  H2357363   7.745  13.065  11.994  2.4127 -0.0641 -0.4169
  249ETHOX   O157364   7.613  13.064  11.843 -0.2531 -0.2368 -0.5547
  249ETHOX   C157365   7.598  13.039  11.704  0.5493 -0.0404  0.3857
  249ETHOX  H1157366   7.629  13.128  11.646 -0.5391 -0.5579 -1.0415
  249ETHOX  H1357367   7.665  12.954  11.680  1.3840  0.2044  1.7271
  249ETHOX   C257368   7.454  13.006  11.671  0.0185 -0.1043  0.1550
  249ETHOX  H2157369   7.452  13.023  11.562 -0.0803 -0.8114  0.0427
  249ETHOX  H2357370   7.387  13.086  11.711  0.1882  0.4460 -0.6496
  250ETHOX   O157371   7.422  12.875  11.709 -0.3007 -0.1001  0.8174
  250ETHOX   C157372   7.287  12.850  11.675  0.7189 -0.3628  0.6150
  250ETHOX  H1157373   7.232  12.946  11.666  1.2710 -0.1649 -0.9122
  250ETHOX  H1357374   7.281  12.799  11.577 -1.0625 -0.9608  1.0030
  250ETHOX   C257375   7.236  12.762  11.783  0.0396  0.5357  0.2420
  250ETHOX  H2157376   7.126  12.752  11.768 -0.0572  2.6435 -0.6898
  250ETHOX  H2357377   7.254  12.820  11.876  0.5698  0.8949 -0.0813
  251ETHOX   O157378   7.296  12.634  11.783 -0.0694  0.1966 -0.3596
  251ETHOX   C157379   7.264  12.559  11.899 -1.0937 -0.0415 -1.2862
  251ETHOX  H1157380   7.155  12.542  11.905 -1.3004  1.2630 -1.0933
  251ETHOX  H1357381   7.303  12.608  11.990  0.7919  0.6283 -2.3975
  251ETHOX   C257382   7.323  12.415  11.893 -0.0075  0.1689 -0.5192
  251ETHOX  H2157383   7.301  12.358  11.986 -0.3032 -1.5232 -1.5852
  251ETHOX  H2357384   7.433  12.415  11.881  0.0780  0.6158  0.1499
  252ETHOX   O157385   7.279  12.338  11.784  0.1055 -0.1698  0.1551
  252ETHOX   C157386   7.359  12.218  11.762  0.6801  0.3273  0.7216
  252ETHOX  H1157387   7.316  12.178  11.667 -2.3804  0.2264  2.0468
  252ETHOX  H1357388   7.468  12.231  11.744  0.8304 -0.1688  1.2605
  252ETHOX   C257389   7.347  12.106  11.864  0.3837 -0.3055 -0.2785
  252ETHOX  H2157390   7.396  12.147  11.955  2.8868  1.8623 -2.4384
  252ETHOX  H2357391   7.412  12.023  11.828 -1.1974 -2.1570  0.9057
  253ETHOX   O157392   7.226  12.041  11.897  0.1238  0.0434  0.2442
  253ETHOX   C157393   7.195  11.938  11.803  0.2912  0.2305 -0.2829
  253ETHOX  H1157394   7.226  11.971  11.701  0.3972 -0.1878 -0.3906
  253ETHOX  H1357395   7.085  11.924  11.795  0.6429 -2.3622 -2.1295
  253ETHOX   C257396   7.253  11.797  11.822  0.6090 -0.1672  0.3057
  253ETHOX  H2157397   7.364  11.791  11.820  0.5993 -0.9199  1.2850
  253ETHOX  H2357398   7.215  11.736  11.737 -0.5430  1.2357 -0.2309
  254ETHOX   O157399   7.203  11.733  11.943 -0.3166  0.0197 -0.0355
  254ETHOX   C157400   7.256  11.597  11.943  1.1357  1.0528 -0.1378
  254ETHOX  H1157401   7.259  11.564  11.837 -3.9554  3.7002 -1.4168
  254ETHOX  H1357402   7.351  11.597  12.000  0.3430  0.2822  1.2361
  254ETHOX   C257403   7.172  11.486  12.021  0.2119 -0.3869  0.7509
  254ETHOX  H2157404   7.111  11.534  12.100  0.9446  1.6840  0.1206
  254ETHOX  H2357405   7.243  11.418  12.074  0.8262  0.7478  1.4108
  255ETHOX   O157406   7.090  11.407  11.935 -0.2555  0.0692  0.3950
  255ETHOX   C157407   7.055  11.282  11.998  1.0836 -0.0582 -0.1726
  255ETHOX  H1157408   7.013  11.295  12.100 -0.4360  1.8263 -0.9690
  255ETHOX  H1357409   7.150  11.226  12.006  1.0178 -0.2854 -0.8834
  255ETHOX   C257410   6.953  11.210  11.912  0.6325  0.2808  0.4479
  255ETHOX  H2157411   6.955  11.101  11.937 -2.0367  0.1827  0.4567
  255ETHOX  H2357412   6.982  11.224  11.806  0.3513  2.3984  0.6083
  256ETHOX   O157413   6.820  11.255  11.943 -0.2450 -0.7317 -0.3836
  256ETHOX   C157414   6.717  11.185  11.873 -0.5354 -0.1977  0.1924
  256ETHOX  H1157415   6.744  11.172  11.766  0.4873 -0.9542  0.5186
  256ETHOX  H1357416   6.705  11.083  11.916 -2.7787 -0.3456 -0.6455
  256ETHOX   C257417   6.586  11.263  11.894  0.2152 -0.1723  1.1920
  256ETHOX  H2157418   6.585  11.308  11.996  0.0332  0.8904  0.7429
  256ETHOX  H2357419   6.500  11.199  11.868  1.2695 -1.6467  1.2394
  257ETHOX   O157420   6.570  11.372  11.797 -0.1387  0.0197  0.3050
  257ETHOX   C157421   6.431  11.414  11.798  0.1726  0.3766 -0.1083
  257ETHOX  H1157422   6.418  11.461  11.899  0.0475 -1.8582  0.9694
  257ETHOX  H1357423   6.362  11.328  11.788 -0.7410  1.2170 -1.2919
  257ETHOX   C257424   6.398  11.517  11.690  0.1268  0.0727  0.3428
  257ETHOX  H2157425   6.475  11.597  11.684  0.6071 -0.4475 -0.7524
  257ETHOX  H2357426   6.299  11.557  11.723 -0.1651 -1.2280  1.0963
  258ETHOX   O157427   6.359  11.455  11.571  0.3842 -0.2991  0.1072
  258ETHOX   C157428   6.288  11.543  11.484  0.2374  0.3862  1.1853
  258ETHOX  H1157429   6.249  11.469  11.411  0.9476  0.5616  0.6094
  258ETHOX  H1357430   6.206  11.601  11.530 -1.6874 -0.2236 -1.2669
  258ETHOX   C257431   6.385  11.631  11.401  0.3462  0.1229 -0.6422
  258ETHOX  H2157432   6.490  11.598  11.421  0.4134 -1.1118 -2.7991
  258ETHOX  H2357433   6.368  11.732  11.443  1.0035  1.2124 -2.8980
  259ETHOX   O157434   6.354  11.636  11.260 -0.2623 -0.1137  0.3410
  259ETHOX   C157435   6.455  11.689  11.179  0.3726 -0.3658 -0.0015
  259ETHOX  H1157436   6.463  11.798  11.200  0.3189 -0.5464  1.0102
  259ETHOX  H1357437   6.551  11.635  11.195 -0.7050 -2.2600  0.3188
  259ETHOX   C257438   6.422  11.674  11.031 -0.9328 -1.2185 -0.2190
  259ETHOX  H2157439   6.411  11.565  11.014 -2.1071 -1.3497  1.1664
  259ETHOX  H2357440   6.509  11.716  10.977 -1.6019  1.2144  0.4780
  260ETHOX   O157441   6.313  11.754  10.994  0.4200 -0.5799  0.3570
  260ETHOX   C157442   6.256  11.702  10.876  0.1109 -0.3248  0.5286
  260ETHOX  H1157443   6.332  11.702  10.795  0.1482 -0.4990  0.5618
  260ETHOX  H1357444   6.226  11.595  10.887  0.0517 -1.0762 -4.6473
  260ETHOX   C257445   6.134  11.786  10.814 -0.4586 -0.6446  0.5465
  260ETHOX  H2157446   6.091  11.738  10.724  0.1519 -0.8034  0.3320
  260ETHOX  H2357447   6.173  11.883  10.776 -0.9047 -0.3425  0.8604
  261ETHOX   O157448   6.027  11.813  10.905 -0.3675  0.5712  0.1107
  261ETHOX   C157449   5.941  11.911  10.845  0.5090  0.2692 -0.6791
  261ETHOX  H1157450   5.985  11.994  10.786  0.5914 -0.0233 -1.0347
  261ETHOX  H1357451   5.873  11.863  10.772  1.1040  0.2437 -1.2249
  261ETHOX   C257452   5.856  11.964  10.963 -0.2039  0.5234  0.4307
  261ETHOX  H2157453   5.824  11.886  11.035  3.2404 -1.5725 -0.0664
  261ETHOX  H2357454   5.766  12.016  10.923  1.0254  2.5024  0.0948
  262ETHOX   O157455   5.935  12.059  11.026 -0.0210  0.0797  0.4555
  262ETHOX   C157456   5.854  12.158  11.088 -0.4033  0.3035 -0.2590
  262ETHOX  H1157457   5.772  12.130  11.158  0.3210  0.7499  0.7983
  262ETHOX  H1357458   5.818  12.213  10.998 -1.5947 -2.6557 -1.7191
  262ETHOX   C257459   5.934  12.260  11.167 -0.0255 -0.3793  0.2390
  262ETHOX  H2157460   5.873  12.354  11.165 -1.0744 -0.9995  1.7171
  262ETHOX  H2357461   6.035  12.276  11.122  0.6210 -0.7103  1.5462
  263ETHOX   O157462   5.947  12.217  11.298 -0.2098  0.4390 -0.0551
  263ETHOX   C157463   6.004  12.316  11.380 -0.2860 -0.3229  0.2980
  263ETHOX  H1157464   5.940  12.407  11.382  1.1150  0.9944 -4.1368
  263ETHOX  H1357465   6.103  12.351  11.344  0.5170  0.4982  3.0281
  263ETHOX   C257466   6.042  12.254  11.511 -0.3922  0.9750  0.4345
  263ETHOX  H2157467   6.116  12.319  11.562 -0.3332  0.0668  1.5352
  263ETHOX  H2357468   6.089  12.156  11.485 -1.8731 -0.7739  3.7584
  264ETHOX   O157469   5.934  12.221  11.602  0.5047 -0.1703 -0.0836
  264ETHOX   C157470   5.990  12.186  11.726 -0.2586  0.0339 -0.3932
  264ETHOX  H1157471   6.048  12.275  11.759  1.0615 -0.2409 -1.8302
  264ETHOX  H1357472   6.064  12.104  11.720  0.7356  0.8394  0.3112
  264ETHOX   C257473   5.897  12.140  11.840  0.3098  0.0176 -0.6991
  264ETHOX  H2157474   5.822  12.219  11.862 -2.1505 -2.0049 -1.2397
  264ETHOX  H2357475   5.963  12.139  11.929 -0.3475 -0.9775 -0.1924
  265ETHOX   O157476   5.821  12.022  11.831 -0.3029 -0.4205  0.2297
  265ETHOX   C157477   5.693  12.038  11.765  0.0225 -0.5316  0.4437
  265ETHOX  H1157478   5.626  12.081  11.842 -1.6959 -1.8219 -0.2383
  265ETHOX  H1357479   5.711  12.105  11.678 -2.5173 -0.8438 -0.4157
  265ETHOX   C257480   5.635  11.904  11.714 -0.0714 -0.3893  0.0229
  265ETHOX  H2157481   5.705  11.859  11.640  1.0595  1.3792 -0.0444
  265ETHOX  H2357482   5.543  11.931  11.658  0.4297 -0.6192 -0.9437
  265ETHOX   OZ57483   5.618  11.820  11.826 -0.1392 -0.4079  0.0608
  265ETHOX  HZ157484   5.677  11.744  11.824 -1.5751 -1.5980  0.5518
    1ETHOX   O157485  13.008  11.294  17.408  0.2004 -0.2416 -0.5078
    1ETHOX  HO157486  12.926  11.246  17.393 -0.4139  0.0544  1.5745
    1ETHOX   C157487  13.101  11.251  17.308  0.3073 -0.1616 -0.3453
    1ETHOX  H1157488  13.103  11.140  17.305  1.7226 -0.2238  1.4031
    1ETHOX  H1357489  13.191  11.299  17.353  0.9772 -2.8829  1.4715
    1ETHOX   C257490  13.063  11.321  17.182  0.1941  0.0829  0.3259
    1ETHOX  H2157491  13.146  11.289  17.115 -1.1451 -2.0263 -0.4463
    1ETHOX  H2357492  13.055  11.431  17.188 -2.6317 -0.0480  0.2880
    2ETHOX   O157493  12.945  11.272  17.117 -0.2471  0.6714  0.1335
    2ETHOX   C157494  12.953  11.277  16.975 -0.3888  0.4549  0.1470
    2ETHOX  H1157495  13.033  11.207  16.942 -0.6273 -0.1462  0.8244
    2ETHOX  H1357496  12.858  11.236  16.934 -0.5256  0.0993  0.8186
    2ETHOX   C257497  12.969  11.420  16.921  0.2664 -0.1523 -0.2577
    2ETHOX  H2157498  12.967  11.429  16.810 -1.4230 -2.3403 -0.4649
    2ETHOX  H2357499  13.063  11.465  16.959 -0.6975  0.8538  1.0199
    3ETHOX   O157500  12.867  11.510  16.962  0.3069  0.7296  0.8258
    3ETHOX   C157501  12.894  11.650  16.923 -0.4176  0.3182 -0.5651
    3ETHOX  H1157502  13.002  11.668  16.910 -0.4653  0.9860 -0.1275
    3ETHOX  H1357503  12.860  11.700  17.017  0.1021  0.2129 -0.3196
    3ETHOX   C257504  12.814  11.694  16.802 -0.3003 -0.0567 -0.4972
    3ETHOX  H2157505  12.846  11.626  16.721  0.3242 -0.6803  0.2504
    3ETHOX  H2357506  12.846  11.800  16.797 -2.1859  0.8509  3.0172
    4ETHOX   O157507  12.667  11.689  16.816 -0.0945  0.0052  0.3750
    4ETHOX   C157508  12.612  11.772  16.915  0.3583  0.2373  0.6342
    4ETHOX  H1157509  12.666  11.750  17.010 -0.4831  0.8984  1.2820
    4ETHOX  H1357510  12.624  11.879  16.886  1.0421 -0.1527 -0.5897
    4ETHOX   C257511  12.463  11.729  16.933 -0.3833 -0.1219 -0.3672
    4ETHOX  H2157512  12.409  11.756  16.840  0.2017  0.8881 -0.4345
    4ETHOX  H2357513  12.427  11.784  17.022 -0.1336  1.1661 -1.0333
    5ETHOX   O157514  12.434  11.594  16.964  0.2226  0.0976  0.6675
    5ETHOX   C157515  12.302  11.553  16.930 -0.5027 -0.3891 -0.1729
    5ETHOX  H1157516  12.236  11.621  16.987  0.5337 -0.2153  0.8582
    5ETHOX  H1357517  12.296  11.560  16.819 -0.7291  0.1298 -0.1278
    5ETHOX   C257518  12.258  11.411  16.966 -0.5603  0.0973 -0.1456
    5ETHOX  H2157519  12.344  11.348  16.933 -1.9521 -2.1762  0.3061
    5ETHOX  H2357520  12.163  11.385  16.915  1.1435  0.4316 -3.8001
    6ETHOX   O157521  12.262  11.410  17.104 -0.4764 -0.1459  0.3031
    6ETHOX   C157522  12.226  11.289  17.165 -0.1664 -0.0450  0.2087
    6ETHOX  H1157523  12.195  11.211  17.092  0.1254 -0.4374  0.4994
    6ETHOX  H1357524  12.310  11.240  17.217  0.7053 -1.2018 -2.1462
    6ETHOX   C257525  12.117  11.322  17.271 -0.2818  0.1251  0.2650
    6ETHOX  H2157526  12.157  11.404  17.334 -1.1048  0.9148 -0.2165
    6ETHOX  H2357527  12.098  11.223  17.318  1.0678 -0.5854 -0.6206
    7ETHOX   O157528  11.999  11.362  17.209 -0.3294 -0.3682 -0.2539
    7ETHOX   C157529  11.899  11.409  17.302  0.1369  0.8032  0.1941
    7ETHOX  H1157530  11.878  11.332  17.380 -2.2980  0.1923 -0.9708
    7ETHOX  H1357531  11.944  11.497  17.352 -1.4705  1.2685  0.8986
    7ETHOX   C257532  11.772  11.442  17.226 -0.9084  0.2632 -0.7310
    7ETHOX  H2157533  11.799  11.488  17.129  0.6528  1.7023  0.3171
    7ETHOX  H2357534  11.717  11.519  17.285 -0.3190 -0.0803  0.2914
    8ETHOX   O157535  11.682  11.333  17.208  0.1961 -0.3917 -0.4061
    8ETHOX   C157536  11.555  11.379  17.157  0.0127 -0.1917  0.0845
    8ETHOX  H1157537  11.564  11.392  17.047  1.0696  1.1166  0.2976
    8ETHOX  H1357538  11.513  11.466  17.213 -2.4232 -1.6735  0.7134
    8ETHOX   C257539  11.451  11.260  17.157  1.3302 -0.1113 -0.4135
    8ETHOX  H2157540  11.353  11.306  17.130  0.2641 -0.6326  2.2640
    8ETHOX  H2357541  11.440  11.226  17.262  0.4054 -0.8626 -0.7391
    9ETHOX   O157542  11.481  11.166  17.066  0.0698  0.4554  0.5886
    9ETHOX   C157543  11.397  11.055  17.052  0.5938 -0.8207 -0.6418
    9ETHOX  H1157544  11.373  11.020  17.154  0.8758  0.4590 -0.1143
    9ETHOX  H1357545  11.300  11.085  17.006 -0.3984 -1.7092  0.8254
    9ETHOX   C257546  11.458  10.942  16.969 -0.6930 -0.0381 -0.2740
    9ETHOX  H2157547  11.398  10.854  16.999 -0.8743 -0.2892 -1.3338
    9ETHOX  H2357548  11.565  10.943  16.998 -0.8292  2.0163  0.2539
   10ETHOX   O157549  11.448  10.961  16.829  0.0449 -0.2827  0.2493
   10ETHOX   C157550  11.513  10.856  16.754  0.2633  0.8850 -0.3747
   10ETHOX  H1157551  11.440  10.773  16.741  1.8824 -0.4957 -0.9124
   10ETHOX  H1357552  11.606  10.832  16.809 -0.5140  2.1324  1.5975
   10ETHOX   C257553  11.547  10.909  16.618  0.9932 -0.1092  0.2652
   10ETHOX  H2157554  11.585  10.824  16.558  0.4390  1.2190 -2.0984
   10ETHOX  H2357555  11.623  10.986  16.644  0.4278  0.3736  0.5167
   11ETHOX   O157556  11.425  10.945  16.547  0.3705  0.5158 -0.8508
   11ETHOX   C157557  11.450  10.956  16.413  0.2676  0.1869 -0.0013
   11ETHOX  H1157558  11.477  10.855  16.375 -3.2506 -0.7598 -0.2730
   11ETHOX  H1357559  11.353  10.979  16.364  0.8486 -1.3838 -2.0377
   11ETHOX   C257560  11.551  11.064  16.381  0.3855 -0.4015  0.1106
   11ETHOX  H2157561  11.542  11.105  16.278 -0.8726 -2.1189 -0.4959
   11ETHOX  H2357562  11.526  11.148  16.449  1.2804 -0.3263  0.3648
   12ETHOX   O157563  11.694  11.037  16.389  0.3052  0.1642 -0.2468
   12ETHOX   C157564  11.731  10.945  16.284 -0.2726  0.2308  0.4912
   12ETHOX  H1157565  11.725  11.001  16.188 -3.7578  0.3417  0.6530
   12ETHOX  H1357566  11.655  10.865  16.275  0.2797 -0.0861 -2.1331
   12ETHOX   C257567  11.876  10.890  16.306 -0.4119 -0.2954  0.3090
   12ETHOX  H2157568  11.893  10.796  16.250 -0.3549  1.9137 -3.7273
   12ETHOX  H2357569  11.905  10.870  16.412  3.6050  2.8219  0.0484
   13ETHOX   O157570  11.971  10.980  16.243 -0.0371 -0.0477 -0.3287
   13ETHOX   C157571  12.002  11.090  16.331  0.1524 -0.2947  0.1618
   13ETHOX  H1157572  11.904  11.128  16.368 -1.1496 -0.7565 -2.5433
   13ETHOX  H1357573  12.076  11.059  16.408  1.2067 -0.6827 -0.9832
   13ETHOX   C257574  12.058  11.206  16.243  0.2396 -0.0764 -0.0402
   13ETHOX  H2157575  12.065  11.297  16.305  0.1811  0.7956 -1.2739
   13ETHOX  H2357576  11.986  11.237  16.164  0.6203 -1.3845 -0.9414
   14ETHOX   O157577  12.194  11.179  16.200  0.7687  0.4217 -0.1612
   14ETHOX   C157578  12.194  11.150  16.062 -0.2732  0.0139  0.4516
   14ETHOX  H1157579  12.122  11.206  15.999 -0.6898  1.2347  1.9397
   14ETHOX  H1357580  12.152  11.048  16.058  0.1609 -0.2316  1.6933
   14ETHOX   C257581  12.326  11.162  15.994  0.6005 -0.2186  0.4831
   14ETHOX  H2157582  12.386  11.245  16.037  1.0489 -0.8583  1.1254
   14ETHOX  H2357583  12.318  11.180  15.885  0.5645  0.3902  0.5876
   15ETHOX   O157584  12.397  11.038  16.009 -0.1828  0.2459  0.3670
   15ETHOX   C157585  12.442  11.017  16.142 -1.0008  0.3599 -0.5258
   15ETHOX  H1157586  12.504  11.103  16.175  1.4118 -1.2040 -0.7466
   15ETHOX  H1357587  12.348  11.005  16.199 -0.4906  0.3618  0.3333
   15ETHOX   C257588  12.523  10.890  16.156  1.2126 -0.0665 -0.2357
   15ETHOX  H2157589  12.510  10.856  16.260  0.6071 -0.2146 -0.3571
   15ETHOX  H2357590  12.473  10.819  16.087 -1.6189 -0.1474  1.7537
   16ETHOX   O157591  12.664  10.911  16.131  0.3978  0.7565 -0.3770
   16ETHOX   C157592  12.720  10.783  16.105  0.2567  0.5488  0.3645
   16ETHOX  H1157593  12.829  10.798  16.116  0.3173  2.2552 -1.8553
   16ETHOX  H1357594  12.691  10.707  16.180 -1.5129  0.3749 -0.4410
   16ETHOX   C257595  12.697  10.723  15.966 -0.5632 -0.0627  0.4350
   16ETHOX  H2157596  12.754  10.627  15.963 -0.5540 -0.0876  1.3166
   16ETHOX  H2357597  12.737  10.800  15.896  1.7987  0.5447  2.3146
   17ETHOX   O157598  12.565  10.677  15.924 -0.4957 -0.2282  0.1201
   17ETHOX   C157599  12.584  10.595  15.810  0.5882  0.2226 -0.7727
   17ETHOX  H1157600  12.655  10.644  15.740 -0.2803  1.5578 -0.7514
   17ETHOX  H1357601  12.629  10.498  15.841 -1.1479 -0.1466  0.7045
   17ETHOX   C257602  12.455  10.572  15.736 -1.0354  0.1909  0.0606
   17ETHOX  H2157603  12.490  10.545  15.634 -1.2263 -1.2569  0.3541
   17ETHOX  H2357604  12.399  10.668  15.727 -1.8703 -0.3870 -1.1819
   18ETHOX   O157605  12.381  10.464  15.779 -0.4925  0.3230  0.2918
   18ETHOX   C157606  12.265  10.449  15.695  0.1040  0.1345  0.1642
   18ETHOX  H1157607  12.207  10.543  15.712 -0.5928 -0.2415 -0.0861
   18ETHOX  H1357608  12.301  10.445  15.590  0.7961 -0.7048  0.4336
   18ETHOX   C257609  12.178  10.327  15.730 -0.0806 -0.4609  0.0246
   18ETHOX  H2157610  12.089  10.332  15.663  0.4444  2.5786 -0.6204
   18ETHOX  H2357611  12.149  10.326  15.837  1.6373  0.9949  0.5533
   19ETHOX   O157612  12.251  10.213  15.685  0.6687 -0.2719  0.0624
   19ETHOX   C157613  12.193  10.090  15.734  0.0077  0.8554 -0.2485
   19ETHOX  H1157614  12.088  10.066  15.704 -0.2068  1.1476  0.2557
   19ETHOX  H1357615  12.192  10.087  15.845 -2.6095  1.0283 -0.2129
   19ETHOX   C257616  12.272   9.968  15.686  0.0893 -0.0438 -0.0777
   19ETHOX  H2157617  12.240   9.873  15.735 -0.6490 -0.0184 -0.4995
   19ETHOX  H2357618  12.379   9.987  15.711  0.3653 -2.9676  1.5395
   20ETHOX   O157619  12.257   9.941  15.544  0.4623 -0.0226  0.5494
   20ETHOX   C157620  12.340   9.835  15.500 -0.5715 -0.0525 -0.3092
   20ETHOX  H1157621  12.441   9.882  15.506 -1.6886  2.2712  2.7419
   20ETHOX  H1357622  12.339   9.753  15.574  1.4217  0.8734  0.8258
   20ETHOX   C257623  12.319   9.798  15.353  0.5704 -0.5567 -0.2411
   20ETHOX  H2157624  12.409   9.756  15.304  0.5969 -0.0924 -0.5956
   20ETHOX  H2357625  12.297   9.900  15.314  0.0726  0.2188  1.9427
   21ETHOX   O157626  12.199   9.720  15.340  0.3056  0.1809  0.4035
   21ETHOX   C157627  12.235   9.580  15.343 -0.2278 -0.2034 -0.3681
   21ETHOX  H1157628  12.312   9.570  15.422  0.8975  0.4836 -1.3315
   21ETHOX  H1357629  12.284   9.551  15.247  0.7116 -0.7501  0.2645
   21ETHOX   C257630  12.120   9.484  15.373  1.2038  0.0025  0.6726
   21ETHOX  H2157631  12.069   9.498  15.471 -2.6703 -0.0468 -1.1410
   21ETHOX  H2357632  12.163   9.382  15.360  2.0526  0.5175 -0.7351
   22ETHOX   O157633  12.020   9.506  15.270 -0.1008  0.2339 -0.1548
   22ETHOX   C157634  11.900   9.438  15.295  0.2515  0.1445  0.3607
   22ETHOX  H1157635  11.851   9.470  15.390 -1.1083 -0.8195  0.0287
   22ETHOX  H1357636  11.837   9.460  15.206  2.2043 -1.7955 -1.6307
   22ETHOX   C257637  11.911   9.282  15.300 -0.2397 -0.0493  0.0446
   22ETHOX  H2157638  11.983   9.238  15.227 -0.8116  0.3521 -0.7735
   22ETHOX  H2357639  11.957   9.260  15.399 -0.0981  0.3190  0.0612
   23ETHOX   O157640  11.785   9.213  15.293  0.3606 -0.1936  0.6413
   23ETHOX   C157641  11.794   9.066  15.266  0.1954  0.7665 -0.4463
   23ETHOX  H1157642  11.865   9.017  15.335 -0.9019  0.9141  0.8257
   23ETHOX  H1357643  11.824   9.051  15.160  2.3430 -0.7341  0.3154
   23ETHOX   C257644  11.647   9.018  15.286 -0.6564  0.1062 -0.0505
   23ETHOX  H2157645  11.632   8.915  15.248 -0.4928 -0.1401  0.5361
   23ETHOX  H2357646  11.576   9.093  15.246 -0.1585  0.9141  0.5391
   24ETHOX   O157647  11.622   9.010  15.422 -0.5507 -0.3052  0.0810
   24ETHOX   C157648  11.481   9.011  15.453 -0.1178 -0.0708  0.0945
   24ETHOX  H1157649  11.431   9.106  15.426  0.5271  0.1014 -0.5052
   24ETHOX  H1357650  11.430   8.936  15.389 -0.7831  1.3262 -1.0656
   24ETHOX   C257651  11.450   8.969  15.596 -0.0774 -0.3542 -0.0434
   24ETHOX  H2157652  11.521   8.890  15.629  0.1965 -0.3404 -0.5841
   24ETHOX  H2357653  11.348   8.925  15.598 -0.2872  0.1466  0.4306
   25ETHOX   O157654  11.464   9.074  15.696 -0.3834  0.4904  0.4367
   25ETHOX   C157655  11.395   9.050  15.816  0.2576 -0.5142 -0.7077
   25ETHOX  H1157656  11.448   8.973  15.874 -3.1795 -1.3875  1.6046
   25ETHOX  H1357657  11.288   9.019  15.808  0.6975 -2.1279 -0.6636
   25ETHOX   C257658  11.400   9.176  15.912  0.5489  0.2224  0.0628
   25ETHOX  H2157659  11.505   9.211  15.906  1.8989 -3.0845  1.7120
   25ETHOX  H2357660  11.377   9.152  16.018 -1.1034  1.8118  0.1284
   26ETHOX   O157661  11.315   9.279  15.860  0.2641  0.1463 -0.5114
   26ETHOX   C157662  11.283   9.380  15.959  0.5180 -0.3953 -0.5520
   26ETHOX  H1157663  11.249   9.330  16.052  0.3172  0.7076 -0.0193
   26ETHOX  H1357664  11.379   9.430  15.985  0.9679 -0.2945 -2.3071
   26ETHOX   C257665  11.190   9.478  15.909  0.5341 -0.6230 -0.0071
   26ETHOX  H2157666  11.216   9.525  15.811  0.6789 -2.7562 -1.0357
   26ETHOX  H2357667  11.200   9.559  15.985 -1.3183 -0.0534 -0.3209
   27ETHOX   O157668  11.056   9.434  15.914  0.2147 -0.1251  0.4034
   27ETHOX   C157669  10.969   9.518  15.835 -0.0016  0.6248 -0.2118
   27ETHOX  H1157670  10.980   9.509  15.725 -1.0110  1.1139 -0.3615
   27ETHOX  H1357671  10.986   9.626  15.855 -1.8585  1.0127 -0.5124
   27ETHOX   C257672  10.821   9.486  15.867 -0.4303 -0.7689 -0.9016
   27ETHOX  H2157673  10.831   9.376  15.869 -0.4175 -0.7721  1.4109
   27ETHOX  H2357674  10.775   9.528  15.774 -0.6762  1.2343  0.0747
   28ETHOX   O157675  10.762   9.533  15.987 -0.0812  0.2141  0.1471
   28ETHOX   C157676  10.638   9.462  16.008 -0.1437 -0.3416 -0.7649
   28ETHOX  H1157677  10.576   9.477  15.918 -1.1450  0.3253  0.0072
   28ETHOX  H1357678  10.668   9.356  16.018  0.1268 -0.1008  1.8071
   28ETHOX   C257679  10.575   9.496  16.144 -0.2950 -0.4248  0.1399
   28ETHOX  H2157680  10.654   9.478  16.220  0.8548  2.3900 -0.2709
   28ETHOX  H2357681  10.487   9.431  16.165 -2.5882  2.7405  0.9959
   29ETHOX   O157682  10.533   9.632  16.149  0.1982  0.2106  0.1112
   29ETHOX   C157683  10.488   9.657  16.280  0.4428 -0.6789  0.0039
   29ETHOX  H1157684  10.569   9.669  16.355  0.2374 -1.6304  0.4017
   29ETHOX  H1357685  10.414   9.587  16.325  1.7989 -0.9918  1.8778
   29ETHOX   C257686  10.400   9.785  16.293  0.1682  0.0950  0.6302
   29ETHOX  H2157687  10.319   9.773  16.218 -0.3754 -0.2289  1.2606
   29ETHOX  H2357688  10.448   9.875  16.247 -0.6283 -0.2014 -0.8555
   30ETHOX   O157689  10.346   9.809  16.422  0.3846  0.4209  0.1302
   30ETHOX   C157690  10.269   9.924  16.433 -0.4867  0.2273  0.6262
   30ETHOX  H1157691  10.321  10.006  16.377 -0.0511 -0.5866 -0.1979
   30ETHOX  H1357692  10.179   9.907  16.370  0.9457 -0.7972 -1.2673
   30ETHOX   C257693  10.233   9.954  16.579  0.6255 -0.5532 -0.2039
   30ETHOX  H2157694  10.219   9.854  16.626 -2.8806 -0.2044 -0.2821
   30ETHOX  H2357695  10.134  10.003  16.574  1.7766  1.8788 -0.3914
   31ETHOX   O157696  10.333  10.041  16.633 -0.0766  0.3380  0.0074
   31ETHOX   C157697  10.317  10.064  16.775  0.0082 -0.5994 -0.6705
   31ETHOX  H1157698  10.212  10.081  16.806  0.0937 -1.6583  0.2841
   31ETHOX  H1357699  10.341   9.964  16.817 -0.8274 -0.8571 -0.7843
   31ETHOX   C257700  10.401  10.177  16.846 -0.4234 -0.5605  0.0870
   31ETHOX  H2157701  10.511  10.164  16.847 -0.0124  2.2451  0.4763
   31ETHOX  H2357702  10.376  10.180  16.954 -0.6341 -0.2321  0.0312
   32ETHOX   O157703  10.380  10.299  16.784  0.1520  0.1858  0.2202
   32ETHOX   C157704  10.435  10.417  16.848 -0.1638  0.1883  0.3695
   32ETHOX  H1157705  10.385  10.413  16.947 -0.1991  2.0100  0.4575
   32ETHOX  H1357706  10.542  10.405  16.874  0.3236 -0.8445 -1.8558
   32ETHOX   C257707  10.393  10.546  16.777  0.4106 -0.6889  0.0315
   32ETHOX  H2157708  10.432  10.551  16.673  0.1222 -1.5914 -0.1311
   32ETHOX  H2357709  10.423  10.632  16.840 -2.5740 -0.0491  0.6952
   33ETHOX   O157710  10.246  10.558  16.761 -0.1799  0.5985 -0.2090
   33ETHOX   C157711  10.175  10.565  16.883  0.4645 -0.6948 -0.5754
   33ETHOX  H1157712  10.152  10.464  16.924 -2.5874 -0.0517 -0.4461
   33ETHOX  H1357713  10.231  10.616  16.964 -1.0205 -0.6069  0.4287
   33ETHOX   C257714  10.045  10.639  16.858 -0.4140 -0.1053 -0.1641
   33ETHOX  H2157715  10.065  10.737  16.809  0.3497 -0.2194 -0.0868
   33ETHOX  H2357716  10.008  10.666  16.959 -0.2417  0.4905 -0.2576
   34ETHOX   O157717   9.948  10.563  16.782 -0.2138 -0.3753  0.1494
   34ETHOX   C157718   9.825  10.641  16.778 -0.3118 -0.3825  0.2069
   34ETHOX  H1157719   9.856  10.746  16.758 -0.8222 -0.4036 -0.7300
   34ETHOX  H1357720   9.767  10.628  16.871 -1.3989  1.5817 -0.1489
   34ETHOX   C257721   9.745  10.601  16.647 -0.1750  0.2706 -0.3640
   34ETHOX  H2157722   9.804  10.595  16.554  0.0966 -3.3666 -0.0641
   34ETHOX  H2357723   9.670  10.683  16.639 -1.5059 -0.9547 -0.8279
   35ETHOX   O157724   9.676  10.478  16.671 -0.0966  0.1915  0.5116
   35ETHOX   C157725   9.615  10.428  16.553 -0.5485 -0.5955 -0.2263
   35ETHOX  H1157726   9.562  10.514  16.507  1.8675  0.5048 -1.0704
   35ETHOX  H1357727   9.697  10.392  16.488  0.2135 -2.5375  1.6818
   35ETHOX   C257728   9.514  10.310  16.571 -0.7121  0.3080  0.2962
   35ETHOX  H2157729   9.565  10.226  16.621  3.4749  1.0409 -2.3031
   35ETHOX  H2357730   9.485  10.281  16.468 -1.0900  0.9856  0.2057
   36ETHOX   O157731   9.405  10.353  16.652  0.5859 -0.0243 -0.4739
   36ETHOX   C157732   9.311  10.248  16.680 -0.3009  0.0383 -0.4777
   36ETHOX  H1157733   9.358  10.149  16.693 -0.2295 -0.1287 -1.9163
   36ETHOX  H1357734   9.243  10.228  16.595 -0.5890  1.0617 -0.5095
   36ETHOX   C257735   9.219  10.282  16.800 -0.0056  0.7828  0.6747
   36ETHOX  H2157736   9.136  10.208  16.794 -0.2253  0.9861  1.1734
   36ETHOX  H2357737   9.182  10.386  16.786 -0.8441  0.3628 -0.3519
   37ETHOX   O157738   9.274  10.269  16.928  0.3101 -0.2239 -0.0949
   37ETHOX   C157739   9.199  10.350  17.020 -0.5203 -0.7626  1.1083
   37ETHOX  H1157740   9.250  10.449  17.023  0.3812 -1.2384  3.0531
   37ETHOX  H1357741   9.095  10.369  16.987  0.2872  1.8595 -0.1814
   37ETHOX   C257742   9.188  10.291  17.160  0.2328  0.6424 -0.2365
   37ETHOX  H2157743   9.132  10.361  17.225 -2.7180 -1.2763 -0.5386
   37ETHOX  H2357744   9.293  10.283  17.196  0.2945 -0.1512 -0.5623
   38ETHOX   O157745   9.132  10.162  17.167 -0.0430  0.6529  0.1107
   38ETHOX   C157746   9.101  10.128  17.304 -0.2394 -0.1978 -0.7729
   38ETHOX  H1157747   9.025  10.195  17.350 -0.4048 -0.1221 -1.1522
   38ETHOX  H1357748   9.189  10.115  17.372 -1.4196  0.0824  0.8741
   38ETHOX   C257749   9.044   9.989  17.303 -0.3324  0.5275  0.1844
   38ETHOX  H2157750   8.954   9.993  17.237  0.8545  1.8117 -1.4395
   38ETHOX  H2357751   9.016   9.956  17.406 -0.3693  1.6920  0.5606
   39ETHOX   O157752   9.138   9.896  17.260  0.0994 -0.3644 -0.2865
   39ETHOX   C157753   9.079   9.766  17.240  0.4278  0.2386 -0.5190
   39ETHOX  H1157754   9.036   9.738  17.338  1.4003 -1.7832 -0.6301
   39ETHOX  H1357755   8.993   9.765  17.170  2.6793  1.1982 -3.5108
   39ETHOX   C257756   9.180   9.652  17.201  0.2186  0.3956 -0.6007
   39ETHOX  H2157757   9.231   9.674  17.104 -1.1735  1.4384 -1.1261
   39ETHOX  H2357758   9.118   9.561  17.187  0.8296 -0.3704  1.3943
   40ETHOX   O157759   9.266   9.625  17.306  0.4153  0.4471 -0.3888
   40ETHOX   C157760   9.377   9.544  17.258 -0.1063  0.2404 -0.4211
   40ETHOX  H1157761   9.434   9.589  17.174 -1.1802 -0.2193 -1.4348
   40ETHOX  H1357762   9.350   9.449  17.205  0.1735  0.3290 -0.7311
   40ETHOX   C257763   9.476   9.507  17.373 -0.4707 -0.3292 -0.2524
   40ETHOX  H2157764   9.494   9.599  17.434  1.7705 -0.8461 -0.0299
   40ETHOX  H2357765   9.580   9.491  17.336  0.2635  1.8315  0.6829
   41ETHOX   O157766   9.438   9.395  17.459  1.1367  0.3386  0.1168
   41ETHOX   C157767   9.335   9.440  17.543 -0.1848 -0.3329 -0.2143
   41ETHOX  H1157768   9.381   9.523  17.600  1.1047 -2.1490  1.5355
   41ETHOX  H1357769   9.249   9.479  17.484  1.3712 -0.3549 -2.6472
   41ETHOX   C257770   9.302   9.327  17.630 -0.3886  0.3248  0.0629
   41ETHOX  H2157771   9.234   9.360  17.711  2.4631  1.1131  2.3146
   41ETHOX  H2357772   9.396   9.302  17.684 -0.2284 -0.1979 -0.4476
   42ETHOX   O157773   9.253   9.218  17.550 -0.2268 -0.5387 -0.0794
   42ETHOX   C157774   9.122   9.238  17.511  0.3832 -0.0486  0.4671
   42ETHOX  H1157775   9.067   9.269  17.603  1.8973  0.9628  1.0750
   42ETHOX  H1357776   9.116   9.317  17.433 -0.4061 -0.3406  0.2304
   42ETHOX   C257777   9.045   9.114  17.464  0.2662  0.0561  0.3372
   42ETHOX  H2157778   8.942   9.133  17.428  0.6781  1.2706 -0.2593
   42ETHOX  H2357779   9.047   9.031  17.538  0.1723  0.3839  0.7142
   43ETHOX   O157780   9.122   9.065  17.348 -0.1252 -0.5306 -0.1603
   43ETHOX   C157781   9.169   8.931  17.374  0.1399 -0.0265 -0.3114
   43ETHOX  H1157782   9.240   8.942  17.458  1.7917 -0.2238 -1.6323
   43ETHOX  H1357783   9.082   8.867  17.401  1.3355 -1.5023  0.1533
   43ETHOX   C257784   9.238   8.876  17.250  0.0798  0.3210 -0.0680
   43ETHOX  H2157785   9.168   8.865  17.165 -1.9287 -0.5982  1.6004
   43ETHOX  H2357786   9.270   8.770  17.266  0.0540  0.0291 -1.7928
   44ETHOX   O157787   9.352   8.949  17.202 -0.5315  0.1871 -0.3595
   44ETHOX   C157788   9.408   8.913  17.076 -0.6554 -0.6976 -0.5333
   44ETHOX  H1157789   9.450   8.812  17.096 -0.6982 -0.4257  1.0471
   44ETHOX  H1357790   9.343   8.903  16.986 -1.4677  0.4628 -0.1007
   44ETHOX   C257791   9.523   9.009  17.055 -0.3415 -0.1774  0.4666
   44ETHOX  H2157792   9.597   8.974  16.979  0.9571  3.1789  0.0099
   44ETHOX  H2357793   9.577   9.009  17.152 -2.2428 -2.1973  1.6192
   45ETHOX   O157794   9.474   9.139  17.013 -0.6947  0.1157 -0.4365
   45ETHOX   C157795   9.571   9.231  16.986 -0.7321  0.3317 -0.5201
   45ETHOX  H1157796   9.540   9.315  16.920 -0.2966  1.1819  0.3291
   45ETHOX  H1357797   9.644   9.174  16.925  2.1671 -0.7193  3.5296
   45ETHOX   C257798   9.634   9.288  17.116  0.0826  0.5375 -0.4382
   45ETHOX  H2157799   9.555   9.280  17.194  1.3821 -2.0302  0.7213
   45ETHOX  H2357800   9.679   9.389  17.116  2.5187 -0.4937 -0.3550
   46ETHOX   O157801   9.746   9.210  17.155  0.1321 -0.0494 -0.0540
   46ETHOX   C157802   9.792   9.252  17.285 -0.1627 -0.2932 -0.7789
   46ETHOX  H1157803   9.717   9.270  17.364  2.2341 -1.5285  1.9815
   46ETHOX  H1357804   9.851   9.166  17.323 -0.2755 -1.4413 -3.0339
   46ETHOX   C257805   9.898   9.371  17.289  0.0701 -0.2956 -0.0072
   46ETHOX  H2157806   9.901   9.413  17.392 -0.0768  0.9116 -0.4829
   46ETHOX  H2357807   9.867   9.453  17.221 -0.8684 -2.3853 -2.2110
   47ETHOX   O157808  10.023   9.328  17.249  0.6190 -0.9457  0.3363
   47ETHOX   C157809  10.130   9.408  17.310 -0.4435 -0.1820  0.1765
   47ETHOX  H1157810  10.219   9.346  17.288 -1.4653 -2.0621  1.0295
   47ETHOX  H1357811  10.122   9.405  17.421 -0.9128  3.8855  0.3829
   47ETHOX   C257812  10.134   9.548  17.248 -0.3040 -0.1517 -0.3235
   47ETHOX  H2157813  10.216   9.608  17.293 -0.7988  0.6231 -0.4362
   47ETHOX  H2357814  10.046   9.599  17.293  0.6898 -0.4260  2.0413
   48ETHOX   O157815  10.148   9.559  17.105 -0.3065 -0.3010 -0.3965
   48ETHOX   C157816  10.069   9.666  17.055  0.1187  0.1989  0.3209
   48ETHOX  H1157817   9.961   9.648  17.069 -0.2737  1.1646 -1.1910
   48ETHOX  H1357818  10.103   9.757  17.111 -2.2014  1.1540  0.2980
   48ETHOX   C257819  10.111   9.676  16.911  0.1133  0.1976 -0.3214
   48ETHOX  H2157820  10.079   9.774  16.868 -1.7960 -0.6717 -1.0020
   48ETHOX  H2357821  10.222   9.678  16.904  0.1439  2.7906 -0.2031
   49ETHOX   O157822  10.053   9.575  16.825  0.1547 -0.3773 -0.1093
   49ETHOX   C157823  10.127   9.567  16.705  0.2622 -0.1705 -0.5668
   49ETHOX  H1157824  10.234   9.568  16.733 -0.2350 -0.6754  1.5648
   49ETHOX  H1357825  10.093   9.644  16.633  0.3283  0.2954 -0.1095
   49ETHOX   C257826  10.104   9.434  16.623 -0.9236 -0.1556  0.1891
   49ETHOX  H2157827  10.100   9.454  16.514 -0.7675  1.4781  0.4701
   49ETHOX  H2357828  10.000   9.410  16.655 -0.9685 -0.9177 -0.4671
   50ETHOX   O157829  10.194   9.326  16.651  0.0320  0.6044  0.3479
   50ETHOX   C157830  10.160   9.212  16.570  0.8921  0.0017  0.4363
   50ETHOX  H1157831  10.055   9.180  16.587  0.8693 -0.3441 -0.3054
   50ETHOX  H1357832  10.153   9.246  16.465  0.2854 -1.2272  0.0570
   50ETHOX   C257833  10.258   9.094  16.592 -0.5744  0.7587  0.5049
   50ETHOX  H2157834  10.206   9.005  16.551  0.6681  0.4157 -0.3855
   50ETHOX  H2357835  10.271   9.080  16.701 -0.0803  0.1411  0.3690
   51ETHOX   O157836  10.385   9.090  16.531  0.2448  0.5420 -0.3003
   51ETHOX   C157837  10.382   9.087  16.389 -0.6683 -0.2505 -0.2220
   51ETHOX  H1157838  10.313   9.162  16.345  0.2031  1.2131  0.8240
   51ETHOX  H1357839  10.356   8.982  16.361 -1.9211 -0.6723  2.2763
   51ETHOX   C257840  10.519   9.127  16.320  0.4968 -0.5210  0.0140
   51ETHOX  H2157841  10.546   9.219  16.375 -0.8168 -0.1340  0.0553
   51ETHOX  H2357842  10.496   9.152  16.215  0.1706  0.2970  0.2765
   52ETHOX   O157843  10.630   9.038  16.324 -0.2742  0.3713  0.3920
   52ETHOX   C157844  10.677   8.990  16.199 -0.4013  0.3603  0.1658
   52ETHOX  H1157845  10.711   9.076  16.137 -1.1174  0.9154  0.5350
   52ETHOX  H1357846  10.766   8.931  16.230  0.0141  0.4616 -0.7701
   52ETHOX   C257847  10.593   8.892  16.115 -0.1897  0.0408  0.2932
   52ETHOX  H2157848  10.544   8.821  16.186 -0.1807 -1.8708 -1.5062
   52ETHOX  H2357849  10.654   8.832  16.044 -1.4362 -1.8157  0.6981
   53ETHOX   O157850  10.488   8.948  16.035 -0.1247 -0.0613 -0.0729
   53ETHOX   C157851  10.362   8.895  16.050  0.2597  0.6114 -0.1411
   53ETHOX  H1157852  10.366   8.788  16.078 -2.3393 -0.2230 -2.5136
   53ETHOX  H1357853  10.320   8.951  16.136 -1.3333  1.8202 -1.6147
   53ETHOX   C257854  10.271   8.911  15.923 -0.1843 -0.0258 -0.6640
   53ETHOX  H2157855  10.303   9.003  15.870  1.6737 -0.3144 -0.1231
   53ETHOX  H2357856  10.168   8.929  15.960 -0.7913  1.0465 -2.7621
   54ETHOX   O157857  10.287   8.808  15.830 -0.3526  0.1355  0.1639
   54ETHOX   C157858  10.217   8.825  15.705 -0.1783 -0.4367  0.8678
   54ETHOX  H1157859  10.111   8.793  15.710 -0.2300 -0.4386 -0.0507
   54ETHOX  H1357860  10.218   8.927  15.660 -2.5514 -0.6318  0.2606
   54ETHOX   C257861  10.272   8.737  15.594 -0.0916 -0.4219 -0.5211
   54ETHOX  H2157862  10.207   8.747  15.504 -0.5383  0.4973 -0.1147
   54ETHOX  H2357863  10.284   8.633  15.632  2.3733  0.6531  1.9764
   55ETHOX   O157864  10.400   8.785  15.562 -0.6058 -0.0672 -0.1247
   55ETHOX   C157865  10.433   8.757  15.423 -0.1085  0.3119 -0.6912
   55ETHOX  H1157866  10.427   8.649  15.397  3.0057 -0.6129  1.8538
   55ETHOX  H1357867  10.361   8.805  15.353  0.7313  1.3391 -0.8878
   55ETHOX   C257868  10.577   8.801  15.395 -0.4843 -0.0092 -0.2256
   55ETHOX  H2157869  10.599   8.805  15.286  0.3843  1.4220 -0.0129
   55ETHOX  H2357870  10.597   8.896  15.448 -0.4699 -2.0242  3.8361
   56ETHOX   O157871  10.667   8.698  15.445  1.0415  0.1255 -0.0714
   56ETHOX   C157872  10.798   8.734  15.467 -0.2888 -0.3558 -0.2240
   56ETHOX  H1157873  10.829   8.698  15.567 -0.7735  0.7925  0.3510
   56ETHOX  H1357874  10.822   8.842  15.468 -0.2854 -0.2578 -2.9459
   56ETHOX   C257875  10.895   8.668  15.365  0.4666 -0.0728 -0.3410
   56ETHOX  H2157876  10.872   8.560  15.352 -2.2085  0.5239 -1.4658
   56ETHOX  H2357877  11.000   8.683  15.396  1.5353  0.9531 -3.9211
   57ETHOX   O157878  10.896   8.737  15.246 -0.0467  0.6450  0.2794
   57ETHOX   C157879  10.989   8.675  15.150 -1.1074  0.0554 -0.6069
   57ETHOX  H1157880  11.095   8.686  15.183 -0.4074 -0.8484 -2.4100
   57ETHOX  H1357881  10.961   8.568  15.144  1.3375 -0.6153 -0.9854
   57ETHOX   C257882  10.988   8.734  15.008 -0.1854 -0.2718  0.0089
   57ETHOX  H2157883  10.884   8.744  14.969 -1.0473 -1.3705  1.8888
   57ETHOX  H2357884  11.050   8.667  14.945 -0.3238  0.1443 -0.5818
   58ETHOX   O157885  11.050   8.869  15.018  0.6027  0.9574  0.5807
   58ETHOX   C157886  11.070   8.923  14.890  0.0900 -0.4759  0.7825
   58ETHOX  H1157887  10.988   8.903  14.818  0.1645  1.5893  0.0667
   58ETHOX  H1357888  11.156   8.880  14.834 -0.3166  0.4944 -0.6414
   58ETHOX   C257889  11.086   9.073  14.893 -0.7819 -0.7211 -0.4581
   58ETHOX  H2157890  10.996   9.113  14.945 -0.7282  2.2324 -2.4236
   58ETHOX  H2357891  11.092   9.108  14.788  0.6040  1.8937  0.4015
   59ETHOX   O157892  11.206   9.110  14.956  0.3057  0.0292 -0.8775
   59ETHOX   C157893  11.210   9.256  14.972  0.5661 -1.0751  0.7581
   59ETHOX  H1157894  11.183   9.305  14.875  1.0287 -0.6018  0.8644
   59ETHOX  H1357895  11.137   9.307  15.038 -2.9046  0.2253 -3.5799
   59ETHOX   C257896  11.341   9.330  15.007  0.7917  0.1078  0.9101
   59ETHOX  H2157897  11.310   9.436  15.013  0.2235  0.0536 -0.7068
   59ETHOX  H2357898  11.414   9.304  14.927  0.7199  0.9008  0.5841
   60ETHOX   O157899  11.393   9.311  15.139  0.2319  0.4785 -0.9213
   60ETHOX   C157900  11.522   9.370  15.154  0.1525 -0.2652 -0.2315
   60ETHOX  H1157901  11.611   9.311  15.122 -0.0695 -0.6087 -0.2175
   60ETHOX  H1357902  11.530   9.393  15.262 -0.3993 -0.1142 -0.2192
   60ETHOX   C257903  11.535   9.516  15.109 -0.0536 -0.1781 -0.2780
   60ETHOX  H2157904  11.624   9.548  15.168 -0.8504  2.2207 -0.3047
   60ETHOX  H2357905  11.445   9.574  15.139  0.4178  0.3037  0.2348
   61ETHOX   O157906  11.552   9.514  14.966 -0.3745  0.5297 -0.1105
   61ETHOX   C157907  11.636   9.629  14.928 -0.0393  0.3521  0.5720
   61ETHOX  H1157908  11.595   9.720  14.977  0.4645  0.4512  0.8155
   61ETHOX  H1357909  11.740   9.612  14.962 -0.3698 -0.6139  1.1586
   61ETHOX   C257910  11.645   9.652  14.776  0.3211  0.2057 -0.2051
   61ETHOX  H2157911  11.678   9.556  14.731  1.4847  0.1368  0.7612
   61ETHOX  H2357912  11.721   9.728  14.750  1.3898 -1.4353 -2.1054
   62ETHOX   O157913  11.519   9.700  14.720  0.1901  0.0941 -0.5722
   62ETHOX   C157914  11.529   9.750  14.591  0.5232  0.2322  0.0185
   62ETHOX  H1157915  11.543   9.665  14.520  2.3071  0.5342 -0.0313
   62ETHOX  H1357916  11.614   9.821  14.595 -0.9026  1.9619  1.4325
   62ETHOX   C257917  11.409   9.825  14.534 -0.6024 -0.4639 -0.2227
   62ETHOX  H2157918  11.427   9.861  14.431 -1.8538  0.7882 -0.0394
   62ETHOX  H2357919  11.389   9.917  14.593 -0.5679  1.3863 -2.9357
   63ETHOX   O157920  11.298   9.736  14.526  0.0420 -0.5235 -0.2323
   63ETHOX   C157921  11.173   9.806  14.545 -0.1449  0.0390 -0.4863
   63ETHOX  H1157922  11.182   9.865  14.639  0.0968 -0.0660 -0.4427
   63ETHOX  H1357923  11.152   9.873  14.459  0.8993 -2.1754 -2.5730
   63ETHOX   C257924  11.056   9.709  14.569  0.0671  0.3897 -1.2361
   63ETHOX  H2157925  11.068   9.679  14.676  3.2586 -1.9669 -2.1047
   63ETHOX  H2357926  11.075   9.613  14.516  0.8381 -0.0427 -0.2155
   64ETHOX   O157927  10.925   9.762  14.541 -0.1473 -0.0717 -0.5420
   64ETHOX   C157928  10.875   9.854  14.637 -0.5014 -0.3223 -0.0202
   64ETHOX  H1157929  10.911   9.956  14.609  0.4546 -1.0062 -1.4063
   64ETHOX  H1357930  10.906   9.830  14.741 -2.2091  0.1736  0.6497
   64ETHOX   C257931  10.722   9.846  14.632 -0.0790 -0.5750  0.1639
   64ETHOX  H2157932  10.682   9.840  14.528  0.1086 -1.4387  0.1334
   64ETHOX  H2357933  10.688   9.940  14.680 -0.9982 -1.0861  0.5368
   65ETHOX   O157934  10.678   9.749  14.722  0.1670 -0.5397 -0.2953
   65ETHOX   C157935  10.706   9.615  14.684 -0.0780 -0.0207  0.4327
   65ETHOX  H1157936  10.695   9.590  14.576  0.9803 -1.6686  0.6637
   65ETHOX  H1357937  10.815   9.601  14.700  0.3281  1.3609 -0.8841
   65ETHOX   C257938  10.626   9.520  14.771 -0.3233  0.2648 -0.0556
   65ETHOX  H2157939  10.519   9.514  14.743 -0.4085  0.1842  0.2788
   65ETHOX  H2357940  10.630   9.549  14.878 -0.8872 -2.1274  0.6732
   66ETHOX   O157941  10.679   9.388  14.768  0.0317 -0.6969 -0.5136
   66ETHOX   C157942  10.660   9.311  14.647 -1.1312 -0.5631 -0.6146
   66ETHOX  H1157943  10.687   9.372  14.558 -1.8084 -0.8735 -1.0383
   66ETHOX  H1357944  10.549   9.310  14.650 -1.1211 -0.7555 -0.3305
   66ETHOX   C257945  10.718   9.167  14.664  0.5098 -0.2918  0.6296
   66ETHOX  H2157946  10.662   9.106  14.590  0.9627  0.0898 -0.0391
   66ETHOX  H2357947  10.697   9.131  14.767 -1.8957  0.5389  0.4952
   67ETHOX   O157948  10.858   9.147  14.641 -0.0883  0.2283  0.5255
   67ETHOX   C157949  10.907   9.190  14.523 -0.3715 -0.3702  0.7321
   67ETHOX  H1157950  10.861   9.130  14.442  1.1685  2.1147 -2.2078
   67ETHOX  H1357951  10.876   9.289  14.484  2.3855  0.2618 -0.0944
   67ETHOX   C257952  11.060   9.177  14.519 -0.0872  0.8338 -0.4020
   67ETHOX  H2157953  11.096   9.073  14.529  0.0407  0.8370 -0.8207
   67ETHOX  H2357954  11.112   9.225  14.605  0.0121  1.0375 -0.5763
   68ETHOX   O157955  11.114   9.225  14.395  0.3631 -0.6413  0.0306
   68ETHOX   C157956  11.254   9.236  14.397  0.0389 -0.2160  0.1484
   68ETHOX  H1157957  11.276   9.319  14.326 -1.2888  1.5016  1.6418
   68ETHOX  H1357958  11.276   9.279  14.497 -1.0130  0.1395  0.2395
   68ETHOX   C257959  11.331   9.109  14.372 -0.3787 -0.5833  0.2095
   68ETHOX  H2157960  11.436   9.132  14.344 -0.3796 -0.3746  0.3822
   68ETHOX  H2357961  11.286   9.036  14.301 -0.4692  0.6234 -1.0116
   69ETHOX   O157962  11.345   9.039  14.500 -0.1902 -0.2944 -0.4207
   69ETHOX   C157963  11.410   8.918  14.471 -0.0023  0.4032 -0.5959
   69ETHOX  H1157964  11.336   8.844  14.434 -1.1506  1.8477 -1.2734
   69ETHOX  H1357965  11.494   8.929  14.399  0.2916  0.5000 -0.2407
   69ETHOX   C257966  11.486   8.859  14.592  0.4286 -0.0281 -0.3882
   69ETHOX  H2157967  11.510   8.755  14.561  0.3433 -0.4539  0.9514
   69ETHOX  H2357968  11.418   8.857  14.679 -0.0066  0.8910 -0.6873
   70ETHOX   O157969  11.618   8.914  14.633  0.0575 -0.6391  0.1598
   70ETHOX   C157970  11.721   8.843  14.573  0.4446 -0.1927 -0.4205
   70ETHOX  H1157971  11.718   8.737  14.607 -0.8109 -0.2348 -0.6184
   70ETHOX  H1357972  11.702   8.862  14.465  1.2948  4.1359  0.0029
   70ETHOX   C257973  11.853   8.902  14.610  0.5370  0.2389  0.4973
   70ETHOX  H2157974  11.836   9.012  14.601 -0.5856 -0.0432 -1.8419
   70ETHOX  H2357975  11.934   8.865  14.544 -0.5938  0.4860 -1.0993
   71ETHOX   O157976  11.873   8.866  14.740 -0.0959  0.1808  0.1479
   71ETHOX   C157977  12.011   8.887  14.773 -0.3233  0.0926  1.0996
   71ETHOX  H1157978  12.034   8.995  14.766  0.8117 -0.2050 -0.2030
   71ETHOX  H1357979  12.082   8.834  14.705 -1.3296 -0.5769  0.5424
   71ETHOX   C257980  12.032   8.824  14.909 -0.4499  0.3911 -0.1723
   71ETHOX  H2157981  11.950   8.857  14.976  1.2172  0.7523  1.8049
   71ETHOX  H2357982  12.132   8.855  14.949 -0.1981 -2.3183  1.5189
   72ETHOX   O157983  12.030   8.681  14.899  0.0265  0.5210  0.3123
   72ETHOX   C157984  12.115   8.616  14.988  0.2014  0.6310  0.0467
   72ETHOX  H1157985  12.215   8.663  14.982  0.4036  0.3164  0.8394
   72ETHOX  H1357986  12.070   8.624  15.089  0.2135  1.0228  0.0215
   72ETHOX   C257987  12.111   8.462  14.956  1.0395 -0.3320 -0.2062
   72ETHOX  H2157988  12.193   8.423  15.019  0.5828  1.6728  1.7834
   72ETHOX  H2357989  12.137   8.448  14.849  2.1441  0.7723 -0.1020
   73ETHOX   O157990  11.988   8.401  14.986 -0.3128 -0.3981  0.1875
   73ETHOX   C157991  12.006   8.260  14.976  0.0671 -0.6274  0.1905
   73ETHOX  H1157992  11.924   8.220  15.040  0.4402 -1.9612 -0.1472
   73ETHOX  H1357993  12.108   8.227  15.004  1.5638  1.8848 -1.8864
   73ETHOX   C257994  11.963   8.210  14.844  0.4586  0.5994  0.8166
   73ETHOX  H2157995  12.012   8.274  14.767 -1.1215  0.8261 -0.0526
   73ETHOX  H2357996  11.854   8.225  14.829  0.6385  1.8048  0.6799
   74ETHOX   O157997  12.011   8.082  14.812 -0.0926 -0.0692  0.7077
   74ETHOX   C157998  11.907   7.995  14.784  1.2861 -0.4079 -0.3173
   74ETHOX  H1157999  11.855   7.970  14.880  1.8596 -1.6968 -0.3119
   74ETHOX  H1358000  11.835   8.040  14.713  1.6485 -1.0630 -1.1190
   74ETHOX   C258001  11.958   7.860  14.724  0.2559  0.1638 -0.1646
   74ETHOX  H2158002  11.876   7.786  14.731  0.0940  0.4273  0.9356
   74ETHOX  H2358003  12.057   7.829  14.764  1.4919  3.1880 -0.6254
   75ETHOX   O158004  11.982   7.883  14.583 -0.1194  0.4594  0.2535
   75ETHOX   C158005  12.041   7.770  14.520  0.1823  0.7244 -0.4381
   75ETHOX  H1158006  11.972   7.684  14.507  1.0525 -0.1860  0.7689
   75ETHOX  H1358007  12.127   7.736  14.582  0.1963  0.9140 -0.3553
   75ETHOX   C258008  12.079   7.792  14.374  0.3460  0.1070  0.0217
   75ETHOX  H2158009  11.988   7.807  14.311 -1.4089 -2.3492  1.7929
   75ETHOX  H2358010  12.131   7.698  14.346 -1.3931 -0.3048 -2.1008
   76ETHOX   O158011  12.168   7.900  14.370  0.0124  0.1462  0.2787
   76ETHOX   C158012  12.189   7.952  14.235 -0.3104  0.4551 -0.1392
   76ETHOX  H1158013  12.200   7.858  14.176  0.2132  0.4115  0.0197
   76ETHOX  H1358014  12.111   8.014  14.187  0.7436  0.2047 -2.3155
   76ETHOX   C258015  12.315   8.036  14.246  0.5255 -0.1709 -0.7936
   76ETHOX  H2158016  12.356   8.056  14.144  1.1139  0.9878 -0.3489
   76ETHOX  H2358017  12.388   7.988  14.315  0.1802 -2.1223 -1.7100
   77ETHOX   O158018  12.282   8.159  14.308  0.0430 -0.0470 -0.0588
   77ETHOX   C158019  12.391   8.251  14.300 -0.0998  0.3118 -0.5330
   77ETHOX  H1158020  12.352   8.351  14.271 -2.6487 -0.3053  0.4285
   77ETHOX  H1358021  12.471   8.222  14.229  1.2122  0.4717  0.8301
   77ETHOX   C258022  12.461   8.258  14.439 -0.1118  0.2575 -0.3260
   77ETHOX  H2158023  12.379   8.267  14.514  0.9560  1.4886  0.7466
   77ETHOX  H2358024  12.521   8.350  14.454  1.0980 -0.4482 -0.7678
   78ETHOX   O158025  12.553   8.157  14.471 -0.5668 -0.2972 -0.2777
   78ETHOX   C158026  12.594   8.149  14.612  0.1383 -0.2307  0.1983
   78ETHOX  H1158027  12.622   8.250  14.650  1.3314 -1.2628  2.2541
   78ETHOX  H1358028  12.509   8.101  14.664 -0.8621  2.5290  1.3305
   78ETHOX   C258029  12.727   8.068  14.614  0.7319 -0.0962 -0.2469
   78ETHOX  H2158030  12.765   8.074  14.718 -0.7307  2.0576  0.2406
   78ETHOX  H2358031  12.797   8.116  14.542  0.6218  2.1949  1.0615
   79ETHOX   O158032  12.694   7.935  14.577 -0.5657  0.2499  0.0878
   79ETHOX   C158033  12.814   7.863  14.543  0.3687 -0.3637 -0.0637
   79ETHOX  H1158034  12.835   7.868  14.434  2.2294  1.1953  0.3067
   79ETHOX  H1358035  12.901   7.901  14.601  0.5958 -1.3020  0.2344
   79ETHOX   C258036  12.810   7.709  14.564  0.4268  0.4889 -0.1327
   79ETHOX  H2158037  12.901   7.657  14.526  1.3643  0.5821  1.8597
   79ETHOX  H2358038  12.719   7.673  14.513  0.5302  1.0043 -0.6832
   80ETHOX   O158039  12.805   7.680  14.702  0.0935 -0.7611 -0.1734
   80ETHOX   C158040  12.790   7.541  14.729 -0.1529 -0.6455  1.1391
   80ETHOX  H1158041  12.696   7.501  14.686  1.0173 -1.0945 -1.1537
   80ETHOX  H1358042  12.865   7.484  14.670 -1.9518 -1.0571 -0.8825
   80ETHOX   C258043  12.808   7.511  14.875  0.9508  0.2062  0.4566
   80ETHOX  H2158044  12.889   7.579  14.908  0.9977  0.5582 -0.3608
   80ETHOX  H2358045  12.838   7.404  14.876  0.1764 -0.0172  1.0156
   81ETHOX   O158046  12.676   7.515  14.943  0.6892 -0.0003  0.2651
   81ETHOX   C158047  12.677   7.492  15.089 -0.2299 -0.3500  0.0018
   81ETHOX  H1158048  12.713   7.387  15.100 -1.5207 -0.7382  0.7486
   81ETHOX  H1358049  12.754   7.561  15.128 -1.1099  2.5181 -2.9060
   81ETHOX   C258050  12.541   7.515  15.155  0.1469  0.6659  0.1833
   81ETHOX  H2158051  12.560   7.499  15.263 -0.8091 -0.2248  0.2350
   81ETHOX  H2358052  12.511   7.622  15.145 -2.2723 -0.0206 -0.5355
   82ETHOX   O158053  12.441   7.417  15.106 -0.3843  0.4409  0.4825
   82ETHOX   C158054  12.464   7.279  15.141  0.4794 -0.4347 -1.3164
   82ETHOX  H1158055  12.524   7.270  15.234 -3.1853  0.1832  1.3333
   82ETHOX  H1358056  12.533   7.239  15.063  2.7957 -0.6956  0.7640
   82ETHOX   C258057  12.332   7.195  15.155 -0.5232 -0.6215  0.6363
   82ETHOX  H2158058  12.343   7.092  15.117  2.6569  0.3048 -1.3335
   82ETHOX  H2358059  12.260   7.252  15.092  0.3608  0.7168  0.7949
   83ETHOX   O158060  12.296   7.201  15.290 -0.7078  0.2392  0.0665
   83ETHOX   C158061  12.154   7.179  15.305  0.9880  0.6473 -0.0409
   83ETHOX  H1158062  12.087   7.245  15.245  2.1187  0.9800 -0.9823
   83ETHOX  H1358063  12.127   7.081  15.258  0.1305  1.2877 -0.9374
   83ETHOX   C258064  12.116   7.191  15.456  0.0153  0.5910 -0.3449
   83ETHOX  H2158065  12.203   7.156  15.516  0.6758  1.2266 -0.9103
   83ETHOX  H2358066  12.028   7.125  15.470  0.4432 -0.1041 -0.8473
   84ETHOX   O158067  12.090   7.323  15.488 -0.8313 -0.1297  0.1976
   84ETHOX   C158068  12.079   7.331  15.634 -0.6544 -0.3821 -0.1116
   84ETHOX  H1158069  12.178   7.305  15.675  0.1877  0.2797 -1.6404
   84ETHOX  H1358070  12.004   7.259  15.674 -0.8639  0.9884  2.1130
   84ETHOX   C258071  12.038   7.471  15.669  0.3601  0.0148  0.4893
   84ETHOX  H2158072  12.118   7.541  15.638  1.9716 -2.1710 -0.5140
   84ETHOX  H2358073  12.034   7.481  15.780 -0.0322 -2.4580  0.7575
   85ETHOX   O158074  11.913   7.506  15.601  0.2280  0.4188 -0.0478
   85ETHOX   C158075  11.889   7.643  15.577 -0.2540  0.4043  0.5124
   85ETHOX  H1158076  11.908   7.698  15.672 -1.0625  0.4067  0.6869
   85ETHOX  H1358077  11.957   7.685  15.500 -0.4554 -0.8629 -0.3890
   85ETHOX   C258078  11.743   7.672  15.536  0.3102 -0.1758  0.1772
   85ETHOX  H2158079  11.727   7.774  15.577 -1.0345 -0.1023 -0.4935
   85ETHOX  H2358080  11.671   7.615  15.597 -0.6068  0.9721  0.1975
   86ETHOX   O158081  11.712   7.651  15.395 -0.0809 -0.1070  0.0253
   86ETHOX   C158082  11.593   7.722  15.347  0.6006 -0.2155 -0.7282
   86ETHOX  H1158083  11.586   7.820  15.397 -0.5005 -1.5692  1.9798
   86ETHOX  H1358084  11.500   7.672  15.382  2.3289 -1.5629  2.3452
   86ETHOX   C258085  11.598   7.750  15.200 -0.5972 -0.1407  0.5640
   86ETHOX  H2158086  11.691   7.801  15.166 -0.0622 -1.4866 -0.0804
   86ETHOX  H2358087  11.513   7.811  15.163  0.6481  1.5104  0.3150
   87ETHOX   O158088  11.582   7.634  15.126 -0.1619  0.0282  0.0881
   87ETHOX   C158089  11.575   7.668  14.986  0.0375  1.1196 -0.4526
   87ETHOX  H1158090  11.478   7.715  14.960 -0.2693  1.2935  0.9187
   87ETHOX  H1358091  11.664   7.733  14.967  0.7170  0.2739 -0.2130
   87ETHOX   C258092  11.606   7.540  14.901  0.4250  0.4291 -0.5941
   87ETHOX  H2158093  11.587   7.569  14.796 -1.0613 -1.1918 -0.8270
   87ETHOX  H2358094  11.539   7.452  14.915  2.4284 -0.9909  0.7376
   88ETHOX   O158095  11.740   7.497  14.912  0.0494  0.0579  0.0650
   88ETHOX   C158096  11.784   7.426  14.800 -0.7644 -0.1455  0.9740
   88ETHOX  H1158097  11.781   7.493  14.712  0.9111 -1.6073 -0.2856
   88ETHOX  H1358098  11.718   7.341  14.771  0.6771 -1.2276  0.7361
   88ETHOX   C258099  11.929   7.371  14.817  0.0154  0.1579 -0.0243
   88ETHOX  H2158100  11.953   7.287  14.749  0.4147 -0.8059  1.2852
   88ETHOX  H2358101  11.937   7.323  14.917  0.4400  2.4385  1.0948
   89ETHOX   O158102  12.033   7.471  14.804  0.8996  0.5721 -0.2788
   89ETHOX   C158103  12.059   7.551  14.923  0.2351 -0.8341 -0.3696
   89ETHOX  H1158104  11.984   7.633  14.929 -1.7977 -2.7073  1.4326
   89ETHOX  H1358105  12.047   7.486  15.012  2.0778 -1.3336 -0.4506
   89ETHOX   C258106  12.204   7.601  14.925  0.2606  0.0044  0.1320
   89ETHOX  H2158107  12.281   7.524  14.947  0.9897  0.7697  0.3278
   89ETHOX  H2358108  12.225   7.682  14.998  0.3537  0.6430 -0.6008
   90ETHOX   O158109  12.236   7.647  14.791  0.0866 -0.0768 -0.0551
   90ETHOX   C158110  12.373   7.638  14.773  0.5853  0.2984 -0.2334
   90ETHOX  H1158111  12.408   7.704  14.855 -0.6131  0.9734 -0.2513
   90ETHOX  H1358112  12.415   7.534  14.774 -0.5153 -0.1606 -0.6563
   90ETHOX   C258113  12.407   7.693  14.639  0.2810 -0.2521 -0.2173
   90ETHOX  H2158114  12.517   7.689  14.654  0.0319  0.3078  2.2209
   90ETHOX  H2358115  12.378   7.798  14.622  0.7334  0.2273  1.6846
   91ETHOX   O158116  12.363   7.609  14.528  0.4426 -0.1593  0.4848
   91ETHOX   C158117  12.431   7.636  14.401 -0.0534 -0.3853  0.5744
   91ETHOX  H1158118  12.413   7.739  14.365  1.7020 -0.4960 -0.7775
   91ETHOX  H1358119  12.541   7.637  14.417  0.1055  3.2842  0.0121
   91ETHOX   C258120  12.377   7.539  14.293  0.2008  0.1632  0.3392
   91ETHOX  H2158121  12.280   7.574  14.251 -0.0401 -0.4494  0.3801
   91ETHOX  H2358122  12.349   7.445  14.346  4.0856 -1.0066  0.6399
   92ETHOX   O158123  12.474   7.517  14.196  0.5645 -0.1464  0.2899
   92ETHOX   C158124  12.429   7.417  14.110  0.6428 -0.3473  0.2054
   92ETHOX  H1158125  12.381   7.334  14.166  1.9612  0.3168  2.4552
   92ETHOX  H1358126  12.356   7.464  14.041 -0.6696 -2.7569 -0.1337
   92ETHOX   C258127  12.535   7.366  14.015  0.6668  0.3449 -0.4222
   92ETHOX  H2158128  12.501   7.266  13.981 -1.6866 -0.3652  3.3870
   92ETHOX  H2358129  12.628   7.337  14.070 -0.1822 -0.6097  0.5433
   93ETHOX   O158130  12.568   7.455  13.908  0.2836  0.1927 -0.3615
   93ETHOX   C158131  12.645   7.389  13.808 -0.2342  0.9599 -0.3568
   93ETHOX  H1158132  12.720   7.320  13.851 -1.2912 -0.8871 -1.3449
   93ETHOX  H1358133  12.698   7.458  13.738 -2.5881  2.2684 -0.9639
   93ETHOX   C258134  12.559   7.307  13.711 -0.0989  0.0882 -0.0921
   93ETHOX  H2158135  12.488   7.237  13.759  0.4474 -0.8953 -0.6693
   93ETHOX  H2358136  12.626   7.243  13.649  1.1748  0.6071  0.6962
   94ETHOX   O158137  12.478   7.389  13.625  0.1193 -0.3520  0.2835
   94ETHOX   C158138  12.408   7.303  13.531  0.3063  0.1151 -0.2017
   94ETHOX  H1158139  12.460   7.209  13.502 -1.5088 -0.8685 -0.4130
   94ETHOX  H1358140  12.319   7.271  13.589  0.4467  0.7935  0.3996
   94ETHOX   C258141  12.342   7.381  13.410  0.1117  0.1006 -0.6440
   94ETHOX  H2158142  12.283   7.459  13.463 -0.0164 -0.6797  0.4161
   94ETHOX  H2358143  12.269   7.312  13.363 -0.2366  0.2052 -0.2689
   95ETHOX   O158144  12.426   7.441  13.313  0.2708  0.3241  0.6249
   95ETHOX   C158145  12.365   7.543  13.250  0.1561  0.1076 -0.1598
   95ETHOX  H1158146  12.331   7.618  13.325 -0.7082 -1.0413  0.6458
   95ETHOX  H1358147  12.285   7.502  13.185  0.7438 -2.3663  0.5753
   95ETHOX   C258148  12.451   7.619  13.152 -0.6753  0.0530 -0.0294
   95ETHOX  H2158149  12.386   7.697  13.105  0.5406  0.0614 -1.8164
   95ETHOX  H2358150  12.492   7.556  13.070 -0.4447  2.2071 -1.6804
   96ETHOX   O158151  12.565   7.671  13.220 -0.0342  0.5672  0.2046
   96ETHOX   C158152  12.604   7.792  13.148  0.2243 -0.1059 -0.9745
   96ETHOX  H1158153  12.715   7.795  13.161 -0.0469 -1.1108  2.5413
   96ETHOX  H1358154  12.595   7.769  13.040 -1.6899  0.1891 -0.9056
   96ETHOX   C258155  12.539   7.920  13.198 -0.9701  0.9143 -0.3065
   96ETHOX  H2158156  12.561   7.936  13.306 -3.1945  2.4233 -0.0039
   96ETHOX  H2358157  12.428   7.909  13.203 -1.0103  1.4209 -0.0197
   97ETHOX   O158158  12.554   8.047  13.132 -0.4622  0.6260 -0.7744
   97ETHOX   C158159  12.467   8.144  13.183 -0.3085 -0.4584 -1.6073
   97ETHOX  H1158160  12.487   8.147  13.292  1.5570 -3.1323 -1.7604
   97ETHOX  H1358161  12.361   8.111  13.181 -0.6499  0.4478  0.2590
   97ETHOX   C258162  12.475   8.270  13.101 -0.0684 -0.2825  0.2886
   97ETHOX  H2158163  12.580   8.301  13.085 -0.4613  0.7179 -0.4094
   97ETHOX  H2358164  12.424   8.344  13.166  1.4357  4.0546 -3.0473
   98ETHOX   O158165  12.405   8.262  12.981  0.2397  0.6244 -0.6257
   98ETHOX   C158166  12.418   8.380  12.905 -0.0367 -0.3433  0.6466
   98ETHOX  H1158167  12.488   8.452  12.954  2.0482 -2.2180  0.5886
   98ETHOX  H1358168  12.476   8.359  12.813 -0.9984 -0.3738  0.0416
   98ETHOX   C258169  12.283   8.436  12.867  0.0609  0.3715 -0.1153
   98ETHOX  H2158170  12.230   8.349  12.823  2.3864 -1.0703 -0.2484
   98ETHOX  H2358171  12.301   8.507  12.783  0.8721  0.3475  0.0279
   99ETHOX   O158172  12.230   8.509  12.975  0.5278  0.1810  0.2212
   99ETHOX   C158173  12.088   8.520  12.953  0.1561 -0.5243 -1.4593
   99ETHOX  H1158174  12.049   8.415  12.951  1.3490 -0.9893 -1.0672
   99ETHOX  H1358175  12.055   8.560  12.854 -1.1193  1.2265 -0.3831
   99ETHOX   C258176  12.012   8.591  13.065 -1.0279 -0.0149 -0.1316
   99ETHOX  H2158177  12.060   8.558  13.159 -1.4712 -1.2307 -0.3246
   99ETHOX  H2358178  11.910   8.548  13.073 -0.9225 -0.6436 -1.7365
  100ETHOX   O158179  12.018   8.728  13.050 -0.6509 -0.1654 -0.0607
  100ETHOX   C158180  11.955   8.792  13.158 -0.3069  0.1124 -0.2051
  100ETHOX  H1158181  11.848   8.763  13.170 -0.8298  2.2580  0.7646
  100ETHOX  H1358182  11.992   8.752  13.255 -2.2570 -0.3578  0.3913
  100ETHOX   C258183  11.981   8.944  13.161 -0.3759  0.4150  0.2837
  100ETHOX  H2158184  12.091   8.952  13.177 -0.2018 -2.8605  1.4492
  100ETHOX  H2358185  11.919   8.984  13.243  1.0972  1.4283  0.9530
  101PROXS   O158186  11.934   9.008  13.044  0.3452 -0.5667 -0.3524
  101PROXS   C158187  11.797   8.992  13.015  0.3926  0.3914 -0.0662
  101PROXS  H1158188  11.779   8.884  12.998  0.7857  0.1542  1.0034
  101PROXS  H1358189  11.735   9.019  13.103  1.0026 -1.1293  0.8646
  101PROXS   C258190  11.750   9.059  12.884 -0.1531 -0.2199 -0.6033
  101PROXS  H2158191  11.786   9.163  12.871 -0.0766 -0.4258 -2.2375
  101PROXS   C358192  11.599   9.078  12.887  0.3528 -0.4870 -0.2095
  101PROXS  H3158193  11.552   9.133  12.803  0.5942 -1.1370 -0.7815
  101PROXS  H3258194  11.550   8.981  12.912 -0.0061 -0.2676 -0.0657
  101PROXS  H3358195  11.582   9.142  12.976 -0.0547  1.2322 -1.4849
  102PROXS   O158196  11.775   8.985  12.763  0.8674  0.2454 -0.8026
  102PROXS   C158197  11.908   8.932  12.745 -0.2780 -0.1967  0.5401
  102PROXS  H1158198  11.934   8.863  12.828  1.0972 -0.5914 -0.1988
  102PROXS  H1358199  11.906   8.879  12.647 -1.7856  2.9873 -1.3054
  102PROXS   C258200  12.027   9.038  12.729  0.7933 -0.2416  0.3012
  102PROXS  H2158201  12.034   9.096  12.823  0.7488 -1.9365  1.3975
  102PROXS   C358202  12.007   9.134  12.611  0.6869 -0.4794  0.7813
  102PROXS  H3158203  12.076   9.215  12.641 -1.0839  1.0397  0.9289
  102PROXS  H3258204  12.038   9.099  12.510  1.9207  0.9169  0.6478
  102PROXS  H3358205  11.903   9.172  12.604  0.1402 -2.0798 -0.4991
  103PROXR   O158206  12.150   8.966  12.710 -0.1978 -0.1751 -0.2029
  103PROXR   C158207  12.211   8.934  12.836  0.1122  0.3681  0.0923
  103PROXR  H1158208  12.245   9.037  12.860 -1.2942  0.7683  0.4321
  103PROXR  H1358209  12.136   8.894  12.907 -0.8712 -1.6932 -1.9609
  103PROXR   C258210  12.319   8.822  12.833 -0.3269  0.3147  0.0086
  103PROXR  H2158211  12.265   8.726  12.819  1.9648 -0.9188 -0.9678
  103PROXR   C358212  12.423   8.816  12.953  0.0734  0.3250  0.7731
  103PROXR  H3158213  12.383   8.859  13.047 -0.6789  0.3889  0.4317
  103PROXR  H3258214  12.438   8.709  12.979 -1.9152 -0.2935 -0.4279
  103PROXR  H3358215  12.524   8.854  12.930 -0.4599 -0.0330 -2.8091
  104PROXS   O158216  12.408   8.854  12.725  0.0293 -0.3018 -0.0269
  104PROXS   C158217  12.456   8.737  12.663 -0.1016 -0.3130 -0.1519
  104PROXS  H1158218  12.503   8.673  12.740 -0.1547 -2.7638 -2.0496
  104PROXS  H1358219  12.374   8.672  12.629  0.4877 -1.2212  0.1212
  104PROXS   C258220  12.569   8.747  12.553  0.8570  0.6789 -0.2863
  104PROXS  H2158221  12.541   8.832  12.487 -2.4522 -0.4237 -0.4544
  104PROXS   C358222  12.588   8.605  12.482 -0.2141 -0.8700  0.1712
  104PROXS  H3158223  12.600   8.523  12.557  1.0429 -0.9319 -0.0669
  104PROXS  H3258224  12.508   8.595  12.406 -1.4571  1.4634  1.0848
  104PROXS  H3358225  12.682   8.625  12.425 -0.9215 -0.7509 -0.9912
  105PROXS   O158226  12.687   8.781  12.624  0.3441  0.3043  0.3610
  105PROXS   C158227  12.702   8.923  12.635  0.3646 -0.2131 -0.4640
  105PROXS  H1158228  12.610   8.979  12.606  0.3278  0.0428  0.1401
  105PROXS  H1358229  12.704   8.931  12.746 -2.8296  3.1582 -0.4231
  105PROXS   C258230  12.830   8.982  12.581  0.4553 -0.0035 -0.2508
  105PROXS  H2158231  12.814   9.009  12.474  1.4826  0.8095 -0.2152
  105PROXS   C358232  12.939   8.875  12.582 -0.5430 -0.4902 -0.3073
  105PROXS  H3158233  12.901   8.789  12.523 -0.5465  0.3241 -1.5264
  105PROXS  H3258234  13.032   8.915  12.537 -0.7056 -2.4684 -2.5434
  105PROXS  H3358235  12.958   8.844  12.687 -1.1656 -1.8761 -0.5892
  106PROXS   O158236  12.866   9.100  12.653  0.3957 -0.1425  0.0378
  106PROXS   C158237  12.868   9.222  12.577 -0.5560  1.1090  0.3629
  106PROXS  H1158238  12.951   9.200  12.507 -1.2235 -1.1376  0.2023
  106PROXS  H1358239  12.766   9.231  12.533 -1.8255  0.1993  2.8995
  106PROXS   C258240  12.917   9.339  12.659  0.3129 -0.1035  0.1365
  106PROXS  H2158241  12.929   9.419  12.583  0.7519 -1.6771 -1.5569
  106PROXS   C358242  13.049   9.307  12.723  0.4273  0.3185  0.3910
  106PROXS  H3158243  13.038   9.229  12.801  0.8121  1.5228  1.6725
  106PROXS  H3258244  13.130   9.277  12.653 -1.3863 -1.5058 -1.0752
  106PROXS  H3358245  13.085   9.394  12.781 -0.1093 -0.0892  1.3578
  107PROXR   O158246  12.825   9.364  12.759 -1.0316 -0.0323 -0.4147
  107PROXR   C158247  12.859   9.479  12.837 -0.6581  0.4738  0.2996
  107PROXR  H1158248  12.943   9.463  12.907 -2.0163 -1.7936  1.5398
  107PROXR  H1358249  12.880   9.555  12.759  0.8087 -0.9785 -0.7828
  107PROXR   C258250  12.737   9.536  12.922  0.3649  0.2161  1.1946
  107PROXR  H2158251  12.648   9.550  12.858  0.0461 -0.2908  1.5210
  107PROXR   C358252  12.782   9.675  12.982  0.1438  0.9519 -0.3395
  107PROXR  H3158253  12.876   9.665  13.042  0.7416 -1.0897 -1.5187
  107PROXR  H3258254  12.804   9.751  12.905  1.2669  0.8455 -0.1467
  107PROXR  H3358255  12.699   9.711  13.046 -0.3569 -0.5995 -0.0652
  108PROXS   O158256  12.710   9.463  13.035  0.2634  0.3932  0.4821
  108PROXS   C158257  12.641   9.336  13.007  0.7128  0.4417 -0.3696
  108PROXS  H1158258  12.670   9.284  12.913 -4.1071 -0.7833 -1.4319
  108PROXS  H1358259  12.680   9.273  13.090  1.7404  0.3916 -0.8682
  108PROXS   C258260  12.484   9.342  13.020 -0.6383  0.1680  0.1844
  108PROXS  H2158261  12.468   9.388  13.120  3.0540  2.4762 -0.0937
  108PROXS   C358262  12.438   9.199  13.022 -0.0435  0.6557 -0.1191
  108PROXS  H3158263  12.475   9.143  13.110 -3.6366 -0.6630  0.6821
  108PROXS  H3258264  12.329   9.203  13.040 -0.3304 -0.4459 -1.4187
  108PROXS  H3358265  12.453   9.148  12.924  0.0419  0.2743  0.0920
  109PROXS   O158266  12.439   9.434  12.922 -0.6643 -0.4043  0.4085
  109PROXS   C158267  12.304   9.471  12.932  0.1978  1.4665 -0.3527
  109PROXS  H1158268  12.246   9.377  12.918 -0.7193  1.6670  1.6112
  109PROXS  H1358269  12.290   9.519  13.032  1.3957  2.2178 -0.5276
  109PROXS   C258270  12.266   9.560  12.820 -0.3398 -0.3353  0.8858
  109PROXS  H2158271  12.266   9.499  12.727  2.4564  0.8485  0.0199
  109PROXS   C358272  12.350   9.689  12.803  0.2033  0.0063  0.6021
  109PROXS  H3158273  12.346   9.720  12.697  0.9786 -1.7221  0.0387
  109PROXS  H3258274  12.309   9.768  12.871 -1.2593 -0.8350  0.7453
  109PROXS  H3358275  12.458   9.671  12.818  0.9357 -1.1027 -4.3337
  110PROXR   O158276  12.137   9.608  12.847  0.1677 -0.9058  0.3656
  110PROXR   C158277  12.040   9.524  12.790 -0.5272  0.4815 -1.1020
  110PROXR  H1158278  12.048   9.532  12.680  0.3399  2.4229 -0.9400
  110PROXR  H1358279  12.049   9.418  12.822  2.8359  0.9246 -0.2669
  110PROXR   C258280  11.898   9.583  12.828 -0.0767  0.3581 -0.2460
  110PROXR  H2158281  11.888   9.627  12.930  0.0287 -1.0017  0.3832
  110PROXR   C358282  11.794   9.482  12.802  0.1340  0.6783  0.5443
  110PROXR  H3158283  11.815   9.432  12.704  1.6392  3.4948 -0.6755
  110PROXR  H3258284  11.792   9.403  12.880 -1.1010  0.2014  0.0624
  110PROXR  H3358285  11.691   9.522  12.789 -1.0159 -2.0602  0.4349
  111PROXS   O158286  11.871   9.681  12.728 -0.2064  0.4299  0.2895
  111PROXS   C158287  11.914   9.811  12.765  0.0684 -0.0879  0.1913
  111PROXS  H1158288  11.904   9.820  12.875  1.0588 -4.0967  0.7620
  111PROXS  H1358289  12.017   9.820  12.725 -0.1441  0.0928 -0.3293
  111PROXS   C258290  11.831   9.923  12.694  0.1365 -0.2786 -0.7569
  111PROXS  H2158291  11.826   9.897  12.586 -0.6106  3.1728 -1.6836
  111PROXS   C358292  11.892  10.059  12.708 -0.5682  0.2757  0.2814
  111PROXS  H3158293  11.862  10.117  12.618  0.8600 -0.3436 -0.6235
  111PROXS  H3258294  11.863  10.112  12.801  1.6590  2.0400  0.0481
  111PROXS  H3358295  12.002  10.056  12.699 -0.6480  1.2383 -1.7689
  112PROXR   O158296  11.695   9.938  12.744  0.2165  0.0696  0.0408
  112PROXR   C158297  11.627   9.815  12.747 -0.0267  0.0142  0.5284
  112PROXR  H1158298  11.637   9.752  12.657 -3.4897 -0.8328  0.5854
  112PROXR  H1358299  11.675   9.761  12.831  0.9044  2.3160  1.5696
  112PROXR   C258300  11.472   9.833  12.773  0.0241  0.4885  0.2939
  112PROXR  H2158301  11.431   9.890  12.687  2.4262 -1.0558 -2.0269
  112PROXR   C358302  11.450   9.895  12.915 -0.4173 -0.3897  0.0104
  112PROXR  H3158303  11.346   9.915  12.948  0.2176  0.1599  1.8641
  112PROXR  H3258304  11.510   9.841  12.992  1.1719 -0.1014 -0.9863
  112PROXR  H3358305  11.495   9.997  12.917 -1.5699  0.1428  2.3709
  113PROXS   O158306  11.422   9.702  12.770  0.9190 -0.0426  0.2912
  113PROXS   C158307  11.281   9.678  12.793 -0.0836 -0.1748  0.5037
  113PROXS  H1158308  11.236   9.751  12.864  0.0783  0.1005  0.3244
  113PROXS  H1358309  11.227   9.688  12.696  0.3570 -0.2060  0.2524
  113PROXS   C258310  11.249   9.539  12.853 -0.0716  0.1900  0.6192
  113PROXS  H2158311  11.309   9.462  12.801  3.0346  2.3585  0.7591
  113PROXS   C358312  11.103   9.495  12.838  0.0096 -0.4385 -0.6250
  113PROXS  H3158313  11.077   9.406  12.898  2.0929 -0.6072  0.0968
  113PROXS  H3258314  11.047   9.583  12.877 -0.9543 -0.8088 -1.1508
  113PROXS  H3358315  11.077   9.484  12.730 -0.9625  1.9367 -0.6979
  114PROXR   O158316  11.276   9.540  12.989  0.3893  0.1723  0.0834
  114PROXR   C158317  11.412   9.507  13.008  0.1267  0.0779  0.2098
  114PROXR  H1158318  11.425   9.412  12.952  0.7470 -0.0231  0.5236
  114PROXR  H1358319  11.484   9.583  12.971  0.2303  0.8619  1.9552
  114PROXR   C258320  11.434   9.482  13.154  0.7429  0.5317  0.3711
  114PROXR  H2158321  11.360   9.408  13.190  0.7146 -0.4400 -1.5735
  114PROXR   C358322  11.423   9.611  13.237 -0.3500  0.4561 -0.3595
  114PROXR  H3158323  11.333   9.672  13.211 -0.6209  0.7126  1.1258
  114PROXR  H3258324  11.413   9.583  13.344  0.4217 -0.7921 -0.5941
  114PROXR  H3358325  11.512   9.674  13.220  0.3421  0.0183  1.4050
  115PROXR   O158326  11.568   9.435  13.162 -0.3208 -0.1065  0.0476
  115PROXR   C158327  11.581   9.343  13.276  0.1364  0.9105 -0.0079
  115PROXR  H1158328  11.518   9.375  13.362  0.1977 -0.0983  0.4268
  115PROXR  H1358329  11.536   9.247  13.241 -2.4198  1.9684  0.1476
  115PROXR   C258330  11.730   9.324  13.314 -0.8230 -0.0026 -0.5403
  115PROXR  H2158331  11.781   9.287  13.223 -2.3015  1.2481 -1.9510
  115PROXR   C358332  11.745   9.217  13.422 -0.0613  0.7957 -0.6241
  115PROXR  H3158333  11.696   9.258  13.513 -0.0971 -0.9705  0.1845
  115PROXR  H3258334  11.699   9.118  13.397  4.1035 -1.4702 -0.1733
  115PROXR  H3358335  11.849   9.187  13.445 -0.3612 -0.8237 -1.2003
  116PROXS   O158336  11.776   9.449  13.353 -0.1453  0.0370 -0.6622
  116PROXS   C158337  11.924   9.452  13.356  1.2540  0.1822  0.0916
  116PROXS  H1158338  11.957   9.406  13.452  1.0262 -1.3985 -0.5635
  116PROXS  H1358339  11.977   9.393  13.279  2.5145  1.3780  0.0032
  116PROXS   C258340  11.984   9.591  13.350 -0.1502  0.4326  0.3590
  116PROXS  H2158341  11.926   9.657  13.419 -0.2243 -0.3527  1.0573
  116PROXS   C358342  11.973   9.644  13.205  0.4176  0.0529  0.2236
  116PROXS  H3158343  11.994   9.754  13.203  1.3952 -0.1292 -0.6788
  116PROXS  H3258344  12.044   9.592  13.138 -0.9135 -0.2479 -1.0016
  116PROXS  H3358345  11.871   9.638  13.163  1.2558 -1.1043 -1.7919
  117PROXS   O158346  12.120   9.586  13.387  0.0426  0.7044  0.1427
  117PROXS   C158347  12.184   9.710  13.407 -0.4384 -0.1757 -0.2151
  117PROXS  H1158348  12.181   9.771  13.314  1.4337 -0.8317 -0.7477
  117PROXS  H1358349  12.126   9.763  13.486 -1.9081  1.6178 -2.3698
  117PROXS   C258350  12.329   9.700  13.445 -0.3592  0.5524  0.3336
  117PROXS  H2158351  12.388   9.642  13.372 -3.3199 -0.9520 -1.0468
  117PROXS   C358352  12.340   9.643  13.590  0.4159  0.1501  0.3762
  117PROXS  H3158353  12.446   9.627  13.618  0.0657  1.7706  3.0265
  117PROXS  H3258354  12.317   9.728  13.658  3.1721  1.8453 -0.6593
  117PROXS  H3358355  12.274   9.555  13.606  0.0818  0.5008  0.9660
  118PROXR   O158356  12.376   9.832  13.446  0.3576  0.7083 -0.0855
  118PROXR   C158357  12.521   9.846  13.428 -0.0795  0.4079 -0.7397
  118PROXR  H1158358  12.587   9.812  13.511  0.4626  0.0349 -1.3138
  118PROXR  H1358359  12.554   9.776  13.348 -2.0867 -2.6938  0.9034
  118PROXR   C258360  12.547   9.992  13.397  0.3307  0.4824  0.5521
  118PROXR  H2158361  12.510  10.052  13.483  1.0403  1.1734  0.3850
  118PROXR   C358362  12.461  10.032  13.264 -0.0536 -0.1088 -0.1877
  118PROXR  H3158363  12.358   9.992  13.250 -0.7658  1.5751 -0.1003
  118PROXR  H3258364  12.440  10.141  13.272 -0.3809 -0.3221  5.2721
  118PROXR  H3358365  12.519   9.999  13.175 -2.0864 -0.3064 -1.5188
  119PROXR   O158366  12.687  10.007  13.392 -0.8380 -0.7579  0.1063
  119PROXR   C158367  12.732  10.143  13.389 -0.3063 -0.0279  0.1573
  119PROXR  H1158368  12.657  10.214  13.430  0.8432  3.0625 -2.6345
  119PROXR  H1358369  12.819  10.154  13.457 -2.5958  0.2341  3.2540
  119PROXR   C258370  12.785  10.178  13.252  0.3679  0.6784  0.0806
  119PROXR  H2158371  12.702  10.180  13.178  1.3494  1.0552 -1.0447
  119PROXR   C358372  12.899  10.089  13.209 -0.5605  0.3465  0.3477
  119PROXR  H3158373  12.936  10.103  13.105  0.9981 -2.1588  0.4570
  119PROXR  H3258374  12.992  10.114  13.265  1.3845 -0.5404 -2.2753
  119PROXR  H3358375  12.885   9.979  13.217  4.0869 -0.3908  1.4377
  120PROXS   O158376  12.831  10.318  13.263 -0.1430  0.1303 -0.4660
  120PROXS   C158377  12.843  10.385  13.144  0.6319  0.0807  0.3422
  120PROXS  H1158378  12.943  10.432  13.145  0.1199  1.1949  0.9706
  120PROXS  H1358379  12.834  10.327  13.050 -0.6069  0.0235  0.4758
  120PROXS   C258380  12.735  10.493  13.134 -0.5726 -0.0307  0.1028
  120PROXS  H2158381  12.728  10.531  13.239  1.3543 -2.3969  1.1816
  120PROXS   C358382  12.595  10.446  13.097  0.2342  0.7739  0.1025
  120PROXS  H3158383  12.599  10.365  13.022  1.3843 -0.2738  1.2671
  120PROXS  H3258384  12.534  10.398  13.177  0.4358 -0.7798 -0.6629
  120PROXS  H3358385  12.524  10.522  13.058 -3.6217 -1.3293  2.3774
  121PROXS   O158386  12.784  10.586  13.037 -0.3247 -0.6143 -0.6627
  121PROXS   C158387  12.739  10.719  13.071 -1.1229 -0.5210  0.1663
  121PROXS  H1158388  12.631  10.723  13.094 -0.8667 -1.9668  1.8393
  121PROXS  H1358389  12.784  10.745  13.169 -1.0451 -3.4597  0.9900
  121PROXS   C258390  12.778  10.819  12.959 -0.7605  0.0294  0.3138
  121PROXS  H2158391  12.752  10.770  12.862  1.4319  0.2181 -0.4241
  121PROXS   C358392  12.929  10.847  12.962  0.0923 -0.1020 -0.5840
  121PROXS  H3158393  12.949  10.902  13.057 -0.5732 -0.1100 -0.4342
  121PROXS  H3258394  12.986  10.752  12.974 -0.2770 -0.1219  1.3072
  121PROXS  H3358395  12.973  10.885  12.867  2.8626 -0.6070  0.4106
  122PROXS   O158396  12.709  10.948  12.970 -0.7807  0.5330 -0.1813
  122PROXS   C158397  12.690  11.019  12.850 -0.5342  0.1032  0.8585
  122PROXS  H1158398  12.778  10.994  12.787  1.3472  1.9819  2.5727
  122PROXS  H1358399  12.593  10.986  12.809  0.9633 -1.6514 -1.5151
  122PROXS   C258400  12.690  11.174  12.867  0.2878 -0.1453  0.2416
  122PROXS  H2158401  12.788  11.207  12.907  0.2266 -0.7554  0.9075
  122PROXS   C358402  12.582  11.202  12.968 -0.0125 -0.3809 -0.2568
  122PROXS  H3158403  12.558  11.308  12.994 -0.1825 -0.5384  0.2416
  122PROXS  H3258404  12.493  11.146  12.934 -1.1112  0.8497  0.5078
  122PROXS  H3358405  12.612  11.162  13.067  1.1973  1.7295  0.2879
  123PROXS   O158406  12.661  11.235  12.740 -0.4178  0.0385 -0.0656
  123PROXS   C158407  12.708  11.373  12.744  0.4430  0.1774  0.0294
  123PROXS  H1158408  12.653  11.426  12.824 -0.8439 -1.6508  0.4044
  123PROXS  H1358409  12.816  11.387  12.766  0.3211  1.4859 -0.1468
  123PROXS   C258410  12.669  11.441  12.610  0.2155 -0.0488  0.3843
  123PROXS  H2158411  12.558  11.444  12.620  0.1994  0.9355 -0.0141
  123PROXS   C358412  12.720  11.372  12.485  0.1332  0.1746 -0.2041
  123PROXS  H3158413  12.830  11.357  12.489 -0.0127 -0.6490  1.8121
  123PROXS  H3258414  12.670  11.277  12.456  0.1804  1.1815 -4.0920
  123PROXS  H3358415  12.711  11.429  12.390 -2.4224 -0.6983 -0.5717
  124PROXR   O158416  12.717  11.575  12.604  0.8328 -0.2347  0.0046
  124PROXR   C158417  12.640  11.661  12.521  0.0997  0.1782 -0.0764
  124PROXR  H1158418  12.708  11.681  12.435 -2.1287  3.5741 -1.2625
  124PROXR  H1358419  12.544  11.616  12.491 -0.1720 -0.0810  1.1200
  124PROXR   C258420  12.618  11.794  12.588 -0.3151 -0.1010 -0.1106
  124PROXR  H2158421  12.714  11.842  12.616  0.1785 -0.8778 -0.4618
  124PROXR   C358422  12.532  11.776  12.718 -0.3241 -0.1754 -0.0822
  124PROXR  H3158423  12.521  11.863  12.786 -2.5410  0.9574 -1.7683
  124PROXR  H3258424  12.427  11.751  12.690  0.4737 -2.4638 -1.2724
  124PROXR  H3358425  12.569  11.694  12.783  2.7197 -0.5293 -2.0642
  125PROXS   O158426  12.547  11.884  12.508  0.4627 -0.0281 -0.1164
  125PROXS   C158427  12.618  11.922  12.388  0.3663  0.0515  0.7498
  125PROXS  H1158428  12.723  11.943  12.416  1.6780 -0.4996 -3.1517
  125PROXS  H1358429  12.612  11.838  12.316 -2.5661 -0.7107  1.7284
  125PROXS   C258430  12.567  12.051  12.316  0.3882 -0.2210 -0.2213
  125PROXS  H2158431  12.592  12.139  12.380 -0.2927 -0.2409  0.0751
  125PROXS   C358432  12.414  12.040  12.292  0.5188 -0.2693  0.0254
  125PROXS  H3158433  12.352  12.007  12.378 -0.3958  2.3005  0.4250
  125PROXS  H3258434  12.375  12.142  12.271  1.0730  0.5663  2.7147
  125PROXS  H3358435  12.392  11.971  12.208 -0.0166  0.0537 -0.1001
  126PROXS   O158436  12.623  12.069  12.187 -0.3825 -0.4100  0.4018
  126PROXS   C158437  12.610  12.203  12.133  0.2686  0.7209 -0.1013
  126PROXS  H1158438  12.517  12.211  12.072 -0.0382  0.7168  0.3570
  126PROXS  H1358439  12.607  12.288  12.205 -1.4904  2.3814 -1.9624
  126PROXS   C258440  12.725  12.233  12.034 -0.9686 -0.8829  0.1631
  126PROXS  H2158441  12.706  12.168  11.945 -1.9961  1.2418 -1.2592
  126PROXS   C358442  12.858  12.193  12.094  0.0685  0.1163  0.3650
  126PROXS  H3158443  12.939  12.221  12.023 -0.4801 -1.3180 -0.8729
  126PROXS  H3258444  12.876  12.243  12.191  1.1186 -0.8067  0.6685
  126PROXS  H3358445  12.870  12.084  12.107  1.3300 -0.6533 -4.8628
  127PROXR   O158446  12.743  12.370  11.998 -0.0585 -0.1293  0.2146
  127PROXR   C158447  12.634  12.417  11.915 -0.4073  0.2086 -0.5619
  127PROXR  H1158448  12.534  12.396  11.960  0.1095  1.1794  1.1587
  127PROXR  H1358449  12.635  12.527  11.932  0.4834  0.2927 -1.1487
  127PROXR   C258450  12.647  12.385  11.765  0.2262 -0.1338 -0.5670
  127PROXR  H2158451  12.655  12.274  11.767  0.4235 -0.1263 -0.9055
  127PROXR   C358452  12.770  12.458  11.706  0.1758 -0.4897  0.2090
  127PROXR  H3158453  12.856  12.446  11.775 -0.1253 -4.7074  0.0687
  127PROXR  H3258454  12.800  12.409  11.612 -0.9359 -0.8813  0.0383
  127PROXR  H3358455  12.744  12.561  11.674  1.0247 -0.7385 -1.3275
  128PROXR   O158456  12.525  12.430  11.700  0.8620  0.5547 -0.1096
  128PROXR   C158457  12.527  12.407  11.559  0.1287  0.4368  0.5199
  128PROXR  H1158458  12.578  12.487  11.502 -0.0810 -0.5613 -1.1662
  128PROXR  H1358459  12.570  12.305  11.543  0.1165  0.2897  1.3904
  128PROXR   C258460  12.384  12.392  11.514  0.2498 -0.0936 -0.0434
  128PROXR  H2158461  12.326  12.475  11.560 -0.1531  0.4312 -1.4304
  128PROXR   C358462  12.327  12.258  11.544 -0.1798 -0.1810  0.6832
  128PROXR  H3158463  12.224  12.242  11.506  0.1344  0.6809 -0.5774
  128PROXR  H3258464  12.385  12.188  11.480 -1.3212 -0.0988 -0.4723
  128PROXR  H3358465  12.338  12.224  11.650 -1.0875 -1.7120  0.3098
  129PROXS   O158466  12.380  12.412  11.372  0.0002 -0.0008  0.2056
  129PROXS   C158467  12.253  12.449  11.322  0.4811 -0.8015 -0.4092
  129PROXS  H1158468  12.197  12.354  11.307  0.4188 -0.9108  0.4215
  129PROXS  H1358469  12.192  12.513  11.390  1.7520  0.2804 -0.2554
  129PROXS   C258470  12.267  12.516  11.182  0.3564 -0.2947 -0.3691
  129PROXS  H2158471  12.335  12.604  11.187 -1.4152  1.2656 -1.7964
  129PROXS   C358472  12.139  12.562  11.114  0.0780  0.4027  0.1032
  129PROXS  H3158473  12.093  12.649  11.164  0.8906  0.7623  0.2244
  129PROXS  H3258474  12.146  12.593  11.007 -1.4253  0.5124  0.0144
  129PROXS  H3358475  12.066  12.477  11.109 -1.1814  1.3832  1.2717
  130PROXS   O158476  12.314  12.421  11.087  0.6018  0.0562  0.1264
  130PROXS   C158477  12.454  12.384  11.102 -0.2426  0.8290  0.4665
  130PROXS  H1158478  12.511  12.478  11.117  0.6503  0.5921 -1.1773
  130PROXS  H1358479  12.465  12.314  11.187  0.6456 -0.1174 -0.4000
  130PROXS   C258480  12.500  12.305  10.972 -0.3220  0.3273 -0.0690
  130PROXS  H2158481  12.456  12.359  10.886 -1.5889  0.7190  0.8108
  130PROXS   C358482  12.460  12.152  10.982  0.0255 -0.0287  0.8635
  130PROXS  H3158483  12.351  12.148  11.001  0.2632 -1.2733  2.1674
  130PROXS  H3258484  12.471  12.116  10.878  0.6472  1.5217  0.3621
  130PROXS  H3358485  12.514  12.092  11.059  0.6012 -0.1332  0.3832
  131PROXS   O158486  12.652  12.326  10.960  0.4306 -0.4589  0.1651
  131PROXS   C158487  12.705  12.283  10.837 -0.6457 -0.6314 -0.2118
  131PROXS  H1158488  12.712  12.173  10.831  0.0943 -0.6498  0.7296
  131PROXS  H1358489  12.645  12.315  10.749  1.5195  2.5864 -0.7169
  131PROXS   C258490  12.846  12.348  10.828  0.0218 -0.4862  0.6616
  131PROXS  H2158491  12.853  12.439  10.891 -0.7895  0.2636 -0.3127
  131PROXS   C358492  12.862  12.386  10.677  0.4051  0.0251  0.2473
  131PROXS  H3158493  12.971  12.407  10.669  0.1126  1.1085 -1.3628
  131PROXS  H3258494  12.840  12.293  10.619  4.9902 -0.9128 -0.3602
  131PROXS  H3358495  12.796  12.466  10.637 -0.2510  0.8313  2.7702
  132PROXS   O158496  12.941  12.251  10.859 -0.2816  0.1136 -0.0556
  132PROXS   C158497  12.929  12.208  10.991  0.1288  0.0726  0.1488
  132PROXS  H1158498  12.917  12.294  11.060 -1.6833  1.6051 -1.9340
  132PROXS  H1358499  12.843  12.138  10.993  0.9293 -1.0639 -1.6855
  132PROXS   C258500  13.052  12.117  11.028 -0.0881 -0.9393 -0.2233
  132PROXS  H2158501  13.139  12.180  11.057 -1.0698 -0.1268  1.0352
  132PROXS   C358502  13.099  12.022  10.913 -0.4850  0.1538  0.3234
  132PROXS  H3158503  13.006  11.992  10.860 -0.4862  0.9192 -0.1264
  132PROXS  H3258504  13.152  12.090  10.843 -1.8734 -2.4237 -3.5706
  132PROXS  H3358505  13.169  11.940  10.941 -0.6766 -0.6022 -1.2975
  133PROXS   O158506  13.017  12.039  11.141 -0.4386  0.1917  0.3136
  133PROXS   C158507  13.047  12.097  11.264  0.2877 -0.6510  1.0494
  133PROXS  H1158508  13.139  12.056  11.312 -0.1147 -0.3301  2.1324
  133PROXS  H1358509  13.064  12.206  11.252 -1.1478 -0.2892  1.9743
  133PROXS   C258510  12.926  12.088  11.363 -0.1883  0.0269 -0.7207
  133PROXS  H2158511  12.903  11.981  11.381  1.2991 -0.0433  1.0466
  133PROXS   C358512  12.796  12.161  11.319 -0.2734  0.1743 -0.7049
  133PROXS  H3158513  12.823  12.265  11.290 -1.9258  0.9667  0.4005
  133PROXS  H3258514  12.756  12.106  11.231  0.6001 -0.6883 -0.5716
  133PROXS  H3358515  12.715  12.159  11.395 -0.4695  2.3992 -0.7900
  134PROXS   O158516  12.962  12.152  11.485 -0.2413 -0.4068  0.1618
  134PROXS   C158517  13.007  12.053  11.577  0.2505 -0.1370  0.1231
  134PROXS  H1158518  12.934  11.969  11.573  3.1912 -2.8619 -0.7278
  134PROXS  H1358519  13.108  12.009  11.560 -0.0715 -1.0630  0.5050
  134PROXS   C258520  13.002  12.110  11.717 -0.8686 -0.3781  0.3009
  134PROXS  H2158521  12.899  12.150  11.733 -0.6501  0.7728 -0.9716
  134PROXS   C358522  13.092  12.230  11.730 -0.0888 -1.1296  0.7480
  134PROXS  H3158523  13.046  12.319  11.682 -0.3935 -1.4146  0.5023
  134PROXS  H3258524  13.111  12.255  11.836  2.9632  1.9473 -0.3457
  134PROXS  H3358525  13.195  12.203  11.697 -0.3401 -2.0059  0.6668
  135PROXS   O158526  13.033  12.012  11.813 -0.0413  0.0298 -0.0828
  135PROXS   C158527  12.933  11.916  11.840 -0.1075 -0.3833  0.0103
  135PROXS  H1158528  12.838  11.967  11.868 -0.5423 -0.5542 -1.1246
  135PROXS  H1358529  12.908  11.855  11.751  0.6665 -2.4454  1.1283
  135PROXS   C258530  12.977  11.821  11.944 -0.4438  0.8519  0.2009
  135PROXS  H2158531  12.977  11.865  12.046 -0.8475  3.1453 -0.7186
  135PROXS   C358532  13.121  11.771  11.917  0.2237  0.7046 -0.4780
  135PROXS  H3158533  13.116  11.701  11.832  1.8370  0.6393 -0.5547
  135PROXS  H3258534  13.190  11.855  11.892 -0.8205  1.9215  0.5725
  135PROXS  H3358535  13.167  11.736  12.012  1.4688  3.3587  0.0108
  136PROXS   O158536  12.882  11.714  11.930 -0.0768  0.0624 -0.4877
  136PROXS   C158537  12.875  11.626  12.047 -0.9501 -0.0136  0.3911
  136PROXS  H1158538  12.967  11.563  12.047  0.3829  1.8397  0.0577
  136PROXS  H1358539  12.877  11.690  12.138 -0.3443  0.6940 -0.1116
  136PROXS   C258540  12.751  11.522  12.043  0.8028  0.8232  0.5502
  136PROXS  H2158541  12.751  11.485  11.939  0.4880  1.5184  0.2979
  136PROXS   C358542  12.620  11.588  12.073  0.4727  0.4479 -0.2569
  136PROXS  H3158543  12.637  11.625  12.176  1.1870 -0.6487  0.0389
  136PROXS  H3258544  12.599  11.669  12.000  0.0203  0.2005 -0.4021
  136PROXS  H3358545  12.538  11.514  12.068 -0.5588  1.5455  0.0494
  137PROXS   O158546  12.787  11.411  12.128 -0.0680 -0.7668  0.6699
  137PROXS   C158547  12.696  11.304  12.112  0.4588  0.3004 -0.2655
  137PROXS  H1158548  12.626  11.317  12.198  0.2352 -1.6378 -0.1073
  137PROXS  H1358549  12.644  11.311  12.014  1.4045 -2.1661 -1.0190
  137PROXS   C258550  12.779  11.173  12.128 -0.5650  0.9959  0.4903
  137PROXS  H2158551  12.810  11.183  12.235  0.7289  0.6987  0.1562
  137PROXS   C358552  12.901  11.180  12.031  0.4481  0.1400  0.1760
  137PROXS  H3158553  12.958  11.269  12.065 -0.9999  1.0166  0.3715
  137PROXS  H3258554  12.966  11.090  12.046  1.3191  0.3649 -1.9595
  137PROXS  H3358555  12.869  11.179  11.925 -0.0808 -1.1663  0.3234
  138PROXR   O158556  12.694  11.056  12.109 -0.0419 -0.4533  0.6805
  138PROXR   C158557  12.775  10.942  12.114  0.3414 -0.7617  0.8230
  138PROXR  H1158558  12.818  10.921  12.014 -0.4177 -0.7230  0.4889
  138PROXR  H1358559  12.863  10.955  12.181  0.7968 -0.3874  0.1587
  138PROXR   C258560  12.682  10.830  12.167 -0.2855  0.4792 -0.2041
  138PROXR  H2158561  12.590  10.823  12.104 -0.6589 -0.1935  0.4095
  138PROXR   C358562  12.649  10.869  12.308  0.0591 -0.1805 -0.2985
  138PROXR  H3158563  12.736  10.902  12.368 -1.5577 -0.1736  2.2183
  138PROXR  H3258564  12.569  10.945  12.294  0.3150  0.0296 -0.6444
  138PROXR  H3358565  12.605  10.783  12.363 -0.4353 -0.2437 -0.7899
  139PROXS   O158566  12.757  10.706  12.168 -0.1238 -0.5918  0.3966
  139PROXS   C158567  12.681  10.589  12.191 -0.4914 -0.1447  0.6266
  139PROXS  H1158568  12.666  10.572  12.299  2.0005 -1.5308  0.8393
  139PROXS  H1358569  12.577  10.602  12.156 -0.7524 -2.3377  0.4572
  139PROXS   C258570  12.738  10.454  12.129  0.5596  0.0854 -0.6562
  139PROXS  H2158571  12.820  10.433  12.202  0.8952 -0.4301 -1.1766
  139PROXS   C358572  12.806  10.465  11.993  0.2705 -0.2706  0.2539
  139PROXS  H3158573  12.724  10.471  11.918  1.3082  1.5363 -0.8118
  139PROXS  H3258574  12.871  10.555  11.996  2.5111 -1.7663 -0.4288
  139PROXS  H3358575  12.875  10.379  11.978  0.8077  0.1551  0.2653
  140PROXR   O158576  12.634  10.352  12.134  0.3702 -0.0099  0.0911
  140PROXR   C158577  12.689  10.222  12.165  0.2135 -0.1461 -0.4994
  140PROXR  H1158578  12.731  10.175  12.075  1.0245 -1.7273  0.6613
  140PROXR  H1358579  12.760  10.229  12.250 -1.8969 -1.4667  1.5109
  140PROXR   C258580  12.576  10.126  12.214  1.0539  0.3812  0.2213
  140PROXR  H2158581  12.492  10.141  12.143  0.7281  1.3633  0.8001
  140PROXR   C358582  12.518  10.160  12.351  0.1345 -0.0829  0.1948
  140PROXR  H3158583  12.460  10.072  12.386  0.4670 -0.5701 -0.4660
  140PROXR  H3258584  12.594  10.161  12.433  1.7053 -1.7891 -1.1660
  140PROXR  H3358585  12.453  10.250  12.348  0.5372  0.2063  0.1068
  141PROXS   O158586  12.635   9.996  12.211  0.4029  0.2398  0.6031
  141PROXS   C158587  12.550   9.902  12.152  0.6356 -0.3323  0.6102
  141PROXS  H1158588  12.523   9.831  12.233 -0.6882 -0.1944  0.3010
  141PROXS  H1358589  12.462   9.959  12.117 -0.1689  0.3476  3.4725
  141PROXS   C258590  12.595   9.829  12.020  0.4082  0.7795 -0.2886
  141PROXS  H2158591  12.675   9.761  12.056  1.6246  2.9029  1.2727
  141PROXS   C358592  12.649   9.916  11.906  0.7421  0.8183 -0.4755
  141PROXS  H3158593  12.578  10.000  11.887 -0.3248 -0.2650 -1.4128
  141PROXS  H3258594  12.749   9.954  11.937  1.2725 -0.7235 -0.2409
  141PROXS  H3358595  12.671   9.857  11.814  1.9619 -1.5424  1.2194
  142PROXS   O158596  12.482   9.753  11.958 -0.2371  0.4018 -0.4775
  142PROXS   C158597  12.489   9.615  11.991  0.4771  0.4402  0.4808
  142PROXS  H1158598  12.593   9.577  11.978 -0.0709 -0.9648  0.0468
  142PROXS  H1358599  12.452   9.588  12.092  0.6225 -0.7327  0.2392
  142PROXS   C258600  12.401   9.537  11.876 -0.2518  0.3892  0.1579
  142PROXS  H2158601  12.418   9.581  11.775 -1.0739 -1.0035 -0.6146
  142PROXS   C358602  12.256   9.563  11.903  0.0022 -0.0777 -0.2902
  142PROXS  H3158603  12.244   9.672  11.914 -0.6257 -0.2702  1.1532
  142PROXS  H3258604  12.193   9.526  11.820  0.3522 -1.3703 -0.0184
  142PROXS  H3358605  12.223   9.516  11.999  1.2010 -1.5604 -0.5526
  143PROXS   O158606  12.441   9.397  11.883  0.4425 -0.5950 -0.1024
  143PROXS   C158607  12.373   9.309  11.785  0.2130  0.1127  0.2841
  143PROXS  H1158608  12.273   9.285  11.828  1.1249 -1.9420  1.4121
  143PROXS  H1358609  12.354   9.357  11.687 -2.0203 -1.6314 -0.2326
  143PROXS   C258610  12.453   9.183  11.752 -0.3849 -0.5460  0.2799
  143PROXS  H2158611  12.455   9.130  11.850 -0.2566 -0.3024  0.4079
  143PROXS   C358612  12.593   9.203  11.700  0.0232 -0.6085 -0.0208
  143PROXS  H3158613  12.593   9.275  11.615  1.2014 -0.3551  0.1689
  143PROXS  H3258614  12.663   9.260  11.765  0.0521 -0.0330 -0.5469
  143PROXS  H3358615  12.637   9.107  11.666 -1.1486 -1.1541 -0.0379
  144PROXS   O158616  12.372   9.108  11.663  0.0643 -0.1100  0.5806
  144PROXS   C158617  12.374   8.966  11.700 -0.4865  1.3541  0.5241
  144PROXS  H1158618  12.354   8.898  11.614  0.1294  0.7224  0.8745
  144PROXS  H1358619  12.473   8.934  11.739 -0.9541 -0.2120  0.4848
  144PROXS   C258620  12.273   8.936  11.812 -0.3285  0.1112  0.2134
  144PROXS  H2158621  12.316   8.987  11.901  1.7772  0.6617 -1.0588
  144PROXS   C358622  12.266   8.779  11.839 -0.0299 -0.4727  0.0104
  144PROXS  H3158623  12.169   8.758  11.888  0.6475  0.3992  1.7933
  144PROXS  H3258624  12.259   8.729  11.740  0.2957  2.2259 -1.4844
  144PROXS  H3358625  12.351   8.744  11.902 -0.7003 -1.3480  0.4422
  145PROXR   O158626  12.148   8.999  11.778  0.7620 -0.4574  0.0870
  145PROXR   C158627  12.054   9.011  11.885 -0.0039  0.1230  0.2109
  145PROXR  H1158628  12.034   8.906  11.915 -1.3357  0.2773 -0.0559
  145PROXR  H1358629  12.097   9.072  11.967 -0.2260  0.2072  0.2673
  145PROXR   C258630  11.920   9.075  11.838 -0.5290  0.0416  0.7737
  145PROXR  H2158631  11.881   9.019  11.751  1.5805  2.3554 -1.8702
  145PROXR   C358632  11.956   9.217  11.789  0.7778  0.6505 -0.1503
  145PROXR  H3158633  12.037   9.205  11.713  0.2517  1.0610 -0.7860
  145PROXR  H3258634  11.863   9.246  11.737  1.2738  2.9965  0.1702
  145PROXR  H3358635  11.982   9.285  11.872 -0.2619 -0.6714  1.3135
  146PROXS   O158636  11.821   9.064  11.944  0.7317 -0.0460  0.2734
  146PROXS   C158637  11.688   9.054  11.890 -0.9404 -0.0374 -0.5907
  146PROXS  H1158638  11.663   9.144  11.830  1.4306 -1.0400 -3.3702
  146PROXS  H1358639  11.685   8.987  11.801 -2.6628 -0.7606 -0.0285
  146PROXS   C258640  11.586   9.007  11.992 -0.4924  0.0185 -0.0414
  146PROXS  H2158641  11.592   9.070  12.084  1.2650 -1.0442  0.6165
  146PROXS   C358642  11.601   8.855  12.041 -0.0103 -0.4528  0.8078
  146PROXS  H3158643  11.691   8.849  12.107  0.5549 -0.6295  0.0277
  146PROXS  H3258644  11.503   8.830  12.087 -1.2616  3.3729  0.5399
  146PROXS  H3358645  11.624   8.793  11.952  0.2707 -1.3546  1.4854
  147PROXR   O158646  11.459   9.004  11.935  0.7037  0.0407  0.3658
  147PROXR   C158647  11.389   9.134  11.927  0.2350 -0.3009 -0.2712
  147PROXR  H1158648  11.468   9.203  11.891  1.4389 -2.5777 -2.2050
  147PROXR  H1358649  11.297   9.122  11.865 -1.2256 -0.6239  1.8528
  147PROXR   C258650  11.338   9.169  12.060 -0.6278 -0.5507 -0.2872
  147PROXR  H2158651  11.412   9.177  12.142  0.0965 -0.2782 -0.9527
  147PROXR   C358652  11.243   9.071  12.115  0.5136 -0.5292  0.0592
  147PROXR  H3158653  11.296   8.975  12.133 -0.5910 -1.0696  0.5809
  147PROXR  H3258654  11.211   9.117  12.211  0.4753 -0.7559  0.1565
  147PROXR  H3358655  11.164   9.041  12.043 -0.8867  0.6197  1.0503
  148PROXR   O158656  11.255   9.289  12.051 -0.4120 -0.4545  0.4229
  148PROXR   C158657  11.321   9.410  11.999 -0.1641 -0.3163  0.0118
  148PROXR  H1158658  11.428   9.407  12.027  0.0354  1.6884 -0.4001
  148PROXR  H1358659  11.320   9.404  11.888  4.1319  1.6972 -0.3221
  148PROXR   C258660  11.260   9.548  12.060 -0.0715  0.0047  0.3342
  148PROXR  H2158661  11.293   9.536  12.165  2.2743  3.2177  0.1025
  148PROXR   C358662  11.106   9.543  12.068 -1.1452 -0.8260 -0.4322
  148PROXR  H3158663  11.072   9.492  12.160 -3.3958 -0.0797 -0.8119
  148PROXR  H3258664  11.056   9.642  12.063  1.3661  0.5010 -1.0573
  148PROXR  H3358665  11.063   9.495  11.977  2.0832  0.7328 -3.0173
  149PROXR   O158666  11.321   9.661  12.000  0.9690 -0.0864 -0.3514
  149PROXR   C158667  11.438   9.692  12.067  0.0665  0.2329 -0.9100
  149PROXR  H1158668  11.413   9.707  12.174 -2.7760 -3.3201 -0.8669
  149PROXR  H1358669  11.516   9.613  12.067  0.1620  0.2802  1.2377
  149PROXR   C258670  11.503   9.812  11.992  0.2527  0.2579  1.0175
  149PROXR  H2158671  11.434   9.898  11.986 -0.0866 -0.1300 -1.5918
  149PROXR   C358672  11.548   9.766  11.845 -0.1890 -0.2611  0.5968
  149PROXR  H3158673  11.608   9.674  11.857 -0.1377 -0.2525  0.4045
  149PROXR  H3258674  11.462   9.733  11.782 -0.4405 -1.5864  1.5925
  149PROXR  H3358675  11.591   9.847  11.783  0.6778 -0.7629  0.5392
  150PROXS   O158676  11.617   9.856  12.064  0.6973  0.2563 -0.1164
  150PROXS   C158677  11.668   9.979  12.015  0.1306  0.6188  0.2535
  150PROXS  H1158678  11.711   9.964  11.914  0.0753  0.1278  0.3006
  150PROXS  H1358679  11.589  10.057  12.005 -0.4093 -0.0270 -0.5580
  150PROXS   C258680  11.777  10.032  12.109  0.1253 -0.2235 -0.3996
  150PROXS  H2158681  11.859   9.957  12.104 -0.0316 -0.4802  0.6206
  150PROXS   C358682  11.740  10.040  12.258 -0.5710  1.1902  0.0490
  150PROXS  H3158683  11.827  10.041  12.328  0.2386 -0.5510 -0.8531
  150PROXS  H3258684  11.693  10.140  12.265  2.3275  2.8326 -1.6656
  150PROXS  H3358685  11.675   9.957  12.292 -0.0206  1.0503  0.7925
  151PROXR   O158686  11.810  10.165  12.065 -0.3429 -0.2509 -0.1783
  151PROXR   C158687  11.947  10.200  12.089  0.3092  0.7602 -0.2795
  151PROXR  H1158688  11.964  10.185  12.197  0.2423 -0.1670 -0.3844
  151PROXR  H1358689  12.020  10.131  12.041  0.3331  1.1929 -0.8780
  151PROXR   C258690  11.976  10.346  12.040 -0.1337  0.5738 -0.0538
  151PROXR  H2158691  11.908  10.414  12.095 -0.6798  1.3124 -1.5790
  151PROXR   C358692  11.941  10.358  11.894 -0.3263 -0.6871  0.2043
  151PROXR  H3158693  12.012  10.306  11.827  0.1904  2.8714 -2.2746
  151PROXR  H3258694  11.835  10.332  11.871 -1.1871  2.1469  0.5973
  151PROXR  H3358695  11.958  10.462  11.860  2.2827 -2.3670 -4.4727
  152PROXR   O158696  12.115  10.384  12.064 -0.4429  0.3282  0.7503
  152PROXR   C158697  12.129  10.523  12.061  0.0873  0.2548 -0.1328
  152PROXR  H1158698  12.113  10.563  11.959  0.1298 -1.0821 -0.6879
  152PROXR  H1358699  12.066  10.578  12.134 -0.0850 -0.5882  0.3712
  152PROXR   C258700  12.271  10.565  12.112  0.4317 -0.1492  0.3618
  152PROXR  H2158701  12.348  10.513  12.052  0.3429  0.4306 -0.2559
  152PROXR   C358702  12.296  10.551  12.265 -0.1760 -0.2765 -1.3356
  152PROXR  H3158703  12.210  10.602  12.314 -0.9092  1.2236 -3.9806
  152PROXR  H3258704  12.307  10.447  12.303 -3.6479 -0.8211 -1.4684
  152PROXR  H3358705  12.384  10.614  12.288 -0.5033  0.3681 -1.8311
  153PROXR   O158706  12.287  10.707  12.098 -0.7786  0.2866 -0.6847
  153PROXR   C158707  12.343  10.741  11.976 -0.8926  0.1705 -0.5506
  153PROXR  H1158708  12.453  10.725  11.972 -0.1388  4.4279 -1.7671
  153PROXR  H1358709  12.300  10.680  11.893 -0.3537  1.1883 -1.6182
  153PROXR   C258710  12.324  10.890  11.938 -0.5394 -0.0986  0.1953
  153PROXR  H2158711  12.372  10.938  12.026  2.5425  0.0034 -1.4078
  153PROXR   C358712  12.183  10.941  11.910  0.0792  0.1913  0.0542
  153PROXR  H3158713  12.115  10.928  11.997 -0.5005  1.2090 -0.2337
  153PROXR  H3258714  12.195  11.050  11.890 -0.7662  0.1400 -0.7939
  153PROXR  H3358715  12.140  10.884  11.826  1.8990 -1.8071  0.3921
  154PROXS   O158716  12.398  10.920  11.820  0.1368  0.0106 -0.3838
  154PROXS   C158717  12.538  10.933  11.840 -0.4337  0.0482  0.3716
  154PROXS  H1158718  12.558  11.021  11.905  1.5385  0.5554 -0.8487
  154PROXS  H1358719  12.585  10.847  11.892 -2.5762 -1.1356  0.4438
  154PROXS   C258720  12.608  10.943  11.707 -0.0505 -0.6257 -0.4434
  154PROXS  H2158721  12.576  11.025  11.639 -0.3479 -3.7672 -4.5187
  154PROXS   C358722  12.592  10.809  11.637  0.0976  0.9029  0.0424
  154PROXS  H3158723  12.484  10.796  11.615 -0.5752  0.6395  3.0427
  154PROXS  H3258724  12.651  10.798  11.544  1.2843  0.8787  0.7696
  154PROXS  H3358725  12.627  10.727  11.703  0.5232  0.4802 -0.6999
  155PROXR   O158726  12.747  10.957  11.731 -0.0808 -0.2426 -0.3918
  155PROXR   C158727  12.830  10.969  11.614  0.1602 -0.9224  0.4952
  155PROXR  H1158728  12.841  10.875  11.557  0.4444 -0.1213 -0.8143
  155PROXR  H1358729  12.780  11.046  11.552 -0.5508 -1.3681  0.5061
  155PROXR   C258730  12.973  11.010  11.646 -0.5446 -0.5130 -0.6055
  155PROXR  H2158731  12.974  11.116  11.678 -0.4315 -0.0677 -2.0349
  155PROXR   C358732  13.060  11.016  11.517  0.3853 -0.1498 -0.3328
  155PROXR  H3158733  13.082  10.910  11.491  0.8667 -0.4292  1.1224
  155PROXR  H3258734  13.006  11.071  11.437 -0.2143 -0.4423 -0.1403
  155PROXR  H3358735  13.151  11.074  11.542 -0.7622  0.8865  1.7772
  156PROXS   O158736  13.031  10.925  11.742 -0.6096  0.5008 -0.4433
  156PROXS   C158737  13.134  10.990  11.811 -0.3213  0.7307 -0.9206
  156PROXS  H1158738  13.222  11.003  11.744  0.7929  0.7521  0.4748
  156PROXS  H1358739  13.111  11.089  11.856 -1.8512 -0.3629  0.8371
  156PROXS   C258740  13.191  10.890  11.915  0.1169  0.2256  0.0956
  156PROXS  H2158741  13.116  10.833  11.974  1.3299 -0.8673  0.6402
  156PROXS   C358742  13.282  10.965  12.014  0.5761  0.8539 -0.9757
  156PROXS  H3158743  13.226  11.048  12.062 -1.2622 -0.7055 -0.3228
  156PROXS  H3258744  13.307  10.898  12.098  0.0417  1.8399 -0.0019
  156PROXS  H3358745  13.373  10.991  11.955  1.1245  3.1270  0.7418
  157PROXS   O158746  13.273  10.797  11.855 -0.0113 -0.0748 -0.3265
  157PROXS   C158747  13.215  10.711  11.758  0.6285  0.7542 -0.3482
  157PROXS  H1158748  13.168  10.755  11.667  1.1729  0.9309 -0.5440
  157PROXS  H1358749  13.295  10.642  11.727 -0.7393 -0.3289 -1.6387
  157PROXS   C258750  13.105  10.617  11.827 -0.2365  0.2075 -0.5654
  157PROXS  H2158751  13.015  10.675  11.859 -0.3703 -0.9465  1.2446
  157PROXS   C358752  13.171  10.538  11.946  0.0296  0.1465 -0.3299
  157PROXS  H3158753  13.245  10.462  11.913 -1.7256 -1.5864 -0.4644
  157PROXS  H3258754  13.212  10.611  12.019 -0.6695  1.0872 -0.8535
  157PROXS  H3358755  13.089  10.483  11.998 -0.8161  1.5695 -0.0949
  158PROXR   O158756  13.066  10.522  11.731 -0.2092  0.1310 -0.3961
  158PROXR   C158757  12.948  10.562  11.663 -0.4476 -0.8036  0.0434
  158PROXR  H1158758  12.859  10.547  11.729  0.1397 -1.1089  0.7856
  158PROXR  H1358759  12.967  10.669  11.640  1.4342 -1.1325 -0.0401
  158PROXR   C258760  12.942  10.475  11.542 -0.3646  1.2538 -0.0333
  158PROXR  H2158761  12.965  10.369  11.569 -2.4891  0.7811  0.1472
  158PROXR   C358762  13.040  10.513  11.432  0.2113 -0.0823  0.4937
  158PROXR  H3158763  13.032  10.427  11.362 -0.2521 -1.5919  2.3431
  158PROXR  H3258764  13.002  10.606  11.383 -1.2829 -1.8074 -1.8364
  158PROXR  H3358765  13.144  10.528  11.468 -0.0429  0.6475  0.9507
  159PROXR   O158766  12.815  10.470  11.476 -0.1037  0.0691  0.5029
  159PROXR   C158767  12.704  10.427  11.556 -0.4592  0.0730 -1.3354
  159PROXR  H1158768  12.738  10.344  11.622  3.0016 -0.9113 -4.0171
  159PROXR  H1358769  12.680  10.512  11.624  0.6771 -0.9491  0.4165
  159PROXR   C258770  12.578  10.399  11.464 -1.3105  0.1162 -0.2331
  159PROXR  H2158771  12.584  10.318  11.389 -0.5310 -0.8853  0.8712
  159PROXR   C358772  12.549  10.527  11.382  0.0025 -0.2120  0.1235
  159PROXR  H3158773  12.619  10.544  11.297 -0.6903  0.6763 -0.2877
  159PROXR  H3258774  12.447  10.525  11.339  0.2440 -0.4629 -0.4558
  159PROXR  H3358775  12.547  10.620  11.443 -0.8124 -0.8593  1.1059
  160PROXS   O158776  12.469  10.385  11.549  0.1302 -0.9125 -0.1392
  160PROXS   C158777  12.445  10.249  11.594 -0.2875 -0.3343 -0.3548
  160PROXS  H1158778  12.370  10.204  11.525  0.3525 -0.1191 -1.2090
  160PROXS  H1358779  12.537  10.187  11.595  0.1382  0.2666 -1.2580
  160PROXS   C258780  12.389  10.249  11.742 -0.3590 -0.5123  0.3388
  160PROXS  H2158781  12.300  10.315  11.743 -0.4261 -0.5495 -0.8105
  160PROXS   C358782  12.496  10.305  11.841 -0.3692 -0.1587  0.1492
  160PROXS  H3158783  12.576  10.229  11.853 -2.0855 -2.1636 -0.3816
  160PROXS  H3258784  12.537  10.400  11.801 -4.4231  1.3158 -0.9941
  160PROXS  H3358785  12.445  10.334  11.935  1.5205  1.4377  0.7536
  161PROXR   O158786  12.353  10.113  11.777 -0.0308  0.2995 -0.6686
  161PROXR   C158787  12.277  10.124  11.900  0.1909  0.0203 -0.3853
  161PROXR  H1158788  12.344  10.164  11.980  1.2406 -2.4314  0.0415
  161PROXR  H1358789  12.187  10.188  11.888 -0.8804 -1.0785  1.2576
  161PROXR   C258790  12.225   9.987  11.949  0.1731 -0.3222  0.0502
  161PROXR  H2158791  12.317   9.926  11.956 -0.4308 -1.2999 -0.2522
  161PROXR   C358792  12.125   9.923  11.849  0.3444 -0.3726  0.2277
  161PROXR  H3158793  12.097   9.816  11.861 -1.2304  0.3176  4.5503
  161PROXR  H3258794  12.025   9.971  11.858  0.7296  0.1768  1.7033
  161PROXR  H3358795  12.172   9.946  11.751  3.9756 -1.1374  1.6311
  162PROXR   O158796  12.172   9.981  12.079 -0.2120 -0.1725  0.5779
  162PROXR   C158797  12.169   9.855  12.140  0.5414  1.1658  0.2499
  162PROXR  H1158798  12.102   9.789  12.082 -0.3199  0.3894  2.0282
  162PROXR  H1358799  12.272   9.815  12.151  0.2634  0.4246  0.2506
  162PROXR   C258800  12.112   9.865  12.284  0.1158  0.7335  0.3171
  162PROXR  H2158801  12.013   9.909  12.259  0.4795  0.1139 -2.5784
  162PROXR   C358802  12.190   9.941  12.396  0.3595  0.2901  0.4002
  162PROXR  H3158803  12.296   9.908  12.386 -0.0882 -1.1250 -0.0491
  162PROXR  H3258804  12.174  10.049  12.375 -3.4976 -0.2646 -0.3086
  162PROXR  H3358805  12.159   9.908  12.497  0.2663 -0.2768  0.1932
  163PROXS   O158806  12.100   9.733  12.329 -0.1877  0.0315  0.7063
  163PROXS   C158807  11.973   9.683  12.312 -0.3987  0.0600  0.2252
  163PROXS  H1158808  11.907   9.722  12.392 -0.8607 -0.4695  0.1082
  163PROXS  H1358809  11.933   9.693  12.209  0.8440 -0.7278 -0.3704
  163PROXS   C258810  11.965   9.528  12.347 -0.2884 -0.3835  0.5803
  163PROXS  H2158811  12.002   9.523  12.451 -0.1152 -0.0964  0.5351
  163PROXS   C358812  12.051   9.439  12.253 -0.0235  0.3873 -0.4834
  163PROXS  H3158813  12.158   9.467  12.258 -0.2602  1.1324  2.1858
  163PROXS  H3258814  12.039   9.330  12.268 -3.2750  0.5640 -0.9814
  163PROXS  H3358815  12.026   9.469  12.149  3.3458 -1.3621 -1.9636
  164PROXR   O158816  11.829   9.475  12.331 -0.1426  0.0343 -0.4110
  164PROXR   C158817  11.739   9.537  12.428 -0.0315  0.0543 -0.0477
  164PROXR  H1158818  11.784   9.539  12.529 -0.6735 -0.7414  0.2609
  164PROXR  H1358819  11.709   9.640  12.400  0.4722 -0.1180 -1.3239
  164PROXR   C258820  11.610   9.449  12.427 -0.1724  0.7412 -0.0303
  164PROXR  H2158821  11.581   9.449  12.319  0.7564 -0.1204 -0.2892
  164PROXR   C358822  11.498   9.514  12.509 -0.1795  0.5357 -0.3182
  164PROXR  H3158823  11.465   9.609  12.462  1.0929  2.0953  1.7630
  164PROXR  H3258824  11.411   9.445  12.515 -1.0002  1.4992 -0.9346
  164PROXR  H3358825  11.543   9.527  12.610 -0.9758 -0.4220  0.1838
  165PROXR   O158826  11.648   9.321  12.478 -0.2147 -0.4383  0.2463
  165PROXR   C158827  11.547   9.223  12.454 -0.0879 -0.4779 -0.1748
  165PROXR  H1158828  11.474   9.228  12.537  0.5767  0.4388  0.3722
  165PROXR  H1358829  11.493   9.253  12.361 -1.1410  2.4297  1.2569
  165PROXR   C258830  11.600   9.077  12.451 -0.4585  0.3693 -0.5777
  165PROXR  H2158831  11.615   9.044  12.556 -0.7181 -0.1792 -0.7085
  165PROXR   C358832  11.725   9.067  12.369 -0.4377 -0.2390  0.1137
  165PROXR  H3158833  11.736   8.964  12.329 -0.5315  0.8333 -2.9462
  165PROXR  H3258834  11.707   9.142  12.289  1.2090  0.9625  0.8118
  165PROXR  H3358835  11.810   9.103  12.431 -0.6728  4.4640 -1.8802
  166ETHOX   O158836  11.497   8.996  12.394  0.1322 -0.0909 -0.5695
  166ETHOX   C158837  11.506   8.861  12.448 -0.3213 -0.1701 -0.0389
  166ETHOX  H1158838  11.498   8.858  12.558 -0.7280 -0.2526 -0.0674
  166ETHOX  H1358839  11.601   8.808  12.424  0.6464  1.5899 -0.2658
  166ETHOX   C258840  11.399   8.769  12.395 -0.3289  0.0856  0.2902
  166ETHOX  H2158841  11.406   8.661  12.417 -0.5105 -0.1033 -0.5638
  166ETHOX  H2358842  11.399   8.779  12.284 -0.6656  1.6205  0.3934
  167ETHOX   O158843  11.281   8.819  12.451  0.2115  0.0064 -0.4574
  167ETHOX   C158844  11.165   8.773  12.377  0.4885 -0.2148 -0.0625
  167ETHOX  H1158845  11.193   8.814  12.278 -2.7442  2.3053 -0.0994
  167ETHOX  H1358846  11.164   8.662  12.373  1.0066 -0.2480  0.4779
  167ETHOX   C258847  11.034   8.842  12.422  0.4314  0.1403 -0.5259
  167ETHOX  H2158848  10.954   8.834  12.345 -0.8702 -1.6797  0.9215
  167ETHOX  H2358849  11.048   8.951  12.441 -1.7294  0.1647  1.3586
  168ETHOX   O158850  10.981   8.782  12.540 -0.3744  0.5342  0.1762
  168ETHOX   C158851  10.842   8.822  12.554  0.3347  0.2303  0.5778
  168ETHOX  H1158852  10.778   8.769  12.480  0.3392  1.6593 -0.4977
  168ETHOX  H1358853  10.824   8.931  12.543 -1.5400  0.1197  2.2035
  168ETHOX   C258854  10.767   8.784  12.688 -0.5042 -1.4599 -0.7588
  168ETHOX  H2158855  10.802   8.679  12.701  1.8806 -0.4917  1.4846
  168ETHOX  H2358856  10.656   8.791  12.678 -0.4352 -1.7471 -1.8257
  169ETHOX   O158857  10.815   8.856  12.809  0.1474 -0.0112 -0.0163
  169ETHOX   C158858  10.728   8.832  12.920 -0.5788  0.7172  0.2685
  169ETHOX  H1158859  10.773   8.886  13.006 -0.0059 -2.3304  2.0323
  169ETHOX  H1358860  10.629   8.875  12.898 -0.8553  0.2149  0.5165
  169ETHOX   C258861  10.727   8.683  12.967  0.9339 -0.2141 -0.7662
  169ETHOX  H2158862  10.684   8.686  13.069  2.2604 -1.6300 -0.1432
  169ETHOX  H2358863  10.826   8.634  12.969  0.5318 -1.0208  0.8548
  170ETHOX   O158864  10.633   8.596  12.902 -0.2884  0.6543 -0.1561
  170ETHOX   C158865  10.657   8.460  12.939  0.0428 -0.2654 -0.2808
  170ETHOX  H1158866  10.601   8.434  13.031  0.6955 -0.4965  0.0509
  170ETHOX  H1358867  10.765   8.449  12.961  0.2907  2.4537  0.2624
  170ETHOX   C258868  10.598   8.376  12.828  0.9441  0.2086 -0.7664
  170ETHOX  H2158869  10.628   8.414  12.728 -0.2563 -2.9136 -2.4475
  170ETHOX  H2358870  10.489   8.358  12.837  1.1562 -0.1179  2.4792
  171ETHOX   O158871  10.652   8.251  12.845  0.3062 -0.2414  0.3714
  171ETHOX   C158872  10.628   8.162  12.740  0.0991 -0.0121  0.0656
  171ETHOX  H1158873  10.636   8.059  12.781  1.2202 -0.3465 -0.9131
  171ETHOX  H1358874  10.527   8.170  12.695 -0.1874  0.4377  0.7799
  171ETHOX   C258875  10.728   8.174  12.628 -0.1425 -0.3403  0.3789
  171ETHOX  H2158876  10.699   8.096  12.554 -1.0088  1.0749 -0.8053
  171ETHOX  H2358877  10.835   8.156  12.655 -0.1686 -0.5705  0.3352
  172ETHOX   O158878  10.697   8.295  12.560 -0.3630  0.1438  0.1039
  172ETHOX   C158879  10.813   8.342  12.498  0.6525 -0.3434  0.4826
  172ETHOX  H1158880  10.853   8.257  12.438 -0.2243 -0.6311  0.2984
  172ETHOX  H1358881  10.900   8.359  12.566  0.1888 -0.0438  1.0091
  172ETHOX   C258882  10.799   8.472  12.422  1.0735 -0.3165  0.2162
  172ETHOX  H2158883  10.899   8.519  12.410  0.9268 -0.2892 -1.1194
  172ETHOX  H2358884  10.732   8.548  12.468  1.8943  1.1464 -0.9187
  173ETHOX   O158885  10.766   8.453  12.282  0.8274  0.0564  0.9358
  173ETHOX   C158886  10.631   8.402  12.266 -0.3095  0.6303  0.2310
  173ETHOX  H1158887  10.610   8.309  12.322 -0.4568 -0.6727 -1.8942
  173ETHOX  H1358888  10.564   8.485  12.298  0.6152  1.7203 -0.5753
  173ETHOX   C258889  10.604   8.370  12.122 -0.1466 -0.4983  0.6672
  173ETHOX  H2158890  10.496   8.349  12.105 -0.4134  1.2574  0.0002
  173ETHOX  H2358891  10.616   8.460  12.059  0.5583 -1.9085 -1.2852
  174ETHOX   O158892  10.683   8.262  12.080 -0.0632  0.1179  0.4322
  174ETHOX   C158893  10.626   8.213  11.958  0.4969 -0.4334  0.2212
  174ETHOX  H1158894  10.524   8.178  11.983  0.1787  1.0577  1.0909
  174ETHOX  H1358895  10.620   8.296  11.884  0.6815 -0.9876 -0.4303
  174ETHOX   C258896  10.708   8.096  11.897 -0.8051 -0.5768 -0.7191
  174ETHOX  H2158897  10.656   8.057  11.806 -0.2478 -0.7318 -0.9744
  174ETHOX  H2358898  10.714   8.015  11.973 -0.1345 -1.6790 -1.8982
  175ETHOX   O158899  10.835   8.141  11.869  0.2663  0.2269 -0.1539
  175ETHOX   C158900  10.916   8.039  11.829  0.4301  0.2027 -0.4069
  175ETHOX  H1158901  10.903   7.953  11.899 -2.4880  0.2068 -0.8104
  175ETHOX  H1358902  10.870   8.015  11.731 -0.4702 -0.4719  0.1605
  175ETHOX   C258903  11.057   8.080  11.807  0.0017 -0.2881  0.4845
  175ETHOX  H2158904  11.055   8.171  11.743 -2.1193 -0.6421 -0.0447
  175ETHOX  H2358905  11.084   7.984  11.758 -1.2687 -1.5890  2.1863
  176ETHOX   O158906  11.134   8.105  11.926  0.2432 -0.2728  0.4737
  176ETHOX   C158907  11.271   8.078  11.912 -0.3609  0.3307  0.7659
  176ETHOX  H1158908  11.314   8.065  12.014  2.1395 -1.8158 -0.4412
  176ETHOX  H1358909  11.279   7.977  11.866 -1.8797 -0.2517  1.7039
  176ETHOX   C258910  11.356   8.161  11.822 -0.2850 -0.2410  0.1819
  176ETHOX  H2158911  11.312   8.178  11.722 -2.2713 -4.4516  0.1487
  176ETHOX  H2358912  11.451   8.106  11.806 -0.2151 -0.0962  0.0831
  177ETHOX   O158913  11.402   8.284  11.879 -0.0943  0.1330  0.9059
  177ETHOX   C158914  11.320   8.387  11.836 -0.0540 -0.0453  0.5169
  177ETHOX  H1158915  11.217   8.381  11.877 -0.0882 -1.5177  0.2755
  177ETHOX  H1358916  11.316   8.374  11.726  1.9936  0.1064  0.3912
  177ETHOX   C258917  11.359   8.531  11.877  0.6226 -0.1654  0.3275
  177ETHOX  H2158918  11.460   8.538  11.832  0.1162  0.9091 -0.7016
  177ETHOX  H2358919  11.362   8.551  11.986 -1.2083 -1.4054  0.6620
  178ETHOX   O158920  11.283   8.620  11.800  0.3662  0.1092 -0.1606
  178ETHOX   C158921  11.264   8.739  11.870  0.2502 -0.8435 -0.5283
  178ETHOX  H1158922  11.226   8.720  11.972 -0.2680 -2.4554 -0.9870
  178ETHOX  H1358923  11.367   8.780  11.879  0.5155 -1.3805 -1.0674
  178ETHOX   C258924  11.161   8.829  11.800  0.1707 -0.2351  0.1885
  178ETHOX  H2158925  11.167   8.825  11.689  0.4538 -0.9522  0.2223
  178ETHOX  H2358926  11.181   8.933  11.830  2.2361 -0.2494 -0.9577
  179ETHOX   O158927  11.027   8.790  11.836  0.0386 -0.4582  0.2343
  179ETHOX   C158928  10.933   8.857  11.756  0.2671  0.4881 -0.0042
  179ETHOX  H1158929  10.836   8.805  11.765  1.6248 -1.8726  2.9928
  179ETHOX  H1358930  10.977   8.847  11.655  1.1060  1.6503  0.2156
  179ETHOX   C258931  10.921   9.009  11.787  0.2895 -0.9264  0.1672
  179ETHOX  H2158932  10.842   9.051  11.721 -0.3769 -0.5929  1.1520
  179ETHOX  H2358933  11.011   9.070  11.762  0.3814 -0.7147  0.9964
  180ETHOX   O158934  10.880   9.035  11.925  0.1694 -0.1199 -0.3052
  180ETHOX   C158935  10.929   9.160  11.968  0.1310 -0.3281  0.2010
  180ETHOX  H1158936  11.035   9.177  11.940 -0.0992  0.0675 -0.4828
  180ETHOX  H1358937  10.874   9.236  11.908 -0.6639  0.1924  1.5482
  180ETHOX   C258938  10.907   9.182  12.114  0.1711  0.5215 -0.3769
  180ETHOX  H2158939  10.973   9.267  12.140  0.0175  0.4817  0.1388
  180ETHOX  H2358940  10.940   9.087  12.161 -0.3743 -1.0987 -3.0421
  181ETHOX   O158941  10.770   9.202  12.148  0.1777  0.2995 -1.0145
  181ETHOX   C158942  10.732   9.209  12.288  0.4422  0.4849  0.5059
  181ETHOX  H1158943  10.770   9.118  12.340  0.6462 -0.1573 -0.7100
  181ETHOX  H1358944  10.623   9.211  12.309  0.5461 -1.3789  1.5121
  181ETHOX   C258945  10.803   9.331  12.351 -0.8215 -0.1754 -0.1466
  181ETHOX  H2158946  10.763   9.355  12.452 -0.9875  0.5814 -0.3835
  181ETHOX  H2358947  10.778   9.415  12.283 -0.5229  0.5453  0.6173
  182ETHOX   O158948  10.947   9.316  12.369 -0.1437  0.0079  0.4217
  182ETHOX   C158949  10.991   9.273  12.494  0.0300 -0.4015 -1.2742
  182ETHOX  H1158950  10.957   9.342  12.574  1.2642 -2.3226  1.0342
  182ETHOX  H1358951  10.945   9.173  12.512  0.8044 -0.9466 -2.2302
  182ETHOX   C258952  11.143   9.276  12.498  0.4503  0.6430  0.0369
  182ETHOX  H2158953  11.171   9.380  12.468  0.7279  0.8125  0.8778
  182ETHOX  H2358954  11.194   9.204  12.431  0.5508  0.4591  0.3104
  183ETHOX   O158955  11.198   9.251  12.627 -0.0639 -0.2508  0.0740
  183ETHOX   C158956  11.194   9.111  12.659  0.9666 -0.4005  0.6089
  183ETHOX  H1158957  11.255   9.055  12.585  0.5812 -1.0713  0.7891
  183ETHOX  H1358958  11.086   9.084  12.668  1.2622 -1.9431 -0.1976
  183ETHOX   C258959  11.262   9.093  12.800  0.2679  0.1255 -0.1951
  183ETHOX  H2158960  11.344   9.168  12.807 -0.7057  1.1784  0.1806
  183ETHOX  H2358961  11.297   8.987  12.804  1.6920  0.5876  0.1823
  184ETHOX   O158962  11.173   9.127  12.904  0.1656  0.3685  0.7699
  184ETHOX   C158963  11.240   9.125  13.032 -0.0615  0.2683 -0.8108
  184ETHOX  H1158964  11.345   9.161  13.024  0.0378 -0.3329 -2.9449
  184ETHOX  H1358965  11.186   9.192  13.101  1.7131  0.1986  0.7273
  184ETHOX   C258966  11.245   8.981  13.079 -0.2302 -0.2405  0.0687
  184ETHOX  H2158967  11.280   8.910  13.001 -1.0025  0.6398 -1.1029
  184ETHOX  H2358968  11.143   8.950  13.110 -0.4029  0.8561  0.6342
  185ETHOX   O158969  11.332   8.964  13.191 -0.4708  0.0097 -0.5642
  185ETHOX   C158970  11.312   8.836  13.244 -0.1031  0.0322 -0.2321
  185ETHOX  H1158971  11.212   8.835  13.292  0.7405  2.0331  1.7037
  185ETHOX  H1358972  11.294   8.769  13.157 -2.3434  1.7839 -1.2033
  185ETHOX   C258973  11.423   8.797  13.347  0.1219 -0.2304  0.7870
  185ETHOX  H2158974  11.494   8.881  13.363 -1.0342  1.0151 -0.4166
  185ETHOX  H2358975  11.490   8.714  13.315  1.2982  0.6677  0.8571
  186ETHOX   O158976  11.371   8.787  13.485 -0.3631  0.0924  0.5930
  186ETHOX   C158977  11.468   8.807  13.580  0.6005  0.1073 -0.6146
  186ETHOX  H1158978  11.503   8.913  13.578  0.4547  0.1626 -0.2637
  186ETHOX  H1358979  11.407   8.789  13.671  0.5155  0.6301 -0.5634
  186ETHOX   C258980  11.592   8.712  13.573  0.3598  0.8782  0.2562
  186ETHOX  H2158981  11.554   8.609  13.559  2.6494 -0.0424  0.3408
  186ETHOX  H2358982  11.626   8.710  13.679 -0.3163  0.1037  0.4643
  187ETHOX   O158983  11.698   8.744  13.479 -0.0675 -0.4275  0.0733
  187ETHOX   C158984  11.788   8.645  13.465 -0.7993 -0.3908 -0.0876
  187ETHOX  H1158985  11.882   8.681  13.418 -0.4060  0.9835  1.6410
  187ETHOX  H1358986  11.828   8.610  13.563  0.8848  0.7843 -0.3214
  187ETHOX   C258987  11.741   8.528  13.376 -0.1485  0.3249  0.2093
  187ETHOX  H2158988  11.652   8.475  13.417 -0.2546  0.2253 -0.1388
  187ETHOX  H2358989  11.828   8.463  13.355 -0.5055  0.0804 -0.5788
  188ETHOX   O158990  11.700   8.579  13.246  0.1273 -0.0166 -0.5007
  188ETHOX   C158991  11.646   8.470  13.174  0.0590 -0.0854  0.7945
  188ETHOX  H1158992  11.559   8.420  13.222  0.1367 -1.3931 -0.3671
  188ETHOX  H1358993  11.718   8.392  13.142  1.0775  1.7907 -1.8321
  188ETHOX   C258994  11.578   8.532  13.046  0.3966  0.0417 -0.7395
  188ETHOX  H2158995  11.530   8.627  13.079  1.0456  0.3437 -0.6588
  188ETHOX  H2358996  11.495   8.474  13.001  1.2835 -0.9060 -1.1753
  189ETHOX   O158997  11.669   8.562  12.942 -0.0807 -0.3859  0.6307
  189ETHOX   C158998  11.623   8.648  12.834  0.0401  0.3890  0.1028
  189ETHOX  H1158999  11.515   8.638  12.814  0.2736 -0.9248 -0.6213
  189ETHOX  H1359000  11.651   8.754  12.855 -0.1503  0.4246  0.1749
  189ETHOX   C259001  11.695   8.601  12.705 -0.4923 -0.0898 -0.5853
  189ETHOX  H2159002  11.803   8.623  12.703 -0.7678  1.5048  0.2914
  189ETHOX  H2359003  11.646   8.660  12.625  0.2316  0.5144 -0.5972
  190ETHOX   O159004  11.669   8.464  12.688  0.9205 -0.0221 -0.8773
  190ETHOX   C159005  11.723   8.416  12.568 -0.3253  0.2536  0.3057
  190ETHOX  H1159006  11.808   8.482  12.540  0.9754 -2.1463 -1.7239
  190ETHOX  H1359007  11.641   8.429  12.494 -0.7062  0.1080  0.6996
  190ETHOX   C259008  11.754   8.260  12.573  0.1852  0.0831  0.2637
  190ETHOX  H2159009  11.784   8.222  12.473  1.3487 -1.9428  1.3040
  190ETHOX  H2359010  11.662   8.198  12.585  0.5834 -0.8492 -1.2488
  191ETHOX   O159011  11.865   8.229  12.659  0.9745 -0.2138  0.3980
  191ETHOX   C159012  11.898   8.098  12.640  0.1914 -0.1242  0.2277
  191ETHOX  H1159013  11.806   8.037  12.655  0.0724 -0.8111 -2.7962
  191ETHOX  H1359014  11.930   8.076  12.536  0.7006 -1.9302  0.7168
  191ETHOX   C259015  12.013   8.052  12.727 -0.6476  0.2204  0.1224
  191ETHOX  H2159016  11.988   7.954  12.771 -3.9852 -0.6393 -3.1921
  191ETHOX  H2359017  12.035   8.117  12.815 -1.4878  1.0142 -0.2335
  192ETHOX   O159018  12.134   8.039  12.660 -0.1418  0.2522  1.1652
  192ETHOX   C159019  12.234   7.999  12.752 -0.5785 -0.6757  0.2863
  192ETHOX  H1159020  12.224   7.909  12.816  1.5520 -0.5908  0.8127
  192ETHOX  H1359021  12.258   8.072  12.831  2.2316 -1.6766  0.4750
  192ETHOX   C259022  12.371   7.969  12.682 -0.0234 -0.4757  0.3169
  192ETHOX  H2159023  12.375   7.880  12.615  0.6343  0.0243 -0.3215
  192ETHOX  H2359024  12.438   7.936  12.764  1.3691  0.3629 -0.4529
  193ETHOX   O159025  12.444   8.087  12.645  0.4955  0.4248 -0.3365
  193ETHOX   C159026  12.410   8.119  12.514  0.3879 -0.4946  0.8590
  193ETHOX  H1159027  12.436   8.039  12.441 -2.5426 -0.6491 -0.1667
  193ETHOX  H1359028  12.303   8.152  12.513  0.1805 -1.1402  1.2875
  193ETHOX   C259029  12.496   8.244  12.468  0.1718  0.1858 -0.0058
  193ETHOX  H2159030  12.479   8.334  12.531 -1.5870  1.4803 -2.1765
  193ETHOX  H2359031  12.454   8.287  12.374 -0.5042 -0.8273 -0.1823
  194ETHOX   O159032  12.642   8.206  12.453  0.2132 -0.4763 -1.1334
  194ETHOX   C159033  12.690   8.218  12.320  0.4654 -0.1638  0.1290
  194ETHOX  H1159034  12.663   8.319  12.283  2.0176 -0.2375 -1.2880
  194ETHOX  H1359035  12.655   8.134  12.257 -0.2969  1.1289 -1.2490
  194ETHOX   C259036  12.840   8.213  12.320  0.1720 -0.2246  0.0743
  194ETHOX  H2159037  12.884   8.213  12.218 -4.3011  2.0381 -2.1316
  194ETHOX  H2359038  12.878   8.123  12.373  0.7672  0.1999  0.3803
  195ETHOX   O159039  12.889   8.331  12.390 -0.6193  0.5897  1.0012
  195ETHOX   C159040  13.028   8.319  12.423  0.3777 -1.2114 -0.8589
  195ETHOX  H1159041  13.045   8.237  12.495  1.3493 -0.9114 -0.7253
  195ETHOX  H1359042  13.081   8.291  12.329 -2.4333 -3.0979 -2.0226
  195ETHOX   C259043  13.081   8.453  12.487 -0.2084 -0.2434 -0.3468
  195ETHOX  H2159044  13.040   8.531  12.418 -1.4965 -1.1364 -0.6222
  195ETHOX  H2359045  13.191   8.453  12.479 -0.0846  1.3440  0.8912
  196ETHOX   O159046  13.060   8.476  12.630  0.1264 -0.4244  0.4223
  196ETHOX   C159047  12.926   8.491  12.668 -0.0797 -0.0361 -1.0414
  196ETHOX  H1159048  12.880   8.552  12.587  0.5179  0.0899 -1.2977
  196ETHOX  H1359049  12.875   8.393  12.673  2.4280 -1.4264 -0.9866
  196ETHOX   C259050  12.890   8.567  12.797  0.0123 -0.0258  0.2817
  196ETHOX  H2159051  12.785   8.604  12.789  0.9040  2.2998 -3.7499
  196ETHOX  H2359052  12.957   8.656  12.796  1.8303 -1.3551 -0.2513
  197ETHOX   O159053  12.912   8.496  12.919 -0.0097 -0.0180 -0.6348
  197ETHOX   C159054  13.057   8.478  12.940  0.1542  0.8499 -0.1286
  197ETHOX  H1159055  13.103   8.410  12.865 -0.5373 -1.9644  1.8082
  197ETHOX  H1359056  13.114   8.568  12.912  2.1127 -0.3421 -0.1859
  197ETHOX   C259057  13.098   8.446  13.083  0.2449  0.7499 -0.4231
  197ETHOX  H2159058  13.053   8.525  13.148  0.3058  0.0558  0.4821
  197ETHOX  H2359059  13.208   8.450  13.096  0.4560 -1.1390 -1.4114
  198ETHOX   O159060  13.054   8.322  13.136  0.4075  0.1550 -0.0919
  198ETHOX   C159061  12.913   8.312  13.146 -0.3571 -0.2584 -0.0995
  198ETHOX  H1159062  12.868   8.412  13.168 -3.8155 -1.8323  0.5464
  198ETHOX  H1359063  12.868   8.261  13.059 -2.2097 -0.1302  0.7367
  198ETHOX   C259064  12.861   8.228  13.262  0.4202  0.2176 -0.3447
  198ETHOX  H2159065  12.758   8.260  13.291  0.7501  0.3097  0.7687
  198ETHOX  H2359066  12.931   8.257  13.343  0.0177 -0.2991  0.2027
  199ETHOX   O159067  12.866   8.088  13.234  0.4602  0.0462  0.3638
  199ETHOX   C159068  12.883   8.019  13.363  0.6390 -0.1673  0.5060
  199ETHOX  H1159069  12.834   7.920  13.350  1.2830 -0.5646  1.0491
  199ETHOX  H1359070  12.828   8.077  13.440 -1.7893 -0.9250 -0.5419
  199ETHOX   C259071  13.022   8.007  13.426 -0.5312  0.0114 -0.5137
  199ETHOX  H2159072  13.086   7.963  13.347  1.4569  1.1814  0.3666
  199ETHOX  H2359073  13.021   7.930  13.505  1.5135 -0.5908 -1.0189
  200ETHOX   O159074  13.067   8.129  13.485  0.2161 -0.6339 -0.2486
  200ETHOX   C159075  13.178   8.106  13.572  0.4640  0.2773  0.1686
  200ETHOX  H1159076  13.143   8.050  13.661  0.4370  1.3124  0.8194
  200ETHOX  H1359077  13.248   8.050  13.506 -0.5347  0.9952 -1.5924
  200ETHOX   C259078  13.244   8.232  13.620 -0.5256 -0.5067  0.0941
  200ETHOX  H2159079  13.298   8.200  13.712 -0.9455  1.2829  1.0029
  200ETHOX  H2359080  13.170   8.311  13.646 -1.5006 -0.1607 -3.2283
  201ETHOX   O159081  13.334   8.281  13.530  0.7266 -0.1467 -0.4356
  201ETHOX   C159082  13.271   8.346  13.422 -0.3455 -0.8240 -0.4476
  201ETHOX  H1159083  13.178   8.394  13.460 -0.8824 -2.4261  0.3269
  201ETHOX  H1359084  13.249   8.270  13.344 -0.4083 -0.6893 -0.5627
  201ETHOX   C259085  13.369   8.450  13.362  0.8628  0.1043 -0.0552
  201ETHOX  H2159086  13.417   8.519  13.435 -1.5010  3.5491 -1.4462
  201ETHOX  H2359087  13.299   8.517  13.307  0.1915  1.6451  2.4902
  202ETHOX   O159088  13.463   8.406  13.257 -0.6452  0.3690 -0.2324
  202ETHOX   C159089  13.591   8.373  13.298  0.2395  0.0454 -0.5012
  202ETHOX  H1159090  13.621   8.459  13.363  1.0284  0.5566 -1.5260
  202ETHOX  H1359091  13.572   8.285  13.363 -3.6445  0.6839 -0.5409
  202ETHOX   C259092  13.703   8.358  13.189  0.3190 -0.0527  0.2964
  202ETHOX  H2159093  13.800   8.344  13.241 -0.2730  3.0376  2.4563
  202ETHOX  H2359094  13.717   8.450  13.129  0.0617 -0.4487 -0.3796
  203ETHOX   O159095  13.677   8.247  13.106 -0.1674  0.0898  0.1734
  203ETHOX   C159096  13.763   8.228  12.994  0.0400 -0.0623 -0.1913
  203ETHOX  H1159097  13.866   8.208  13.032  0.1279 -1.8920 -1.2863
  203ETHOX  H1359098  13.769   8.324  12.939 -0.1669  0.3682  0.5206
  203ETHOX   C259099  13.720   8.116  12.895  0.0597 -0.2865  0.1919
  203ETHOX  H2159100  13.780   8.132  12.803 -1.8315 -1.7307 -1.3799
  203ETHOX  H2359101  13.612   8.127  12.873  0.3200  1.1863 -0.4984
  204ETHOX   O159102  13.749   7.993  12.944 -0.5575 -0.1676  0.2203
  204ETHOX   C159103  13.684   7.893  12.865 -0.5612  0.0404  0.1977
  204ETHOX  H1159104  13.578   7.890  12.899 -0.5598 -1.3789  0.1747
  204ETHOX  H1359105  13.692   7.918  12.757  0.5245 -1.5454 -0.1312
  204ETHOX   C259106  13.749   7.753  12.880 -0.2987  0.0683  0.6410
  204ETHOX  H2159107  13.685   7.691  12.814 -0.3457  0.1875  0.5756
  204ETHOX  H2359108  13.723   7.706  12.978 -1.5937  0.7242  0.6322
  205ETHOX   O159109  13.892   7.741  12.850 -0.3548 -0.6855 -0.6595
  205ETHOX   C159110  13.928   7.751  12.715 -0.7309  0.6617  0.1891
  205ETHOX  H1159111  13.893   7.853  12.686  0.4203  0.7468 -0.9931
  205ETHOX  H1359112  13.878   7.676  12.651  0.9777  0.3929 -0.8759
  205ETHOX   C259113  14.085   7.737  12.689 -0.1582  0.4374  0.4040
  205ETHOX  H2159114  14.081   7.727  12.578 -0.3072  1.0767  0.3482
  205ETHOX  H2359115  14.138   7.651  12.734  0.6346  0.1813 -0.9640
  206ETHOX   O159116  14.155   7.857  12.731  0.5138 -0.5891 -0.2436
  206ETHOX   C159117  14.286   7.862  12.679 -0.3691  0.0262 -0.3518
  206ETHOX  H1159118  14.324   7.760  12.700 -1.6966 -0.4995 -0.4031
  206ETHOX  H1359119  14.272   7.895  12.574 -0.3843  0.7416 -0.1331
  206ETHOX   C259120  14.373   7.961  12.752  0.6993 -0.4060 -0.9999
  206ETHOX  H2159121  14.469   7.986  12.703 -0.1587  1.7163 -1.7439
  206ETHOX  H2359122  14.315   8.056  12.752 -0.4996 -1.1021  0.3432
  207ETHOX   O159123  14.403   7.937  12.890  0.3412 -0.0031 -0.4896
  207ETHOX   C159124  14.483   8.035  12.948  0.0673  0.0412 -0.0211
  207ETHOX  H1159125  14.425   8.127  12.974  0.8472  0.0034  2.0001
  207ETHOX  H1359126  14.569   8.054  12.881  1.5448 -3.5922  0.6407
  207ETHOX   C259127  14.536   7.985  13.079 -0.0183 -0.6702  0.0040
  207ETHOX  H2159128  14.607   8.061  13.118 -0.3960 -0.5274  0.4317
  207ETHOX  H2359129  14.599   7.895  13.064  1.6358  0.7724 -2.3109
  208ETHOX   O159130  14.446   7.955  13.188 -0.3316 -0.1748 -0.2548
  208ETHOX   C159131  14.504   7.955  13.322 -0.0049 -0.0728 -0.4007
  208ETHOX  H1159132  14.579   7.874  13.312  3.3312  2.6781  0.2450
  208ETHOX  H1359133  14.542   8.057  13.349 -0.6112 -0.6596  3.1967
  208ETHOX   C259134  14.396   7.914  13.425 -0.8619 -0.3762  0.0204
  208ETHOX  H2159135  14.428   7.820  13.476 -2.2075  0.5472  2.7868
  208ETHOX  H2359136  14.296   7.891  13.382 -0.7319 -0.5326 -0.1951
  209ETHOX   O159137  14.380   8.010  13.524  0.0903  0.0014  0.1853
  209ETHOX   C159138  14.291   8.117  13.490  0.3732  0.3031 -0.3009
  209ETHOX  H1159139  14.186   8.088  13.511  0.3787 -0.2955 -1.0414
  209ETHOX  H1359140  14.310   8.148  13.385 -1.9576 -0.2790 -0.9444
  209ETHOX   C259141  14.319   8.231  13.594 -0.7908 -0.1238  0.1189
  209ETHOX  H2159142  14.341   8.187  13.694 -2.3311 -1.4224 -0.0770
  209ETHOX  H2359143  14.225   8.286  13.617  0.7675  2.5800  0.4724
  210ETHOX   O159144  14.428   8.318  13.549  0.0003 -0.0179 -0.0620
  210ETHOX   C159145  14.440   8.428  13.643  0.6900  0.7351 -0.2336
  210ETHOX  H1159146  14.365   8.509  13.634 -1.2350 -0.6915  1.7971
  210ETHOX  H1359147  14.432   8.399  13.750 -2.1881 -2.0224 -1.0217
  210ETHOX   C259148  14.583   8.480  13.623  0.2274  0.2542 -1.0044
  210ETHOX  H2159149  14.583   8.582  13.668  1.5126  0.1980 -0.8395
  210ETHOX  H2359150  14.609   8.505  13.518  1.0005 -1.5093 -1.2692
  211ETHOX   O159151  14.683   8.385  13.675 -0.1798 -0.2269  0.1433
  211ETHOX   C159152  14.814   8.446  13.678  0.6816  0.6260 -0.5191
  211ETHOX  H1159153  14.836   8.472  13.572 -0.0312  1.0117 -0.5800
  211ETHOX  H1359154  14.802   8.547  13.724 -2.4231  1.1260 -2.1836
  211ETHOX   C259155  14.928   8.363  13.747  0.3972  0.0699  0.2766
  211ETHOX  H2159156  15.026   8.396  13.705  0.0456  0.4263 -0.2766
  211ETHOX  H2359157  14.909   8.254  13.741 -1.2422  0.3930 -1.3109
  212ETHOX   O159158  14.912   8.390  13.889 -0.0605  0.2741 -1.1805
  212ETHOX   C159159  15.007   8.315  13.967  0.5888 -0.4686 -0.1415
  212ETHOX  H1159160  14.997   8.210  13.932 -2.1982 -0.4988  0.5120
  212ETHOX  H1359161  15.112   8.342  13.941  0.1417 -0.4845 -2.1064
  212ETHOX   C259162  14.969   8.320  14.118  0.2611 -0.0885 -0.0021
  212ETHOX  H2159163  14.859   8.303  14.117  0.1893  0.1620 -2.4478
  212ETHOX  H2359164  14.972   8.425  14.154 -2.5216  1.3248 -3.2732
  213ETHOX   O159165  15.035   8.218  14.193 -0.3795 -0.6988  0.5319
  213ETHOX   C159166  15.007   8.215  14.330  0.0956  0.3310 -0.2474
  213ETHOX  H1159167  15.009   8.320  14.365 -1.7378  0.7821 -1.3602
  213ETHOX  H1359168  14.904   8.173  14.335  0.7414 -1.2340  0.4276
  213ETHOX   C259169  15.090   8.114  14.412  0.1167 -0.7552 -0.3352
  213ETHOX  H2159170  15.063   8.126  14.519  1.2893 -0.6992 -0.0253
  213ETHOX  H2359171  15.196   8.142  14.391  0.4012 -0.3574  1.4220
  214ETHOX   O159172  15.073   7.977  14.384 -0.1371  0.3762  0.1293
  214ETHOX   C159173  15.137   7.888  14.478 -0.1140  0.1726 -0.0664
  214ETHOX  H1159174  15.117   7.924  14.582  0.1245  0.7153 -0.2070
  214ETHOX  H1359175  15.245   7.906  14.458 -0.5811  1.9522 -1.1937
  214ETHOX   C259176  15.094   7.736  14.486  0.6657  0.4130  0.1168
  214ETHOX  H2159177  15.148   7.693  14.573 -0.5272 -0.3921  0.4949
  214ETHOX  H2359178  15.124   7.694  14.388 -1.4782  2.0489 -1.3472
  215ETHOX   O159179  14.949   7.734  14.503  0.1300  0.3240  0.0314
  215ETHOX   C159180  14.916   7.609  14.563 -0.3493 -0.3948  0.9606
  215ETHOX  H1159181  14.949   7.533  14.488  2.6742  1.9113 -0.2847
  215ETHOX  H1359182  14.977   7.610  14.656  0.3237  0.4622  0.5339
  215ETHOX   C259183  14.771   7.597  14.608 -0.0790 -0.2178  0.5367
  215ETHOX  H2159184  14.743   7.693  14.656 -2.1705 -0.4876 -0.0468
  215ETHOX  H2359185  14.768   7.524  14.691 -2.2618 -1.4010 -0.4913
  216ETHOX   O159186  14.681   7.555  14.503 -0.4805  0.2078 -0.0717
  216ETHOX   C159187  14.547   7.557  14.550 -0.1119  0.2497 -0.5611
  216ETHOX  H1159188  14.538   7.658  14.595 -1.2642  0.0425 -0.2871
  216ETHOX  H1359189  14.531   7.483  14.630  1.9089  0.9981  0.6015
  216ETHOX   C259190  14.438   7.539  14.443 -0.0795 -0.0158  0.1682
  216ETHOX  H2159191  14.447   7.618  14.365 -3.1683  0.1860 -0.1074
  216ETHOX  H2359192  14.335   7.545  14.482  0.0356 -0.3945  0.5379
  217ETHOX   O159193  14.444   7.407  14.391  0.0963 -0.1198 -0.2164
  217ETHOX   C159194  14.390   7.398  14.258 -0.0229 -0.3064 -0.7451
  217ETHOX  H1159195  14.303   7.467  14.263  0.4447  0.3907 -1.7519
  217ETHOX  H1359196  14.474   7.452  14.208  0.4496 -0.4243 -0.0861
  217ETHOX   C259197  14.363   7.255  14.225 -0.0410  0.3163  0.4316
  217ETHOX  H2159198  14.441   7.185  14.261 -1.5265 -0.5616  2.0677
  217ETHOX  H2359199  14.347   7.248  14.115 -2.7180 -0.5500  0.7950
  218ETHOX   O159200  14.237   7.216  14.282 -1.0221 -0.0173 -0.0102
  218ETHOX   C159201  14.205   7.078  14.240 -0.5356  0.0936  0.0368
  218ETHOX  H1159202  14.268   7.007  14.298  0.8960  0.3616 -1.1309
  218ETHOX  H1359203  14.231   7.059  14.134 -1.1861  0.4018 -0.1861
  218ETHOX   C259204  14.053   7.051  14.259 -0.0512  0.0144  0.4675
  218ETHOX  H2159205  14.010   7.107  14.173  4.0344  0.0990 -1.7640
  218ETHOX  H2359206  14.023   7.097  14.355  1.1182 -2.0450  1.8774
  219ETHOX   O159207  14.013   6.914  14.259  0.2286  0.1642  0.5063
  219ETHOX   C159208  13.875   6.892  14.261  0.0856 -0.8831 -0.5165
  219ETHOX  H1159209  13.826   6.955  14.338 -0.8277 -0.7906 -1.1549
  219ETHOX  H1359210  13.829   6.924  14.165  0.3241  0.1903 -0.2883
  219ETHOX   C259211  13.845   6.752  14.298  0.6456 -0.4175  0.4073
  219ETHOX  H2159212  13.925   6.690  14.253  0.3188 -1.5930  1.4231
  219ETHOX  H2359213  13.749   6.727  14.247  0.5844  1.2791 -0.4034
  220ETHOX   O159214  13.851   6.727  14.435 -0.3033  0.6257  0.4449
  220ETHOX   C159215  13.816   6.595  14.472 -0.1553  0.3414  0.1720
  220ETHOX  H1159216  13.895   6.529  14.430 -0.7320 -1.8470  2.3550
  220ETHOX  H1359217  13.715   6.569  14.433  0.3846  0.9037 -1.6911
  220ETHOX   C259218  13.836   6.563  14.618  0.0755 -0.6787  0.5885
  220ETHOX  H2159219  13.938   6.594  14.650  0.3766  0.6692 -1.4033
  220ETHOX  H2359220  13.833   6.454  14.639 -2.1219 -0.5402  1.1592
  221ETHOX   O159221  13.725   6.623  14.685 -0.0815  0.1780  0.0347
  221ETHOX   C159222  13.620   6.527  14.711  1.0129  0.6253  0.2672
  221ETHOX  H1159223  13.521   6.578  14.701  1.2032  0.6139 -2.1546
  221ETHOX  H1359224  13.634   6.445  14.638 -1.1124 -0.9174  1.4690
  221ETHOX   C259225  13.645   6.476  14.861  0.0802 -0.6767  0.0934
  221ETHOX  H2159226  13.750   6.441  14.875 -0.2680 -2.5211 -1.3958
  221ETHOX  H2359227  13.589   6.382  14.881 -2.8854  0.3069 -2.7074
  222ETHOX   O159228  13.612   6.572  14.964 -0.4819  0.2242  0.6897
  222ETHOX   C159229  13.467   6.575  14.980 -0.2934  0.0228 -0.6398
  222ETHOX  H1159230  13.412   6.583  14.883  0.0437  0.5083 -0.7929
  222ETHOX  H1359231  13.436   6.480  15.028 -2.0713  0.9138  0.0356
  222ETHOX   C259232  13.414   6.684  15.079 -0.0275 -0.3564  0.0638
  222ETHOX  H2159233  13.460   6.676  15.180  2.5693  0.5290 -0.9743
  222ETHOX  H2359234  13.304   6.666  15.086  0.2616 -2.0654  0.8058
  223ETHOX   O159235  13.440   6.815  15.025 -0.1103 -0.2038  0.3805
  223ETHOX   C159236  13.366   6.918  15.100  0.1274 -0.6811  0.8194
  223ETHOX  H1159237  13.379   6.910  15.210  0.2093  0.4766  0.9022
  223ETHOX  H1359238  13.405   7.018  15.070  2.0270 -0.5097  3.5173
  223ETHOX   C259239  13.213   6.921  15.075  0.5428  0.2121  0.1317
  223ETHOX  H2159240  13.205   6.933  14.965  3.2134  0.0828 -0.1412
  223ETHOX  H2359241  13.166   7.008  15.125 -0.6906 -0.2253 -0.2327
  224ETHOX   O159242  13.118   6.821  15.120  0.2256 -0.3941  0.2589
  224ETHOX   C159243  13.086   6.836  15.262  0.1673 -0.3045 -0.4408
  224ETHOX  H1159244  13.178   6.870  15.315 -0.7196  2.1090 -0.3005
  224ETHOX  H1359245  13.024   6.928  15.260  0.2820 -0.2005  0.3158
  224ETHOX   C259246  13.022   6.710  15.320 -0.5139 -0.3157  0.0307
  224ETHOX  H2159247  13.034   6.713  15.430 -0.4229  0.4400  0.0036
  224ETHOX  H2359248  13.079   6.619  15.292  0.4352  0.4450 -0.5826
  225ETHOX   O159249  12.893   6.689  15.277 -0.2635 -0.9659  0.4984
  225ETHOX   C159250  12.834   6.567  15.279 -0.3413  1.1093 -0.6082
  225ETHOX  H1159251  12.833   6.521  15.380 -1.3423  0.8405 -0.7332
  225ETHOX  H1359252  12.897   6.506  15.211 -0.1767 -0.0609  0.5564
  225ETHOX   C259253  12.692   6.573  15.227  0.0700 -0.8393 -0.2352
  225ETHOX  H2159254  12.632   6.644  15.287  0.9226 -1.2566  1.1438
  225ETHOX  H2359255  12.650   6.470  15.229 -1.3830 -0.2924  3.0912
  226ETHOX   O159256  12.683   6.615  15.086  0.1442  1.0880 -0.4829
  226ETHOX   C159257  12.555   6.568  15.038  0.3509  0.7094  0.5848
  226ETHOX  H1159258  12.561   6.463  15.002  0.0436  0.1435  2.1389
  226ETHOX  H1359259  12.480   6.571  15.119 -0.9396 -1.8375 -0.4205
  226ETHOX   C259260  12.506   6.664  14.927  0.3870  0.4057 -0.4207
  226ETHOX  H2159261  12.543   6.764  14.960  2.2227 -0.2894 -0.2842
  226ETHOX  H2359262  12.396   6.650  14.927  0.3756  0.5007 -0.2533
  227ETHOX   O159263  12.566   6.640  14.806  0.3759  0.2442  0.7400
  227ETHOX   C159264  12.556   6.752  14.718 -0.4870 -0.0037 -0.2647
  227ETHOX  H1159265  12.610   6.843  14.755 -0.5210  0.6918 -1.8480
  227ETHOX  H1359266  12.447   6.773  14.714 -1.0705 -2.3510  1.5473
  227ETHOX   C259267  12.604   6.736  14.570  0.0430  0.0505 -0.0053
  227ETHOX  H2159268  12.603   6.830  14.512  0.9922  2.0687  3.0232
  227ETHOX  H2359269  12.537   6.661  14.523 -1.5130  1.5623 -0.3095
  228ETHOX   O159270  12.739   6.688  14.564  0.0244 -0.6177  0.3210
  228ETHOX   C159271  12.768   6.590  14.460  0.4562 -0.0164 -0.4397
  228ETHOX  H1159272  12.729   6.492  14.496 -3.3357  1.8426  1.0931
  228ETHOX  H1359273  12.726   6.609  14.359  1.7564 -2.5679 -1.5598
  228ETHOX   C259274  12.921   6.577  14.446  0.2945 -0.0747  0.2813
  228ETHOX  H2159275  12.957   6.681  14.425 -2.1383  0.8413  0.3515
  228ETHOX  H2359276  12.947   6.510  14.361 -3.4217  1.6618 -2.4916
  229ETHOX   O159277  12.974   6.544  14.572 -0.4155 -0.0699  0.1599
  229ETHOX   C159278  13.114   6.558  14.567  0.8716  0.4714 -1.0271
  229ETHOX  H1159279  13.123   6.666  14.592 -0.5245  0.7272 -1.5165
  229ETHOX  H1359280  13.159   6.547  14.466 -0.0928 -1.5394 -1.2915
  229ETHOX   C259281  13.186   6.480  14.678 -0.7970 -0.1700 -0.6986
  229ETHOX  H2159282  13.134   6.494  14.775  0.3137 -2.0888  0.2439
  229ETHOX  H2359283  13.293   6.509  14.680 -0.9251  0.3099  0.8767
  230ETHOX   O159284  13.180   6.338  14.655 -0.0149 -0.2497 -0.3242
  230ETHOX   C159285  13.263   6.271  14.744 -0.2489  0.9485  0.7778
  230ETHOX  H1159286  13.371   6.284  14.724 -0.3587 -1.1025 -1.6379
  230ETHOX  H1359287  13.241   6.291  14.851 -0.8646  0.3186  0.7708
  230ETHOX   C259288  13.238   6.120  14.732  0.4143  0.2702 -0.2600
  230ETHOX  H2159289  13.136   6.091  14.766  2.0122 -1.0518  4.2236
  230ETHOX  H2359290  13.304   6.069  14.805 -2.8502 -2.3117  1.1955
  231ETHOX   O159291  13.275   6.079  14.604 -0.1418 -0.1968  0.0338
  231ETHOX   C159292  13.219   5.958  14.562  0.3564 -0.3953 -0.0885
  231ETHOX  H1159293  13.109   5.956  14.580  0.4539  3.0298  1.6951
  231ETHOX  H1359294  13.270   5.877  14.618  1.8460  0.8456  0.4328
  231ETHOX   C259295  13.233   5.922  14.413  0.3741  0.5976  0.0060
  231ETHOX  H2159296  13.169   5.831  14.406 -3.5946  3.0641  1.1403
  231ETHOX  H2359297  13.338   5.910  14.378  0.4957  0.2730  0.4716
  232ETHOX   O159298  13.172   6.022  14.343  0.3082  0.7388  0.7586
  232ETHOX   C159299  13.193   6.006  14.203  0.2937  0.7263  0.2106
  232ETHOX  H1159300  13.303   5.992  14.188  0.4744 -1.7393  2.8729
  232ETHOX  H1359301  13.139   5.916  14.169 -0.9413  1.4655  0.1437
  232ETHOX   C259302  13.130   6.121  14.130 -0.2377 -0.3295  0.1749
  232ETHOX  H2159303  13.024   6.133  14.160 -0.0614  0.3151  0.5630
  232ETHOX  H2359304  13.133   6.097  14.021  0.7754 -1.3506  0.4104
  233ETHOX   O159305  13.190   6.239  14.164  0.1173 -0.2846  0.3634
  233ETHOX   C159306  13.096   6.345  14.145 -0.0755 -0.2530  0.3485
  233ETHOX  H1159307  13.043   6.330  14.048 -0.1332  0.1495  0.3163
  233ETHOX  H1359308  13.021   6.346  14.226  1.6596 -1.3122  2.0514
  233ETHOX   C259309  13.179   6.476  14.162  0.8305  0.6616  0.0589
  233ETHOX  H2159310  13.258   6.458  14.238 -0.6216  2.0626  2.0067
  233ETHOX  H2359311  13.115   6.562  14.191 -1.1462 -1.2957  1.8132
  234ETHOX   O159312  13.228   6.506  14.032 -0.0317  1.2575 -0.8746
  234ETHOX   C159313  13.262   6.646  14.014  0.3757  0.2855 -0.6582
  234ETHOX  H1159314  13.219   6.721  14.084  0.3227 -1.2955  1.1057
  234ETHOX  H1359315  13.370   6.663  14.036  0.3142  0.4911 -0.4993
  234ETHOX   C259316  13.241   6.680  13.867 -0.2745  0.5849 -0.5431
  234ETHOX  H2159317  13.307   6.615  13.806 -0.6687  0.7096 -1.1156
  234ETHOX  H2359318  13.284   6.782  13.864  0.6624  0.2868  1.1561
  235ETHOX   O159319  13.110   6.680  13.833  0.2340 -0.5258  0.7563
  235ETHOX   C159320  13.098   6.726  13.692 -0.1767  0.9178 -0.0439
  235ETHOX  H1159321  13.127   6.833  13.700 -0.0569  0.9877 -1.3120
  235ETHOX  H1359322  13.173   6.676  13.627 -0.4848  1.2311 -0.6477
  235ETHOX   C259323  12.952   6.726  13.639  0.1435  0.5598  0.4220
  235ETHOX  H2159324  12.961   6.784  13.545 -1.8985 -0.7678 -0.6726
  235ETHOX  H2359325  12.880   6.771  13.712 -0.9740 -1.5087  0.6798
  236ETHOX   O159326  12.918   6.594  13.605 -0.0776  0.3688  0.5483
  236ETHOX   C159327  12.854   6.533  13.719  0.1363  0.0210 -0.1601
  236ETHOX  H1159328  12.764   6.593  13.745  0.0918  0.0993 -0.4964
  236ETHOX  H1359329  12.924   6.537  13.805  0.9040  1.2507 -0.8020
  236ETHOX   C259330  12.806   6.392  13.678  0.3302 -1.4154  0.8575
  236ETHOX  H2159331  12.750   6.414  13.585 -0.3406 -0.9417  1.3601
  236ETHOX  H2359332  12.735   6.342  13.747  0.1477 -1.3891  0.6896
  237ETHOX   O159333  12.916   6.307  13.651 -0.3309 -0.4093  0.1847
  237ETHOX   C159334  12.965   6.247  13.769  0.3421 -0.3491  0.0211
  237ETHOX  H1159335  13.043   6.314  13.812 -0.6433  0.5852  0.4017
  237ETHOX  H1359336  12.889   6.230  13.848  0.5040  2.8170  1.0328
  237ETHOX   C259337  13.033   6.117  13.733 -0.3046  0.8746  0.2708
  237ETHOX  H2159338  13.116   6.099  13.805  0.1432  0.2567 -0.3943
  237ETHOX  H2359339  13.076   6.121  13.631 -1.3424 -1.9604 -0.3648
  238ETHOX   O159340  12.932   6.009  13.748 -0.5186 -0.3679  0.8061
  238ETHOX   C159341  12.991   5.885  13.733  0.0561  0.7563 -0.0380
  238ETHOX  H1159342  13.061   5.858  13.815  1.6322  1.3629 -1.1382
  238ETHOX  H1359343  13.049   5.890  13.638 -2.2728  1.3680 -1.5109
  238ETHOX   C259344  12.893   5.763  13.728  0.4772 -0.5828 -0.1849
  238ETHOX  H2159345  12.933   5.673  13.678  0.0470 -1.1553  0.4826
  238ETHOX  H2359346  12.815   5.810  13.664  1.1715  0.8475 -0.0411
  239ETHOX   O159347  12.845   5.746  13.864 -0.0602 -0.2592 -0.7312
  239ETHOX   C159348  12.934   5.659  13.935  0.5311 -0.4805  0.8919
  239ETHOX  H1159349  12.953   5.572  13.868  0.4126  1.9849 -2.6204
  239ETHOX  H1359350  13.027   5.709  13.970  1.1204 -1.0664  0.1859
  239ETHOX   C259351  12.855   5.605  14.051 -0.1124  0.4519 -0.4054
  239ETHOX  H2159352  12.747   5.593  14.030  0.1739 -0.9104 -1.2137
  239ETHOX  H2359353  12.889   5.503  14.076 -3.2205 -0.2989  1.3074
  240ETHOX   O159354  12.885   5.681  14.167 -0.8835  0.2265 -0.1410
  240ETHOX   C159355  12.813   5.805  14.170 -0.6044  0.2403 -0.0605
  240ETHOX  H1159356  12.707   5.780  14.149 -0.2444 -0.7454 -0.7611
  240ETHOX  H1359357  12.835   5.876  14.088 -1.8514 -1.1273 -1.6393
  240ETHOX   C259358  12.838   5.866  14.308  0.2303 -0.0592 -0.3584
  240ETHOX  H2159359  12.794   5.967  14.299 -0.6060 -0.5324 -1.8421
  240ETHOX  H2359360  12.945   5.882  14.331  0.5460  0.3816 -2.0461
  241ETHOX   O159361  12.770   5.796  14.410 -0.0013  0.3378 -0.3033
  241ETHOX   C159362  12.790   5.857  14.540 -0.3784 -1.0538 -0.2059
  241ETHOX  H1159363  12.887   5.816  14.576  0.7560 -0.1922 -2.1396
  241ETHOX  H1359364  12.783   5.968  14.536 -0.9875 -0.9688  2.0153
  241ETHOX   C259365  12.681   5.809  14.639  0.5159 -0.0028 -0.0872
  241ETHOX  H2159366  12.732   5.827  14.736  1.2096 -1.1462 -0.2138
  241ETHOX  H2359367  12.657   5.701  14.633 -1.9467  0.3054  2.2278
  242ETHOX   O159368  12.564   5.890  14.622  0.2628  0.0691  0.3876
  242ETHOX   C159369  12.467   5.876  14.721 -0.1403  0.8012 -0.1496
  242ETHOX  H1159370  12.518   5.902  14.816 -0.0058  0.3160 -0.0870
  242ETHOX  H1359371  12.438   5.770  14.739 -0.1840  1.1382  2.0983
  242ETHOX   C259372  12.344   5.957  14.690  0.1842  0.4216 -0.6079
  242ETHOX  H2159373  12.369   6.064  14.674  0.2237  0.6440  0.8092
  242ETHOX  H2359374  12.284   5.950  14.783  2.5457 -1.4503  0.8552
  243ETHOX   O159375  12.276   5.910  14.579 -0.1880  0.0075 -0.2677
  243ETHOX   C159376  12.157   5.978  14.561  0.8682  0.7870 -0.3440
  243ETHOX  H1159377  12.081   5.937  14.632 -0.3628 -1.9886 -2.9947
  243ETHOX  H1359378  12.165   6.087  14.580 -2.3822  1.0059  0.4168
  243ETHOX   C259379  12.098   5.951  14.429  0.0783 -0.1950  0.1929
  243ETHOX  H2159380  11.995   5.993  14.426  1.3633  3.2448  0.4093
  243ETHOX  H2359381  12.108   5.845  14.398  2.3093  0.1081 -0.2798
  244ETHOX   O159382  12.175   6.032  14.344  0.7582  0.2643  0.7274
  244ETHOX   C159383  12.124   6.022  14.205 -0.1928 -0.6360 -0.2535
  244ETHOX  H1159384  12.052   5.938  14.209  0.1175 -0.8836  0.3126
  244ETHOX  H1359385  12.205   5.994  14.135 -0.4197 -1.5731 -0.1502
  244ETHOX   C259386  12.051   6.154  14.164 -0.2457  0.1970 -0.2020
  244ETHOX  H2159387  11.981   6.179  14.247  1.2537  0.9876  0.8761
  244ETHOX  H2359388  11.996   6.131  14.071  0.1284 -0.2566 -0.3140
  245ETHOX   O159389  12.138   6.263  14.142 -0.2313  0.1847 -0.1393
  245ETHOX   C159390  12.067   6.384  14.126 -0.1118  1.2371 -0.8585
  245ETHOX  H1159391  12.025   6.376  14.024  1.4483  1.5031 -1.5427
  245ETHOX  H1359392  11.980   6.408  14.191  0.3292  0.5749 -0.0008
  245ETHOX   C259393  12.155   6.516  14.127  0.7070  0.4403  0.4486
  245ETHOX  H2159394  12.085   6.586  14.076 -1.0182 -1.1226  0.5874
  245ETHOX  H2359395  12.237   6.498  14.054  0.6586 -0.0759  0.5221
  246ETHOX   O159396  12.180   6.541  14.261  1.0043  0.5099  0.0654
  246ETHOX   C159397  12.194   6.674  14.290  0.2351 -0.4761 -0.2825
  246ETHOX  H1159398  12.139   6.743  14.224  2.4705  0.2217 -1.5290
  246ETHOX  H1359399  12.303   6.691  14.279  0.5377 -2.3342 -0.5646
  246ETHOX   C259400  12.172   6.694  14.440 -0.2588  1.1667  0.5609
  246ETHOX  H2159401  12.251   6.632  14.488 -1.2543 -0.5013  0.0957
  246ETHOX  H2359402  12.070   6.667  14.472 -0.9733  0.0439 -2.4139
  247ETHOX   O159403  12.199   6.824  14.485  0.1227 -0.4502  0.1047
  247ETHOX   C159404  12.156   6.839  14.618  0.9833 -0.3480 -0.3168
  247ETHOX  H1159405  12.047   6.828  14.635  0.9952  0.0880  0.0781
  247ETHOX  H1359406  12.214   6.767  14.679  1.7090  1.3853  1.1639
  247ETHOX   C259407  12.192   6.978  14.676 -0.2228  0.3262  0.0484
  247ETHOX  H2159408  12.162   7.039  14.588 -0.9330 -1.1412 -0.7648
  247ETHOX  H2359409  12.132   7.003  14.766 -1.6233 -3.8945  0.4976
  248ETHOX   O159410  12.329   6.982  14.708  0.2928 -0.3150 -0.4014
  248ETHOX   C159411  12.359   7.100  14.775  0.3453  0.4819 -0.0461
  248ETHOX  H1159412  12.315   7.180  14.712  0.4486  1.9332  1.6268
  248ETHOX  H1359413  12.304   7.108  14.871 -1.2082 -1.6923 -0.6883
  248ETHOX   C259414  12.512   7.119  14.781 -0.1285  0.1622 -0.1388
  248ETHOX  H2159415  12.552   7.042  14.851  2.5453  1.1222 -0.4797
  248ETHOX  H2359416  12.540   7.220  14.818  0.2858  0.2413 -0.6425
  249ETHOX   O159417  12.570   7.104  14.653 -0.4691  0.5525 -0.4977
  249ETHOX   C159418  12.523   7.206  14.561 -0.1220  0.2698 -0.4784
  249ETHOX  H1159419  12.417   7.201  14.528  0.0537  2.2326 -1.4453
  249ETHOX  H1359420  12.535   7.304  14.611  0.5953 -0.2301  0.3673
  249ETHOX   C259421  12.598   7.214  14.430 -0.2645 -0.0335  0.3346
  249ETHOX  H2159422  12.708   7.213  14.445  0.0412 -0.3751 -1.6863
  249ETHOX  H2359423  12.574   7.307  14.375  0.1168  0.7652  1.4714
  250ETHOX   O159424  12.567   7.099  14.350 -0.4527 -0.3281 -0.9915
  250ETHOX   C159425  12.662   7.083  14.248  0.2783  0.1331  0.8558
  250ETHOX  H1159426  12.669   7.163  14.172 -0.6076  0.5196  1.1645
  250ETHOX  H1359427  12.757   7.083  14.305  0.7215 -0.7457  0.1470
  250ETHOX   C259428  12.637   6.948  14.184 -0.1121  0.3350  0.4990
  250ETHOX  H2159429  12.608   6.871  14.258 -1.0709 -0.8810 -1.0682
  250ETHOX  H2359430  12.727   6.907  14.132  0.1734  0.7611  0.6532
  251ETHOX   O159431  12.543   6.970  14.076 -0.4850 -0.1699  0.1989
  251ETHOX   C159432  12.490   6.844  14.033  0.2628  0.4274  0.4433
  251ETHOX  H1159433  12.428   6.812  14.120  2.1340 -0.1290  1.6313
  251ETHOX  H1359434  12.570   6.769  14.019  0.3656  0.6514 -0.2142
  251ETHOX   C259435  12.409   6.863  13.898  0.3330  0.1253  0.5902
  251ETHOX  H2159436  12.358   6.962  13.902 -0.9082 -0.4922  0.3287
  251ETHOX  H2359437  12.337   6.778  13.897  0.7127 -0.2109  1.1501
  252ETHOX   O159438  12.492   6.850  13.780 -0.5506  0.2661  0.1314
  252ETHOX   C159439  12.420   6.896  13.667  0.1290  0.8375 -1.0042
  252ETHOX  H1159440  12.327   6.837  13.651 -0.4163  1.2980  0.3843
  252ETHOX  H1359441  12.389   7.001  13.680 -0.9519  0.5587 -1.2571
  252ETHOX   C259442  12.514   6.885  13.553  0.3228  0.6079 -0.2065
  252ETHOX  H2159443  12.463   6.895  13.455  1.7532  2.4810 -0.8151
  252ETHOX  H2359444  12.562   6.785  13.545 -2.4880 -0.6934 -2.5938
  253ETHOX   O159445  12.596   6.996  13.552 -0.1690 -0.2491 -0.1884
  253ETHOX   C159446  12.672   7.010  13.433  0.0577  0.0236  0.1923
  253ETHOX  H1159447  12.619   7.028  13.337  0.1121 -1.3269 -0.1157
  253ETHOX  H1359448  12.718   6.909  13.428  0.2199  0.1582 -1.7569
  253ETHOX   C259449  12.776   7.121  13.448  0.7500  0.7784 -0.0618
  253ETHOX  H2159450  12.723   7.218  13.444  1.7023  1.3036 -0.5384
  253ETHOX  H2359451  12.858   7.106  13.374 -0.2142 -1.4026 -0.7592
  254ETHOX   O159452  12.844   7.113  13.572  0.1604  0.7989  0.0617
  254ETHOX   C159453  12.924   7.230  13.589  1.3057  0.2458 -0.0659
  254ETHOX  H1159454  12.869   7.318  13.550  0.8795  0.1736  0.3685
  254ETHOX  H1359455  12.932   7.259  13.696  1.0803  2.9419 -0.7040
  254ETHOX   C259456  13.059   7.217  13.529  0.4119  0.3603 -0.4981
  254ETHOX  H2159457  13.057   7.222  13.418 -1.2215  1.6173 -0.4533
  254ETHOX  H2359458  13.081   7.111  13.556 -1.7668 -0.2955 -1.0160
  255ETHOX   O159459  13.155   7.299  13.593 -0.1136 -0.4121 -0.4278
  255ETHOX   C159460  13.275   7.306  13.517  0.7292  1.1328  0.6129
  255ETHOX  H1159461  13.242   7.293  13.411  0.7633  1.3970  0.5700
  255ETHOX  H1359462  13.331   7.220  13.559 -0.7799 -0.3568 -0.2563
  255ETHOX   C259463  13.348   7.435  13.535 -0.4225  0.1544 -0.0410
  255ETHOX  H2159464  13.439   7.440  13.470  1.1438  0.6101  2.0735
  255ETHOX  H2359465  13.391   7.444  13.637  1.0544 -1.5555 -0.4506
  256ETHOX   O159466  13.280   7.557  13.505 -0.0950  0.0070  0.1396
  256ETHOX   C159467  13.357   7.678  13.503 -0.1863  0.0377 -0.3512
  256ETHOX  H1159468  13.466   7.661  13.492 -0.2899 -1.1612  0.3037
  256ETHOX  H1359469  13.334   7.726  13.406  0.5581 -0.9321 -1.0380
  256ETHOX   C259470  13.331   7.765  13.624 -0.0215 -0.6151  0.3058
  256ETHOX  H2159471  13.221   7.779  13.637 -0.3410 -0.2370 -2.2213
  256ETHOX  H2359472  13.371   7.866  13.599 -0.8194 -0.6172 -1.1158
  257ETHOX   O159473  13.385   7.707  13.743  0.5350  0.4568  0.5308
  257ETHOX   C159474  13.365   7.794  13.860 -0.2586 -0.4324 -0.3819
  257ETHOX  H1159475  13.256   7.812  13.869  0.1658  2.3420  0.1742
  257ETHOX  H1359476  13.408   7.894  13.837 -2.3848  0.6329  0.0598
  257ETHOX   C259477  13.426   7.730  13.988  0.6033 -0.0703 -0.9034
  257ETHOX  H2159478  13.389   7.627  14.009  0.1530  0.0114 -1.2690
  257ETHOX  H2359479  13.397   7.784  14.081  0.3156  0.2741 -1.1914
  258ETHOX   O159480  13.569   7.724  13.984 -0.1409 -0.0670  0.7144
  258ETHOX   C159481  13.624   7.671  14.100  0.5969  0.0599 -0.3148
  258ETHOX  H1159482  13.653   7.756  14.166  2.8829 -2.7043  2.5518
  258ETHOX  H1359483  13.552   7.600  14.146  0.8493  0.6658  1.0974
  258ETHOX   C259484  13.766   7.610  14.073 -0.1340 -0.4550 -0.6167
  258ETHOX  H2159485  13.763   7.527  14.000  1.5969 -1.3275  0.2475
  258ETHOX  H2359486  13.812   7.585  14.171  2.0756  1.1206 -1.1617
  259ETHOX   O159487  13.860   7.703  14.015  0.4953 -0.5487 -0.0371
  259ETHOX   C159488  13.987   7.646  13.988 -0.6577 -0.3371  0.9141
  259ETHOX  H1159489  14.044   7.642  14.083 -0.1920  0.8313  0.6988
  259ETHOX  H1359490  13.984   7.541  13.951 -2.5093 -0.4887  1.4068
  259ETHOX   C259491  14.060   7.742  13.892 -0.2799  0.6570 -0.0763
  259ETHOX  H2159492  14.164   7.719  13.922 -0.4874 -0.4906 -0.2113
  259ETHOX  H2359493  14.042   7.849  13.916 -0.5761  0.6658 -0.3389
  260ETHOX   O159494  14.032   7.708  13.757  0.1781 -0.1717  0.0034
  260ETHOX   C159495  14.087   7.800  13.665  0.7090 -0.3767 -0.4996
  260ETHOX  H1159496  14.083   7.904  13.705  0.6767 -0.9569  1.0702
  260ETHOX  H1359497  14.198   7.795  13.662  1.0339  2.2471  2.2581
  260ETHOX   C259498  14.015   7.787  13.532 -0.5261  0.2759  0.3566
  260ETHOX  H2159499  14.056   7.866  13.464  0.9566  0.7898  1.7966
  260ETHOX  H2359500  13.906   7.801  13.549 -0.5173 -1.3828  2.0070
  261ETHOX   O159501  14.029   7.651  13.489  0.1848 -0.2766  0.0896
  261ETHOX   C159502  13.949   7.608  13.377 -0.0491 -0.3271 -0.0183
  261ETHOX  H1159503  13.937   7.696  13.310 -0.5481 -0.2811  0.1320
  261ETHOX  H1359504  14.004   7.532  13.318  0.2852  0.6058 -0.9458
  261ETHOX   C259505  13.829   7.532  13.438  0.7170  0.3271 -0.3283
  261ETHOX  H2159506  13.753   7.523  13.357 -2.2527  1.5776  2.1509
  261ETHOX  H2359507  13.796   7.599  13.520  2.5931  0.2736  0.5416
  262ETHOX   O159508  13.866   7.399  13.474  0.4028  0.0882  0.1322
  262ETHOX   C159509  13.755   7.315  13.484  0.5933  0.4537  0.2415
  262ETHOX  H1159510  13.714   7.309  13.381  0.0492 -2.0167  0.5375
  262ETHOX  H1359511  13.681   7.372  13.544  1.2801  0.3255  1.2377
  262ETHOX   C259512  13.774   7.170  13.540  0.0149  0.5936  0.1466
  262ETHOX  H2159513  13.834   7.107  13.471 -0.7137 -0.8389  0.7558
  262ETHOX  H2359514  13.673   7.128  13.564 -0.9702  2.4904 -0.4818
  263ETHOX   O159515  13.846   7.176  13.662  0.3044 -0.0881  0.3518
  263ETHOX   C159516  13.840   7.062  13.744 -0.2927 -0.4109 -0.1762
  263ETHOX  H1159517  13.922   7.068  13.818 -1.6768 -0.4264  1.4220
  263ETHOX  H1359518  13.867   6.974  13.681 -0.3330  0.5229 -1.5430
  263ETHOX   C259519  13.712   7.043  13.827 -0.0598 -0.1594  0.2478
  263ETHOX  H2159520  13.719   6.951  13.889  0.7227  0.5762  1.2723
  263ETHOX  H2359521  13.628   7.024  13.757  1.8762 -0.1956 -2.2349
  264ETHOX   O159522  13.669   7.128  13.932 -0.2661  0.2562  0.6230
  264ETHOX   C159523  13.643   7.254  13.870  0.3053  1.1155 -0.2008
  264ETHOX  H1159524  13.620   7.253  13.762  0.1526 -0.2894 -0.1652
  264ETHOX  H1359525  13.735   7.306  13.905  0.4260  0.6701  0.1514
  264ETHOX   C259526  13.536   7.329  13.951 -0.6443  0.1715 -0.6549
  264ETHOX  H2159527  13.544   7.437  13.925 -0.9653  0.4665  0.4047
  264ETHOX  H2359528  13.557   7.310  14.059 -2.0771  0.5005 -0.2892
  265ETHOX   O159529  13.411   7.274  13.911  0.0015 -0.2512  0.4574
  265ETHOX   C159530  13.301   7.323  13.989 -0.5379 -0.2389 -0.4807
  265ETHOX  H1159531  13.325   7.315  14.097  0.0041  0.6175 -0.5274
  265ETHOX  H1359532  13.281   7.429  13.961 -0.5270  0.0820  0.6918
  265ETHOX   C259533  13.169   7.247  13.956 -0.3837 -1.0805  0.1181
  265ETHOX  H2159534  13.175   7.148  14.005 -0.5612 -1.2225 -0.1438
  265ETHOX  H2359535  13.171   7.229  13.846  0.0103 -1.3456  0.1688
  265ETHOX   OZ59536  13.055   7.327  13.988  0.5156 -0.0091  0.4619
  265ETHOX  HZ159537  13.049   7.389  13.915 -0.6753  0.3214  0.8202
    1ETHOX   O159538  11.916  12.275  15.289  0.4598 -0.0296 -0.3746
    1ETHOX  HO159539  11.938  12.183  15.304 -1.7898 -0.8953 -1.8196
    1ETHOX   C159540  11.823  12.316  15.385 -0.0223 -0.8611 -0.7153
    1ETHOX  H1159541  11.871  12.352  15.479 -2.1653  2.0062 -0.6034
    1ETHOX  H1359542  11.771  12.225  15.422 -0.2425 -0.6282 -0.4517
    1ETHOX   C259543  11.717  12.418  15.330 -0.5839  0.2967  0.1107
    1ETHOX  H2159544  11.612  12.399  15.358 -0.8332  1.2925 -0.1033
    1ETHOX  H2359545  11.711  12.411  15.219 -0.1091 -0.5559  0.1311
    2ETHOX   O159546  11.765  12.546  15.357 -0.0185 -0.3764 -0.2757
    2ETHOX   C159547  11.728  12.638  15.249 -0.0449  0.7791 -0.0248
    2ETHOX  H1159548  11.803  12.623  15.169 -0.7666 -0.9848 -0.4256
    2ETHOX  H1359549  11.633  12.601  15.204  0.4000 -0.1682 -0.2203
    2ETHOX   C259550  11.738  12.785  15.305  0.0782  0.6506  0.1848
    2ETHOX  H2159551  11.753  12.852  15.217  0.1802 -2.0649 -2.0027
    2ETHOX  H2359552  11.829  12.796  15.368  0.1932 -0.1052  0.1548
    3ETHOX   O159553  11.629  12.807  15.382  0.5328  0.2995 -0.0710
    3ETHOX   C159554  11.626  12.946  15.425 -0.8183 -0.0732 -0.0137
    3ETHOX  H1159555  11.621  13.009  15.333  0.1555 -1.0655 -0.7729
    3ETHOX  H1359556  11.720  12.977  15.475 -1.2335  1.1065  0.0687
    3ETHOX   C259557  11.495  12.978  15.506 -0.0959  0.1649  0.4271
    3ETHOX  H2159558  11.521  12.934  15.605 -1.0135 -0.8316  0.2362
    3ETHOX  H2359559  11.418  12.915  15.458  0.2348 -0.4293  0.6669
    4ETHOX   O159560  11.465  13.119  15.505  1.0590  0.6444 -0.6565
    4ETHOX   C159561  11.352  13.143  15.587 -0.0610 -0.9214  0.2482
    4ETHOX  H1159562  11.270  13.080  15.547 -2.7071  2.4764 -0.1500
    4ETHOX  H1359563  11.384  13.120  15.691 -0.7550  1.0688  0.9549
    4ETHOX   C259564  11.309  13.290  15.581 -0.1001 -0.3261  0.2196
    4ETHOX  H2159565  11.212  13.303  15.634  0.6248  1.2005  1.2195
    4ETHOX  H2359566  11.290  13.329  15.479  1.5101 -0.4132 -0.1383
    5ETHOX   O159567  11.403  13.375  15.646  0.5950  0.3142  0.4560
    5ETHOX   C159568  11.397  13.502  15.575  0.0722  0.1487 -0.5174
    5ETHOX  H1159569  11.490  13.548  15.615  0.4034  0.4673 -1.6328
    5ETHOX  H1359570  11.398  13.490  15.465 -0.5643  3.9156 -1.0717
    5ETHOX   C259571  11.273  13.597  15.605 -0.8110 -0.1894  0.5387
    5ETHOX  H2159572  11.302  13.701  15.576 -1.8146  0.1186  0.6103
    5ETHOX  H2359573  11.237  13.583  15.709  2.5513 -1.6561  1.6558
    6ETHOX   O159574  11.164  13.565  15.522 -0.6892 -0.5255 -0.1591
    6ETHOX   C159575  11.076  13.677  15.496  0.3088 -0.0164  0.4097
    6ETHOX  H1159576  11.064  13.742  15.586 -1.3152 -0.4989  0.5839
    6ETHOX  H1359577  11.125  13.742  15.421  0.5932  0.8655  1.3423
    6ETHOX   C259578  10.937  13.632  15.446  0.4304 -0.2793  0.1507
    6ETHOX  H2159579  10.870  13.720  15.438 -2.0776 -2.1982 -1.3844
    6ETHOX  H2359580  10.891  13.558  15.516 -0.4651  1.0475  1.0018
    7ETHOX   O159581  10.958  13.573  15.320 -0.0576 -0.7950 -0.0665
    7ETHOX   C159582  10.836  13.571  15.255 -0.2602  0.3811  0.4152
    7ETHOX  H1159583  10.762  13.528  15.325  0.8663 -1.9363  0.2775
    7ETHOX  H1359584  10.811  13.675  15.222 -1.1986 -0.1252 -0.5456
    7ETHOX   C259585  10.831  13.497  15.113 -0.0228 -0.8582 -0.3463
    7ETHOX  H2159586  10.728  13.455  15.107  0.9302 -3.2673 -1.1903
    7ETHOX  H2359587  10.898  13.410  15.133  0.2541 -0.6981 -0.5825
    8ETHOX   O159588  10.877  13.583  15.005  0.6416  0.9072  0.0969
    8ETHOX   C159589  10.871  13.507  14.883  0.7119 -0.0472 -0.5145
    8ETHOX  H1159590  10.883  13.581  14.800  0.8867  2.7498  1.8476
    8ETHOX  H1359591  10.773  13.455  14.874  1.7355 -2.0572 -0.5166
    8ETHOX   C259592  10.979  13.394  14.861 -0.2003  0.2544  0.2997
    8ETHOX  H2159593  11.084  13.431  14.866 -0.2850  1.0143 -2.2854
    8ETHOX  H2359594  10.976  13.351  14.759  0.5039  0.0901  0.3391
    9ETHOX   O159595  10.962  13.274  14.947  0.5915  0.1340  0.3872
    9ETHOX   C159596  10.886  13.169  14.888  0.8391  0.2513 -0.4569
    9ETHOX  H1159597  10.852  13.184  14.783 -1.1687 -2.3800 -0.2981
    9ETHOX  H1359598  10.940  13.072  14.887 -1.2429 -0.9711 -0.3595
    9ETHOX   C259599  10.761  13.144  14.974 -0.8363  0.3240  0.2632
    9ETHOX  H2159600  10.791  13.142  15.081 -0.2621  0.7961  0.1127
    9ETHOX  H2359601  10.702  13.055  14.944 -0.7041  0.0164  0.8870
   10ETHOX   O159602  10.664  13.245  14.970 -0.7582  0.7924 -0.4232
   10ETHOX   C159603  10.545  13.206  15.043 -0.7133  0.1499  0.4929
   10ETHOX  H1159604  10.571  13.178  15.147  2.1199 -0.3521 -0.2513
   10ETHOX  H1359605  10.494  13.120  14.996  2.0021 -1.1815 -0.2616
   10ETHOX   C259606  10.448  13.329  15.049  0.2846 -0.2170 -0.1345
   10ETHOX  H2159607  10.344  13.302  15.022  0.1147  0.8370 -0.5974
   10ETHOX  H2359608  10.492  13.404  14.980 -0.4804  0.8824  0.5432
   11ETHOX   O159609  10.440  13.383  15.182  0.0805 -0.0194 -1.0750
   11ETHOX   C159610  10.372  13.290  15.273  0.2652 -0.1758  0.4170
   11ETHOX  H1159611  10.263  13.284  15.257  0.3468  1.0114 -0.7982
   11ETHOX  H1359612  10.415  13.188  15.270 -0.6993 -0.6264  1.2870
   11ETHOX   C259613  10.400  13.317  15.422 -0.0696 -0.1524  0.5124
   11ETHOX  H2159614  10.356  13.234  15.481  2.5318 -2.0666 -0.0733
   11ETHOX  H2359615  10.508  13.305  15.440  0.1871 -1.7342 -1.6546
   12ETHOX   O159616  10.362  13.450  15.457 -0.0876 -0.6036  0.0892
   12ETHOX   C159617  10.411  13.486  15.589 -0.1663  0.7222  0.3884
   12ETHOX  H1159618  10.519  13.515  15.590  0.1211 -0.2163  2.5304
   12ETHOX  H1359619  10.406  13.390  15.646  2.2304  0.9862  1.1667
   12ETHOX   C259620  10.332  13.606  15.641  0.5309  0.0197 -0.3567
   12ETHOX  H2159621  10.344  13.691  15.570 -0.0317  0.0364 -0.4314
   12ETHOX  H2359622  10.373  13.620  15.744  0.2745 -0.1025 -0.2366
   13ETHOX   O159623  10.194  13.568  15.639  0.3176 -0.1290 -0.0553
   13ETHOX   C159624  10.161  13.522  15.770  0.2079 -0.1760  0.0260
   13ETHOX  H1159625  10.206  13.420  15.770 -0.6871 -0.5802  0.9293
   13ETHOX  H1359626  10.213  13.589  15.842  3.2396  0.3881 -2.4333
   13ETHOX   C259627  10.014  13.497  15.802  0.3452  0.1926  0.3182
   13ETHOX  H2159628   9.960  13.581  15.754  0.1574 -0.1813 -0.1320
   13ETHOX  H2359629   9.984  13.502  15.909 -0.7394 -3.5886  0.3288
   14ETHOX   O159630   9.974  13.367  15.761 -0.1635  0.0729  0.6353
   14ETHOX   C159631   9.832  13.363  15.739 -0.1210 -0.7126 -0.1680
   14ETHOX  H1159632   9.802  13.446  15.672 -2.0015 -1.2040  0.0054
   14ETHOX  H1359633   9.786  13.385  15.838  0.0080  0.4184 -0.3530
   14ETHOX   C259634   9.774  13.231  15.687 -0.2965 -0.0369  0.2691
   14ETHOX  H2159635   9.833  13.202  15.598 -1.5259  1.6453 -1.1632
   14ETHOX  H2359636   9.672  13.245  15.646 -0.3508  1.2033  0.7627
   15ETHOX   O159637   9.779  13.123  15.781 -0.6284  0.3213  0.7412
   15ETHOX   C159638   9.738  13.004  15.719  0.2182  0.0971 -0.3269
   15ETHOX  H1159639   9.639  13.008  15.669 -0.2679  2.8724  0.6826
   15ETHOX  H1359640   9.819  12.976  15.649 -0.6651 -0.1992 -1.2576
   15ETHOX   C259641   9.725  12.900  15.829  0.1785  0.3056 -0.8828
   15ETHOX  H2159642   9.665  12.934  15.916  0.3702  1.5110 -1.2040
   15ETHOX  H2359643   9.669  12.812  15.790  1.2050 -1.0064  0.4452
   16ETHOX   O159644   9.849  12.842  15.867 -0.0878 -0.1361 -0.0669
   16ETHOX   C159645   9.854  12.783  15.997  0.4762 -0.1990  0.3701
   16ETHOX  H1159646   9.825  12.859  16.073 -3.6723  1.3521 -2.4210
   16ETHOX  H1359647   9.781  12.701  16.013  0.3925  0.2760  2.9168
   16ETHOX   C259648   9.998  12.728  16.019  0.6299 -0.5670 -0.8462
   16ETHOX  H2159649  10.035  12.699  15.918  4.1042 -1.1565  0.4772
   16ETHOX  H2359650   9.988  12.636  16.081  0.6296 -1.8150 -2.6080
   17ETHOX   O159651  10.080  12.831  16.062  0.2860 -0.3361  0.2620
   17ETHOX   C159652  10.211  12.813  16.008  0.2052 -1.1229  0.1576
   17ETHOX  H1159653  10.218  12.774  15.904  2.7979  0.2423 -0.2662
   17ETHOX  H1359654  10.256  12.915  16.009  2.6966 -2.1575  0.4604
   17ETHOX   C259655  10.284  12.724  16.096 -0.2540 -0.3689 -0.3946
   17ETHOX  H2159656  10.385  12.700  16.056 -0.7293  1.1253 -2.6977
   17ETHOX  H2359657  10.238  12.625  16.119  1.5729 -1.2728 -0.4071
   18ETHOX   O159658  10.306  12.798  16.215  0.5616  0.6086  0.2291
   18ETHOX   C159659  10.352  12.719  16.323 -0.0920 -0.6964 -0.2276
   18ETHOX  H1159660  10.276  12.733  16.402 -1.6117 -0.7101 -1.6440
   18ETHOX  H1359661  10.345  12.611  16.299 -1.0279 -1.6513  3.6390
   18ETHOX   C259662  10.492  12.769  16.360  0.2388  0.4091  1.1873
   18ETHOX  H2159663  10.555  12.767  16.269 -0.9236 -0.1592  0.3776
   18ETHOX  H2359664  10.538  12.692  16.425 -0.9981 -0.7443  0.7341
   19ETHOX   O159665  10.502  12.903  16.417  0.3212 -0.3533  0.1612
   19ETHOX   C159666  10.483  12.903  16.551 -0.1663  0.4413 -0.4925
   19ETHOX  H1159667  10.553  12.837  16.607 -1.1107  0.6615  1.0074
   19ETHOX  H1359668  10.385  12.858  16.577  0.0524 -0.3994 -1.1094
   19ETHOX   C259669  10.494  13.051  16.594  0.0002  0.3976  0.2348
   19ETHOX  H2159670  10.590  13.098  16.562 -0.0804  0.4137  0.0181
   19ETHOX  H2359671  10.488  13.056  16.705 -0.5539 -2.2248  0.3758
   20ETHOX   O159672  10.399  13.129  16.522  0.3213  0.4963 -0.6552
   20ETHOX   C159673  10.392  13.255  16.579 -0.1871 -0.0113 -0.1082
   20ETHOX  H1159674  10.372  13.239  16.687 -2.1735  0.9965 -0.2834
   20ETHOX  H1359675  10.491  13.304  16.565  0.3279 -0.7573  0.7729
   20ETHOX   C259676  10.272  13.331  16.525 -0.0499  0.3529 -0.2302
   20ETHOX  H2159677  10.245  13.413  16.595  0.4557  1.5090 -1.3437
   20ETHOX  H2359678  10.190  13.257  16.524  0.6270 -0.4091  0.3010
   21ETHOX   O159679  10.288  13.375  16.393 -0.3502 -0.2418  0.1796
   21ETHOX   C159680  10.168  13.435  16.350 -0.1335 -0.5120  0.0139
   21ETHOX  H1159681  10.131  13.505  16.429  1.8412 -1.0987  1.5470
   21ETHOX  H1359682  10.097  13.354  16.324  0.4476 -0.8687 -0.4852
   21ETHOX   C259683  10.198  13.513  16.224  0.2647  0.3209 -0.3061
   21ETHOX  H2159684  10.106  13.516  16.162 -1.4236 -1.6198  1.9103
   21ETHOX  H2359685  10.285  13.476  16.166  1.2955  1.1199  0.6760
   22ETHOX   O159686  10.237  13.643  16.269 -0.0706  0.5429 -0.1358
   22ETHOX   C159687  10.242  13.746  16.169 -0.1231  1.0079  0.1738
   22ETHOX  H1159688  10.299  13.834  16.205  0.5315  0.4972  0.4218
   22ETHOX  H1359689  10.297  13.701  16.083 -2.5238 -2.9020  0.4147
   22ETHOX   C259690  10.102  13.793  16.126  0.1550 -0.1855 -0.3259
   22ETHOX  H2159691  10.116  13.882  16.061  0.8414  0.9359  1.3042
   22ETHOX  H2359692  10.057  13.708  16.070  0.0227 -1.2958  1.3803
   23ETHOX   O159693  10.024  13.830  16.242 -0.3652 -0.3089  0.3448
   23ETHOX   C159694   9.972  13.965  16.235 -0.6732 -0.4552  0.1922
   23ETHOX  H1159695  10.055  14.022  16.187  0.7900 -1.8753  0.9275
   23ETHOX  H1359696   9.958  13.997  16.340  0.1741 -1.8009  0.7334
   23ETHOX   C259697   9.835  13.963  16.155 -0.4183 -0.0375 -0.5322
   23ETHOX  H2159698   9.783  14.060  16.171 -1.4560 -0.4868 -1.1172
   23ETHOX  H2359699   9.782  13.889  16.218 -1.4804 -0.5997 -2.0175
   24ETHOX   O159700   9.837  13.922  16.013  0.0854 -0.4448 -0.3194
   24ETHOX   C159701   9.868  14.040  15.936  0.7339 -0.1151  0.6229
   24ETHOX  H1159702   9.776  14.101  15.933  0.4035 -0.5033  2.2064
   24ETHOX  H1359703   9.952  14.091  15.989  0.2229  2.3738 -0.8066
   24ETHOX   C259704   9.936  14.003  15.802  0.1375  0.1244 -0.3893
   24ETHOX  H2159705   9.933  14.093  15.737 -0.5229  0.6837  0.3980
   24ETHOX  H2359706   9.877  13.929  15.745 -0.4041  2.8136 -3.6598
   25ETHOX   O159707  10.071  13.974  15.831 -0.1669 -0.3133 -0.5522
   25ETHOX   C159708  10.131  13.909  15.725  0.2751  0.0081  0.3191
   25ETHOX  H1159709  10.060  13.839  15.675  2.0989  0.2892 -2.9431
   25ETHOX  H1359710  10.203  13.838  15.771  0.8718 -0.7275 -1.6889
   25ETHOX   C259711  10.202  13.997  15.624  1.1831 -0.2148  0.9980
   25ETHOX  H2159712  10.131  14.057  15.562  0.4843 -0.9845  1.0344
   25ETHOX  H2359713  10.245  13.935  15.542  1.7628  1.9101 -0.3957
   26ETHOX   O159714  10.310  14.072  15.686  0.1008 -0.0926  0.6511
   26ETHOX   C159715  10.325  14.195  15.622 -0.7249 -0.3375 -0.9464
   26ETHOX  H1159716  10.337  14.173  15.513 -0.9532  0.5013 -1.1460
   26ETHOX  H1359717  10.227  14.241  15.647 -1.3830 -2.3893  0.5281
   26ETHOX   C259718  10.457  14.258  15.673 -0.5082  0.1311 -0.3268
   26ETHOX  H2159719  10.443  14.366  15.649 -2.1882 -0.0165 -0.1826
   26ETHOX  H2359720  10.552  14.234  15.622  0.9189  0.6053  1.9792
   27ETHOX   O159721  10.464  14.251  15.811 -0.5001 -0.1890  0.3019
   27ETHOX   C159722  10.568  14.340  15.864  0.3287 -0.2859 -0.4085
   27ETHOX  H1159723  10.540  14.446  15.846  1.4970  0.0235 -0.4638
   27ETHOX  H1359724  10.664  14.318  15.813  1.3499  1.6604  0.5818
   27ETHOX   C259725  10.587  14.330  16.018  0.4749 -0.9678 -0.0127
   27ETHOX  H2159726  10.480  14.324  16.048 -0.4107  2.2081 -2.0359
   27ETHOX  H2359727  10.622  14.428  16.056  1.4809 -0.7024 -1.5219
   28ETHOX   O159728  10.657  14.224  16.064  0.7106 -0.2334 -0.0683
   28ETHOX   C159729  10.698  14.253  16.200  0.2313  1.2234 -0.6396
   28ETHOX  H1159730  10.800  14.297  16.198  1.1879 -0.7485  0.9555
   28ETHOX  H1359731  10.634  14.320  16.260 -0.3405  0.3205 -0.2249
   28ETHOX   C259732  10.703  14.124  16.289 -0.2626  0.1802  0.5347
   28ETHOX  H2159733  10.765  14.147  16.378 -1.6857  4.2304  0.6867
   28ETHOX  H2359734  10.734  14.041  16.221 -0.9227  0.1457  0.2679
   29ETHOX   O159735  10.575  14.089  16.332 -0.3531  0.1886  0.2239
   29ETHOX   C159736  10.570  14.021  16.456  0.3878 -0.5812 -0.0686
   29ETHOX  H1159737  10.570  14.102  16.532 -0.3643 -0.5519 -0.0969
   29ETHOX  H1359738  10.663  13.962  16.474 -0.4328 -2.1215 -0.6813
   29ETHOX   C259739  10.462  13.918  16.474 -0.7371 -0.6397  0.1615
   29ETHOX  H2159740  10.506  13.840  16.540 -0.7111  0.0230  0.9509
   29ETHOX  H2359741  10.439  13.860  16.383 -1.2641 -1.4627  0.8102
   30ETHOX   O159742  10.353  13.974  16.543 -0.4014 -0.1962  0.1664
   30ETHOX   C159743  10.240  13.888  16.559  0.2248 -0.7382  0.4078
   30ETHOX  H1159744  10.149  13.951  16.567  0.5837  0.2381 -2.1514
   30ETHOX  H1359745  10.228  13.840  16.460 -1.6979 -0.2982  0.4061
   30ETHOX   C259746  10.241  13.786  16.679  0.1110 -0.1537  0.2350
   30ETHOX  H2159747  10.315  13.706  16.659 -1.7532 -1.9619  0.2205
   30ETHOX  H2359748  10.137  13.746  16.676  0.6573 -1.6149  0.3211
   31ETHOX   O159749  10.250  13.846  16.806  0.0658 -0.2702  0.1110
   31ETHOX   C159750  10.244  13.741  16.906  0.3348 -0.5187  0.9107
   31ETHOX  H1159751  10.144  13.693  16.912  1.6154 -3.9234 -1.7730
   31ETHOX  H1359752  10.304  13.648  16.896  0.4498 -0.4329  0.7959
   31ETHOX   C259753  10.274  13.785  17.053  0.5912  0.0927 -0.1795
   31ETHOX  H2159754  10.245  13.704  17.124  2.0361  0.9747  1.5006
   31ETHOX  H2359755  10.224  13.882  17.076  2.8477  0.9674  1.3345
   32ETHOX   O159756  10.409  13.810  17.052 -0.3568  0.3234  0.9892
   32ETHOX   C159757  10.464  13.848  17.182 -0.0028  0.5340 -0.1380
   32ETHOX  H1159758  10.397  13.926  17.226 -0.1281 -0.3439  1.2843
   32ETHOX  H1359759  10.472  13.762  17.252 -1.1899  1.4788  1.1993
   32ETHOX   C259760  10.607  13.908  17.163 -0.4520  0.5665  0.1859
   32ETHOX  H2159761  10.631  13.965  17.255 -0.5943 -0.9175  1.1885
   32ETHOX  H2359762  10.594  13.979  17.079 -0.0573  0.0958 -0.2768
   33ETHOX   O159763  10.715  13.815  17.141  0.1545  0.3144 -0.6692
   33ETHOX   C159764  10.831  13.887  17.096  0.1776  0.3158  0.1444
   33ETHOX  H1159765  10.818  13.935  16.997  1.1655 -1.1667 -0.7385
   33ETHOX  H1359766  10.847  13.967  17.172  1.1931 -0.6048  0.9231
   33ETHOX   C259767  10.964  13.807  17.097  0.3478 -1.1714  0.5181
   33ETHOX  H2159768  11.046  13.857  17.040 -0.3822 -2.0547 -1.4209
   33ETHOX  H2359769  10.960  13.708  17.046 -1.1671  0.5257 -2.9942
   34ETHOX   O159770  11.017  13.801  17.220  0.2265  0.0039  0.1287
   34ETHOX   C159771  11.135  13.713  17.220 -0.4775  0.2962  0.0830
   34ETHOX  H1159772  11.209  13.760  17.152 -1.1459  0.6190 -0.4401
   34ETHOX  H1359773  11.099  13.609  17.202  1.8975 -0.6163  0.1954
   34ETHOX   C259774  11.198  13.702  17.360  0.2670  0.2042 -0.2446
   34ETHOX  H2159775  11.235  13.802  17.391 -0.1121  0.5107 -0.7635
   34ETHOX  H2359776  11.281  13.629  17.345 -0.9969 -1.7099  1.5161
   35ETHOX   O159777  11.102  13.657  17.452 -0.0950  0.3480  0.5729
   35ETHOX   C159778  11.158  13.634  17.574  0.7789  0.0900 -0.5889
   35ETHOX  H1159779  11.220  13.542  17.564 -0.6723 -0.8778 -0.9080
   35ETHOX  H1359780  11.209  13.726  17.611  0.8948 -0.0763 -0.3347
   35ETHOX   C259781  11.034  13.590  17.658  0.0191 -1.0543 -0.2138
   35ETHOX  H2159782  10.948  13.660  17.643  0.2173 -1.0679 -1.6043
   35ETHOX  H2359783  11.059  13.593  17.766  1.2697  0.8829 -0.4959
   36ETHOX   O159784  10.998  13.462  17.621  0.0890 -0.4152 -0.5010
   36ETHOX   C159785  10.869  13.425  17.662  0.1964 -0.4788  0.0959
   36ETHOX  H1159786  10.794  13.489  17.611  2.0115  1.3034 -0.4570
   36ETHOX  H1359787  10.865  13.435  17.772  0.5750 -0.8910  0.1486
   36ETHOX   C259788  10.847  13.276  17.618  0.5607 -0.2933  0.1266
   36ETHOX  H2159789  10.939  13.224  17.654  0.0289  0.0057  2.0458
   36ETHOX  H2359790  10.840  13.284  17.508 -0.9216  1.3098  0.3021
   37ETHOX   O159791  10.727  13.209  17.670  0.8454 -0.4358  0.1646
   37ETHOX   C159792  10.727  13.080  17.616 -0.0664  0.5348 -0.2288
   37ETHOX  H1159793  10.756  13.086  17.509  1.0847  2.4714  0.1407
   37ETHOX  H1359794  10.793  13.011  17.673  0.0471 -0.9738 -2.1185
   37ETHOX   C259795  10.585  13.006  17.631  0.1109  0.5734  0.3117
   37ETHOX  H2159796  10.573  12.911  17.575 -2.4400  0.2263  1.3122
   37ETHOX  H2359797  10.514  13.077  17.582  1.0243  1.0258 -0.3856
   38ETHOX   O159798  10.553  12.970  17.768 -0.1503  0.2666  0.3237
   38ETHOX   C159799  10.416  12.925  17.787 -0.3754 -0.0731  0.4553
   38ETHOX  H1159800  10.404  12.836  17.720  1.3528  1.0344 -1.4254
   38ETHOX  H1359801  10.344  13.008  17.767  0.4420  1.1184  2.2408
   38ETHOX   C259802  10.396  12.886  17.932 -0.2679 -0.1117  0.5414
   38ETHOX  H2159803  10.295  12.843  17.947 -1.2474  1.7802 -0.3203
   38ETHOX  H2359804  10.405  12.975  17.998  4.0648  0.2295 -0.1835
   39ETHOX   O159805  10.484  12.782  17.973  0.3547 -0.4680  0.6730
   39ETHOX   C159806  10.487  12.774  18.114  0.4413 -1.1092  0.0821
   39ETHOX  H1159807  10.521  12.870  18.157 -3.0759 -0.1510  1.0537
   39ETHOX  H1359808  10.385  12.763  18.155  0.6561  0.5749  1.1354
   39ETHOX   C259809  10.591  12.669  18.143 -0.5642  0.3270  0.0160
   39ETHOX  H2159810  10.595  12.655  18.253  3.1596 -1.9270 -0.2105
   39ETHOX  H2359811  10.693  12.712  18.132  0.5262 -1.9828  0.3080
   40ETHOX   O159812  10.578  12.546  18.073 -0.0500  0.0234  0.1439
   40ETHOX   C159813  10.693  12.463  18.101 -0.8280  0.9383 -0.3143
   40ETHOX  H1159814  10.692  12.441  18.210 -1.1484  1.3193 -0.2349
   40ETHOX  H1359815  10.791  12.506  18.073  0.5904 -1.9378 -0.1472
   40ETHOX   C259816  10.670  12.338  18.021  0.4666  1.3163  0.5934
   40ETHOX  H2159817  10.623  12.369  17.925 -1.0256  2.0334  1.5279
   40ETHOX  H2359818  10.602  12.268  18.074  0.2744  1.1603  0.1427
   41ETHOX   O159819  10.793  12.275  17.986  0.5564  0.5273  0.0845
   41ETHOX   C159820  10.782  12.193  17.878  0.7977 -0.0842 -0.5087
   41ETHOX  H1159821  10.712  12.230  17.799  0.1999  0.0283  0.0671
   41ETHOX  H1359822  10.880  12.191  17.825  0.8414  1.8644 -0.6064
   41ETHOX   C259823  10.728  12.052  17.919 -0.2330 -0.6121 -0.2578
   41ETHOX  H2159824  10.776  12.039  18.018 -0.6676 -0.1916  0.0142
   41ETHOX  H2359825  10.771  11.977  17.850 -0.7114 -0.7979 -0.3534
   42ETHOX   O159826  10.589  12.047  17.928  0.3984  0.0343  0.2796
   42ETHOX   C159827  10.548  11.918  17.974 -0.0255  0.3302 -0.3350
   42ETHOX  H1159828  10.581  11.838  17.905  1.6064 -0.6409  1.4870
   42ETHOX  H1359829  10.603  11.897  18.068 -2.2868 -2.3743  0.5145
   42ETHOX   C259830  10.398  11.906  18.009  0.1596  0.7338  0.4361
   42ETHOX  H2159831  10.372  11.983  18.085 -0.3984  0.3133  0.6817
   42ETHOX  H2359832  10.380  11.809  18.060 -1.2079 -0.0410 -1.3952
   43ETHOX   O159833  10.313  11.921  17.897 -0.0685 -0.1393  0.1510
   43ETHOX   C159834  10.316  11.807  17.815  0.5548 -0.2872 -0.5145
   43ETHOX  H1159835  10.417  11.778  17.778  0.3043 -1.0815 -0.6080
   43ETHOX  H1359836  10.275  11.721  17.872 -0.9625 -0.8624 -2.3624
   43ETHOX   C259837  10.221  11.828  17.693  0.3704 -0.0586  0.2401
   43ETHOX  H2159838  10.114  11.854  17.710 -0.2621 -0.8548 -2.0977
   43ETHOX  H2359839  10.225  11.730  17.641  1.1983  1.0056 -1.7791
   44ETHOX   O159840  10.259  11.914  17.593 -0.1235  0.5356  0.7996
   44ETHOX   C159841  10.182  11.895  17.474 -0.4095 -0.1316  0.7443
   44ETHOX  H1159842  10.186  11.789  17.440  0.5713  0.4941 -1.2848
   44ETHOX  H1359843  10.073  11.912  17.487 -0.1755 -0.3783  3.6010
   44ETHOX   C259844  10.226  11.991  17.354 -0.4460  0.1260  0.4655
   44ETHOX  H2159845  10.188  11.942  17.261 -0.4076  1.0125 -0.0241
   44ETHOX  H2359846  10.337  11.990  17.349 -0.4379 -1.9002  0.1498
   45ETHOX   O159847  10.184  12.132  17.370 -0.2677 -0.3608  0.2458
   45ETHOX   C159848  10.236  12.232  17.278  0.2782 -0.3669 -0.0190
   45ETHOX  H1159849  10.230  12.186  17.177 -1.0810 -1.5434  0.5663
   45ETHOX  H1359850  10.344  12.244  17.303 -0.0749 -1.8530  2.5737
   45ETHOX   C259851  10.162  12.361  17.297  1.2764  0.2653  0.3409
   45ETHOX  H2159852  10.216  12.452  17.264 -0.1386  0.9543 -0.1593
   45ETHOX  H2359853  10.129  12.375  17.402  1.2579 -2.3583  0.7553
   46ETHOX   O159854  10.045  12.351  17.212  0.0231  0.2818  0.3280
   46ETHOX   C159855   9.941  12.443  17.237  0.8557  0.3570  0.5692
   46ETHOX  H1159856   9.897  12.431  17.339  2.5849 -0.3175  1.2796
   46ETHOX  H1359857   9.974  12.549  17.241 -2.5132  1.7090 -1.8766
   46ETHOX   C259858   9.822  12.444  17.142 -0.1823  0.4282  0.2472
   46ETHOX  H2159859   9.854  12.460  17.037 -0.6284  0.2722  0.0834
   46ETHOX  H2359860   9.745  12.524  17.146  1.0978  1.7799 -1.1637
   47ETHOX   O159861   9.750  12.326  17.153  0.8010 -0.1936 -0.3407
   47ETHOX   C159862   9.621  12.327  17.087 -1.4004 -0.4792  0.3871
   47ETHOX  H1159863   9.638  12.274  16.992 -1.1727  2.3593 -1.2577
   47ETHOX  H1359864   9.591  12.427  17.050 -0.0258 -0.2642 -0.2233
   47ETHOX   C259865   9.516  12.263  17.182  0.1585 -0.6302  0.0983
   47ETHOX  H2159866   9.413  12.289  17.149  0.3342  0.3420  0.3016
   47ETHOX  H2359867   9.530  12.300  17.286 -1.7364 -0.5474  0.3562
   48ETHOX   O159868   9.523  12.119  17.183  0.1113 -0.9036  0.2047
   48ETHOX   C159869   9.461  12.076  17.063  0.9071 -0.1485 -0.2350
   48ETHOX  H1159870   9.353  12.099  17.058  0.6270 -1.4445 -0.6933
   48ETHOX  H1359871   9.511  12.111  16.970  2.3751 -1.7234 -0.0894
   48ETHOX   C259872   9.458  11.923  17.067 -0.7651 -0.0714 -0.3191
   48ETHOX  H2159873   9.411  11.897  17.165 -0.9685  0.2788 -0.3198
   48ETHOX  H2359874   9.391  11.877  16.991 -3.2066 -1.6771  2.5732
   49ETHOX   O159875   9.599  11.885  17.055 -0.2398 -0.1402  0.2328
   49ETHOX   C159876   9.628  11.778  17.143  0.1590  0.8029  0.3450
   49ETHOX  H1159877   9.569  11.686  17.122  2.8836 -1.3034  1.3867
   49ETHOX  H1359878   9.608  11.823  17.243 -0.0213  3.2647 -0.7142
   49ETHOX   C259879   9.781  11.741  17.132 -0.0517 -0.1470  0.0636
   49ETHOX  H2159880   9.806  11.669  17.213  0.8663 -1.7861 -1.5894
   49ETHOX  H2359881   9.838  11.833  17.155  0.8010 -0.9562  1.3335
   50ETHOX   O159882   9.802  11.675  17.001  0.0633  0.2863 -0.0526
   50ETHOX   C159883   9.938  11.641  16.979  0.0669 -0.6696  0.2659
   50ETHOX  H1159884   9.996  11.735  16.985  1.2668 -1.4068  0.4915
   50ETHOX  H1359885   9.978  11.572  17.057  0.3622  1.2657  1.9002
   50ETHOX   C259886   9.959  11.594  16.838  0.2997 -0.3261 -0.5575
   50ETHOX  H2159887  10.067  11.588  16.815  0.6159 -1.5874  1.0704
   50ETHOX  H2359888   9.907  11.669  16.775 -1.3450  1.7027  2.8868
   51ETHOX   O159889   9.910  11.467  16.824  0.1623  0.1957 -0.8153
   51ETHOX   C159890   9.990  11.368  16.877  0.1785  0.4517  0.0941
   51ETHOX  H1159891  10.023  11.407  16.975  1.1081  1.8274 -0.7304
   51ETHOX  H1359892  10.071  11.350  16.803 -1.3479  1.1475 -1.8638
   51ETHOX   C259893   9.920  11.236  16.898 -0.5636  0.4650  1.0138
   51ETHOX  H2159894   9.990  11.180  16.963  0.1221  0.1267  0.0122
   51ETHOX  H2359895   9.915  11.173  16.806 -1.1180 -2.0458  2.6448
   52ETHOX   O159896   9.791  11.228  16.955 -0.2220 -0.5257  0.1852
   52ETHOX   C159897   9.750  11.098  16.970 -0.0560  0.0460 -0.5870
   52ETHOX  H1159898   9.830  11.021  16.962 -0.4828 -0.3536 -1.0905
   52ETHOX  H1359899   9.723  11.091  17.077  0.8405  0.3993 -0.3316
   52ETHOX   C259900   9.627  11.081  16.876  0.0110 -0.0484  0.1957
   52ETHOX  H2159901   9.550  11.161  16.884 -0.5375 -0.4216 -1.1027
   52ETHOX  H2359902   9.583  10.988  16.919  1.0176  0.2934  2.0677
   53ETHOX   O159903   9.670  11.059  16.750 -0.1003  0.4078  0.2104
   53ETHOX   C159904   9.565  11.047  16.661 -0.2155  0.5410  0.2067
   53ETHOX  H1159905   9.491  10.975  16.704 -0.2512  0.8140  0.6146
   53ETHOX  H1359906   9.509  11.143  16.655 -0.3903  0.3826 -1.1106
   53ETHOX   C259907   9.633  11.013  16.526 -0.1969 -0.9975  0.5593
   53ETHOX  H2159908   9.705  11.094  16.502 -2.0834  0.2165 -1.3695
   53ETHOX  H2359909   9.545  11.010  16.457  0.6981  0.0378 -0.6734
   54ETHOX   O159910   9.686  10.881  16.525  0.3846 -0.2726  0.3563
   54ETHOX   C159911   9.724  10.853  16.394  0.0778  0.1255  0.6800
   54ETHOX  H1159912   9.803  10.922  16.358  1.1946 -1.7998 -0.7738
   54ETHOX  H1359913   9.783  10.760  16.404  1.2168  0.6378 -0.8334
   54ETHOX   C259914   9.613  10.832  16.284 -0.1815  0.0663  0.1992
   54ETHOX  H2159915   9.667  10.798  16.193  1.1146 -0.4310  1.1178
   54ETHOX  H2359916   9.551  10.919  16.253 -1.3181 -0.7647  0.0457
   55ETHOX   O159917   9.533  10.717  16.309 -0.8495  0.0004 -0.4091
   55ETHOX   C159918   9.424  10.693  16.222 -0.0694  0.4217 -0.7975
   55ETHOX  H1159919   9.354  10.779  16.223 -3.0714 -1.8172  1.0229
   55ETHOX  H1359920   9.455  10.676  16.117 -1.3711  1.0761 -1.3161
   55ETHOX   C259921   9.336  10.568  16.276 -0.3386  0.4666  0.3757
   55ETHOX  H2159922   9.324  10.580  16.385 -0.1760  1.2293  0.3184
   55ETHOX  H2359923   9.231  10.573  16.240 -0.7649  3.1292  1.7682
   56ETHOX   O159924   9.389  10.439  16.245  0.4436  0.0521  0.5634
   56ETHOX   C159925   9.291  10.341  16.269  0.1397 -0.3689 -0.2921
   56ETHOX  H1159926   9.226  10.362  16.357  0.4806  3.1115 -0.7536
   56ETHOX  H1359927   9.356  10.253  16.290 -0.5442 -0.9288 -0.4860
   56ETHOX   C259928   9.215  10.293  16.147  0.8473  0.5939 -0.1097
   56ETHOX  H2159929   9.295  10.278  16.071 -1.4429  0.4799 -2.6615
   56ETHOX  H2359930   9.132  10.364  16.126 -0.7940 -1.1247  0.2584
   57ETHOX   O159931   9.139  10.170  16.168 -0.2393 -0.2346  0.0504
   57ETHOX   C159932   9.086  10.119  16.051  0.6134 -0.0722 -0.1089
   57ETHOX  H1159933   8.982  10.154  16.038  0.0000 -0.4593  2.9763
   57ETHOX  H1359934   9.136  10.163  15.962  1.9970  1.2291  1.2555
   57ETHOX   C259935   9.102   9.971  16.041  0.4534  0.4430  0.1844
   57ETHOX  H2159936   9.207   9.954  16.075  0.4716 -0.9390 -0.4982
   57ETHOX  H2359937   9.089   9.928  15.939  1.8950  0.7887 -0.1744
   58ETHOX   O159938   9.021   9.894  16.122 -0.1399  0.3374 -0.9705
   58ETHOX   C159939   8.882   9.885  16.094  0.3402 -0.0654 -0.3056
   58ETHOX  H1159940   8.868   9.866  15.985 -0.2216 -0.8093 -0.1147
   58ETHOX  H1359941   8.844   9.986  16.121  0.9320 -0.1855  1.0806
   58ETHOX   C259942   8.802   9.770  16.161  0.0623  0.5156 -0.1066
   58ETHOX  H2159943   8.694   9.795  16.162 -0.1967 -0.5603  1.2588
   58ETHOX  H2359944   8.832   9.785  16.266 -1.7060  2.5736  0.1762
   59ETHOX   O159945   8.829   9.640  16.104 -0.2521  0.5755 -0.2056
   59ETHOX   C159946   8.729   9.552  16.154  0.6037 -0.7319  0.5335
   59ETHOX  H1159947   8.734   9.548  16.265  0.7690 -1.2833  0.5074
   59ETHOX  H1359948   8.627   9.589  16.127  0.8316 -1.2797 -1.1954
   59ETHOX   C259949   8.757   9.409  16.102  0.2345  0.7974  0.1405
   59ETHOX  H2159950   8.801   9.428  16.002  0.4618  0.0800  0.0970
   59ETHOX  H2359951   8.667   9.343  16.098 -1.5054  3.0872 -2.0387
   60ETHOX   O159952   8.863   9.347  16.180 -0.5257 -0.4060  0.7523
   60ETHOX   C159953   8.820   9.276  16.293  0.3836  0.6933 -1.0481
   60ETHOX  H1159954   8.773   9.180  16.264 -0.0537  0.6874 -0.3357
   60ETHOX  H1359955   8.757   9.343  16.356  0.0595 -0.1845 -0.4184
   60ETHOX   C259956   8.947   9.242  16.378  0.1743 -0.3013 -0.4060
   60ETHOX  H2159957   9.036   9.214  16.318  0.2726  2.1720 -1.5466
   60ETHOX  H2359958   8.925   9.155  16.443  0.9376 -0.9097 -0.9388
   61ETHOX   O159959   8.979   9.350  16.461 -1.4533 -0.5185  0.0973
   61ETHOX   C159960   9.057   9.310  16.571 -0.2173 -0.0724  0.2289
   61ETHOX  H1159961   8.993   9.251  16.640 -0.5611 -0.7538 -0.6494
   61ETHOX  H1359962   9.144   9.248  16.542 -1.6314 -1.8099 -0.4437
   61ETHOX   C259963   9.115   9.437  16.653  0.5522  0.9001  0.3539
   61ETHOX  H2159964   9.169   9.510  16.588  4.1103 -0.3831  1.6184
   61ETHOX  H2359965   9.190   9.397  16.725 -2.4737 -1.5684  2.4161
   62ETHOX   O159966   9.022   9.499  16.735  0.2536 -0.1790  0.2066
   62ETHOX   C159967   9.078   9.612  16.802  0.0989  0.0128  0.8188
   62ETHOX  H1159968   9.125   9.676  16.723 -0.5496  0.5617  0.8641
   62ETHOX  H1359969   9.161   9.574  16.865 -0.6019 -0.5383  1.4235
   62ETHOX   C259970   8.985   9.710  16.878  0.4266  0.1617 -0.3966
   62ETHOX  H2159971   9.041   9.788  16.933  0.2326  0.5919 -0.7977
   62ETHOX  H2359972   8.937   9.651  16.959  1.0263 -2.4372 -1.8064
   63ETHOX   O159973   8.890   9.770  16.800 -0.1656  0.0493 -0.5124
   63ETHOX   C159974   8.796   9.833  16.880  0.0778  0.3714  0.3867
   63ETHOX  H1159975   8.725   9.760  16.924 -0.3971  0.7803  0.3168
   63ETHOX  H1359976   8.835   9.897  16.962  1.1977 -0.1796  0.3079
   63ETHOX   C259977   8.706   9.932  16.799 -0.1589 -0.1463  0.2003
   63ETHOX  H2159978   8.612   9.954  16.853 -0.1272  2.3260 -0.6068
   63ETHOX  H2359979   8.670   9.883  16.706  0.4529 -0.4428  0.1134
   64ETHOX   O159980   8.778  10.053  16.773 -0.4516  0.1878 -0.4844
   64ETHOX   C159981   8.708  10.167  16.733  0.5787  0.5043  0.6882
   64ETHOX  H1159982   8.629  10.180  16.809 -0.3193  0.1770 -0.1597
   64ETHOX  H1359983   8.666  10.138  16.634  0.6932 -0.9619  1.0539
   64ETHOX   C259984   8.793  10.287  16.711 -0.1063  0.0096  0.3026
   64ETHOX  H2159985   8.863  10.294  16.797  1.9134 -0.9434 -1.1810
   64ETHOX  H2359986   8.726  10.375  16.722  0.4076  0.3771  0.5468
   65ETHOX   O159987   8.869  10.295  16.589  0.4829 -1.0012 -0.0145
   65ETHOX   C159988   8.921  10.432  16.565 -0.0622  0.7890 -0.5328
   65ETHOX  H1159989   8.858  10.502  16.624 -1.0534 -0.8914  0.4744
   65ETHOX  H1359990   9.028  10.427  16.594 -0.5614 -0.6832  1.2099
   65ETHOX   C259991   8.904  10.461  16.409 -0.3799  0.8137  0.3127
   65ETHOX  H2159992   8.971  10.394  16.351  0.2449  1.4151  0.3276
   65ETHOX  H2359993   8.942  10.564  16.392  1.4794  0.0178 -0.5883
   66ETHOX   O159994   8.764  10.450  16.375  0.0409 -0.0856 -0.0859
   66ETHOX   C159995   8.739  10.476  16.237  0.2229  0.0582 -0.4920
   66ETHOX  H1159996   8.636  10.453  16.204  0.6792 -1.4840 -0.9371
   66ETHOX  H1359997   8.810  10.411  16.180  3.5818  1.0813  2.1780
   66ETHOX   C259998   8.757  10.625  16.203 -0.8296 -0.1120  0.3214
   66ETHOX  H2159999   8.702  10.690  16.275 -1.3887 -1.3677  1.0677
   66ETHOX  H2360000   8.719  10.639  16.100 -0.0131  0.0290  0.0392
   67ETHOX   O160001   8.897  10.663  16.193  0.8740 -0.6287  0.5517
   67ETHOX   C160002   8.908  10.798  16.159  0.0502 -0.0821 -0.4389
   67ETHOX  H1160003   9.016  10.822  16.145  0.5644 -1.6653  0.6827
   67ETHOX  H1360004   8.856  10.823  16.064 -0.5685  2.6420  0.5147
   67ETHOX   C260005   8.869  10.899  16.271  0.5205 -0.3468  1.0810
   67ETHOX  H2160006   8.760  10.911  16.289  0.5880 -0.5990  1.7074
   67ETHOX  H2360007   8.906  10.994  16.228  2.0329 -0.1487  2.6947
   68ETHOX   O160008   8.934  10.865  16.390  0.1500  0.1498  0.2782
   68ETHOX   C160009   8.879  10.925  16.510 -0.4310  0.6877 -0.1602
   68ETHOX  H1160010   8.777  10.970  16.499  0.7354  3.1251 -2.0222
   68ETHOX  H1360011   8.866  10.841  16.581  2.3835  0.1177 -0.2265
   68ETHOX   C260012   8.965  11.039  16.566  0.2605  0.5190 -0.3668
   68ETHOX  H2160013   9.067  10.996  16.578 -0.4555 -0.9732  0.7032
   68ETHOX  H2360014   8.926  11.074  16.664  1.2528 -0.3492  0.3561
   69ETHOX   O160015   8.963  11.149  16.471 -1.0229  0.0440  0.3503
   69ETHOX   C160016   9.035  11.261  16.523  0.4335 -0.2477 -0.0631
   69ETHOX  H1160017   9.016  11.359  16.475 -1.3924  0.1448  1.2994
   69ETHOX  H1360018   8.995  11.284  16.625  0.2520  3.1944 -0.8003
   69ETHOX   C260019   9.185  11.244  16.508  0.0153  0.0667 -0.3669
   69ETHOX  H2160020   9.202  11.151  16.567 -1.4432  0.1325  0.1965
   69ETHOX  H2360021   9.252  11.324  16.544  1.4925 -1.0233 -0.5884
   70ETHOX   O160022   9.229  11.239  16.372  0.4847  0.2930  0.0170
   70ETHOX   C160023   9.232  11.105  16.326  0.2857 -0.0770 -0.2295
   70ETHOX  H1160024   9.303  11.051  16.393  1.4835  3.2608  1.4483
   70ETHOX  H1360025   9.134  11.053  16.325  0.2299  0.0293 -0.3375
   70ETHOX   C260026   9.285  11.089  16.178 -1.1879  0.2270  0.0669
   70ETHOX  H2160027   9.223  11.151  16.109 -0.4690 -0.0747 -0.8699
   70ETHOX  H2360028   9.260  10.983  16.154  0.7081 -0.3578  0.5771
   71ETHOX   O160029   9.425  11.111  16.164  0.1609  0.2437 -0.5648
   71ETHOX   C160030   9.449  11.249  16.152 -0.0315  0.3465  0.0609
   71ETHOX  H1160031   9.429  11.291  16.253  0.6783  2.1813 -0.5239
   71ETHOX  H1360032   9.381  11.283  16.071  1.2033  1.2995 -0.6111
   71ETHOX   C260033   9.599  11.266  16.126 -0.5268  0.6768  1.1032
   71ETHOX  H2160034   9.624  11.369  16.093  0.2866  0.0281 -0.4174
   71ETHOX  H2360035   9.638  11.208  16.039 -0.1131  2.0331  0.3552
   72ETHOX   O160036   9.683  11.223  16.237  0.2467 -0.4155 -0.3227
   72ETHOX   C160037   9.819  11.266  16.222 -0.6906  0.3564 -0.8328
   72ETHOX  H1160038   9.870  11.194  16.154  0.9234  0.4426  0.2438
   72ETHOX  H1360039   9.815  11.369  16.179 -1.3944  1.1284  0.9839
   72ETHOX   C260040   9.910  11.271  16.343  0.5704  0.0539  0.5823
   72ETHOX  H2160041   9.867  11.333  16.424  0.6428  0.1404  0.5553
   72ETHOX  H2360042  10.005  11.322  16.314  0.3990 -0.0622 -0.2015
   73ETHOX   O160043   9.946  11.138  16.384 -0.0990 -0.9093 -0.0039
   73ETHOX   C160044  10.003  11.148  16.519 -0.3439 -0.0523  0.5331
   73ETHOX  H1160045   9.927  11.185  16.591  0.7267  1.4821  0.9200
   73ETHOX  H1360046  10.096  11.208  16.521 -1.4138  1.8118 -1.3748
   73ETHOX   C260047  10.040  11.007  16.566  0.3962 -0.7096  0.3562
   73ETHOX  H2160048   9.955  10.935  16.561  0.3507 -0.6519  0.2900
   73ETHOX  H2360049  10.063  11.010  16.675  1.0867  1.0375  0.1843
   74ETHOX   O160050  10.143  10.949  16.499  0.3766 -0.5460 -0.6412
   74ETHOX   C160051  10.169  10.811  16.530  0.4769  0.5070 -0.4109
   74ETHOX  H1160052  10.169  10.801  16.641 -0.6272  1.2126 -0.3370
   74ETHOX  H1360053  10.101  10.732  16.491 -0.5327 -1.5353  4.6438
   74ETHOX   C260054  10.305  10.769  16.469  0.1947  0.1095 -0.3019
   74ETHOX  H2160055  10.310  10.793  16.361 -3.9813  2.2820 -0.1896
   74ETHOX  H2360056  10.314  10.658  16.467  1.6990  0.1830  0.8875
   75ETHOX   O160057  10.419  10.816  16.552  0.0028 -0.0426 -0.3621
   75ETHOX   C160058  10.538  10.817  16.473 -0.4219 -1.0548 -0.2727
   75ETHOX  H1160059  10.519  10.891  16.392  0.3887  2.4495  2.4694
   75ETHOX  H1360060  10.557  10.714  16.436 -2.8709 -1.8643  0.5176
   75ETHOX   C260061  10.664  10.865  16.548 -0.3226  0.4322  0.7551
   75ETHOX  H2160062  10.758  10.823  16.506 -0.8618 -1.6496  1.5198
   75ETHOX  H2360063  10.669  10.814  16.646 -2.8908  0.8517  1.1706
   76ETHOX   O160064  10.670  11.013  16.563 -0.1108  0.2624 -0.4517
   76ETHOX   C160065  10.803  11.038  16.607 -0.5450  0.2184 -0.1012
   76ETHOX  H1160066  10.818  10.969  16.693 -3.3120 -0.6907 -0.2607
   76ETHOX  H1360067  10.873  11.008  16.526  1.7086  0.9766  1.4718
   76ETHOX   C260068  10.828  11.183  16.638 -0.0188 -0.1760 -0.0157
   76ETHOX  H2160069  10.936  11.197  16.660 -0.2011 -0.0700  0.8529
   76ETHOX  H2360070  10.760  11.208  16.722 -1.3459 -1.5904 -0.6353
   77ETHOX   O160071  10.803  11.262  16.521  1.0780  0.6805  0.4167
   77ETHOX   C160072  10.800  11.397  16.543  0.0620 -0.4843 -0.4780
   77ETHOX  H1160073  10.902  11.441  16.543 -0.5841  1.3259  2.7518
   77ETHOX  H1360074  10.767  11.414  16.648  0.9339  0.9056 -0.3989
   77ETHOX   C260075  10.718  11.469  16.446  0.3334 -0.2785  0.4032
   77ETHOX  H2160076  10.767  11.461  16.347  1.3088 -2.4434  0.9988
   77ETHOX  H2360077  10.737  11.574  16.475  3.2989 -0.6893  0.3136
   78ETHOX   O160078  10.578  11.430  16.431  0.3459  0.6832 -0.5327
   78ETHOX   C160079  10.528  11.474  16.305 -0.4801 -0.3973  0.3669
   78ETHOX  H1160080  10.560  11.580  16.301 -0.9597 -0.2701 -0.1852
   78ETHOX  H1360081  10.573  11.412  16.225 -0.8701 -0.1350 -0.0630
   78ETHOX   C260082  10.371  11.485  16.303 -0.6694 -0.2042  0.4041
   78ETHOX  H2160083  10.330  11.384  16.325  0.4212 -0.2320  2.6038
   78ETHOX  H2360084  10.335  11.520  16.204  0.6406  0.8509  0.2811
   79ETHOX   O160085  10.327  11.573  16.409 -0.2199  0.6341  0.4828
   79ETHOX   C160086  10.185  11.580  16.431 -0.4306 -0.6953 -0.1884
   79ETHOX  H1160087  10.128  11.590  16.336 -2.5793  1.4021  1.2096
   79ETHOX  H1360088  10.141  11.490  16.481  0.2053 -0.9935 -0.1585
   79ETHOX   C260089  10.135  11.711  16.500 -0.1403 -0.6159  0.2615
   79ETHOX  H2160090  10.024  11.711  16.506 -0.3020  1.5930 -1.3592
   79ETHOX  H2360091  10.145  11.786  16.418 -1.2582 -2.4952 -1.6950
   80ETHOX   O160092  10.190  11.753  16.626  0.0576 -0.7991  0.2430
   80ETHOX   C160093  10.126  11.878  16.661 -0.4917  0.3983  0.1859
   80ETHOX  H1160094  10.135  11.953  16.579 -1.4218 -0.8826 -1.1498
   80ETHOX  H1360095  10.017  11.857  16.662 -0.0878 -2.3088  2.9525
   80ETHOX   C260096  10.163  11.931  16.804  0.0970  0.6799  0.2036
   80ETHOX  H2160097  10.143  11.851  16.878 -0.4803 -1.4583 -2.1300
   80ETHOX  H2360098  10.104  12.023  16.825 -2.1655 -1.0848  2.0204
   81ETHOX   O160099  10.305  11.956  16.810 -0.1351  0.0512 -0.0996
   81ETHOX   C160100  10.342  12.043  16.923  0.2911  0.3090  0.5459
   81ETHOX  H1160101  10.283  12.136  16.911 -0.3418 -0.2241 -0.6647
   81ETHOX  H1360102  10.315  11.983  17.012 -0.0662  1.5079  1.2655
   81ETHOX   C260103  10.494  12.073  16.935  0.1341  0.3746  0.8837
   81ETHOX  H2160104  10.510  12.133  17.027 -0.7585  3.0482 -0.5674
   81ETHOX  H2360105  10.546  11.976  16.951  2.5216  1.5293  0.5602
   82ETHOX   O160106  10.535  12.147  16.820 -0.2440  0.1368  0.6738
   82ETHOX   C160107  10.668  12.196  16.831  0.5395  0.3483 -0.5582
   82ETHOX  H1160108  10.735  12.108  16.836 -0.5617 -0.6086 -1.9577
   82ETHOX  H1360109  10.662  12.249  16.928 -3.5466  1.0806 -1.0295
   82ETHOX   C260110  10.707  12.287  16.717  0.2672  0.6190  0.1791
   82ETHOX  H2160111  10.687  12.244  16.617 -1.0271  1.7688 -0.0912
   82ETHOX  H2360112  10.813  12.318  16.721  0.8990 -1.2793 -0.4828
   83ETHOX   O160113  10.623  12.405  16.727  0.3410  0.1976 -0.1301
   83ETHOX   C160114  10.637  12.484  16.612  0.7307  0.7289  1.1245
   83ETHOX  H1160115  10.599  12.435  16.521  0.2546  3.0322  0.0144
   83ETHOX  H1360116  10.564  12.568  16.620 -1.0025 -0.6772  0.6454
   83ETHOX   C260117  10.781  12.539  16.599 -0.2465 -0.5458  0.1964
   83ETHOX  H2160118  10.848  12.454  16.573 -1.5685 -1.5914  0.1310
   83ETHOX  H2360119  10.818  12.565  16.701  0.2446 -0.3478 -0.0298
   84ETHOX   O160120  10.784  12.647  16.505 -0.8640 -0.6366 -0.8292
   84ETHOX   C160121  10.919  12.695  16.472 -0.2377 -0.5240 -0.4612
   84ETHOX  H1160122  10.987  12.607  16.464  1.5908  0.7757  0.1584
   84ETHOX  H1360123  10.961  12.744  16.562 -1.2338 -1.4579  0.5482
   84ETHOX   C260124  10.915  12.795  16.353  0.4684 -0.2637  0.1884
   84ETHOX  H2160125  10.843  12.771  16.271  1.4881  2.1387 -1.5453
   84ETHOX  H2360126  11.019  12.797  16.314  0.6721  2.4205  0.6651
   85ETHOX   O160127  10.872  12.925  16.394  0.0745 -0.1168  0.3256
   85ETHOX   C160128  10.852  13.014  16.278 -0.1769 -0.1776 -0.2089
   85ETHOX  H1160129  10.951  13.031  16.229 -0.8581  0.2736 -1.4812
   85ETHOX  H1360130  10.777  12.968  16.210  0.4001 -0.8096 -0.4355
   85ETHOX   C260131  10.788  13.149  16.312 -0.4081  0.4640 -0.0363
   85ETHOX  H2160132  10.688  13.136  16.358 -0.9073  0.1666 -1.1632
   85ETHOX  H2360133  10.773  13.206  16.218  0.7605  0.3898 -0.2861
   86ETHOX   O160134  10.883  13.213  16.394 -0.1594 -0.2378 -0.8925
   86ETHOX   C160135  10.815  13.327  16.455 -0.5794 -0.1922 -0.1718
   86ETHOX  H1160136  10.745  13.276  16.524 -0.9283  0.2139 -0.2212
   86ETHOX  H1360137  10.748  13.377  16.381 -0.9482 -0.1819  0.1643
   86ETHOX   C260138  10.891  13.436  16.537  0.2638  0.6221 -0.6462
   86ETHOX  H2160139  10.947  13.385  16.618  1.4332  1.4764 -0.8803
   86ETHOX  H2360140  10.830  13.508  16.596  1.3849  0.0226  1.3068
   87ETHOX   O160141  10.986  13.518  16.461 -0.8566  0.5621  0.4120
   87ETHOX   C160142  11.113  13.452  16.433  0.2604 -0.2871 -0.0283
   87ETHOX  H1160143  11.152  13.419  16.531  1.0487  1.8727  0.4311
   87ETHOX  H1360144  11.110  13.367  16.362  0.0303  0.1315 -0.5354
   87ETHOX   C260145  11.222  13.550  16.382  0.9624  0.2666  0.0547
   87ETHOX  H2160146  11.246  13.632  16.454  1.2866  1.3248 -1.2142
   87ETHOX  H2360147  11.190  13.597  16.287  1.2621 -0.4389 -0.4003
   88ETHOX   O160148  11.339  13.466  16.371  0.3603 -0.3477  0.1085
   88ETHOX   C160149  11.448  13.532  16.309 -0.2161 -0.0203 -0.0798
   88ETHOX  H1160150  11.477  13.612  16.380  0.1424  0.6321 -0.9447
   88ETHOX  H1360151  11.419  13.575  16.211  0.1843  0.8046  0.1592
   88ETHOX   C260152  11.577  13.443  16.298  0.1104 -0.7107 -0.1924
   88ETHOX  H2160153  11.567  13.368  16.380  0.3043 -1.8576 -1.1852
   88ETHOX  H2360154  11.671  13.502  16.304 -0.8700  0.7805  3.7329
   89ETHOX   O160155  11.569  13.371  16.177 -0.3300  0.2552 -0.3335
   89ETHOX   C160156  11.652  13.260  16.173 -0.2957 -0.3221 -0.1371
   89ETHOX  H1160157  11.754  13.305  16.174 -0.9603  1.3634  2.2462
   89ETHOX  H1360158  11.645  13.200  16.267 -0.7517 -1.1165 -0.6741
   89ETHOX   C260159  11.635  13.175  16.047  0.3013  0.4003 -0.3171
   89ETHOX  H2160160  11.529  13.146  16.034  0.1187  0.2426  1.3884
   89ETHOX  H2360161  11.698  13.086  16.066 -0.4595 -0.1120 -0.1737
   90ETHOX   O160162  11.693  13.234  15.926  0.6035 -0.7480 -0.2924
   90ETHOX   C160163  11.675  13.153  15.811 -0.7264 -1.2168  0.1868
   90ETHOX  H1160164  11.720  13.056  15.841 -0.8262 -1.1460  0.5623
   90ETHOX  H1360165  11.566  13.155  15.788 -0.4432  1.5409 -1.3471
   90ETHOX   C260166  11.749  13.220  15.696 -0.4710  0.1326 -0.5205
   90ETHOX  H2160167  11.704  13.321  15.689 -0.6930  0.2322  1.6953
   90ETHOX  H2360168  11.733  13.161  15.603 -1.3934 -0.5711  0.0669
   91ETHOX   O160169  11.891  13.228  15.730 -0.8807 -0.5855  0.9778
   91ETHOX   C160170  11.952  13.322  15.647  0.3140 -0.4936  0.2581
   91ETHOX  H1160171  11.910  13.313  15.544  2.4559 -0.1457 -0.7163
   91ETHOX  H1360172  11.918  13.424  15.672 -2.0328 -0.5283 -2.2754
   91ETHOX   C260173  12.104  13.309  15.637  0.3190  0.9650  0.2314
   91ETHOX  H2160174  12.152  13.324  15.736 -0.5491  2.2656  0.4829
   91ETHOX  H2360175  12.140  13.397  15.579  1.6206 -0.2540 -0.8781
   92ETHOX   O160176  12.134  13.179  15.585  0.2447 -0.0028  0.2080
   92ETHOX   C160177  12.270  13.155  15.602  0.4527  0.3510  0.1197
   92ETHOX  H1160178  12.325  13.240  15.555 -0.0454 -0.3095 -1.7243
   92ETHOX  H1360179  12.296  13.152  15.710  0.7544  0.7857  0.0642
   92ETHOX   C260180  12.305  13.028  15.515  0.7931 -0.8052 -0.0699
   92ETHOX  H2160181  12.408  12.987  15.519  1.3778  0.7220  2.5677
   92ETHOX  H2360182  12.286  13.070  15.414 -1.4279  1.6789  1.2425
   93ETHOX   O160183  12.202  12.928  15.528 -0.7297 -0.3377  0.2963
   93ETHOX   C160184  12.245  12.821  15.451  0.8081  0.8247 -0.3820
   93ETHOX  H1160185  12.338  12.780  15.496 -0.4890 -1.4808  0.3642
   93ETHOX  H1360186  12.266  12.850  15.346 -2.0221 -1.7944 -1.8742
   93ETHOX   C260187  12.127  12.727  15.453  0.6255 -0.0200  0.2295
   93ETHOX  H2160188  12.172  12.635  15.410  1.1472 -1.1389  2.9602
   93ETHOX  H2360189  12.046  12.780  15.398  0.8063  2.9228  2.5143
   94ETHOX   O160190  12.088  12.696  15.589 -0.3238 -0.2893 -0.2687
   94ETHOX   C160191  11.985  12.602  15.594 -0.3792  0.1720  0.3416
   94ETHOX  H1160192  11.887  12.652  15.611 -0.9620 -0.8946  0.2281
   94ETHOX  H1360193  11.982  12.539  15.503  0.9026  0.7033 -0.0845
   94ETHOX   C260194  12.010  12.513  15.721 -0.0402  0.5888  0.9524
   94ETHOX  H2160195  11.905  12.484  15.741 -0.9837  0.6722 -2.9716
   94ETHOX  H2360196  12.070  12.550  15.807  1.4007 -0.7791  0.5851
   95ETHOX   O160197  12.078  12.391  15.666  0.2891  0.4310 -0.6199
   95ETHOX   C160198  12.218  12.407  15.649 -0.0495  0.3053 -0.0678
   95ETHOX  H1160199  12.263  12.447  15.742  1.2614 -1.1126 -0.0475
   95ETHOX  H1360200  12.247  12.472  15.563  1.3061  1.5796  1.3029
   95ETHOX   C260201  12.294  12.276  15.637 -0.1316  1.1189 -0.1767
   95ETHOX  H2160202  12.274  12.214  15.727 -0.8829  0.0079 -1.0874
   95ETHOX  H2360203  12.402  12.301  15.633  0.4247 -1.1956 -0.8549
   96ETHOX   O160204  12.261  12.212  15.520 -0.5809  0.1729  0.1604
   96ETHOX   C160205  12.315  12.085  15.518  0.0280  0.7379 -0.2193
   96ETHOX  H1160206  12.390  12.068  15.598  0.0954  1.2086 -0.1811
   96ETHOX  H1360207  12.231  12.014  15.533 -1.9223  2.8556 -0.4504
   96ETHOX   C260208  12.381  12.065  15.386  0.3443  0.1655 -0.0465
   96ETHOX  H2160209  12.432  11.966  15.380  3.7869  1.4521  3.3144
   96ETHOX  H2360210  12.454  12.147  15.367 -1.3230  2.0003  1.0491
   97ETHOX   O160211  12.289  12.066  15.279 -0.0130  0.4200 -0.7183
   97ETHOX   C160212  12.347  12.041  15.146  0.1708 -0.4157 -0.4748
   97ETHOX  H1160213  12.326  11.934  15.123 -0.0132 -0.1385 -1.7019
   97ETHOX  H1360214  12.456  12.060  15.141  0.3225  0.6762  3.4505
   97ETHOX   C260215  12.269  12.108  15.038  0.0033 -0.1708  0.3732
   97ETHOX  H2160216  12.325  12.108  14.942  0.6082 -0.7786  0.7179
   97ETHOX  H2360217  12.273  12.215  15.069 -1.5615 -0.2596  0.9883
   98ETHOX   O160218  12.137  12.071  15.012 -0.0763  0.5427 -0.4605
   98ETHOX   C160219  12.071  12.189  14.956 -0.2764 -0.2431 -0.2473
   98ETHOX  H1160220  12.083  12.274  15.027  0.6854 -0.9236  0.4276
   98ETHOX  H1360221  12.115  12.211  14.857 -0.6385 -0.7245 -0.5174
   98ETHOX   C260222  11.926  12.169  14.916  0.2733 -0.5334  0.8291
   98ETHOX  H2160223  11.858  12.163  15.003 -1.0513  1.3918 -0.0248
   98ETHOX  H2360224  11.902  12.075  14.863 -1.6208  0.0506  0.5944
   99ETHOX   O160225  11.886  12.266  14.825  0.0941 -0.8600 -0.3460
   99ETHOX   C160226  11.906  12.396  14.872 -0.8791 -0.7874 -0.9002
   99ETHOX  H1160227  12.014  12.424  14.867 -1.2722  0.5766 -3.5158
   99ETHOX  H1360228  11.865  12.398  14.975  1.6562 -1.1375  0.1904
   99ETHOX   C260229  11.842  12.503  14.779  0.0890 -0.1462  0.0531
   99ETHOX  H2160230  11.867  12.484  14.672 -0.4500 -0.7219  0.0205
   99ETHOX  H2360231  11.868  12.606  14.809 -0.2905  0.1393 -0.5767
  100ETHOX   O160232  11.703  12.475  14.788  0.2612 -0.6146 -0.4991
  100ETHOX   C160233  11.623  12.587  14.757  0.2089 -0.4435 -0.5464
  100ETHOX  H1160234  11.676  12.651  14.683  1.6580 -0.8245  0.1383
  100ETHOX  H1360235  11.529  12.546  14.713 -0.2308  0.3205 -0.3489
  100ETHOX   C260236  11.591  12.678  14.880  0.5614  0.1028  0.1594
  100ETHOX  H2160237  11.534  12.616  14.952 -2.1943  0.4159 -1.6059
  100ETHOX  H2360238  11.517  12.757  14.856 -0.8597 -1.1535  0.2303
  101PROXS   O160239  11.700  12.745  14.944 -0.7101  0.1286 -0.0229
  101PROXS   C160240  11.739  12.861  14.865  0.2655  0.1030 -0.3248
  101PROXS  H1160241  11.778  12.835  14.765  1.5120 -1.1678  0.4520
  101PROXS  H1360242  11.647  12.922  14.850 -0.9929 -0.9888  2.2026
  101PROXS   C260243  11.847  12.943  14.945  0.1503  0.1987  0.0613
  101PROXS  H2160244  11.812  12.946  15.050 -1.9614  0.8821 -0.5949
  101PROXS   C360245  11.852  13.096  14.905 -0.0199 -0.4432  0.2991
  101PROXS  H3160246  11.746  13.131  14.901  0.2653  0.3563 -1.4245
  101PROXS  H3260247  11.896  13.153  14.989 -0.5057 -0.3931  0.5253
  101PROXS  H3360248  11.893  13.123  14.805  0.6873 -1.2498  0.3622
  102PROXS   O160249  11.972  12.883  14.929 -0.5965  0.2522  0.0460
  102PROXS   C160250  12.063  12.912  15.031 -0.2256 -0.2986 -0.2208
  102PROXS  H1160251  12.080  13.022  15.037 -1.5031 -0.1381  0.8730
  102PROXS  H1360252  12.017  12.878  15.126  1.4376 -1.6115  0.1640
  102PROXS   C260253  12.189  12.827  15.015 -0.5791  1.0840 -0.0468
  102PROXS  H2160254  12.233  12.843  14.914 -0.6018 -1.1032 -0.4462
  102PROXS   C360255  12.145  12.677  15.030 -0.3848  0.2748  0.3669
  102PROXS  H3160256  12.240  12.620  15.027 -1.1011 -1.1305  2.2786
  102PROXS  H3260257  12.106  12.667  15.134  1.5939 -2.3314  0.9396
  102PROXS  H3360258  12.073  12.644  14.952 -1.1882  0.4333  1.0288
  103PROXR   O160259  12.291  12.871  15.111  0.0525  0.2866  0.1304
  103PROXR   C160260  12.424  12.815  15.081  0.3104 -0.2704 -0.1393
  103PROXR  H1160261  12.427  12.710  15.118 -0.2226 -0.9510 -1.9251
  103PROXR  H1360262  12.425  12.818  14.970 -2.8991 -0.2682 -0.2589
  103PROXR   C260263  12.536  12.896  15.159 -0.1390 -0.3074 -0.7710
  103PROXR  H2160264  12.524  12.863  15.264 -0.3321 -0.9696 -0.9921
  103PROXR   C360265  12.532  13.045  15.158 -0.3064 -0.5441  1.3712
  103PROXR  H3160266  12.427  13.067  15.185 -0.4142  0.0681  0.5094
  103PROXR  H3260267  12.592  13.091  15.239  0.4102  1.7043 -0.3115
  103PROXR  H3360268  12.565  13.081  15.058 -0.7730 -1.7245  0.7741
  104PROXS   O160269  12.665  12.849  15.120  0.0534 -0.1807 -0.2093
  104PROXS   C160270  12.776  12.895  15.196 -0.2494 -0.3753  0.1953
  104PROXS  H1160271  12.805  12.988  15.144  0.7376 -0.6931  0.1633
  104PROXS  H1360272  12.755  12.909  15.304  2.2092  2.0436  0.4594
  104PROXS   C260273  12.894  12.793  15.191  0.0242  0.1995  1.2101
  104PROXS  H2160274  12.914  12.772  15.084 -0.4406 -1.3392  1.3945
  104PROXS   C360275  12.864  12.657  15.246 -0.6539 -0.0068 -0.1669
  104PROXS  H3160276  12.763  12.623  15.217  0.4469 -2.5397 -1.3802
  104PROXS  H3260277  12.921  12.572  15.202 -0.6981 -0.1944  0.1385
  104PROXS  H3360278  12.871  12.668  15.356  0.9793  2.8716 -0.4558
  105PROXS   O160279  13.005  12.853  15.252 -0.2239  0.0280 -0.4295
  105PROXS   C160280  13.128  12.778  15.244 -0.1694  0.0367 -0.4726
  105PROXS  H1160281  13.112  12.701  15.321 -0.5475  0.5244 -0.0582
  105PROXS  H1360282  13.134  12.738  15.140 -1.2207 -1.8265  0.1333
  105PROXS   C260283  13.252  12.859  15.279 -0.3829 -0.2017  0.1011
  105PROXS  H2160284  13.258  12.954  15.221  0.5772 -0.2574  0.0849
  105PROXS   C360285  13.388  12.805  15.231 -0.4991 -0.4012 -0.0721
  105PROXS  H3160286  13.398  12.700  15.266  1.6198 -0.7419 -1.5146
  105PROXS  H3260287  13.399  12.800  15.121 -0.9722  0.5150 -0.1772
  105PROXS  H3360288  13.472  12.870  15.262 -1.3117  0.0540  1.3027
  106PROXS   O160289  13.255  12.877  15.414  0.4231 -0.0549 -0.3519
  106PROXS   C160290  13.198  12.997  15.459  0.2032  0.7511 -0.0272
  106PROXS  H1160291  13.109  13.018  15.397  0.7160 -2.6176 -2.2215
  106PROXS  H1360292  13.155  12.976  15.559 -2.2667  0.5240 -1.0684
  106PROXS   C260293  13.293  13.116  15.462 -0.0220 -0.0487 -0.2746
  106PROXS  H2160294  13.306  13.161  15.362 -0.7843 -3.2985 -1.9818
  106PROXS   C360295  13.432  13.076  15.514  0.2267 -0.4108  0.6328
  106PROXS  H3160296  13.419  13.016  15.606  1.6807 -0.0902  1.0690
  106PROXS  H3260297  13.492  13.025  15.436  1.4006 -1.5374  2.2094
  106PROXS  H3360298  13.485  13.164  15.556  1.3948 -1.5232  1.5600
  107PROXR   O160299  13.237  13.216  15.544 -0.2437 -0.0634  0.1756
  107PROXR   C160300  13.271  13.346  15.501  0.5081 -0.6232  0.2882
  107PROXR  H1160301  13.252  13.418  15.583 -1.2658  1.3922 -1.7509
  107PROXR  H1360302  13.378  13.362  15.474  0.2056 -1.0124 -1.2548
  107PROXR   C260303  13.177  13.389  15.382  0.6183 -0.2349  0.0224
  107PROXR  H2160304  13.174  13.307  15.307  0.5354 -2.2289  2.0978
  107PROXR   C360305  13.232  13.520  15.325 -0.0197 -0.9714 -0.6033
  107PROXR  H3160306  13.331  13.504  15.278  0.2769 -0.2038 -0.2439
  107PROXR  H3260307  13.165  13.559  15.245 -0.7885 -0.8309  0.0984
  107PROXR  H3360308  13.233  13.601  15.401 -3.1423 -0.1695 -1.2630
  108PROXS   O160309  13.043  13.414  15.426  0.4533  0.2244  0.2596
  108PROXS   C160310  12.970  13.297  15.453 -0.2235  0.3929 -0.0258
  108PROXS  H1160311  12.984  13.213  15.382 -1.8521  1.7085 -1.9796
  108PROXS  H1360312  12.986  13.269  15.560 -0.8786 -0.4470 -0.1387
  108PROXS   C260313  12.821  13.317  15.440 -0.1244  0.3443 -0.1266
  108PROXS  H2160314  12.787  13.401  15.504 -2.0899 -1.6373  1.5945
  108PROXS   C360315  12.753  13.198  15.505  0.3221  0.3177 -0.2113
  108PROXS  H3160316  12.804  13.164  15.597  1.5069  1.0540 -0.5676
  108PROXS  H3260317  12.645  13.219  15.525  0.9046  1.9753  1.5046
  108PROXS  H3360318  12.759  13.109  15.439  0.8413 -1.9384  2.7165
  109PROXS   O160319  12.781  13.327  15.303 -0.2347 -0.5573 -0.0557
  109PROXS   C160320  12.655  13.386  15.294  0.3603  0.5178  0.4346
  109PROXS  H1160321  12.579  13.329  15.351  0.2432 -1.4247 -1.5493
  109PROXS  H1360322  12.662  13.489  15.335  0.5443  0.8258 -0.3530
  109PROXS   C260323  12.596  13.400  15.146 -0.4411  0.6933 -0.0724
  109PROXS  H2160324  12.612  13.305  15.090  0.3135  0.6349  0.2254
  109PROXS   C360325  12.677  13.512  15.070  0.5112  0.7859 -0.5442
  109PROXS  H3160326  12.669  13.612  15.117 -1.7181  0.4027 -0.0138
  109PROXS  H3260327  12.787  13.501  15.058  0.6638 -0.0415  1.3392
  109PROXS  H3360328  12.631  13.516  14.969 -0.9228  2.7210  0.1216
  110PROXR   O160329  12.459  13.433  15.155 -0.2316 -0.3956 -0.0350
  110PROXR   C160330  12.393  13.434  15.028  0.7155 -0.4190  0.2592
  110PROXR  H1160331  12.415  13.524  14.967 -2.0221 -1.0040 -1.7689
  110PROXR  H1360332  12.414  13.343  14.967  0.9531 -1.7911  2.2933
  110PROXR   C260333  12.237  13.433  15.059  0.1218  0.8085  0.1338
  110PROXR  H2160334  12.208  13.521  15.119  1.5370  2.4169 -1.4367
  110PROXR   C360335  12.192  13.306  15.128 -0.5081 -1.0195  0.0527
  110PROXR  H3160336  12.092  13.320  15.175  0.1319  0.8857  0.9577
  110PROXR  H3260337  12.190  13.221  15.056  0.2475 -0.7019 -0.3515
  110PROXR  H3360338  12.265  13.259  15.198 -0.8646 -0.8122  0.5643
  111PROXS   O160339  12.169  13.439  14.932  0.3174 -0.0280  0.3045
  111PROXS   C160340  12.040  13.485  14.946  0.5209  0.0838 -0.6322
  111PROXS  H1160341  11.986  13.431  15.027  0.0587 -0.6453 -1.4184
  111PROXS  H1360342  12.050  13.594  14.968  1.8337 -0.4679  2.0074
  111PROXS   C260343  11.954  13.464  14.821 -0.1103 -0.4336 -0.5007
  111PROXS  H2160344  11.955  13.354  14.810 -0.6311 -0.2304 -3.2406
  111PROXS   C360345  12.018  13.524  14.702  1.4977 -0.1875  0.0430
  111PROXS  H3160346  12.123  13.493  14.685  1.9186 -0.8024  3.1608
  111PROXS  H3260347  11.973  13.481  14.610 -0.2420 -2.8240  1.9803
  111PROXS  H3360348  12.020  13.635  14.696  2.5860 -0.2192 -0.3052
  112PROXR   O160349  11.821  13.512  14.841 -0.5061  0.2405  0.0305
  112PROXR   C160350  11.728  13.434  14.768 -0.8112  0.1496  0.1937
  112PROXR  H1160351  11.774  13.391  14.677 -1.1547  1.3744 -0.5786
  112PROXR  H1360352  11.682  13.356  14.833 -1.7894  0.3720 -0.2172
  112PROXR   C260353  11.607  13.524  14.740 -0.1212  0.2954 -0.6077
  112PROXR  H2160354  11.653  13.624  14.722  0.5750  0.4771  1.8903
  112PROXR   C360355  11.508  13.523  14.852  0.5310  0.3640  0.1758
  112PROXR  H3160356  11.420  13.586  14.831 -0.0930 -0.7346 -0.6508
  112PROXR  H3260357  11.468  13.420  14.867 -0.8354  0.5596 -1.7807
  112PROXR  H3360358  11.548  13.560  14.949 -0.3849  2.4702 -0.2099
  113PROXS   O160359  11.538  13.476  14.627 -0.3011 -0.1012  0.7248
  113PROXS   C160360  11.607  13.491  14.503 -0.0481  0.0128 -0.1822
  113PROXS  H1160361  11.711  13.452  14.506 -0.8741 -2.4057 -1.0788
  113PROXS  H1360362  11.554  13.434  14.424 -2.2198  1.8458 -0.1293
  113PROXS   C260363  11.613  13.640  14.452  0.6637 -0.5101  0.3852
  113PROXS  H2160364  11.667  13.701  14.528  0.8290  1.1201 -0.9727
  113PROXS   C360365  11.466  13.702  14.415 -0.3695  0.9607 -0.5841
  113PROXS  H3160366  11.398  13.630  14.466  2.2156 -0.9593  0.4005
  113PROXS  H3260367  11.467  13.798  14.471  0.7174 -0.8697  2.8643
  113PROXS  H3360368  11.445  13.706  14.306 -1.0583 -1.5000 -0.5961
  114PROXR   O160369  11.686  13.654  14.332 -0.1372 -0.4150 -0.7216
  114PROXR   C160370  11.729  13.790  14.309 -0.2120 -0.8124 -0.1732
  114PROXR  H1160371  11.659  13.844  14.241 -0.9599  0.8155  1.7709
  114PROXR  H1360372  11.725  13.857  14.397 -0.3614  1.9857 -2.1573
  114PROXR   C260373  11.876  13.789  14.256 -0.3083  0.1941  0.0641
  114PROXR  H2160374  11.888  13.701  14.189 -1.6108  0.2247 -0.2495
  114PROXR   C360375  11.977  13.780  14.374 -0.3202  0.9053  0.6119
  114PROXR  H3160376  11.982  13.867  14.443  1.0585  0.0528  1.6264
  114PROXR  H3260377  11.964  13.687  14.432 -2.5393  0.2964 -0.7199
  114PROXR  H3360378  12.079  13.765  14.334 -0.1515  0.2332  1.2957
  115PROXR   O160379  11.909  13.916  14.195 -0.1174  0.3392  0.3280
  115PROXR   C160380  11.866  13.923  14.059  0.3018 -0.2041 -0.3056
  115PROXR  H1160381  11.881  13.830  14.000 -0.1555  0.4983 -1.5443
  115PROXR  H1360382  11.758  13.943  14.046  0.4842  0.7458 -0.4147
  115PROXR   C260383  11.939  14.035  13.985 -0.0812 -0.4675 -0.3940
  115PROXR  H2160384  11.922  14.128  14.043  1.1973  0.2009 -1.0477
  115PROXR   C360385  11.884  14.058  13.842 -0.2245 -0.1210 -0.6088
  115PROXR  H3160386  11.907  13.968  13.782 -0.3135 -0.0719 -0.7154
  115PROXR  H3260387  11.776  14.082  13.845 -0.3385 -0.3723 -1.9562
  115PROXR  H3360388  11.924  14.149  13.792 -0.0171  0.0650 -0.1079
  116PROXS   O160389  12.083  14.012  13.978 -0.2036  0.3325  0.2370
  116PROXS   C160390  12.155  14.070  14.085  0.0849 -0.1594  0.1182
  116PROXS  H1160391  12.164  14.179  14.064 -1.2255 -0.3149 -1.4578
  116PROXS  H1360392  12.106  14.054  14.184 -0.6256  0.0877 -0.1805
  116PROXS   C260393  12.303  14.012  14.117 -0.0124 -0.3327  0.3795
  116PROXS  H2160394  12.380  14.046  14.044 -0.0161 -0.4189  0.3368
  116PROXS   C360395  12.311  13.860  14.124  0.1720  0.0458  0.3137
  116PROXS  H3160396  12.249  13.811  14.046  1.3997  1.9460 -1.9885
  116PROXS  H3260397  12.420  13.837  14.125 -0.1301 -1.6988 -1.1530
  116PROXS  H3360398  12.263  13.844  14.223 -1.6785  4.5190  0.3853
  117PROXS   O160399  12.338  14.056  14.251 -0.3649  0.5088  0.0451
  117PROXS   C160400  12.399  14.187  14.262 -0.4749 -0.2320 -0.1917
  117PROXS  H1160401  12.452  14.221  14.171  2.9072  0.5378  1.8906
  117PROXS  H1360402  12.322  14.266  14.272 -0.1584  0.0230  0.2683
  117PROXS   C260403  12.504  14.202  14.378 -0.0923 -0.1177  0.1463
  117PROXS  H2160404  12.475  14.149  14.471  0.5306 -2.5256 -0.9488
  117PROXS   C360405  12.534  14.350  14.401 -0.0420 -0.1490 -0.5643
  117PROXS  H3160406  12.451  14.402  14.452  1.4363  0.3950  1.4099
  117PROXS  H3260407  12.615  14.363  14.476 -2.5974 -0.3121  2.4277
  117PROXS  H3360408  12.562  14.401  14.307  2.2645  2.1966  1.2359
  118PROXR   O160409  12.630  14.149  14.336  0.2277  0.3524  0.0376
  118PROXR   C160410  12.648  14.015  14.377  0.4890  0.3321  0.5059
  118PROXR  H1160411  12.626  14.022  14.486 -0.6420  1.3637  0.2368
  118PROXR  H1360412  12.574  13.944  14.335 -1.2675  1.2489  1.9123
  118PROXR   C260413  12.784  13.965  14.345  0.1534 -0.0858  0.1532
  118PROXR  H2160414  12.867  14.023  14.392  0.5282  0.5967 -1.3107
  118PROXR   C360415  12.813  13.968  14.192 -0.6140  0.7158  0.3310
  118PROXR  H3160416  12.912  13.927  14.165 -1.7686 -1.7101 -0.5089
  118PROXR  H3260417  12.741  13.904  14.137  1.2339  0.5813 -2.0711
  118PROXR  H3360418  12.808  14.076  14.166  0.8986  0.9066  0.7524
  119PROXR   O160419  12.792  13.822  14.384  0.2749  0.2973  0.2918
  119PROXR   C160420  12.819  13.799  14.517 -0.7167  0.8924  0.3155
  119PROXR  H1160421  12.908  13.861  14.540  0.4196  0.8219 -3.2025
  119PROXR  H1360422  12.729  13.839  14.568 -0.2509  4.7656 -1.5918
  119PROXR   C260423  12.825  13.645  14.544  0.1509 -0.2660  0.0460
  119PROXR  H2160424  12.907  13.600  14.484  2.0243  0.1109  2.1799
  119PROXR   C360425  12.687  13.578  14.508 -0.2730 -0.2258  0.0131
  119PROXR  H3160426  12.616  13.623  14.582  2.2779 -1.2210  3.3101
  119PROXR  H3260427  12.653  13.605  14.406 -2.0728 -0.2721  0.5732
  119PROXR  H3360428  12.672  13.470  14.526 -0.1930 -0.0244  1.4342
  120PROXS   O160429  12.860  13.637  14.681 -0.1685  0.1010  0.0796
  120PROXS   C160430  12.961  13.538  14.695  0.0042 -0.5332 -0.5037
  120PROXS  H1160431  12.924  13.441  14.655 -0.7870 -0.0632 -0.9462
  120PROXS  H1360432  13.053  13.567  14.641 -1.0008 -0.6732 -2.3705
  120PROXS   C260433  13.003  13.517  14.839  0.5406 -0.0385 -0.4053
  120PROXS  H2160434  12.917  13.482  14.900  2.2948  0.2214  2.3980
  120PROXS   C360435  13.054  13.647  14.895 -0.1238 -0.0971  0.6497
  120PROXS  H3160436  13.138  13.689  14.835  1.1450 -0.0243  2.4158
  120PROXS  H3260437  12.968  13.717  14.896  0.2022  0.3179  0.1668
  120PROXS  H3360438  13.095  13.631  14.997  0.3441  2.6636  0.9765
  121PROXS   O160439  13.106  13.418  14.835  0.3622  0.5501 -0.3109
  121PROXS   C160440  13.113  13.358  14.969  0.2711  0.6622 -0.2480
  121PROXS  H1160441  13.187  13.405  15.037  0.7217 -2.1580  1.3704
  121PROXS  H1360442  13.008  13.348  15.004  0.2327  0.2987 -0.4607
  121PROXS   C260443  13.156  13.207  14.966 -0.1772 -0.2987  0.2459
  121PROXS  H2160444  13.110  13.164  14.874 -0.3214  0.0680  0.1425
  121PROXS   C360445  13.103  13.120  15.078 -0.1104  0.0321  0.2279
  121PROXS  H3160446  13.115  13.010  15.064 -0.2469  0.0354  0.0899
  121PROXS  H3260447  13.160  13.147  15.170  0.5179  1.7786 -0.6324
  121PROXS  H3360448  12.996  13.143  15.098 -0.4589 -1.1118 -0.2441
  122PROXS   O160449  13.300  13.191  14.961  0.3355  0.1904  0.3794
  122PROXS   C160450  13.351  13.234  14.836 -0.2084 -0.0211  0.2048
  122PROXS  H1160451  13.315  13.338  14.820  1.3757  0.4661 -0.3686
  122PROXS  H1360452  13.462  13.234  14.842 -0.2418  0.8557  1.0707
  122PROXS   C260453  13.332  13.131  14.728  0.0582 -0.3374 -0.6386
  122PROXS  H2160454  13.229  13.104  14.695 -0.3186  0.2203  0.0640
  122PROXS   C360455  13.385  12.992  14.753  0.7016 -0.2591 -0.0653
  122PROXS  H3160456  13.495  13.002  14.758  0.7090 -0.1660 -0.3769
  122PROXS  H3260457  13.344  12.954  14.849  0.2499  1.1931  0.3488
  122PROXS  H3360458  13.366  12.926  14.665  2.9700  0.1637 -0.9301
  123PROXS   O160459  13.392  13.177  14.613 -0.5073 -0.0385 -0.1400
  123PROXS   C160460  13.316  13.271  14.542  0.1467 -0.0403 -0.2281
  123PROXS  H1160461  13.209  13.243  14.549  0.1542 -1.3210 -3.5207
  123PROXS  H1360462  13.337  13.376  14.573  1.7957 -0.8770  1.6888
  123PROXS   C260463  13.341  13.270  14.392  0.2110  0.0729 -0.8473
  123PROXS  H2160464  13.293  13.176  14.357 -1.8379  0.4888  0.6928
  123PROXS   C360465  13.486  13.263  14.363  0.1893  0.4308 -0.9068
  123PROXS  H3160466  13.504  13.272  14.253  0.0204 -1.3043 -1.1002
  123PROXS  H3260467  13.548  13.347  14.401 -0.7286  1.0110 -0.6489
  123PROXS  H3360468  13.530  13.169  14.401 -0.8599  0.4445  0.3985
  124PROXR   O160469  13.286  13.384  14.330 -0.6674 -0.5696  0.0046
  124PROXR   C160470  13.144  13.381  14.317  0.2699  0.7353  0.5189
  124PROXR  H1160471  13.101  13.285  14.282 -0.6521  1.1542  0.4724
  124PROXR  H1360472  13.098  13.383  14.418 -5.2666 -1.0241 -1.6288
  124PROXR   C260473  13.106  13.501  14.220  0.1288  0.3809  0.2985
  124PROXR  H2160474  13.147  13.477  14.120  0.1649 -1.8324  0.8031
  124PROXR   C360475  13.178  13.627  14.257 -0.4238  0.9809  0.1032
  124PROXR  H3160476  13.284  13.613  14.227 -0.2612 -0.6617  1.2947
  124PROXR  H3260477  13.126  13.710  14.204  1.5007  2.1634 -0.0314
  124PROXR  H3360478  13.173  13.646  14.366  1.9258 -1.3887  0.7196
  125PROXS   O160479  12.970  13.513  14.226 -0.1591 -0.0432  0.0761
  125PROXS   C160480  12.900  13.547  14.110  0.0391 -0.1826  0.8549
  125PROXS  H1160481  12.943  13.645  14.081  0.5429 -0.7144 -0.2466
  125PROXS  H1360482  12.934  13.476  14.032 -0.8032  1.2526 -0.8791
  125PROXS   C260483  12.750  13.532  14.122  0.0909 -0.1631  0.0725
  125PROXS  H2160484  12.714  13.617  14.184 -1.5378  0.6528 -1.8607
  125PROXS   C360485  12.704  13.398  14.181 -0.1694 -0.1226  0.5932
  125PROXS  H3160486  12.604  13.411  14.228 -0.9182 -1.6610 -0.4720
  125PROXS  H3260487  12.708  13.314  14.107  0.2976  1.5294 -1.3512
  125PROXS  H3360488  12.773  13.386  14.267 -1.5924  1.2182  1.9735
  126PROXS   O160489  12.694  13.541  13.992 -0.4643 -0.2408  0.0442
  126PROXS   C160490  12.686  13.676  13.944  0.5358  1.3262  0.3463
  126PROXS  H1160491  12.626  13.730  14.021  0.4449 -1.7915  2.6331
  126PROXS  H1360492  12.788  13.720  13.950  1.1640 -0.1226  0.5934
  126PROXS   C260493  12.634  13.679  13.802 -0.3682  0.2746  1.1767
  126PROXS  H2160494  12.534  13.632  13.796  0.4892 -1.4689 -0.8155
  126PROXS   C360495  12.730  13.608  13.704 -0.4937  0.3458 -0.0889
  126PROXS  H3160496  12.735  13.497  13.711  0.8302  0.2014 -2.4609
  126PROXS  H3260497  12.695  13.615  13.599 -1.6388  0.2454  0.2718
  126PROXS  H3360498  12.831  13.650  13.719  0.4536 -1.4048 -1.2352
  127PROXR   O160499  12.630  13.810  13.754 -0.2837 -0.2497 -0.7751
  127PROXR   C160500  12.536  13.889  13.825  0.2059 -0.3266 -0.7019
  127PROXR  H1160501  12.433  13.853  13.808  0.8602 -2.1505 -1.0671
  127PROXR  H1360502  12.557  13.892  13.934 -1.7936 -0.5814 -0.2722
  127PROXR   C260503  12.557  14.037  13.782 -0.1177  0.4820  0.3372
  127PROXR  H2160504  12.555  14.028  13.671  0.1365 -1.2236  0.4548
  127PROXR   C360505  12.685  14.081  13.853 -0.0355  0.0607  0.2551
  127PROXR  H3160506  12.693  14.192  13.857  1.6533 -0.0706  1.3521
  127PROXR  H3260507  12.669  14.058  13.961 -1.0008 -1.7563 -0.2358
  127PROXR  H3360508  12.774  14.040  13.801  0.0158  1.0599 -0.4706
  128PROXR   O160509  12.455  14.123  13.837  0.1217  0.1680  1.0970
  128PROXR   C160510  12.346  14.127  13.749  0.4768  0.4956  0.5348
  128PROXR  H1160511  12.323  14.024  13.715  0.0937  0.4859  0.8115
  128PROXR  H1360512  12.251  14.164  13.794 -0.1798  0.6792 -0.9396
  128PROXR   C260513  12.370  14.219  13.622  0.0329  0.8885 -0.0274
  128PROXR  H2160514  12.447  14.181  13.551 -1.4790 -0.3840 -1.0365
  128PROXR   C360515  12.414  14.361  13.657 -0.2157  0.6899  0.3969
  128PROXR  H3160516  12.329  14.407  13.713  0.0729  0.7427  0.7933
  128PROXR  H3260517  12.500  14.350  13.726 -1.0757  0.1494  1.4226
  128PROXR  H3360518  12.441  14.418  13.566 -1.0822  0.4427 -0.0292
  129PROXS   O160519  12.244  14.226  13.546 -0.5874 -0.3503  0.0932
  129PROXS   C160520  12.206  14.103  13.475 -0.3349  0.2043 -0.6426
  129PROXS  H1160521  12.294  14.076  13.413  0.2334  0.4093  0.0570
  129PROXS  H1360522  12.197  14.013  13.541  2.3780 -1.3262 -2.2033
  129PROXS   C260523  12.075  14.125  13.389  0.0412  0.0414 -0.4864
  129PROXS  H2160524  12.075  14.223  13.335  2.3057 -0.4795 -1.5397
  129PROXS   C360525  11.957  14.147  13.490 -1.1112 -0.5494 -0.4012
  129PROXS  H3160526  11.865  14.133  13.429 -0.5001 -2.5508 -0.9506
  129PROXS  H3260527  11.954  14.064  13.564  0.3777 -0.6260 -0.3935
  129PROXS  H3360528  11.965  14.245  13.541 -2.4557 -0.1395 -0.9336
  130PROXS   O160529  12.049  14.018  13.302  0.2082 -0.0859  0.4490
  130PROXS   C160530  11.965  14.054  13.189  0.5625 -0.2510 -0.4185
  130PROXS  H1160531  11.937  14.160  13.202 -0.5224 -0.3660 -1.5384
  130PROXS  H1360532  12.027  14.045  13.098 -0.0042 -1.5587 -0.7022
  130PROXS   C260533  11.850  13.954  13.168  0.3919  0.3406  0.2500
  130PROXS  H2160534  11.782  13.965  13.255 -0.4618  3.6512 -0.6996
  130PROXS   C360535  11.906  13.814  13.142 -0.7702  0.2284  0.6396
  130PROXS  H3160536  11.822  13.741  13.133 -1.5032  1.1343  0.0139
  130PROXS  H3260537  11.964  13.805  13.048 -2.4257  0.0005 -0.4064
  130PROXS  H3360538  11.963  13.785  13.233  0.2663  3.0606  0.9873
  131PROXS   O160539  11.781  13.974  13.047 -0.0721 -0.1127 -0.3313
  131PROXS   C160540  11.690  14.082  13.065  0.0426 -0.1333  0.5977
  131PROXS  H1160541  11.611  14.063  13.141 -2.6729  3.5514 -0.9708
  131PROXS  H1360542  11.759  14.161  13.099  1.9926 -1.3367 -0.4067
  131PROXS   C260543  11.632  14.139  12.936  0.3262  0.7831 -0.3538
  131PROXS  H2160544  11.714  14.144  12.862  1.1991 -0.4891  0.4933
  131PROXS   C360545  11.571  14.277  12.954 -0.1348 -0.4220 -0.3595
  131PROXS  H3160546  11.536  14.307  12.853 -1.9943 -1.4082 -0.0589
  131PROXS  H3260547  11.481  14.269  13.019 -0.2292 -0.0907 -0.4471
  131PROXS  H3360548  11.648  14.352  12.985  0.9319 -1.5288 -0.2383
  132PROXS   O160549  11.520  14.065  12.883  0.5889 -0.2962 -0.4696
  132PROXS   C160550  11.557  13.933  12.840 -0.2595 -0.9115  0.9248
  132PROXS  H1160551  11.667  13.931  12.824 -0.3074  1.7065 -0.2528
  132PROXS  H1360552  11.534  13.868  12.927  0.0559 -0.5173  1.3094
  132PROXS   C260553  11.479  13.887  12.721 -0.2838  0.6262 -0.1271
  132PROXS  H2160554  11.501  13.944  12.628  1.4268  1.4075  0.7208
  132PROXS   C360555  11.334  13.919  12.748  0.5227  0.2300  0.6984
  132PROXS  H3160556  11.263  13.906  12.664 -0.5723  0.7728  1.5068
  132PROXS  H3260557  11.292  13.856  12.830 -1.9965 -1.6919 -1.8689
  132PROXS  H3360558  11.323  14.026  12.774 -1.5506  0.6689 -1.6357
  133PROXS   O160559  11.505  13.744  12.701  0.7615  0.4236 -0.1074
  133PROXS   C160560  11.460  13.705  12.577  0.8489 -0.1706 -0.0219
  133PROXS  H1160561  11.353  13.728  12.558  0.9284  0.1399 -0.1020
  133PROXS  H1360562  11.519  13.771  12.509 -1.4744  1.0475 -0.9692
  133PROXS   C260563  11.475  13.555  12.554 -0.0495 -0.4210  1.0234
  133PROXS  H2160564  11.435  13.496  12.639 -0.2830 -0.3255  0.9804
  133PROXS   C360565  11.625  13.509  12.543 -0.1961 -0.1842  0.3857
  133PROXS  H3160566  11.630  13.398  12.535  0.2380 -0.0740 -1.0561
  133PROXS  H3260567  11.683  13.552  12.459 -0.1635  0.2061  0.6038
  133PROXS  H3360568  11.670  13.552  12.635 -3.1473  4.2967  0.0624
  134PROXS   O160569  11.405  13.537  12.426  0.1142  0.4231  0.8880
  134PROXS   C160570  11.403  13.408  12.374  1.1240  0.3349  0.3763
  134PROXS  H1160571  11.418  13.331  12.452  3.1129  1.4319  1.1372
  134PROXS  H1360572  11.303  13.395  12.328  1.4395  1.4732 -0.6917
  134PROXS   C260573  11.510  13.395  12.262  0.2742 -0.3410 -0.2998
  134PROXS  H2160574  11.610  13.388  12.310 -0.5516 -1.1978  1.3727
  134PROXS   C360575  11.505  13.518  12.167  0.1309 -0.2839  0.4806
  134PROXS  H3160576  11.554  13.600  12.224 -0.2002  0.8462 -0.8025
  134PROXS  H3260577  11.570  13.508  12.078  1.0180  1.5612  0.8901
  134PROXS  H3360578  11.399  13.546  12.145  0.2291  0.5540  1.0459
  135PROXS   O160579  11.492  13.275  12.194 -0.0019 -0.7080  0.3485
  135PROXS   C160580  11.555  13.160  12.244 -0.7774 -0.5533 -0.6072
  135PROXS  H1160581  11.579  13.186  12.349 -0.5807  0.3209 -0.8557
  135PROXS  H1360582  11.500  13.064  12.235  2.0488 -2.5045  1.2827
  135PROXS   C260583  11.684  13.139  12.150 -0.3498 -0.5943  0.0708
  135PROXS  H2160584  11.663  13.135  12.041 -2.3001 -1.4307  0.4291
  135PROXS   C360585  11.764  13.014  12.185 -0.2260 -0.1964 -0.4116
  135PROXS  H3160586  11.865  13.006  12.140  0.3536  1.0869  0.5610
  135PROXS  H3260587  11.799  13.013  12.291 -0.6152  0.3569 -0.2669
  135PROXS  H3360588  11.707  12.922  12.161 -0.2126 -0.5093  0.6812
  136PROXS   O160589  11.768  13.250  12.170  0.1707 -0.0635  0.4609
  136PROXS   C160590  11.874  13.263  12.075  0.2025 -0.8230  0.2235
  136PROXS  H1160591  11.960  13.200  12.108  0.2681 -0.8898 -0.0770
  136PROXS  H1360592  11.840  13.231  11.974  0.1334 -0.0270 -0.0103
  136PROXS   C260593  11.925  13.407  12.065 -0.4896 -0.0234  0.0842
  136PROXS  H2160594  11.845  13.484  12.072  0.6989  1.1594  1.1278
  136PROXS   C360595  12.001  13.429  11.929 -0.2051  0.8751 -0.4615
  136PROXS  H3160596  12.095  13.372  11.913 -1.3975 -0.9943 -1.1004
  136PROXS  H3260597  11.938  13.399  11.843  0.6016 -1.3686 -0.3515
  136PROXS  H3360598  12.027  13.537  11.923  2.5891  0.4220  1.1265
  137PROXS   O160599  12.021  13.432  12.166 -0.3277  0.1088 -0.2874
  137PROXS   C160600  11.960  13.439  12.299  0.1686 -0.8221  0.3987
  137PROXS  H1160601  11.885  13.519  12.281  0.7909 -0.6501 -1.6410
  137PROXS  H1360602  11.909  13.351  12.344 -1.0361 -0.2349  0.2389
  137PROXS   C260603  12.064  13.489  12.395 -0.3838  0.8058 -0.5764
  137PROXS  H2160604  12.135  13.558  12.345  0.0626  0.1939 -0.8060
  137PROXS   C360605  12.154  13.376  12.446 -0.3595 -0.3355  0.3312
  137PROXS  H3160606  12.236  13.418  12.508  0.0010 -0.6616  0.0853
  137PROXS  H3260607  12.099  13.310  12.515 -0.6491  1.6267  2.0792
  137PROXS  H3360608  12.199  13.328  12.357 -1.4330  2.4785 -1.9024
  138PROXR   O160609  12.007  13.557  12.499 -0.2840  0.0312 -0.1220
  138PROXR   C160610  12.098  13.633  12.577  0.0121 -0.1155 -0.3380
  138PROXR  H1160611  12.182  13.571  12.615  0.6595  1.4698  0.9593
  138PROXR  H1360612  12.136  13.714  12.512 -2.2989 -0.9403 -2.9201
  138PROXR   C260613  12.020  13.692  12.697  0.1900  0.1499 -0.2062
  138PROXR  H2160614  11.967  13.610  12.750  0.5951 -0.2233 -0.3769
  138PROXR   C360615  11.904  13.788  12.651 -0.2417 -0.3945 -0.2348
  138PROXR  H3160616  11.950  13.868  12.589 -0.0877 -0.1054  0.2477
  138PROXR  H3260617  11.834  13.733  12.585  0.5416 -0.4678 -1.0407
  138PROXR  H3360618  11.842  13.832  12.732  0.5616  0.4037 -0.0327
  139PROXS   O160619  12.113  13.758  12.787  0.5900 -0.0126  0.0325
  139PROXS   C160620  12.164  13.672  12.888 -0.8775  1.0776 -0.1036
  139PROXS  H1160621  12.092  13.609  12.946  1.2999 -0.6155  0.8959
  139PROXS  H1360622  12.243  13.609  12.842 -0.5072 -0.8858  2.9209
  139PROXS   C260623  12.251  13.758  12.986 -0.6336  0.0265 -0.1545
  139PROXS  H2160624  12.188  13.839  13.028 -1.1474 -0.7612  0.6330
  139PROXS   C360625  12.374  13.813  12.915  0.1770 -0.5026 -0.5226
  139PROXS  H3160626  12.436  13.863  12.993 -0.7071  2.5951 -1.6518
  139PROXS  H3260627  12.440  13.742  12.862 -1.4806 -2.8846  0.4533
  139PROXS  H3360628  12.347  13.894  12.844  0.0535  0.2085  0.3096
  140PROXR   O160629  12.297  13.677  13.093 -0.3399  0.1376  0.1078
  140PROXR   C160630  12.232  13.707  13.216 -0.6728  0.3078 -0.0434
  140PROXR  H1160631  12.231  13.815  13.240 -0.7881  0.0623  1.1369
  140PROXR  H1360632  12.130  13.663  13.212 -1.4969  2.1784 -0.5847
  140PROXR   C260633  12.308  13.634  13.333 -0.0643 -0.3714  0.4270
  140PROXR  H2160634  12.400  13.695  13.342 -0.2105 -0.2258  0.9318
  140PROXR   C360635  12.344  13.488  13.297  0.4016 -0.1635  0.5659
  140PROXR  H3160636  12.397  13.441  13.383  0.7178 -0.2808  0.3130
  140PROXR  H3260637  12.256  13.429  13.263  2.0495 -0.9900 -2.6961
  140PROXR  H3360638  12.428  13.492  13.224  0.7778  2.6878  1.0467
  141PROXS   O160639  12.223  13.642  13.445  0.5041 -0.5515  0.5766
  141PROXS   C160640  12.295  13.635  13.568 -0.3289 -0.0754 -0.1845
  141PROXS  H1160641  12.362  13.546  13.574 -1.5483 -0.9457  1.9773
  141PROXS  H1360642  12.360  13.723  13.582  1.3993 -1.2987 -0.2100
  141PROXS   C260643  12.199  13.621  13.692  0.7055 -0.6659 -0.1161
  141PROXS  H2160644  12.124  13.541  13.672  0.5761  0.0300 -2.7645
  141PROXS   C360645  12.110  13.754  13.713 -0.1780  0.3954  0.4011
  141PROXS  H3160646  12.175  13.837  13.746 -0.6108  1.1050 -0.5050
  141PROXS  H3260647  12.065  13.785  13.616 -2.6800  0.0840  1.3681
  141PROXS  H3360648  12.028  13.742  13.788  0.3769  0.6002  1.0453
  142PROXS   O160649  12.278  13.588  13.804 -0.2339  0.9233  0.1525
  142PROXS   C160650  12.202  13.535  13.911 -0.0413  0.6556 -0.1441
  142PROXS  H1160651  12.138  13.619  13.944  1.4875  1.8920 -0.2118
  142PROXS  H1360652  12.147  13.447  13.871  0.7643  0.3542 -0.6257
  142PROXS   C260653  12.296  13.489  14.032 -0.6708  0.4890  0.3418
  142PROXS  H2160654  12.356  13.579  14.057 -1.5254  1.9063 -2.2829
  142PROXS   C360655  12.396  13.379  13.989  0.5297  0.6250 -0.5445
  142PROXS  H3160656  12.459  13.343  14.073  0.2968 -1.0897 -1.0644
  142PROXS  H3260657  12.335  13.291  13.960 -0.0279  0.5980  0.6633
  142PROXS  H3360658  12.457  13.406  13.900  0.4956  0.9206 -0.4805
  143PROXS   O160659  12.217  13.439  14.138  0.1614 -0.5032 -0.7220
  143PROXS   C160660  12.284  13.435  14.264 -0.5130 -0.6753  0.0937
  143PROXS  H1160661  12.370  13.366  14.254 -0.2585 -0.0790 -2.4685
  143PROXS  H1360662  12.319  13.539  14.277 -1.8208 -0.3743  1.5834
  143PROXS   C260663  12.197  13.397  14.377  0.7282 -0.7099 -0.6428
  143PROXS  H2160664  12.101  13.453  14.379 -0.8294 -3.1631 -1.6242
  143PROXS   C360665  12.293  13.395  14.497 -0.9384  0.1390 -0.1908
  143PROXS  H3160666  12.380  13.329  14.475  0.2279  1.4898  0.1349
  143PROXS  H3260667  12.330  13.500  14.496  1.5886 -0.5671  2.5949
  143PROXS  H3360668  12.245  13.362  14.592  0.8063 -1.6090  0.1606
  144PROXS   O160669  12.148  13.265  14.369  0.1918  0.4505  0.4956
  144PROXS   C160670  12.057  13.240  14.261 -0.3459 -0.2490 -0.1352
  144PROXS  H1160671  11.978  13.317  14.250 -2.5074 -1.9605  2.1792
  144PROXS  H1360672  12.107  13.234  14.162 -1.0708 -0.9860 -0.4683
  144PROXS   C260673  11.986  13.101  14.285  0.6441 -0.0985  0.3007
  144PROXS  H2160674  12.046  13.033  14.349  1.0559  0.0144  0.0364
  144PROXS   C360675  11.952  13.017  14.157 -0.3298  0.1953  0.5081
  144PROXS  H3160676  12.048  13.004  14.103  0.2044  1.7413  1.0429
  144PROXS  H3260677  11.899  12.921  14.174 -0.1191 -0.4729 -2.2059
  144PROXS  H3360678  11.881  13.062  14.084  1.5704  0.4492 -1.2630
  145PROXR   O160679  11.859  13.118  14.344  0.2733 -0.0746  0.4767
  145PROXR   C160680  11.809  13.010  14.416 -0.7356  0.3177  0.0911
  145PROXR  H1160681  11.827  12.918  14.356 -0.6155  0.5857 -0.2911
  145PROXR  H1360682  11.847  13.010  14.520 -2.2744  0.8936  0.6759
  145PROXR   C260683  11.658  13.036  14.433 -0.4753  0.0505 -0.3391
  145PROXR  H2160684  11.618  13.095  14.348 -0.1176  0.6073 -0.1262
  145PROXR   C360685  11.636  13.122  14.563 -0.0171  0.2845  0.2187
  145PROXR  H3160686  11.664  13.063  14.653  1.2458 -2.0403 -1.5879
  145PROXR  H3260687  11.691  13.218  14.571  0.7501 -0.0784 -0.5820
  145PROXR  H3360688  11.528  13.141  14.583  0.3395  1.7646  0.8141
  146PROXS   O160689  11.593  12.910  14.442 -0.2059  0.2315  0.3153
  146PROXS   C160690  11.445  12.914  14.442 -0.2953 -0.3266 -0.1048
  146PROXS  H1160691  11.417  12.951  14.543  3.7300  0.9558  0.6996
  146PROXS  H1360692  11.419  12.986  14.361  1.0031 -0.6391 -0.8259
  146PROXS   C260693  11.376  12.781  14.393  0.1529  0.7132  0.3851
  146PROXS  H2160694  11.381  12.717  14.484 -2.1798 -0.5530 -0.3320
  146PROXS   C360695  11.450  12.704  14.284 -0.2432  0.2542 -0.4037
  146PROXS  H3160696  11.386  12.616  14.260 -1.4727  1.5160 -1.9586
  146PROXS  H3260697  11.474  12.767  14.195  1.5603  1.3671  0.7971
  146PROXS  H3360698  11.545  12.662  14.324 -0.0906 -1.1071 -2.0772
  147PROXR   O160699  11.242  12.812  14.359 -0.0544  0.0075 -0.3735
  147PROXR   C160700  11.150  12.713  14.413 -0.8007 -0.7817  0.7423
  147PROXR  H1160701  11.202  12.617  14.389  1.4512  0.2367  1.2709
  147PROXR  H1360702  11.140  12.726  14.523 -1.8261 -2.5538  0.9031
  147PROXR   C260703  11.005  12.717  14.354 -0.4730 -0.4190 -0.4654
  147PROXR  H2160704  10.967  12.821  14.367 -1.2409 -0.2202 -3.5713
  147PROXR   C360705  10.915  12.610  14.410 -0.5319  0.1681 -0.0790
  147PROXR  H3160706  10.942  12.505  14.385 -0.8275  0.1333 -0.2623
  147PROXR  H3260707  10.909  12.618  14.521  0.7890  1.3236 -0.0632
  147PROXR  H3360708  10.810  12.628  14.379 -0.8452 -0.1317  0.7844
  148PROXR   O160709  11.000  12.677  14.218  0.1739  0.1292  0.7951
  148PROXR   C160710  11.013  12.783  14.124  0.4756  0.0137  0.4241
  148PROXR  H1160711  10.922  12.846  14.134 -1.9122 -3.1579  0.3430
  148PROXR  H1360712  11.110  12.837  14.133  0.0246  0.7652  0.8432
  148PROXR   C260713  11.020  12.720  13.983  0.6479 -0.2730 -0.1255
  148PROXR  H2160714  10.939  12.647  13.965  1.1517 -0.8546 -0.0476
  148PROXR   C360715  11.154  12.651  13.948 -0.8376  0.2461  0.2433
  148PROXR  H3160716  11.229  12.730  13.970 -0.8670  0.8895 -1.7515
  148PROXR  H3260717  11.164  12.567  14.020 -1.4535 -1.2349 -1.3339
  148PROXR  H3360718  11.156  12.615  13.843  1.2740  0.9384 -0.0092
  149PROXR   O160719  11.019  12.830  13.896 -0.0781  0.1557 -0.0284
  149PROXR   C160720  10.889  12.859  13.839 -0.2044  0.3152  0.6970
  149PROXR  H1160721  10.868  12.789  13.756 -0.7173  2.5549 -1.1723
  149PROXR  H1360722  10.809  12.859  13.917 -2.3854  2.6448 -1.3305
  149PROXR   C260723  10.874  12.999  13.761 -0.2823 -0.1317  0.4967
  149PROXR  H2160724  10.917  13.080  13.824  0.6565  0.1372 -0.4513
  149PROXR   C360725  10.733  13.023  13.719  0.5626 -0.5932  0.1825
  149PROXR  H3160726  10.664  13.034  13.806 -1.4185 -0.7362 -1.2998
  149PROXR  H3260727  10.725  13.111  13.652 -1.9247 -0.7392  0.1944
  149PROXR  H3360728  10.706  12.933  13.661  2.4992 -0.4325 -1.0443
  150PROXS   O160729  10.945  12.998  13.645  0.0367  0.3382  0.1220
  150PROXS   C160730  11.079  12.969  13.662 -0.0912 -0.1712 -0.1661
  150PROXS  H1160731  11.130  12.998  13.756  2.6611 -4.3241 -0.1007
  150PROXS  H1360732  11.095  12.859  13.665 -0.3867 -0.3541 -2.8202
  150PROXS   C260733  11.162  13.035  13.547 -0.0045 -0.3975 -0.1920
  150PROXS  H2160734  11.134  13.142  13.542  1.2986  0.0028  0.7726
  150PROXS   C360735  11.120  12.983  13.403  0.0736  0.1542 -0.8966
  150PROXS  H3160736  11.166  13.040  13.319  1.2801 -0.1340 -0.4460
  150PROXS  H3260737  11.142  12.874  13.405 -0.8446 -0.0579  1.5839
  150PROXS  H3360738  11.010  12.988  13.391 -0.0631 -0.9420 -0.2073
  151PROXR   O160739  11.298  13.031  13.587 -0.1748  0.3566  0.5564
  151PROXR   C160740  11.383  13.057  13.475 -0.7878 -0.3941  0.3926
  151PROXR  H1160741  11.363  12.971  13.408 -2.9312 -0.2802  0.8138
  151PROXR  H1360742  11.356  13.151  13.423  0.5708 -0.0841  0.1876
  151PROXR   C260743  11.534  13.074  13.516 -0.5093  0.2552 -0.5564
  151PROXR  H2160744  11.572  12.980  13.563  2.6926  1.5652 -0.3063
  151PROXR   C360745  11.546  13.195  13.607  0.0200  0.4102 -0.1807
  151PROXR  H3160746  11.507  13.176  13.709  1.7247  1.5353  0.7453
  151PROXR  H3260747  11.651  13.230  13.620 -0.0149 -0.2318  2.3749
  151PROXR  H3360748  11.488  13.281  13.567  1.1661  1.1326 -0.3668
  152PROXR   O160749  11.615  13.098  13.402  0.1919 -0.0543 -0.2254
  152PROXR   C160750  11.611  12.982  13.313 -0.3153  0.3485  0.7868
  152PROXR  H1160751  11.570  12.891  13.362 -1.1085  1.5663  2.4885
  152PROXR  H1360752  11.532  13.001  13.237  0.3908 -1.0829 -0.3507
  152PROXR   C260753  11.749  12.960  13.252  0.4166 -0.2722 -0.3438
  152PROXR  H2160754  11.770  13.056  13.200 -0.2594  0.0778  0.0193
  152PROXR   C360755  11.749  12.848  13.142  0.0511  0.4630 -0.1154
  152PROXR  H3160756  11.671  12.886  13.072 -0.8520  3.4754  2.3120
  152PROXR  H3260757  11.847  12.829  13.094  0.0385 -1.3280  0.5162
  152PROXR  H3360758  11.711  12.751  13.179 -1.0533 -0.0393 -2.3552
  153PROXR   O160759  11.845  12.923  13.351 -0.3198  0.3290  0.0462
  153PROXR   C160760  11.968  12.997  13.338  0.2838  0.1460 -0.0715
  153PROXR  H1160761  12.012  12.988  13.237  1.4494 -2.5602  0.6011
  153PROXR  H1360762  11.933  13.102  13.353 -0.8243 -0.2275  0.0391
  153PROXR   C260763  12.078  12.943  13.435 -0.1109 -0.1962  0.0777
  153PROXR  H2160764  12.162  13.011  13.407 -0.9294  1.0556  0.6112
  153PROXR   C360765  12.112  12.792  13.419 -0.0263  0.3841 -0.0239
  153PROXR  H3160766  12.143  12.750  13.516 -1.1144  0.0146  0.1764
  153PROXR  H3260767  12.027  12.730  13.383 -0.5706  0.6576  0.7743
  153PROXR  H3360768  12.189  12.782  13.339  2.1620 -1.9046  2.2146
  154PROXS   O160769  12.052  12.963  13.575  0.4878 -0.2967  0.1173
  154PROXS   C160770  11.933  12.901  13.633  0.5428 -0.0565  0.0757
  154PROXS  H1160771  11.845  12.960  13.598  0.5245 -1.7437 -3.0107
  154PROXS  H1360772  11.912  12.798  13.597  0.9030  0.5123 -1.8836
  154PROXS   C260773  11.950  12.901  13.789  0.4101 -0.4729 -0.4067
  154PROXS  H2160774  11.987  12.999  13.824 -3.4388  1.2506 -0.6302
  154PROXS   C360775  12.059  12.793  13.819 -0.6059 -0.4346 -0.7334
  154PROXS  H3160776  12.025  12.688  13.802  0.8562 -1.0252 -0.1993
  154PROXS  H3260777  12.126  12.801  13.730 -0.5963  1.1023 -0.6131
  154PROXS  H3360778  12.110  12.803  13.917 -1.8603  1.8952 -0.2680
  155PROXR   O160779  11.831  12.867  13.861  0.3943 -0.5715  0.4010
  155PROXR   C160780  11.729  12.968  13.849 -0.5208 -0.0848 -0.1843
  155PROXR  H1160781  11.771  13.069  13.866 -0.7379  0.2179 -1.3966
  155PROXR  H1360782  11.680  12.971  13.750 -0.7403  0.5226 -0.0627
  155PROXR   C260783  11.624  12.936  13.957 -0.6443 -0.4359  1.0063
  155PROXR  H2160784  11.673  12.941  14.056  2.4932  2.1640 -0.4714
  155PROXR   C360785  11.572  12.795  13.918 -0.4483  0.3337 -0.7308
  155PROXR  H3160786  11.652  12.720  13.902 -0.1364  0.4192  0.3648
  155PROXR  H3260787  11.493  12.755  13.985  0.8232  0.0362  0.6464
  155PROXR  H3360788  11.519  12.802  13.820 -0.2596  0.0578 -0.8534
  156PROXS   O160789  11.526  13.037  13.951  0.1185 -0.2914  0.2041
  156PROXS   C160790  11.422  13.017  14.045 -0.0905  0.2210  0.4061
  156PROXS  H1160791  11.339  12.950  14.013 -1.1493  1.4491  0.4681
  156PROXS  H1360792  11.461  12.971  14.138 -0.4789 -1.7706 -0.3630
  156PROXS   C260793  11.360  13.159  14.076 -0.8648  0.5767 -0.0287
  156PROXS  H2160794  11.323  13.196  13.978  2.5459 -0.9462 -2.0827
  156PROXS   C360795  11.462  13.268  14.119  0.0074 -0.4847 -0.1745
  156PROXS  H3160796  11.493  13.227  14.218 -4.1810  0.1591  1.5710
  156PROXS  H3260797  11.556  13.280  14.060 -0.0325  0.1836 -0.1062
  156PROXS  H3360798  11.418  13.369  14.127  1.3604  0.0517  0.9462
  157PROXS   O160799  11.246  13.144  14.161  0.1322 -0.1219  0.2603
  157PROXS   C160800  11.157  13.249  14.155  0.0827 -0.2099 -0.1177
  157PROXS  H1160801  11.210  13.341  14.188  0.8844 -0.2683 -1.1578
  157PROXS  H1360802  11.125  13.249  14.049 -0.8977  0.3770  0.1708
  157PROXS   C260803  11.032  13.221  14.247 -0.5995 -0.1029  0.1415
  157PROXS  H2160804  11.012  13.112  14.244  1.8252 -0.7049  2.4946
  157PROXS   C360805  10.921  13.309  14.197 -0.0904 -0.4926  0.0581
  157PROXS  H3160806  10.842  13.329  14.273 -0.0071 -3.1130  0.9090
  157PROXS  H3260807  10.951  13.416  14.184 -1.8435 -0.3151 -3.9547
  157PROXS  H3360808  10.895  13.279  14.094  1.8810 -0.4551 -0.5046
  158PROXR   O160809  11.062  13.260  14.381 -0.2868  0.0242 -0.4026
  158PROXR   C160810  11.149  13.167  14.448 -0.4627 -0.3723 -0.3730
  158PROXR  H1160811  11.099  13.068  14.442 -2.5138  0.6989 -2.5885
  158PROXR  H1360812  11.253  13.157  14.412  0.0940 -0.6106  1.2142
  158PROXR   C260813  11.163  13.201  14.600 -0.4588 -0.3886  0.8107
  158PROXR  H2160814  11.064  13.207  14.649 -0.0669  0.1688  1.5576
  158PROXR   C360815  11.229  13.341  14.606 -0.1157 -0.1350 -0.2913
  158PROXR  H3160816  11.148  13.391  14.549 -0.6811 -2.3944 -1.5960
  158PROXR  H3260817  11.251  13.388  14.704 -0.3262  1.9301 -1.1801
  158PROXR  H3360818  11.317  13.358  14.540  0.9982 -0.4445  1.0599
  159PROXR   O160819  11.248  13.103  14.664  0.7323  0.4900 -0.2623
  159PROXR   C160820  11.273  13.128  14.804 -0.5852  0.2337 -0.2585
  159PROXR  H1160821  11.348  13.210  14.802 -0.5217  0.4239  3.1284
  159PROXR  H1360822  11.180  13.160  14.855  0.9104  0.6565  2.4083
  159PROXR   C260823  11.338  13.007  14.884  0.1680  0.1957 -0.4517
  159PROXR  H2160824  11.432  12.973  14.834  2.1678  2.4922  1.4556
  159PROXR   C360825  11.238  12.892  14.900 -0.4039  0.5131 -0.2587
  159PROXR  H3160826  11.270  12.827  14.984  1.2925  1.9800  0.2926
  159PROXR  H3260827  11.141  12.933  14.933 -0.6622 -0.8330  0.7390
  159PROXR  H3360828  11.232  12.840  14.802  0.4432 -0.6000  0.2572
  160PROXS   O160829  11.364  13.054  15.016  0.1891  0.0529 -0.7822
  160PROXS   C160830  11.480  13.122  15.030 -0.4656 -0.4650  0.4117
  160PROXS  H1160831  11.566  13.052  15.022  2.4551  2.9316 -0.8664
  160PROXS  H1360832  11.491  13.198  14.950 -1.4450 -0.5687  0.1641
  160PROXS   C260833  11.489  13.205  15.158  0.1818  0.3216  0.1959
  160PROXS  H2160834  11.487  13.133  15.243 -0.0008 -0.5645 -0.5415
  160PROXS   C360835  11.376  13.312  15.167 -0.2686  0.6321 -0.4679
  160PROXS  H3160836  11.386  13.354  15.269  0.7106 -1.7224  0.5024
  160PROXS  H3260837  11.391  13.388  15.088 -1.9004 -0.0031 -1.4160
  160PROXS  H3360838  11.274  13.268  15.160 -0.6631  0.8235  2.5435
  161PROXR   O160839  11.619  13.264  15.159  0.0079 -0.3199  0.0536
  161PROXR   C160840  11.649  13.361  15.267 -0.0257  0.8761 -1.2897
  161PROXR  H1160841  11.619  13.465  15.244  0.4241  0.7478 -2.5110
  161PROXR  H1360842  11.612  13.315  15.361  0.4792  3.1913  0.1194
  161PROXR   C260843  11.805  13.375  15.275 -0.3573  0.0239 -0.1120
  161PROXR  H2160844  11.843  13.404  15.175  1.6336 -1.7093  0.0761
  161PROXR   C360845  11.872  13.241  15.307 -0.1723  0.4276  0.3163
  161PROXR  H3160846  11.981  13.247  15.327 -0.0999  0.9481 -0.2220
  161PROXR  H3260847  11.821  13.201  15.398  2.4730  1.4499  2.4024
  161PROXR  H3360848  11.846  13.173  15.224  2.0367  1.3870 -1.2406
  162PROXR   O160849  11.839  13.479  15.360  0.0985 -0.4476 -0.6890
  162PROXR   C160850  11.960  13.550  15.320  0.6217 -0.4467 -0.0145
  162PROXR  H1160851  12.045  13.482  15.299 -1.8066 -3.8176  0.3154
  162PROXR  H1360852  11.933  13.616  15.234  0.1233  1.2057  1.3506
  162PROXR   C260853  12.005  13.646  15.431 -0.6085 -0.3886  0.2909
  162PROXR  H2160854  12.000  13.587  15.526 -1.1885  0.0127  0.5155
  162PROXR   C360855  11.923  13.778  15.445  0.9151  0.0652  0.5088
  162PROXR  H3160856  11.815  13.751  15.454  0.3482  1.6354 -0.9610
  162PROXR  H3260857  11.947  13.844  15.531  0.8578 -0.3044  0.8124
  162PROXR  H3360858  11.940  13.832  15.349 -0.6386  0.8204  0.6199
  163PROXS   O160859  12.144  13.680  15.404 -0.4402  0.3251  0.4486
  163PROXS   C160860  12.213  13.730  15.523 -0.5096  0.1448  0.3282
  163PROXS  H1160861  12.195  13.837  15.546  3.8471  1.4940 -1.3896
  163PROXS  H1360862  12.194  13.668  15.613 -0.5061 -1.2635 -0.6059
  163PROXS   C260863  12.367  13.725  15.491 -0.0487  0.0264 -0.0210
  163PROXS  H2160864  12.384  13.790  15.403  0.2932 -1.1400 -0.8325
  163PROXS   C360865  12.419  13.586  15.456  0.1515 -0.1009  0.0855
  163PROXS  H3160866  12.481  13.548  15.541  0.2169 -0.9855 -0.3485
  163PROXS  H3260867  12.342  13.509  15.436 -0.1563  0.8289 -2.7625
  163PROXS  H3360868  12.483  13.580  15.366 -0.1955 -0.3486 -0.1436
  164PROXR   O160869  12.436  13.790  15.602  0.7126 -0.1661 -0.3631
  164PROXR   C160870  12.563  13.822  15.560  0.6431 -0.3727 -0.3554
  164PROXR  H1160871  12.629  13.734  15.573 -0.1363 -0.7868  1.0550
  164PROXR  H1360872  12.563  13.857  15.455  0.4781  1.7145  0.2823
  164PROXR   C260873  12.599  13.951  15.635 -0.1116 -0.5252  0.3776
  164PROXR  H2160874  12.614  13.925  15.742 -1.0371 -0.1023  0.6187
  164PROXR   C360875  12.494  14.061  15.616 -0.3820  0.3677  0.0214
  164PROXR  H3160876  12.544  14.160  15.623 -1.5201  1.0447 -1.0514
  164PROXR  H3260877  12.444  14.062  15.517  1.5559 -1.4416 -1.0386
  164PROXR  H3360878  12.417  14.057  15.697 -1.4650 -0.1168 -1.0069
  165PROXR   O160879  12.709  14.004  15.577  0.5947  0.0079  0.0338
  165PROXR   C160880  12.795  14.075  15.664 -1.4421 -0.2953  0.0969
  165PROXR  H1160881  12.750  14.173  15.693 -0.8789 -0.4092  1.4312
  165PROXR  H1360882  12.817  14.014  15.754  3.5694  0.0268 -0.5985
  165PROXR   C260883  12.925  14.104  15.591 -0.1495  0.3546  0.2817
  165PROXR  H2160884  12.905  14.164  15.499  0.7496  0.7031  0.3098
  165PROXR   C360885  12.993  13.969  15.540  0.6608 -0.0203  0.0074
  165PROXR  H3160886  13.044  13.911  15.621  0.5833 -0.1980 -0.0698
  165PROXR  H3260887  12.925  13.887  15.510  1.8688 -1.7136  1.6414
  165PROXR  H3360888  13.060  13.991  15.455 -0.2735 -0.9891 -1.0114
  166ETHOX   O160889  13.012  14.179  15.675 -0.7482  0.6292  0.0733
  166ETHOX   C160890  13.113  14.247  15.598 -0.2258  0.3950 -0.4597
  166ETHOX  H1160891  13.069  14.317  15.524  2.0963  3.6011  0.9982
  166ETHOX  H1360892  13.181  14.170  15.557  2.2639  2.4161 -0.3491
  166ETHOX   C260893  13.199  14.349  15.684  0.7076 -0.0710  0.2769
  166ETHOX  H2160894  13.276  14.407  15.629  0.3283  1.2047  1.0430
  166ETHOX  H2360895  13.253  14.289  15.760 -1.3209  0.9854  2.7095
  167ETHOX   O160896  13.100  14.428  15.739 -0.8697 -0.0705 -0.1055
  167ETHOX   C160897  13.158  14.519  15.832  0.7631  0.6870 -0.2515
  167ETHOX  H1160898  13.230  14.460  15.892 -0.8013 -2.2503 -1.0954
  167ETHOX  H1360899  13.203  14.607  15.781  0.8383  1.3991  1.0075
  167ETHOX   C260900  13.057  14.597  15.915  0.0209 -0.2192 -0.2271
  167ETHOX  H2160901  13.109  14.623  16.010 -0.0915 -2.2340  0.4353
  167ETHOX  H2360902  12.975  14.524  15.932 -1.1990  0.8410 -1.3617
  168ETHOX   O160903  13.011  14.715  15.851  0.4770  0.3843 -0.0724
  168ETHOX   C160904  12.924  14.793  15.931 -0.7180 -0.2609 -0.7204
  168ETHOX  H1160905  12.873  14.735  16.010  2.0773 -0.4683  1.0894
  168ETHOX  H1360906  12.848  14.836  15.863 -0.9525 -0.0845 -0.3479
  168ETHOX   C260907  13.003  14.908  15.999  0.6874 -0.0613 -0.7602
  168ETHOX  H2160908  12.929  14.984  16.032  1.1693 -0.4743  1.4064
  168ETHOX  H2360909  13.071  14.953  15.924  0.1722 -0.8146 -1.7108
  169ETHOX   O160910  13.079  14.854  16.107 -0.0348 -0.3075 -0.1848
  169ETHOX   C160911  13.006  14.845  16.232  0.1323  0.9565  0.0682
  169ETHOX  H1160912  13.032  14.932  16.297 -1.6406  0.3663  1.6637
  169ETHOX  H1360913  12.897  14.828  16.227  0.2441 -0.9898  2.3838
  169ETHOX   C260914  13.069  14.727  16.312  0.0588 -0.0270  0.5441
  169ETHOX  H2160915  13.044  14.759  16.415  0.0772  1.6442  0.0524
  169ETHOX  H2360916  13.179  14.723  16.294  0.1012  1.6383  0.2789
  170ETHOX   O160917  13.000  14.609  16.275  0.0450  0.2906  0.0931
  170ETHOX   C160918  13.075  14.497  16.323 -0.2445 -1.1861 -0.0815
  170ETHOX  H1160919  13.062  14.496  16.433  0.0753  1.2577  0.0381
  170ETHOX  H1360920  13.182  14.508  16.294 -0.9261  2.0403 -1.8307
  170ETHOX   C260921  13.012  14.372  16.264  0.2932 -0.8807 -0.4758
  170ETHOX  H2160922  12.901  14.379  16.256  0.4869  0.8361 -2.3112
  170ETHOX  H2360923  13.039  14.291  16.335 -1.1423 -1.0459 -0.0704
  171ETHOX   O160924  13.059  14.336  16.139  0.4133  0.5304 -0.1780
  171ETHOX   C160925  12.968  14.251  16.073 -0.7030 -0.1843 -0.1426
  171ETHOX  H1160926  12.917  14.195  16.155  0.8942  1.3382  2.0010
  171ETHOX  H1360927  12.882  14.312  16.040  0.1020  1.0650 -0.0066
  171ETHOX   C260928  13.034  14.159  15.969  0.3445  0.0783 -0.3734
  171ETHOX  H2160929  13.104  14.224  15.913  0.0825  0.1982 -0.5612
  171ETHOX  H2360930  12.952  14.127  15.902 -1.4053  0.1233  1.6232
  172ETHOX   O160931  13.104  14.056  16.043 -0.1136  0.6349  0.4259
  172ETHOX   C160932  13.174  13.969  15.956 -0.1136  0.4272 -0.0327
  172ETHOX  H1160933  13.246  14.026  15.894  0.1372 -0.4450 -0.5682
  172ETHOX  H1360934  13.103  13.910  15.892 -0.0559  1.5681 -1.1951
  172ETHOX   C260935  13.264  13.884  16.050  0.8280  0.2181  0.1183
  172ETHOX  H2160936  13.305  13.965  16.113  0.8925  3.4106 -3.6685
  172ETHOX  H2360937  13.344  13.827  15.998  0.5809 -0.1351  0.1214
  173ETHOX   O160938  13.172  13.794  16.111 -0.3883  0.5754  0.2596
  173ETHOX   C160939  13.229  13.686  16.186 -0.0462  0.9973  0.5644
  173ETHOX  H1160940  13.154  13.607  16.208  0.0413  0.2567 -1.5587
  173ETHOX  H1360941  13.296  13.631  16.117 -3.3318 -2.4076 -0.2622
  173ETHOX   C260942  13.298  13.724  16.314  0.3597  0.0801 -0.0977
  173ETHOX  H2160943  13.225  13.762  16.389  0.3185 -3.0169  1.6190
  173ETHOX  H2360944  13.351  13.639  16.361  2.1083  1.2803  0.1795
  174ETHOX   O160945  13.401  13.816  16.281 -0.1627  0.0892  0.0917
  174ETHOX   C160946  13.449  13.893  16.382  0.5990 -0.1088 -0.3861
  174ETHOX  H1160947  13.521  13.962  16.333  0.5703  1.5977  1.7782
  174ETHOX  H1360948  13.368  13.955  16.426  1.0145  0.4888 -0.4486
  174ETHOX   C260949  13.516  13.823  16.508  0.3210  0.2244  0.0709
  174ETHOX  H2160950  13.568  13.906  16.561  0.1642  1.0980 -1.0761
  174ETHOX  H2360951  13.588  13.748  16.469  2.1331  0.6517  2.4099
  175ETHOX   O160952  13.415  13.759  16.587  0.4867 -0.1348 -0.3484
  175ETHOX   C160953  13.468  13.697  16.704 -0.7982  0.5218  0.6923
  175ETHOX  H1160954  13.419  13.599  16.721  2.8340 -1.8700 -1.2856
  175ETHOX  H1360955  13.574  13.668  16.691 -1.0031  0.2128 -0.4243
  175ETHOX   C260956  13.447  13.798  16.826  0.3024 -0.1060 -0.3217
  175ETHOX  H2160957  13.481  13.896  16.784 -2.0831  0.3674 -1.2923
  175ETHOX  H2360958  13.500  13.765  16.917  2.0781  0.1687 -1.2050
  176ETHOX   O160959  13.311  13.811  16.861  0.0560  0.0432  0.8568
  176ETHOX   C160960  13.303  13.921  16.959  0.3907  0.0450  0.2021
  176ETHOX  H1160961  13.362  13.906  17.052 -3.4548  0.3017  2.9395
  176ETHOX  H1360962  13.323  14.019  16.912 -1.7471 -0.4214 -1.8566
  176ETHOX   C260963  13.156  13.919  16.991  0.4198 -0.1912  0.1541
  176ETHOX  H2160964  13.092  13.909  16.901  1.3284 -2.7530 -0.3064
  176ETHOX  H2360965  13.133  14.017  17.038  2.7200 -0.5334  2.2012
  177ETHOX   O160966  13.117  13.827  17.092 -0.6171  0.3114 -0.1923
  177ETHOX   C160967  12.981  13.817  17.108  0.6616  0.1426 -0.4012
  177ETHOX  H1160968  12.942  13.753  17.025 -0.0136 -1.4831  1.1114
  177ETHOX  H1360969  12.932  13.917  17.116 -0.2640 -0.4303  1.7345
  177ETHOX   C260970  12.936  13.749  17.240 -0.1735  0.1407  0.7165
  177ETHOX  H2160971  12.976  13.645  17.241 -2.7567 -1.0841 -2.8542
  177ETHOX  H2360972  12.826  13.733  17.235  0.0999 -1.5018 -1.4563
  178ETHOX   O160973  12.975  13.818  17.356  0.0320 -0.4550 -0.2844
  178ETHOX   C160974  12.951  13.748  17.474 -0.2233  0.1952 -0.2085
  178ETHOX  H1160975  12.879  13.668  17.445  0.6734 -0.2869 -1.1961
  178ETHOX  H1360976  13.043  13.692  17.500 -0.0957 -0.2807 -1.5895
  178ETHOX   C260977  12.912  13.828  17.598 -0.2615 -0.1965 -0.3696
  178ETHOX  H2160978  12.903  13.760  17.686  2.8228  0.6473  0.7064
  178ETHOX  H2360979  12.818  13.883  17.573  0.8530  2.2331  0.4901
  179ETHOX   O160980  13.015  13.924  17.635  0.4409  0.0184  0.8276
  179ETHOX   C160981  12.993  13.973  17.764  0.0827 -0.3302  0.7091
  179ETHOX  H1160982  13.095  14.000  17.800  1.0850 -0.2567 -1.9932
  179ETHOX  H1360983  12.955  13.891  17.828  3.1085 -2.7710 -0.3815
  179ETHOX   C260984  12.899  14.092  17.766 -0.4167 -0.6854 -0.0221
  179ETHOX  H2160985  12.919  14.149  17.672  0.0850  0.4602  0.7670
  179ETHOX  H2360986  12.931  14.142  17.860  0.7375 -0.6511 -0.4200
  180ETHOX   O160987  12.760  14.055  17.772  0.3121  0.3713  0.1443
  180ETHOX   C160988  12.671  14.167  17.766 -0.3161 -0.3660 -0.0111
  180ETHOX  H1160989  12.699  14.234  17.850 -0.8713 -0.6547  0.4154
  180ETHOX  H1360990  12.687  14.212  17.666 -0.3579 -1.8864 -0.7258
  180ETHOX   C260991  12.526  14.116  17.773 -0.4123  0.4371 -1.0222
  180ETHOX  H2160992  12.514  14.035  17.699  1.6563 -1.4982  0.6096
  180ETHOX  H2360993  12.465  14.201  17.737 -0.8849  0.2279 -0.7168
  181ETHOX   O160994  12.474  14.072  17.902  0.4278 -0.3854  0.0217
  181ETHOX   C160995  12.431  14.187  17.976 -0.7312 -0.4711  0.5718
  181ETHOX  H1160996  12.366  14.237  17.900  0.4743 -1.0543 -0.8975
  181ETHOX  H1360997  12.520  14.250  17.997 -0.2979 -0.5316 -0.9776
  181ETHOX   C260998  12.357  14.167  18.103  0.3273 -0.2760 -0.3194
  181ETHOX  H2160999  12.359  14.258  18.166  1.7756 -0.2457 -0.3787
  181ETHOX  H2361000  12.414  14.090  18.160  3.3075  1.3764 -0.8630
  182ETHOX   O161001  12.231  14.110  18.076 -0.4835  0.4269 -0.0367
  182ETHOX   C161002  12.134  14.213  18.090 -0.9003  0.7936 -0.2219
  182ETHOX  H1161003  12.129  14.246  18.196 -1.3414 -0.7631  0.2797
  182ETHOX  H1361004  12.160  14.298  18.025  1.7338  0.4248  0.2642
  182ETHOX   C261005  11.994  14.153  18.042 -0.0309 -0.1238 -0.3233
  182ETHOX  H2161006  11.925  14.241  18.037 -0.4302 -0.4085  0.0781
  182ETHOX  H2361007  11.962  14.086  18.125 -0.2890 -1.5802 -1.5582
  183ETHOX   O161008  11.990  14.077  17.922 -0.4652  0.3838  0.0961
  183ETHOX   C161009  11.881  13.984  17.942 -0.2786  0.0534  0.0647
  183ETHOX  H1161010  11.793  14.044  17.971  1.3151  2.1488  0.7829
  183ETHOX  H1361011  11.912  13.915  18.024 -0.0312  2.0209  1.6929
  183ETHOX   C261012  11.845  13.909  17.808 -0.1389 -0.9059  0.1600
  183ETHOX  H2161013  11.822  13.987  17.732  0.2028  1.2778  2.1584
  183ETHOX  H2361014  11.756  13.845  17.821  0.4832 -1.7650  0.2272
  184ETHOX   O161015  11.947  13.828  17.770 -0.1408  0.0944  0.4336
  184ETHOX   C161016  11.913  13.752  17.657  0.3386  0.6903 -0.3968
  184ETHOX  H1161017  11.826  13.686  17.677  1.2112 -0.3871 -0.0377
  184ETHOX  H1361018  11.891  13.822  17.574  0.4884 -0.1335 -1.1500
  184ETHOX   C261019  12.047  13.689  17.612  0.3219 -0.1687  0.7689
  184ETHOX  H2161020  12.134  13.756  17.624  1.8770 -1.3844 -2.4566
  184ETHOX  H2361021  12.028  13.667  17.505 -3.1501  1.3872  0.9335
  185ETHOX   O161022  12.071  13.568  17.687  0.4806  0.0461  0.1019
  185ETHOX   C161023  12.201  13.519  17.661  0.5428  0.1289  0.8428
  185ETHOX  H1161024  12.214  13.520  17.551  0.6133 -0.1735  0.8487
  185ETHOX  H1361025  12.278  13.589  17.701  1.6226  0.1051 -1.0363
  185ETHOX   C261026  12.212  13.384  17.720 -0.3808  0.4055 -0.2589
  185ETHOX  H2161027  12.315  13.348  17.702  0.1370  1.2417  0.9287
  185ETHOX  H2361028  12.139  13.318  17.668  1.4510 -1.3804 -0.6764
  186ETHOX   O161029  12.187  13.383  17.863 -0.3413  0.0892 -0.3195
  186ETHOX   C161030  12.210  13.251  17.916  0.0878 -0.3173  0.3569
  186ETHOX  H1161031  12.144  13.176  17.867  0.7713 -0.1142 -0.9116
  186ETHOX  H1361032  12.314  13.223  17.885 -0.0246  2.0375 -2.5837
  186ETHOX   C261033  12.194  13.243  18.065 -0.7041  0.3934 -0.9905
  186ETHOX  H2161034  12.191  13.347  18.104  2.6545  0.3060 -0.1808
  186ETHOX  H2361035  12.272  13.181  18.114 -0.4102  1.1012 -0.5605
  187ETHOX   O161036  12.073  13.173  18.096  0.3762 -0.2543  0.6460
  187ETHOX   C161037  12.028  13.186  18.227  0.1214  0.1109  0.0649
  187ETHOX  H1161038  12.114  13.164  18.293  0.3426 -2.9280 -1.0924
  187ETHOX  H1361039  11.993  13.290  18.245 -2.2077 -0.2276 -1.9106
  187ETHOX   C261040  11.911  13.097  18.268  0.0404 -0.3044  0.5573
  187ETHOX  H2161041  11.877  13.137  18.366  0.9089 -0.3510  0.8841
  187ETHOX  H2361042  11.951  12.996  18.291 -0.8467 -0.4831  1.4055
  188ETHOX   O161043  11.819  13.098  18.165  0.3286  0.4280 -0.2652
  188ETHOX   C161044  11.710  13.006  18.184 -0.0392 -0.4060  0.1153
  188ETHOX  H1161045  11.656  13.050  18.271  1.4185  0.9923  0.3731
  188ETHOX  H1361046  11.758  12.911  18.215  0.2321  0.4449  2.5437
  188ETHOX   C261047  11.628  12.994  18.056  0.1579  0.0868 -0.2515
  188ETHOX  H2161048  11.576  13.090  18.034 -1.5185 -1.0254 -1.3535
  188ETHOX  H2361049  11.551  12.914  18.063  0.1878 -0.0800 -1.6258
  189ETHOX   O161050  11.703  12.949  17.943  0.6427 -0.3758  0.1770
  189ETHOX   C161051  11.652  12.996  17.821  0.3363  0.6537 -0.1315
  189ETHOX  H1161052  11.631  13.105  17.819 -2.2240  0.2499  0.9837
  189ETHOX  H1361053  11.717  12.955  17.740  1.4172  0.0778  1.0044
  189ETHOX   C261054  11.516  12.927  17.787  0.0568 -0.6329 -0.4004
  189ETHOX  H2161055  11.525  12.823  17.825  1.7819  0.0404  1.2170
  189ETHOX  H2361056  11.499  12.917  17.678 -1.9388 -0.5622 -0.1346
  190ETHOX   O161057  11.415  13.014  17.843 -0.2111  0.4123  0.1331
  190ETHOX   C161058  11.281  12.971  17.818  0.3630 -0.3056 -0.8999
  190ETHOX  H1161059  11.264  12.878  17.877 -1.3969  0.2208 -0.5195
  190ETHOX  H1361060  11.270  12.944  17.711  0.5200 -0.5120 -0.8659
  190ETHOX   C261061  11.176  13.077  17.842  1.0028 -0.5326 -0.2889
  190ETHOX  H2161062  11.178  13.129  17.940 -2.0204 -0.0885 -0.3679
  190ETHOX  H2361063  11.078  13.027  17.832  0.7404 -0.2107  0.5834
  191ETHOX   O161064  11.187  13.182  17.747 -0.3006 -0.2934 -0.6436
  191ETHOX   C161065  11.284  13.286  17.773  0.6729  0.4945  0.6675
  191ETHOX  H1161066  11.238  13.387  17.762  0.7288  0.4067 -0.4560
  191ETHOX  H1361067  11.337  13.274  17.870  1.6117 -2.5035 -0.1101
  191ETHOX   C261068  11.399  13.287  17.667  0.4400  0.1914 -0.4230
  191ETHOX  H2161069  11.449  13.189  17.680 -0.5077 -0.1486  0.9483
  191ETHOX  H2361070  11.466  13.361  17.715  0.9758  0.7779 -2.0154
  192ETHOX   O161071  11.358  13.318  17.531 -0.2102  0.1061  0.3275
  192ETHOX   C161072  11.465  13.337  17.439  0.6495  0.7034  0.6320
  192ETHOX  H1161073  11.535  13.251  17.431  0.6873  0.8511 -0.8094
  192ETHOX  H1361074  11.518  13.432  17.463 -1.2448  2.2187 -0.9477
  192ETHOX   C261075  11.409  13.346  17.293 -0.2998 -0.0887  0.2197
  192ETHOX  H2161076  11.351  13.441  17.285  0.3835  0.3660  0.6130
  192ETHOX  H2361077  11.328  13.271  17.280 -0.4858  0.2797 -0.8707
  193ETHOX   O161078  11.510  13.327  17.200  0.1484 -0.2881  0.0489
  193ETHOX   C161079  11.459  13.364  17.073  0.7430 -0.0501 -0.9228
  193ETHOX  H1161080  11.364  13.311  17.054  0.4808  0.9856 -2.7532
  193ETHOX  H1361081  11.453  13.475  17.071  0.7065 -0.0139  0.6456
  193ETHOX   C261082  11.565  13.307  16.978 -0.1337 -0.2147  0.3745
  193ETHOX  H2161083  11.668  13.325  17.017 -0.4986  1.5301  0.6245
  193ETHOX  H2361084  11.557  13.351  16.876  1.0758 -0.1454  0.2898
  194ETHOX   O161085  11.549  13.169  16.945 -0.2060  0.1010 -0.5144
  194ETHOX   C161086  11.650  13.126  16.858  0.1754  0.9026 -0.1057
  194ETHOX  H1161087  11.745  13.150  16.909 -0.5709  1.5841  1.0282
  194ETHOX  H1361088  11.633  13.171  16.758 -2.7654  1.0604  0.3517
  194ETHOX   C261089  11.656  12.974  16.844 -0.7606  0.4287 -0.3534
  194ETHOX  H2161090  11.706  12.960  16.746 -0.0868  1.9109 -0.2411
  194ETHOX  H2361091  11.561  12.916  16.835  0.2150 -1.1067 -1.4378
  195ETHOX   O161092  11.727  12.907  16.950 -0.6522  0.0318 -0.3481
  195ETHOX   C161093  11.751  12.767  16.921 -0.2999  1.2729 -0.1978
  195ETHOX  H1161094  11.662  12.715  16.878 -0.9908  0.9146  1.5745
  195ETHOX  H1361095  11.838  12.769  16.852 -0.4617  1.4069 -0.4031
  195ETHOX   C261096  11.795  12.690  17.051 -0.2295 -0.4795 -0.5595
  195ETHOX  H2161097  11.802  12.582  17.027  1.7058 -0.1428 -1.7180
  195ETHOX  H2361098  11.716  12.713  17.125  0.1659 -1.3202  0.1305
  196ETHOX   O161099  11.923  12.735  17.103  0.2049 -0.4343 -0.0018
  196ETHOX   C161100  11.980  12.648  17.200  0.0889  0.5501  0.1026
  196ETHOX  H1161101  11.904  12.609  17.271 -1.9967  0.9806 -1.7834
  196ETHOX  H1361102  12.020  12.557  17.151  2.6498  1.7509 -0.2191
  196ETHOX   C261103  12.106  12.712  17.272  0.2802  0.0590  0.1862
  196ETHOX  H2161104  12.141  12.771  17.185  1.0478  0.7605  0.9648
  196ETHOX  H2361105  12.184  12.642  17.309  1.6634  0.9374 -0.9991
  197ETHOX   O161106  12.070  12.804  17.375  0.3684  0.7205 -0.0725
  197ETHOX   C161107  12.174  12.893  17.417 -0.6283 -0.5030 -0.2758
  197ETHOX  H1161108  12.269  12.835  17.407 -1.7825 -2.6137  0.3455
  197ETHOX  H1361109  12.182  12.974  17.341  1.3253  0.7238  1.1436
  197ETHOX   C261110  12.143  12.949  17.552  0.1242  0.1568 -0.1649
  197ETHOX  H2161111  12.050  13.010  17.546  0.8291  1.2976  0.1597
  197ETHOX  H2361112  12.215  13.026  17.586 -4.1312  4.1891  0.6897
  198ETHOX   O161113  12.143  12.841  17.639  0.7211 -0.1077 -0.4525
  198ETHOX   C161114  12.060  12.872  17.753 -0.1370  0.3631 -0.5220
  198ETHOX  H1161115  12.062  12.979  17.784 -2.1184 -0.0277  1.1940
  198ETHOX  H1361116  11.957  12.839  17.725  0.6273  0.0089 -3.1495
  198ETHOX   C261117  12.100  12.791  17.872 -0.3144  0.0690 -0.2299
  198ETHOX  H2161118  12.037  12.826  17.957 -2.6649  0.2097 -1.9371
  198ETHOX  H2361119  12.209  12.806  17.888 -0.5616  1.2725  0.4578
  199ETHOX   O161120  12.084  12.658  17.830  0.8104 -0.1725 -0.0297
  199ETHOX   C161121  12.114  12.563  17.927 -0.0360  0.3284  0.2518
  199ETHOX  H1161122  12.030  12.558  18.000  0.1922  1.7728  0.6535
  199ETHOX  H1361123  12.200  12.595  17.990  0.1375  0.8421 -0.2384
  199ETHOX   C261124  12.145  12.426  17.872 -0.2678  0.2645 -0.9023
  199ETHOX  H2161125  12.073  12.391  17.794 -0.7120  0.7656 -0.7242
  199ETHOX  H2361126  12.150  12.358  17.960  0.8908  1.0976 -0.2990
  200ETHOX   O161127  12.273  12.433  17.813  0.0052  0.6699  0.0007
  200ETHOX   C161128  12.364  12.327  17.862  0.2213  0.5020  0.2998
  200ETHOX  H1161129  12.467  12.347  17.825  0.7834 -2.4321  0.0793
  200ETHOX  H1361130  12.376  12.326  17.973  1.3482  1.0898  0.1999
  200ETHOX   C261131  12.318  12.186  17.803  0.0675 -0.8122 -0.5992
  200ETHOX  H2161132  12.212  12.162  17.823  0.2306 -1.8872 -0.9723
  200ETHOX  H2361133  12.377  12.117  17.867 -1.8864 -2.2046 -0.2021
  201ETHOX   O161134  12.362  12.140  17.676 -0.4609 -0.2114  0.9220
  201ETHOX   C161135  12.309  12.211  17.570  0.1060  0.2325 -0.5402
  201ETHOX  H1161136  12.363  12.304  17.546 -1.6509  1.0274 -1.6425
  201ETHOX  H1361137  12.206  12.243  17.599 -0.4925 -0.6512 -1.5803
  201ETHOX   C261138  12.299  12.129  17.436  0.1833 -0.9741  0.3474
  201ETHOX  H2161139  12.247  12.188  17.357  0.5233  0.8091  1.3947
  201ETHOX  H2361140  12.255  12.028  17.452  1.9070 -2.5032 -3.3749
  202ETHOX   O161141  12.430  12.107  17.376  0.4820 -0.1709  0.4992
  202ETHOX   C161142  12.420  12.070  17.236 -0.1178  0.2348  0.4447
  202ETHOX  H1161143  12.356  11.979  17.231  0.7197 -0.3091 -2.0946
  202ETHOX  H1361144  12.372  12.147  17.173  2.0311  0.7305 -0.6638
  202ETHOX   C261145  12.556  12.036  17.171  0.5602  0.8446 -0.7185
  202ETHOX  H2161146  12.536  11.996  17.069  1.1427  1.0718 -0.9293
  202ETHOX  H2361147  12.599  11.951  17.227 -0.0255  0.4986 -0.7818
  203ETHOX   O161148  12.642  12.143  17.172 -0.0719 -0.0680 -0.0926
  203ETHOX   C161149  12.764  12.113  17.106 -0.3645  0.0818 -0.6454
  203ETHOX  H1161150  12.745  12.111  16.996  2.9626 -1.1782 -1.3075
  203ETHOX  H1361151  12.794  12.010  17.134  1.8181  0.8031 -0.1800
  203ETHOX   C261152  12.874  12.214  17.138  0.2833 -0.2706 -0.5605
  203ETHOX  H2161153  12.853  12.315  17.098 -0.6458 -1.2443 -2.6638
  203ETHOX  H2361154  12.964  12.191  17.077  2.1745 -0.5648  2.1406
  204ETHOX   O161155  12.898  12.215  17.277  0.3597  0.1153  0.0104
  204ETHOX   C161156  12.989  12.320  17.307 -0.2177  0.0457  1.2435
  204ETHOX  H1161157  13.076  12.307  17.239 -1.5961 -0.2378 -0.5202
  204ETHOX  H1361158  12.944  12.422  17.304  1.2570  0.7177  0.8404
  204ETHOX   C261159  13.031  12.296  17.454 -0.0597 -0.7210 -0.3694
  204ETHOX  H2161160  12.940  12.285  17.517 -0.3196 -1.0839 -0.7998
  204ETHOX  H2361161  13.097  12.373  17.500 -1.1392  0.9213 -1.4299
  205ETHOX   O161162  13.113  12.182  17.449 -0.1042  0.2498 -0.2655
  205ETHOX   C161163  13.148  12.141  17.583  0.5194  0.8813 -0.2149
  205ETHOX  H1161164  13.163  12.224  17.655 -1.3373  0.6635  0.4692
  205ETHOX  H1361165  13.249  12.096  17.573  1.7562  2.7408  2.6259
  205ETHOX   C261166  13.059  12.031  17.653 -0.1097  0.1797 -0.0757
  205ETHOX  H2161167  12.958  12.074  17.667 -0.5546 -1.3965  2.0380
  205ETHOX  H2361168  13.098  12.007  17.755 -1.7483  0.8057  0.7354
  206ETHOX   O161169  13.052  11.907  17.585  0.6550 -0.7329  0.6906
  206ETHOX   C161170  12.933  11.890  17.508 -0.3623  1.0920 -0.1784
  206ETHOX  H1161171  12.852  11.883  17.584 -0.8893 -2.1303 -0.9046
  206ETHOX  H1361172  12.917  11.981  17.447  0.4597  2.7475  1.9333
  206ETHOX   C261173  12.951  11.747  17.439 -0.1277 -0.0489 -0.4270
  206ETHOX  H2161174  13.034  11.745  17.365  0.2343 -1.0001 -0.0161
  206ETHOX  H2361175  12.980  11.678  17.520  0.4889  0.0174 -0.5875
  207ETHOX   O161176  12.818  11.716  17.385  0.3586  0.5528  0.0093
  207ETHOX   C161177  12.813  11.597  17.303 -0.1569 -0.1812 -0.3898
  207ETHOX  H1161178  12.840  11.514  17.372  0.5905 -0.1169 -0.6000
  207ETHOX  H1361179  12.881  11.597  17.216  0.6166 -1.7667  0.1746
  207ETHOX   C261180  12.671  11.585  17.260  0.3467  0.1065 -0.3996
  207ETHOX  H2161181  12.665  11.499  17.191  0.2252 -0.6296  0.5185
  207ETHOX  H2361182  12.643  11.676  17.202  1.0995  1.1458  0.8134
  208ETHOX   O161183  12.588  11.578  17.374 -0.3886  0.6317 -0.0655
  208ETHOX   C161184  12.451  11.554  17.339  0.2655  0.0537 -0.0401
  208ETHOX  H1161185  12.454  11.566  17.228  3.2531  1.0407  0.0782
  208ETHOX  H1361186  12.416  11.454  17.370  1.0030 -0.2877 -0.2948
  208ETHOX   C261187  12.367  11.671  17.408 -0.0807  0.4725  0.1049
  208ETHOX  H2161188  12.290  11.689  17.329 -0.4387  1.2869  0.6243
  208ETHOX  H2361189  12.427  11.762  17.426 -1.6617  1.3786  1.0825
  209ETHOX   O161190  12.317  11.628  17.531 -0.0513 -0.2877  0.4710
  209ETHOX   C161191  12.211  11.720  17.576  0.6160  0.1108 -0.2560
  209ETHOX  H1161192  12.125  11.661  17.616  2.5028 -2.7018 -0.0704
  209ETHOX  H1361193  12.183  11.787  17.492  0.9036 -0.0223 -0.4621
  209ETHOX   C261194  12.269  11.812  17.692 -0.0321  0.1435  0.2794
  209ETHOX  H2161195  12.212  11.907  17.691  0.3288  0.5279 -4.4155
  209ETHOX  H2361196  12.374  11.843  17.669 -0.2966  0.1220 -1.0158
  210ETHOX   O161197  12.256  11.739  17.810 -0.2986 -0.5471 -0.3419
  210ETHOX   C161198  12.325  11.795  17.928  0.5813 -0.3851  0.4295
  210ETHOX  H1161199  12.434  11.786  17.910  0.4943  0.4262 -0.6266
  210ETHOX  H1361200  12.291  11.901  17.939 -1.0578 -1.0433  2.1073
  210ETHOX   C261201  12.277  11.738  18.061 -0.8564 -0.0958 -0.1371
  210ETHOX  H2161202  12.330  11.767  18.154 -2.4915  0.9646  0.5033
  210ETHOX  H2361203  12.284  11.627  18.060  1.7439  0.0135  0.2805
  211ETHOX   O161204  12.143  11.781  18.082  0.1044  1.1375 -0.1080
  211ETHOX   C161205  12.081  11.729  18.201  0.7856  0.3580  0.8373
  211ETHOX  H1161206  12.089  11.618  18.200 -1.9160  0.0544 -1.2349
  211ETHOX  H1361207  12.143  11.763  18.286  1.1619  0.6408  0.4544
  211ETHOX   C261208  11.936  11.779  18.215  0.1917  0.3843 -0.3253
  211ETHOX  H2161209  11.934  11.888  18.192 -0.3379 -0.0135 -2.2750
  211ETHOX  H2361210  11.905  11.761  18.320  2.9146 -2.4125  0.1367
  212ETHOX   O161211  11.853  11.702  18.130  0.2190  0.7012  0.0971
  212ETHOX   C161212  11.708  11.725  18.138  0.0167 -0.3533 -0.1441
  212ETHOX  H1161213  11.663  11.709  18.238  0.0151 -1.7541 -0.3514
  212ETHOX  H1361214  11.679  11.828  18.109  2.7269  1.1081  1.9211
  212ETHOX   C261215  11.639  11.623  18.046 -0.0762  0.1401 -0.1868
  212ETHOX  H2161216  11.687  11.611  17.946 -0.4346  3.7555 -0.9444
  212ETHOX  H2361217  11.533  11.645  18.019 -0.2229  0.5562  0.6943
  213ETHOX   O161218  11.630  11.493  18.097  0.3065 -0.0046  0.5387
  213ETHOX   C161219  11.523  11.417  18.050  0.2523 -0.3202  0.0096
  213ETHOX  H1161220  11.439  11.471  18.098  0.9479  0.9057 -0.1033
  213ETHOX  H1361221  11.521  11.413  17.939 -1.6916  1.5927 -0.0796
  213ETHOX   C261222  11.520  11.273  18.092  0.0037  0.7843  0.0107
  213ETHOX  H2161223  11.419  11.227  18.080  0.1850  0.0871  1.0436
  213ETHOX  H2361224  11.550  11.258  18.198 -1.3096 -0.0778  0.2895
  214ETHOX   O161225  11.601  11.197  18.002  0.2600  0.6150  0.7310
  214ETHOX   C161226  11.609  11.062  18.051 -0.3528 -0.0545  0.0413
  214ETHOX  H1161227  11.507  11.017  18.045 -1.0807  1.4220  0.6553
  214ETHOX  H1361228  11.644  11.080  18.155  1.0080  1.3285 -0.6250
  214ETHOX   C261229  11.703  10.978  17.965  0.2778 -0.5446  0.0830
  214ETHOX  H2161230  11.731  10.885  18.019  2.2942  0.3669  0.6918
  214ETHOX  H2361231  11.792  11.040  17.943  1.4030 -1.3030  2.2476
  215ETHOX   O161232  11.644  10.932  17.841  0.2061  0.0125  0.3034
  215ETHOX   C161233  11.740  10.869  17.753  0.4894  0.2209 -0.3951
  215ETHOX  H1161234  11.831  10.932  17.742 -0.0438  0.8714 -1.2119
  215ETHOX  H1361235  11.761  10.772  17.802  2.2385  0.0846 -1.3256
  215ETHOX   C261236  11.659  10.856  17.621 -0.5275 -0.3522  0.2171
  215ETHOX  H2161237  11.556  10.822  17.645 -1.5733  2.0890 -0.4841
  215ETHOX  H2361238  11.700  10.772  17.562 -2.4257 -2.0754  1.1967
  216ETHOX   O161239  11.644  10.973  17.549  0.0509  0.2899  0.5992
  216ETHOX   C161240  11.709  10.979  17.420 -0.2757 -0.6078  0.0841
  216ETHOX  H1161241  11.669  11.067  17.364 -1.8220 -1.1689  0.2430
  216ETHOX  H1361242  11.683  10.887  17.364  1.5842 -0.6531 -0.7706
  216ETHOX   C261243  11.863  11.005  17.441 -0.1596  0.1718  0.3715
  216ETHOX  H2161244  11.879  11.094  17.506 -0.3915 -0.7482  1.7216
  216ETHOX  H2361245  11.910  11.009  17.340  1.0036 -3.3732  0.6433
  217ETHOX   O161246  11.929  10.886  17.488 -0.1453  0.4095 -0.4027
  217ETHOX   C161247  12.057  10.925  17.527 -1.1974 -0.2985  0.3850
  217ETHOX  H1161248  12.097  10.988  17.446  0.6780  0.8363  2.0940
  217ETHOX  H1361249  12.047  10.990  17.617 -2.2712 -0.4445  0.3849
  217ETHOX   C261250  12.146  10.805  17.562  0.8837 -0.4589  0.5920
  217ETHOX  H2161251  12.121  10.720  17.495  0.6619 -0.4326  0.6426
  217ETHOX  H2361252  12.120  10.763  17.661 -2.0786  0.5316  0.3203
  218ETHOX   O161253  12.283  10.845  17.556  0.0821  0.2071 -0.1547
  218ETHOX   C161254  12.367  10.748  17.619 -0.1760 -0.0209  0.1785
  218ETHOX  H1161255  12.387  10.673  17.539 -0.3605  1.1274 -0.9834
  218ETHOX  H1361256  12.332  10.704  17.715 -2.0020  1.8320  0.4127
  218ETHOX   C261257  12.510  10.800  17.647  0.0157  0.9478  0.3218
  218ETHOX  H2161258  12.535  10.862  17.558 -0.2758 -0.8039 -1.0382
  218ETHOX  H2361259  12.576  10.712  17.654  1.5035  1.6344 -2.8730
  219ETHOX   O161260  12.507  10.878  17.765  0.1176 -0.5656 -0.0299
  219ETHOX   C161261  12.633  10.936  17.798  0.0476 -0.5576 -0.7886
  219ETHOX  H1161262  12.711  10.859  17.818  0.2458 -0.1735 -0.0680
  219ETHOX  H1361263  12.678  10.980  17.707 -0.2611  0.3674 -0.5029
  219ETHOX   C261264  12.644  11.046  17.909  0.2290 -0.1330 -0.0094
  219ETHOX  H2161265  12.571  11.128  17.889  2.2340  2.2833  1.8073
  219ETHOX  H2361266  12.743  11.096  17.908 -0.6021  1.6278 -1.6176
  220ETHOX   O161267  12.609  10.986  18.038  0.1465 -0.0109 -0.0545
  220ETHOX   C161268  12.569  11.087  18.130 -0.2021 -0.0479 -0.1559
  220ETHOX  H1161269  12.468  11.123  18.103  0.0324  1.2959  0.6576
  220ETHOX  H1361270  12.640  11.170  18.145  1.4122 -1.3347 -0.3618
  220ETHOX   C261271  12.552  11.027  18.271 -0.6088  0.2102  0.1640
  220ETHOX  H2161272  12.537  11.101  18.353 -1.5670 -1.9493  2.0569
  220ETHOX  H2361273  12.655  10.991  18.294 -0.8388 -0.4936  0.1040
  221ETHOX   O161274  12.445  10.935  18.274 -0.3459  0.2754 -0.0298
  221ETHOX   C161275  12.445  10.874  18.403  0.3317 -0.3067 -0.0886
  221ETHOX  H1161276  12.549  10.843  18.428 -0.1763 -1.1028  1.1416
  221ETHOX  H1361277  12.410  10.945  18.482  0.9511 -0.6118  0.4702
  221ETHOX   C261278  12.357  10.755  18.406 -0.4126  0.4938  0.9017
  221ETHOX  H2161279  12.249  10.782  18.405 -0.1365  1.7095 -1.4232
  221ETHOX  H2361280  12.365  10.696  18.500 -2.6791  2.2363  2.2938
  222ETHOX   O161281  12.381  10.661  18.302 -0.2787 -0.4084 -0.2416
  222ETHOX   C161282  12.261  10.592  18.263  0.1053 -0.2773 -0.1586
  222ETHOX  H1161283  12.175  10.659  18.244 -0.4862 -0.5180  1.5316
  222ETHOX  H1361284  12.289  10.528  18.176  1.6045 -1.4000  1.0981
  222ETHOX   C261285  12.217  10.496  18.373  1.2105  0.2730 -0.8956
  222ETHOX  H2161286  12.311  10.444  18.399  1.0159  1.6938  3.5063
  222ETHOX  H2361287  12.150  10.427  18.318 -0.5195  0.0643  1.3088
  223ETHOX   O161288  12.150  10.553  18.485 -0.0151  0.4364 -0.7849
  223ETHOX   C161289  12.117  10.459  18.586 -0.3076  1.0489  0.9314
  223ETHOX  H1161290  12.197  10.382  18.593 -1.8728 -1.0752 -1.9874
  223ETHOX  H1361291  12.117  10.518  18.680 -0.2563  0.2316  1.4518
  223ETHOX   C261292  11.993  10.373  18.575  0.5322  0.7938  0.2233
  223ETHOX  H2161293  11.977  10.305  18.661 -0.2281 -0.2519 -0.7163
  223ETHOX  H2361294  11.984  10.322  18.477 -1.3262  1.4081  0.0306
  224ETHOX   O161295  11.879  10.458  18.590 -0.0137 -0.5698 -0.2308
  224ETHOX   C161296  11.758  10.392  18.552  0.3790 -0.2701  0.6704
  224ETHOX  H1161297  11.751  10.357  18.447 -0.5574 -0.3028  0.7373
  224ETHOX  H1361298  11.747  10.309  18.625 -0.1196  1.1114  2.2233
  224ETHOX   C261299  11.639  10.489  18.574  0.4560  0.1051 -0.6240
  224ETHOX  H2161300  11.556  10.444  18.516 -0.2679 -0.7720  1.0083
  224ETHOX  H2361301  11.668  10.591  18.541 -0.4796 -0.0890 -2.1460
  225ETHOX   O161302  11.594  10.496  18.711  0.4744 -0.4168  0.0341
  225ETHOX   C161303  11.449  10.494  18.724 -0.5432 -0.4881 -0.4409
  225ETHOX  H1161304  11.403  10.559  18.647  0.0675  1.6935  0.9504
  225ETHOX  H1361305  11.426  10.525  18.828 -2.5129  1.2656 -1.3264
  225ETHOX   C261306  11.383  10.359  18.694  0.1236 -0.5707  0.2113
  225ETHOX  H2161307  11.318  10.351  18.783 -0.5549 -2.4803 -0.3887
  225ETHOX  H2361308  11.460  10.278  18.688  1.8173  1.0074 -0.3426
  226ETHOX   O161309  11.293  10.358  18.584 -0.6357 -0.3771  0.6083
  226ETHOX   C161310  11.242  10.228  18.555 -0.1487  0.3590  1.4758
  226ETHOX  H1161311  11.202  10.183  18.648 -0.3886  1.1300  1.7583
  226ETHOX  H1361312  11.155  10.242  18.486  0.2070  1.1713  1.1732
  226ETHOX   C261313  11.340  10.131  18.487  0.2353 -0.4447  0.0891
  226ETHOX  H2161314  11.410  10.189  18.425  0.8167 -2.5606 -1.3243
  226ETHOX  H2361315  11.290  10.056  18.422  1.2433 -2.1402  1.1880
  227ETHOX   O161316  11.418  10.055  18.576 -0.4480 -0.6962 -0.1560
  227ETHOX   C161317  11.512   9.972  18.505  0.1756 -0.6500 -0.0421
  227ETHOX  H1161318  11.566  10.048  18.445 -0.8491  0.5294  0.4882
  227ETHOX  H1361319  11.454   9.903  18.439  0.2701 -0.3329 -0.4587
  227ETHOX   C261320  11.604   9.878  18.596 -0.3220 -0.3428 -0.0413
  227ETHOX  H2161321  11.639   9.923  18.691 -1.7197 -1.3051  0.9776
  227ETHOX  H2361322  11.697   9.845  18.544  1.6610  0.4118  2.7715
  228ETHOX   O161323  11.533   9.767  18.634 -0.4187 -0.4697  0.0607
  228ETHOX   C161324  11.598   9.706  18.748 -0.1302 -0.2607  0.0933
  228ETHOX  H1161325  11.708   9.705  18.729 -0.3950  2.8377 -2.5577
  228ETHOX  H1361326  11.570   9.773  18.832  1.0840 -0.8667  1.0099
  228ETHOX   C261327  11.551   9.564  18.783  0.3351 -0.3685 -0.6053
  228ETHOX  H2161328  11.442   9.559  18.805  0.2653 -1.3598 -1.1007
  228ETHOX  H2361329  11.598   9.523  18.875 -1.4423  0.5851  0.7839
  229ETHOX   O161330  11.558   9.480  18.673 -0.0786  0.0720 -0.9627
  229ETHOX   C161331  11.532   9.346  18.716 -0.2923  0.0183  0.1308
  229ETHOX  H1161332  11.450   9.355  18.790  1.0035 -1.0011  1.7760
  229ETHOX  H1361333  11.613   9.297  18.775  0.0280 -0.7508 -0.9113
  229ETHOX   C261334  11.507   9.251  18.598  0.6321 -0.9263 -0.1194
  229ETHOX  H2161335  11.479   9.148  18.631  2.2526 -1.6448 -0.8496
  229ETHOX  H2361336  11.608   9.240  18.553  1.6012 -1.2943  1.9886
  230ETHOX   O161337  11.409   9.308  18.511 -0.6992  0.2634  0.5196
  230ETHOX   C161338  11.384   9.209  18.410 -0.3765 -0.4737 -0.4093
  230ETHOX  H1161339  11.472   9.165  18.359 -1.0823 -0.6088 -1.5461
  230ETHOX  H1361340  11.337   9.136  18.479  0.3779  1.7095  2.5972
  230ETHOX   C261341  11.292   9.271  18.303  0.2505 -0.3198 -0.8551
  230ETHOX  H2161342  11.261   9.199  18.225  3.4247 -0.7232 -1.8889
  230ETHOX  H2361343  11.352   9.352  18.255 -1.6749  2.7540  1.4990
  231ETHOX   O161344  11.181   9.329  18.360 -0.2490  0.8247  0.3338
  231ETHOX   C161345  11.110   9.394  18.260  0.5417  0.2227 -0.4318
  231ETHOX  H1161346  11.079   9.319  18.184  0.2383 -0.0026 -0.0885
  231ETHOX  H1361347  11.174   9.471  18.212  2.7995 -1.8934 -0.9683
  231ETHOX   C261348  10.986   9.467  18.313  0.2985 -0.1979  0.5412
  231ETHOX  H2161349  10.947   9.536  18.236 -1.7620  0.4655  2.1091
  231ETHOX  H2361350  11.002   9.521  18.409 -0.1461 -1.1636  1.1775
  232ETHOX   O161351  10.889   9.367  18.342  0.4878 -0.0003  0.3548
  232ETHOX   C161352  10.767   9.425  18.381 -0.5813 -0.1197  0.8140
  232ETHOX  H1161353  10.780   9.467  18.483  0.2876  0.2545  0.5615
  232ETHOX  H1361354  10.740   9.503  18.308 -2.6651 -3.4390 -2.2898
  232ETHOX   C261355  10.640   9.332  18.378  0.3518  0.2302  0.3103
  232ETHOX  H2161356  10.554   9.390  18.415  1.0669  1.1868  0.5022
  232ETHOX  H2361357  10.657   9.253  18.455  1.2004  0.7004  0.6112
  233ETHOX   O161358  10.626   9.262  18.255  0.2331 -0.2033  0.5537
  233ETHOX   C161359  10.506   9.179  18.253 -1.1127 -0.3281 -0.0914
  233ETHOX  H1161360  10.520   9.099  18.328  2.4996 -0.2739 -0.5013
  233ETHOX  H1361361  10.412   9.228  18.286  0.3335  0.6908  2.9286
  233ETHOX   C261362  10.482   9.114  18.116  0.1274 -0.0626  0.3107
  233ETHOX  H2161363  10.400   9.047  18.150 -1.7875  2.8600  1.8599
  233ETHOX  H2361364  10.557   9.060  18.054  1.2704  2.7891 -0.9624
  234ETHOX   O161365  10.418   9.205  18.033 -0.1242 -0.1382  0.0026
  234ETHOX   C161366  10.373   9.147  17.912 -0.5638  0.9066 -0.2396
  234ETHOX  H1161367  10.454   9.117  17.842  0.0477  0.5820  0.6041
  234ETHOX  H1361368  10.317   9.057  17.944  0.6496  0.9834  2.3296
  234ETHOX   C261369  10.288   9.240  17.819 -0.1756 -0.1239 -0.5391
  234ETHOX  H2161370  10.195   9.274  17.869 -0.3459  0.9010 -1.4963
  234ETHOX  H2361371  10.269   9.176  17.730  0.4982 -3.4186  1.5127
  235ETHOX   O161372  10.356   9.359  17.776  0.4091  0.9296 -0.1658
  235ETHOX   C161373  10.312   9.405  17.644 -0.5309 -0.2218 -0.2751
  235ETHOX  H1161374  10.338   9.335  17.562  1.1637  0.1939 -0.1461
  235ETHOX  H1361375  10.209   9.446  17.642  0.5678  2.7890 -0.6713
  235ETHOX   C261376  10.393   9.532  17.599 -0.5816 -0.4423  0.5156
  235ETHOX  H2161377  10.390   9.616  17.673 -0.5439 -1.4140  1.6466
  235ETHOX  H2361378  10.354   9.571  17.503  0.4810  0.1796  0.3233
  236ETHOX   O161379  10.523   9.493  17.574 -0.3421 -0.3236 -0.0462
  236ETHOX   C161380  10.605   9.609  17.590  0.4061  1.0053 -0.3305
  236ETHOX  H1161381  10.603   9.638  17.698 -1.1452  1.0388 -0.3389
  236ETHOX  H1361382  10.567   9.696  17.533 -1.5235 -0.3837 -1.2915
  236ETHOX   C261383  10.752   9.578  17.553  0.0371 -0.0615 -0.9288
  236ETHOX  H2161384  10.817   9.669  17.551  1.6631 -1.1507  0.3051
  236ETHOX  H2361385  10.746   9.544  17.447 -0.2365  1.5235 -1.4513
  237ETHOX   O161386  10.810   9.472  17.633  0.3355  0.4025 -0.6546
  237ETHOX   C161387  10.939   9.442  17.589 -0.5119  0.1263 -0.0342
  237ETHOX  H1161388  10.945   9.390  17.491 -1.1294 -1.2241  0.6138
  237ETHOX  H1361389  10.990   9.537  17.564  1.3523 -1.1275 -1.2033
  237ETHOX   C261390  11.026   9.361  17.693  0.3509 -0.6822 -0.1579
  237ETHOX  H2161391  10.966   9.271  17.721  0.9180 -1.5949 -1.7186
  237ETHOX  H2361392  11.043   9.430  17.778 -0.8653  0.6952 -0.9914
  238ETHOX   O161393  11.153   9.326  17.648  0.5921  0.4208  0.4294
  238ETHOX   C161394  11.205   9.242  17.747  0.5447 -0.1819  0.4201
  238ETHOX  H1161395  11.176   9.259  17.853 -1.5936  1.0544 -0.3084
  238ETHOX  H1361396  11.313   9.259  17.726  0.4146 -1.4123 -1.4857
  238ETHOX   C261397  11.172   9.099  17.705 -0.3395  0.2747  0.6257
  238ETHOX  H2161398  11.191   9.084  17.597 -0.8070  0.2025  0.5524
  238ETHOX  H2361399  11.064   9.079  17.722 -0.6541  3.4259  3.3216
  239ETHOX   O161400  11.259   8.998  17.773 -0.1507  0.0958  0.4757
  239ETHOX   C161401  11.226   8.870  17.716 -0.1955  0.0174  0.2568
  239ETHOX  H1161402  11.119   8.857  17.689 -0.3997  2.4053 -0.3001
  239ETHOX  H1361403  11.283   8.864  17.621  0.2879 -0.7120  0.5825
  239ETHOX   C261404  11.261   8.758  17.819  0.1871  0.2158  0.4556
  239ETHOX  H2161405  11.220   8.663  17.777  0.2984 -0.2459  1.3656
  239ETHOX  H2361406  11.371   8.746  17.832  0.6379  3.3920  0.1772
  240ETHOX   O161407  11.186   8.781  17.937 -0.8310 -0.0890  0.2311
  240ETHOX   C161408  11.205   8.677  18.034  0.0188 -0.0706  0.6444
  240ETHOX  H1161409  11.198   8.576  17.988 -0.5986  0.2102  0.1117
  240ETHOX  H1361410  11.125   8.689  18.110  0.3815  1.5314  0.8191
  240ETHOX   C261411  11.344   8.693  18.100  0.2428  0.3125 -0.5311
  240ETHOX  H2161412  11.358   8.802  18.117  0.2720  0.7678 -3.0533
  240ETHOX  H2361413  11.420   8.655  18.029 -0.3432  0.1652 -1.0870
  241ETHOX   O161414  11.344   8.620  18.227  0.1517  0.3970  0.1454
  241ETHOX   C161415  11.473   8.590  18.280 -0.3232  0.2939 -0.2169
  241ETHOX  H1161416  11.551   8.661  18.248  0.1236 -0.4617 -0.8254
  241ETHOX  H1361417  11.478   8.597  18.391 -2.6425 -0.6122  0.0174
  241ETHOX   C261418  11.508   8.436  18.249 -0.2328  1.1136 -0.1525
  241ETHOX  H2161419  11.410   8.384  18.247  0.6020 -0.4896 -0.9549
  241ETHOX  H2361420  11.574   8.396  18.328  2.0489  1.1605 -1.9427
  242ETHOX   O161421  11.579   8.414  18.132  0.1101 -0.3250  0.1865
  242ETHOX   C161422  11.602   8.276  18.101  0.1180 -0.1658  0.2811
  242ETHOX  H1161423  11.507   8.227  18.069  0.2493 -1.0144  1.1469
  242ETHOX  H1361424  11.650   8.225  18.188 -0.5743  1.0883  1.4272
  242ETHOX   C261425  11.689   8.265  17.969 -0.5745 -0.2883  0.5212
  242ETHOX  H2161426  11.647   8.331  17.890 -0.4510  2.3083  2.4905
  242ETHOX  H2361427  11.703   8.158  17.944 -0.0046 -0.0262 -0.3139
  243ETHOX   O161428  11.818   8.327  17.993  0.6360 -0.1605 -0.0032
  243ETHOX   C161429  11.907   8.299  17.883 -0.1511  0.5008 -0.0817
  243ETHOX  H1161430  11.911   8.189  17.867  0.0406 -0.1936  3.7425
  243ETHOX  H1361431  11.861   8.348  17.794  0.0107  0.9733  0.0904
  243ETHOX   C261432  12.047   8.356  17.915 -0.0835 -0.0899  0.0123
  243ETHOX  H2161433  12.029   8.461  17.948  0.2665 -0.3477  1.0482
  243ETHOX  H2361434  12.097   8.355  17.816 -1.5670 -0.5439 -0.7640
  244ETHOX   O161435  12.115   8.276  18.013 -0.2072  0.3289 -0.6542
  244ETHOX   C161436  12.237   8.336  18.052 -1.2169 -0.0201 -0.6577
  244ETHOX  H1161437  12.203   8.429  18.101 -1.0899 -0.3051 -0.0195
  244ETHOX  H1361438  12.307   8.348  17.967 -0.7718 -0.1242 -0.3075
  244ETHOX   C261439  12.306   8.249  18.160 -0.7939  0.1578  0.1651
  244ETHOX  H2161440  12.390   8.297  18.215 -1.1752 -1.0319  1.8740
  244ETHOX  H2361441  12.337   8.156  18.107 -4.9976 -0.0411 -2.4032
  245ETHOX   O161442  12.209   8.218  18.260 -0.1004 -0.1688 -0.0700
  245ETHOX   C161443  12.275   8.154  18.364 -0.6718 -0.3043 -0.6489
  245ETHOX  H1161444  12.295   8.052  18.327 -1.2178 -0.3381 -0.8695
  245ETHOX  H1361445  12.378   8.188  18.387 -0.5889  0.2929 -1.8248
  245ETHOX   C261446  12.196   8.131  18.496  0.0377 -0.5407  0.4285
  245ETHOX  H2161447  12.242   8.048  18.554 -0.3265  0.5269  2.3336
  245ETHOX  H2361448  12.093   8.094  18.476  0.3971 -0.8227 -0.9967
  246ETHOX   O161449  12.190   8.252  18.574  0.9135  0.3718 -0.4967
  246ETHOX   C161450  12.226   8.224  18.705 -0.7154  0.4957 -0.4139
  246ETHOX  H1161451  12.330   8.185  18.708 -1.6114 -1.9948  1.2233
  246ETHOX  H1361452  12.159   8.149  18.752  1.2967 -1.5795 -0.7159
  246ETHOX   C261453  12.229   8.353  18.786  0.0154 -0.3298  0.0503
  246ETHOX  H2161454  12.252   8.321  18.890  0.7322  0.5425  0.1654
  246ETHOX  H2361455  12.121   8.381  18.782 -0.1481 -0.5715  1.7617
  247ETHOX   O161456  12.316   8.454  18.742  0.1515 -0.3563 -0.3583
  247ETHOX   C161457  12.276   8.583  18.793  0.1370 -0.7785  0.2265
  247ETHOX  H1161458  12.172   8.604  18.760  1.0587  0.3092 -2.2958
  247ETHOX  H1361459  12.291   8.588  18.903 -0.7358  2.6041  0.2920
  247ETHOX   C261460  12.363   8.688  18.724 -0.6922 -0.3516 -0.1145
  247ETHOX  H2161461  12.365   8.660  18.617  1.3903 -3.7177  0.6516
  247ETHOX  H2361462  12.319   8.788  18.743  1.1941  0.7835 -1.4313
  248ETHOX   O161463  12.496   8.695  18.777 -0.2575  0.2301 -0.0170
  248ETHOX   C161464  12.582   8.771  18.693  0.2036 -1.7101 -0.8098
  248ETHOX  H1161465  12.565   8.736  18.590 -1.2160  0.3840 -1.3624
  248ETHOX  H1361466  12.555   8.879  18.705  2.4179 -0.9985 -1.6942
  248ETHOX   C261467  12.722   8.752  18.742 -0.3426  0.0837  0.2818
  248ETHOX  H2161468  12.790   8.803  18.670 -0.8746  1.0582  0.4364
  248ETHOX  H2361469  12.751   8.646  18.756 -0.3303 -0.1574 -1.4512
  249ETHOX   O161470  12.749   8.823  18.865 -0.0682  0.3588  0.0864
  249ETHOX   C161471  12.765   8.963  18.858 -0.2379 -0.4211  0.5281
  249ETHOX  H1161472  12.830   9.000  18.776 -1.1572  1.5874  0.6506
  249ETHOX  H1361473  12.673   9.021  18.834 -1.0220 -1.4584  0.9138
  249ETHOX   C261474  12.832   9.008  18.985 -1.0770  0.1086 -0.0073
  249ETHOX  H2161475  12.789   8.974  19.082  2.0677  0.7138  1.7074
  249ETHOX  H2361476  12.833   9.119  18.987 -1.4117  0.1107  1.6171
  250ETHOX   O161477  12.969   8.958  18.991 -0.3433 -0.4155  0.5917
  250ETHOX   C161478  13.030   9.007  19.112 -0.5608  0.2622  0.4732
  250ETHOX  H1161479  13.034   9.116  19.090 -1.1273 -0.1655 -2.0709
  250ETHOX  H1361480  12.961   8.975  19.192 -2.1945  0.7579 -0.6751
  250ETHOX   C261481  13.168   8.941  19.112  0.1692 -0.7217 -1.2400
  250ETHOX  H2161482  13.214   8.991  19.200 -3.2936  2.6895 -1.0914
  250ETHOX  H2361483  13.228   8.953  19.019  2.6170 -2.0238  0.0733
  251ETHOX   O161484  13.162   8.796  19.119  0.3947 -0.5194 -0.3168
  251ETHOX   C161485  13.288   8.733  19.127  0.0715 -1.0045 -0.3206
  251ETHOX  H1161486  13.353   8.784  19.200  0.8999 -0.5024 -1.3812
  251ETHOX  H1361487  13.339   8.753  19.030  1.0329  2.4673  0.7727
  251ETHOX   C261488  13.274   8.588  19.177 -0.0744 -0.1351 -0.2533
  251ETHOX  H2161489  13.352   8.521  19.135 -0.0667 -0.1260 -0.2515
  251ETHOX  H2361490  13.178   8.544  19.144 -0.4006 -0.8759  1.5819
  252ETHOX   O161491  13.276   8.577  19.322  0.7952 -0.6650  0.2639
  252ETHOX   C161492  13.245   8.440  19.361  0.0676 -0.2463  0.1588
  252ETHOX  H1161493  13.145   8.415  19.320  0.2079 -0.0523 -0.3058
  252ETHOX  H1361494  13.322   8.367  19.328 -0.4551 -0.2808 -1.0176
  252ETHOX   C261495  13.233   8.437  19.513  0.5704  0.5421  0.2665
  252ETHOX  H2161496  13.323   8.482  19.559  0.5327  0.3275  0.5513
  252ETHOX  H2361497  13.221   8.334  19.552 -1.7556  1.7830  3.2208
  253ETHOX   O161498  13.110   8.493  19.548 -0.0299  0.1137  0.3058
  253ETHOX   C161499  13.086   8.481  19.689 -0.1154  0.3239 -0.4468
  253ETHOX  H1161500  13.155   8.549  19.743 -1.0061  0.1357  0.9770
  253ETHOX  H1361501  13.113   8.379  19.725  3.5882  0.8200 -1.4063
  253ETHOX   C261502  12.933   8.506  19.716 -0.5233 -0.5604  0.1426
  253ETHOX  H2161503  12.915   8.605  19.669 -2.1586 -0.1151  1.6019
  253ETHOX  H2361504  12.915   8.512  19.825 -0.2796 -0.2357  0.1637
  254ETHOX   O161505  12.855   8.400  19.660  0.6527 -0.4895  0.2207
  254ETHOX   C161506  12.715   8.435  19.667  0.4683  0.0385 -0.0922
  254ETHOX  H1161507  12.696   8.452  19.775  1.3487 -0.6083  0.1718
  254ETHOX  H1361508  12.684   8.528  19.614  3.0720  0.1033 -1.6942
  254ETHOX   C261509  12.640   8.309  19.618  0.5472 -0.4979 -0.0957
  254ETHOX  H2161510  12.536   8.311  19.659  0.3479 -0.8773 -0.5798
  254ETHOX  H2361511  12.686   8.219  19.664 -2.5158  0.4951  6.0154
  255ETHOX   O161512  12.620   8.309  19.479 -0.2194  0.3524  0.5712
  255ETHOX   C161513  12.591   8.178  19.425  0.0796  0.2473 -0.5365
  255ETHOX  H1161514  12.542   8.107  19.495 -0.0816 -0.5575 -1.4409
  255ETHOX  H1361515  12.693   8.138  19.408 -0.2888 -1.9142  1.7030
  255ETHOX   C261516  12.510   8.181  19.292  0.0672  0.3840  0.3931
  255ETHOX  H2161517  12.543   8.087  19.244  1.4986  0.3172  1.4657
  255ETHOX  H2361518  12.545   8.270  19.236 -0.8067  0.2958 -0.3200
  256ETHOX   O161519  12.369   8.186  19.308 -0.5404  0.7287  0.5295
  256ETHOX   C161520  12.310   8.234  19.189  0.1467 -0.2943 -0.6451
  256ETHOX  H1161521  12.329   8.342  19.175 -3.3987  0.6640  0.7588
  256ETHOX  H1361522  12.359   8.184  19.102 -1.4870 -0.3663 -1.5757
  256ETHOX   C261523  12.166   8.189  19.186  0.0239 -0.0198 -0.7404
  256ETHOX  H2161524  12.124   8.233  19.279  1.4672  1.0086 -0.5507
  256ETHOX  H2361525  12.157   8.078  19.184  0.6316 -0.0729 -0.6732
  257ETHOX   O161526  12.094   8.246  19.076 -0.1386 -0.2146  0.3742
  257ETHOX   C161527  11.949   8.243  19.094 -0.3946 -0.2183 -0.6128
  257ETHOX  H1161528  11.932   8.292  19.193  2.1014 -1.3119  0.4458
  257ETHOX  H1361529  11.916   8.138  19.087 -1.1975 -0.0134  0.0132
  257ETHOX   C261530  11.873   8.328  18.991 -0.0675 -0.3842  0.1421
  257ETHOX  H2161531  11.926   8.424  18.974  2.2503 -1.7549 -0.8734
  257ETHOX  H2361532  11.764   8.342  19.013  0.5016 -0.5043  3.6916
  258ETHOX   O161533  11.875   8.260  18.869  0.2922  0.6975  0.6290
  258ETHOX   C161534  11.797   8.325  18.768 -0.1282 -0.2886  0.1811
  258ETHOX  H1161535  11.687   8.323  18.787 -0.4160 -0.1916 -1.3358
  258ETHOX  H1361536  11.831   8.431  18.772  2.3984 -1.0436  0.2306
  258ETHOX   C261537  11.812   8.279  18.624 -0.0696  0.3584  0.2788
  258ETHOX  H2161538  11.915   8.244  18.600  0.4812  2.7928 -1.2424
  258ETHOX  H2361539  11.806   8.364  18.553  1.2446 -0.9951 -1.5354
  259ETHOX   O161540  11.717   8.177  18.601 -0.3233 -0.0161  0.7144
  259ETHOX   C161541  11.719   8.120  18.467  0.0795  0.2540  0.0231
  259ETHOX  H1161542  11.717   8.206  18.398 -0.3459 -0.0187 -0.3077
  259ETHOX  H1361543  11.821   8.077  18.464  0.4452  1.0621  0.5733
  259ETHOX   C261544  11.603   8.032  18.420 -0.4379  0.1284  0.0204
  259ETHOX  H2161545  11.582   7.943  18.483  0.6471 -0.3998 -0.3429
  259ETHOX  H2361546  11.624   7.999  18.316 -0.9778 -1.1479  0.2973
  260ETHOX   O161547  11.487   8.111  18.416 -0.3741 -0.5004 -0.1283
  260ETHOX   C161548  11.361   8.037  18.441 -0.2240 -0.3482  0.4364
  260ETHOX  H1161549  11.366   7.952  18.368  0.4794  1.5735 -1.8921
  260ETHOX  H1361550  11.365   8.004  18.547 -1.2299 -2.4912 -0.1392
  260ETHOX   C261551  11.256   8.133  18.399  0.7385 -0.1334 -0.4873
  260ETHOX  H2161552  11.252   8.222  18.465 -0.0759  0.3961 -1.2252
  260ETHOX  H2361553  11.158   8.080  18.401  0.6242  0.0883  0.3050
  261ETHOX   O161554  11.278   8.168  18.260 -0.1574  0.6940  0.1574
  261ETHOX   C161555  11.171   8.228  18.192  0.4277  0.7512 -0.5826
  261ETHOX  H1161556  11.099   8.144  18.202  1.9513 -0.6104 -0.4823
  261ETHOX  H1361557  11.138   8.317  18.249  0.1844  0.9920 -1.0990
  261ETHOX   C261558  11.202   8.256  18.046  0.7488 -0.5508 -0.4507
  261ETHOX  H2161559  11.241   8.164  17.998  2.4774  0.3274 -0.8259
  261ETHOX  H2361560  11.275   8.340  18.040  0.0475  0.3754  2.4259
  262ETHOX   O161561  11.075   8.303  17.996  0.1524 -0.1823  0.0344
  262ETHOX   C161562  11.095   8.336  17.864 -0.0232 -0.1477  0.1603
  262ETHOX  H1161563  11.114   8.240  17.811  1.2136  0.3248 -0.2885
  262ETHOX  H1361564  11.185   8.401  17.857 -1.0435  1.1960 -1.4123
  262ETHOX   C261565  10.977   8.404  17.797  0.1343  0.5787  0.2759
  262ETHOX  H2161566  10.890   8.335  17.811 -1.5210  2.5892  0.4596
  262ETHOX  H2361567  10.992   8.409  17.687  1.1514 -1.6964  0.2570
  263ETHOX   O161568  10.948   8.526  17.868 -0.1709  0.5441 -0.0708
  263ETHOX   C161569  10.885   8.615  17.777  0.2320 -0.3733  0.0035
  263ETHOX  H1161570  10.930   8.616  17.675  1.4794 -0.8463  0.5211
  263ETHOX  H1361571  10.898   8.712  17.829 -1.6753  0.2072 -0.5103
  263ETHOX   C261572  10.733   8.580  17.778 -0.0916  0.5779 -0.1448
  263ETHOX  H2161573  10.707   8.482  17.732  0.4908  0.0499  0.6198
  263ETHOX  H2361574  10.674   8.659  17.727 -1.5890  0.0243  0.6696
  264ETHOX   O161575  10.675   8.572  17.908 -0.0576 -0.2824  0.5190
  264ETHOX   C161576  10.535   8.570  17.896  0.2496  0.5227  0.1332
  264ETHOX  H1161577  10.508   8.491  17.823 -3.1938 -0.2042  1.9482
  264ETHOX  H1361578  10.492   8.668  17.865 -1.3212 -0.2733 -0.3273
  264ETHOX   C261579  10.461   8.552  18.032 -0.3144 -0.1245  0.0359
  264ETHOX  H2161580  10.353   8.575  18.020 -0.3128  0.6126  1.2052
  264ETHOX  H2361581  10.512   8.622  18.103  1.2602 -1.3703  0.1917
  265ETHOX   O161582  10.483   8.429  18.095  0.1841 -1.0078 -0.4214
  265ETHOX   C161583  10.386   8.411  18.204 -0.0736 -0.2163 -0.6083
  265ETHOX  H1161584  10.408   8.485  18.283 -0.8849  0.1086 -0.6809
  265ETHOX  H1361585  10.282   8.424  18.166  0.0152  0.1296 -0.7396
  265ETHOX   C261586  10.374   8.261  18.258 -0.0091 -0.4923  0.4603
  265ETHOX  H2161587  10.365   8.199  18.166  0.8396  1.7258 -1.2120
  265ETHOX  H2361588  10.282   8.260  18.320  0.0179 -1.6417  0.4989
  265ETHOX   OZ61589  10.486   8.221  18.344 -0.4029  0.1678  0.0961
  265ETHOX  HZ161590  10.468   8.129  18.365 -0.4840  0.2471  0.3765
    1ETHOX   O161591   7.732  10.075  11.142 -0.0647 -0.0251 -0.1190
    1ETHOX  HO161592   7.751  10.035  11.227  3.0175  0.1554 -0.5811
    1ETHOX   C161593   7.841  10.021  11.065 -0.0681  0.1421  0.3785
    1ETHOX  H1161594   7.858  10.074  10.969  1.0690  0.7265  0.8740
    1ETHOX  H1361595   7.811   9.915  11.049  0.7508 -0.1227  0.5550
    1ETHOX   C261596   7.960  10.035  11.154 -0.2846 -0.3964  0.1423
    1ETHOX  H2161597   7.964  10.145  11.174 -1.7994 -0.4537  0.9332
    1ETHOX  H2361598   8.049  10.008  11.093 -1.5140 -1.1121 -1.3989
    2ETHOX   O161599   7.960   9.966  11.274  0.3592  0.6259 -0.1587
    2ETHOX   C161600   7.978   9.822  11.260  0.1216 -0.2823  0.6866
    2ETHOX  H1161601   8.010   9.793  11.158 -2.1326  0.8248 -0.3741
    2ETHOX  H1361602   8.066   9.802  11.327  1.9930  0.9511 -1.2871
    2ETHOX   C261603   7.847   9.736  11.297  0.1442 -0.1573 -0.1040
    2ETHOX  H2161604   7.869   9.628  11.280 -1.3197 -0.6566  0.9151
    2ETHOX  H2361605   7.766   9.770  11.229  0.5927  2.6231  0.6148
    3ETHOX   O161606   7.815   9.769  11.432 -0.5023  0.4040  0.1846
    3ETHOX   C161607   7.702   9.706  11.478 -0.2585  0.0184 -0.9128
    3ETHOX  H1161608   7.702   9.599  11.450 -2.2447 -0.2634 -0.0260
    3ETHOX  H1361609   7.610   9.741  11.427 -1.1756  1.7065  1.7091
    3ETHOX   C261610   7.682   9.711  11.631 -0.4157 -0.8096  0.0496
    3ETHOX  H2161611   7.770   9.683  11.694 -0.1321 -2.7714 -1.1389
    3ETHOX  H2361612   7.616   9.626  11.658  0.4242 -1.6478 -0.4785
    4ETHOX   O161613   7.625   9.841  11.655  0.0414 -0.0492 -0.2221
    4ETHOX   C161614   7.604   9.862  11.790  0.0550 -0.4179 -0.4648
    4ETHOX  H1161615   7.541   9.779  11.828  0.4453 -1.2522 -1.5701
    4ETHOX  H1361616   7.704   9.851  11.838  0.2885  0.2451 -0.7739
    4ETHOX   C261617   7.534   9.995  11.823 -0.2622 -0.2180 -0.6386
    4ETHOX  H2161618   7.504   9.997  11.929 -1.0452  0.2508 -0.8600
    4ETHOX  H2361619   7.438   9.991  11.767  0.1573  2.6636 -1.7524
    5ETHOX   O161620   7.607  10.108  11.784  0.2586 -0.4123 -0.2358
    5ETHOX   C161621   7.525  10.228  11.781  0.2307  0.4739 -0.1847
    5ETHOX  H1161622   7.455  10.224  11.694  0.4189  0.8328 -0.3539
    5ETHOX  H1361623   7.465  10.237  11.874 -1.4013 -0.1034 -1.1478
    5ETHOX   C261624   7.609  10.362  11.772  0.1468  0.5943  0.6671
    5ETHOX  H2161625   7.544  10.448  11.742  0.2360  0.5893  0.4576
    5ETHOX  H2361626   7.665  10.348  11.676  1.1284  1.2369  1.1309
    6ETHOX   O161627   7.698  10.395  11.876 -0.2819 -0.2091 -0.9412
    6ETHOX   C161628   7.804  10.482  11.829  0.3373  0.3326 -0.2646
    6ETHOX  H1161629   7.864  10.434  11.748  1.8451  0.9643  0.4329
    6ETHOX  H1361630   7.761  10.577  11.791 -1.2897  0.7082  2.2448
    6ETHOX   C261631   7.893  10.506  11.947  0.3038  0.1581  1.1066
    6ETHOX  H2161632   7.970  10.575  11.904  0.3039 -0.4039  0.1716
    6ETHOX  H2361633   7.941  10.413  11.984 -0.0623 -1.1120 -1.4041
    7ETHOX   O161634   7.829  10.578  12.051 -0.1529 -0.0895  0.4328
    7ETHOX   C161635   7.909  10.583  12.167  0.3065  0.1190  0.9683
    7ETHOX  H1161636   7.913  10.477  12.199 -2.8625 -0.7974 -1.1905
    7ETHOX  H1361637   8.003  10.633  12.137 -1.1137  0.6543 -3.1119
    7ETHOX   C261638   7.851  10.670  12.277 -0.8587 -0.4956  0.0255
    7ETHOX  H2161639   7.796  10.756  12.234 -2.2409 -2.1360 -1.6557
    7ETHOX  H2361640   7.937  10.703  12.339 -0.0008 -1.4983 -0.5814
    8ETHOX   O161641   7.775  10.589  12.351 -0.0323  0.1894  0.3000
    8ETHOX   C161642   7.753  10.636  12.484  0.3478  0.0297  0.2811
    8ETHOX  H1161643   7.708  10.737  12.479 -0.1840 -0.2164  0.0686
    8ETHOX  H1361644   7.847  10.643  12.543  0.7982 -0.0570 -0.4074
    8ETHOX   C261645   7.671  10.534  12.553 -0.0557  0.7400  0.6496
    8ETHOX  H2161646   7.719  10.433  12.556 -0.7008  0.4437  2.8398
    8ETHOX  H2361647   7.576  10.525  12.496  0.0424  0.9098  0.4553
    9ETHOX   O161648   7.645  10.573  12.686 -0.0343 -0.3743  0.6524
    9ETHOX   C161649   7.613  10.475  12.778  0.1104 -0.3093  0.0984
    9ETHOX  H1161650   7.535  10.411  12.730 -0.1715 -1.8258  2.4227
    9ETHOX  H1361651   7.708  10.422  12.796 -0.6589 -2.1226 -0.8372
    9ETHOX   C261652   7.542  10.533  12.911  0.0979 -0.5602  0.3338
    9ETHOX  H2161653   7.478  10.453  12.953  0.1134 -0.6064  0.2688
    9ETHOX  H2361654   7.480  10.621  12.886 -0.5028 -0.5511  1.7551
   10ETHOX   O161655   7.653  10.576  12.990 -0.1780 -0.3281 -0.1356
   10ETHOX   C161656   7.626  10.581  13.128 -1.0449 -0.2246 -0.2113
   10ETHOX  H1161657   7.713  10.607  13.192 -2.1228  2.6730  0.2157
   10ETHOX  H1361658   7.601  10.476  13.158  1.8008 -0.9729 -0.2176
   10ETHOX   C261659   7.525  10.686  13.158 -0.0187 -0.3797  0.1988
   10ETHOX  H2161660   7.483  10.686  13.261  1.0945  2.0497  0.7298
   10ETHOX  H2361661   7.440  10.679  13.088  0.3464  1.3703 -0.4711
   11ETHOX   O161662   7.588  10.815  13.149 -0.8779 -0.1031 -0.3929
   11ETHOX   C161663   7.501  10.914  13.204  0.1731 -0.5554  0.4467
   11ETHOX  H1161664   7.410  10.919  13.141  0.5645  3.3873 -0.0848
   11ETHOX  H1361665   7.471  10.878  13.305 -2.4988 -1.6418 -0.6622
   11ETHOX   C261666   7.555  11.055  13.204  0.5271  0.6850  0.2884
   11ETHOX  H2161667   7.559  11.100  13.102 -1.4290  0.2139 -0.0377
   11ETHOX  H2361668   7.481  11.109  13.266 -0.7026  1.6582 -1.9140
   12ETHOX   O161669   7.680  11.062  13.263 -0.3986 -0.0264  0.1581
   12ETHOX   C161670   7.723  11.196  13.249  0.3536  0.5618 -0.0791
   12ETHOX  H1161671   7.640  11.270  13.262 -0.4010 -0.7109  3.3752
   12ETHOX  H1361672   7.762  11.198  13.146  1.1821  2.8615  0.2049
   12ETHOX   C261673   7.848  11.218  13.336  0.3320 -0.3625  0.1901
   12ETHOX  H2161674   7.826  11.221  13.445  2.0363  0.1583  0.5507
   12ETHOX  H2361675   7.883  11.317  13.298  0.1827  0.0047  0.9944
   13ETHOX   O161676   7.961  11.142  13.301 -0.3660  0.6174 -0.0416
   13ETHOX   C161677   8.066  11.160  13.397  0.0095 -0.1219  0.2158
   13ETHOX  H1161678   8.087  11.265  13.427 -0.4058  1.4414 -4.2825
   13ETHOX  H1361679   8.046  11.100  13.489  0.2096 -0.0327  0.3184
   13ETHOX   C261680   8.204  11.102  13.351  0.1372  0.2535 -0.5597
   13ETHOX  H2161681   8.195  10.994  13.329 -2.4263  0.0590  0.9564
   13ETHOX  H2361682   8.278  11.114  13.433  0.2766 -2.8022 -0.1174
   14ETHOX   O161683   8.258  11.176  13.246  0.2274 -0.3955  0.5244
   14ETHOX   C161684   8.390  11.139  13.206  0.0987 -0.4257  0.1314
   14ETHOX  H1161685   8.381  11.031  13.182 -0.4875  0.1185 -2.4018
   14ETHOX  H1361686   8.456  11.153  13.293 -0.6482 -0.3643  0.7015
   14ETHOX   C261687   8.436  11.209  13.085 -0.1121 -0.1453  0.1151
   14ETHOX  H2161688   8.543  11.182  13.078 -0.3707 -1.1218 -0.2995
   14ETHOX  H2361689   8.439  11.318  13.106 -0.3998 -0.2510  0.7458
   15ETHOX   O161690   8.369  11.176  12.962 -0.1551  0.5861 -0.6161
   15ETHOX   C161691   8.405  11.251  12.849 -0.3246 -0.1503 -0.2545
   15ETHOX  H1161692   8.366  11.354  12.859  0.6576  0.1672  0.5331
   15ETHOX  H1361693   8.514  11.274  12.852 -0.4187  1.0272  5.4647
   15ETHOX   C261694   8.369  11.200  12.707 -0.1459  0.1241  0.0513
   15ETHOX  H2161695   8.261  11.173  12.703 -0.6420  2.1170 -1.7411
   15ETHOX  H2361696   8.379  11.283  12.635  2.3306  1.4710  1.7825
   16ETHOX   O161697   8.461  11.101  12.665 -0.2228  0.5303  0.0588
   16ETHOX   C161698   8.432  11.060  12.529 -0.0120 -0.1834  0.1987
   16ETHOX  H1161699   8.420  11.145  12.459  0.1299  1.1215  1.6965
   16ETHOX  H1361700   8.520  11.000  12.497 -1.1279 -2.0845  0.5394
   16ETHOX   C261701   8.309  10.959  12.492  0.3310  0.1004  0.2708
   16ETHOX  H2161702   8.300  10.890  12.578  1.1126 -0.5111 -0.1213
   16ETHOX  H2361703   8.337  10.914  12.394  0.1712  1.0301 -0.2184
   17ETHOX   O161704   8.188  11.024  12.452 -0.0206  0.1210  0.1622
   17ETHOX   C161705   8.078  10.939  12.466 -0.6365  0.2761 -0.1012
   17ETHOX  H1161706   8.106  10.837  12.432 -0.7639 -0.3297  1.5398
   17ETHOX  H1361707   8.043  10.932  12.571 -0.3348  1.7443  0.1217
   17ETHOX   C261708   7.967  10.989  12.372  0.2999 -0.2918 -0.2206
   17ETHOX  H2161709   7.958  10.932  12.277  1.2182  0.3435 -0.7095
   17ETHOX  H2361710   8.004  11.090  12.342  0.8962 -0.5353 -0.3151
   18ETHOX   O161711   7.837  11.000  12.435  0.4907 -0.2618 -0.1826
   18ETHOX   C161712   7.733  11.052  12.362  0.1497 -0.2105 -0.3838
   18ETHOX  H1161713   7.765  11.134  12.294  0.4274 -0.8180 -0.9839
   18ETHOX  H1361714   7.695  10.974  12.293  1.2840  1.9881 -3.7687
   18ETHOX   C261715   7.629  11.091  12.462 -0.2788  0.1932 -0.2513
   18ETHOX  H2161716   7.619  11.007  12.534 -2.1021  0.9800  0.4762
   18ETHOX  H2361717   7.533  11.105  12.409 -0.3693  1.3780  0.1975
   19ETHOX   O161718   7.650  11.214  12.531 -0.0178 -0.3996 -0.4334
   19ETHOX   C161719   7.749  11.210  12.632 -0.3973 -0.6928 -0.5333
   19ETHOX  H1161720   7.851  11.213  12.590 -0.0693  1.9222  0.2994
   19ETHOX  H1361721   7.721  11.124  12.697  0.5799 -0.7990 -0.2440
   19ETHOX   C261722   7.750  11.332  12.730  0.3477  0.1916  0.3519
   19ETHOX  H2161723   7.642  11.359  12.733 -0.5053 -2.8042  0.0534
   19ETHOX  H2361724   7.805  11.416  12.683  1.0263 -0.4980 -0.1166
   20ETHOX   O161725   7.802  11.319  12.855 -0.6639 -0.5476 -0.2450
   20ETHOX   C161726   7.928  11.249  12.851 -0.5439  0.3821 -0.3587
   20ETHOX  H1161727   7.900  11.143  12.835 -1.7243  0.4287  1.1389
   20ETHOX  H1361728   7.991  11.275  12.764 -1.2651  0.1962 -0.9420
   20ETHOX   C261729   8.005  11.284  12.978  0.8854 -0.4255  0.6647
   20ETHOX  H2161730   8.084  11.210  13.003 -1.0727 -2.3190  1.4925
   20ETHOX  H2361731   7.937  11.296  13.065 -1.5550  0.9402 -1.2972
   21ETHOX   O161732   8.057  11.415  12.967  0.5101  0.9689  0.3522
   21ETHOX   C161733   8.135  11.450  13.082 -0.6715  0.3562 -0.4274
   21ETHOX  H1161734   8.243  11.430  13.065 -0.2046  0.5207  1.9249
   21ETHOX  H1361735   8.104  11.390  13.170 -0.0292  0.8017  0.1248
   21ETHOX   C261736   8.123  11.600  13.122 -0.1204  0.0476 -0.2924
   21ETHOX  H2161737   8.129  11.668  13.035 -0.8372  0.8388  0.2603
   21ETHOX  H2361738   8.201  11.629  13.196  0.0720  1.8148 -1.1368
   22ETHOX   O161739   7.997  11.607  13.178 -0.1471  0.4138 -0.5365
   22ETHOX   C161740   7.956  11.728  13.236 -0.1551 -0.1899  0.3586
   22ETHOX  H1161741   8.026  11.753  13.318  0.3736 -0.4929  0.0050
   22ETHOX  H1361742   7.953  11.802  13.153 -2.2311  1.0057  1.4084
   22ETHOX   C261743   7.807  11.729  13.275 -0.2301 -0.4005  0.1369
   22ETHOX  H2161744   7.759  11.827  13.254 -1.3936 -1.1046 -0.6554
   22ETHOX  H2361745   7.750  11.663  13.205 -2.1573 -1.5944  2.6840
   23ETHOX   O161746   7.784  11.688  13.412 -0.2126  0.2209 -0.0671
   23ETHOX   C161747   7.796  11.546  13.445 -0.6882 -0.2185 -0.6368
   23ETHOX  H1161748   7.890  11.505  13.403  1.1596  0.1771  2.7794
   23ETHOX  H1361749   7.716  11.491  13.389 -1.8346  1.0369 -0.2999
   23ETHOX   C261750   7.805  11.510  13.592  0.4509  0.0830  0.3679
   23ETHOX  H2161751   7.711  11.527  13.649  0.6068 -1.2350  1.0423
   23ETHOX  H2361752   7.884  11.570  13.644  1.0439 -1.2523  1.0580
   24ETHOX   O161753   7.840  11.377  13.595  0.0779 -0.1119  0.6325
   24ETHOX   C161754   7.847  11.332  13.730 -0.0308  0.0275 -0.3951
   24ETHOX  H1161755   7.908  11.409  13.782 -0.2919  1.4106 -2.0651
   24ETHOX  H1361756   7.747  11.331  13.780  0.7297 -0.2234  1.1996
   24ETHOX   C261757   7.923  11.202  13.740 -0.2048  0.6185  1.0053
   24ETHOX  H2161758   7.950  11.190  13.847 -0.7174  1.1520  1.1972
   24ETHOX  H2361759   8.016  11.195  13.680 -1.1458 -1.5323 -0.3571
   25ETHOX   O161760   7.841  11.089  13.716 -0.2124  0.1672  0.5579
   25ETHOX   C161761   7.924  10.970  13.721  0.5168  0.1959  0.5176
   25ETHOX  H1161762   7.903  10.933  13.824 -0.0542 -0.5980  0.1263
   25ETHOX  H1361763   8.033  10.989  13.708  0.1308  2.2247  0.0054
   25ETHOX   C261764   7.888  10.880  13.605  0.4259  0.1803 -0.2018
   25ETHOX  H2161765   7.962  10.798  13.595 -1.8798 -2.3770  2.1122
   25ETHOX  H2361766   7.886  10.930  13.505 -0.8865  2.1070  0.7455
   26ETHOX   O161767   7.763  10.811  13.634  0.6492 -0.6134  0.5707
   26ETHOX   C161768   7.726  10.716  13.535 -0.5528  0.3256 -0.3936
   26ETHOX  H1161769   7.720  10.765  13.435 -2.3979  2.0586  0.5069
   26ETHOX  H1361770   7.813  10.647  13.538  0.6877  1.7864 -1.2634
   26ETHOX   C261771   7.596  10.642  13.567  0.1754 -0.6399  0.5406
   26ETHOX  H2161772   7.548  10.596  13.478 -1.7752  1.5249  0.3733
   26ETHOX  H2361773   7.513  10.707  13.600  0.9821  0.6777  0.0414
   27ETHOX   O161774   7.634  10.555  13.668 -0.1139 -0.0429  0.0069
   27ETHOX   C161775   7.520  10.498  13.724  0.2661  0.1372 -0.1844
   27ETHOX  H1161776   7.441  10.480  13.648 -1.2660  0.4019  1.2656
   27ETHOX  H1361777   7.459  10.548  13.803 -0.2103 -0.5491 -0.1114
   27ETHOX   C261778   7.558  10.366  13.798 -0.1202 -0.9272  0.3332
   27ETHOX  H2161779   7.609  10.303  13.721  0.2606  1.7633 -1.7580
   27ETHOX  H2361780   7.467  10.325  13.847  0.4107 -0.4842  1.7420
   28ETHOX   O161781   7.637  10.403  13.904 -0.6122  0.0711  0.2739
   28ETHOX   C161782   7.700  10.294  13.969 -0.0959  0.1687  0.8301
   28ETHOX  H1161783   7.632  10.206  13.971  0.4464 -0.2691  0.3338
   28ETHOX  H1361784   7.784  10.253  13.910  0.2747  0.8691  0.8573
   28ETHOX   C261785   7.737  10.336  14.109 -0.5048 -0.2909  0.4063
   28ETHOX  H2161786   7.727  10.242  14.168  0.7121 -1.4851 -1.2081
   28ETHOX  H2361787   7.665  10.406  14.156  0.3909  0.4049  0.7853
   29ETHOX   O161788   7.870  10.383  14.125 -0.6214  0.4531 -0.2004
   29ETHOX   C161789   7.879  10.521  14.160  0.2072  0.0123 -0.1814
   29ETHOX  H1161790   7.841  10.532  14.264 -0.9010  1.7738 -0.7243
   29ETHOX  H1361791   7.818  10.580  14.088 -0.0735  0.4997  0.4433
   29ETHOX   C261792   8.022  10.569  14.145 -0.4770  0.1818  0.3025
   29ETHOX  H2161793   8.094  10.491  14.179 -0.0194 -1.4614 -3.8239
   29ETHOX  H2361794   8.026  10.661  14.207 -0.2988  1.8400 -2.0193
   30ETHOX   O161795   8.035  10.602  14.007  0.0083  0.6344 -0.2498
   30ETHOX   C161796   8.158  10.675  13.987 -0.2112 -0.2254 -0.8294
   30ETHOX  H1161797   8.154  10.770  14.045 -0.2986 -1.6021  1.4880
   30ETHOX  H1361798   8.244  10.609  14.010 -0.8776 -0.8258 -0.0151
   30ETHOX   C261799   8.169  10.699  13.840 -0.1941  0.5531 -0.1997
   30ETHOX  H2161800   8.072  10.731  13.795  0.7333  2.1721 -1.1634
   30ETHOX  H2361801   8.211  10.610  13.789  1.9003  2.6956 -2.5449
   31ETHOX   O161802   8.262  10.808  13.829  0.3251 -0.6736 -0.1848
   31ETHOX   C161803   8.300  10.840  13.696  0.2952  0.8978  0.6618
   31ETHOX  H1161804   8.352  10.757  13.643  0.6362  0.9064  0.9748
   31ETHOX  H1361805   8.210  10.861  13.635  0.0488  2.3110  1.4726
   31ETHOX   C261806   8.389  10.965  13.687 -0.1181  0.3920  0.5425
   31ETHOX  H2161807   8.429  10.969  13.583  0.1774  0.7423  0.6670
   31ETHOX  H2361808   8.480  10.948  13.750  1.4050 -1.6193 -1.9813
   32ETHOX   O161809   8.320  11.085  13.726  0.4811 -0.0660 -0.6432
   32ETHOX   C161810   8.401  11.193  13.704 -0.1576  0.4071  0.0078
   32ETHOX  H1161811   8.487  11.192  13.775  1.8133  1.9048 -2.1969
   32ETHOX  H1361812   8.443  11.186  13.601  0.2117 -1.6823  0.2720
   32ETHOX   C261813   8.329  11.327  13.721 -0.3768 -0.5493  0.3453
   32ETHOX  H2161814   8.405  11.407  13.733  1.7253 -1.9455 -2.3142
   32ETHOX  H2361815   8.270  11.325  13.815  0.8829  0.2725  1.1741
   33ETHOX   O161816   8.254  11.357  13.607  0.3194 -0.2767  0.4316
   33ETHOX   C161817   8.203  11.491  13.609 -0.7042  0.3674  0.6278
   33ETHOX  H1161818   8.098  11.501  13.644 -1.9528 -1.2275 -2.2974
   33ETHOX  H1361819   8.277  11.557  13.659  1.2961  2.0868 -4.0535
   33ETHOX   C261820   8.204  11.551  13.468 -0.6505 -0.2700 -0.1649
   33ETHOX  H2161821   8.141  11.642  13.463  1.7119  1.4971  0.1423
   33ETHOX  H2361822   8.162  11.491  13.384  1.7874 -1.6515 -0.5056
   34ETHOX   O161823   8.336  11.600  13.431  0.3524  0.4742  0.6977
   34ETHOX   C161824   8.426  11.493  13.412  0.2116  0.6128 -0.1826
   34ETHOX  H1161825   8.384  11.414  13.347  0.5828 -0.3469  0.7016
   34ETHOX  H1361826   8.454  11.451  13.511  1.2940 -0.5527 -0.9491
   34ETHOX   C261827   8.564  11.549  13.356  0.2883 -0.4509 -0.3389
   34ETHOX  H2161828   8.638  11.466  13.360  0.3576 -0.3523  0.8465
   34ETHOX  H2361829   8.591  11.635  13.420 -2.4379 -0.3065  0.7568
   35ETHOX   O161830   8.537  11.574  13.220 -0.4444 -0.1084 -0.2805
   35ETHOX   C161831   8.644  11.635  13.150  0.0199  0.3789  0.7377
   35ETHOX  H1161832   8.686  11.732  13.186  2.6579  0.6492 -2.6007
   35ETHOX  H1361833   8.724  11.559  13.145 -1.3983 -1.2514  1.8144
   35ETHOX   C261834   8.598  11.667  13.012  0.0896  0.3201  0.5271
   35ETHOX  H2161835   8.660  11.751  12.973  1.7553 -1.1283 -0.0854
   35ETHOX  H2361836   8.490  11.691  13.009 -0.2232 -1.0769 -0.3975
   36ETHOX   O161837   8.612  11.553  12.920  0.7960  0.3681 -0.1805
   36ETHOX   C161838   8.741  11.552  12.863  0.4108  0.1599 -0.5446
   36ETHOX  H1161839   8.817  11.531  12.942 -0.4140 -1.1622 -0.0764
   36ETHOX  H1361840   8.764  11.650  12.817  2.1242  0.2109  0.3337
   36ETHOX   C261841   8.756  11.446  12.761  0.0301  0.2184  0.2633
   36ETHOX  H2161842   8.712  11.354  12.803  0.2911  0.1732  0.4439
   36ETHOX  H2361843   8.859  11.437  12.720 -0.3592  0.2546 -0.7455
   37ETHOX   O161844   8.680  11.470  12.641  0.4310 -0.1014  0.0939
   37ETHOX   C161845   8.682  11.355  12.555 -0.5100  0.3573  0.3909
   37ETHOX  H1161846   8.786  11.339  12.521 -0.8561  3.1602 -2.3857
   37ETHOX  H1361847   8.638  11.263  12.600  1.1010 -0.5065  0.2664
   37ETHOX   C261848   8.592  11.375  12.427 -0.4032  0.4483 -0.3756
   37ETHOX  H2161849   8.618  11.471  12.379 -0.9758  1.1267  0.6332
   37ETHOX  H2361850   8.490  11.384  12.468  0.5646  0.1210  2.3444
   38ETHOX   O161851   8.597  11.266  12.329  0.0831 -0.0675 -0.6925
   38ETHOX   C161852   8.520  11.300  12.216  0.3329 -0.4042  0.4474
   38ETHOX  H1161853   8.587  11.357  12.149 -1.0246  1.0433  0.2571
   38ETHOX  H1361854   8.441  11.372  12.246  2.9122  2.1808  1.4872
   38ETHOX   C261855   8.449  11.181  12.152  0.0361 -0.2744 -0.8152
   38ETHOX  H2161856   8.392  11.223  12.065 -0.9022 -1.1305 -0.6335
   38ETHOX  H2361857   8.382  11.131  12.225  0.1697 -0.0353 -0.5329
   39ETHOX   O161858   8.540  11.079  12.097 -0.5429  0.3422  0.3010
   39ETHOX   C161859   8.566  10.969  12.193  0.5599 -0.4341  0.4030
   39ETHOX  H1161860   8.572  11.001  12.299 -1.1639 -0.5476  0.5688
   39ETHOX  H1361861   8.477  10.903  12.200 -0.2126  0.4453 -0.6001
   39ETHOX   C261862   8.690  10.891  12.157  0.6704 -0.5116 -0.1394
   39ETHOX  H2161863   8.720  10.832  12.246 -1.4317 -0.6068  0.5451
   39ETHOX  H2361864   8.773  10.962  12.134 -0.9110  0.9605 -1.5307
   40ETHOX   O161865   8.675  10.806  12.036 -0.8040  0.5064 -0.3709
   40ETHOX   C161866   8.651  10.875  11.923 -0.2713 -0.2464  0.2246
   40ETHOX  H1161867   8.724  10.959  11.929  1.3482 -1.6258  0.8589
   40ETHOX  H1361868   8.550  10.919  11.932  0.0265  0.0495  3.0179
   40ETHOX   C261869   8.659  10.806  11.789 -0.0805 -0.1844  0.5268
   40ETHOX  H2161870   8.756  10.758  11.765  0.4568 -0.7458  3.4322
   40ETHOX  H2361871   8.653  10.889  11.716  2.1541 -0.2848  0.1708
   41ETHOX   O161872   8.547  10.729  11.768  0.3419  0.2386  0.6097
   41ETHOX   C161873   8.565  10.639  11.660 -0.3286  0.2162 -0.1190
   41ETHOX  H1161874   8.590  10.707  11.575  0.3840 -0.1226 -0.1852
   41ETHOX  H1361875   8.653  10.577  11.686  1.3228  1.6597 -1.9340
   41ETHOX   C261876   8.448  10.553  11.625  0.3593  0.2484 -0.1178
   41ETHOX  H2161877   8.468  10.484  11.541 -0.5691  0.8197 -0.8250
   41ETHOX  H2361878   8.359  10.614  11.598  0.1792 -0.6192 -1.5696
   42ETHOX   O161879   8.406  10.476  11.740  0.5130  0.6393  0.6978
   42ETHOX   C161880   8.278  10.413  11.727 -0.0613  0.3123  0.3133
   42ETHOX  H1161881   8.198  10.485  11.698 -0.5352 -0.0543  0.6914
   42ETHOX  H1361882   8.264  10.335  11.649 -0.3236  0.3915  0.2785
   42ETHOX   C261883   8.233  10.342  11.858  0.8704  0.9421 -0.0359
   42ETHOX  H2161884   8.122  10.332  11.856  0.9555 -0.0446 -2.6250
   42ETHOX  H2361885   8.263  10.413  11.939  0.4143  0.2135  0.7824
   43ETHOX   O161886   8.278  10.207  11.873 -0.1363  0.1398  0.2746
   43ETHOX   C161887   8.212  10.111  11.789  0.5555  0.0084  0.0781
   43ETHOX  H1161888   8.102  10.124  11.790  0.7646  2.4065  2.1437
   43ETHOX  H1361889   8.247  10.122  11.684 -0.5572 -0.2635 -0.3355
   43ETHOX   C261890   8.260   9.975  11.848 -0.1974  0.1524  0.1716
   43ETHOX  H2161891   8.366   9.987  11.876 -0.4380 -1.1146  1.7159
   43ETHOX  H2361892   8.244   9.890  11.778 -0.7194 -1.0929  1.7484
   44ETHOX   O161893   8.179   9.946  11.955  0.4610  0.2337 -0.2644
   44ETHOX   C161894   8.199   9.816  12.006  0.4794  0.7067 -0.5126
   44ETHOX  H1161895   8.101   9.789  12.049  0.8542 -0.1099 -0.1416
   44ETHOX  H1361896   8.228   9.754  11.918  2.5410  1.8906 -0.7307
   44ETHOX   C261897   8.316   9.809  12.107  0.1951 -0.0814 -0.5539
   44ETHOX  H2161898   8.307   9.714  12.163  1.1644 -0.0797 -0.3717
   44ETHOX  H2361899   8.298   9.888  12.183  0.7274  0.4968 -1.0123
   45ETHOX   O161900   8.448   9.817  12.056  0.2908  0.0118 -0.2115
   45ETHOX   C161901   8.538   9.785  12.153  0.0612 -0.1043 -0.5610
   45ETHOX  H1161902   8.516   9.687  12.201 -1.0459 -0.0116 -0.8713
   45ETHOX  H1361903   8.535   9.858  12.236 -0.4687 -1.2339  0.4511
   45ETHOX   C261904   8.681   9.783  12.105  0.0372 -0.8428  0.1569
   45ETHOX  H2161905   8.746   9.785  12.195 -0.3584 -1.6256  0.4636
   45ETHOX  H2361906   8.691   9.877  12.046 -2.5099 -0.2827  0.4835
   46ETHOX   O161907   8.697   9.673  12.013  0.7056 -0.0051 -0.2586
   46ETHOX   C161908   8.742   9.560  12.082 -0.4242  0.0830  0.2752
   46ETHOX  H1161909   8.836   9.574  12.139  0.3294  2.8157 -1.4527
   46ETHOX  H1361910   8.670   9.523  12.158 -0.1074 -0.3426  0.3732
   46ETHOX   C261911   8.789   9.440  11.985  0.5183  0.4496  0.0462
   46ETHOX  H2161912   8.866   9.388  12.045  2.5362  1.2078 -1.7515
   46ETHOX  H2361913   8.840   9.487  11.898  1.5443 -2.6177 -1.1395
   47ETHOX   O161914   8.683   9.352  11.942  0.1111  0.0402  0.1175
   47ETHOX   C161915   8.747   9.263  11.852  0.5529  0.0101  0.2155
   47ETHOX  H1161916   8.841   9.221  11.894 -0.0854  0.4644  2.2262
   47ETHOX  H1361917   8.779   9.306  11.755 -1.0369 -0.5788 -0.6190
   47ETHOX   C261918   8.674   9.135  11.818  0.8967  0.6766 -0.4276
   47ETHOX  H2161919   8.714   9.079  11.731  0.0533 -3.0757  1.4058
   47ETHOX  H2361920   8.567   9.160  11.805  1.0672  2.9007  1.6312
   48ETHOX   O161921   8.692   9.051  11.929 -0.5834 -0.4243  0.1408
   48ETHOX   C161922   8.637   8.929  11.911  0.1758  0.1554 -0.0934
   48ETHOX  H1161923   8.527   8.943  11.918  0.2270  1.2959 -1.2726
   48ETHOX  H1361924   8.662   8.879  11.814  2.1393 -3.6354  2.1269
   48ETHOX   C261925   8.688   8.824  12.007 -0.1159  0.1753 -0.1254
   48ETHOX  H2161926   8.681   8.846  12.116  0.3771 -2.1666  0.4279
   48ETHOX  H2361927   8.634   8.727  11.995  0.6731 -0.4057  0.8331
   49ETHOX   O161928   8.826   8.797  11.981 -0.1600  0.3802  0.4358
   49ETHOX   C161929   8.889   8.731  12.090 -0.3677 -0.6049 -1.0220
   49ETHOX  H1161930   8.837   8.634  12.107 -3.1983  1.0392  0.4805
   49ETHOX  H1361931   8.894   8.805  12.173  0.5657 -2.1332  0.3321
   49ETHOX   C261932   9.034   8.703  12.054 -1.0419 -0.2527 -0.4281
   49ETHOX  H2161933   9.094   8.644  12.128 -1.8071 -0.9130 -0.3227
   49ETHOX  H2361934   9.098   8.793  12.039 -0.0431 -1.1336 -1.6662
   50ETHOX   O161935   9.040   8.624  11.942 -0.0517  0.1022  0.1502
   50ETHOX   C161936   9.160   8.633  11.866  0.4856  0.6379  0.3535
   50ETHOX  H1161937   9.176   8.737  11.828  0.4172  1.2793  1.9887
   50ETHOX  H1361938   9.237   8.610  11.942  1.5031  1.9183 -0.2558
   50ETHOX   C261939   9.169   8.534  11.748 -0.2105  0.2108 -0.2906
   50ETHOX  H2161940   9.256   8.559  11.684 -0.7106 -2.1541 -2.0395
   50ETHOX  H2361941   9.076   8.541  11.687 -1.5687  1.8583  1.8189
   51ETHOX   O161942   9.167   8.394  11.779  0.0160  0.2201 -0.4659
   51ETHOX   C161943   9.168   8.312  11.661 -0.0088 -0.1437 -0.3666
   51ETHOX  H1161944   9.098   8.353  11.585  1.8784  3.2307 -0.4777
   51ETHOX  H1361945   9.117   8.221  11.700  0.8753 -1.6291 -2.4784
   51ETHOX   C261946   9.307   8.291  11.601  0.1775 -0.6797 -0.0971
   51ETHOX  H2161947   9.373   8.380  11.601 -0.6866 -0.0224 -0.2585
   51ETHOX  H2361948   9.289   8.253  11.498 -2.2883  0.6283 -0.2410
   52ETHOX   O161949   9.364   8.185  11.675 -0.1132 -0.5285  0.3761
   52ETHOX   C161950   9.501   8.156  11.645  0.3377 -0.0542 -0.6255
   52ETHOX  H1161951   9.522   8.087  11.560  1.9314  0.6141 -0.8093
   52ETHOX  H1361952   9.552   8.253  11.622  1.3107 -0.9457 -2.4667
   52ETHOX   C261953   9.573   8.093  11.758 -0.2922 -0.3816 -0.6302
   52ETHOX  H2161954   9.678   8.067  11.732  0.2789  0.1862  0.9751
   52ETHOX  H2361955   9.521   8.000  11.790 -2.0306  0.5757 -0.5899
   53ETHOX   O161956   9.588   8.186  11.862  0.7519  0.1143 -0.0414
   53ETHOX   C161957   9.675   8.139  11.970  0.5241 -0.2517 -0.6549
   53ETHOX  H1161958   9.631   8.044  12.007 -0.4971  0.5713  0.3374
   53ETHOX  H1361959   9.777   8.117  11.933  0.2433 -0.9137 -1.0495
   53ETHOX   C261960   9.679   8.238  12.093  0.1482 -0.0119 -0.6175
   53ETHOX  H2161961   9.721   8.191  12.184  0.1176  0.3883 -0.3944
   53ETHOX  H2361962   9.575   8.274  12.108  0.1783 -0.5954  1.3053
   54ETHOX   O161963   9.757   8.356  12.062  0.2583 -0.3371 -0.7572
   54ETHOX   C161964   9.763   8.436  12.175  0.1491 -0.1305 -0.5872
   54ETHOX  H1161965   9.667   8.491  12.185  0.6691  0.5942  0.5787
   54ETHOX  H1361966   9.789   8.383  12.269 -0.8804 -2.1180 -1.3447
   54ETHOX   C261967   9.882   8.539  12.151  0.2544  0.3928 -0.0856
   54ETHOX  H2161968   9.889   8.628  12.217 -0.0828  0.5928 -0.3126
   54ETHOX  H2361969   9.872   8.580  12.048  1.6622 -0.6028 -0.6478
   55ETHOX   O161970  10.009   8.476  12.157 -0.2199  0.4944  0.4056
   55ETHOX   C161971  10.117   8.567  12.124  0.0678 -0.0915 -0.5918
   55ETHOX  H1161972  10.084   8.635  12.043 -1.6402  0.6406  0.6698
   55ETHOX  H1361973  10.149   8.631  12.209  1.0131 -0.1057 -0.9176
   55ETHOX   C261974  10.245   8.493  12.076  0.5673  0.0646 -0.2704
   55ETHOX  H2161975  10.289   8.430  12.157  1.7569  0.6790 -0.4035
   55ETHOX  H2361976  10.223   8.433  11.986  0.7077  0.0138 -0.2703
   56ETHOX   O161977  10.344   8.596  12.044  0.2887 -0.3638 -0.4298
   56ETHOX   C161978  10.317   8.677  11.926 -0.1151  0.2776  0.5815
   56ETHOX  H1161979  10.237   8.749  11.953 -0.3071 -0.4691  2.1112
   56ETHOX  H1361980  10.299   8.613  11.837  0.5422  0.7316  0.1153
   56ETHOX   C261981  10.434   8.770  11.883 -0.1137 -0.2556 -0.5848
   56ETHOX  H2161982  10.432   8.771  11.772 -0.2760 -0.9982 -0.5915
   56ETHOX  H2361983  10.529   8.725  11.920  1.4728  3.2610  0.0868
   57ETHOX   O161984  10.440   8.906  11.939 -0.1605  0.7852 -0.0706
   57ETHOX   C161985  10.537   8.979  11.872 -0.1070  0.5443 -0.2203
   57ETHOX  H1161986  10.639   8.944  11.898 -0.1915  1.9063  2.2528
   57ETHOX  H1361987  10.528   8.984  11.761  0.3188  0.8111 -0.2438
   57ETHOX   C261988  10.521   9.114  11.926 -0.3156 -0.5316  0.4447
   57ETHOX  H2161989  10.580   9.191  11.871 -2.2867 -0.5057 -1.7854
   57ETHOX  H2361990  10.545   9.121  12.034  1.3895 -2.3832  0.2544
   58ETHOX   O161991  10.384   9.155  11.903 -0.6501  0.8624 -0.0308
   58ETHOX   C161992  10.355   9.290  11.936  0.0282  0.4582  0.3243
   58ETHOX  H1161993  10.376   9.347  11.843 -0.4346  1.8998  1.0566
   58ETHOX  H1361994  10.425   9.324  12.016 -0.6705  0.1956  1.0598
   58ETHOX   C261995  10.213   9.313  11.990 -1.0248 -0.7507 -0.3301
   58ETHOX  H2161996  10.214   9.414  12.035 -0.2708 -0.3855 -1.1249
   58ETHOX  H2361997  10.199   9.235  12.068  1.1250 -0.1914  0.6729
   59ETHOX   O161998  10.115   9.310  11.886 -0.3919 -0.6377  0.4245
   59ETHOX   C161999   9.983   9.349  11.931 -0.8546 -0.3374 -0.8792
   59ETHOX  H1162000   9.959   9.307  12.031 -0.1808 -2.4311 -1.5398
   59ETHOX  H1362001   9.981   9.459  11.942 -1.7643 -0.0663 -3.2425
   59ETHOX   C262002   9.874   9.326  11.827  0.3625  0.3861 -0.0227
   59ETHOX  H2162003   9.920   9.342  11.727 -1.1879 -1.9345 -1.1909
   59ETHOX  H2362004   9.789   9.393  11.852 -0.6860 -0.7564 -0.4044
   60ETHOX   O162005   9.827   9.194  11.831  0.1949  0.6280 -0.3090
   60ETHOX   C162006   9.708   9.183  11.749  0.5984  0.0787 -0.4075
   60ETHOX  H1162007   9.733   9.195  11.642 -0.0111 -0.2618 -0.5930
   60ETHOX  H1362008   9.639   9.268  11.770  0.7796  0.3897 -1.0430
   60ETHOX   C262009   9.630   9.052  11.772 -0.0922 -0.1834  1.6038
   60ETHOX  H2162010   9.706   8.973  11.757  0.7303  0.6571  1.2837
   60ETHOX  H2362011   9.554   9.047  11.691 -1.6332 -0.2764  2.9890
   61ETHOX   O162012   9.575   9.040  11.898  0.4724 -0.6676 -0.3000
   61ETHOX   C162013   9.502   8.920  11.909  0.2153 -0.1215 -0.2926
   61ETHOX  H1162014   9.437   8.896  11.821 -0.9986  3.0457 -0.3811
   61ETHOX  H1362015   9.584   8.845  11.903  0.3782  0.0224  0.0940
   61ETHOX   C262016   9.420   8.917  12.038 -0.2772 -0.5076  0.1602
   61ETHOX  H2162017   9.481   8.954  12.123  2.2063 -0.5505 -1.5033
   61ETHOX  H2362018   9.391   8.812  12.062 -0.2251 -0.8546 -1.2351
   62ETHOX   O162019   9.306   8.993  12.016  0.6571  0.1118  0.1217
   62ETHOX   C162020   9.227   9.010  12.135 -0.9956 -0.1481 -0.4297
   62ETHOX  H1162021   9.284   9.079  12.201 -2.8120  0.6311  0.3997
   62ETHOX  H1362022   9.207   8.919  12.194  0.0145 -0.2641 -0.2614
   62ETHOX   C262023   9.094   9.067  12.093  0.1830 -0.0596  0.7732
   62ETHOX  H2162024   9.047   9.017  12.005 -0.7729  0.2591  1.0895
   62ETHOX  H2362025   9.094   9.177  12.076 -1.0832  0.0908  1.6218
   63ETHOX   O162026   9.004   9.048  12.205 -0.3352  0.2064  0.2467
   63ETHOX   C162027   8.870   9.085  12.176  0.1505 -0.6003  0.2465
   63ETHOX  H1162028   8.872   9.188  12.135  0.7973 -0.2820  1.0568
   63ETHOX  H1362029   8.849   9.019  12.089 -0.7439  0.5633 -0.4658
   63ETHOX   C262030   8.766   9.060  12.284  0.2014 -0.5739  0.1569
   63ETHOX  H2162031   8.761   8.955  12.319 -0.1305 -0.3627  0.7531
   63ETHOX  H2362032   8.668   9.073  12.232  0.7780 -1.2923 -1.1587
   64ETHOX   O162033   8.783   9.147  12.390  0.3250  0.2577  0.1070
   64ETHOX   C162034   8.718   9.278  12.373  0.3457  0.5842 -0.8768
   64ETHOX  H1162035   8.620   9.263  12.422  0.4438  0.2441 -0.7800
   64ETHOX  H1362036   8.695   9.308  12.268  2.5999  1.2611 -1.2469
   64ETHOX   C262037   8.787   9.389  12.445 -0.3142  0.3095 -0.2277
   64ETHOX  H2162038   8.820   9.365  12.548 -2.9635 -0.4533  0.5204
   64ETHOX  H2362039   8.719   9.477  12.460 -0.3912  0.1109  0.6758
   65ETHOX   O162040   8.884   9.450  12.364 -0.1721 -0.4874  0.1033
   65ETHOX   C162041   9.011   9.386  12.390 -0.5756 -0.2319  0.4179
   65ETHOX  H1162042   9.034   9.409  12.497  0.5844  1.2786 -0.1058
   65ETHOX  H1362043   9.011   9.276  12.381  0.8309 -0.1680 -0.7297
   65ETHOX   C262044   9.127   9.429  12.295 -0.5476  0.4920 -0.4881
   65ETHOX  H2162045   9.219   9.372  12.319 -0.1258  1.4477  0.2365
   65ETHOX  H2362046   9.154   9.535  12.314 -0.9143  0.4559  0.2740
   66ETHOX   O162047   9.097   9.405  12.161 -0.2413 -0.4300 -0.1655
   66ETHOX   C162048   9.192   9.475  12.079  0.4806  0.4313 -0.4064
   66ETHOX  H1162049   9.232   9.567  12.128 -2.9040  2.1626 -0.5408
   66ETHOX  H1362050   9.133   9.512  11.992 -1.9172  1.8439  1.6886
   66ETHOX   C262051   9.313   9.393  12.032 -0.2964  0.4263  0.5431
   66ETHOX  H2162052   9.338   9.434  11.932 -0.3766 -0.9013 -0.0436
   66ETHOX  H2362053   9.288   9.285  12.019  1.2469 -0.0909  1.6386
   67ETHOX   O162054   9.424   9.398  12.121 -0.5499 -0.2975 -0.0903
   67ETHOX   C162055   9.549   9.416  12.052 -0.1639 -0.1525 -0.3566
   67ETHOX  H1162056   9.539   9.378  11.948 -2.5010  2.4406 -1.2375
   67ETHOX  H1362057   9.560   9.526  12.039 -0.3544  0.6737  4.6154
   67ETHOX   C262058   9.666   9.371  12.140  0.3245  0.1583 -0.3782
   67ETHOX  H2162059   9.759   9.343  12.088  0.7532  1.1396 -0.1621
   67ETHOX  H2362060   9.634   9.281  12.197  1.5656 -0.5345 -0.7626
   68ETHOX   O162061   9.686   9.484  12.231  0.2730  0.6232  0.6240
   68ETHOX   C162062   9.791   9.453  12.320 -0.8761  0.2354  0.5859
   68ETHOX  H1162063   9.884   9.425  12.266 -0.1742  1.2891  1.2163
   68ETHOX  H1362064   9.829   9.541  12.375  1.1287 -0.5436  0.5298
   68ETHOX   C262065   9.767   9.351  12.431  0.2585 -0.4583 -0.6926
   68ETHOX  H2162066   9.856   9.331  12.494  0.1083 -0.7072 -0.5611
   68ETHOX  H2362067   9.739   9.249  12.397  0.5564 -0.9797  0.5929
   69ETHOX   O162068   9.667   9.393  12.526 -0.5391 -0.1987 -0.1282
   69ETHOX   C162069   9.543   9.385  12.456 -0.5393 -0.1506  0.3188
   69ETHOX  H1162070   9.519   9.466  12.384  0.8185  0.6040  0.6861
   69ETHOX  H1362071   9.535   9.292  12.396 -1.2787 -0.1590  0.4190
   69ETHOX   C262072   9.431   9.400  12.564  0.3309 -1.0729  0.2428
   69ETHOX  H2162073   9.337   9.418  12.506 -0.4013  0.4529  1.8259
   69ETHOX  H2362074   9.434   9.494  12.623 -1.9037  1.3252 -3.0731
   70ETHOX   O162075   9.422   9.284  12.646  0.4106  0.2085 -0.0207
   70ETHOX   C162076   9.316   9.297  12.735 -0.3855  0.3145 -0.2638
   70ETHOX  H1162077   9.349   9.372  12.810  1.6659  0.2209 -1.0142
   70ETHOX  H1362078   9.231   9.342  12.680  0.1948  0.7021 -0.8492
   70ETHOX   C262079   9.281   9.159  12.785  0.3352  0.2787 -0.2170
   70ETHOX  H2162080   9.372   9.104  12.819 -0.9238 -2.9121 -1.5474
   70ETHOX  H2362081   9.230   9.089  12.716  0.7731 -2.5256  2.0958
   71ETHOX   O162082   9.187   9.178  12.889  0.1821  0.2227 -0.2847
   71ETHOX   C162083   9.069   9.244  12.838 -0.4048 -0.0164 -0.9321
   71ETHOX  H1162084   9.058   9.203  12.735  1.9714  3.3555 -2.7013
   71ETHOX  H1362085   9.088   9.353  12.843  0.0399 -0.1491  0.6312
   71ETHOX   C262086   8.944   9.207  12.910  0.7082  0.5030 -0.0539
   71ETHOX  H2162087   8.862   9.278  12.885 -0.5282 -0.4851  1.0646
   71ETHOX  H2362088   8.954   9.219  13.020 -0.5576  1.3389 -0.0081
   72ETHOX   O162089   8.907   9.071  12.903  0.1076  0.4466 -0.4831
   72ETHOX   C162090   8.787   9.051  12.980 -0.9877  0.5449  0.1580
   72ETHOX  H1162091   8.816   9.064  13.087  1.6029 -0.8758 -0.2834
   72ETHOX  H1362092   8.708   9.126  12.959  0.3187  1.9605  0.1066
   72ETHOX   C262093   8.731   8.908  12.946 -0.1141 -0.3309  0.3277
   72ETHOX  H2162094   8.651   8.896  13.023 -2.5321  1.6277 -1.6967
   72ETHOX  H2362095   8.812   8.832  12.950  0.1506 -0.1893 -1.6376
   73ETHOX   O162096   8.677   8.908  12.816  1.0167 -0.0061 -0.2973
   73ETHOX   C162097   8.661   8.776  12.757 -0.6143 -0.2675  0.6303
   73ETHOX  H1162098   8.592   8.705  12.806 -1.2651 -0.5950 -0.7136
   73ETHOX  H1362099   8.761   8.728  12.752  0.4074  1.7439  0.6810
   73ETHOX   C262100   8.618   8.802  12.608 -0.5358 -0.1261 -0.1056
   73ETHOX  H2162101   8.606   8.696  12.574  2.5075 -0.7951  0.6179
   73ETHOX  H2362102   8.691   8.850  12.540  0.9765  0.5555  1.9134
   74ETHOX   O162103   8.492   8.867  12.600 -0.0603  0.6032 -0.4302
   74ETHOX   C162104   8.444   8.884  12.468  0.0136 -0.3124  0.0592
   74ETHOX  H1162105   8.509   8.957  12.415 -0.6085  1.3105  1.4368
   74ETHOX  H1362106   8.440   8.786  12.416  1.0414 -0.3464  0.0293
   74ETHOX   C262107   8.298   8.939  12.465  0.6870 -0.2902  0.6544
   74ETHOX  H2162108   8.302   9.025  12.535 -2.1988  1.0383 -0.6447
   74ETHOX  H2362109   8.224   8.861  12.493 -0.4373 -0.4602 -2.4871
   75ETHOX   O162110   8.273   9.008  12.343  0.0192 -0.2838 -0.2503
   75ETHOX   C162111   8.246   8.911  12.243  0.2364  0.2542 -0.4023
   75ETHOX  H1162112   8.195   8.825  12.291 -0.1461 -0.3645 -1.8312
   75ETHOX  H1362113   8.344   8.869  12.213 -0.5096  0.3323 -3.2784
   75ETHOX   C262114   8.172   8.958  12.118 -0.2841  0.7273  0.2266
   75ETHOX  H2162115   8.081   9.020  12.135  0.3275  2.3206 -1.9512
   75ETHOX  H2362116   8.137   8.863  12.073  0.1025  0.2877  0.8238
   76ETHOX   O162117   8.246   9.035  12.029 -0.3998  0.1868  0.0260
   76ETHOX   C162118   8.183   9.057  11.897 -0.3403  0.5334 -0.4329
   76ETHOX  H1162119   8.127   8.969  11.857  1.5979 -0.6363 -0.6750
   76ETHOX  H1362120   8.106   9.135  11.915 -2.1324 -1.2372 -0.0881
   76ETHOX   C262121   8.285   9.093  11.783  0.5190 -0.5746 -0.6432
   76ETHOX  H2162122   8.355   9.168  11.825 -1.2232  0.1764  1.1352
   76ETHOX  H2362123   8.239   9.132  11.690 -2.9237  0.9415  1.4468
   77ETHOX   O162124   8.373   8.990  11.739  0.0308 -0.5730  0.1581
   77ETHOX   C162125   8.305   8.896  11.665  0.1769  0.2315  0.5726
   77ETHOX  H1162126   8.272   8.950  11.573  0.6182 -1.6486 -0.7543
   77ETHOX  H1362127   8.216   8.858  11.720 -1.0436 -2.3627 -2.8460
   77ETHOX   C262128   8.398   8.784  11.627 -0.1708  0.5477  0.5153
   77ETHOX  H2162129   8.501   8.818  11.603  0.6027 -1.4215  0.8915
   77ETHOX  H2362130   8.357   8.728  11.540 -2.9499  0.3745  1.8256
   78ETHOX   O162131   8.421   8.686  11.739 -0.3954  0.0071  0.5826
   78ETHOX   C162132   8.498   8.575  11.698 -0.6716  0.4863 -0.1465
   78ETHOX  H1162133   8.475   8.486  11.760 -1.4143  1.3373  0.8569
   78ETHOX  H1362134   8.484   8.557  11.589 -2.3290  2.2658 -0.3055
   78ETHOX   C262135   8.655   8.608  11.703  0.1656 -0.5187  0.0075
   78ETHOX  H2162136   8.700   8.506  11.699 -0.5813 -0.8576 -0.0537
   78ETHOX  H2362137   8.675   8.644  11.806  0.0496 -0.9157  0.1742
   79ETHOX   O162138   8.706   8.699  11.607  0.1353  0.1125 -0.0829
   79ETHOX   C162139   8.844   8.726  11.627 -0.2597  0.6436 -0.2277
   79ETHOX  H1162140   8.851   8.751  11.735  0.7803  3.4095 -0.8294
   79ETHOX  H1362141   8.902   8.634  11.609  2.4974  2.5937 -2.1607
   79ETHOX   C262142   8.887   8.841  11.544 -0.6443 -0.6023  1.1464
   79ETHOX  H2162143   8.814   8.917  11.508  3.0208  2.8434  0.2690
   79ETHOX  H2362144   8.924   8.802  11.447 -0.4206  1.4301  0.3683
   80ETHOX   O162145   8.992   8.906  11.610 -0.0845 -0.4082 -0.0645
   80ETHOX   C162146   9.115   8.876  11.549  0.3644  0.2860 -0.3742
   80ETHOX  H1162147   9.123   8.766  11.563 -0.1910  0.6284  4.4889
   80ETHOX  H1362148   9.112   8.911  11.444  0.2923 -0.0331 -0.4800
   80ETHOX   C262149   9.228   8.947  11.612 -0.0324  0.4017 -0.5664
   80ETHOX  H2162150   9.329   8.909  11.588  0.3697  1.2483 -0.2427
   80ETHOX  H2362151   9.232   8.945  11.723 -0.3794  0.4093 -0.5505
   81ETHOX   O162152   9.224   9.081  11.570 -0.3832  0.4405  0.9156
   81ETHOX   C162153   9.215   9.169  11.677  0.0085 -0.2103  0.0084
   81ETHOX  H1162154   9.122   9.158  11.737 -0.3907 -0.6683 -0.6843
   81ETHOX  H1362155   9.296   9.142  11.748 -0.5368 -1.6183  0.1093
   81ETHOX   C262156   9.236   9.319  11.642 -0.0601  0.7554 -0.7160
   81ETHOX  H2162157   9.265   9.362  11.740  3.4501 -3.0487  0.2349
   81ETHOX  H2362158   9.319   9.324  11.568  0.7059 -1.6207 -0.1336
   82ETHOX   O162159   9.120   9.378  11.591  0.2086 -0.2712  0.3126
   82ETHOX   C162160   9.076   9.334  11.469  0.3676 -0.6066  0.4402
   82ETHOX  H1162161   9.021   9.239  11.485 -0.1072 -0.1032  2.0098
   82ETHOX  H1362162   9.167   9.312  11.410  0.4055 -1.8695  0.9376
   82ETHOX   C262163   8.977   9.423  11.392  0.3283  0.0774 -0.2388
   82ETHOX  H2162164   8.965   9.386  11.288 -0.2483 -1.2219  0.2588
   82ETHOX  H2362165   9.024   9.523  11.386  2.1852 -0.7511 -0.1387
   83ETHOX   O162166   8.845   9.426  11.443  0.3639  0.3963  0.1344
   83ETHOX   C162167   8.770   9.533  11.392  0.0283  0.2115  0.2767
   83ETHOX  H1162168   8.823   9.630  11.400 -0.9025  0.8754 -1.2214
   83ETHOX  H1362169   8.760   9.507  11.284 -1.8704  0.9979  0.2179
   83ETHOX   C262170   8.631   9.533  11.439  0.7721 -0.4227  0.0138
   83ETHOX  H2162171   8.568   9.623  11.424  1.1187  0.1984  2.0985
   83ETHOX  H2362172   8.616   9.520  11.548 -0.9669 -1.0885 -0.2544
   84ETHOX   O162173   8.551   9.433  11.383  1.2267  0.1566 -0.1836
   84ETHOX   C162174   8.441   9.388  11.467 -0.9198  0.3795 -0.5572
   84ETHOX  H1162175   8.378   9.478  11.481 -1.1319  0.4096 -1.6486
   84ETHOX  H1362176   8.485   9.344  11.559  0.3544  0.6364 -1.0250
   84ETHOX   C262177   8.355   9.292  11.383 -0.9628  0.1296  0.2332
   84ETHOX  H2162178   8.333   9.334  11.282 -2.5456 -0.3455  0.3512
   84ETHOX  H2362179   8.259   9.272  11.435 -1.4245  0.7861 -0.3399
   85ETHOX   O162180   8.435   9.171  11.372  0.4856  0.3537  0.6188
   85ETHOX   C162181   8.362   9.078  11.295 -0.0770 -0.5099 -0.8033
   85ETHOX  H1162182   8.280   9.028  11.351 -1.5435  2.3223 -0.2375
   85ETHOX  H1362183   8.315   9.132  11.210  1.9485  0.1481 -1.5644
   85ETHOX   C262184   8.451   8.963  11.231 -0.6902 -0.7307 -0.1900
   85ETHOX  H2162185   8.379   8.891  11.186 -1.1627 -1.4987  1.6877
   85ETHOX  H2362186   8.511   8.913  11.310 -2.3936 -1.2569  0.8263
   86ETHOX   O162187   8.528   9.027  11.136 -0.4344 -0.2959 -0.7451
   86ETHOX   C162188   8.645   8.954  11.098 -0.0955  0.1722  0.2251
   86ETHOX  H1162189   8.605   8.854  11.072 -1.0704  0.8243 -0.8898
   86ETHOX  H1362190   8.709   8.959  11.188 -0.2865 -1.8083  0.5071
   86ETHOX   C262191   8.726   9.029  10.980  0.3074  0.0066  0.4683
   86ETHOX  H2162192   8.810   8.964  10.947  2.1360  2.5621 -0.2202
   86ETHOX  H2362193   8.782   9.118  11.016  0.8225  1.2239 -2.9713
   87ETHOX   O162194   8.655   9.071  10.860 -0.4857 -0.2995  0.2034
   87ETHOX   C162195   8.625   8.958  10.779  0.2011  0.4288 -0.1254
   87ETHOX  H1162196   8.723   8.916  10.749  0.8407  2.3612 -0.8887
   87ETHOX  H1362197   8.569   8.888  10.844  0.3003  1.3434  0.9853
   87ETHOX   C262198   8.546   8.989  10.651 -0.5089 -0.1666 -0.1564
   87ETHOX  H2162199   8.550   8.905  10.579 -1.0757  1.0777 -1.7026
   87ETHOX  H2362200   8.600   9.070  10.597  1.2241  0.0599  1.7832
   88ETHOX   O162201   8.409   9.008  10.657  0.9138 -0.4972  0.4727
   88ETHOX   C162202   8.365   9.120  10.582 -0.1504  0.1508  0.1502
   88ETHOX  H1162203   8.429   9.136  10.492  0.6539  1.0641  0.8618
   88ETHOX  H1362204   8.388   9.204  10.651  0.2657 -0.2340  0.4858
   88ETHOX   C262205   8.225   9.100  10.531 -0.6269  0.1763 -0.2048
   88ETHOX  H2162206   8.192   9.198  10.490  1.0576  1.6016  1.6403
   88ETHOX  H2362207   8.150   9.074  10.609 -1.0487  1.1912 -0.2496
   89ETHOX   O162208   8.216   9.006  10.426  0.0650 -0.2002  0.0200
   89ETHOX   C162209   8.085   8.990  10.382  0.0313  0.4742  0.2300
   89ETHOX  H1162210   8.026   8.938  10.461 -0.7339  2.2269  0.8795
   89ETHOX  H1362211   8.022   9.081  10.371  0.3049  0.3899 -2.7161
   89ETHOX   C262212   8.066   8.907  10.258 -0.6095 -0.0931 -0.0747
   89ETHOX  H2162213   7.966   8.860  10.256 -0.8356  0.0035  3.2172
   89ETHOX  H2362214   8.128   8.816  10.272  0.5673  0.6826 -0.0597
   90ETHOX   O162215   8.094   8.970  10.130 -0.4422  0.1148 -0.0019
   90ETHOX   C162216   8.239   8.988  10.118  0.3295 -0.4259  0.6265
   90ETHOX  H1162217   8.269   9.072  10.184 -0.3105  2.4561 -2.4472
   90ETHOX  H1362218   8.284   8.889  10.140 -3.5229 -2.2609  1.1161
   90ETHOX   C262219   8.296   9.047   9.981  0.2569 -0.3090  0.5716
   90ETHOX  H2162220   8.257   8.973   9.908 -0.6223  1.1230 -0.4589
   90ETHOX  H2362221   8.407   9.045   9.992  0.7630 -1.8543 -3.1855
   91ETHOX   O162222   8.257   9.181   9.947  0.1225 -0.0962  0.4743
   91ETHOX   C162223   8.282   9.216   9.810 -0.3505  0.3858 -0.6026
   91ETHOX  H1162224   8.388   9.207   9.780 -0.3944 -1.1103 -0.3977
   91ETHOX  H1362225   8.229   9.155   9.734  3.5594 -1.3295 -2.2106
   91ETHOX   C262226   8.232   9.360   9.785 -0.6735 -0.1449  0.5598
   91ETHOX  H2162227   8.148   9.375   9.856  0.7211  2.3981  1.8069
   91ETHOX  H2362228   8.196   9.363   9.680  1.2022 -0.1452 -0.1196
   92ETHOX   O162229   8.321   9.466   9.811 -0.0902  0.1270  0.3435
   92ETHOX   C162230   8.260   9.593   9.794 -0.1127  0.7230 -0.1381
   92ETHOX  H1162231   8.220   9.593   9.691  0.5047  0.6335 -0.3819
   92ETHOX  H1362232   8.168   9.603   9.856 -1.5594 -1.5555 -1.7674
   92ETHOX   C262233   8.364   9.708   9.820 -0.0077  0.5220 -0.1317
   92ETHOX  H2162234   8.315   9.807   9.810  1.5408  1.1351 -2.7695
   92ETHOX  H2362235   8.432   9.702   9.732  0.6826  0.8890  0.3678
   93ETHOX   O162236   8.429   9.698   9.947 -0.0144  0.8092 -0.3282
   93ETHOX   C162237   8.481   9.821   9.983  0.1622 -0.5095 -0.6622
   93ETHOX  H1162238   8.414   9.910   9.973 -0.2873 -0.6950  0.5633
   93ETHOX  H1362239   8.561   9.842   9.909 -0.2543  2.9069 -0.3247
   93ETHOX   C262240   8.553   9.810  10.115 -0.2451 -0.3232 -0.0919
   93ETHOX  H2162241   8.619   9.900  10.114 -1.7281  0.8939 -3.2513
   93ETHOX  H2362242   8.618   9.722  10.130  1.7445  1.0268 -0.3689
   94ETHOX   O162243   8.452   9.822  10.226  0.0132  0.1292 -0.5243
   94ETHOX   C162244   8.536   9.841  10.348  0.0742  0.3465 -0.5001
   94ETHOX  H1162245   8.607   9.759  10.372 -2.4902 -2.1706 -0.8968
   94ETHOX  H1362246   8.598   9.933  10.353  1.6147 -0.5764 -1.7421
   94ETHOX   C262247   8.446   9.822  10.468 -0.4002 -0.2125  0.1374
   94ETHOX  H2162248   8.354   9.884  10.459 -1.2956 -1.1655  2.1619
   94ETHOX  H2362249   8.492   9.860  10.562 -1.2869  1.0265  0.0995
   95ETHOX   O162250   8.410   9.682  10.482 -0.1145  0.3712 -0.5255
   95ETHOX   C162251   8.322   9.649  10.586  0.0233  0.2385  0.3271
   95ETHOX  H1162252   8.219   9.685  10.564  0.4015  0.5392 -1.0148
   95ETHOX  H1362253   8.362   9.702  10.675 -0.6209  1.9967 -0.3700
   95ETHOX   C262254   8.324   9.495  10.601  0.0808  0.2473  0.0490
   95ETHOX  H2162255   8.331   9.437  10.506 -2.8175  0.3028 -0.3002
   95ETHOX  H2362256   8.228   9.461  10.646 -1.1325  0.8701 -1.9569
   96ETHOX   O162257   8.423   9.467  10.698 -0.4188 -0.0622 -0.0655
   96ETHOX   C162258   8.552   9.456  10.639  0.2701 -0.6143 -0.2692
   96ETHOX  H1162259   8.536   9.391  10.550 -1.6234  0.4488 -0.7579
   96ETHOX  H1362260   8.598   9.549  10.600  0.0379 -0.3559  0.0781
   96ETHOX   C262261   8.645   9.387  10.733 -0.8028  0.2378 -0.9030
   96ETHOX  H2162262   8.726   9.352  10.665  1.4626  0.5298  1.4725
   96ETHOX  H2362263   8.604   9.295  10.778  2.0005 -0.5174  0.2847
   97ETHOX   O162264   8.703   9.474  10.824  0.0281  0.2902 -0.3724
   97ETHOX   C162265   8.785   9.401  10.915  0.3267  0.2757 -0.9267
   97ETHOX  H1162266   8.739   9.303  10.940 -0.6461  0.9035 -0.1584
   97ETHOX  H1362267   8.802   9.457  11.010  0.0080  1.7134 -1.6926
   97ETHOX   C262268   8.917   9.364  10.845  0.1281 -0.1525  0.0406
   97ETHOX  H2162269   8.896   9.303  10.755 -0.1436 -3.8988  2.3986
   97ETHOX  H2362270   8.969   9.298  10.918 -1.9362  0.3246  2.0791
   98ETHOX   O162271   8.990   9.486  10.832  0.0818  0.0149  0.2563
   98ETHOX   C162272   9.123   9.475  10.775  0.1458 -0.2980  0.2585
   98ETHOX  H1162273   9.120   9.392  10.702 -2.0100 -0.8662  0.9081
   98ETHOX  H1362274   9.148   9.567  10.719  2.8210 -1.6676 -0.9824
   98ETHOX   C262275   9.231   9.458  10.886 -0.6065  0.1797 -0.5386
   98ETHOX  H2162276   9.330   9.430  10.843  0.4184  0.0112  1.7753
   98ETHOX  H2362277   9.199   9.381  10.960 -2.2035  0.4501 -0.9114
   99ETHOX   O162278   9.245   9.589  10.947 -0.5062  0.1931 -0.5400
   99ETHOX   C162279   9.340   9.604  11.059 -0.5102  0.2634  0.7212
   99ETHOX  H1162280   9.442   9.575  11.025 -0.9534  1.4473 -1.8832
   99ETHOX  H1362281   9.307   9.542  11.144 -3.6462 -0.4366 -0.8486
   99ETHOX   C262282   9.339   9.750  11.109  0.1398 -0.4217 -1.3331
   99ETHOX  H2162283   9.354   9.817  11.022  0.5035 -0.4089 -1.2613
   99ETHOX  H2362284   9.423   9.761  11.181 -1.4575  0.3608  0.5051
  100ETHOX   O162285   9.216   9.770  11.168 -0.0438  0.4458  0.2328
  100ETHOX   C162286   9.205   9.901  11.220  0.6564  0.3917 -0.4087
  100ETHOX  H1162287   9.298   9.940  11.266 -0.6601  2.8916  0.3601
  100ETHOX  H1362288   9.196   9.966  11.131  0.2712  0.4766 -0.3119
  100ETHOX   C262289   9.080   9.918  11.315 -0.8865  1.4674 -0.7992
  100ETHOX  H2162290   8.976   9.912  11.278 -1.0129 -2.5188 -0.2917
  100ETHOX  H2362291   9.099  10.022  11.348  0.0598  0.7392  1.1827
  101PROXS   O162292   9.096   9.835  11.432  0.1279  0.5574  0.2725
  101PROXS   C162293   8.983   9.851  11.513 -0.2808 -0.0764 -0.2535
  101PROXS  H1162294   8.964   9.959  11.527 -2.0903 -0.4106  0.1256
  101PROXS  H1362295   8.903   9.804  11.452  1.4530 -3.0954 -0.4144
  101PROXS   C262296   8.997   9.774  11.646  0.0370 -0.2494 -0.1456
  101PROXS  H2162297   9.033   9.671  11.629 -1.1826 -0.8193  0.5758
  101PROXS   C362298   8.854   9.766  11.708  0.0267  0.4701  0.2636
  101PROXS  H3162299   8.805   9.680  11.658  0.5625  0.5360 -0.3919
  101PROXS  H3262300   8.855   9.752  11.818  0.9365 -0.7782  0.1233
  101PROXS  H3362301   8.805   9.863  11.686  1.5641  1.0497 -0.8057
  102PROXS   O162302   9.090   9.849  11.727  0.1367  0.3546 -0.0022
  102PROXS   C162303   9.131   9.774  11.845 -0.5245  0.3340 -0.2154
  102PROXS  H1162304   9.063   9.793  11.930 -0.5678  0.3583 -0.2547
  102PROXS  H1362305   9.133   9.662  11.844  0.4571  0.2386  2.7977
  102PROXS   C262306   9.278   9.809  11.880  0.3409  0.2127  0.0393
  102PROXS  H2162307   9.293   9.917  11.861 -1.7729  0.8473  1.6538
  102PROXS   C362308   9.379   9.714  11.810  0.2197 -0.5663 -0.7229
  102PROXS  H3162309   9.478   9.760  11.828 -0.8468  1.4692  0.1969
  102PROXS  H3262310   9.399   9.615  11.858  3.3008 -0.1590 -0.9490
  102PROXS  H3362311   9.362   9.685  11.704  0.1483 -0.5574 -0.7143
  103PROXR   O162312   9.294   9.774  12.019  0.0351 -0.0096  0.5385
  103PROXR   C162313   9.397   9.860  12.083  0.4456  0.4928 -0.2319
  103PROXR  H1162314   9.484   9.879  12.016 -0.7629  1.3888 -1.5939
  103PROXR  H1362315   9.347   9.956  12.107 -1.3323 -0.7614  1.4247
  103PROXR   C262316   9.441   9.800  12.218 -0.4008 -0.9242 -0.2281
  103PROXR  H2162317   9.479   9.702  12.185 -0.8705 -1.2584  0.2075
  103PROXR   C362318   9.342   9.777  12.330 -0.0135  0.1708 -0.2655
  103PROXR  H3162319   9.354   9.675  12.373 -0.6399 -0.1147 -0.7643
  103PROXR  H3262320   9.357   9.864  12.399 -0.4052  0.6819 -0.8209
  103PROXR  H3362321   9.236   9.779  12.300  0.6335  2.2406 -2.8397
  104PROXS   O162322   9.546   9.885  12.259 -0.6121 -0.1918  0.3979
  104PROXS   C162323   9.654   9.802  12.310 -0.4319 -0.6160  0.2191
  104PROXS  H1162324   9.612   9.726  12.379 -1.2060 -0.5464 -0.1697
  104PROXS  H1362325   9.706   9.741  12.233  0.7841  0.3327  0.2555
  104PROXS   C262326   9.756   9.891  12.381  0.5007  0.3059 -0.3585
  104PROXS  H2162327   9.686   9.930  12.458  1.3082  0.1292  0.4902
  104PROXS   C362328   9.811  10.002  12.293  0.4467 -0.3851  0.5486
  104PROXS  H3162329   9.868   9.956  12.208 -0.4249 -3.2587  1.4187
  104PROXS  H3262330   9.737  10.063  12.237  2.5322  2.6516  0.8188
  104PROXS  H3362331   9.868  10.078  12.351 -0.1695  0.1920  0.4167
  105PROXS   O162332   9.850   9.807  12.444 -0.3435  0.3248  0.3833
  105PROXS   C162333   9.909   9.872  12.557 -0.3080  0.1653 -0.1395
  105PROXS  H1162334   9.958   9.964  12.520 -3.5962  1.1433 -2.5543
  105PROXS  H1362335   9.827   9.915  12.619 -2.3686 -2.3256 -0.9089
  105PROXS   C262336   9.994   9.782  12.654 -0.4724  0.7181 -0.3050
  105PROXS  H2162337  10.069   9.730  12.591  0.7634  2.5632 -0.4267
  105PROXS   C362338   9.904   9.673  12.715 -0.2929 -0.0623 -0.8342
  105PROXS  H3162339   9.963   9.609  12.783 -2.9246 -0.4428  1.2530
  105PROXS  H3262340   9.813   9.711  12.767 -2.3576 -2.9547 -2.0347
  105PROXS  H3362341   9.865   9.604  12.636 -0.9496  0.0755 -0.6377
  106PROXS   O162342  10.064   9.858  12.752  0.1530  0.5727  0.3062
  106PROXS   C162343  10.168   9.936  12.688  0.1891 -0.3624  0.0059
  106PROXS  H1162344  10.253   9.867  12.669 -0.3189 -1.6861  2.2355
  106PROXS  H1362345  10.133   9.984  12.594  1.3571 -0.0619 -0.2949
  106PROXS   C262346  10.205  10.056  12.784  0.1465  0.3946  1.1898
  106PROXS  H2162347  10.214  10.003  12.881  0.5752 -0.0324  0.9239
  106PROXS   C362348  10.093  10.166  12.795 -0.0770 -0.2067  0.4384
  106PROXS  H3162349  10.083  10.234  12.707 -1.6203  2.0977  2.2440
  106PROXS  H3262350   9.990  10.124  12.806 -1.7290  2.5014 -2.5927
  106PROXS  H3362351  10.115  10.230  12.883  0.1285 -1.9873  1.7401
  107PROXR   O162352  10.329  10.111  12.740 -0.1386  0.0906  0.0703
  107PROXR   C162353  10.383  10.222  12.818 -0.1557  0.1481  0.3182
  107PROXR  H1162354  10.313  10.308  12.808  0.6558  0.6455 -1.7644
  107PROXR  H1362355  10.390  10.193  12.925 -1.6498 -0.1331  0.3602
  107PROXR   C262356  10.527  10.256  12.767 -0.2147 -0.5291  0.0280
  107PROXR  H2162357  10.524  10.281  12.659  2.9163  2.1664  0.3945
  107PROXR   C362358  10.615  10.130  12.779 -0.0237 -0.1693  0.1350
  107PROXR  H3162359  10.635  10.112  12.887 -0.7881  0.6921  0.4412
  107PROXR  H3262360  10.558  10.047  12.733 -1.3647  1.1367 -0.6569
  107PROXR  H3362361  10.716  10.148  12.737 -0.3607  0.6402 -0.3407
  108PROXS   O162362  10.590  10.360  12.842 -0.1218 -0.2391 -0.2201
  108PROXS   C162363  10.540  10.485  12.795  0.9010 -0.1092 -0.0518
  108PROXS  H1162364  10.516  10.490  12.686  0.7571  0.5235  0.0060
  108PROXS  H1362365  10.440  10.502  12.839  0.3890 -3.8836  0.6302
  108PROXS   C262366  10.628  10.608  12.824  0.0598  0.3780 -0.3874
  108PROXS  H2162367  10.719  10.570  12.773 -0.3714 -1.8914  0.4249
  108PROXS   C362368  10.654  10.627  12.972  0.3743 -0.0985 -0.4187
  108PROXS  H3162369  10.709  10.721  12.990 -1.7069  0.9557  0.7718
  108PROXS  H3262370  10.551  10.642  13.011  1.1601  2.6900  0.8170
  108PROXS  H3362371  10.695  10.537  13.024  0.8186  0.2923 -0.0830
  109PROXS   O162372  10.571  10.723  12.759 -0.6241 -0.0853  0.9494
  109PROXS   C162373  10.670  10.825  12.722 -0.5853 -0.8084  0.1399
  109PROXS  H1162374  10.721  10.862  12.813 -1.3980 -2.0691  1.1558
  109PROXS  H1362375  10.744  10.780  12.652 -2.5918 -1.5023 -1.6544
  109PROXS   C262376  10.602  10.946  12.655  0.5336 -0.1905 -0.5031
  109PROXS  H2162377  10.521  10.985  12.720 -0.9850 -1.5750 -1.5107
  109PROXS   C362378  10.537  10.912  12.521  0.3624  0.5035 -0.0406
  109PROXS  H3162379  10.460  10.833  12.537  1.4526 -0.7959 -0.9557
  109PROXS  H3262380  10.496  11.004  12.474  0.9735  0.0859 -1.4565
  109PROXS  H3362381  10.612  10.865  12.453  0.7455  0.6881  0.2519
  110PROXR   O162382  10.698  11.042  12.624 -0.9149  0.0038 -0.1028
  110PROXR   C162383  10.722  11.127  12.737  1.3029  0.4339  0.7660
  110PROXR  H1162384  10.638  11.200  12.733  0.8446 -0.1362 -0.3235
  110PROXR  H1362385  10.720  11.072  12.833  0.0767 -0.2569  0.3680
  110PROXR   C262386  10.854  11.199  12.724  0.0848  0.6289 -1.2029
  110PROXR  H2162387  10.829  11.286  12.788 -1.0845 -0.1814 -0.5214
  110PROXR   C362388  10.894  11.264  12.584  0.1309  0.0836  0.1290
  110PROXR  H3162389  11.000  11.297  12.577  0.4442 -0.9757 -0.3746
  110PROXR  H3262390  10.862  11.197  12.502 -3.4830  0.2623  1.2252
  110PROXR  H3362391  10.825  11.351  12.577  2.6707  2.2530  0.5271
  111PROXS   O162392  10.958  11.116  12.790 -0.2174 -0.2734  0.0317
  111PROXS   C162393  11.004  11.006  12.706  0.0923 -0.5671 -0.0104
  111PROXS  H1162394  10.919  10.946  12.665  1.1614 -1.5815 -0.7954
  111PROXS  H1362395  11.056  11.040  12.614 -0.3634  0.9684  0.2694
  111PROXS   C262396  11.094  10.914  12.792 -0.5718 -0.4762  0.1117
  111PROXS  H2162397  11.165  10.984  12.842 -2.1900  2.0992 -0.9770
  111PROXS   C362398  11.168  10.815  12.698 -0.6382 -0.0505 -0.2486
  111PROXS  H3162399  11.242  10.749  12.747 -1.5708 -0.4794  0.5987
  111PROXS  H3262400  11.095  10.749  12.647 -1.1417 -0.2675  0.7475
  111PROXS  H3362401  11.234  10.872  12.629  0.7567 -2.4340 -0.9822
  112PROXR   O162402  11.018  10.848  12.895 -0.0558  0.0119 -0.6347
  112PROXR   C162403  11.103  10.783  12.993  0.4787  0.0021  0.3223
  112PROXR  H1162404  11.161  10.695  12.957  0.1473 -1.7873  3.7434
  112PROXR  H1362405  11.176  10.858  13.028  0.7646 -0.4698  0.7583
  112PROXR   C262406  11.024  10.749  13.116 -0.2799 -0.3362 -0.8169
  112PROXR  H2162407  10.938  10.682  13.094 -0.9843 -0.0004  0.7978
  112PROXR   C362408  10.962  10.885  13.162 -0.2002 -0.0675 -0.3440
  112PROXR  H3162409  11.038  10.966  13.157 -0.0389 -0.2167 -0.3226
  112PROXR  H3262410  10.874  10.911  13.099  0.6840  3.8591 -0.1965
  112PROXR  H3362411  10.938  10.867  13.269  1.2640 -0.5288 -0.0642
  113PROXS   O162412  11.108  10.693  13.227 -0.0618 -0.6102 -0.2800
  113PROXS   C162413  11.121  10.553  13.201 -0.0048  0.5256 -0.4845
  113PROXS  H1162414  11.024  10.501  13.215  0.2127 -1.1601 -4.1474
  113PROXS  H1362415  11.154  10.537  13.096 -0.5645 -0.1126 -0.5661
  113PROXS   C262416  11.223  10.494  13.301 -0.9236 -1.0414 -1.3242
  113PROXS  H2162417  11.195  10.499  13.409  2.5291  1.1047 -0.3671
  113PROXS   C362418  11.354  10.563  13.290  0.7960  0.3891 -0.1503
  113PROXS  H3162419  11.352  10.667  13.330 -2.2397 -0.2181  1.5953
  113PROXS  H3262420  11.443  10.508  13.328 -2.5940 -3.6325  2.8220
  113PROXS  H3362421  11.372  10.570  13.181 -2.1219  3.0913 -0.6043
  114PROXR   O162422  11.258  10.354  13.281 -0.2744  0.4498 -0.8225
  114PROXR   C162423  11.150  10.264  13.320 -0.0990  0.0066  0.2115
  114PROXR  H1162424  11.090  10.303  13.404 -0.6264  2.0208 -1.0304
  114PROXR  H1362425  11.078  10.286  13.239  0.6469  1.7802 -0.0101
  114PROXR   C262426  11.189  10.115  13.320  0.4116  0.2469  0.0547
  114PROXR  H2162427  11.275  10.101  13.388 -0.6690 -0.3293  1.3368
  114PROXR   C362428  11.220  10.063  13.182  0.0721 -0.0672 -0.4445
  114PROXR  H3162429  11.238   9.954  13.190  0.3406 -0.1766 -2.1648
  114PROXR  H3262430  11.134  10.086  13.114  0.3193  1.7328 -0.1980
  114PROXR  H3362431  11.314  10.110  13.148  0.4366 -1.9282 -2.2142
  115PROXR   O162432  11.081  10.041  13.381  0.0576  0.6394 -0.4042
  115PROXR   C162433  11.110   9.957  13.497  0.2538  0.6241 -0.2676
  115PROXR  H1162434  11.196   9.892  13.471  0.4792  0.6775  0.3352
  115PROXR  H1362435  11.154  10.011  13.584 -1.6786  0.7874  0.6552
  115PROXR   C262436  10.991   9.867  13.544 -0.0900  0.5677  0.0151
  115PROXR  H2162437  10.900   9.928  13.521 -1.3163 -0.7829  1.0786
  115PROXR   C362438  10.979   9.804  13.687 -0.7334 -0.4633 -0.6196
  115PROXR  H3162439  10.969   9.880  13.767  2.6510  1.9036 -2.1813
  115PROXR  H3262440  10.900   9.726  13.687 -0.2831 -0.9384  0.3977
  115PROXR  H3362441  11.067   9.737  13.695 -1.4681 -1.2173  1.9595
  116PROXS   O162442  11.003   9.752  13.464  0.0471  0.2638  0.2719
  116PROXS   C162443  10.932   9.764  13.341 -0.2602 -0.1181  0.1089
  116PROXS  H1162444  10.837   9.819  13.358 -0.2570  1.1187 -3.0980
  116PROXS  H1362445  11.002   9.818  13.274 -0.7413 -0.8765 -1.0561
  116PROXS   C262446  10.908   9.618  13.287  0.1243  0.0608  0.1259
  116PROXS  H2162447  10.855   9.555  13.362  1.0676  0.9609  1.5935
  116PROXS   C362448  11.045   9.549  13.264  0.2904 -0.0167  0.2468
  116PROXS  H3162449  11.108   9.566  13.354  0.6090  0.2015 -0.0151
  116PROXS  H3262450  11.034   9.442  13.235  0.7445  0.2206 -0.8442
  116PROXS  H3362451  11.099   9.600  13.181 -0.0813  0.3596  0.2325
  117PROXS   O162452  10.834   9.612  13.165 -0.5357  0.1947  0.2426
  117PROXS   C162453  10.691   9.645  13.168 -0.7570 -0.0659  0.1460
  117PROXS  H1162454  10.655   9.612  13.269  1.2314  0.0887  0.9435
  117PROXS  H1362455  10.666   9.753  13.164  0.8418  0.2793 -1.2020
  117PROXS   C262456  10.619   9.563  13.062 -0.1093  0.2236  0.1366
  117PROXS  H2162457  10.645   9.458  13.088 -1.3336  0.0240  0.5712
  117PROXS   C362458  10.668   9.588  12.917 -0.2241  0.5924 -0.1317
  117PROXS  H3162459  10.596   9.543  12.847  1.0468 -1.0824 -0.4236
  117PROXS  H3262460  10.695   9.693  12.893  1.9610 -0.3779 -2.3665
  117PROXS  H3362461  10.766   9.535  12.905 -0.6907 -0.5568  0.8792
  118PROXR   O162462  10.485   9.574  13.079 -0.3915  0.3669 -0.0907
  118PROXR   C162463  10.425   9.702  13.061 -0.1047 -0.8238 -0.6744
  118PROXR  H1162464  10.463   9.782  13.129 -1.7845 -0.9268  0.4415
  118PROXR  H1362465  10.438   9.751  12.962 -0.6077  0.8210  0.0334
  118PROXR   C262466  10.274   9.704  13.091  0.3858 -0.5443 -0.1459
  118PROXR  H2162467  10.251   9.674  13.196 -0.2049  0.7697  0.1317
  118PROXR   C362468  10.197   9.624  12.989 -0.6577 -0.8273 -0.0356
  118PROXR  H3162469  10.194   9.513  12.990 -2.7493 -0.8024  0.5468
  118PROXR  H3262470  10.088   9.647  12.994 -0.1122  1.8509  1.1480
  118PROXR  H3362471  10.227   9.657  12.887 -0.4704 -0.1591  0.2288
  119PROXR   O162472  10.231   9.836  13.073 -0.4110  0.3614  0.0529
  119PROXR   C162473  10.150   9.882  13.175 -0.2998 -0.3460  0.8326
  119PROXR  H1162474  10.077   9.804  13.205 -2.3620  0.7512 -1.0048
  119PROXR  H1362475  10.222   9.913  13.253  0.9892  1.2033 -0.8689
  119PROXR   C262476  10.061  10.003  13.125 -0.2668  0.1545  0.3325
  119PROXR  H2162477  10.048   9.991  13.016 -0.5529 -0.0963  0.3929
  119PROXR   C362478  10.118  10.138  13.162  0.0856  0.7237  0.2726
  119PROXR  H3162479  10.227  10.142  13.142  0.4382  0.3918  1.9471
  119PROXR  H3262480  10.070  10.223  13.109 -0.3494  2.0458  2.6611
  119PROXR  H3362481  10.100  10.155  13.271 -0.2301 -0.3423  0.4000
  120PROXS   O162482   9.933  10.003  13.189  0.2463  0.1606  0.1655
  120PROXS   C162483   9.846   9.911  13.129 -0.4344  0.4635  0.1068
  120PROXS  H1162484   9.839   9.920  13.019 -1.2236 -0.7932  0.0270
  120PROXS  H1362485   9.878   9.809  13.160 -0.7751  0.4497  0.4337
  120PROXS   C262486   9.697   9.927  13.172  0.1108  0.0021  0.1281
  120PROXS  H2162487   9.682  10.036  13.157 -0.5689  0.0461  1.0542
  120PROXS   C362488   9.675   9.891  13.323 -0.5888 -0.0877  0.3228
  120PROXS  H3162489   9.570   9.904  13.355 -1.0575 -1.6938 -0.4949
  120PROXS  H3262490   9.702   9.784  13.335  0.4811  0.3266  1.9816
  120PROXS  H3362491   9.744   9.955  13.383  1.3182 -2.6021  0.9595
  121PROXS   O162492   9.608   9.857  13.089  0.3322 -0.3726 -0.1827
  121PROXS   C162493   9.577   9.935  12.973  0.1886 -1.0373 -0.0876
  121PROXS  H1162494   9.559  10.041  13.001 -1.8688 -1.8327  1.9395
  121PROXS  H1362495   9.666   9.927  12.908  0.9622 -1.9564  1.0507
  121PROXS   C262496   9.453   9.881  12.900 -0.5819  0.8012  0.2579
  121PROXS  H2162497   9.366   9.894  12.967 -1.2130  0.8969 -0.5619
  121PROXS   C362498   9.459   9.725  12.883  0.2338 -0.8443  0.1604
  121PROXS  H3162499   9.467   9.679  12.984 -2.3867 -1.4214  0.1836
  121PROXS  H3262500   9.364   9.699  12.831 -0.2099 -0.5128  0.7928
  121PROXS  H3362501   9.540   9.704  12.810 -1.4611  0.1829 -2.1216
  122PROXS   O162502   9.431   9.959  12.783 -0.2264  0.4292 -0.3246
  122PROXS   C162503   9.296   9.955  12.737 -0.0225 -0.0066 -0.4822
  122PROXS  H1162504   9.276   9.848  12.713 -3.2031 -0.1145  1.9489
  122PROXS  H1362505   9.228   9.982  12.821 -0.0384 -0.7398 -0.2506
  122PROXS   C262506   9.263  10.059  12.625  0.0834  0.7257 -0.2163
  122PROXS  H2162507   9.354  10.073  12.563 -0.0350  3.9797  0.1981
  122PROXS   C362508   9.232  10.196  12.684  0.0092 -0.9915 -0.1824
  122PROXS  H3162509   9.306  10.244  12.751  1.6157 -1.0270 -1.8427
  122PROXS  H3262510   9.208  10.266  12.601  0.3206 -0.4036  0.2134
  122PROXS  H3362511   9.140  10.192  12.746 -0.1593 -1.7172 -0.4750
  123PROXS   O162512   9.152  10.021  12.550 -0.3742 -0.1544  0.2193
  123PROXS   C162513   9.163  10.079  12.415  1.0941  0.3531 -0.3913
  123PROXS  H1162514   9.183  10.187  12.432 -2.8847  0.9448  1.9619
  123PROXS  H1362515   9.251  10.038  12.362  1.1646 -0.8966  0.6277
  123PROXS   C262516   9.031  10.066  12.338  0.2679  0.2651 -0.0128
  123PROXS  H2162517   8.962  10.137  12.388  0.2115  0.5210 -0.4498
  123PROXS   C362518   8.959   9.929  12.335 -0.5673 -0.4048 -0.6541
  123PROXS  H3162519   8.854   9.946  12.305 -1.0859 -0.0352  1.2213
  123PROXS  H3262520   9.013   9.856  12.270 -1.2732 -0.6901 -0.9235
  123PROXS  H3362521   8.955   9.895  12.441 -0.4490  3.6777  0.8304
  124PROXR   O162522   9.049  10.119  12.209 -0.5444  0.2108  0.3110
  124PROXR   C162523   8.927  10.164  12.144 -0.3981 -0.1087 -0.6190
  124PROXR  H1162524   8.851  10.083  12.152  0.9081 -1.1649  2.0221
  124PROXR  H1362525   8.884  10.259  12.184 -0.1575 -0.3569  0.2305
  124PROXR   C262526   8.954  10.194  11.999  0.3908 -0.3067  0.1375
  124PROXR  H2162527   8.976  10.096  11.952  0.1781 -0.4483  0.3323
  124PROXR   C362528   9.085  10.272  11.977 -0.2442 -0.7756  0.3186
  124PROXR  H3162529   9.116  10.274  11.870 -1.1953 -0.7617  0.0288
  124PROXR  H3262530   9.093  10.373  12.023 -0.4455 -0.5827 -0.0645
  124PROXR  H3362531   9.161  10.210  12.029  0.6678  0.9006  1.0493
  125PROXS   O162532   8.831  10.238  11.935 -0.8192  0.7130 -0.2563
  125PROXS   C162533   8.834  10.219  11.792 -0.2956  0.3838 -0.2797
  125PROXS  H1162534   8.923  10.268  11.747  1.2340 -0.5404  1.5942
  125PROXS  H1362535   8.855  10.112  11.769 -3.9537 -0.2658 -1.2405
  125PROXS   C262536   8.695  10.262  11.740  0.5087  0.7505  0.7731
  125PROXS  H2162537   8.664  10.368  11.756 -3.5220 -0.1054 -0.4385
  125PROXS   C362538   8.583  10.177  11.810  0.9273  0.1553 -0.1358
  125PROXS  H3162539   8.485  10.179  11.758 -0.0938 -1.2102  1.6249
  125PROXS  H3262540   8.614  10.070  11.814  0.5733 -0.0477 -2.0765
  125PROXS  H3362541   8.579  10.214  11.915 -0.4565 -1.3308  0.3804
  126PROXS   O162542   8.693  10.237  11.601  0.3614  0.0848 -0.1576
  126PROXS   C162543   8.773  10.321  11.526 -0.0573  0.0781  0.0687
  126PROXS  H1162544   8.751  10.429  11.545 -0.0254  0.5118 -2.0504
  126PROXS  H1362545   8.880  10.306  11.551 -0.4305  1.0440  2.5449
  126PROXS   C262546   8.769  10.307  11.372 -0.3665 -0.1330  0.5003
  126PROXS  H2162547   8.662  10.317  11.343 -0.2331 -1.4321 -0.5245
  126PROXS   C362548   8.814  10.165  11.337  0.2157  0.4733 -0.4369
  126PROXS  H3162549   8.768  10.121  11.246 -0.4260  2.0638 -0.9151
  126PROXS  H3262550   8.924  10.168  11.332  0.3006  1.7616  1.1736
  126PROXS  H3362551   8.783  10.092  11.415 -1.3267  0.2653 -1.2055
  127PROXR   O162552   8.852  10.406  11.306 -0.0874 -0.1975 -0.4050
  127PROXR   C162553   8.831  10.412  11.167 -0.2225 -0.7724  0.0928
  127PROXR  H1162554   8.831  10.308  11.128  0.3710 -1.4207  1.7353
  127PROXR  H1362555   8.733  10.451  11.133 -0.2449  0.6328  1.6799
  127PROXR   C262556   8.944  10.488  11.095  0.0377  0.6091 -0.7475
  127PROXR  H2162557   8.918  10.596  11.095 -0.7927  0.4163 -0.0772
  127PROXR   C362558   8.950  10.428  10.951 -0.5225  0.0785  0.2085
  127PROXR  H3162559   8.848  10.444  10.909  0.3106  0.1669 -1.8825
  127PROXR  H3262560   9.032  10.480  10.899  2.0453 -1.1388  2.7523
  127PROXR  H3362561   8.972  10.319  10.957  3.3549  0.8163  2.5418
  128PROXR   O162562   9.068  10.442  11.146  0.6017 -0.4937 -0.5329
  128PROXR   C162563   9.178  10.526  11.102  0.1754  0.5916  0.2368
  128PROXR  H1162564   9.213  10.486  11.004  0.1249  0.6508  0.1948
  128PROXR  H1362565   9.141  10.631  11.104 -1.6122 -0.0087  0.1789
  128PROXR   C262566   9.295  10.513  11.203  0.4283 -0.1232  0.2924
  128PROXR  H2162567   9.316  10.406  11.223 -1.5726 -0.9164 -1.4078
  128PROXR   C362568   9.268  10.591  11.329  0.4186  0.0783 -0.2450
  128PROXR  H3162569   9.217  10.688  11.307 -2.0514 -0.8626  0.9619
  128PROXR  H3262570   9.191  10.533  11.384 -0.4037  0.9581 -0.4399
  128PROXR  H3362571   9.354  10.596  11.399 -0.6093 -3.2088  1.4362
  129PROXS   O162572   9.405  10.582  11.137  0.0940  0.1404  0.8183
  129PROXS   C162573   9.533  10.544  11.194  0.2234 -0.4361  0.4624
  129PROXS  H1162574   9.539  10.600  11.289  0.4738  1.6971 -0.7348
  129PROXS  H1362575   9.533  10.434  11.210 -0.2381 -0.1831  2.3635
  129PROXS   C262576   9.646  10.586  11.109  0.5315  0.0439  0.8203
  129PROXS  H2162577   9.637  10.696  11.093 -1.6204 -0.2168 -0.2387
  129PROXS   C362578   9.647  10.514  10.975 -0.5917  0.0318  0.6828
  129PROXS  H3162579   9.714  10.569  10.905 -3.4551  0.7485 -1.7112
  129PROXS  H3262580   9.678  10.409  10.991 -0.0984  0.0649 -0.0404
  129PROXS  H3362581   9.548  10.524  10.926 -1.2340  2.1594  2.2372
  130PROXS   O162582   9.765  10.551  11.181 -0.2970 -0.5346 -0.1011
  130PROXS   C162583   9.797  10.645  11.280  0.0598 -0.3925 -0.6481
  130PROXS  H1162584   9.872  10.717  11.242  0.8026 -1.4053 -1.1444
  130PROXS  H1362585   9.715  10.702  11.329 -0.0900 -1.0776 -0.0741
  130PROXS   C262586   9.879  10.567  11.389 -0.1711 -0.3469 -0.0924
  130PROXS  H2162587   9.981  10.543  11.351 -0.0193  0.2276 -0.0607
  130PROXS   C362588   9.818  10.435  11.427 -0.0253 -0.1141 -0.2106
  130PROXS  H3162589   9.810  10.369  11.338 -1.0148  0.5020 -0.5973
  130PROXS  H3262590   9.878  10.386  11.507 -1.7308 -0.6546  0.7784
  130PROXS  H3362591   9.714  10.445  11.465 -0.0112  0.7617 -0.3766
  131PROXS   O162592   9.894  10.655  11.499 -0.2041 -0.3088 -0.5167
  131PROXS   C162593  10.004  10.627  11.584 -0.1494  0.0351 -0.5469
  131PROXS  H1162594   9.990  10.523  11.622 -0.3371  0.2220 -0.1037
  131PROXS  H1362595  10.102  10.633  11.531 -0.1536  0.1817 -0.5350
  131PROXS   C262596  10.005  10.729  11.703  0.0377  0.2650 -0.4618
  131PROXS  H2162597   9.903  10.743  11.744  0.6283  0.9948  0.8239
  131PROXS   C362598  10.061  10.867  11.655  0.0391 -0.1671 -0.6345
  131PROXS  H3162599  10.019  10.903  11.558 -0.3554 -0.3457 -0.5329
  131PROXS  H3262600  10.029  10.943  11.730 -1.8909 -0.7206 -0.8461
  131PROXS  H3362601  10.171  10.870  11.645  0.3239  1.1293  1.9591
  132PROXS   O162602  10.088  10.665  11.801  0.3607 -0.3402  0.3313
  132PROXS   C162603  10.074  10.737  11.923 -0.7025 -0.1203  0.2337
  132PROXS  H1162604  10.173  10.785  11.940 -1.5684  2.1823 -0.7277
  132PROXS  H1362605   9.996  10.816  11.925 -1.1538 -0.5625  0.3096
  132PROXS   C262606  10.033  10.641  12.038 -0.8349  0.2421 -0.1764
  132PROXS  H2162607  10.112  10.565  12.053 -2.0755 -0.9470  0.5645
  132PROXS   C362608   9.906  10.565  12.023 -0.3246 -0.3128 -0.2821
  132PROXS  H3162609   9.896  10.504  11.931 -0.2157 -2.9523  1.3515
  132PROXS  H3262610   9.892  10.492  12.106 -0.0847 -0.9762 -0.8207
  132PROXS  H3362611   9.819  10.635  12.031  0.1307  0.2765 -0.4601
  133PROXS   O162612  10.020  10.711  12.156 -0.4654 -0.8436  0.5974
  133PROXS   C162613  10.109  10.657  12.259  0.0004  0.3837 -0.6778
  133PROXS  H1162614  10.074  10.556  12.289  0.1750  0.3774 -0.4964
  133PROXS  H1362615  10.216  10.648  12.232 -0.1317 -0.8185 -0.8447
  133PROXS   C262616  10.096  10.753  12.389 -0.7407 -0.1893 -0.5450
  133PROXS  H2162617   9.989  10.775  12.408 -0.5115 -1.9168  4.1706
  133PROXS   C362618  10.182  10.876  12.348  0.3500 -0.5600 -0.1793
  133PROXS  H3162619  10.171  10.955  12.425  0.3033  1.2519 -1.9606
  133PROXS  H3262620  10.289  10.844  12.343  0.3640 -0.5558  0.0706
  133PROXS  H3362621  10.142  10.921  12.254  0.4605  0.0666  0.0719
  134PROXS   O162622  10.152  10.687  12.508  0.2266  0.3587 -0.0890
  134PROXS   C162623  10.143  10.772  12.622 -0.0942  0.1642 -0.2353
  134PROXS  H1162624  10.209  10.860  12.607 -1.0880  0.8371 -0.7427
  134PROXS  H1362625  10.039  10.809  12.632 -0.3919 -0.1045 -1.9768
  134PROXS   C262626  10.176  10.695  12.752  0.8799 -0.0864 -0.4923
  134PROXS  H2162627  10.276  10.647  12.745 -0.0398 -2.2560  0.1029
  134PROXS   C362628  10.072  10.578  12.773 -1.0476 -0.4429  0.3765
  134PROXS  H3162629  10.087  10.503  12.692 -0.4892 -1.2777  1.2320
  134PROXS  H3262630  10.079  10.536  12.876  1.5652 -0.4802  0.2546
  134PROXS  H3362631   9.968  10.612  12.754  0.4155  3.5303 -1.5379
  135PROXS   O162632  10.157  10.790  12.861 -0.1474  0.2003 -0.3663
  135PROXS   C162633  10.273  10.870  12.884  0.4043  0.5601  0.2322
  135PROXS  H1162634  10.358  10.806  12.916 -1.5313 -1.6003  1.3562
  135PROXS  H1362635  10.297  10.917  12.786  1.7071 -0.5024  0.0123
  135PROXS   C262636  10.239  10.967  12.998 -0.9204 -0.2929  0.9047
  135PROXS  H2162637  10.245  10.911  13.094 -0.7343 -1.3103  0.3153
  135PROXS   C362638  10.102  11.029  12.976 -0.3130 -0.0127 -0.4688
  135PROXS  H3162639  10.065  11.110  13.042 -0.3709  0.1249 -0.6667
  135PROXS  H3262640  10.095  11.054  12.868 -0.6331  1.3680 -0.1412
  135PROXS  H3362641  10.025  10.949  12.975 -1.8011  1.3457 -1.8038
  136PROXS   O162642  10.338  11.072  12.990  0.6150  0.3430  0.0936
  136PROXS   C162643  10.356  11.135  13.117  0.4018  0.0240  0.9187
  136PROXS  H1162644  10.258  11.172  13.154  0.0496  0.4321 -0.3721
  136PROXS  H1362645  10.406  11.056  13.177  3.3509  1.1247  0.0848
  136PROXS   C262646  10.447  11.259  13.114  0.7024  0.2170  0.3434
  136PROXS  H2162647  10.462  11.287  13.221 -0.9365  1.3766  0.2999
  136PROXS   C362648  10.381  11.370  13.036 -0.0885  0.1940  0.5540
  136PROXS  H3162649  10.334  11.345  12.938 -1.4222 -0.6055  1.3655
  136PROXS  H3262650  10.298  11.421  13.089 -0.5952 -0.1394  0.0986
  136PROXS  H3362651  10.462  11.441  13.010 -0.2106 -0.1634 -0.9195
  137PROXS   O162652  10.575  11.214  13.065 -0.0640  0.3743 -0.1911
  137PROXS   C162653  10.684  11.302  13.100 -0.1072  0.0700  0.1134
  137PROXS  H1162654  10.727  11.312  12.998 -1.3971 -2.9442 -0.8372
  137PROXS  H1362655  10.650  11.401  13.138  0.4070  0.3781 -0.1988
  137PROXS   C262656  10.772  11.232  13.201  0.4962  0.0707 -0.7383
  137PROXS  H2162657  10.805  11.142  13.146  0.2014 -0.7510  0.3912
  137PROXS   C362658  10.703  11.181  13.328 -0.2283  0.1431  0.3100
  137PROXS  H3162659  10.643  11.093  13.296 -0.0078 -0.5594  1.7538
  137PROXS  H3262660  10.784  11.146  13.395 -0.4404 -0.2347  0.3756
  137PROXS  H3362661  10.639  11.251  13.386 -0.7180 -0.9593  1.1400
  138PROXR   O162662  10.894  11.306  13.226 -0.2506 -0.0289 -0.2272
  138PROXR   C162663  10.971  11.338  13.114 -0.0245 -0.5106  0.5492
  138PROXR  H1162664  10.965  11.254  13.041  3.1658  0.6604 -1.3235
  138PROXR  H1362665  10.930  11.428  13.064 -1.8229 -0.9199  1.2460
  138PROXR   C262666  11.117  11.378  13.153 -0.0619  0.2190  0.1022
  138PROXR  H2162667  11.154  11.296  13.218  1.3268  1.3500  0.7885
  138PROXR   C362668  11.129  11.507  13.228  0.3086  0.3662 -0.6033
  138PROXR  H3162669  11.086  11.497  13.330 -0.5633  2.0986 -0.7730
  138PROXR  H3262670  11.232  11.545  13.244 -0.0618  0.3372  2.5068
  138PROXR  H3362671  11.074  11.590  13.180 -1.4267 -1.1175 -1.2937
  139PROXS   O162672  11.199  11.394  13.033 -0.1858 -0.0816  0.0269
  139PROXS   C162673  11.226  11.266  12.977 -0.0023  0.4174 -0.5501
  139PROXS  H1162674  11.254  11.195  13.058 -1.7290  0.1093 -0.1979
  139PROXS  H1362675  11.141  11.223  12.921 -1.9416  3.5465 -0.2240
  139PROXS   C262676  11.332  11.284  12.864  0.0400  0.1014  0.2653
  139PROXS  H2162677  11.422  11.320  12.918  0.8505 -0.9470 -0.3426
  139PROXS   C362678  11.288  11.369  12.749  0.4493 -0.4115 -0.1197
  139PROXS  H3162679  11.192  11.326  12.714 -0.8715  2.6322 -0.6132
  139PROXS  H3262680  11.258  11.471  12.783 -2.5520 -1.7386  1.6257
  139PROXS  H3362681  11.357  11.377  12.663 -0.7870 -1.6096 -1.2705
  140PROXR   O162682  11.359  11.156  12.815 -0.1009  0.5664  0.5112
  140PROXR   C162683  11.486  11.146  12.753  0.1673  0.2932 -0.5100
  140PROXR  H1162684  11.481  11.151  12.642  1.7541 -0.0344 -0.6230
  140PROXR  H1362685  11.565  11.208  12.801  0.1913 -1.7022  2.2890
  140PROXR   C262686  11.531  11.000  12.794 -0.0268 -0.5348 -0.0230
  140PROXR  H2162687  11.441  10.937  12.779  1.4496 -2.6733 -0.2280
  140PROXR   C362688  11.580  10.995  12.942 -0.2189 -0.9731 -0.2657
  140PROXR  H3162689  11.605  10.889  12.967 -0.5490 -1.8510 -3.2564
  140PROXR  H3262690  11.667  11.060  12.962 -0.2575 -0.9495 -0.1671
  140PROXR  H3362691  11.504  11.018  13.021 -1.0938  1.6000 -1.7411
  141PROXS   O162692  11.638  10.961  12.701  0.3375 -0.0030  0.3342
  141PROXS   C162693  11.644  10.820  12.677  0.5217 -0.1546 -0.3991
  141PROXS  H1162694  11.645  10.762  12.771 -1.4759  1.5583  0.7670
  141PROXS  H1362695  11.552  10.786  12.624 -1.1601  2.9876  0.1975
  141PROXS   C262696  11.767  10.787  12.597 -0.0855 -0.6186  0.2462
  141PROXS  H2162697  11.852  10.808  12.665 -0.7493  0.8091  0.6723
  141PROXS   C362698  11.789  10.864  12.465  0.2797  0.2159 -0.3471
  141PROXS  H3162699  11.887  10.840  12.420  1.0654 -0.7703  1.7861
  141PROXS  H3262700  11.711  10.843  12.388  1.9537 -0.7015 -1.8509
  141PROXS  H3362701  11.781  10.975  12.472  0.0416  0.0877  2.5973
  142PROXS   O162702  11.763  10.649  12.572 -0.0668  0.2939 -0.3226
  142PROXS   C162703  11.885  10.598  12.516 -0.4386  0.4706 -0.0634
  142PROXS  H1162704  11.910  10.634  12.414 -0.7211  0.3495 -0.1779
  142PROXS  H1362705  11.971  10.622  12.582 -1.9181  2.5190  1.2522
  142PROXS   C262706  11.884  10.449  12.489  0.4739 -0.0756 -0.1159
  142PROXS  H2162707  11.841  10.400  12.579  0.2986  1.8622  0.9107
  142PROXS   C362708  12.025  10.392  12.480  0.2494 -0.1615  0.4162
  142PROXS  H3162709  12.070  10.398  12.581 -0.7596 -1.8438  1.0183
  142PROXS  H3262710  12.005  10.285  12.459 -1.6144  0.5284 -1.8577
  142PROXS  H3362711  12.085  10.435  12.397 -1.6275  1.4217 -0.2131
  143PROXS   O162712  11.809  10.414  12.369  0.3653 -0.5835 -0.0034
  143PROXS   C162713  11.666  10.433  12.386  0.0602  0.1448  0.1642
  143PROXS  H1162714  11.636  10.349  12.451 -0.0863 -1.0767 -1.4241
  143PROXS  H1362715  11.636  10.527  12.436  0.0730  0.9791 -1.3234
  143PROXS   C262716  11.622  10.435  12.239  0.2357  0.4840  0.0459
  143PROXS  H2162717  11.660  10.349  12.179 -1.0117  1.1932 -1.8594
  143PROXS   C362718  11.675  10.567  12.179  0.0646 -0.4651 -0.1912
  143PROXS  H3162719  11.651  10.558  12.071 -0.0317  0.8657 -0.3005
  143PROXS  H3262720  11.637  10.650  12.243  0.8090 -1.6687  1.9374
  143PROXS  H3362721  11.785  10.571  12.193 -0.0820  1.7350  0.8115
  144PROXS   O162722  11.478  10.433  12.232  0.2528  0.6870  0.6032
  144PROXS   C162723  11.421  10.306  12.254  0.0121 -0.4747  0.5026
  144PROXS  H1162724  11.464  10.222  12.196 -1.3429  0.1238 -1.4713
  144PROXS  H1362725  11.438  10.283  12.361  0.8190  1.3982  0.8293
  144PROXS   C262726  11.268  10.308  12.237  0.5600 -0.3980  0.0096
  144PROXS  H2162727  11.243  10.374  12.151  1.0427  0.2008  0.3248
  144PROXS   C362728  11.201  10.387  12.355 -0.1784 -0.1849  0.3272
  144PROXS  H3162729  11.254  10.484  12.364 -0.8346  0.0582  1.9670
  144PROXS  H3262730  11.093  10.413  12.348  0.0292  0.4049 -0.7929
  144PROXS  H3362731  11.203  10.333  12.453 -0.6538  1.3954  1.2386
  145PROXR   O162732  11.221  10.182  12.212 -0.1626 -0.1090 -0.2611
  145PROXR   C162733  11.088  10.182  12.156 -0.6389 -0.4150 -0.1953
  145PROXR  H1162734  11.026  10.227  12.236 -0.5288 -1.5440  0.5452
  145PROXR  H1362735  11.083  10.238  12.060 -0.4364 -0.6078 -0.3174
  145PROXR   C262736  11.038  10.036  12.131  0.2108 -0.6381  0.2385
  145PROXR  H2162737  11.045   9.975  12.223  1.6440 -0.9353 -0.0388
  145PROXR   C362738  11.126   9.972  12.020  0.1684 -0.8110 -0.6419
  145PROXR  H3162739  11.095  10.016  11.923 -0.6194 -0.1059 -0.0853
  145PROXR  H3262740  11.231   9.995  12.049 -0.2289  0.5115 -0.1803
  145PROXR  H3362741  11.117   9.861  12.022  0.0857 -0.7951 -0.1056
  146PROXS   O162742  10.898  10.038  12.095  0.3089 -0.2017  0.0235
  146PROXS   C162743  10.836   9.911  12.104 -0.2356  0.6033 -0.2129
  146PROXS  H1162744  10.839   9.855  12.008  0.9549  1.0207 -0.4313
  146PROXS  H1362745  10.870   9.840  12.182 -0.9706  0.1339 -0.3022
  146PROXS   C262746  10.692   9.927  12.138  0.1076 -0.2619 -0.1528
  146PROXS  H2162747  10.662  10.015  12.077  1.9523  0.7857  0.3697
  146PROXS   C362748  10.671   9.967  12.281  0.2001  0.3290 -0.6819
  146PROXS  H3162749  10.732   9.905  12.350  1.2185 -0.5272 -2.2842
  146PROXS  H3262750  10.693  10.074  12.296 -1.6260  0.6869 -0.3372
  146PROXS  H3362751  10.566   9.944  12.309  0.3946  2.2195  1.9788
  147PROXR   O162752  10.622   9.804  12.108  0.1021  0.0749  1.0381
  147PROXR   C162753  10.566   9.808  11.976 -0.6217  0.2460  0.5845
  147PROXR  H1162754  10.508   9.902  11.979  1.8034  1.8372  0.4216
  147PROXR  H1362755  10.634   9.844  11.897 -1.7149 -0.5440 -0.7517
  147PROXR   C262756  10.506   9.675  11.946  0.3363 -1.0376 -0.5220
  147PROXR  H2162757  10.415   9.669  12.010  0.1602  2.9332 -0.1402
  147PROXR   C362758  10.600   9.548  11.949  0.0946 -0.7416 -0.2488
  147PROXR  H3162759  10.619   9.523  12.055 -2.3264  0.7111  0.5883
  147PROXR  H3262760  10.548   9.463  11.900 -1.3134  1.4028 -2.7391
  147PROXR  H3362761  10.698   9.580  11.907  0.6590  1.6460  2.5347
  148PROXR   O162762  10.455   9.676  11.814  0.0076  0.5970  0.3763
  148PROXR   C162763  10.330   9.732  11.788  0.3259 -0.8597  0.1525
  148PROXR  H1162764  10.249   9.684  11.847  0.9574 -1.2461  0.7286
  148PROXR  H1362765  10.335   9.842  11.798 -0.1754 -0.8418  0.2099
  148PROXR   C262766  10.295   9.705  11.644 -0.0689 -0.1067  0.9304
  148PROXR  H2162767  10.301   9.595  11.630  1.1649  0.2055 -1.4814
  148PROXR   C362768  10.399   9.770  11.548 -0.0622  0.4732  0.3887
  148PROXR  H3162769  10.413   9.701  11.462 -0.7210  0.4508  0.2969
  148PROXR  H3262770  10.369   9.873  11.520  1.3580  0.9037  0.3781
  148PROXR  H3362771  10.499   9.779  11.595  0.0346 -0.2938  0.3483
  149PROXR   O162772  10.165   9.751  11.621  0.0053 -0.3332 -0.2014
  149PROXR   C162773  10.108   9.726  11.489 -0.1931  0.1762 -0.0527
  149PROXR  H1162774  10.148   9.791  11.409 -1.5959  0.5609 -0.4727
  149PROXR  H1362775  10.120   9.621  11.454 -0.9049  0.3864 -0.9714
  149PROXR   C262776   9.948   9.748  11.496  0.5858 -0.2289  0.1692
  149PROXR  H2162777   9.934   9.849  11.541 -0.5603 -0.2291 -0.1553
  149PROXR   C362778   9.879   9.635  11.570 -0.2941 -0.1125 -0.5013
  149PROXR  H3162779   9.770   9.621  11.554 -0.7073  2.2898 -0.1337
  149PROXR  H3262780   9.932   9.540  11.543  0.3851 -0.0518  0.5428
  149PROXR  H3362781   9.905   9.641  11.677 -0.1846 -0.9181 -0.4721
  150PROXS   O162782   9.896   9.743  11.366 -0.7645 -0.2306 -0.3020
  150PROXS   C162783   9.876   9.874  11.303 -0.0860  0.8403 -0.2972
  150PROXS  H1162784   9.859   9.949  11.383 -1.2000  1.0072 -0.6635
  150PROXS  H1362785   9.972   9.903  11.255  0.4952 -0.6236 -0.0543
  150PROXS   C262786   9.760   9.871  11.195  0.3236  0.4493  0.0349
  150PROXS  H2162787   9.675   9.844  11.261  0.6672  0.1810  0.3739
  150PROXS   C362788   9.787   9.762  11.086  0.1302 -0.2982  0.4795
  150PROXS  H3162789   9.828   9.670  11.134 -0.3329 -0.4788  0.5396
  150PROXS  H3262790   9.697   9.725  11.032  0.1100  1.6006 -0.8729
  150PROXS  H3362791   9.871   9.801  11.024  0.7339  0.5456  1.7928
  151PROXR   O162792   9.755   9.997  11.133  0.7543 -0.6416  0.0078
  151PROXR   C162793   9.700  10.102  11.220 -0.5960  0.0848 -0.3002
  151PROXR  H1162794   9.756  10.107  11.316  2.4257 -1.7068 -1.8209
  151PROXR  H1362795   9.723  10.201  11.175  0.3574 -0.1782 -0.4072
  151PROXR   C262796   9.556  10.098  11.239 -0.0214 -0.3536  0.2464
  151PROXR  H2162797   9.527  10.004  11.290 -0.5903 -0.7087 -0.7216
  151PROXR   C362798   9.481  10.108  11.101  0.5446  0.1035 -0.2650
  151PROXR  H3162799   9.509  10.210  11.065 -0.1245  0.5694  0.4892
  151PROXR  H3262800   9.517  10.023  11.040  0.8571 -1.1471  1.6027
  151PROXR  H3362801   9.371  10.103  11.117  0.4692  1.0344 -0.4249
  152PROXR   O162802   9.532  10.200  11.329 -0.4020 -0.3360  0.4730
  152PROXR   C162803   9.403  10.201  11.392 -0.4245  0.1194  0.1383
  152PROXR  H1162804   9.383  10.304  11.428  0.8891  0.2307  0.5944
  152PROXR  H1362805   9.329  10.166  11.317  0.1866 -2.1084  0.4789
  152PROXR   C262806   9.387  10.104  11.506 -0.3997 -0.3089 -0.6749
  152PROXR  H2162807   9.396   9.998  11.475  1.8563  0.3765 -2.7403
  152PROXR   C362808   9.252  10.127  11.577  0.0572 -0.1429 -0.0952
  152PROXR  H3162809   9.248  10.062  11.667  2.9203  1.1276  1.0923
  152PROXR  H3262810   9.248  10.229  11.619  0.2675 -0.7219  1.3835
  152PROXR  H3362811   9.175  10.098  11.502  0.2205  2.5507 -1.4047
  153PROXR   O162812   9.490  10.123  11.603  0.2887 -0.6544 -0.0958
  153PROXR   C162813   9.578  10.018  11.613  0.2424 -0.4125 -0.0706
  153PROXR  H1162814   9.531   9.921  11.640  0.2508 -1.0211 -2.0680
  153PROXR  H1362815   9.640   9.999  11.523 -1.2380 -2.7126 -0.7007
  153PROXR   C262816   9.684  10.051  11.728 -0.2484  0.0789  0.3184
  153PROXR  H2162817   9.629  10.080  11.820 -1.7164 -2.6033  0.4052
  153PROXR   C362818   9.777  10.170  11.680  0.0512 -0.0596 -0.3375
  153PROXR  H3162819   9.719  10.262  11.659  1.8938  1.6149  1.5000
  153PROXR  H3262820   9.851  10.205  11.755  1.1555  2.5838 -2.4961
  153PROXR  H3362821   9.835  10.133  11.592 -0.2747 -1.8972  0.1829
  154PROXS   O162822   9.757   9.927  11.761 -0.2034  0.2957  0.1475
  154PROXS   C162823   9.833   9.937  11.879 -0.1282  0.1089 -0.5041
  154PROXS  H1162824   9.913  10.011  11.858  0.5847 -0.1637  1.0702
  154PROXS  H1362825   9.772   9.975  11.964  1.0753  1.1890 -0.0818
  154PROXS   C262826   9.894   9.803  11.917  0.2010  0.8348  0.7334
  154PROXS  H2162827   9.954   9.766  11.831 -2.8715 -0.4660 -1.0156
  154PROXS   C362828   9.788   9.695  11.943  0.6895 -0.2834  0.1677
  154PROXS  H3162829   9.719   9.732  12.021  0.2828  1.0219 -0.7704
  154PROXS  H3262830   9.705   9.680  11.871 -0.4463 -0.1250  1.4143
  154PROXS  H3362831   9.824   9.593  11.968 -2.9489 -2.2452 -1.7161
  155PROXR   O162832   9.970   9.824  12.043 -0.1035  0.1454  0.7471
  155PROXR   C162833  10.050   9.719  12.084  0.2371  0.2482  0.1197
  155PROXR  H1162834   9.982   9.644  12.131  0.6247  0.0025  0.2950
  155PROXR  H1362835  10.107   9.679  11.997  2.5830  0.7547  1.3642
  155PROXR   C262836  10.151   9.757  12.191  0.0539 -0.1963  0.2850
  155PROXR  H2162837  10.108   9.777  12.291  1.0511 -0.4392  0.7752
  155PROXR   C362838  10.234   9.871  12.141  0.3077 -0.1498 -0.4592
  155PROXR  H3162839  10.321   9.891  12.208  0.2438  1.3381 -0.8077
  155PROXR  H3262840  10.285   9.837  12.049 -0.8374 -2.4020 -0.3366
  155PROXR  H3362841  10.175   9.964  12.127  0.2346  0.0353  0.9143
  156PROXS   O162842  10.248   9.658  12.207  0.2076 -0.1217  0.4291
  156PROXS   C162843  10.219   9.555  12.305  0.0556  0.0931 -0.4154
  156PROXS  H1162844  10.213   9.597  12.407 -0.2032  0.7298 -0.6844
  156PROXS  H1362845  10.123   9.504  12.283 -0.5437  1.1772 -0.4366
  156PROXS   C262846  10.335   9.450  12.307  0.3672 -0.9556  0.3617
  156PROXS  H2162847  10.389   9.441  12.211  1.0040  3.9316  0.0033
  156PROXS   C362848  10.276   9.324  12.346 -0.1518  0.6231 -0.4409
  156PROXS  H3162849  10.197   9.328  12.424 -0.1304  1.1135 -0.4421
  156PROXS  H3262850  10.225   9.275  12.260 -0.6268  1.8466 -0.8797
  156PROXS  H3362851  10.351   9.251  12.384  0.5122  1.0963 -0.8119
  157PROXS   O162852  10.427   9.487  12.413 -0.4543  0.1947  0.6966
  157PROXS   C162853  10.527   9.575  12.356  0.0256  0.4349  0.4708
  157PROXS  H1162854  10.581   9.516  12.280  0.8223 -0.2628  1.5512
  157PROXS  H1362855  10.477   9.654  12.296  1.0036  0.0138 -0.9285
  157PROXS   C262856  10.620   9.622  12.470 -0.1485  0.3585  0.5846
  157PROXS  H2162857  10.647   9.532  12.530 -1.0031 -0.8639 -0.8087
  157PROXS   C362858  10.537   9.718  12.564 -0.1976  0.6306  0.5480
  157PROXS  H3162859  10.600   9.752  12.649 -1.1267  1.2767  0.9917
  157PROXS  H3262860  10.495   9.799  12.500  1.0268  1.4336  0.7186
  157PROXS  H3362861  10.450   9.673  12.616 -2.6349  3.4280 -0.8138
  158PROXR   O162862  10.745   9.680  12.424 -0.0552 -0.1769 -0.3968
  158PROXR   C162863  10.831   9.723  12.531  0.6206  0.1644  0.1041
  158PROXR  H1162864  10.778   9.807  12.579 -1.8531 -0.9061 -0.5854
  158PROXR  H1362865  10.853   9.638  12.599  1.7407  0.1158 -0.2981
  158PROXR   C262866  10.962   9.772  12.476 -1.0534 -0.2995  0.2396
  158PROXR  H2162867  10.943   9.852  12.401  3.6869  0.5037 -0.3932
  158PROXR   C362868  11.046   9.669  12.415  0.6684  0.0899 -0.0321
  158PROXR  H3162869  11.110   9.610  12.484  1.4342 -1.4530 -1.9804
  158PROXR  H3262870  10.980   9.599  12.358 -1.5322 -1.3008  3.8277
  158PROXR  H3362871  11.115   9.719  12.344  0.6243  1.2076  0.6822
  159PROXR   O162872  11.041   9.832  12.575  0.5443 -0.4928  0.3063
  159PROXR   C162873  11.007   9.969  12.605  0.6693  0.2816  0.6921
  159PROXR  H1162874  11.061  10.037  12.535 -1.1569  2.0195  0.8744
  159PROXR  H1362875  10.900   9.981  12.581  1.3007  1.7904 -1.7542
  159PROXR   C262876  11.040  10.004  12.752 -0.0079  0.3813 -0.4799
  159PROXR  H2162877  11.147   9.987  12.776  0.0291  0.9674 -0.2128
  159PROXR   C362878  10.963   9.924  12.857  0.6376  0.4985 -0.2043
  159PROXR  H3162879  10.960   9.982  12.952 -1.4132 -2.1833  1.5212
  159PROXR  H3262880  10.858   9.908  12.824  0.5504  1.1106 -0.2281
  159PROXR  H3362881  11.005   9.824  12.883  0.3079  0.5318  0.4882
  160PROXS   O162882  11.000  10.138  12.772  0.4507  0.4311 -0.2346
  160PROXS   C162883  11.114  10.223  12.753 -0.1607  0.2442 -0.7053
  160PROXS  H1162884  11.203  10.190  12.811  0.2111 -0.2036 -1.5058
  160PROXS  H1362885  11.142  10.215  12.645 -0.1834  0.8040 -0.7533
  160PROXS   C262886  11.090  10.371  12.785  0.0920 -0.5916 -0.3931
  160PROXS  H2162887  11.066  10.381  12.893  0.4452  0.5500 -0.4153
  160PROXS   C362888  10.974  10.434  12.705 -0.2928 -0.1231 -0.4766
  160PROXS  H3162889  11.003  10.430  12.598 -3.1944  0.5444 -1.3678
  160PROXS  H3262890  10.877  10.381  12.711 -1.0934  1.4570  2.1109
  160PROXS  H3362891  10.956  10.542  12.724 -1.6518 -0.1458 -1.4867
  161PROXR   O162892  11.219  10.438  12.766  0.2421  0.3913  0.1111
  161PROXR   C162893  11.316  10.408  12.864 -0.6536  0.0250 -0.7290
  161PROXR  H1162894  11.274  10.434  12.964  1.0342 -0.9284  0.2887
  161PROXR  H1362895  11.343  10.300  12.869 -1.7912 -0.2272  0.9237
  161PROXR   C262896  11.448  10.489  12.841  0.6887 -0.2398 -0.1653
  161PROXR  H2162897  11.414  10.594  12.855 -2.7956 -1.4341  1.2926
  161PROXR   C362898  11.522  10.465  12.709  0.1292  0.5571  0.1215
  161PROXR  H3162899  11.452  10.495  12.627 -1.0714 -1.1829  0.4647
  161PROXR  H3262900  11.623  10.513  12.706  0.6002 -0.3603  0.7907
  161PROXR  H3362901  11.552  10.358  12.711  0.1169  0.5645  2.3853
  162PROXR   O162902  11.536  10.477  12.949  0.4882  0.4074 -0.0171
  162PROXR   C162903  11.591  10.349  12.968  0.1032  0.6936  0.0565
  162PROXR  H1162904  11.510  10.275  12.976 -1.7211  2.2252 -2.6230
  162PROXR  H1362905  11.666  10.328  12.888  0.8373  1.1174  0.6124
  162PROXR   C262906  11.667  10.369  13.102  0.3085 -0.5868  0.3430
  162PROXR  H2162907  11.591  10.403  13.175  0.0494  1.5886 -0.8316
  162PROXR   C362908  11.771  10.487  13.107 -0.2422  0.5994 -0.2342
  162PROXR  H3162909  11.831  10.473  13.199  0.4897 -1.1755 -0.9464
  162PROXR  H3262910  11.849  10.460  13.033 -0.9155 -3.6325  0.3644
  162PROXR  H3362911  11.728  10.590  13.106 -0.1554  0.6554  0.6325
  163PROXS   O162912  11.733  10.257  13.146 -0.1337  0.2946 -0.3460
  163PROXS   C162913  11.657  10.161  13.220  0.1996  0.2784 -0.1892
  163PROXS  H1162914  11.639  10.212  13.317 -0.4746 -0.6578  0.1902
  163PROXS  H1362915  11.557  10.156  13.172  0.4820  2.4717 -1.1550
  163PROXS   C262916  11.729  10.029  13.255  0.6998 -0.5128  0.3057
  163PROXS  H2162917  11.815  10.053  13.321 -0.4664 -0.3786  1.8315
  163PROXS   C362918  11.774   9.960  13.126 -0.9705  0.4764 -0.2281
  163PROXS  H3162919  11.698   9.957  13.045 -0.7596  1.1294 -0.4531
  163PROXS  H3262920  11.865   9.997  13.074 -1.2470  0.0164 -1.0499
  163PROXS  H3362921  11.808   9.855  13.143  1.9461  0.5994 -4.0287
  164PROXR   O162922  11.635   9.952  13.330 -0.0893  0.1006  0.0242
  164PROXR   C162923  11.682   9.857  13.423 -0.5905  0.0695  0.2206
  164PROXR  H1162924  11.683   9.758  13.373 -0.3426  0.0737  0.2120
  164PROXR  H1362925  11.785   9.884  13.456 -0.7448 -1.1322  1.7934
  164PROXR   C262926  11.599   9.851  13.556 -0.0120 -0.2173  1.1982
  164PROXR  H2162927  11.493   9.831  13.531  0.5934 -1.6036 -0.4872
  164PROXR   C362928  11.601   9.987  13.631 -0.1926 -0.7038  0.3052
  164PROXR  H3162929  11.555   9.979  13.732  0.3988 -2.1780  0.4828
  164PROXR  H3262930  11.705  10.025  13.636  0.2328 -1.8635  0.6412
  164PROXR  H3362931  11.542  10.059  13.570  0.6112  0.4506  0.8700
  165PROXR   O162932  11.653   9.752  13.639 -0.4919  0.2165  0.2500
  165PROXR   C162933  11.609   9.617  13.593 -0.1774  0.3767 -0.0796
  165PROXR  H1162934  11.606   9.607  13.483  0.0215 -3.2385  0.1274
  165PROXR  H1362935  11.666   9.533  13.639  0.8850  0.8606 -0.4706
  165PROXR   C262936  11.464   9.593  13.654 -0.4919  0.6398 -0.4471
  165PROXR  H2162937  11.390   9.671  13.628 -1.0674  1.1157  2.3619
  165PROXR   C362938  11.464   9.579  13.808 -0.2979  0.7598 -0.7277
  165PROXR  H3162939  11.543   9.516  13.856 -0.4837  1.5767  0.6911
  165PROXR  H3262940  11.474   9.679  13.856  0.9018  0.5191 -0.4405
  165PROXR  H3362941  11.370   9.536  13.849  0.9258  0.5067  2.1343
  166ETHOX   O162942  11.412   9.471  13.605 -0.0861  0.6735  0.0465
  166ETHOX   C162943  11.273   9.451  13.610  0.5025  0.0014 -0.1258
  166ETHOX  H1162944  11.219   9.547  13.592  1.0849  0.0504 -1.8104
  166ETHOX  H1362945  11.246   9.416  13.712  0.4325  1.2136  0.2956
  166ETHOX   C262946  11.224   9.332  13.522  0.2481 -0.0809  0.7424
  166ETHOX  H2162947  11.267   9.328  13.420  0.8333 -4.2281  1.0040
  166ETHOX  H2362948  11.114   9.342  13.510  0.2209 -1.2550 -0.0794
  167ETHOX   O162949  11.260   9.208  13.575 -0.2405  0.1000  0.4350
  167ETHOX   C162950  11.223   9.099  13.489 -0.4213 -0.3563  0.2881
  167ETHOX  H1162951  11.281   9.098  13.394 -1.0766  2.3883 -0.2301
  167ETHOX  H1362952  11.239   9.002  13.539 -0.2152 -1.8296 -2.4311
  167ETHOX   C262953  11.070   9.084  13.456  0.7122 -0.3832 -0.4654
  167ETHOX  H2162954  11.048   8.983  13.415  4.0082 -1.8426  1.0056
  167ETHOX  H2362955  11.032   9.161  13.385  0.5712  0.4500  0.4976
  168ETHOX   O162956  10.983   9.112  13.568 -0.3438  0.3546 -0.1797
  168ETHOX   C162957  10.985   9.007  13.663  0.4768  0.2497 -0.0006
  168ETHOX  H1162958  11.079   8.978  13.714  0.5300 -1.4257 -0.9599
  168ETHOX  H1362959  10.946   8.918  13.608  0.9077 -0.6600  1.1321
  168ETHOX   C262960  10.872   9.039  13.766  0.4842  0.4867 -0.9380
  168ETHOX  H2162961  10.787   9.085  13.710 -1.0860 -0.5414  0.4806
  168ETHOX  H2362962  10.909   9.113  13.841 -0.6683 -0.2087  0.3699
  169ETHOX   O162963  10.810   8.925  13.836 -0.7539  0.3744  0.7875
  169ETHOX   C162964  10.897   8.870  13.939  0.2946  0.1392 -0.2893
  169ETHOX  H1162965  10.990   8.826  13.898  1.3075  0.1741  1.8396
  169ETHOX  H1362966  10.936   8.941  14.015  2.0609 -0.9088 -0.1826
  169ETHOX   C262967  10.829   8.754  14.011 -0.7321 -0.2890 -0.5823
  169ETHOX  H2162968  10.735   8.794  14.054 -0.5324 -0.7370  0.3050
  169ETHOX  H2362969  10.903   8.728  14.091 -0.0715  0.8804 -0.7883
  170ETHOX   O162970  10.802   8.638  13.932 -0.1460 -0.5643 -0.1017
  170ETHOX   C162971  10.714   8.543  13.996 -0.3258  0.0309  0.2909
  170ETHOX  H1162972  10.626   8.591  14.044 -1.1092 -0.6559 -0.4189
  170ETHOX  H1362973  10.770   8.484  14.071  1.1585  0.6772 -0.2701
  170ETHOX   C262974  10.657   8.448  13.891 -0.0074  0.4608 -1.3691
  170ETHOX  H2162975  10.604   8.362  13.937  1.0784  0.8032  0.6087
  170ETHOX  H2362976  10.752   8.407  13.850  1.9062  0.1574  2.8737
  171ETHOX   O162977  10.578   8.512  13.787 -0.7853  0.0989  0.1427
  171ETHOX   C162978  10.617   8.475  13.656 -0.0609 -0.3008  0.2434
  171ETHOX  H1162979  10.727   8.493  13.664 -0.2080  1.0559 -0.6057
  171ETHOX  H1362980  10.591   8.371  13.627 -1.2795  0.8666 -3.2861
  171ETHOX   C262981  10.553   8.561  13.544 -0.4982  0.3446  0.4894
  171ETHOX  H2162982  10.445   8.553  13.569 -0.4178  0.6383  0.9462
  171ETHOX  H2362983  10.578   8.527  13.441 -1.2233  0.2916  0.3300
  172ETHOX   O162984  10.601   8.691  13.555  0.2561 -0.6030  0.2312
  172ETHOX   C162985  10.514   8.779  13.474 -0.5461 -1.1467 -0.5793
  172ETHOX  H1162986  10.413   8.763  13.516 -0.2404  0.5610  0.9573
  172ETHOX  H1362987  10.516   8.750  13.367 -0.7055  1.2764 -1.3096
  172ETHOX   C262988  10.567   8.926  13.474  0.1520  0.1560  0.0646
  172ETHOX  H2162989  10.653   8.939  13.542 -0.1904 -3.2454  1.3533
  172ETHOX  H2362990  10.483   8.997  13.487  0.4003  0.5676 -0.5312
  173ETHOX   O162991  10.636   8.961  13.355 -0.1296 -0.1507  0.2534
  173ETHOX   C162992  10.662   9.100  13.347  0.0462  0.4291  0.0868
  173ETHOX  H1162993  10.572   9.163  13.333 -0.8457 -1.0605 -1.2112
  173ETHOX  H1362994  10.726   9.134  13.431  1.0406 -2.1428  0.4739
  173ETHOX   C262995  10.747   9.120  13.222  0.4954  0.0529 -0.0990
  173ETHOX  H2162996  10.833   9.051  13.234 -0.6862 -1.4117  0.2931
  173ETHOX  H2362997  10.699   9.076  13.132 -0.7895  1.7537 -0.3026
  174ETHOX   O162998  10.778   9.254  13.190  0.2159 -0.0710 -0.0446
  174ETHOX   C162999  10.859   9.271  13.079 -0.6954 -0.0158 -0.1540
  174ETHOX  H1163000  10.875   9.378  13.057 -0.4418 -0.2277 -1.0277
  174ETHOX  H1363001  10.955   9.221  13.107 -1.2431 -0.7940  0.3840
  174ETHOX   C263002  10.816   9.208  12.942 -0.3320 -0.1903 -0.3290
  174ETHOX  H2163003  10.810   9.097  12.950  1.4320 -0.4910 -2.3239
  174ETHOX  H2363004  10.898   9.229  12.870  0.1883  1.2245  0.6344
  175ETHOX   O163005  10.700   9.268  12.895  0.4826 -0.5959  0.2165
  175ETHOX   C163006  10.658   9.206  12.770 -0.4726 -0.1370  0.1325
  175ETHOX  H1163007  10.741   9.235  12.702 -0.8749 -1.7770 -1.1347
  175ETHOX  H1363008  10.652   9.096  12.786 -2.0583 -0.2271 -0.9291
  175ETHOX   C263009  10.520   9.267  12.726 -0.2375  0.0544 -0.3331
  175ETHOX  H2163010  10.511   9.231  12.622  0.7678 -1.9676  0.2238
  175ETHOX  H2363011  10.541   9.376  12.720  0.0682  0.0778  0.8899
  176ETHOX   O163012  10.409   9.235  12.815  0.3512  0.1244  0.1785
  176ETHOX   C163013  10.287   9.252  12.751 -0.1635  0.4840 -0.0494
  176ETHOX  H1163014  10.295   9.354  12.706  1.9449  0.8810  1.0784
  176ETHOX  H1363015  10.273   9.175  12.672 -0.5402 -1.1156  1.5206
  176ETHOX   C263016  10.173   9.239  12.850 -0.8984 -0.2678  0.8083
  176ETHOX  H2163017  10.079   9.267  12.797 -0.0371 -2.3073 -2.0342
  176ETHOX  H2363018  10.192   9.302  12.939  4.1822  0.7890 -0.7330
  177ETHOX   O163019  10.156   9.101  12.894 -0.5591  0.2432  0.5399
  177ETHOX   C163020  10.074   9.090  13.006 -0.2148  0.0161  0.3137
  177ETHOX  H1163021   9.973   9.136  12.994  0.3492  1.1552 -0.1815
  177ETHOX  H1363022  10.116   9.157  13.084  2.4226  2.4437 -2.8843
  177ETHOX   C263023  10.048   8.946  13.049  0.1239 -0.0215 -0.1737
  177ETHOX  H2163024   9.991   8.948  13.144  2.5471  1.4802  1.3480
  177ETHOX  H2363025  10.147   8.901  13.071  0.3611  1.3677  1.8240
  178ETHOX   O163026   9.972   8.868  12.953  0.2376 -0.0748  0.3398
  178ETHOX   C163027   9.942   8.743  13.017 -0.1218 -0.1591 -0.0187
  178ETHOX  H1163028  10.033   8.705  13.069 -1.5780 -3.6621  0.2244
  178ETHOX  H1363029   9.869   8.756  13.099 -2.4915  0.3604 -2.0861
  178ETHOX   C263030   9.907   8.649  12.908  0.0314  0.7276  0.2418
  178ETHOX  H2163031   9.815   8.671  12.850  0.9429  1.4144 -0.9779
  178ETHOX  H2363032   9.870   8.561  12.965  1.8577  0.8482  1.7290
  179ETHOX   O163033  10.010   8.617  12.815 -0.6687 -0.3598  0.1881
  179ETHOX   C163034   9.959   8.571  12.689 -0.1274  0.1508  0.1227
  179ETHOX  H1163035   9.898   8.648  12.638 -0.7419 -1.1419 -1.1577
  179ETHOX  H1363036   9.898   8.479  12.699 -0.1122  0.2439  1.1747
  179ETHOX   C263037  10.076   8.547  12.589 -0.3781  0.0203  0.1002
  179ETHOX  H2163038  10.143   8.636  12.589 -0.4457  0.0836  0.9249
  179ETHOX  H2363039  10.029   8.542  12.489 -1.1891 -1.9903  0.5402
  180ETHOX   O163040  10.159   8.432  12.607  0.1328 -0.0122  0.3712
  180ETHOX   C163041  10.279   8.440  12.531 -0.1678 -0.4873  0.0944
  180ETHOX  H1163042  10.265   8.472  12.426  1.9714 -0.0399 -0.1164
  180ETHOX  H1363043  10.351   8.506  12.584  1.3952  0.0550 -2.5278
  180ETHOX   C263044  10.341   8.301  12.514 -0.7273  0.2732 -0.6263
  180ETHOX  H2163045  10.341   8.249  12.612 -1.0601  1.7623  0.1946
  180ETHOX  H2363046  10.448   8.315  12.486 -0.5364  0.5791  0.2228
  181ETHOX   O163047  10.294   8.212  12.408  0.3825 -0.0035  0.0197
  181ETHOX   C163048  10.350   8.084  12.400 -0.6042  0.1965  0.1384
  181ETHOX  H1163049  10.312   8.027  12.488 -1.3353  0.3025 -0.1075
  181ETHOX  H1363050  10.461   8.086  12.396 -0.5790  1.1398  0.8515
  181ETHOX   C263051  10.306   8.010  12.273  0.5391  0.9500  0.2116
  181ETHOX  H2163052  10.370   7.920  12.263  1.7797  1.8708 -0.4966
  181ETHOX  H2363053  10.324   8.064  12.178  0.0307  0.2639 -0.2815
  182ETHOX   O163054  10.165   7.982  12.267  0.0833 -0.1185  0.2676
  182ETHOX   C163055  10.117   7.933  12.141 -0.8852  0.1944 -0.3910
  182ETHOX  H1163056  10.095   8.016  12.071  1.7124 -0.0258 -1.5836
  182ETHOX  H1363057  10.201   7.882  12.089 -0.6758  0.2801 -0.1354
  182ETHOX   C263058   9.979   7.869  12.159  0.3562 -0.1832 -0.0557
  182ETHOX  H2163059   9.926   7.867  12.061  1.2912 -0.3144 -0.5704
  182ETHOX  H2363060   9.916   7.940  12.216  0.1325 -0.0880 -0.4134
  183ETHOX   O163061   9.974   7.742  12.223  1.1746 -0.4423 -0.1607
  183ETHOX   C163062   9.841   7.692  12.232  0.1077  0.2758 -0.0088
  183ETHOX  H1163063   9.803   7.678  12.128  0.5656  0.0106 -0.1401
  183ETHOX  H1363064   9.780   7.772  12.279  0.2949 -0.7697  2.1352
  183ETHOX   C263065   9.840   7.568  12.315 -0.8015  0.0229 -0.9538
  183ETHOX  H2163066   9.839   7.611  12.418 -3.4088  1.3707 -1.4746
  183ETHOX  H2363067   9.933   7.514  12.286 -2.4526 -2.0590 -2.7572
  184ETHOX   O163068   9.732   7.482  12.293 -0.1765 -0.6061  0.0068
  184ETHOX   C163069   9.743   7.347  12.336  0.2868 -0.2258  0.5862
  184ETHOX  H1163070   9.682   7.285  12.267 -0.6918  1.1171  0.2002
  184ETHOX  H1363071   9.846   7.312  12.311  0.3248  0.1529  0.1983
  184ETHOX   C263072   9.706   7.318  12.481 -0.4241 -0.1122 -0.6221
  184ETHOX  H2163073   9.787   7.369  12.537 -0.6755  0.0645 -0.4214
  184ETHOX  H2363074   9.715   7.209  12.501 -0.3309  0.2389  1.4083
  185ETHOX   O163075   9.575   7.368  12.520 -0.4610  0.1838  0.1667
  185ETHOX   C163076   9.570   7.357  12.665  0.9765  0.1933  0.7412
  185ETHOX  H1163077   9.567   7.250  12.696  1.8066  0.0881  0.4700
  185ETHOX  H1363078   9.652   7.416  12.710 -0.1168  1.7457  0.7624
  185ETHOX   C263079   9.433   7.411  12.712  1.1586 -0.0533 -0.4723
  185ETHOX  H2163080   9.424   7.508  12.659 -0.0260 -1.4634 -3.0347
  185ETHOX  H2363081   9.437   7.427  12.822  1.0741  0.7925 -0.5859
  186ETHOX   O163082   9.326   7.325  12.688 -0.0377  0.3508  0.1257
  186ETHOX   C163083   9.199   7.379  12.716 -0.2544  0.3370  0.2057
  186ETHOX  H1163084   9.166   7.381  12.822 -1.6202 -1.1794 -0.1623
  186ETHOX  H1363085   9.189   7.477  12.665  1.2657  0.2116 -0.3887
  186ETHOX   C263086   9.082   7.296  12.645  0.0841 -0.3124 -0.2915
  186ETHOX  H2163087   9.097   7.298  12.535 -1.9553 -3.8117 -0.7602
  186ETHOX  H2363088   8.986   7.344  12.673  0.3911  2.1050 -2.9097
  187ETHOX   O163089   9.091   7.160  12.689  0.2162 -0.8475 -0.4392
  187ETHOX   C163090   9.015   7.069  12.606 -0.3763 -0.4561 -0.1454
  187ETHOX  H1163091   8.909   7.099  12.593 -1.3567 -2.9861  1.2444
  187ETHOX  H1363092   9.063   7.053  12.507  1.0106 -0.6880  0.5404
  187ETHOX   C263093   9.020   6.927  12.671  0.7647 -0.5395  0.0969
  187ETHOX  H2163094   8.957   6.865  12.603  1.8086 -1.5597  0.0421
  187ETHOX  H2363095   8.970   6.933  12.770 -0.6334  1.6126 -0.6678
  188ETHOX   O163096   9.144   6.854  12.684 -0.1662 -0.2010  0.8919
  188ETHOX   C163097   9.120   6.715  12.711 -0.1370 -0.2456  0.4459
  188ETHOX  H1163098   9.064   6.673  12.625  1.0998 -0.4710 -0.2739
  188ETHOX  H1363099   9.066   6.690  12.806  0.1795 -1.8028  0.2394
  188ETHOX   C263100   9.256   6.640  12.729  0.3232  0.1902 -0.5912
  188ETHOX  H2163101   9.229   6.556  12.797  1.1380  1.2071  1.0566
  188ETHOX  H2363102   9.331   6.706  12.777  1.7211  1.4361 -4.1480
  189ETHOX   O163103   9.329   6.580  12.629  0.4556 -0.8141 -0.4177
  189ETHOX   C163104   9.381   6.668  12.532  0.6229  0.4362 -0.0612
  189ETHOX  H1163105   9.300   6.743  12.516  0.7659  0.6089  0.0188
  189ETHOX  H1363106   9.471   6.707  12.584  1.7103 -1.1797 -0.6497
  189ETHOX   C263107   9.429   6.584  12.410 -0.2116  0.1244 -0.6499
  189ETHOX  H2163108   9.500   6.502  12.434  0.6543  1.2019  0.6189
  189ETHOX  H2363109   9.482   6.654  12.342  1.4458  1.0859  1.5110
  190ETHOX   O163110   9.314   6.535  12.333 -0.1250  0.2008  0.0012
  190ETHOX   C163111   9.354   6.501  12.198  0.1165  0.0169 -0.0469
  190ETHOX  H1163112   9.387   6.395  12.210  0.4475  0.1472  0.1943
  190ETHOX  H1363113   9.453   6.542  12.168  0.1419 -1.6356 -2.5470
  190ETHOX   C263114   9.256   6.528  12.080  0.1675  0.1887 -0.3787
  190ETHOX  H2163115   9.152   6.510  12.115  0.0688  0.3633 -0.5758
  190ETHOX  H2363116   9.284   6.457  11.999  1.7026 -1.2468  1.3498
  191ETHOX   O163117   9.272   6.663  12.042 -0.2412 -0.3642 -1.1173
  191ETHOX   C163118   9.216   6.687  11.916  0.4072  0.2861 -0.0492
  191ETHOX  H1163119   9.277   6.633  11.841  1.0402  1.2918 -0.2643
  191ETHOX  H1363120   9.110   6.652  11.912  0.5484 -0.0461 -1.4502
  191ETHOX   C263121   9.210   6.839  11.889  0.1461  0.0283  0.0052
  191ETHOX  H2163122   9.166   6.859  11.789 -0.7567 -0.2742  0.3300
  191ETHOX  H2363123   9.310   6.886  11.895 -0.5279  2.1156 -2.8671
  192ETHOX   O163124   9.115   6.880  11.980 -0.3028  0.0023 -0.4083
  192ETHOX   C163125   9.123   7.026  12.005  0.2823  0.7972  0.0854
  192ETHOX  H1163126   9.107   7.085  11.912 -1.7055  0.6593  0.2916
  192ETHOX  H1363127   9.225   7.048  12.043 -0.0599  3.5660 -0.4039
  192ETHOX   C263128   9.023   7.085  12.105 -0.2926  0.1868  0.4442
  192ETHOX  H2163129   9.049   7.191  12.122  1.4303 -0.3360  1.2630
  192ETHOX  H2363130   9.021   7.017  12.193 -0.0475 -0.9021 -0.3727
  193ETHOX   O163131   8.889   7.082  12.051 -0.0620 -0.4264 -0.0645
  193ETHOX   C163132   8.787   7.138  12.137  0.1330  0.7259  0.1603
  193ETHOX  H1163133   8.797   7.101  12.241  0.8448 -0.4420 -0.2928
  193ETHOX  H1363134   8.795   7.248  12.137  3.3062  0.5998  1.7860
  193ETHOX   C263135   8.647   7.100  12.089 -0.2306  0.0149 -0.7564
  193ETHOX  H2163136   8.563   7.166  12.120 -0.1578  0.5152 -1.6164
  193ETHOX  H2363137   8.627   6.998  12.129  2.0297  0.2758  1.2223
  194ETHOX   O163138   8.629   7.097  11.948  0.1786 -0.2512  0.5516
  194ETHOX   C163139   8.509   7.027  11.919  0.1499  0.1777 -0.9864
  194ETHOX  H1163140   8.423   7.057  11.982 -1.0478  0.1093 -2.5536
  194ETHOX  H1363141   8.516   6.920  11.948 -0.7905  0.0736 -1.1416
  194ETHOX   C263142   8.476   7.022  11.772  0.3312  0.3595 -0.0672
  194ETHOX  H2163143   8.462   7.121  11.725 -0.6760  0.5625  0.6223
  194ETHOX  H2363144   8.384   6.960  11.767 -0.0118  0.5555  2.4403
  195ETHOX   O163145   8.579   6.946  11.716  0.3355  0.2631 -0.2920
  195ETHOX   C163146   8.537   6.886  11.595 -0.3879 -0.1423  0.3124
  195ETHOX  H1163147   8.444   6.830  11.617 -2.0630  2.8985  1.5342
  195ETHOX  H1363148   8.520   6.970  11.524  0.6835 -0.2876 -0.1363
  195ETHOX   C263149   8.656   6.802  11.548  0.2781 -0.1665 -0.5284
  195ETHOX  H2163150   8.757   6.833  11.582  0.2714  1.0527 -1.5605
  195ETHOX  H2363151   8.659   6.813  11.438 -0.2195  1.3204 -0.4152
  196ETHOX   O163152   8.651   6.659  11.568 -0.1408  0.3859  0.7538
  196ETHOX   C163153   8.648   6.631  11.702  0.8180  0.3764 -0.8393
  196ETHOX  H1163154   8.735   6.649  11.769  2.2229 -1.6797 -2.0096
  196ETHOX  H1363155   8.565   6.695  11.739  1.2194  1.7311 -2.2065
  196ETHOX   C263156   8.632   6.477  11.713 -0.6000 -0.1869 -0.0167
  196ETHOX  H2163157   8.576   6.441  11.625 -1.4847  0.2500  0.3562
  196ETHOX  H2363158   8.570   6.455  11.803  1.2416  0.8815  1.6059
  197ETHOX   O163159   8.763   6.422  11.723  0.1607  0.0722 -0.0385
  197ETHOX   C163160   8.815   6.395  11.594  0.8714  0.1155 -0.3611
  197ETHOX  H1163161   8.747   6.344  11.522 -0.6419 -1.5033  2.0561
  197ETHOX  H1363162   8.843   6.498  11.564  0.0213  0.5746  0.3440
  197ETHOX   C263163   8.944   6.307  11.602 -0.4932  0.2405 -0.5335
  197ETHOX  H2163164   8.987   6.324  11.703  0.5156  1.0901 -1.0797
  197ETHOX  H2363165   9.020   6.335  11.526  2.8420 -0.3107  2.3199
  198ETHOX   O163166   8.910   6.170  11.582  0.1881  0.5633  0.3879
  198ETHOX   C163167   8.838   6.105  11.682  0.4138 -0.6509  0.1370
  198ETHOX  H1163168   8.893   6.090  11.777 -1.5988 -1.1769  1.2848
  198ETHOX  H1363169   8.758   6.178  11.707 -0.0299 -1.1131  0.0827
  198ETHOX   C263170   8.769   5.977  11.639  0.8572 -0.0479  0.2690
  198ETHOX  H2163171   8.712   5.989  11.545 -1.7474  0.3325  1.8042
  198ETHOX  H2363172   8.694   5.953  11.718  0.5658  0.5240  0.1717
  199ETHOX   O163173   8.879   5.881  11.621  0.4053 -0.5276  0.6808
  199ETHOX   C163174   8.828   5.748  11.598  0.3670  0.6758 -0.0419
  199ETHOX  H1163175   8.812   5.726  11.490  1.2768 -0.4267  0.0286
  199ETHOX  H1363176   8.726   5.741  11.642  0.5312 -3.4524  0.0558
  199ETHOX   C263177   8.909   5.648  11.676 -0.2177 -0.0487 -0.2983
  199ETHOX  H2163178   8.878   5.544  11.653  2.3418 -0.5571 -1.8977
  199ETHOX  H2363179   8.908   5.672  11.784  1.5879 -0.1614 -0.2268
  200ETHOX   O163180   9.043   5.643  11.629 -0.0738  0.0847  0.3468
  200ETHOX   C163181   9.137   5.588  11.726 -0.2862 -1.1862 -0.6082
  200ETHOX  H1163182   9.133   5.653  11.816 -1.0847 -2.0824  0.0224
  200ETHOX  H1363183   9.101   5.491  11.767 -0.6966  0.3715  3.1162
  200ETHOX   C263184   9.284   5.571  11.678 -1.3515  0.6215 -0.2952
  200ETHOX  H2163185   9.333   5.521  11.764 -0.1256 -0.8593 -1.7815
  200ETHOX  H2363186   9.325   5.674  11.665  2.7945 -0.5620  1.5941
  201ETHOX   O163187   9.297   5.499  11.554  0.8256  0.3817 -0.2784
  201ETHOX   C163188   9.438   5.463  11.532  0.3135 -0.6590 -0.3960
  201ETHOX  H1163189   9.492   5.560  11.531  1.1549 -1.0896 -2.8831
  201ETHOX  H1363190   9.455   5.436  11.426 -1.2420  2.4849 -1.5788
  201ETHOX   C263191   9.496   5.356  11.622 -0.0849 -0.1819 -0.2936
  201ETHOX  H2163192   9.453   5.364  11.723  0.4359 -1.2038  0.0253
  201ETHOX  H2363193   9.604   5.377  11.640 -0.3321  0.0961  0.9302
  202ETHOX   O163194   9.462   5.235  11.554  0.2727  0.1743 -0.2432
  202ETHOX   C163195   9.506   5.121  11.637  0.5713 -0.1983 -0.2273
  202ETHOX  H1163196   9.489   5.135  11.746 -1.0101 -1.4605 -0.2612
  202ETHOX  H1363197   9.433   5.042  11.608 -1.4416  2.2107 -2.2933
  202ETHOX   C263198   9.644   5.066  11.605 -0.1146  0.0430  0.1335
  202ETHOX  H2163199   9.635   5.034  11.498  0.8055  0.0059  0.0601
  202ETHOX  H2363200   9.655   4.974  11.665  1.2900  0.2834  0.2861
  203ETHOX   O163201   9.755   5.152  11.635  0.1860  0.1034 -0.2156
  203ETHOX   C163202   9.870   5.078  11.619 -1.0781 -0.8026  0.0167
  203ETHOX  H1163203   9.873   5.014  11.528  0.5155 -2.5098  1.1979
  203ETHOX  H1363204   9.892   5.014  11.707  2.3773  0.9502  0.5855
  203ETHOX   C263205   9.991   5.182  11.624  0.1478 -0.4450 -0.0597
  203ETHOX  H2163206  10.083   5.137  11.667 -0.1438  0.8882  2.1407
  203ETHOX  H2363207   9.978   5.249  11.712  0.4518 -1.2568  0.6147
  204ETHOX   O163208  10.001   5.258  11.504 -0.1465 -0.2825 -0.3039
  204ETHOX   C163209  10.056   5.183  11.393  0.0935 -0.4265  0.6589
  204ETHOX  H1163210  10.160   5.152  11.416  0.3076 -0.4486 -0.2883
  204ETHOX  H1363211  10.010   5.082  11.385  2.2827 -1.5559  1.5548
  204ETHOX   C263212  10.050   5.265  11.259 -0.9374 -0.5617 -0.1807
  204ETHOX  H2163213   9.944   5.283  11.233 -0.4731 -0.4373 -2.1913
  204ETHOX  H2363214  10.087   5.206  11.172 -0.5660  1.0069 -1.1229
  205ETHOX   O163215  10.139   5.378  11.268  0.1469 -0.3261 -0.1727
  205ETHOX   C163216  10.099   5.462  11.164 -0.8807  0.9809  0.0734
  205ETHOX  H1163217   9.992   5.491  11.169 -0.3630  2.9094  1.2628
  205ETHOX  H1363218  10.123   5.421  11.064 -1.9982  1.9992 -0.6440
  205ETHOX   C263219  10.168   5.604  11.183 -0.1036 -0.3381 -0.3685
  205ETHOX  H2163220  10.131   5.672  11.103  0.4852 -0.0781 -0.4245
  205ETHOX  H2363221  10.278   5.593  11.172 -0.2991 -1.6891 -1.3695
  206ETHOX   O163222  10.135   5.660  11.311 -0.0806  0.2146 -0.0239
  206ETHOX   C163223  10.139   5.801  11.317  0.4250 -0.0283  0.1135
  206ETHOX  H1163224  10.236   5.835  11.273  0.8631  0.6803  1.5474
  206ETHOX  H1363225  10.057   5.829  11.248  1.5149 -0.6406 -1.4874
  206ETHOX   C263226  10.118   5.870  11.452 -0.7884 -0.3210 -0.2723
  206ETHOX  H2163227  10.124   5.981  11.455  2.4215 -0.4332  1.3115
  206ETHOX  H2363228  10.015   5.844  11.484 -1.1181  0.9741 -0.2031
  207ETHOX   O163229  10.206   5.820  11.549  0.1958 -0.1841 -0.4323
  207ETHOX   C163230  10.341   5.859  11.517 -0.4588 -0.1603 -0.1358
  207ETHOX  H1163231  10.350   5.964  11.483  0.4860 -0.8526 -2.1437
  207ETHOX  H1363232  10.388   5.794  11.441 -1.0291  0.3163 -0.9014
  207ETHOX   C263233  10.435   5.851  11.642 -0.7043  0.1637  0.0394
  207ETHOX  H2163234  10.532   5.865  11.591 -0.6862 -1.0633 -0.2814
  207ETHOX  H2363235  10.435   5.755  11.697 -2.0644  0.3108  0.3395
  208ETHOX   O163236  10.415   5.955  11.738 -0.0605  0.2947 -0.0340
  208ETHOX   C163237  10.506   5.945  11.845 -0.3986  0.1368 -0.2418
  208ETHOX  H1163238  10.515   5.835  11.860  1.1643  0.2569 -0.1210
  208ETHOX  H1363239  10.601   5.998  11.822 -0.3874  0.6067  0.8325
  208ETHOX   C263240  10.451   6.007  11.978  0.5429  0.4070  0.3573
  208ETHOX  H2163241  10.512   5.983  12.068 -0.9753 -2.3239  0.7581
  208ETHOX  H2363242  10.353   5.957  11.996  1.1271 -1.4733 -1.3893
  209ETHOX   O163243  10.428   6.142  11.961 -0.6260  0.4630  0.4161
  209ETHOX   C163244  10.399   6.212  12.079 -0.2801 -0.1486 -0.2128
  209ETHOX  H1163245  10.440   6.312  12.055 -1.6167  0.4807  0.0636
  209ETHOX  H1363246  10.454   6.160  12.161 -0.5574 -1.4387 -0.8184
  209ETHOX   C263247  10.253   6.227  12.113  0.0156  0.1629  0.1183
  209ETHOX  H2163248  10.252   6.274  12.214 -0.8371  0.1836  0.1020
  209ETHOX  H2363249  10.202   6.129  12.110  0.2931  0.0230 -3.0673
  210ETHOX   O163250  10.195   6.327  12.030 -0.4004  1.0984  0.0984
  210ETHOX   C163251  10.086   6.386  12.093 -0.0627  0.0698 -0.2468
  210ETHOX  H1163252  10.019   6.302  12.123 -0.2739 -0.6756 -2.6605
  210ETHOX  H1363253  10.122   6.432  12.188  0.2887 -2.8071  1.1390
  210ETHOX   C263254  10.000   6.487  12.018  0.6291  0.2388 -0.2624
  210ETHOX  H2163255   9.920   6.501  12.093  0.3643 -1.4732 -0.1837
  210ETHOX  H2363256   9.957   6.442  11.925  0.9798  4.0600 -2.4830
  211ETHOX   O163257  10.071   6.598  11.965  0.4338 -0.0627  0.1619
  211ETHOX   C163258   9.977   6.702  11.932  0.2683  0.7398 -0.1449
  211ETHOX  H1163259   9.931   6.676  11.835  1.8697 -1.4327 -0.3907
  211ETHOX  H1363260   9.903   6.722  12.013 -0.3295 -0.4605 -0.3755
  211ETHOX   C263261  10.053   6.831  11.919  0.2111  0.1485 -0.1402
  211ETHOX  H2163262  10.123   6.848  12.004  1.1945 -3.0082 -0.1984
  211ETHOX  H2363263   9.989   6.919  11.897 -0.2470 -0.3269 -0.7542
  212ETHOX   O163264  10.131   6.816  11.802  0.4322 -0.1701 -0.5799
  212ETHOX   C163265  10.234   6.914  11.803 -0.4852 -0.2476  0.4169
  212ETHOX  H1163266  10.186   7.013  11.794 -0.7350 -0.4213 -0.2171
  212ETHOX  H1363267  10.305   6.912  11.888 -0.4789  0.3954  0.4277
  212ETHOX   C263268  10.308   6.895  11.665 -0.4564  0.3535  0.6449
  212ETHOX  H2163269  10.355   6.794  11.676  0.1634  0.7171  1.4585
  212ETHOX  H2363270  10.399   6.958  11.676 -0.7299  0.8398  0.1027
  213ETHOX   O163271  10.231   6.910  11.544 -0.1115 -0.2275 -0.2173
  213ETHOX   C163272  10.300   6.874  11.422 -0.4601  0.6953  0.3140
  213ETHOX  H1163273  10.409   6.891  11.439 -0.5710  0.0379  1.9645
  213ETHOX  H1363274  10.280   6.770  11.390 -1.7759  0.8607  0.5390
  213ETHOX   C263275  10.255   6.957  11.300 -0.3989  1.2000 -0.1557
  213ETHOX  H2163276  10.331   6.953  11.219 -0.0974  1.8963  0.0872
  213ETHOX  H2363277  10.250   7.060  11.340  0.4108  0.4704  1.9846
  214ETHOX   O163278  10.141   6.900  11.238  0.1425  0.3005  0.4214
  214ETHOX   C163279  10.097   6.981  11.130  0.6480  0.4431  0.4645
  214ETHOX  H1163280  10.146   6.942  11.038 -1.5858  2.7169 -1.8556
  214ETHOX  H1363281  10.127   7.088  11.133  0.6237  0.4373  1.0470
  214ETHOX   C263282   9.944   6.957  11.111 -0.4126  0.8501 -0.3421
  214ETHOX  H2163283   9.897   7.018  11.031 -1.1851  2.2556  1.1153
  214ETHOX  H2363284   9.898   6.998  11.204 -0.4109 -1.9538  1.0130
  215ETHOX   O163285   9.923   6.819  11.087  0.0308 -0.2382 -0.2052
  215ETHOX   C163286   9.791   6.785  11.125 -0.1829 -0.1921  0.2638
  215ETHOX  H1163287   9.782   6.675  11.132 -1.0043 -0.0926  1.0400
  215ETHOX  H1363288   9.767   6.819  11.228  0.4204  1.5361 -0.1323
  215ETHOX   C263289   9.685   6.850  11.025 -0.7576 -0.4395 -0.0997
  215ETHOX  H2163290   9.695   6.959  11.042  0.9564 -0.1371 -2.4617
  215ETHOX  H2363291   9.586   6.810  11.057 -1.4540 -0.2274 -1.8600
  216ETHOX   O163292   9.692   6.803  10.892  0.1753 -0.0961  0.2106
  216ETHOX   C163293   9.644   6.902  10.801  1.0798 -0.2137  0.0113
  216ETHOX  H1163294   9.709   6.992  10.800 -0.1345  0.7142 -2.1875
  216ETHOX  H1363295   9.542   6.939  10.826  0.1484 -3.0402  0.7362
  216ETHOX   C263296   9.637   6.851  10.659 -0.3401 -0.2159 -0.3302
  216ETHOX  H2163297   9.738   6.816  10.630  0.2871  1.3766 -0.2069
  216ETHOX  H2363298   9.606   6.935  10.593  0.3639 -1.0244 -1.7073
  217ETHOX   O163299   9.543   6.753  10.647 -0.5070  0.0048  0.4030
  217ETHOX   C163300   9.569   6.676  10.526  0.8196 -0.0989  0.4363
  217ETHOX  H1163301   9.537   6.735  10.438  0.9903 -0.6672 -0.0130
  217ETHOX  H1363302   9.673   6.642  10.508  0.2432 -1.6047 -0.2218
  217ETHOX   C263303   9.473   6.558  10.534  0.1624 -0.3310  0.3782
  217ETHOX  H2163304   9.456   6.515  10.434 -0.3290 -1.7293  1.0367
  217ETHOX  H2363305   9.377   6.586  10.583  0.0569 -0.1825  0.0936
  218ETHOX   O163306   9.526   6.462  10.618 -0.5288 -0.8214  0.3250
  218ETHOX   C163307   9.467   6.331  10.590 -0.3193 -0.2170  0.2629
  218ETHOX  H1163308   9.533   6.252  10.632  0.6729 -1.4429 -3.2303
  218ETHOX  H1363309   9.464   6.314  10.481 -2.2184  0.3815  0.1896
  218ETHOX   C263310   9.319   6.306  10.627 -0.7858  0.2384  0.6870
  218ETHOX  H2163311   9.280   6.331  10.728 -2.4470  0.4000  0.0369
  218ETHOX  H2363312   9.313   6.196  10.616  1.3903  0.2707 -1.7239
  219ETHOX   O163313   9.217   6.349  10.538  0.0377  0.0020 -0.1557
  219ETHOX   C163314   9.087   6.313  10.586 -0.7044 -0.1627  0.0076
  219ETHOX  H1163315   9.076   6.211  10.629  2.1779 -1.2204 -1.4227
  219ETHOX  H1363316   9.055   6.390  10.659 -0.1562 -0.3474  0.4561
  219ETHOX   C263317   8.989   6.300  10.468 -0.5931  0.2540 -0.1064
  219ETHOX  H2163318   8.886   6.274  10.498 -0.8578 -0.2343 -1.3954
  219ETHOX  H2363319   9.027   6.220  10.400  1.6063  0.9631  0.1887
  220ETHOX   O163320   8.987   6.413  10.381  0.0698 -0.0553  0.5175
  220ETHOX   C163321   8.901   6.514  10.436 -0.5104 -0.4250  0.6775
  220ETHOX  H1163322   8.919   6.542  10.542 -0.4172  3.2781 -0.1879
  220ETHOX  H1363323   8.794   6.487  10.434 -0.3654 -1.0768 -1.6673
  220ETHOX   C263324   8.914   6.648  10.357  0.5753  0.1019 -0.0523
  220ETHOX  H2163325   9.022   6.668  10.371  1.0811 -2.6096  0.3833
  220ETHOX  H2363326   8.855   6.729  10.407  0.0854  0.4688 -1.1779
  221ETHOX   O163327   8.865   6.662  10.225 -0.6039  0.2378  0.3462
  221ETHOX   C163328   8.930   6.767  10.155 -0.5725  0.4092 -0.7248
  221ETHOX  H1163329   8.881   6.864  10.179  0.5721  0.7794  0.1622
  221ETHOX  H1363330   9.039   6.773  10.176 -0.4636 -2.1349 -0.2662
  221ETHOX   C263331   8.910   6.751  10.004  0.0191  0.5679  0.3217
  221ETHOX  H2163332   8.926   6.848   9.954  1.5063  1.4680  2.3913
  221ETHOX  H2363333   8.803   6.727   9.990 -0.2775  2.8482 -1.8876
  222ETHOX   O163334   8.986   6.652   9.932 -0.4856  0.1585 -0.1126
  222ETHOX   C163335   9.127   6.658   9.971 -0.2397  1.4888 -0.3225
  222ETHOX  H1163336   9.166   6.751  10.017 -0.6608  1.0737  0.9205
  222ETHOX  H1363337   9.116   6.584  10.054 -0.7741  0.9601 -0.8557
  222ETHOX   C263338   9.207   6.584   9.865 -0.3337  0.4917  0.1795
  222ETHOX  H2163339   9.178   6.480   9.841  1.5756 -0.1289  0.3890
  222ETHOX  H2363340   9.312   6.581   9.902 -0.4942  1.1822  0.7161
  223ETHOX   O163341   9.206   6.657   9.741 -0.6369 -0.8801  0.0237
  223ETHOX   C163342   9.279   6.782   9.737  0.2995  0.6076 -0.6252
  223ETHOX  H1163343   9.306   6.808   9.842 -1.2660  2.0950 -0.5382
  223ETHOX  H1363344   9.376   6.773   9.684  1.1372 -0.9638  1.0402
  223ETHOX   C263345   9.190   6.884   9.674 -0.5290 -0.4170  0.6088
  223ETHOX  H2163346   9.227   6.989   9.672 -0.2773 -0.5125 -0.3214
  223ETHOX  H2363347   9.091   6.898   9.721  0.1310  1.8296  1.4678
  224ETHOX   O163348   9.181   6.842   9.540  0.3644 -0.1938 -0.1518
  224ETHOX   C163349   9.097   6.931   9.468 -0.0107 -0.6010 -0.0174
  224ETHOX  H1163350   8.998   6.883   9.455 -0.6098  0.6508 -0.2101
  224ETHOX  H1363351   9.088   7.028   9.521  0.1168 -0.4086 -0.3438
  224ETHOX   C263352   9.142   6.963   9.324 -0.3469  0.2244 -0.3425
  224ETHOX  H2163353   9.056   7.003   9.265  0.6313  0.6857 -1.5028
  224ETHOX  H2363354   9.171   6.863   9.286 -0.2944 -0.7004  1.9488
  225ETHOX   O163355   9.253   7.054   9.308  0.5554  0.6263  0.3830
  225ETHOX   C163356   9.283   7.075   9.164 -0.1064  0.4468 -0.5957
  225ETHOX  H1163357   9.191   7.093   9.106 -0.8419  0.9609  0.6827
  225ETHOX  H1363358   9.328   6.977   9.136  1.8908  0.5111  1.9810
  225ETHOX   C263359   9.378   7.187   9.147 -0.0821 -0.0169 -0.4928
  225ETHOX  H2163360   9.359   7.265   9.223  0.7006  0.0014 -0.3069
  225ETHOX  H2363361   9.362   7.240   9.051  2.8293  0.4656 -0.7999
  226ETHOX   O163362   9.515   7.149   9.166 -0.3280  0.5257 -0.3365
  226ETHOX   C163363   9.613   7.241   9.121 -0.0539 -0.0814 -0.4606
  226ETHOX  H1163364   9.643   7.214   9.017  2.2490 -0.4746  0.2605
  226ETHOX  H1363365   9.598   7.349   9.141  2.2515  0.8250 -2.9965
  226ETHOX   C263366   9.739   7.206   9.204 -0.6134  0.1500  0.2917
  226ETHOX  H2163367   9.712   7.213   9.312  0.0386 -1.1867  0.5631
  226ETHOX  H2363368   9.804   7.293   9.180 -1.6844  0.7001 -0.7442
  227ETHOX   O163369   9.791   7.083   9.162 -0.1744 -0.6118 -0.4307
  227ETHOX   C163370   9.912   7.049   9.228 -0.4492  0.4830  0.1450
  227ETHOX  H1163371   9.984   7.133   9.221 -0.1284  0.2748  0.8370
  227ETHOX  H1363372   9.952   6.962   9.172  0.1664  1.6445 -1.2946
  227ETHOX   C263373   9.884   6.996   9.369 -0.1053  0.0806  0.3837
  227ETHOX  H2163374   9.851   7.081   9.432  1.3332 -1.3345  3.2524
  227ETHOX  H2363375   9.981   6.967   9.415 -0.3135  0.5574  1.1360
  228ETHOX   O163376   9.782   6.894   9.385  0.2897 -0.0637  0.3964
  228ETHOX   C163377   9.656   6.945   9.436 -0.3983 -0.3806 -0.3410
  228ETHOX  H1163378   9.673   6.998   9.531 -0.5957  0.3325 -0.6936
  228ETHOX  H1363379   9.607   7.015   9.365 -1.8840 -1.0062  0.0194
  228ETHOX   C263380   9.560   6.827   9.448  0.3806 -0.8207 -0.4211
  228ETHOX  H2163381   9.468   6.865   9.498  0.5739 -0.4985 -0.3063
  228ETHOX  H2363382   9.610   6.756   9.517  1.7399  0.5416  0.0515
  229ETHOX   O163383   9.534   6.763   9.320  0.1052 -0.2180  0.5727
  229ETHOX   C163384   9.462   6.647   9.331 -0.2833  0.0827 -0.1531
  229ETHOX  H1163385   9.359   6.683   9.355 -0.3622 -0.4765  0.3506
  229ETHOX  H1363386   9.498   6.591   9.419 -0.3596 -0.2116 -0.3079
  229ETHOX   C263387   9.466   6.563   9.204 -0.1157 -0.0359 -0.4211
  229ETHOX  H2163388   9.423   6.606   9.111 -0.1050  0.2886 -0.2791
  229ETHOX  H2363389   9.396   6.479   9.224  0.0981 -0.7371 -2.3825
  230ETHOX   O163390   9.595   6.514   9.177  0.2240  0.2097  0.2239
  230ETHOX   C163391   9.600   6.413   9.080  0.0976  0.4165  0.9026
  230ETHOX  H1163392   9.522   6.334   9.085 -0.2228  0.6075 -0.5883
  230ETHOX  H1363393   9.577   6.471   8.988 -1.1086  0.9366  1.5110
  230ETHOX   C263394   9.740   6.352   9.065  0.3600 -1.0534  0.8095
  230ETHOX  H2163395   9.814   6.431   9.042 -2.5242  1.2386 -1.3523
  230ETHOX  H2363396   9.733   6.287   8.975  1.0411  0.3295 -0.2732
  231ETHOX   O163397   9.780   6.285   9.180 -0.6690  0.3648 -0.2518
  231ETHOX   C163398   9.922   6.296   9.193 -0.3196  0.4479  0.3970
  231ETHOX  H1163399   9.954   6.400   9.214 -1.4087  1.8296 -3.8078
  231ETHOX  H1363400   9.963   6.271   9.093 -1.1676  2.7540 -0.5851
  231ETHOX   C263401   9.975   6.186   9.291 -0.4672  0.0496 -0.2592
  231ETHOX  H2163402  10.085   6.180   9.279 -0.2903  1.8801  0.1955
  231ETHOX  H2363403   9.948   6.079   9.278  0.7679 -0.2621 -0.3947
  232ETHOX   O163404   9.963   6.226   9.430 -0.4858  0.3061  0.4488
  232ETHOX   C163405  10.048   6.166   9.529 -0.5852 -0.0832  0.2796
  232ETHOX  H1163406  10.068   6.062   9.494  0.8513 -0.0709  0.9976
  232ETHOX  H1363407  10.144   6.222   9.531 -1.3923  1.3759 -0.1261
  232ETHOX   C263408   9.992   6.153   9.671  0.3161 -0.1794  0.3848
  232ETHOX  H2163409   9.986   6.251   9.722  0.3849  0.0378 -0.0232
  232ETHOX  H2363410  10.072   6.101   9.728  1.3810  2.8172  1.7948
  233ETHOX   O163411   9.871   6.082   9.668 -0.1413 -0.9503  0.3504
  233ETHOX   C163412   9.832   6.068   9.804 -0.0677 -0.1211  0.1244
  233ETHOX  H1163413   9.916   6.019   9.859  1.3294  1.5622 -0.4205
  233ETHOX  H1363414   9.806   6.166   9.849 -1.1356 -0.9979  1.5215
  233ETHOX   C263415   9.706   5.981   9.793  0.0390 -0.2199 -0.7396
  233ETHOX  H2163416   9.741   5.885   9.750 -2.6667 -0.8595 -1.7288
  233ETHOX  H2363417   9.625   6.022   9.730  1.0575 -0.8857 -2.5450
  234ETHOX   O163418   9.664   5.970   9.931  0.3407 -0.8483 -0.2808
  234ETHOX   C163419   9.553   5.884   9.951  0.1605 -0.5312  0.8579
  234ETHOX  H1163420   9.464   5.921   9.896 -0.6575 -1.1549  1.7328
  234ETHOX  H1363421   9.582   5.787   9.904 -0.9593  0.6121 -2.5249
  234ETHOX   C263422   9.514   5.867  10.101  0.5314  0.0850  0.2344
  234ETHOX  H2163423   9.479   5.968  10.130  0.3779 -0.0491  0.5202
  234ETHOX  H2363424   9.608   5.825  10.143  1.0944 -0.3005 -1.3338
  235ETHOX   O163425   9.421   5.764  10.116  0.5125 -0.2490  0.3157
  235ETHOX   C163426   9.290   5.811  10.105 -0.8516  0.4228 -0.0877
  235ETHOX  H1163427   9.267   5.863  10.200 -1.1396  1.9470 -0.9562
  235ETHOX  H1363428   9.265   5.882  10.023  0.2604  1.3164  0.3288
  235ETHOX   C263429   9.200   5.688  10.095 -0.1055 -0.2782  0.7664
  235ETHOX  H2163430   9.233   5.631  10.006 -0.1422  0.8075  0.0263
  235ETHOX  H2363431   9.102   5.734  10.068  0.3865 -1.0538 -2.8935
  236ETHOX   O163432   9.183   5.614  10.215  0.1556 -0.2674 -0.1209
  236ETHOX   C163433   9.106   5.496  10.185  0.8606 -0.0471 -0.5971
  236ETHOX  H1163434   9.160   5.442  10.104 -0.6316 -0.9009 -1.0674
  236ETHOX  H1363435   9.008   5.524  10.140  0.2852 -1.8947 -0.5977
  236ETHOX   C263436   9.083   5.407  10.305 -0.0080 -0.3962 -0.4290
  236ETHOX  H2163437   9.168   5.406  10.377  1.1241 -0.8800 -1.7408
  236ETHOX  H2363438   9.067   5.310  10.254 -1.2697  1.0372 -2.9682
  237ETHOX   O163439   8.964   5.440  10.376  0.1467 -0.3166 -0.5207
  237ETHOX   C163440   8.947   5.575  10.423 -0.0995 -0.1539  0.1948
  237ETHOX  H1163441   9.047   5.613  10.453 -0.5354  0.2618  1.1498
  237ETHOX  H1363442   8.909   5.631  10.334  0.4151  1.4599  0.9418
  237ETHOX   C263443   8.857   5.592  10.545 -0.3588 -0.3702 -0.1551
  237ETHOX  H2163444   8.760   5.540  10.528 -0.8920 -0.2653  2.2174
  237ETHOX  H2363445   8.844   5.702  10.556  1.4638 -0.2015  0.5875
  238ETHOX   O163446   8.925   5.539  10.662  0.6550 -0.2738 -0.3066
  238ETHOX   C163447   8.836   5.564  10.778 -0.2795  0.3038 -0.0667
  238ETHOX  H1163448   8.771   5.479  10.807 -1.4531  0.9734 -0.6548
  238ETHOX  H1363449   8.774   5.653  10.753 -2.2632 -0.8567  0.5336
  238ETHOX   C263450   8.926   5.593  10.900 -0.3032  0.0090  0.2821
  238ETHOX  H2163451   9.012   5.525  10.883 -0.3827 -0.0371  0.0644
  238ETHOX  H2363452   8.876   5.561  10.994 -0.2060 -0.4248  0.1881
  239ETHOX   O163453   8.972   5.730  10.908  0.1835  0.2828  0.1564
  239ETHOX   C163454   9.040   5.756  11.036  0.2408 -0.1495  0.2253
  239ETHOX  H1163455   8.964   5.753  11.117 -0.0816 -3.8667 -0.0514
  239ETHOX  H1363456   9.118   5.679  11.057 -0.8602 -1.0988  0.9923
  239ETHOX   C263457   9.115   5.892  11.034  0.8075 -0.4658  0.3357
  239ETHOX  H2163458   9.179   5.890  11.125  0.9138  1.0057  0.3160
  239ETHOX  H2363459   9.175   5.896  10.940 -0.8788  0.6991 -0.7458
  240ETHOX   O163460   9.031   6.015  11.043 -0.3988 -0.0105  0.8655
  240ETHOX   C163461   9.101   6.137  11.002  0.2317 -0.4839  0.6855
  240ETHOX  H1163462   9.122   6.133  10.893  0.8513  1.1272  0.7225
  240ETHOX  H1363463   9.201   6.155  11.048 -0.2245  1.0772  1.1133
  240ETHOX   C263464   9.014   6.254  11.043  0.0513 -0.3889 -0.7102
  240ETHOX  H2163465   9.069   6.348  11.021  0.1534 -0.0978  0.7092
  240ETHOX  H2363466   8.996   6.249  11.152 -2.8811  0.1281 -1.1036
  241ETHOX   O163467   8.887   6.247  10.982  0.3452 -0.3268  0.1128
  241ETHOX   C163468   8.786   6.313  11.067  0.5077  0.2328  0.5004
  241ETHOX  H1163469   8.688   6.289  11.022  0.8999 -0.1264 -0.1834
  241ETHOX  H1363470   8.791   6.281  11.174  1.9125  2.3139  1.1197
  241ETHOX   C263471   8.797   6.469  11.061 -0.1404  0.2422  0.3229
  241ETHOX  H2163472   8.703   6.514  11.100 -2.5764 -1.4588 -3.0222
  241ETHOX  H2363473   8.787   6.496  10.953 -1.8674 -0.3247  0.3030
  242ETHOX   O163474   8.917   6.519  11.121  0.8784 -0.6400 -0.5865
  242ETHOX   C163475   8.895   6.542  11.261 -0.6620  0.5874 -0.3123
  242ETHOX  H1163476   8.852   6.460  11.322  1.3396  0.2130  0.6885
  242ETHOX  H1363477   8.823   6.626  11.274 -0.5593  0.9748 -2.0004
  242ETHOX   C263478   9.035   6.581  11.315 -0.6773 -0.0094 -0.8933
  242ETHOX  H2163479   9.114   6.507  11.293  0.0389  1.1371 -2.3511
  242ETHOX  H2363480   9.050   6.593  11.424  2.0802  1.8741 -1.3890
  243ETHOX   O163481   9.068   6.708  11.255 -0.4602  0.5503  0.2958
  243ETHOX   C163482   9.201   6.695  11.202  0.1522  0.2924 -0.5663
  243ETHOX  H1163483   9.265   6.640  11.275 -1.2675 -2.0342 -0.9605
  243ETHOX  H1363484   9.205   6.635  11.109 -0.6313  2.3036 -1.9702
  243ETHOX   C263485   9.250   6.832  11.177 -0.3152  0.3056  0.4411
  243ETHOX  H2163486   9.168   6.878  11.118 -0.2836  1.1946  1.0760
  243ETHOX  H2363487   9.347   6.836  11.122 -0.7054  0.7977 -0.2308
  244ETHOX   O163488   9.269   6.905  11.300 -0.0991  0.6373 -0.0673
  244ETHOX   C163489   9.284   7.046  11.294  0.2472 -1.0609 -0.2160
  244ETHOX  H1163490   9.185   7.089  11.265 -0.4315 -2.5229 -0.1512
  244ETHOX  H1363491   9.347   7.074  11.207  0.1831 -1.1379 -0.2880
  244ETHOX   C263492   9.344   7.110  11.423  0.2517  0.1105 -0.0219
  244ETHOX  H2163493   9.263   7.109  11.499  1.3608 -1.5093  1.2184
  244ETHOX  H2363494   9.371   7.218  11.421  0.2501  0.1201  0.3590
  245ETHOX   O163495   9.448   7.029  11.487  0.5734  0.0062  0.1395
  245ETHOX   C163496   9.484   7.084  11.611 -0.4107  0.3750  0.0070
  245ETHOX  H1163497   9.525   7.185  11.592 -0.5630  0.7264  1.4505
  245ETHOX  H1363498   9.401   7.092  11.685  0.8153  1.2315  1.3246
  245ETHOX   C263499   9.602   7.005  11.673 -0.3618  0.0493  0.0760
  245ETHOX  H2163500   9.659   7.071  11.742  1.3419 -2.1395  0.8756
  245ETHOX  H2363501   9.667   6.972  11.589  1.4621 -0.0096  1.4538
  246ETHOX   O163502   9.560   6.880  11.722  1.0616  0.3956 -0.0098
  246ETHOX   C163503   9.618   6.857  11.852  0.2810 -0.5650 -0.9654
  246ETHOX  H1163504   9.569   6.929  11.920 -1.1559  1.7634 -4.2212
  246ETHOX  H1363505   9.728   6.872  11.857  0.5937 -2.7754 -0.1423
  246ETHOX   C263506   9.598   6.707  11.891 -0.6446 -0.7258  0.3344
  246ETHOX  H2163507   9.489   6.687  11.895 -0.8007 -0.5867 -1.8651
  246ETHOX  H2363508   9.647   6.692  11.989 -0.5907  0.9855  0.6079
  247ETHOX   O163509   9.646   6.614  11.790 -0.1499 -0.8173  0.4793
  247ETHOX   C163510   9.616   6.480  11.838  0.0736  0.2881  0.6344
  247ETHOX  H1163511   9.643   6.459  11.944 -1.1702 -1.5051  0.6373
  247ETHOX  H1363512   9.506   6.462  11.844  0.2606 -0.7921  0.9713
  247ETHOX   C263513   9.665   6.377  11.733  0.1909  0.3963  0.0628
  247ETHOX  H2163514   9.594   6.293  11.715 -0.4597  1.0302 -0.3396
  247ETHOX  H2363515   9.664   6.420  11.631 -1.5820 -0.3112 -0.2545
  248ETHOX   O163516   9.800   6.335  11.764  0.1609 -0.4322 -0.4515
  248ETHOX   C163517   9.860   6.267  11.649 -0.0614  0.1473  0.1919
  248ETHOX  H1163518   9.800   6.187  11.600  0.8681  0.5376 -1.6825
  248ETHOX  H1363519   9.857   6.345  11.570  0.0138 -1.6307 -1.6718
  248ETHOX   C263520  10.002   6.208  11.662  0.2438 -0.2809 -0.2732
  248ETHOX  H2163521  10.073   6.281  11.706 -0.1377 -0.0761  0.0100
  248ETHOX  H2363522  10.034   6.175  11.561 -0.0908  1.9412 -1.1759
  249ETHOX   O163523  10.005   6.103  11.756  0.4401 -0.0890  1.0251
  249ETHOX   C163524  10.133   6.054  11.785  0.0049 -0.2584  0.0689
  249ETHOX  H1163525  10.182   6.018  11.693 -0.6241  2.3253 -1.3864
  249ETHOX  H1363526  10.207   6.125  11.830  0.0711  1.1700 -2.1611
  249ETHOX   C263527  10.104   5.930  11.870 -0.2276  0.4134  0.3734
  249ETHOX  H2163528  10.191   5.861  11.873  0.3481  0.9893 -1.6230
  249ETHOX  H2363529  10.016   5.881  11.824 -2.3035  1.9088  2.5139
  250ETHOX   O163530  10.064   5.955  12.000 -0.2460 -0.4196 -0.2832
  250ETHOX   C163531  10.031   5.844  12.075 -0.0222 -0.0527  0.3420
  250ETHOX  H1163532   9.931   5.814  12.035  0.5977 -2.1843  0.2735
  250ETHOX  H1363533  10.103   5.763  12.051  0.3116  0.7155 -1.3995
  250ETHOX   C263534  10.025   5.876  12.229  0.9680  0.2705  0.8137
  250ETHOX  H2163535  10.118   5.934  12.247  0.6628  1.2167 -0.4711
  250ETHOX  H2363536  10.046   5.785  12.289  1.3409  0.2730  0.6940
  251ETHOX   O163537   9.910   5.951  12.275  0.1789 -0.0834 -0.3247
  251ETHOX   C163538   9.788   5.886  12.252  0.0173  0.2208  0.1057
  251ETHOX  H1163539   9.782   5.775  12.264  3.6477 -0.5434 -3.1838
  251ETHOX  H1363540   9.753   5.911  12.150  1.6307 -1.6105 -0.9657
  251ETHOX   C263541   9.683   5.951  12.344  0.3482  0.9275 -0.0237
  251ETHOX  H2163542   9.685   6.061  12.324  1.8648  1.6138  3.2492
  251ETHOX  H2363543   9.724   5.936  12.446  2.1887 -0.5443 -0.9245
  252ETHOX   O163544   9.550   5.900  12.327 -0.0445  0.2605 -0.4350
  252ETHOX   C163545   9.520   5.788  12.409  0.0126  0.0756  0.0231
  252ETHOX  H1163546   9.592   5.706  12.392  0.3109  0.5387 -1.0539
  252ETHOX  H1363547   9.517   5.815  12.517  0.9080  0.5208 -0.0556
  252ETHOX   C263548   9.378   5.733  12.360 -0.3723  0.1694  1.0585
  252ETHOX  H2163549   9.291   5.803  12.365 -3.4710 -3.3257  0.6332
  252ETHOX  H2363550   9.359   5.646  12.426  0.9363 -0.5464  0.5251
  253ETHOX   O163551   9.395   5.686  12.220 -0.0999 -0.1821 -0.1158
  253ETHOX   C163552   9.284   5.607  12.176  0.0847 -0.3613  0.4262
  253ETHOX  H1163553   9.278   5.502  12.213  0.4641 -0.1710  1.0581
  253ETHOX  H1363554   9.301   5.591  12.068  1.1019 -0.7566  0.6310
  253ETHOX   C263555   9.144   5.686  12.185 -0.5317 -0.0584  0.1871
  253ETHOX  H2163556   9.085   5.634  12.107  1.3520 -0.7377 -0.8426
  253ETHOX  H2363557   9.165   5.794  12.167  1.5999 -0.7907 -2.0759
  254ETHOX   O163558   9.068   5.678  12.303 -0.4418  0.2603 -0.2392
  254ETHOX   C163559   8.983   5.791  12.320 -0.5398  0.2742  0.0387
  254ETHOX  H1163560   9.035   5.888  12.335  1.0626 -0.5451  0.0684
  254ETHOX  H1363561   8.922   5.800  12.228  2.7035  0.2659 -2.3123
  254ETHOX   C263562   8.893   5.785  12.446 -0.0721 -0.1110 -0.3839
  254ETHOX  H2163563   8.820   5.710  12.407 -1.5264  0.2743  1.4634
  254ETHOX  H2363564   8.834   5.878  12.461 -2.4878 -1.2306 -2.3135
  255ETHOX   O163565   8.948   5.744  12.569 -0.3056  0.0382  0.0942
  255ETHOX   C163566   9.030   5.835  12.638  0.2181  0.4774  0.2598
  255ETHOX  H1163567   8.962   5.886  12.709 -1.4366 -1.6347  0.2762
  255ETHOX  H1363568   9.073   5.911  12.569 -1.2930  2.5332  1.4621
  255ETHOX   C263569   9.120   5.750  12.716 -0.2076  0.1304  0.5332
  255ETHOX  H2163570   9.185   5.823  12.770  0.1374  2.3473 -2.5749
  255ETHOX  H2363571   9.173   5.676  12.653  1.5107  0.1490  1.8934
  256ETHOX   O163572   9.046   5.680  12.817 -0.1265 -0.2164 -0.1662
  256ETHOX   C163573   9.134   5.602  12.895 -0.0791 -0.2046  0.6117
  256ETHOX  H1163574   9.170   5.518  12.832 -1.8152 -0.5334  0.0212
  256ETHOX  H1363575   9.232   5.654  12.910  1.9117 -2.6402 -2.5766
  256ETHOX   C263576   9.087   5.567  13.032  0.2125 -0.6884  0.0339
  256ETHOX  H2163577   9.161   5.499  13.080  0.1565 -0.4479  0.4703
  256ETHOX  H2363578   8.985   5.524  13.024 -0.6801  1.5867 -1.8070
  257ETHOX   O163579   9.070   5.686  13.111 -0.4219 -0.2131 -0.1567
  257ETHOX   C163580   9.031   5.649  13.242  0.4064 -0.2249 -0.2687
  257ETHOX  H1163581   9.031   5.539  13.257  0.1306 -0.2312 -0.3069
  257ETHOX  H1363582   8.928   5.685  13.263  0.7161  0.4215  0.1819
  257ETHOX   C263583   9.120   5.722  13.342 -0.4370 -0.3781  0.5073
  257ETHOX  H2163584   9.089   5.703  13.447 -0.7719 -0.3577  0.4122
  257ETHOX  H2363585   9.117   5.832  13.328  2.9312 -0.0566  1.3950
  258ETHOX   O163586   9.260   5.685  13.333 -0.5429 -0.4730 -0.1226
  258ETHOX   C163587   9.341   5.775  13.406 -0.2902  0.9372  0.0891
  258ETHOX  H1163588   9.446   5.757  13.376 -0.6573  1.0413 -1.3607
  258ETHOX  H1363589   9.316   5.880  13.377 -1.1745  0.5581 -0.5852
  258ETHOX   C263590   9.350   5.762  13.561  0.0376  0.1071 -0.2255
  258ETHOX  H2163591   9.456   5.759  13.592  0.7357 -1.7189 -2.4661
  258ETHOX  H2363592   9.295   5.671  13.594  0.3580 -0.5163 -1.3497
  259ETHOX   O163593   9.281   5.868  13.633 -0.1585 -0.4290  0.6250
  259ETHOX   C163594   9.191   5.828  13.733  0.6544 -0.3420  0.4028
  259ETHOX  H1163595   9.109   5.774  13.682  0.6654  1.4968 -1.7145
  259ETHOX  H1363596   9.245   5.760  13.803 -1.0283 -0.3380  1.7593
  259ETHOX   C263597   9.147   5.951  13.814  0.3924 -0.0427 -0.1731
  259ETHOX  H2163598   9.234   6.017  13.837 -1.4940  2.9267 -0.9980
  259ETHOX  H2363599   9.091   5.920  13.905  1.4042  0.2165  0.5551
  260ETHOX   O163600   9.047   6.029  13.742  0.5200 -0.3888  0.3258
  260ETHOX   C163601   8.972   6.117  13.831 -0.4337 -0.5126  0.1773
  260ETHOX  H1163602   8.897   6.054  13.882 -0.7409 -0.8968 -0.7332
  260ETHOX  H1363603   9.036   6.167  13.907 -0.4246 -0.4715  0.1427
  260ETHOX   C263604   8.887   6.220  13.749  0.2480  0.1180 -0.9377
  260ETHOX  H2163605   8.950   6.272  13.674  0.7085  0.9340 -0.0069
  260ETHOX  H2363606   8.835   6.288  13.820  0.8658 -1.7105  1.3832
  261ETHOX   O163607   8.795   6.148  13.678  0.4130 -0.4838 -0.2415
  261ETHOX   C163608   8.711   6.233  13.606 -0.5963 -0.0330  0.1596
  261ETHOX  H1163609   8.660   6.314  13.664 -2.0006 -0.6935 -0.1054
  261ETHOX  H1363610   8.771   6.286  13.529 -1.9184  2.2661  0.5981
  261ETHOX   C263611   8.608   6.159  13.520 -0.0177 -0.0342 -0.1131
  261ETHOX  H2163612   8.655   6.068  13.477 -0.4382  0.6078 -2.0419
  261ETHOX  H2363613   8.571   6.232  13.444 -0.0393  0.6185  0.5089
  262ETHOX   O163614   8.499   6.108  13.589  0.0560 -0.4611  0.2628
  262ETHOX   C163615   8.395   6.202  13.604  0.6108 -0.2864  0.3841
  262ETHOX  H1163616   8.336   6.199  13.510 -1.0691 -0.2730  1.4007
  262ETHOX  H1363617   8.434   6.303  13.631 -0.5783  0.1466  0.5657
  262ETHOX   C263618   8.308   6.152  13.720  0.0918 -0.6571 -0.3462
  262ETHOX  H2163619   8.237   6.229  13.758  0.0749  0.7876 -3.0594
  262ETHOX  H2363620   8.378   6.122  13.801 -1.2332 -2.2195  0.2838
  263ETHOX   O163621   8.231   6.033  13.701 -0.6668 -0.1996 -0.4604
  263ETHOX   C163622   8.108   6.046  13.628 -0.0433 -0.2755  0.2232
  263ETHOX  H1163623   8.123   6.037  13.518  1.0228  0.6518  0.2863
  263ETHOX  H1363624   8.069   6.149  13.644 -0.5217 -0.3807 -0.2414
  263ETHOX   C263625   8.005   5.952  13.677 -0.0282 -0.5336 -0.0222
  263ETHOX  H2163626   8.048   5.850  13.683  0.3680 -0.5515 -2.3711
  263ETHOX  H2363627   7.926   5.943  13.599 -1.1112 -3.1384  1.2323
  264ETHOX   O163628   7.951   6.002  13.798 -0.2086 -0.2231  0.6094
  264ETHOX   C163629   7.826   5.934  13.826 -0.3930 -0.4641 -0.2867
  264ETHOX  H1163630   7.838   5.826  13.805 -3.6868 -1.1455  0.7746
  264ETHOX  H1363631   7.743   5.970  13.762  0.9884  1.8055 -0.9112
  264ETHOX   C263632   7.805   5.951  13.985 -0.2578 -0.5178  0.1348
  264ETHOX  H2163633   7.717   5.892  14.017 -0.4257 -0.4602 -0.2310
  264ETHOX  H2363634   7.790   6.058  14.009  0.3891  0.3257 -2.8846
  265ETHOX   O163635   7.922   5.905  14.062 -0.4708 -0.3525 -0.2976
  265ETHOX   C163636   7.910   5.913  14.201 -0.3230  1.1578 -0.1904
  265ETHOX  H1163637   8.007   5.938  14.248  0.2006 -0.5699 -0.3022
  265ETHOX  H1363638   7.837   5.995  14.221  0.1696  1.0443  2.4211
  265ETHOX   C263639   7.852   5.786  14.266  0.4362 -0.2706 -0.4238
  265ETHOX  H2163640   7.766   5.748  14.206 -0.5082 -0.0828  0.7639
  265ETHOX  H2363641   7.805   5.811  14.364  0.7358 -2.7763  0.4435
  265ETHOX   OZ63642   7.945   5.685  14.293 -0.4340 -0.1441 -0.6376
  265ETHOX  HZ163643   7.898   5.621  14.348  0.0612 -0.0826 -0.1422
    1ETHOX   O163644  11.324  15.443  15.312  0.2862  0.8828  0.3162
    1ETHOX  HO163645  11.269  15.383  15.261 -0.6325  1.4410  0.6292
    1ETHOX   C163646  11.243  15.475  15.425 -0.4106  0.6790 -0.0631
    1ETHOX  H1163647  11.177  15.389  15.449  0.2353  0.6400  1.6917
    1ETHOX  H1363648  11.182  15.568  15.419 -0.2401  0.9160  1.6376
    1ETHOX   C263649  11.334  15.477  15.550 -0.2470  0.5668  0.0221
    1ETHOX  H2163650  11.406  15.393  15.541  0.3700  1.1940 -1.1821
    1ETHOX  H2363651  11.276  15.469  15.644  2.0072 -0.8039  1.3855
    2ETHOX   O163652  11.416  15.593  15.552  0.8762  0.2934 -0.2758
    2ETHOX   C163653  11.504  15.593  15.661  0.3082 -0.0581  0.8994
    2ETHOX  H1163654  11.453  15.602  15.759 -0.5969 -1.1845  0.5654
    2ETHOX  H1363655  11.572  15.506  15.650  1.9820  1.1981  0.9635
    2ETHOX   C263656  11.582  15.726  15.643 -0.3637  0.3069  0.0600
    2ETHOX  H2163657  11.545  15.809  15.706 -0.0738  0.6511 -0.2216
    2ETHOX  H2363658  11.567  15.763  15.539 -2.0517 -1.6373 -0.4519
    3ETHOX   O163659  11.716  15.708  15.691 -0.1274 -0.5506  0.3600
    3ETHOX   C163660  11.816  15.774  15.612  0.4300  0.1155  0.0327
    3ETHOX  H1163661  11.788  15.758  15.506  0.8604  1.0236 -0.2206
    3ETHOX  H1363662  11.916  15.728  15.629  0.7970 -0.0246 -2.1626
    3ETHOX   C263663  11.828  15.925  15.638  0.0397  0.5908  0.0728
    3ETHOX  H2163664  11.731  15.977  15.629  0.2447  0.7677 -1.2154
    3ETHOX  H2363665  11.880  15.966  15.549  3.2078  0.1047  1.5295
    4ETHOX   O163666  11.892  15.974  15.757 -0.4811  0.2057 -0.9091
    4ETHOX   C163667  11.824  15.947  15.879  0.2808 -0.0880 -0.0828
    4ETHOX  H1163668  11.738  16.016  15.893  0.8365  1.2851 -2.8038
    4ETHOX  H1363669  11.781  15.845  15.886  0.6773 -0.5617 -3.0506
    4ETHOX   C263670  11.919  15.967  16.003  0.9349 -0.7774  0.0557
    4ETHOX  H2163671  11.857  15.944  16.093 -0.9376  0.0999 -0.9595
    4ETHOX  H2363672  11.941  16.075  16.001  0.6614 -0.6821  1.2677
    5ETHOX   O163673  12.042  15.900  16.010 -0.2218  0.4587 -0.0702
    5ETHOX   C163674  12.094  15.889  16.139 -0.3941  0.1338 -0.1760
    5ETHOX  H1163675  12.017  15.852  16.209 -0.3389  0.0147 -0.1779
    5ETHOX  H1363676  12.175  15.812  16.137 -1.9871 -1.6468 -3.0326
    5ETHOX   C263677  12.147  16.018  16.202  0.6314 -0.4731 -0.1313
    5ETHOX  H2163678  12.145  16.009  16.312  1.7855  1.5140  0.0774
    5ETHOX  H2363679  12.083  16.108  16.190 -2.4686 -2.3396  1.0596
    6ETHOX   O163680  12.283  16.046  16.159  0.1354 -0.1057  0.3696
    6ETHOX   C163681  12.328  16.182  16.171  0.3962  0.0877 -0.1387
    6ETHOX  H1163682  12.267  16.255  16.112  0.5539  1.3854  1.2416
    6ETHOX  H1363683  12.331  16.230  16.271  1.1145  3.0741 -1.4864
    6ETHOX   C263684  12.470  16.186  16.122 -0.0105 -0.0568  0.0851
    6ETHOX  H2163685  12.498  16.293  16.131 -1.5744  0.8074 -3.6760
    6ETHOX  H2363686  12.489  16.162  16.016 -1.2940  1.0143 -0.4029
    7ETHOX   O163687  12.544  16.102  16.218 -0.2846 -0.1114  0.0340
    7ETHOX   C163688  12.679  16.122  16.238 -0.9118  0.2235  0.3111
    7ETHOX  H1163689  12.717  16.110  16.134 -0.0961  0.4267  0.5790
    7ETHOX  H1363690  12.712  16.223  16.270  1.1831  0.5488 -2.5049
    7ETHOX   C263691  12.748  16.016  16.322  0.4017  0.5494  0.3363
    7ETHOX  H2163692  12.857  16.012  16.303  0.4832  0.0186  0.8748
    7ETHOX  H2363693  12.703  15.916  16.302 -0.9236  1.1588  0.1652
    8ETHOX   O163694  12.732  16.046  16.456  0.0787 -0.4737 -0.1563
    8ETHOX   C163695  12.647  15.944  16.528 -0.4926 -0.0475  0.1346
    8ETHOX  H1163696  12.684  15.840  16.514  1.2887  0.6428 -0.5451
    8ETHOX  H1363697  12.553  15.951  16.469 -0.1774 -0.1801 -0.3860
    8ETHOX   C263698  12.617  15.974  16.677 -0.1434  0.6657 -0.1504
    8ETHOX  H2163699  12.526  15.919  16.710 -0.4072  1.2896  0.1873
    8ETHOX  H2363700  12.594  16.083  16.680  0.3673  0.7586  0.5536
    9ETHOX   O163701  12.729  15.935  16.765  0.1896 -0.9483  0.2227
    9ETHOX   C163702  12.721  15.979  16.891 -0.2372  0.0708  0.1252
    9ETHOX  H1163703  12.747  16.087  16.898  0.4752 -0.1865  2.0292
    9ETHOX  H1363704  12.614  15.965  16.917  0.0099 -4.4182 -0.5305
    9ETHOX   C263705  12.809  15.905  16.988  0.6254  0.0880  0.0683
    9ETHOX  H2163706  12.795  15.952  17.088  0.4481 -1.0095  0.5671
    9ETHOX  H2363707  12.910  15.926  16.947  0.0399  1.4983 -0.7274
   10ETHOX   O163708  12.780  15.766  16.976 -0.4814 -0.4236 -0.2441
   10ETHOX   C163709  12.855  15.695  17.077  0.6681 -0.4048  0.1939
   10ETHOX  H1163710  12.818  15.733  17.175 -0.3402 -1.4884  0.2572
   10ETHOX  H1363711  12.962  15.726  17.071  0.8805 -1.2670 -0.7678
   10ETHOX   C263712  12.825  15.542  17.076  0.3147  0.1634 -0.2184
   10ETHOX  H2163713  12.717  15.527  17.094  0.5582 -1.6126 -0.0622
   10ETHOX  H2363714  12.886  15.489  17.152  0.6976  2.6987  1.3782
   11ETHOX   O163715  12.856  15.481  16.949  0.0478  0.6018  0.8523
   11ETHOX   C163716  12.865  15.336  16.941  0.0197  0.7299 -0.6600
   11ETHOX  H1163717  12.946  15.308  17.012 -0.4745  1.0480  0.0429
   11ETHOX  H1363718  12.770  15.304  16.990  0.9356 -0.2386  0.5575
   11ETHOX   C263719  12.872  15.272  16.805  0.5533 -0.1522  0.1579
   11ETHOX  H2163720  12.854  15.164  16.818  1.1631 -0.5650 -2.0021
   11ETHOX  H2363721  12.801  15.322  16.735  0.0271 -0.9759  0.0905
   12ETHOX   O163722  13.002  15.280  16.755  0.2724  0.3600 -0.0694
   12ETHOX   C163723  13.036  15.181  16.656 -0.0689 -0.0022 -0.2186
   12ETHOX  H1163724  13.017  15.227  16.556 -0.2253  1.4310  0.4468
   12ETHOX  H1363725  12.973  15.091  16.667  0.5114 -0.2397  1.3364
   12ETHOX   C263726  13.185  15.144  16.668  0.6495  0.7998 -0.1377
   12ETHOX  H2163727  13.245  15.237  16.667  2.3197 -0.2341  0.7561
   12ETHOX  H2363728  13.210  15.080  16.581 -1.1290 -1.1147  0.6807
   13ETHOX   O163729  13.213  15.076  16.786  0.2401  0.1568  0.7542
   13ETHOX   C163730  13.349  15.046  16.809  0.4884  0.8625 -1.0019
   13ETHOX  H1163731  13.402  15.141  16.783 -0.1220  1.1492 -1.2166
   13ETHOX  H1363732  13.347  15.036  16.920 -1.3047  0.7757 -1.0085
   13ETHOX   C263733  13.394  14.934  16.722  0.9358  0.0150  0.4238
   13ETHOX  H2163734  13.506  14.934  16.724  0.9645  0.3466 -0.4387
   13ETHOX  H2363735  13.378  14.960  16.615  2.6193 -0.7613 -0.0518
   14ETHOX   O163736  13.350  14.811  16.768  0.4949  0.3645 -0.1176
   14ETHOX   C163737  13.409  14.700  16.702 -0.3188  0.4931  0.1200
   14ETHOX  H1163738  13.514  14.689  16.736  0.1177 -0.0101 -1.3319
   14ETHOX  H1363739  13.429  14.713  16.593 -1.4544 -0.5024 -0.2285
   14ETHOX   C263740  13.336  14.574  16.736 -0.3749  0.4728 -0.1266
   14ETHOX  H2163741  13.322  14.567  16.846  0.2431 -0.6230 -0.0955
   14ETHOX  H2363742  13.403  14.493  16.698 -0.4930  0.5614 -0.5249
   15ETHOX   O163743  13.213  14.545  16.681 -0.2692 -0.0802  0.0556
   15ETHOX   C163744  13.108  14.603  16.746  0.3242  0.8029 -0.0510
   15ETHOX  H1163745  13.120  14.680  16.826 -1.1810 -0.0761  1.0779
   15ETHOX  H1363746  13.048  14.652  16.667  0.1057 -1.3007 -1.2774
   15ETHOX   C263747  13.007  14.501  16.800 -0.3401  0.0535 -0.4559
   15ETHOX  H2163748  12.912  14.558  16.806 -2.9210 -3.9159  4.7873
   15ETHOX  H2363749  13.012  14.416  16.728  4.1252 -0.0355 -0.2756
   16ETHOX   O163750  13.052  14.445  16.917 -0.6649  0.5980  0.0504
   16ETHOX   C163751  13.019  14.532  17.024 -0.5459 -0.2560 -0.4462
   16ETHOX  H1163752  13.027  14.641  17.005 -0.9835  0.0331  0.8805
   16ETHOX  H1363753  12.916  14.501  17.052 -0.3711 -1.9462 -1.5081
   16ETHOX   C263754  13.111  14.495  17.136 -0.5283 -0.4179 -0.1105
   16ETHOX  H2163755  13.119  14.387  17.160 -1.2185 -0.4840 -0.1580
   16ETHOX  H2363756  13.076  14.542  17.230 -1.2031 -0.0224 -0.5516
   17ETHOX   O163757  13.247  14.543  17.106 -0.2342  0.8069  0.3976
   17ETHOX   C163758  13.338  14.507  17.206  0.1690  0.0293 -0.2337
   17ETHOX  H1163759  13.318  14.553  17.305  2.4538  0.7804 -0.0627
   17ETHOX  H1363760  13.332  14.396  17.212  1.0566 -0.0258 -0.2552
   17ETHOX   C263761  13.482  14.545  17.182 -0.5398 -0.1407  0.2631
   17ETHOX  H2163762  13.551  14.494  17.253  2.9598  0.7149 -2.2645
   17ETHOX  H2363763  13.509  14.651  17.201 -1.2871  0.3800 -1.4493
   18ETHOX   O163764  13.530  14.514  17.050 -0.3860 -0.1187 -0.1573
   18ETHOX   C163765  13.669  14.539  17.029 -0.2623  0.5290  0.5973
   18ETHOX  H1163766  13.689  14.642  17.065  0.9270  0.8465 -0.8474
   18ETHOX  H1363767  13.725  14.468  17.093 -0.2578 -1.0216 -1.0337
   18ETHOX   C263768  13.726  14.531  16.888 -0.2691  0.5555  0.7198
   18ETHOX  H2163769  13.828  14.575  16.898  0.1673 -0.6161  1.6118
   18ETHOX  H2363770  13.666  14.579  16.808  2.0824  2.3438 -0.0974
   19ETHOX   O163771  13.737  14.405  16.827  0.5880 -0.0980  0.0408
   19ETHOX   C163772  13.799  14.419  16.702  0.2450 -0.7035 -0.6712
   19ETHOX  H1163773  13.909  14.420  16.714  0.1443 -1.1453  0.3751
   19ETHOX  H1363774  13.769  14.512  16.649 -0.1040  0.7231  1.8722
   19ETHOX   C263775  13.753  14.312  16.608  0.5614  0.7139  0.3077
   19ETHOX  H2163776  13.746  14.221  16.671 -1.3574  0.1907 -0.5857
   19ETHOX  H2363777  13.824  14.306  16.522  0.1068 -0.5093 -0.0055
   20ETHOX   O163778  13.623  14.334  16.551 -0.4256 -0.8611  0.1787
   20ETHOX   C163779  13.556  14.216  16.501 -1.5441  0.5070 -0.7071
   20ETHOX  H1163780  13.622  14.144  16.449  0.3579  1.6101  0.0775
   20ETHOX  H1363781  13.512  14.169  16.592  1.9168 -0.2236  0.7225
   20ETHOX   C263782  13.442  14.243  16.399 -0.0631  0.3660  0.0569
   20ETHOX  H2163783  13.389  14.339  16.419 -0.5071  0.2726 -0.6345
   20ETHOX  H2363784  13.367  14.162  16.412  3.2239 -2.5646  2.7593
   21ETHOX   O163785  13.494  14.229  16.268  0.1090 -0.3286 -1.0329
   21ETHOX   C163786  13.391  14.267  16.173 -0.0777 -0.4610  0.4434
   21ETHOX  H1163787  13.343  14.366  16.185 -0.1473 -0.3122 -0.9754
   21ETHOX  H1363788  13.302  14.202  16.190 -1.0581  0.9540  0.9474
   21ETHOX   C263789  13.439  14.233  16.036 -0.1613 -0.2503 -0.1191
   21ETHOX  H2163790  13.369  14.224  15.950  0.4449 -0.6275 -0.5855
   21ETHOX  H2363791  13.487  14.133  16.046 -0.1844 -0.1878  0.6216
   22ETHOX   O163792  13.548  14.324  16.001  0.3472 -0.6413 -0.6574
   22ETHOX   C163793  13.565  14.330  15.862  0.2140  0.9526  0.3721
   22ETHOX  H1163794  13.566  14.229  15.814 -1.8950  2.2411 -2.7249
   22ETHOX  H1363795  13.477  14.390  15.830 -0.8847 -1.2698 -1.0715
   22ETHOX   C263796  13.690  14.405  15.819  0.2297  0.4094  0.2777
   22ETHOX  H2163797  13.772  14.378  15.889  0.7924 -0.4923 -0.7035
   22ETHOX  H2363798  13.718  14.383  15.714  0.0501 -0.6367  0.4378
   23ETHOX   O163799  13.670  14.547  15.812 -0.9228  0.1291 -0.4468
   23ETHOX   C163800  13.800  14.610  15.811 -0.1134 -0.6582  0.0997
   23ETHOX  H1163801  13.858  14.553  15.735  0.4435  0.2483 -0.1728
   23ETHOX  H1363802  13.850  14.588  15.907 -4.6310 -0.8244  2.7104
   23ETHOX   C263803  13.799  14.764  15.774  0.2803  0.0586  0.2794
   23ETHOX  H2163804  13.903  14.803  15.777 -0.5281  2.2950  1.3019
   23ETHOX  H2363805  13.752  14.816  15.860  1.0255  1.1370  0.0455
   24ETHOX   O163806  13.735  14.804  15.647  0.5614 -0.4029  0.2204
   24ETHOX   C163807  13.593  14.785  15.647  1.0227  0.1154  0.1850
   24ETHOX  H1163808  13.577  14.677  15.628  0.1153  0.2175  0.3366
   24ETHOX  H1363809  13.551  14.806  15.747 -1.6048 -0.8879 -0.6263
   24ETHOX   C263810  13.516  14.858  15.532  0.3747 -0.3428  0.3702
   24ETHOX  H2163811  13.505  14.966  15.556 -1.9904 -0.9524  2.4521
   24ETHOX  H2363812  13.419  14.803  15.531  0.0217  0.2593 -0.9434
   25ETHOX   O163813  13.580  14.827  15.412 -0.3335 -0.0419 -0.0635
   25ETHOX   C163814  13.524  14.896  15.297 -0.1351 -1.0206 -0.2239
   25ETHOX  H1163815  13.512  15.004  15.317  1.1675 -0.7319 -0.8580
   25ETHOX  H1363816  13.418  14.871  15.275 -1.0893  1.8182  0.7446
   25ETHOX   C263817  13.615  14.869  15.178  0.4550 -1.2331  0.2989
   25ETHOX  H2163818  13.720  14.886  15.211  0.0842 -0.9464  1.3546
   25ETHOX  H2363819  13.589  14.940  15.096 -0.6223  0.2105  1.8409
   26ETHOX   O163820  13.597  14.736  15.132  0.0795  0.1672  0.4445
   26ETHOX   C163821  13.662  14.732  15.011  0.4053  0.0760  0.0892
   26ETHOX  H1163822  13.616  14.803  14.939  1.3291  1.5322  0.8804
   26ETHOX  H1363823  13.768  14.762  15.027  0.2644  2.0582 -2.0120
   26ETHOX   C263824  13.655  14.595  14.938 -0.2760  0.0713 -0.1458
   26ETHOX  H2163825  13.655  14.507  15.005 -0.0047  0.0521 -0.1701
   26ETHOX  H2363826  13.741  14.595  14.868 -1.4388 -2.9487 -1.7860
   27ETHOX   O163827  13.546  14.600  14.853  0.2485  0.0465 -0.0077
   27ETHOX   C163828  13.423  14.571  14.926  0.2666  0.2506  0.7401
   27ETHOX  H1163829  13.357  14.658  14.907 -1.5127 -1.3826 -0.9319
   27ETHOX  H1363830  13.440  14.570  15.036  2.1439 -0.2856  0.4788
   27ETHOX   C263831  13.370  14.439  14.875 -0.1185 -0.1473 -0.1196
   27ETHOX  H2163832  13.363  14.438  14.764  1.5404 -2.9779 -0.2985
   27ETHOX  H2363833  13.268  14.422  14.916 -1.0812  2.7173 -1.0868
   28ETHOX   O163834  13.461  14.335  14.912  0.4237 -0.7715  0.3835
   28ETHOX   C163835  13.396  14.207  14.916  0.1915  0.6495 -0.6485
   28ETHOX  H1163836  13.302  14.220  14.974 -0.4040  0.4626 -1.5438
   28ETHOX  H1363837  13.369  14.188  14.810  3.5505  1.1352 -1.7189
   28ETHOX   C263838  13.484  14.100  14.971 -0.1342 -0.2997  0.2134
   28ETHOX  H2163839  13.423  14.008  14.987 -0.2260 -0.3609 -0.4868
   28ETHOX  H2363840  13.524  14.147  15.064  1.1587  1.6720 -1.2672
   29ETHOX   O163841  13.612  14.067  14.903  0.1022 -0.4620 -0.9077
   29ETHOX   C163842  13.645  13.930  14.923  0.1670 -0.2993 -0.2459
   29ETHOX  H1163843  13.562  13.865  14.889  0.5939  0.0486 -2.0713
   29ETHOX  H1363844  13.672  13.909  15.029  2.1491 -0.2404 -0.7009
   29ETHOX   C263845  13.769  13.889  14.840 -0.0388 -0.0884  0.1457
   29ETHOX  H2163846  13.737  13.907  14.735 -1.2624 -1.2070  0.3015
   29ETHOX  H2363847  13.788  13.780  14.851 -1.3709 -0.4275 -0.7355
   30ETHOX   O163848  13.891  13.959  14.879 -0.4331  0.0512  0.1246
   30ETHOX   C163849  14.012  13.892  14.824 -0.3462 -0.1107  0.4846
   30ETHOX  H1163850  14.032  13.787  14.857  1.9229 -1.1193 -3.4835
   30ETHOX  H1363851  14.015  13.895  14.713  0.4417  1.3054  0.5271
   30ETHOX   C263852  14.146  13.969  14.856  0.7544 -0.4157  0.3261
   30ETHOX  H2163853  14.169  13.964  14.965 -0.8162 -0.9158  0.6647
   30ETHOX  H2363854  14.137  14.077  14.833  1.4569 -0.1162  1.3580
   31ETHOX   O163855  14.261  13.923  14.787 -0.3510  0.1352  0.5104
   31ETHOX   C163856  14.375  13.995  14.827 -0.1174  0.1469 -0.2417
   31ETHOX  H1163857  14.382  14.084  14.761  1.1442  0.0232 -0.3066
   31ETHOX  H1363858  14.375  14.028  14.933  2.3436 -0.6658  0.0885
   31ETHOX   C263859  14.520  13.933  14.808  1.3019 -0.1798  0.1283
   31ETHOX  H2163860  14.533  13.834  14.857  0.1217 -0.1294  0.5746
   31ETHOX  H2363861  14.582  14.008  14.861 -2.0677  0.2721  3.8632
   32ETHOX   O163862  14.543  13.918  14.669  0.0817 -0.4568  0.2118
   32ETHOX   C163863  14.477  13.802  14.616  0.0265 -0.0706  0.1446
   32ETHOX  H1163864  14.489  13.720  14.689  1.0077 -1.0134 -1.0257
   32ETHOX  H1363865  14.368  13.822  14.604  0.2022  2.6858  2.0727
   32ETHOX   C263866  14.542  13.748  14.491  0.9339  0.3520  0.0280
   32ETHOX  H2163867  14.567  13.838  14.431 -0.6863  0.9521  0.2017
   32ETHOX  H2363868  14.473  13.691  14.424  0.5295  2.1810 -1.1735
   33ETHOX   O163869  14.651  13.671  14.517  0.5890  0.2899 -0.1106
   33ETHOX   C163870  14.765  13.750  14.522 -0.6355 -1.2331 -0.6828
   33ETHOX  H1163871  14.821  13.742  14.427  0.0159 -0.4862 -0.3767
   33ETHOX  H1363872  14.738  13.854  14.553  2.3847 -0.9646  1.4772
   33ETHOX   C263873  14.852  13.691  14.631  0.4657 -0.0857 -0.3578
   33ETHOX  H2163874  14.790  13.678  14.723  1.5232  1.9006  0.6858
   33ETHOX  H2363875  14.931  13.763  14.659  0.6561 -0.8314  1.1148
   34ETHOX   O163876  14.903  13.564  14.586  0.3734 -0.4546  0.4708
   34ETHOX   C163877  15.012  13.509  14.666 -0.1007  0.8670 -0.0705
   34ETHOX  H1163878  14.987  13.531  14.772  1.3689  0.7993  0.3140
   34ETHOX  H1363879  15.107  13.557  14.634  1.1569 -0.7853  1.0575
   34ETHOX   C263880  15.033  13.352  14.665 -0.4263 -0.2536  0.6170
   34ETHOX  H2163881  15.128  13.315  14.710  0.1980 -0.4045 -0.7800
   34ETHOX  H2363882  15.045  13.312  14.562  1.0036 -3.1400  1.7874
   35ETHOX   O163883  14.936  13.270  14.732  0.1214  0.8253 -0.1389
   35ETHOX   C163884  14.938  13.278  14.875  0.1527  0.2962 -0.1441
   35ETHOX  H1163885  15.044  13.289  14.907  0.2648  4.5695 -1.3514
   35ETHOX  H1363886  14.888  13.375  14.898 -2.5718 -1.0002 -0.1831
   35ETHOX   C263887  14.852  13.172  14.939  0.2071  0.7189 -0.7948
   35ETHOX  H2163888  14.757  13.150  14.886 -1.4370  0.1261  2.1867
   35ETHOX  H2363889  14.832  13.206  15.042 -0.5615 -0.8239 -0.4165
   36ETHOX   O163890  14.937  13.051  14.950 -0.3224 -0.2919 -0.0501
   36ETHOX   C163891  14.864  12.930  14.963 -0.1133  0.6773 -0.1057
   36ETHOX  H1163892  14.924  12.861  14.899  0.3654 -0.0289  1.0793
   36ETHOX  H1363893  14.771  12.938  14.902 -0.3684 -1.3525 -0.0497
   36ETHOX   C263894  14.833  12.880  15.106  0.0309  0.6050 -0.8952
   36ETHOX  H2163895  14.922  12.896  15.170  1.7930 -1.5610 -2.6490
   36ETHOX  H2363896  14.825  12.770  15.098  3.0524  0.0754  1.4572
   37ETHOX   O163897  14.714  12.947  15.160 -0.1217  0.6053 -0.0340
   37ETHOX   C163898  14.688  12.888  15.289 -0.5612  0.3482  0.6556
   37ETHOX  H1163899  14.671  12.780  15.270  1.3874  0.7322 -5.1734
   37ETHOX  H1363900  14.779  12.903  15.352  1.2177  0.9773 -1.9286
   37ETHOX   C263901  14.576  12.948  15.376  0.1480 -0.3662  0.8273
   37ETHOX  H2163902  14.597  12.888  15.467  0.2277 -0.4952  0.7234
   37ETHOX  H2363903  14.475  12.925  15.336  1.1277 -2.2123 -0.7390
   38ETHOX   O163904  14.597  13.088  15.393  0.1719  0.6046  0.1391
   38ETHOX   C163905  14.544  13.129  15.522  0.1801  0.4150  0.8694
   38ETHOX  H1163906  14.593  13.082  15.609  0.4375 -2.7301 -0.8366
   38ETHOX  H1363907  14.441  13.090  15.527 -0.6184  2.2822  0.0772
   38ETHOX   C263908  14.526  13.276  15.536  0.0112  0.1168 -0.1371
   38ETHOX  H2163909  14.483  13.299  15.636 -0.0898 -1.4460  0.2167
   38ETHOX  H2363910  14.455  13.306  15.456  2.7810  2.3636 -1.9135
   39ETHOX   O163911  14.645  13.344  15.511  0.5563  0.7811  0.0193
   39ETHOX   C163912  14.620  13.480  15.507  0.2299  0.1357 -0.2465
   39ETHOX  H1163913  14.549  13.493  15.423  1.6935  0.4266 -1.4827
   39ETHOX  H1363914  14.564  13.512  15.597  0.3150 -2.5124  0.8586
   39ETHOX   C263915  14.747  13.566  15.486  0.8022  0.1327  0.3230
   39ETHOX  H2163916  14.738  13.670  15.450  1.0272  0.0243 -0.0573
   39ETHOX  H2363917  14.795  13.519  15.397 -1.0688 -0.6039 -0.3318
   40ETHOX   O163918  14.844  13.567  15.603 -0.0044  0.3130  0.2359
   40ETHOX   C163919  14.973  13.595  15.551  0.6322 -0.3651 -0.2558
   40ETHOX  H1163920  14.963  13.704  15.530 -0.0819 -0.3935 -0.0834
   40ETHOX  H1363921  14.995  13.540  15.458 -0.3092 -1.2724  0.0367
   40ETHOX   C263922  15.078  13.574  15.657 -0.3595  0.0201 -1.5522
   40ETHOX  H2163923  15.063  13.643  15.743  0.1617  0.1481 -1.5582
   40ETHOX  H2363924  15.178  13.604  15.619 -0.6702  1.3244 -1.3720
   41ETHOX   O163925  15.076  13.439  15.706 -0.0375  0.5379 -0.1877
   41ETHOX   C163926  15.160  13.421  15.819  0.5393 -0.0242  0.9529
   41ETHOX  H1163927  15.260  13.441  15.775 -1.0732  0.2802 -3.0015
   41ETHOX  H1363928  15.143  13.498  15.897 -1.3437  0.3446  0.2490
   41ETHOX   C263929  15.164  13.279  15.876  0.1875 -0.0432  0.0253
   41ETHOX  H2163930  15.085  13.255  15.950  0.7692 -1.2462  0.2829
   41ETHOX  H2363931  15.255  13.261  15.938  0.0804 -1.4149 -0.1885
   42ETHOX   O163932  15.158  13.179  15.775 -0.2668  0.0161 -0.2580
   42ETHOX   C163933  15.045  13.098  15.787 -0.3832  0.2179 -0.6748
   42ETHOX  H1163934  15.033  13.044  15.883 -0.5622  0.0027 -0.8170
   42ETHOX  H1363935  14.955  13.160  15.768 -0.3839  0.1839 -0.7839
   42ETHOX   C263936  15.032  12.995  15.675  0.0809  0.3833 -0.5243
   42ETHOX  H2163937  15.028  13.046  15.576  1.7728  1.1647 -0.2334
   42ETHOX  H2363938  14.938  12.943  15.705 -0.5876  2.3205  0.9960
   43ETHOX   O163939  15.139  12.901  15.670  0.3908 -0.1342 -0.2579
   43ETHOX   C163940  15.104  12.812  15.561 -0.1731  0.0578  0.5757
   43ETHOX  H1163941  15.021  12.745  15.594 -1.0281  1.1317  0.6693
   43ETHOX  H1363942  15.066  12.869  15.474  1.1705  2.8640  1.6949
   43ETHOX   C263943  15.224  12.731  15.512  0.5948  0.8060  0.1007
   43ETHOX  H2163944  15.306  12.806  15.515 -0.5678  2.0977  1.4702
   43ETHOX  H2363945  15.211  12.698  15.407 -2.7280  0.9764  0.3550
   44ETHOX   O163946  15.261  12.622  15.595 -0.3622 -0.3597  0.2176
   44ETHOX   C163947  15.370  12.546  15.547 -0.4645 -0.4750  0.8406
   44ETHOX  H1163948  15.459  12.609  15.522 -1.1469 -0.2130 -1.1145
   44ETHOX  H1363949  15.408  12.480  15.628 -0.4685 -2.0085 -0.3693
   44ETHOX   C263950  15.338  12.460  15.430 -0.2329 -0.0782 -0.6035
   44ETHOX  H2163951  15.432  12.411  15.398  0.5482  1.2965 -0.4817
   44ETHOX  H2363952  15.292  12.518  15.348  0.6873  0.7200 -0.5683
   45ETHOX   O163953  15.250  12.347  15.453 -0.0772 -0.0051 -0.2163
   45ETHOX   C163954  15.196  12.286  15.331  0.0612 -1.0751  0.3442
   45ETHOX  H1163955  15.278  12.240  15.273 -1.7567 -1.7329 -1.8874
   45ETHOX  H1363956  15.167  12.373  15.267  1.7749  0.3963  1.4894
   45ETHOX   C263957  15.088  12.180  15.357 -0.4366 -0.1266 -0.3063
   45ETHOX  H2163958  15.008  12.214  15.426  0.9686  2.4998  0.1627
   45ETHOX  H2363959  15.132  12.097  15.417 -1.1728  2.8263  4.9943
   46ETHOX   O163960  15.026  12.143  15.238 -0.6772 -0.0864  0.2461
   46ETHOX   C163961  14.899  12.076  15.245 -0.2547  0.2597 -0.3327
   46ETHOX  H1163962  14.827  12.135  15.305  0.6935 -0.8358  1.9964
   46ETHOX  H1363963  14.877  12.065  15.137  3.2017  2.3239 -1.4046
   46ETHOX   C263964  14.923  11.931  15.303  0.0970 -0.6473  0.0591
   46ETHOX  H2163965  15.022  11.901  15.260  0.7121  2.5619 -1.0726
   46ETHOX  H2363966  14.838  11.868  15.271  0.9570 -1.9569  0.2606
   47ETHOX   O163967  14.914  11.913  15.445  0.5893 -1.0607  0.6746
   47ETHOX   C163968  14.921  11.782  15.487  0.0946 -0.0515 -0.3305
   47ETHOX  H1163969  14.965  11.781  15.589  3.0666 -0.0589 -1.5166
   47ETHOX  H1363970  14.994  11.728  15.423  1.2085  0.1488  0.7524
   47ETHOX   C263971  14.786  11.718  15.485  0.9254  0.9777 -0.1783
   47ETHOX  H2163972  14.735  11.718  15.386 -1.8127  1.3285  1.1333
   47ETHOX  H2363973  14.710  11.768  15.549 -2.0872 -1.1100 -1.8811
   48ETHOX   O163974  14.796  11.578  15.513  0.2100  0.1600  0.0620
   48ETHOX   C163975  14.674  11.512  15.495 -0.1187 -0.3714 -0.0846
   48ETHOX  H1163976  14.595  11.551  15.563  0.2080 -1.7997  1.1691
   48ETHOX  H1363977  14.627  11.539  15.398  1.1773  1.7870 -0.1907
   48ETHOX   C263978  14.690  11.369  15.519  0.8053  0.0387  0.1396
   48ETHOX  H2163979  14.766  11.338  15.594  1.5612  0.0121 -0.6189
   48ETHOX  H2363980  14.591  11.325  15.543  1.0070  0.3594  1.6621
   49ETHOX   O163981  14.740  11.307  15.402 -0.4021  0.5378 -0.5474
   49ETHOX   C163982  14.756  11.165  15.413  0.6318 -0.2028 -0.3666
   49ETHOX  H1163983  14.683  11.121  15.483  0.2945  0.5938 -0.2121
   49ETHOX  H1363984  14.855  11.157  15.463  0.0694  0.3861  0.8653
   49ETHOX   C263985  14.760  11.088  15.281 -0.5251  0.8182  0.3503
   49ETHOX  H2163986  14.828  11.000  15.293 -1.7042 -0.3213 -1.0329
   49ETHOX  H2363987  14.802  11.162  15.210  0.4729 -2.0197 -2.2524
   50ETHOX   O163988  14.634  11.055  15.223  0.4439 -0.0110 -0.2590
   50ETHOX   C163989  14.578  10.939  15.273  0.1014  0.1663 -0.2846
   50ETHOX  H1163990  14.655  10.859  15.286  1.5114  1.3759 -0.9680
   50ETHOX  H1363991  14.535  10.970  15.371 -0.0421  0.7287 -0.5269
   50ETHOX   C263992  14.457  10.879  15.204  0.1663 -0.2257 -0.1644
   50ETHOX  H2163993  14.460  10.771  15.227  1.1631 -0.1917 -0.1087
   50ETHOX  H2363994  14.449  10.906  15.097 -2.6054  1.7481  0.4277
   51ETHOX   O163995  14.335  10.917  15.263  0.5009  0.9821  0.7431
   51ETHOX   C163996  14.216  10.907  15.180 -0.6572 -0.6539  0.8343
   51ETHOX  H1163997  14.179  10.814  15.132 -1.6201  0.9124 -1.6208
   51ETHOX  H1363998  14.233  10.978  15.096  0.4364  0.1699  1.7222
   51ETHOX   C263999  14.093  10.960  15.248 -0.0537 -0.1196 -0.2852
   51ETHOX  H2164000  14.018  10.988  15.171  2.6759 -0.8001 -3.4035
   51ETHOX  H2364001  14.115  11.061  15.289 -2.0112  0.6852 -1.0795
   52ETHOX   O164002  14.037  10.870  15.345  0.2607 -0.2962 -1.1308
   52ETHOX   C164003  13.908  10.901  15.397  0.8526 -0.2760  0.6926
   52ETHOX  H1164004  13.916  10.998  15.451 -1.0998  0.3268  0.0048
   52ETHOX  H1364005  13.833  10.895  15.315  1.8116  0.2228 -0.2339
   52ETHOX   C264006  13.849  10.796  15.495 -0.2493 -1.1567 -0.2069
   52ETHOX  H2164007  13.756  10.844  15.530 -0.5321 -2.2162  0.5439
   52ETHOX  H2364008  13.917  10.784  15.583 -0.1711 -1.3962 -0.2997
   53ETHOX   O164009  13.820  10.680  15.422 -0.2953  0.5512  0.4615
   53ETHOX   C164010  13.740  10.583  15.495 -0.1282 -0.1838  0.0330
   53ETHOX  H1164011  13.770  10.591  15.601  0.2541 -2.2603  0.1164
   53ETHOX  H1364012  13.632  10.603  15.477 -0.0609 -0.8052 -1.1945
   53ETHOX   C264013  13.768  10.437  15.447 -0.3430  0.2418 -0.1828
   53ETHOX  H2164014  13.723  10.430  15.346  1.2105  1.3567 -0.9940
   53ETHOX  H2364015  13.716  10.362  15.511 -0.3813 -0.4195 -0.9691
   54ETHOX   O164016  13.909  10.395  15.443  0.4104 -0.1854  0.2771
   54ETHOX   C164017  13.957  10.367  15.578  0.3591  0.1766 -0.5047
   54ETHOX  H1164018  13.937  10.451  15.647  2.9869  1.0362 -0.6991
   54ETHOX  H1364019  13.908  10.270  15.600  2.6726 -0.9644 -0.1568
   54ETHOX   C264020  14.108  10.340  15.589  0.1427 -0.3673  0.4723
   54ETHOX  H2164021  14.120  10.330  15.699 -1.9982  1.1258  0.9171
   54ETHOX  H2364022  14.176  10.417  15.548  1.0521 -0.9310  0.8966
   55ETHOX   O164023  14.135  10.218  15.524 -0.2779  0.4559  0.2443
   55ETHOX   C164024  14.259  10.175  15.561 -0.3915  0.4030 -0.0275
   55ETHOX  H1164025  14.338  10.225  15.500  1.1687 -2.0633 -0.1882
   55ETHOX  H1364026  14.277  10.188  15.669  2.6770 -0.8428 -0.2816
   55ETHOX   C264027  14.291  10.027  15.531  0.7632 -1.1686 -0.0696
   55ETHOX  H2164028  14.306  10.011  15.422 -0.0312  1.0943 -0.5529
   55ETHOX  H2364029  14.386  10.011  15.587  0.3161 -0.6397  0.8380
   56ETHOX   O164030  14.202   9.933  15.589 -0.6015 -0.0209  0.1744
   56ETHOX   C164031  14.239   9.797  15.558  0.2108  0.4102  0.0658
   56ETHOX  H1164032  14.345   9.784  15.527 -0.2113 -1.2096 -0.7959
   56ETHOX  H1364033  14.191   9.762  15.464 -0.2547 -1.5856  1.0128
   56ETHOX   C264034  14.202   9.682  15.655 -0.1666  0.3344 -1.0258
   56ETHOX  H2164035  14.245   9.702  15.755  0.1374  0.0883 -1.1076
   56ETHOX  H2364036  14.253   9.598  15.603  0.6122  0.2496 -0.1555
   57ETHOX   O164037  14.061   9.668  15.664 -0.3314 -0.0926 -0.1716
   57ETHOX   C164038  14.019   9.614  15.791  0.6417 -0.4523  0.4095
   57ETHOX  H1164039  14.085   9.526  15.811  2.0031  0.1392 -1.2379
   57ETHOX  H1364040  14.037   9.694  15.866  2.4918 -0.0514 -0.3943
   57ETHOX   C264041  13.866   9.573  15.799 -0.4064  0.5738  0.1503
   57ETHOX  H2164042  13.802   9.654  15.759 -1.0205 -0.3976 -0.9130
   57ETHOX  H2364043  13.854   9.547  15.907  0.4468  0.2568  0.1836
   58ETHOX   O164044  13.861   9.461  15.709  0.0572  0.5710 -0.1621
   58ETHOX   C164045  13.741   9.384  15.738  0.0854  0.1171  0.2576
   58ETHOX  H1164046  13.654   9.453  15.733 -0.5747 -0.7327 -0.3816
   58ETHOX  H1364047  13.746   9.322  15.830 -0.5715 -0.4203 -0.0605
   58ETHOX   C264048  13.719   9.275  15.626  0.6118 -0.3133 -0.0347
   58ETHOX  H2164049  13.809   9.212  15.642  0.9295  0.4058  1.1121
   58ETHOX  H2364050  13.724   9.320  15.524 -0.4566  1.2607  0.5659
   59ETHOX   O164051  13.587   9.215  15.635 -0.5226 -1.0467 -0.3112
   59ETHOX   C164052  13.578   9.104  15.545 -0.3642  0.1297 -0.4863
   59ETHOX  H1164053  13.574   9.123  15.436  0.8631 -1.1418 -0.7740
   59ETHOX  H1364054  13.667   9.040  15.563 -1.0176 -0.4125  0.9629
   59ETHOX   C264055  13.455   9.019  15.587  0.2282  0.0901 -0.3945
   59ETHOX  H2164056  13.479   8.987  15.691 -0.9199  1.2207  0.2317
   59ETHOX  H2364057  13.441   8.926  15.528  0.6007  1.3272 -2.5474
   60ETHOX   O164058  13.340   9.104  15.576 -0.2912  0.3700  0.0121
   60ETHOX   C164059  13.218   9.032  15.607  0.1335 -0.7730  0.3327
   60ETHOX  H1164060  13.234   8.972  15.699 -1.7041 -0.5964  0.8100
   60ETHOX  H1364061  13.190   8.955  15.532 -0.3472 -1.5065  1.2446
   60ETHOX   C264062  13.097   9.121  15.602 -0.5553  0.8089 -0.6071
   60ETHOX  H2164063  13.092   9.152  15.496 -1.8627 -4.5432 -2.4088
   60ETHOX  H2364064  13.136   9.206  15.663 -1.6216  0.9540 -0.1061
   61ETHOX   O164065  12.972   9.065  15.641 -0.0867 -0.0011 -0.0107
   61ETHOX   C164066  12.865   9.166  15.643  0.2606  0.4430  0.3696
   61ETHOX  H1164067  12.912   9.260  15.679  1.2709  0.0959 -0.0088
   61ETHOX  H1364068  12.832   9.185  15.539 -0.1984 -1.2739  0.1650
   61ETHOX   C264069  12.738   9.130  15.725 -0.2198 -0.0715  0.3531
   61ETHOX  H2164070  12.728   9.022  15.703  1.6597 -0.3067  0.4798
   61ETHOX  H2364071  12.652   9.188  15.684  0.3901 -0.4386 -1.5836
   62ETHOX   O164072  12.767   9.161  15.865  0.1301  0.0824  0.2095
   62ETHOX   C164073  12.675   9.086  15.947  0.1980  0.4511 -0.1169
   62ETHOX  H1164074  12.694   8.980  15.923  0.6421  0.8452 -1.5814
   62ETHOX  H1364075  12.570   9.117  15.927 -0.3894 -1.4815 -0.2248
   62ETHOX   C264076  12.714   9.117  16.094  0.0137 -0.2469 -0.0734
   62ETHOX  H2164077  12.820   9.088  16.113 -0.1688 -1.1411 -0.3749
   62ETHOX  H2364078  12.658   9.043  16.155  0.9984 -1.9188 -1.1318
   63ETHOX   O164079  12.685   9.250  16.143  0.4452 -0.3333  0.4769
   63ETHOX   C164080  12.733   9.278  16.272  0.2971 -0.3691 -0.7308
   63ETHOX  H1164081  12.696   9.380  16.296  2.8499  1.0065 -2.2673
   63ETHOX  H1364082  12.695   9.200  16.342  0.7740  0.6801  0.7712
   63ETHOX   C264083  12.887   9.277  16.294 -0.0109  0.5982 -0.7475
   63ETHOX  H2164084  12.925   9.181  16.253 -0.1589  0.2773 -0.1559
   63ETHOX  H2364085  12.903   9.293  16.403 -2.0375 -0.9252 -0.1616
   64ETHOX   O164086  12.968   9.372  16.227  0.2285  0.0452 -0.3666
   64ETHOX   C164087  13.107   9.347  16.258 -0.2295  0.0272 -0.0779
   64ETHOX  H1164088  13.139   9.253  16.207  0.2044 -1.1854  2.2763
   64ETHOX  H1364089  13.107   9.318  16.366 -0.1032 -0.7205 -0.2744
   64ETHOX   C264090  13.203   9.457  16.225  0.1757 -1.3138  0.3493
   64ETHOX  H2164091  13.178   9.483  16.120  0.5176  2.9579  1.1419
   64ETHOX  H2364092  13.306   9.429  16.254 -0.1079 -1.1634  1.5496
   65ETHOX   O164093  13.172   9.573  16.305 -0.1830 -0.1537 -0.4740
   65ETHOX   C164094  13.233   9.691  16.262 -0.0426 -0.6921  0.1037
   65ETHOX  H1164095  13.259   9.689  16.154 -3.4484 -0.0032 -0.8437
   65ETHOX  H1364096  13.173   9.781  16.285 -0.0149 -0.5604 -0.3326
   65ETHOX   C264097  13.370   9.720  16.333  0.3327 -0.0432  0.4886
   65ETHOX  H2164098  13.367   9.701  16.443  3.2781 -0.7610  0.5416
   65ETHOX  H2364099  13.392   9.826  16.309  0.1445  0.0187  0.5864
   66ETHOX   O164100  13.465   9.631  16.279 -0.7052  0.1870  0.4828
   66ETHOX   C164101  13.583   9.616  16.360  0.3429 -0.7944 -0.2107
   66ETHOX  H1164102  13.536   9.575  16.452 -2.4464  1.5223 -0.4444
   66ETHOX  H1364103  13.621   9.720  16.370  0.9685 -0.8383 -1.9035
   66ETHOX   C264104  13.693   9.523  16.314  0.2276  0.1281 -0.2391
   66ETHOX  H2164105  13.787   9.552  16.367  0.5456  1.5891 -1.5421
   66ETHOX  H2364106  13.736   9.542  16.214  2.1875  2.8159  0.9769
   67ETHOX   O164107  13.673   9.384  16.339  0.8389 -0.5785  0.4108
   67ETHOX   C164108  13.710   9.310  16.219  0.4705  0.1488 -0.0168
   67ETHOX  H1164109  13.812   9.343  16.190  1.5466 -2.2347  0.7498
   67ETHOX  H1364110  13.719   9.203  16.250  1.1187  0.7154  1.9340
   67ETHOX   C264111  13.602   9.324  16.113  0.3325  0.2012 -0.2946
   67ETHOX  H2164112  13.640   9.329  16.009 -1.7006 -2.8893 -1.3350
   67ETHOX  H2364113  13.543   9.416  16.137  2.8857  1.9172 -0.2498
   68ETHOX   O164114  13.519   9.209  16.116  0.0106  0.2932  0.5150
   68ETHOX   C164115  13.405   9.219  16.034  0.6049 -0.9280  0.5181
   68ETHOX  H1164116  13.328   9.293  16.065  0.8861 -0.8073  0.9162
   68ETHOX  H1364117  13.436   9.248  15.931  0.6692 -0.3796  0.6919
   68ETHOX   C264118  13.328   9.098  16.016  0.1219 -0.9992 -0.5601
   68ETHOX  H2164119  13.230   9.105  15.963  0.1631  0.8710 -0.4572
   68ETHOX  H2364120  13.290   9.050  16.109 -1.9083  0.4385 -0.5793
   69ETHOX   O164121  13.404   9.015  15.943 -0.2871 -0.0243  0.4473
   69ETHOX   C164122  13.442   8.896  16.018 -0.8183  0.2227  0.1770
   69ETHOX  H1164123  13.535   8.909  16.078 -1.2408  1.2132  0.6381
   69ETHOX  H1364124  13.363   8.862  16.089 -0.6719  0.1391  0.3025
   69ETHOX   C264125  13.472   8.774  15.928  0.3080  0.1571  0.3790
   69ETHOX  H2164126  13.409   8.769  15.837  1.5493  3.3980 -0.7989
   69ETHOX  H2364127  13.480   8.675  15.978 -1.9309 -1.1927 -1.6920
   70ETHOX   O164128  13.596   8.793  15.864  0.3578  0.2179  0.2169
   70ETHOX   C164129  13.656   8.670  15.819 -0.0949 -0.0406  0.2143
   70ETHOX  H1164130  13.696   8.604  15.899 -2.5622 -0.0845  1.4866
   70ETHOX  H1364131  13.580   8.618  15.756  0.2976 -0.0768 -0.2399
   70ETHOX   C264132  13.775   8.698  15.716 -0.3981 -0.1365  0.1833
   70ETHOX  H2164133  13.791   8.596  15.676 -2.4911 -0.3238 -0.3289
   70ETHOX  H2364134  13.860   8.737  15.776 -0.1898 -0.6659  0.2355
   71ETHOX   O164135  13.741   8.787  15.612 -0.1787  1.2726  0.6024
   71ETHOX   C164136  13.866   8.809  15.540 -0.0484 -0.3490  0.2017
   71ETHOX  H1164137  13.906   8.710  15.510 -0.5023 -0.1507 -1.1095
   71ETHOX  H1364138  13.945   8.852  15.606  0.2040  0.4293 -0.5896
   71ETHOX   C264139  13.859   8.894  15.414 -0.5508  0.3460  0.1628
   71ETHOX  H2164140  13.783   8.861  15.340 -0.1318  1.6730 -0.9117
   71ETHOX  H2364141  13.946   8.861  15.352 -0.3078  0.8874  0.2072
   72ETHOX   O164142  13.867   9.034  15.421  0.6438  0.0016  0.1671
   72ETHOX   C164143  13.863   9.089  15.290  0.5014  0.1717  0.0215
   72ETHOX  H1164144  13.914   9.030  15.211 -0.2894  0.3022 -0.6062
   72ETHOX  H1364145  13.755   9.094  15.262 -0.0877  3.4774  2.2541
   72ETHOX   C264146  13.910   9.231  15.295 -0.4109  0.4927  0.1096
   72ETHOX  H2164147  13.837   9.284  15.360 -2.4156 -1.1320 -0.7134
   72ETHOX  H2364148  13.898   9.275  15.194 -0.0162  1.5988  0.5301
   73ETHOX   O164149  14.044   9.236  15.344 -0.5306  0.5771  0.0746
   73ETHOX   C164150  14.075   9.355  15.404 -0.1404  0.2000 -0.3272
   73ETHOX  H1164151  14.027   9.362  15.503  1.0597 -0.0059  0.2912
   73ETHOX  H1364152  14.039   9.435  15.336  1.2392 -1.1039 -2.7587
   73ETHOX   C264153  14.225   9.350  15.420  0.6711  0.2119  0.7928
   73ETHOX  H2164154  14.267   9.451  15.439  1.9817  0.2846 -1.9888
   73ETHOX  H2364155  14.278   9.318  15.328 -2.0381 -3.5675  0.3317
   74ETHOX   O164156  14.268   9.273  15.538 -0.3759  0.2877  0.1833
   74ETHOX   C164157  14.408   9.269  15.539 -0.0413  0.5017 -0.3526
   74ETHOX  H1164158  14.452   9.218  15.450 -1.0571 -1.6438  0.3304
   74ETHOX  H1364159  14.460   9.367  15.546  0.5379  0.0673  2.2927
   74ETHOX   C264160  14.448   9.191  15.663  0.0658  0.3800  0.1848
   74ETHOX  H2164161  14.557   9.170  15.661  0.2334  1.2677 -1.3230
   74ETHOX  H2364162  14.390   9.096  15.667 -0.7925  0.9021  0.3928
   75ETHOX   O164163  14.424   9.271  15.776 -0.6798  0.2117  0.6680
   75ETHOX   C164164  14.299   9.249  15.836  0.3158 -0.3033  0.0572
   75ETHOX  H1164165  14.264   9.146  15.856 -1.4598  0.6585  2.3612
   75ETHOX  H1364166  14.232   9.303  15.765  2.0208 -0.9658 -2.1897
   75ETHOX   C264167  14.312   9.309  15.975  0.3631 -0.1863 -0.0145
   75ETHOX  H2164168  14.413   9.281  16.011  0.4227  1.1470  0.9026
   75ETHOX  H2364169  14.233   9.266  16.041 -0.6102  1.2625 -0.1982
   76ETHOX   O164170  14.288   9.452  15.971  0.4770  0.3964  0.3111
   76ETHOX   C164171  14.359   9.523  16.080  0.0937  0.2925  0.1682
   76ETHOX  H1164172  14.333   9.492  16.183  0.6034  3.0971  1.2339
   76ETHOX  H1364173  14.466   9.499  16.067  0.4615  2.2758 -0.8967
   76ETHOX   C264174  14.339   9.676  16.054 -1.1934  1.5280  0.0257
   76ETHOX  H2164175  14.359   9.688  15.945  0.0494 -1.8151 -0.2404
   76ETHOX  H2364176  14.415   9.734  16.111  0.2300  3.2934 -3.3277
   77ETHOX   O164177  14.211   9.726  16.087  0.4815  0.1815 -0.5798
   77ETHOX   C164178  14.220   9.870  16.084  0.3099  0.2797  0.3464
   77ETHOX  H1164179  14.270   9.900  15.990  1.1668  1.3464  1.1209
   77ETHOX  H1364180  14.281   9.908  16.168  1.7960 -0.7342 -0.2374
   77ETHOX   C264181  14.078   9.943  16.096  0.8223 -0.2631 -0.3555
   77ETHOX  H2164182  14.098  10.052  16.098 -1.1486  0.1718  2.6104
   77ETHOX  H2364183  14.039   9.912  16.195 -0.2211 -0.0560 -0.6889
   78ETHOX   O164184  13.991   9.926  15.982  0.3377  0.7208  0.4409
   78ETHOX   C164185  14.045   9.982  15.861 -0.4663 -0.7221 -0.9830
   78ETHOX  H1164186  14.101  10.078  15.864 -0.3613 -0.8081  0.4467
   78ETHOX  H1364187  14.120   9.913  15.816  1.1651  0.6524 -0.4816
   78ETHOX   C264188  13.926  10.007  15.758 -0.0582  0.2418  0.5629
   78ETHOX  H2164189  13.885   9.905  15.739  0.3650  0.4429 -1.7944
   78ETHOX  H2364190  13.975  10.032  15.661  0.5691  1.2458  1.1239
   79ETHOX   O164191  13.838  10.107  15.803  0.5244 -0.3248  0.1036
   79ETHOX   C164192  13.729  10.105  15.708 -0.2239 -0.8147 -0.2065
   79ETHOX  H1164193  13.767  10.090  15.605  1.7721 -0.3425  0.4166
   79ETHOX  H1364194  13.667  10.016  15.730  0.9113 -1.4637  0.4682
   79ETHOX   C264195  13.644  10.229  15.730 -0.2122 -0.0066  0.6592
   79ETHOX  H2164196  13.702  10.324  15.729 -1.1362  0.5978 -1.6365
   79ETHOX  H2364197  13.606  10.217  15.834  0.6083 -0.9466  0.8693
   80ETHOX   O164198  13.535  10.238  15.643  0.5099  0.0142 -0.4810
   80ETHOX   C164199  13.458  10.354  15.671  1.1334 -0.0230  0.2871
   80ETHOX  H1164200  13.415  10.342  15.773  2.8703 -0.4093  1.0067
   80ETHOX  H1364201  13.521  10.445  15.675 -0.1389  0.9903 -1.3220
   80ETHOX   C264202  13.357  10.368  15.559 -0.4903 -0.4253 -0.5960
   80ETHOX  H2164203  13.298  10.274  15.550  0.0155 -0.6606 -1.5517
   80ETHOX  H2364204  13.421  10.390  15.471  1.4703  0.8690  1.0302
   81ETHOX   O164205  13.273  10.483  15.590 -0.1415 -0.0876  0.0180
   81ETHOX   C164206  13.210  10.532  15.471  0.1729  0.2942  0.2423
   81ETHOX  H1164207  13.257  10.627  15.440  3.0080 -0.4717  1.8270
   81ETHOX  H1364208  13.230  10.455  15.393  2.3160  1.0098  0.0421
   81ETHOX   C264209  13.063  10.560  15.499 -0.5763 -0.4063  0.3213
   81ETHOX  H2164210  13.058  10.625  15.589 -0.7989  0.4260 -0.2748
   81ETHOX  H2364211  13.026  10.617  15.411 -1.1426 -1.4928 -0.1704
   82ETHOX   O164212  12.978  10.447  15.510  0.2519 -0.0670 -0.4665
   82ETHOX   C164213  12.847  10.474  15.560 -0.7903  0.3198 -0.2367
   82ETHOX  H1164214  12.803  10.549  15.491 -1.6345  0.9263  0.9275
   82ETHOX  H1364215  12.849  10.523  15.660  1.9878  0.4560 -0.2774
   82ETHOX   C264216  12.752  10.353  15.566 -0.2571 -0.5231 -0.2941
   82ETHOX  H2164217  12.774  10.289  15.477 -2.1432 -1.2939 -0.2698
   82ETHOX  H2364218  12.647  10.390  15.558  1.0789  3.6580 -0.4191
   83ETHOX   O164219  12.766  10.285  15.690  0.1736 -0.2334 -0.1090
   83ETHOX   C164220  12.897  10.233  15.706 -0.4764 -0.1769 -0.4753
   83ETHOX  H1164221  12.932  10.208  15.604  2.0954  0.4314  0.1838
   83ETHOX  H1364222  12.958  10.311  15.757  0.6084 -1.4425  0.2174
   83ETHOX   C264223  12.881  10.108  15.791  0.5842 -0.1392  0.3005
   83ETHOX  H2164224  12.818  10.120  15.882  0.4552  0.5010  0.1304
   83ETHOX  H2364225  12.979  10.074  15.830  1.5258  1.4725 -0.5476
   84ETHOX   O164226  12.838  10.006  15.714 -0.0415 -0.0068  0.3437
   84ETHOX   C164227  12.773   9.902  15.787 -0.0600 -0.0878 -0.6660
   84ETHOX  H1164228  12.670   9.935  15.813 -0.7607 -1.3858 -1.6881
   84ETHOX  H1364229  12.819   9.902  15.889 -0.7794  0.1371 -0.3314
   84ETHOX   C264230  12.764   9.763  15.721 -0.3525  0.6068  0.2726
   84ETHOX  H2164231  12.699   9.768  15.631 -0.2032 -1.2273  0.0218
   84ETHOX  H2364232  12.720   9.690  15.793 -1.0529  0.6378 -0.1165
   85ETHOX   O164233  12.895   9.740  15.677 -0.0372 -0.2881  0.3916
   85ETHOX   C164234  12.914   9.625  15.607 -0.2923  0.2937  1.2362
   85ETHOX  H1164235  12.906   9.546  15.685  3.3475 -1.2563  0.2474
   85ETHOX  H1364236  12.838   9.603  15.528  0.6871 -1.1519  0.6488
   85ETHOX   C264237  13.054   9.597  15.553 -0.1139  0.5845 -0.3747
   85ETHOX  H2164238  13.045   9.492  15.519 -0.0239  0.4551 -0.0061
   85ETHOX  H2364239  13.135   9.598  15.630 -1.1241 -1.4267  0.7967
   86ETHOX   O164240  13.089   9.678  15.441  0.4781 -0.0926 -0.0263
   86ETHOX   C164241  13.219   9.663  15.393  0.8167  0.0763 -0.1524
   86ETHOX  H1164242  13.226   9.552  15.381 -2.1063 -0.0542 -1.4725
   86ETHOX  H1364243  13.285   9.693  15.477  1.5146 -0.4480 -0.4937
   86ETHOX   C264244  13.249   9.737  15.268  0.2705  0.7103  0.1190
   86ETHOX  H2164245  13.206   9.700  15.173  0.2711 -1.3268  0.8463
   86ETHOX  H2364246  13.359   9.740  15.261  0.4066 -0.5381  1.2244
   87ETHOX   O164247  13.206   9.872  15.291 -0.4978  0.2470 -0.2224
   87ETHOX   C164248  13.279   9.966  15.210  0.1011 -0.7026 -0.0451
   87ETHOX  H1164249  13.388   9.953  15.223 -0.0151 -2.1365 -0.2536
   87ETHOX  H1364250  13.243   9.945  15.107 -1.2782  1.2187 -0.0221
   87ETHOX   C264251  13.237  10.097  15.268  1.1523  0.5664  0.1238
   87ETHOX  H2164252  13.308  10.180  15.248  0.4363  1.6680  1.8902
   87ETHOX  H2364253  13.224  10.095  15.378 -0.3086  0.8587 -0.0197
   88ETHOX   O164254  13.118  10.139  15.194 -0.4067  0.1025  0.4606
   88ETHOX   C164255  13.020  10.214  15.263  0.0759 -0.4119  0.4180
   88ETHOX  H1164256  13.057  10.306  15.312  0.0313  0.0475 -0.3966
   88ETHOX  H1364257  12.963  10.149  15.333 -2.0835 -0.0450 -0.9240
   88ETHOX   C264258  12.901  10.251  15.170 -0.3519  0.0898 -0.3711
   88ETHOX  H2164259  12.815  10.291  15.229 -0.2962  0.7076 -0.7004
   88ETHOX  H2364260  12.868  10.159  15.118  2.5621  0.5196 -3.2712
   89ETHOX   O164261  12.939  10.353  15.066 -0.5980  0.4671 -1.1761
   89ETHOX   C164262  12.971  10.483  15.135  0.0435  0.1552 -0.0327
   89ETHOX  H1164263  12.899  10.500  15.217  2.3148  4.6839  1.3939
   89ETHOX  H1364264  13.065  10.482  15.194  1.0978  1.4650 -1.5905
   89ETHOX   C264265  12.995  10.594  15.027  0.8737 -0.1035 -0.1444
   89ETHOX  H2164266  13.003  10.692  15.078 -0.0001 -0.0841 -0.0349
   89ETHOX  H2364267  12.909  10.589  14.957  1.4864 -2.8476 -0.8451
   90ETHOX   O164268  13.108  10.562  14.946  0.1978 -0.4070  0.0159
   90ETHOX   C164269  13.118  10.641  14.828 -0.4727 -0.2206  0.5832
   90ETHOX  H1164270  13.026  10.634  14.766  0.7616 -1.3496 -1.2073
   90ETHOX  H1364271  13.141  10.746  14.857 -0.7973  0.7008 -2.2415
   90ETHOX   C264272  13.243  10.611  14.743 -0.0402 -0.5240  0.0939
   90ETHOX  H2164273  13.248  10.663  14.645 -1.5079 -0.5154 -0.0003
   90ETHOX  H2364274  13.250  10.502  14.725 -2.5220 -0.6529 -0.3585
   91ETHOX   O164275  13.354  10.657  14.818  0.2373  0.1601 -0.4020
   91ETHOX   C164276  13.482  10.611  14.766  0.9009  0.3813 -0.1841
   91ETHOX  H1164277  13.477  10.500  14.761 -0.9087  0.4697 -1.1796
   91ETHOX  H1364278  13.495  10.638  14.659  1.6238  0.8490  0.0192
   91ETHOX   C264279  13.597  10.661  14.849 -0.4141 -0.3334 -0.5865
   91ETHOX  H2164280  13.585  10.771  14.858  1.2131 -0.1791  0.0593
   91ETHOX  H2364281  13.697  10.648  14.803  0.8610  0.7065  1.6859
   92ETHOX   O164282  13.585  10.600  14.978  0.8868 -0.1123 -0.4655
   92ETHOX   C164283  13.678  10.665  15.064  0.6539 -0.4288 -0.0489
   92ETHOX  H1164284  13.711  10.767  15.034  0.5819  0.2851  2.1471
   92ETHOX  H1364285  13.636  10.671  15.167  3.1611 -0.2111  1.0256
   92ETHOX   C264286  13.813  10.592  15.080  0.0538  0.3062 -0.1725
   92ETHOX  H2164287  13.803  10.485  15.109 -0.0204  0.6364  1.0777
   92ETHOX  H2364288  13.866  10.638  15.166 -2.0640 -0.7212  1.8143
   93ETHOX   O164289  13.892  10.591  14.957  0.0246 -0.4470  0.2853
   93ETHOX   C164290  14.029  10.561  14.982  0.1181 -0.4983  0.0627
   93ETHOX  H1164291  14.067  10.620  15.069  0.0176  1.0041 -0.8733
   93ETHOX  H1364292  14.084  10.594  14.892 -2.4085 -0.5217 -1.5776
   93ETHOX   C264293  14.063  10.418  14.999  0.0966 -0.0534 -0.2878
   93ETHOX  H2164294  14.017  10.374  15.090 -0.6173 -0.1121 -0.6669
   93ETHOX  H2364295  14.173  10.406  15.003  0.0601  0.0694  2.7695
   94ETHOX   O164296  14.019  10.342  14.893 -0.3049  0.4240 -0.3807
   94ETHOX   C164297  14.082  10.213  14.892 -0.1622 -0.5979  0.0871
   94ETHOX  H1164298  14.192  10.212  14.906 -0.0426 -0.7985 -0.8551
   94ETHOX  H1364299  14.053  10.157  14.984  2.5439 -0.7907  0.9158
   94ETHOX   C264300  14.043  10.147  14.762 -0.4667  0.3812  0.0751
   94ETHOX  H2164301  14.115  10.063  14.752 -3.4664 -2.3174 -0.5789
   94ETHOX  H2364302  14.062  10.212  14.674  0.8408  0.3016  0.2794
   95ETHOX   O164303  13.911  10.090  14.756  0.3276  0.4301 -0.0952
   95ETHOX   C164304  13.864  10.051  14.621 -1.0161  0.2350  0.6185
   95ETHOX  H1164305  13.933   9.976  14.578 -1.7389 -0.6466  0.9625
   95ETHOX  H1364306  13.855  10.137  14.551 -2.0739  0.2000  0.6910
   95ETHOX   C264307  13.726   9.989  14.640  0.6294 -0.3200  0.1039
   95ETHOX  H2164308  13.652  10.061  14.681 -1.0491 -1.7473 -0.2928
   95ETHOX  H2364309  13.734   9.917  14.723 -1.5483  1.5966  2.1089
   96ETHOX   O164310  13.685   9.920  14.518 -0.0422  0.2024  0.1266
   96ETHOX   C164311  13.572   9.834  14.540  0.6902  0.1150  0.2084
   96ETHOX  H1164312  13.616   9.748  14.596 -0.9861 -0.2852  0.9854
   96ETHOX  H1364313  13.499   9.887  14.605 -0.1558  0.6213 -1.1094
   96ETHOX   C264314  13.494   9.794  14.412  0.1212 -0.2394 -0.2715
   96ETHOX  H2164315  13.446   9.695  14.432  1.7543 -1.3254 -1.5267
   96ETHOX  H2364316  13.583   9.777  14.349  1.6268 -0.7489  1.8877
   97ETHOX   O164317  13.405   9.885  14.358  0.0982  0.3185 -0.3846
   97ETHOX   C164318  13.350   9.849  14.226  0.2789  0.1942  0.2790
   97ETHOX  H1164319  13.322   9.742  14.219  0.5615  0.1334  0.0633
   97ETHOX  H1364320  13.426   9.870  14.147  1.9899 -0.1762  1.7704
   97ETHOX   C264321  13.225   9.926  14.192 -0.1932  0.0764 -0.3453
   97ETHOX  H2164322  13.215   9.940  14.082  1.1881 -2.0776 -0.8085
   97ETHOX  H2364323  13.231  10.022  14.247  1.2552  0.2458 -0.7697
   98ETHOX   O164324  13.107   9.857  14.238  0.1618 -0.5178  0.1954
   98ETHOX   C164325  12.994   9.943  14.247 -0.0860  0.0932 -0.3904
   98ETHOX  H1164326  12.918   9.904  14.318 -1.8597  1.6517 -1.3295
   98ETHOX  H1364327  13.031  10.035  14.297  0.5594 -0.9897  1.1955
   98ETHOX   C264328  12.922   9.993  14.114 -0.3597  0.5168 -0.2413
   98ETHOX  H2164329  12.821  10.027  14.146 -0.7943 -0.4362 -0.5895
   98ETHOX  H2364330  12.907   9.919  14.033  0.4054  3.5966 -3.4461
   99ETHOX   O164331  12.982  10.117  14.068  0.3319  0.1025  0.0691
   99ETHOX   C164332  12.933  10.151  13.944  0.0789 -0.0107 -0.1589
   99ETHOX  H1164333  12.832  10.114  13.914  0.5954 -0.7299 -1.0869
   99ETHOX  H1364334  12.999  10.105  13.867  0.9339  3.2380 -1.5354
   99ETHOX   C264335  12.946  10.298  13.926 -0.0045  0.6162 -0.1753
   99ETHOX  H2164336  12.943  10.320  13.817  1.2385  1.9743  0.0345
   99ETHOX  H2364337  13.039  10.342  13.968 -1.1182  2.2285  0.7016
  100ETHOX   O164338  12.843  10.366  13.985  0.0571 -0.7786 -0.3068
  100ETHOX   C164339  12.869  10.505  13.967  0.2315  0.1540 -0.4982
  100ETHOX  H1164340  12.942  10.537  14.045 -2.5028  1.9842  1.5180
  100ETHOX  H1364341  12.906  10.517  13.863 -2.4177  1.3448 -1.3959
  100ETHOX   C264342  12.743  10.583  13.973  1.0209  0.1369  0.3332
  100ETHOX  H2164343  12.687  10.557  14.066 -1.3052 -0.4913 -1.1625
  100ETHOX  H2364344  12.674  10.568  13.888  1.7746 -1.8690  0.0257
  101PROXS   O164345  12.762  10.724  13.995  0.6162  0.9690 -0.2212
  101PROXS   C164346  12.656  10.801  13.957  0.4188 -0.2256  0.3784
  101PROXS  H1164347  12.663  10.811  13.846  1.0555 -0.6153  0.3755
  101PROXS  H1364348  12.558  10.754  13.982 -0.1672  0.2640 -0.9023
  101PROXS   C264349  12.653  10.942  14.013  0.0621 -0.1632 -0.4620
  101PROXS  H2164350  12.738  10.998  13.968 -1.1348  3.1179  1.0501
  101PROXS   C364351  12.683  10.956  14.160 -0.2046 -0.3935  0.0782
  101PROXS  H3164352  12.711  11.060  14.188 -0.5998 -0.0285 -0.8585
  101PROXS  H3264353  12.602  10.919  14.227 -0.4724 -0.5615 -0.3343
  101PROXS  H3364354  12.772  10.894  14.183  0.1454  0.4184  1.0009
  102PROXS   O164355  12.538  11.011  13.979  0.4689 -0.1444  0.3184
  102PROXS   C164356  12.520  11.037  13.840 -0.0774 -0.0531  0.6682
  102PROXS  H1164357  12.615  11.083  13.806  0.2414 -1.1898 -0.0097
  102PROXS  H1364358  12.498  10.949  13.777 -0.4006  2.7054 -3.4464
  102PROXS   C264359  12.407  11.140  13.821  0.0335 -0.6019  0.3916
  102PROXS  H2164360  12.430  11.227  13.886  1.2841 -0.8032  0.2560
  102PROXS   C364361  12.265  11.095  13.862  0.4755  0.2178  0.2869
  102PROXS  H3164362  12.275  11.084  13.972  0.0668 -1.0032  0.2214
  102PROXS  H3264363  12.182  11.166  13.843 -1.5145 -1.4878  2.1212
  102PROXS  H3364364  12.233  11.000  13.814 -1.4698  1.4758 -1.0430
  103PROXR   O164365  12.405  11.184  13.688 -0.3983  0.2851 -0.2266
  103PROXR   C164366  12.498  11.290  13.657 -0.0193  0.6315 -0.1901
  103PROXR  H1164367  12.465  11.380  13.712  0.5576  0.6997  0.0535
  103PROXR  H1364368  12.601  11.266  13.691  0.0966  0.7076 -0.4894
  103PROXR   C264369  12.503  11.300  13.504 -0.8062 -0.3820  0.0428
  103PROXR  H2164370  12.407  11.315  13.451 -1.2868  0.3858  1.0815
  103PROXR   C364371  12.560  11.172  13.438 -0.7223 -0.0562  0.3996
  103PROXR  H3164372  12.503  11.087  13.481 -1.5079  0.1631 -0.1842
  103PROXR  H3264373  12.564  11.185  13.328  1.3402 -2.1762  0.1489
  103PROXR  H3364374  12.662  11.164  13.481  0.5186  0.5566 -2.2438
  104PROXS   O164375  12.600  11.407  13.472  0.1229  0.0408  0.4000
  104PROXS   C164376  12.531  11.534  13.476 -0.5891  0.5973 -0.2759
  104PROXS  H1164377  12.458  11.553  13.394  0.4937  2.0031 -0.9600
  104PROXS  H1364378  12.489  11.544  13.578 -0.7254  0.3874 -0.3093
  104PROXS   C264379  12.642  11.642  13.464  1.2510 -0.5016 -0.2645
  104PROXS  H2164380  12.701  11.616  13.374  0.8663 -1.8376 -0.1585
  104PROXS   C364381  12.742  11.651  13.586  0.6363 -0.0459 -0.3151
  104PROXS  H3164382  12.697  11.706  13.671 -2.2913 -0.4153 -1.4926
  104PROXS  H3264383  12.764  11.547  13.619 -1.9989 -1.4715 -2.6206
  104PROXS  H3364384  12.834  11.691  13.537  0.9624 -0.3789  0.0149
  105PROXS   O164385  12.573  11.762  13.443  0.5574 -0.2681  0.2481
  105PROXS   C164386  12.661  11.873  13.409 -0.6397 -0.0042  0.0327
  105PROXS  H1164387  12.727  11.906  13.493  0.6693  1.6540 -1.5790
  105PROXS  H1364388  12.731  11.836  13.331 -0.2487 -0.0769  0.4110
  105PROXS   C264389  12.580  11.994  13.355  0.0837 -0.4098 -0.2195
  105PROXS  H2164390  12.520  12.030  13.441 -1.1927  0.2916 -1.3871
  105PROXS   C364391  12.480  11.948  13.246  0.4047  0.6417  0.4369
  105PROXS  H3164392  12.426  12.036  13.205 -1.2442 -1.1510 -1.4286
  105PROXS  H3264393  12.542  11.897  13.169  0.9816  0.3380  1.0858
  105PROXS  H3364394  12.397  11.885  13.286  1.4943 -0.4373  1.0863
  106PROXS   O164395  12.670  12.102  13.324 -0.2190  0.4667  0.0596
  106PROXS   C164396  12.600  12.225  13.294  0.0761 -0.0181  0.1592
  106PROXS  H1164397  12.579  12.237  13.185 -1.3024  0.9070  0.4969
  106PROXS  H1364398  12.504  12.219  13.349 -0.7909 -0.6156 -1.3534
  106PROXS   C264399  12.681  12.339  13.347  0.1319  0.0941  0.2774
  106PROXS  H2164400  12.779  12.336  13.296 -0.7266  0.5873 -1.4956
  106PROXS   C364401  12.686  12.345  13.504  0.0430  0.2156  0.5955
  106PROXS  H3164402  12.740  12.255  13.539 -0.7321 -0.2814  0.5248
  106PROXS  H3264403  12.732  12.441  13.536  0.0052  0.7517 -0.8541
  106PROXS  H3364404  12.585  12.340  13.550 -1.1683  0.8152 -1.8150
  107PROXR   O164405  12.621  12.460  13.310  0.7677 -0.9481  0.2310
  107PROXR   C164406  12.666  12.501  13.185 -0.2309  0.7656 -0.0613
  107PROXR  H1164407  12.773  12.531  13.182 -0.1982  0.6044 -0.5964
  107PROXR  H1364408  12.644  12.429  13.103 -0.6530 -0.1596  0.8367
  107PROXR   C264409  12.608  12.637  13.150 -0.3145  0.3217 -0.2175
  107PROXR  H2164410  12.657  12.702  13.226  1.0636 -0.1084 -0.7064
  107PROXR   C364411  12.460  12.636  13.141  0.7015  0.5265  0.0869
  107PROXR  H3164412  12.419  12.593  13.047 -1.3491  1.5026  0.4897
  107PROXR  H3264413  12.421  12.579  13.228  1.2676  1.0102  0.6660
  107PROXR  H3364414  12.418  12.738  13.154  0.4417  0.3344  0.7694
  108PROXS   O164415  12.666  12.672  13.027  0.0372 -0.2558  0.0054
  108PROXS   C164416  12.659  12.814  13.012 -0.8129 -0.9318  0.0037
  108PROXS  H1164417  12.554  12.848  13.021 -0.6634 -0.5882  0.4533
  108PROXS  H1364418  12.713  12.860  13.097  0.3997 -0.6994 -0.8528
  108PROXS   C264419  12.730  12.863  12.885  0.6682  0.2125 -0.4708
  108PROXS  H2164420  12.818  12.798  12.868  0.8313  0.2631  0.1698
  108PROXS   C364421  12.794  12.998  12.909  0.4288  0.3397 -0.2391
  108PROXS  H3164422  12.719  13.065  12.956  1.7537  2.4910 -1.0412
  108PROXS  H3264423  12.887  12.985  12.968 -0.4288 -0.9937  0.8866
  108PROXS  H3364424  12.821  13.045  12.812 -1.0484 -1.0347 -1.3730
  109PROXS   O164425  12.639  12.855  12.774 -0.6945  0.5212 -0.2995
  109PROXS   C164426  12.582  12.726  12.743 -0.1195  0.7424  0.0964
  109PROXS  H1164427  12.526  12.688  12.832 -1.2193  1.8216 -0.1081
  109PROXS  H1364428  12.500  12.742  12.670 -0.2099 -1.1866 -0.2908
  109PROXS   C264429  12.677  12.625  12.670 -0.1561  0.1781 -0.6032
  109PROXS  H2164430  12.779  12.640  12.711 -0.7797 -0.8710  1.4642
  109PROXS   C364431  12.689  12.650  12.522  0.4277  0.6838 -0.1324
  109PROXS  H3164432  12.718  12.756  12.502  0.0656  0.6665 -0.7720
  109PROXS  H3264433  12.768  12.587  12.476 -0.5351 -0.0336 -0.8392
  109PROXS  H3364434  12.591  12.632  12.473 -1.6537  0.6132  3.6365
  110PROXR   O164435  12.636  12.487  12.682 -0.0344 -0.1202 -0.6730
  110PROXR   C164436  12.676  12.425  12.804  0.3720 -0.8922  0.0488
  110PROXR  H1164437  12.786  12.432  12.808  0.5393 -2.1103 -1.4873
  110PROXR  H1364438  12.645  12.485  12.892  0.6527 -0.3107 -0.2420
  110PROXR   C264439  12.625  12.278  12.825  0.2837 -0.0948 -0.4879
  110PROXR  H2164440  12.628  12.239  12.721 -1.0672  0.4544 -0.7567
  110PROXR   C364441  12.480  12.272  12.874  0.1855 -0.0406 -0.3068
  110PROXR  H3164442  12.443  12.174  12.910  0.4571  0.3714  1.1775
  110PROXR  H3264443  12.475  12.331  12.969 -0.3366 -0.8582  0.1776
  110PROXR  H3364444  12.406  12.312  12.802 -0.0882 -0.0907 -0.0554
  111PROXS   O164445  12.707  12.207  12.917  0.5686  0.4044 -0.2745
  111PROXS   C164446  12.701  12.070  12.900 -0.5756  0.7249 -0.1913
  111PROXS  H1164447  12.599  12.030  12.919 -0.9388  1.9757  0.6473
  111PROXS  H1364448  12.737  12.052  12.797  3.5497  3.5762  0.5026
  111PROXS   C264449  12.806  12.003  12.991 -0.9044  0.0352  0.2218
  111PROXS  H2164450  12.760  12.019  13.090 -1.5343 -0.4985  0.0219
  111PROXS   C364451  12.947  12.070  12.990  0.5265  0.4031  0.2291
  111PROXS  H3164452  12.988  12.029  12.896 -0.5872 -0.5666  0.1297
  111PROXS  H3264453  12.928  12.179  12.985 -2.4989  0.0116  1.1172
  111PROXS  H3364454  12.998  12.046  13.086 -0.3534 -0.6568  0.4540
  112PROXR   O164455  12.813  11.869  12.942  0.1996 -0.5210 -0.4954
  112PROXR   C164456  12.898  11.786  13.026  0.4620 -0.9926  0.1245
  112PROXR  H1164457  13.002  11.799  12.991  0.4738  2.5371  1.0338
  112PROXR  H1364458  12.900  11.812  13.134  0.2698 -0.7125  0.0634
  112PROXR   C264459  12.854  11.636  13.005  0.2973 -0.7927  0.4454
  112PROXR  H2164460  12.856  11.610  12.897  0.5011 -0.8638  0.4655
  112PROXR   C364461  12.717  11.624  13.071  0.4602 -0.1033  0.0020
  112PROXR  H3164462  12.646  11.697  13.029 -0.8653 -0.9219  0.7549
  112PROXR  H3264463  12.659  11.530  13.076 -2.6506  1.7133  0.7653
  112PROXR  H3364464  12.728  11.662  13.175  1.4455 -0.2292 -0.0471
  113PROXS   O164465  12.947  11.556  13.071  0.3906  0.2295 -0.1534
  113PROXS   C164466  12.931  11.416  13.046  0.4015  0.0525 -0.4077
  113PROXS  H1164467  12.823  11.389  13.052  0.0064  0.9227 -2.6631
  113PROXS  H1364468  12.954  11.396  12.939 -1.5830  0.6463 -0.9748
  113PROXS   C264469  13.015  11.334  13.148  0.1171 -0.3256 -0.0781
  113PROXS  H2164470  13.112  11.385  13.167  0.0712 -0.1265 -0.3783
  113PROXS   C364471  13.026  11.195  13.096 -0.6155  0.0070 -0.0635
  113PROXS  H3164472  13.075  11.183  12.997 -1.2706 -1.9532 -0.1799
  113PROXS  H3264473  13.060  11.119  13.169  2.6292  1.8351  0.5797
  113PROXS  H3364474  12.922  11.165  13.075 -0.9930  1.4632 -0.4366
  114PROXR   O164475  12.951  11.321  13.270  0.1260  0.2591  0.0621
  114PROXR   C164476  12.973  11.432  13.360  0.2001  0.5791  0.4559
  114PROXR  H1164477  12.972  11.532  13.310 -1.0181  0.1396 -0.4573
  114PROXR  H1364478  12.893  11.444  13.436  1.3451 -0.0465  1.7915
  114PROXR   C264479  13.102  11.402  13.443  0.0710 -0.9031  0.4120
  114PROXR  H2164480  13.150  11.316  13.391  0.8678  0.7390 -1.6999
  114PROXR   C364481  13.066  11.361  13.589  0.1411  0.5540 -0.1966
  114PROXR  H3164482  12.995  11.275  13.582 -2.2836  2.2851  1.3682
  114PROXR  H3264483  13.157  11.340  13.648 -0.2310 -1.5221 -0.2838
  114PROXR  H3364484  13.004  11.441  13.635 -0.1691 -0.1720  0.6727
  115PROXR   O164485  13.189  11.516  13.432 -0.2072  0.3988  0.0919
  115PROXR   C164486  13.315  11.491  13.497  0.4465 -0.2820  0.6004
  115PROXR  H1164487  13.302  11.495  13.607 -0.4241  0.7144  0.4793
  115PROXR  H1364488  13.349  11.391  13.462  0.1880 -0.0059 -0.4681
  115PROXR   C264489  13.421  11.591  13.457 -0.3431  0.2381  0.6064
  115PROXR  H2164490  13.399  11.692  13.498 -0.7440  0.9629 -1.3091
  115PROXR   C364491  13.428  11.615  13.305 -0.3077  0.0629  0.2639
  115PROXR  H3164492  13.461  11.528  13.245 -1.9678 -0.1613 -0.3782
  115PROXR  H3264493  13.328  11.646  13.268 -0.4914 -0.6413  0.1716
  115PROXR  H3364494  13.507  11.692  13.290 -0.8451  1.4486  3.6938
  116PROXS   O164495  13.547  11.536  13.493  0.1878 -0.1239  0.1872
  116PROXS   C164496  13.567  11.554  13.636  0.3111  0.2887 -0.0020
  116PROXS  H1164497  13.533  11.655  13.668  2.6403  0.6277  1.6962
  116PROXS  H1364498  13.524  11.470  13.696  1.2445 -1.5560 -1.7749
  116PROXS   C264499  13.715  11.543  13.669 -0.3918  0.0257  0.6075
  116PROXS  H2164500  13.767  11.599  13.589 -1.0197 -1.9621 -1.2959
  116PROXS   C364501  13.769  11.395  13.658  1.2702  0.3991  0.0174
  116PROXS  H3164502  13.710  11.333  13.728  1.4820  0.4700  0.2627
  116PROXS  H3264503  13.758  11.354  13.555 -0.4135  0.2692  0.2345
  116PROXS  H3364504  13.877  11.385  13.683  1.4076  1.9953  0.1366
  117PROXS   O164505  13.736  11.590  13.803 -0.2119  0.0549 -0.4611
  117PROXS   C164506  13.842  11.684  13.820  0.1244  0.4486 -0.0142
  117PROXS  H1164507  13.924  11.670  13.746 -0.0945 -2.2625  0.1342
  117PROXS  H1364508  13.789  11.780  13.804 -5.1421 -1.9237  0.9805
  117PROXS   C264509  13.892  11.701  13.967  0.7080 -0.0367  0.7640
  117PROXS  H2164510  13.796  11.689  14.022 -1.4632  0.5152 -2.6447
  117PROXS   C364511  13.970  11.831  14.011  0.8160 -0.4556  0.0145
  117PROXS  H3164512  13.987  11.822  14.120 -0.6582 -1.6022  0.1731
  117PROXS  H3264513  14.071  11.834  13.964  0.2444 -0.3767 -1.2615
  117PROXS  H3364514  13.913  11.921  13.979  1.3890 -0.3872 -0.8597
  118PROXR   O164515  13.988  11.598  13.994 -0.3482  0.2970 -0.3569
  118PROXR   C164516  13.946  11.464  13.982  0.0890 -0.1578 -0.2767
  118PROXR  H1164517  13.909  11.445  13.879  3.1905  2.6275 -2.0841
  118PROXR  H1364518  14.035  11.401  14.005 -0.3731  0.0294  2.3447
  118PROXR   C264519  13.849  11.426  14.101 -1.1676 -0.1838 -0.3697
  118PROXR  H2164520  13.743  11.449  14.077 -1.2346  1.6387  1.3628
  118PROXR   C364521  13.885  11.504  14.232  0.8358 -0.5802 -0.0253
  118PROXR  H3164522  13.984  11.479  14.278  1.3460 -0.5973 -1.1085
  118PROXR  H3264523  13.881  11.614  14.223 -0.8136 -0.6587 -0.4692
  118PROXR  H3364524  13.818  11.466  14.312  1.1799  1.2910  1.2240
  119PROXR   O164525  13.869  11.291  14.138  0.2178  0.5923  0.4422
  119PROXR   C164526  13.824  11.209  14.026 -0.1872  0.2468 -0.0517
  119PROXR  H1164527  13.728  11.245  13.983 -0.3351 -0.0036  0.0647
  119PROXR  H1364528  13.895  11.210  13.941 -1.2842 -1.7877 -1.0536
  119PROXR   C264529  13.791  11.062  14.072  0.8835  0.3874 -0.4337
  119PROXR  H2164530  13.729  11.066  14.164 -0.5760  1.4822 -1.4057
  119PROXR   C364531  13.922  10.986  14.098  0.0267 -0.3765 -0.1970
  119PROXR  H3164532  13.970  10.964  14.000  0.6001  0.1637 -0.0411
  119PROXR  H3264533  13.993  11.048  14.157 -1.2106 -0.5932  1.5774
  119PROXR  H3364534  13.889  10.892  14.148 -0.9650  0.4805  0.7758
  120PROXS   O164535  13.718  10.997  13.966 -0.4801 -0.2503 -0.3683
  120PROXS   C164536  13.580  10.987  13.988  0.1815  0.1245 -0.6055
  120PROXS  H1164537  13.557  10.909  14.063  3.0583 -0.2562  0.0257
  120PROXS  H1364538  13.549  11.086  14.029  0.4393  0.2335 -0.6708
  120PROXS   C264539  13.505  10.978  13.858 -0.0110 -0.5065  0.2541
  120PROXS  H2164540  13.536  10.879  13.816  0.4153 -0.2356 -0.0680
  120PROXS   C364541  13.549  11.082  13.755 -0.4254  0.6396  0.0256
  120PROXS  H3164542  13.510  11.184  13.775  1.0368  1.1592  0.3186
  120PROXS  H3264543  13.659  11.094  13.763 -0.3693  0.5048 -0.4882
  120PROXS  H3364544  13.518  11.055  13.652 -1.0703  0.4748  0.2562
  121PROXS   O164545  13.365  10.967  13.882  0.4193 -0.4224 -0.7102
  121PROXS   C164546  13.289  10.924  13.771  0.3513  0.3922 -1.0438
  121PROXS  H1164547  13.319  10.980  13.680  1.5414  0.6614 -0.4994
  121PROXS  H1364548  13.308  10.817  13.753  0.1562  0.5088 -1.9967
  121PROXS   C264549  13.139  10.945  13.789 -0.3432 -0.2276  0.5933
  121PROXS  H2164550  13.118  11.052  13.812 -0.6871 -0.0096 -0.6575
  121PROXS   C364551  13.074  10.859  13.899 -0.3281 -0.8555 -0.2937
  121PROXS  H3164552  13.149  10.838  13.978 -2.2858 -2.1140  1.2999
  121PROXS  H3264553  12.986  10.911  13.941 -0.5195 -1.9279  0.6543
  121PROXS  H3364554  13.047  10.763  13.851  1.7233 -2.2436  1.1352
  122PROXS   O164555  13.079  10.903  13.665  0.1355 -0.8638 -0.1736
  122PROXS   C164556  12.935  10.943  13.669 -0.4305 -0.2981 -0.0194
  122PROXS  H1164557  12.885  10.869  13.735  2.1731 -0.9006  1.4439
  122PROXS  H1364558  12.910  11.048  13.694  0.9788  0.7692 -2.6767
  122PROXS   C264559  12.877  10.923  13.530  0.3618 -0.3657 -0.1758
  122PROXS  H2164560  12.917  10.829  13.484  0.1115 -1.1115  1.0793
  122PROXS   C364561  12.924  11.034  13.435  0.3380  0.3140 -0.9030
  122PROXS  H3164562  13.035  11.042  13.428  0.2172  1.9414 -1.2505
  122PROXS  H3264563  12.878  11.023  13.335 -0.5725 -0.4221 -0.4207
  122PROXS  H3364564  12.902  11.129  13.489 -0.6551  0.2536 -1.1952
  123PROXS   O164565  12.734  10.914  13.542  0.6105 -0.3071 -0.2296
  123PROXS   C164566  12.672  10.854  13.431  0.1811  0.3399 -0.5998
  123PROXS  H1164567  12.660  10.928  13.350 -1.3756 -0.1094 -0.8127
  123PROXS  H1364568  12.724  10.763  13.394 -2.0005 -0.7600 -1.1205
  123PROXS   C264569  12.535  10.810  13.471 -0.2345 -0.5855  0.9351
  123PROXS  H2164570  12.488  10.890  13.531 -0.1069  0.5199 -0.3871
  123PROXS   C364571  12.540  10.681  13.552 -0.1888 -0.1778 -0.3331
  123PROXS  H3164572  12.579  10.711  13.651  2.3859  1.9462 -1.8561
  123PROXS  H3264573  12.436  10.644  13.561 -0.0258 -0.7167 -0.6078
  123PROXS  H3364574  12.603  10.609  13.495 -0.4892 -0.1529 -0.6997
  124PROXR   O164575  12.466  10.775  13.347  1.2563  0.0816 -0.4811
  124PROXR   C164576  12.399  10.886  13.279 -0.1554  0.1565  0.0593
  124PROXR  H1164577  12.353  10.946  13.360 -0.3318 -0.1451  0.1827
  124PROXR  H1364578  12.480  10.943  13.228  0.3057 -1.4204 -1.0667
  124PROXR   C264579  12.294  10.840  13.175 -0.1720  0.4687  1.0465
  124PROXR  H2164580  12.228  10.758  13.212  0.0912 -0.9120 -1.3589
  124PROXR   C364581  12.363  10.776  13.051  0.2424 -0.4208 -0.1672
  124PROXR  H3164582  12.431  10.846  12.997 -1.4299  0.8529 -0.7246
  124PROXR  H3264583  12.427  10.695  13.090 -1.2082 -0.9349  1.2595
  124PROXR  H3364584  12.282  10.729  12.991 -0.5453 -0.5923  0.9973
  125PROXS   O164585  12.209  10.952  13.143 -0.6582 -0.3242 -0.1604
  125PROXS   C164586  12.097  10.925  13.067  0.3515  0.2178  0.4149
  125PROXS  H1164587  12.120  10.930  12.958 -0.7329  1.2773  0.2204
  125PROXS  H1364588  12.058  10.822  13.085 -0.0663  0.6430  2.1069
  125PROXS   C264589  11.989  11.031  13.095  0.0196 -0.2228 -0.5764
  125PROXS  H2164590  12.039  11.113  13.152 -3.3613  1.0269  0.8240
  125PROXS   C364591  11.876  10.993  13.195 -0.2802  1.1202 -0.2111
  125PROXS  H3164592  11.835  11.080  13.252 -0.7643  0.3458  0.6499
  125PROXS  H3264593  11.801  10.932  13.142 -0.5161  0.8197  0.4541
  125PROXS  H3364594  11.909  10.925  13.277 -0.4131  0.7768 -0.4441
  126PROXS   O164595  11.934  11.078  12.974  0.0703 -0.1376  0.2932
  126PROXS   C164596  12.017  11.188  12.925 -0.0020  0.3619 -0.5952
  126PROXS  H1164597  12.022  11.265  13.005  1.8067 -1.0943  0.7882
  126PROXS  H1364598  12.117  11.152  12.895  0.4050  1.9730 -1.2689
  126PROXS   C264599  11.958  11.253  12.798  0.0035 -0.7586 -0.0843
  126PROXS  H2164600  11.856  11.292  12.819  0.7721  1.4102 -0.1054
  126PROXS   C364601  11.952  11.173  12.662  0.1546  0.2244 -0.0705
  126PROXS  H3164602  11.876  11.210  12.590 -1.3840 -0.3953  1.1555
  126PROXS  H3264603  12.046  11.168  12.604 -0.2221 -1.6685 -0.5708
  126PROXS  H3364604  11.918  11.070  12.685 -4.8951  1.1422 -2.0461
  127PROXR   O164605  12.037  11.367  12.770  0.6322 -0.2238  0.0800
  127PROXR   C164606  12.000  11.489  12.840  0.3908  0.0096 -1.0254
  127PROXR  H1164607  11.919  11.544  12.788 -0.2816  0.1808  0.1857
  127PROXR  H1364608  11.956  11.455  12.936 -0.5364 -1.1880 -1.8405
  127PROXR   C264609  12.122  11.588  12.850  0.2219 -0.0367 -0.4054
  127PROXR  H2164610  12.151  11.619  12.747  1.6856 -0.2196 -0.0752
  127PROXR   C364611  12.250  11.525  12.899 -0.3185 -0.2805  0.0997
  127PROXR  H3164612  12.340  11.590  12.905  1.0122 -2.0627  0.4755
  127PROXR  H3264613  12.235  11.469  12.994  0.3650 -2.6366 -1.0951
  127PROXR  H3364614  12.280  11.442  12.831 -0.1716 -1.1404  1.1942
  128PROXR   O164615  12.098  11.690  12.949  0.1524 -0.3584  0.6958
  128PROXR   C164616  12.030  11.797  12.889  0.4106  0.3005 -0.1737
  128PROXR  H1164617  11.956  11.756  12.818 -1.3622  1.1719  1.0826
  128PROXR  H1364618  11.982  11.862  12.966 -0.6567  1.3232 -1.6484
  128PROXR   C264619  12.136  11.898  12.824 -0.9455  0.1394 -0.0692
  128PROXR  H2164620  12.196  11.842  12.749 -0.9726 -0.3132  0.2426
  128PROXR   C364621  12.236  11.957  12.921 -0.2968 -0.0135  0.1975
  128PROXR  H3164622  12.255  12.065  12.900  0.5292 -0.6223 -2.5850
  128PROXR  H3264623  12.193  11.946  13.023  1.6839  1.1758  1.2364
  128PROXR  H3364624  12.331  11.901  12.912 -0.8305 -1.4402  2.5313
  129PROXS   O164625  12.065  12.012  12.766 -0.0859  0.1841 -0.3108
  129PROXS   C164626  12.130  12.060  12.648  0.3088  0.1329  0.1766
  129PROXS  H1164627  12.237  12.085  12.665  0.2851  1.6523 -1.5608
  129PROXS  H1364628  12.130  11.979  12.573  2.3925 -1.2014  1.5314
  129PROXS   C264629  12.062  12.190  12.585 -0.0165 -0.4091  0.2426
  129PROXS  H2164630  12.066  12.272  12.661  3.3638 -0.5378  0.3899
  129PROXS   C364631  11.921  12.168  12.540 -0.2533  0.2771 -0.0645
  129PROXS  H3164632  11.872  12.264  12.514 -0.5283 -0.2421 -1.5971
  129PROXS  H3264633  11.923  12.105  12.448 -0.1365  1.8404 -1.1826
  129PROXS  H3364634  11.860  12.116  12.617 -1.2360  0.1468 -0.8968
  130PROXS   O164635  12.153  12.231  12.483  0.1553 -0.4061 -0.0090
  130PROXS   C164636  12.124  12.361  12.433  0.0606  0.0305  0.6648
  130PROXS  H1164637  12.029  12.356  12.376  0.4501 -0.3060  0.0328
  130PROXS  H1364638  12.104  12.433  12.515  0.6360 -0.4171  1.2138
  130PROXS   C264639  12.233  12.410  12.338 -0.1558  0.3817  1.7633
  130PROXS  H2164640  12.249  12.334  12.258 -0.2179  1.4147  0.7523
  130PROXS   C364641  12.365  12.448  12.403  0.7819  0.3427 -1.2289
  130PROXS  H3164642  12.443  12.491  12.336  2.7976 -0.1656  0.6719
  130PROXS  H3264643  12.359  12.521  12.487 -0.2660  0.4249 -1.3598
  130PROXS  H3364644  12.407  12.359  12.455 -0.9617  0.7060  0.9549
  131PROXS   O164645  12.187  12.525  12.282 -0.5824 -0.1755 -0.1536
  131PROXS   C164646  12.239  12.550  12.151 -0.0861  0.7137 -0.3262
  131PROXS  H1164647  12.345  12.520  12.136 -0.6961 -1.6744 -0.2498
  131PROXS  H1364648  12.174  12.483  12.091 -2.2930  0.4069  2.2243
  131PROXS   C264649  12.220  12.692  12.113 -0.0682  0.1063 -0.2018
  131PROXS  H2164650  12.283  12.757  12.179  0.2205  0.6714 -1.0046
  131PROXS   C364651  12.074  12.718  12.123  0.1970  0.3715 -0.0084
  131PROXS  H3164652  12.035  12.698  12.226 -0.2469 -1.4938 -0.4981
  131PROXS  H3264653  12.055  12.824  12.097  0.0806  0.5693  0.8542
  131PROXS  H3364654  12.008  12.645  12.071 -1.4097 -1.6531  4.2971
  132PROXS   O164655  12.262  12.711  11.979 -0.5964 -0.1102  0.1733
  132PROXS   C164656  12.273  12.847  11.939  0.6694  0.1216  0.9657
  132PROXS  H1164657  12.174  12.896  11.934 -0.4931 -2.2411 -0.6382
  132PROXS  H1364658  12.343  12.899  12.009 -0.2863  0.9749  1.3193
  132PROXS   C264659  12.347  12.858  11.799 -0.2637  0.8263 -0.4724
  132PROXS  H2164660  12.283  12.805  11.726  1.3023  0.0921 -1.3560
  132PROXS   C364661  12.485  12.784  11.792  0.2950  0.2380 -0.0008
  132PROXS  H3164662  12.472  12.673  11.795 -1.5249  0.4334  0.5582
  132PROXS  H3264663  12.539  12.816  11.700 -0.1495  1.8443  0.2666
  132PROXS  H3364664  12.547  12.807  11.881 -0.9016 -0.5931  1.0835
  133PROXS   O164665  12.363  12.993  11.751 -0.2005 -0.2663  0.0004
  133PROXS   C164666  12.439  13.077  11.843 -0.4232 -0.2761 -0.0864
  133PROXS  H1164667  12.374  13.102  11.929 -1.4789  0.2972 -1.0242
  133PROXS  H1364668  12.535  13.034  11.880 -0.2911  1.2368  1.4212
  133PROXS   C264669  12.488  13.212  11.778 -0.1145 -0.7409 -0.1763
  133PROXS  H2164670  12.394  13.263  11.750  0.4379  0.4733  0.1497
  133PROXS   C364671  12.566  13.184  11.648  0.4878  0.5194  0.4153
  133PROXS  H3164672  12.675  13.173  11.668  0.6272  0.0018 -0.5703
  133PROXS  H3264673  12.527  13.094  11.597 -0.0992  0.8235  0.3211
  133PROXS  H3364674  12.551  13.271  11.580  1.9605  0.4878  0.0204
  134PROXS   O164675  12.565  13.290  11.866 -0.2960  0.0704  0.5351
  134PROXS   C164676  12.531  13.427  11.871  0.1648  0.2966  0.0743
  134PROXS  H1164677  12.621  13.485  11.902  1.5461 -1.1403 -1.1340
  134PROXS  H1364678  12.501  13.452  11.767 -0.4368 -0.0914  0.1490
  134PROXS   C264679  12.413  13.446  11.967 -0.1508 -0.5492  0.2178
  134PROXS  H2164680  12.322  13.383  11.958 -1.4504  1.2250  0.3813
  134PROXS   C364681  12.354  13.592  11.942 -0.5879  0.8053  0.6842
  134PROXS  H3164682  12.260  13.588  12.001 -2.0696  2.0702 -1.4794
  134PROXS  H3264683  12.431  13.669  11.965  0.1286  0.3827 -0.2114
  134PROXS  H3364684  12.322  13.601  11.836 -1.6656  0.3945  0.9680
  135PROXS   O164685  12.452  13.438  12.103  0.3497  0.0013 -0.3558
  135PROXS   C164686  12.478  13.308  12.157  0.1460 -0.5255  0.0260
  135PROXS  H1164687  12.382  13.255  12.139 -0.0846 -0.1740  0.1975
  135PROXS  H1364688  12.563  13.261  12.103 -0.8484 -0.9774 -1.2094
  135PROXS   C264689  12.516  13.305  12.312  0.5719 -0.3463  0.9810
  135PROXS  H2164690  12.439  13.344  12.382  2.5384  0.8643  2.5790
  135PROXS   C364691  12.656  13.364  12.335  0.5324  0.5446  0.8109
  135PROXS  H3164692  12.733  13.293  12.299  0.0794  0.2739  0.3606
  135PROXS  H3264693  12.668  13.469  12.299 -0.1282  0.6549  0.8947
  135PROXS  H3364694  12.673  13.365  12.445  2.5332  0.5565  0.5284
  136PROXS   O164695  12.535  13.168  12.349  0.1735  0.4027  0.5020
  136PROXS   C164696  12.415  13.094  12.352  0.5247 -0.0570  0.9903
  136PROXS  H1164697  12.342  13.143  12.421 -1.4553 -0.1389 -0.9471
  136PROXS  H1364698  12.366  13.098  12.253  1.8685 -0.8254  0.2729
  136PROXS   C264699  12.447  12.948  12.391 -0.5916 -0.2212 -0.3206
  136PROXS  H2164700  12.496  12.941  12.490  0.2733 -0.3713 -0.7511
  136PROXS   C364701  12.543  12.884  12.284  0.6421 -0.6526 -0.4905
  136PROXS  H3164702  12.637  12.941  12.268  0.1060  0.1345 -0.8754
  136PROXS  H3264703  12.552  12.775  12.307  0.1229 -0.4415  0.8338
  136PROXS  H3364704  12.497  12.885  12.183  0.9597  1.0091 -0.6395
  137PROXS   O164705  12.335  12.876  12.388 -0.1017  0.0048 -0.7386
  137PROXS   C164706  12.266  12.879  12.512  0.6965 -0.2147 -0.0009
  137PROXS  H1164707  12.333  12.820  12.578  1.5236  0.6696 -0.0190
  137PROXS  H1364708  12.241  12.981  12.547  0.0054 -1.1648  2.4928
  137PROXS   C264709  12.130  12.809  12.501 -0.1086  0.8905  0.6693
  137PROXS  H2164710  12.130  12.715  12.442  1.5650  1.1185  0.2617
  137PROXS   C364711  12.026  12.896  12.444  0.0802  0.1737 -0.1448
  137PROXS  H3164712  12.053  12.938  12.344 -0.3083 -0.2276 -0.4254
  137PROXS  H3264713  11.933  12.837  12.425 -0.6724  0.4879  2.2494
  137PROXS  H3364714  12.008  12.988  12.502 -0.4413  0.0855 -0.1605
  138PROXR   O164715  12.077  12.780  12.632  0.2518  0.3786  0.1997
  138PROXR   C164716  12.123  12.660  12.697 -0.4378 -0.6999  0.7860
  138PROXR  H1164717  12.050  12.584  12.661  1.5496 -1.3351 -2.2777
  138PROXR  H1364718  12.226  12.641  12.659 -0.0236  3.0500 -0.3759
  138PROXR   C264719  12.126  12.676  12.849  0.3074  0.1537 -0.4362
  138PROXR  H2164720  12.021  12.695  12.879 -0.0775 -0.1799 -1.4913
  138PROXR   C364721  12.223  12.785  12.897 -0.1245  0.3167  0.4756
  138PROXR  H3164722  12.323  12.755  12.859 -0.1917 -0.7061  1.0680
  138PROXR  H3264723  12.186  12.873  12.840  1.2425 -0.4365 -1.7191
  138PROXR  H3364724  12.213  12.799  13.007 -0.0032 -0.5920  0.6043
  139PROXS   O164725  12.160  12.550  12.908 -0.4518 -0.2711 -0.0193
  139PROXS   C164726  12.103  12.528  13.034  0.0493 -0.0738  0.4613
  139PROXS  H1164727  12.136  12.609  13.103 -2.2389  0.7855  0.6016
  139PROXS  H1364728  11.993  12.540  13.030  0.0521 -0.3038 -0.3587
  139PROXS   C264729  12.149  12.395  13.097  0.3314 -0.8451 -0.0309
  139PROXS  H2164730  12.259  12.403  13.089  0.2685 -1.7151 -2.3132
  139PROXS   C364731  12.096  12.277  13.006 -0.0511 -0.1823 -0.3300
  139PROXS  H3164732  11.989  12.280  12.978 -0.4395 -2.3070  0.6670
  139PROXS  H3264733  12.147  12.277  12.908 -1.4087 -0.5871 -1.0577
  139PROXS  H3364734  12.109  12.184  13.066 -2.2112 -0.2783  0.0778
  140PROXR   O164735  12.107  12.389  13.234 -0.1779  0.2950  0.2628
  140PROXR   C164736  12.204  12.310  13.305  0.2421  0.4895  0.7226
  140PROXR  H1164737  12.201  12.208  13.262 -0.9052 -0.3930  2.7418
  140PROXR  H1364738  12.310  12.342  13.296  0.6418 -0.5765  1.4109
  140PROXR   C264739  12.171  12.312  13.463  0.4363 -1.0688 -0.0346
  140PROXR  H2164740  12.060  12.319  13.467  0.5238  0.3911  0.5993
  140PROXR   C364741  12.231  12.434  13.535  0.1433 -0.3048 -0.4483
  140PROXR  H3164742  12.341  12.423  13.530  0.4311  2.0008 -0.3674
  140PROXR  H3264743  12.213  12.528  13.479  0.2915  0.6463  1.0622
  140PROXR  H3364744  12.195  12.435  13.640 -2.0212  1.1147 -1.1445
  141PROXS   O164745  12.217  12.189  13.510 -0.2497 -0.0861  0.7773
  141PROXS   C164746  12.164  12.153  13.640 -0.6795 -0.1824 -0.5976
  141PROXS  H1164747  12.200  12.227  13.715  1.9338 -0.9483 -1.0068
  141PROXS  H1364748  12.054  12.171  13.641 -0.9561 -1.6260  1.4621
  141PROXS   C264749  12.184  12.003  13.688  0.0524  0.1376 -0.0502
  141PROXS  H2164750  12.295  12.002  13.693  0.2226 -0.5214 -2.5150
  141PROXS   C364751  12.140  11.901  13.587  0.1392  0.0165 -0.6928
  141PROXS  H3164752  12.197  11.908  13.492  0.2414  0.1564 -0.6214
  141PROXS  H3264753  12.158  11.799  13.626  0.3265 -0.6496 -2.4350
  141PROXS  H3364754  12.035  11.918  13.557 -0.0180 -0.4479 -0.4153
  142PROXS   O164755  12.115  11.978  13.806 -0.5752  0.4127  0.1434
  142PROXS   C164756  12.136  12.076  13.905 -0.5385  0.0277  0.1351
  142PROXS  H1164757  12.244  12.081  13.930 -0.4421 -4.0707  1.2487
  142PROXS  H1364758  12.099  12.179  13.882  3.9728  1.7042 -0.5053
  142PROXS   C264759  12.065  12.026  14.031 -0.2131  0.0782  0.2628
  142PROXS  H2164760  12.086  11.920  14.054  0.2862  0.4878  1.7998
  142PROXS   C364761  11.911  12.034  14.014  0.1927  0.0252 -0.3865
  142PROXS  H3164762  11.882  12.140  13.998 -0.6726 -0.2877 -0.9719
  142PROXS  H3264763  11.885  11.973  13.925 -0.7829  1.3457 -1.0385
  142PROXS  H3364764  11.857  11.988  14.100  1.8218  0.2384  0.7934
  143PROXS   O164765  12.114  12.102  14.142 -0.0006  0.1021  0.3140
  143PROXS   C164766  12.070  12.059  14.266 -0.6108  0.1240  0.1041
  143PROXS  H1164767  11.962  12.082  14.260 -0.2811  1.5305 -1.0220
  143PROXS  H1364768  12.100  11.953  14.273  0.1282  0.4194  2.2846
  143PROXS   C264769  12.141  12.139  14.369  0.4630 -0.2933 -0.0547
  143PROXS  H2164770  12.248  12.133  14.339  0.0862  1.3267 -1.8682
  143PROXS   C364771  12.119  12.071  14.513 -0.1271  0.2528 -0.0377
  143PROXS  H3164772  12.151  12.148  14.587  0.8475  1.1118 -1.3027
  143PROXS  H3264773  12.014  12.038  14.524 -0.1225 -0.0661 -0.9223
  143PROXS  H3364774  12.179  11.978  14.518 -2.1852 -1.0876  1.3578
  144PROXS   O164775  12.093  12.271  14.369  0.2084  0.8262 -0.2558
  144PROXS   C164776  12.187  12.368  14.408  0.0829 -0.5026  0.1316
  144PROXS  H1164777  12.195  12.371  14.519  1.1815 -0.1808  0.0572
  144PROXS  H1364778  12.283  12.349  14.357  0.9739  0.2436  1.4607
  144PROXS   C264779  12.135  12.506  14.357 -0.2749 -0.4625  0.4874
  144PROXS  H2164780  12.033  12.521  14.399 -1.4778 -2.0230 -1.6747
  144PROXS   C364781  12.126  12.510  14.200 -0.9177  0.2087 -0.4439
  144PROXS  H3164782  12.050  12.435  14.169 -0.6311 -1.4771  2.5111
  144PROXS  H3264783  12.119  12.613  14.159  1.9615  1.2641  1.3918
  144PROXS  H3364784  12.226  12.483  14.159 -0.9335 -1.6474  0.6157
  145PROXR   O164785  12.228  12.600  14.403  0.1474 -0.4405 -0.0143
  145PROXR   C164786  12.188  12.735  14.384 -0.0922  0.1871  0.2058
  145PROXR  H1164787  12.266  12.784  14.322 -1.5396  1.4500 -0.6993
  145PROXR  H1364788  12.090  12.745  14.332  0.3641 -0.5476 -0.8236
  145PROXR   C264789  12.176  12.789  14.529 -0.2088 -0.4784 -0.8923
  145PROXR  H2164790  12.269  12.756  14.580  0.7390  1.0513 -1.5695
  145PROXR   C364791  12.050  12.734  14.612  0.2068  0.1707  0.0199
  145PROXR  H3164792  12.054  12.624  14.633 -0.6653  0.1408  0.0640
  145PROXR  H3264793  12.039  12.779  14.713  3.2052  2.5002 -0.5696
  145PROXR  H3364794  11.953  12.740  14.559  1.3899  0.1468 -2.2563
  146PROXS   O164795  12.163  12.930  14.538 -0.3962  0.0085  0.5086
  146PROXS   C164796  12.288  13.000  14.552 -0.2374  0.4243  0.1032
  146PROXS  H1164797  12.361  12.950  14.484 -0.1329  0.2065  0.3777
  146PROXS  H1364798  12.265  13.101  14.512  0.5558  1.3074  1.7815
  146PROXS   C264799  12.328  13.025  14.697 -0.4635 -0.5244  0.2398
  146PROXS  H2164800  12.333  12.925  14.746  1.9959 -1.2919 -1.4170
  146PROXS   C364801  12.227  13.112  14.775 -0.6663 -0.3171  0.6545
  146PROXS  H3164802  12.255  13.117  14.882 -0.3222 -0.3392  0.5640
  146PROXS  H3264803  12.218  13.215  14.734  0.9077 -1.0689 -1.7378
  146PROXS  H3364804  12.127  13.064  14.765  0.2045 -1.8808 -0.9822
  147PROXR   O164805  12.445  13.101  14.693 -0.4196  0.1505 -0.2955
  147PROXR   C164806  12.556  13.021  14.635  0.3732 -0.1356  0.0274
  147PROXR  H1164807  12.540  12.912  14.649 -0.0212 -0.0754  0.0651
  147PROXR  H1364808  12.563  13.052  14.528 -0.1556 -1.7675 -0.5172
  147PROXR   C264809  12.690  13.038  14.717  0.0191 -0.1474  0.0107
  147PROXR  H2164810  12.666  13.036  14.825 -1.0677 -0.1523 -0.2272
  147PROXR   C364811  12.763  13.169  14.683  0.6469 -0.4168 -0.5405
  147PROXR  H3164812  12.807  13.169  14.581  3.4418 -1.6993  0.5459
  147PROXR  H3264813  12.708  13.262  14.709 -1.1918 -1.7551  0.5882
  147PROXR  H3364814  12.858  13.163  14.742  0.7116 -4.2351 -0.8145
  148PROXR   O164815  12.777  12.932  14.682  0.0168  0.2923 -0.2196
  148PROXR   C164816  12.855  12.878  14.791  0.4605 -0.3688 -0.2157
  148PROXR  H1164817  12.961  12.908  14.784  0.1455  0.9112  0.1865
  148PROXR  H1364818  12.829  12.918  14.891  1.5298 -2.4704  0.9674
  148PROXR   C264819  12.831  12.728  14.778 -0.6676 -0.2419 -0.4932
  148PROXR  H2164820  12.837  12.687  14.675  1.3924 -0.5893 -0.2846
  148PROXR   C364821  12.703  12.685  14.844  0.1470  0.5205  0.5468
  148PROXR  H3164822  12.624  12.760  14.824 -0.0619 -0.1168 -1.1866
  148PROXR  H3264823  12.666  12.588  14.805  0.0075  0.1205  1.6333
  148PROXR  H3364824  12.705  12.678  14.955 -2.5703  0.4815  0.6546
  149PROXR   O164825  12.939  12.670  14.854 -0.0183 -0.7281 -0.2696
  149PROXR   C164826  13.019  12.583  14.777 -0.8248 -0.6397  0.3704
  149PROXR  H1164827  12.967  12.492  14.740  0.2604 -0.8598 -0.6901
  149PROXR  H1364828  13.053  12.650  14.695 -1.9472  1.9754  1.9339
  149PROXR   C264829  13.137  12.542  14.857  0.2973  0.3944 -0.2974
  149PROXR  H2164830  13.097  12.489  14.947 -0.9279 -0.3644 -1.2595
  149PROXR   C364831  13.213  12.665  14.897 -1.1814 -0.2389 -0.8281
  149PROXR  H3164832  13.296  12.644  14.967 -1.3293 -1.3093 -0.9564
  149PROXR  H3264833  13.257  12.708  14.804 -1.3843  0.4888 -0.5990
  149PROXR  H3364834  13.154  12.750  14.937  1.8821  1.2982  0.8718
  150PROXS   O164835  13.218  12.450  14.788  0.1611 -0.1014  0.7082
  150PROXS   C164836  13.323  12.391  14.871 -0.3530  0.7378  0.2384
  150PROXS  H1164837  13.406  12.464  14.885 -0.1579  0.1240  2.8478
  150PROXS  H1364838  13.283  12.364  14.971 -1.7627 -1.4040 -0.8174
  150PROXS   C264839  13.385  12.268  14.793  0.2483  0.1670 -0.9042
  150PROXS  H2164840  13.473  12.227  14.848 -2.3305 -1.9009  2.0627
  150PROXS   C364841  13.427  12.306  14.648  0.5572 -0.2273  0.4229
  150PROXS  H3164842  13.353  12.325  14.567 -0.2123  0.8966  1.3670
  150PROXS  H3264843  13.496  12.390  14.670  1.9714 -0.8769 -1.2302
  150PROXS  H3364844  13.493  12.219  14.628  1.0650 -0.1572  1.7228
  151PROXR   O164845  13.287  12.170  14.768 -0.1467 -0.8133 -1.1114
  151PROXR   C164846  13.258  12.089  14.879  0.1935  0.1499 -0.5222
  151PROXR  H1164847  13.359  12.054  14.912 -0.9237 -1.3153  1.5943
  151PROXR  H1364848  13.214  12.136  14.970 -1.2462 -1.2448 -0.4607
  151PROXR   C264849  13.188  11.958  14.848 -0.0108  0.3023 -0.3184
  151PROXR  H2164850  13.262  11.901  14.788 -0.4064 -0.9204  0.3331
  151PROXR   C364851  13.050  11.964  14.778 -0.3220  0.4813 -1.0869
  151PROXR  H3164852  13.011  11.866  14.742 -1.1040 -0.1673  1.3462
  151PROXR  H3264853  12.971  11.999  14.847  0.0276 -0.4776 -0.1614
  151PROXR  H3364854  13.049  12.031  14.690 -1.6149 -0.9093 -2.1858
  152PROXR   O164855  13.158  11.895  14.969  0.1424 -0.2265 -0.4482
  152PROXR   C164856  13.260  11.807  15.017  0.5483  0.7707  0.2188
  152PROXR  H1164857  13.265  11.712  14.960  2.9241 -0.4473  2.2625
  152PROXR  H1364858  13.360  11.856  15.024  0.6977  0.3198  1.6490
  152PROXR   C264859  13.237  11.761  15.166  0.0757  0.1207  0.1209
  152PROXR  H2164860  13.140  11.709  15.182  0.6003 -0.1881  2.7200
  152PROXR   C364861  13.246  11.883  15.259  0.7246  0.1872  0.1528
  152PROXR  H3164862  13.242  11.862  15.368  1.5526 -0.7624  0.0192
  152PROXR  H3264863  13.336  11.942  15.230 -1.0950  2.8593 -0.4256
  152PROXR  H3364864  13.158  11.944  15.231 -0.8541 -2.1335 -0.2112
  153PROXR   O164865  13.345  11.678  15.205 -0.2161  0.5458 -0.1080
  153PROXR   C164866  13.323  11.544  15.155  0.2260  0.5578 -0.5779
  153PROXR  H1164867  13.259  11.495  15.231  0.7173  0.7539 -0.0340
  153PROXR  H1364868  13.288  11.534  15.050 -1.5750 -0.1760  0.0650
  153PROXR   C264869  13.452  11.460  15.171  0.1205  0.0875 -0.0200
  153PROXR  H2164870  13.507  11.472  15.267 -1.4789  3.1896  0.6324
  153PROXR   C364871  13.548  11.503  15.057  0.7249 -0.8669 -0.3281
  153PROXR  H3164872  13.502  11.515  14.956  0.8587  0.6416 -0.2222
  153PROXR  H3264873  13.578  11.607  15.083 -0.0707 -0.5468 -0.6521
  153PROXR  H3364874  13.638  11.438  15.045  0.5314 -0.7302 -3.3492
  154PROXS   O164875  13.421  11.322  15.149 -0.6833 -0.7131 -0.0198
  154PROXS   C164876  13.521  11.235  15.190 -0.4900 -0.4766 -0.4101
  154PROXS  H1164877  13.619  11.245  15.138 -0.1722 -2.3392 -0.2256
  154PROXS  H1364878  13.548  11.255  15.296  0.8573 -1.6915 -0.4902
  154PROXS   C264879  13.472  11.087  15.191 -0.2090 -0.1492 -0.0693
  154PROXS  H2164880  13.376  11.081  15.246 -0.3241  0.0484 -0.2478
  154PROXS   C364881  13.559  10.995  15.266 -0.2299 -0.1920 -0.1260
  154PROXS  H3164882  13.651  10.967  15.210 -0.5817  0.5321 -1.0862
  154PROXS  H3264883  13.582  11.032  15.368 -0.8337 -2.3884  0.8851
  154PROXS  H3364884  13.508  10.897  15.281  0.9353 -1.0457 -1.4968
  155PROXR   O164885  13.462  11.034  15.059 -0.0140 -0.7270  0.0368
  155PROXR   C164886  13.347  11.084  14.987 -0.1644  0.1629  0.4221
  155PROXR  H1164887  13.250  11.078  15.041 -1.4067  0.9102 -1.6153
  155PROXR  H1364888  13.359  11.195  14.981  0.0129  0.0667 -1.5869
  155PROXR   C264889  13.345  11.030  14.850  0.0973 -0.0417  0.1917
  155PROXR  H2164890  13.312  10.924  14.849 -1.7845  0.5020  1.0583
  155PROXR   C364891  13.489  11.035  14.783  0.2789 -0.1141 -0.0555
  155PROXR  H3164892  13.519  11.141  14.769  0.5053  0.3537  3.0675
  155PROXR  H3264893  13.566  10.980  14.841  2.5415  1.9755 -0.9021
  155PROXR  H3364894  13.486  10.976  14.689  1.1585 -1.0504  0.4702
  156PROXS   O164895  13.253  11.111  14.776  0.0670  0.0423 -0.2906
  156PROXS   C164896  13.199  11.052  14.657 -0.4232  0.1414  0.9289
  156PROXS  H1164897  13.282  11.020  14.590 -1.3340  0.9981 -0.6635
  156PROXS  H1364898  13.159  10.955  14.694 -0.7595 -0.7541 -1.5895
  156PROXS   C264899  13.097  11.126  14.582  0.0264  0.2343 -0.5871
  156PROXS  H2164900  13.140  11.227  14.565 -0.4250  0.3411 -1.1222
  156PROXS   C364901  12.968  11.150  14.672  0.1295 -0.1497  0.3562
  156PROXS  H3164902  12.898  11.065  14.681  1.0016 -1.0840 -1.1202
  156PROXS  H3264903  13.003  11.178  14.773  1.2210 -0.1549 -0.0011
  156PROXS  H3364904  12.902  11.232  14.634 -1.6905 -1.4676  0.5606
  157PROXS   O164905  13.082  11.067  14.451  0.0670 -0.3282 -0.8067
  157PROXS   C164906  13.007  11.148  14.360 -0.0484 -0.6339  0.1707
  157PROXS  H1164907  12.898  11.142  14.381 -0.0482  2.2347  1.4613
  157PROXS  H1364908  13.036  11.255  14.362 -1.4431 -0.2403  0.7713
  157PROXS   C264909  13.025  11.096  14.214 -0.1162 -0.2269 -0.0562
  157PROXS  H2164910  13.005  10.987  14.215 -0.5635 -0.2370  3.4062
  157PROXS   C364911  13.172  11.106  14.159  0.5142  0.2310 -0.4404
  157PROXS  H3164912  13.241  11.046  14.222  0.1135  1.0007  0.7811
  157PROXS  H3264913  13.175  11.065  14.056  0.5817 -0.4591 -0.1638
  157PROXS  H3364914  13.204  11.212  14.167 -0.7528  0.7133 -1.4755
  158PROXR   O164915  12.932  11.152  14.126  0.0355 -0.2289  0.0004
  158PROXR   C164916  12.969  11.279  14.085  0.0142 -0.5298  0.8033
  158PROXR  H1164917  13.028  11.337  14.159  0.6402 -0.4265  0.2349
  158PROXR  H1364918  13.033  11.276  13.994 -0.3025  0.7647  0.5066
  158PROXR   C264919  12.845  11.363  14.041 -0.2067  0.0797 -0.4737
  158PROXR  H2164920  12.769  11.335  14.117  1.2512 -1.3925  0.4910
  158PROXR   C364921  12.799  11.330  13.901  0.4589  0.2771 -0.4612
  158PROXR  H3164922  12.814  11.227  13.864  0.4920 -0.0553  0.4586
  158PROXR  H3264923  12.690  11.347  13.890  0.1856 -1.0201  0.0344
  158PROXR  H3364924  12.846  11.406  13.835 -1.4523  0.4656 -1.6844
  159PROXR   O164925  12.873  11.510  14.048 -0.5880  0.8697  0.7428
  159PROXR   C164926  12.757  11.595  14.046 -0.9841 -0.6782 -0.1048
  159PROXR  H1164927  12.693  11.568  13.959 -1.1637  0.8979 -0.4794
  159PROXR  H1364928  12.696  11.582  14.138 -1.3816 -1.0062 -0.4062
  159PROXR   C264929  12.794  11.741  14.030 -0.0222  0.7391  0.9699
  159PROXR  H2164930  12.851  11.754  13.936 -3.9896  0.3549 -1.7474
  159PROXR   C364931  12.880  11.787  14.143  0.4322 -0.6048  0.1382
  159PROXR  H3164932  12.965  11.718  14.163  1.6144  1.0446  1.1520
  159PROXR  H3264933  12.916  11.892  14.144  0.3525 -0.5755  1.2055
  159PROXR  H3364934  12.810  11.777  14.229 -1.1663 -0.3661 -1.1051
  160PROXS   O164935  12.675  11.823  14.008  0.2407 -0.0389  0.2128
  160PROXS   C164936  12.695  11.927  13.908 -0.6253  0.3028  0.0541
  160PROXS  H1164937  12.788  11.983  13.928 -1.5742  1.8572  0.2787
  160PROXS  H1364938  12.704  11.879  13.808 -0.8404  0.5907 -0.1035
  160PROXS   C264939  12.576  12.025  13.909  0.3383  0.0258 -0.0243
  160PROXS  H2164940  12.479  11.972  13.921  1.1211 -1.6227 -0.5833
  160PROXS   C364941  12.582  12.089  13.780 -0.3759  0.1420  0.1777
  160PROXS  H3164942  12.563  12.015  13.699 -1.2817 -1.7303  2.0008
  160PROXS  H3264943  12.493  12.155  13.774 -0.8141 -0.4178  0.4378
  160PROXS  H3364944  12.668  12.156  13.761  0.2916 -1.0938 -1.3331
  161PROXR   O164945  12.594  12.126  14.009 -0.1922  0.4572  0.0939
  161PROXR   C164946  12.553  12.088  14.138 -0.1931 -0.1490  0.7812
  161PROXR  H1164947  12.443  12.076  14.142 -0.2700  0.2061 -0.1044
  161PROXR  H1364948  12.597  11.989  14.164 -0.2988 -0.7796 -1.2389
  161PROXR   C264949  12.583  12.193  14.241  0.6084  0.5905 -0.3484
  161PROXR  H2164950  12.541  12.291  14.210  1.4081  0.8102 -0.7748
  161PROXR   C364951  12.738  12.204  14.251 -0.7616  0.0230 -0.3809
  161PROXR  H3164952  12.783  12.225  14.152  0.1768  1.5286  0.3219
  161PROXR  H3264953  12.777  12.282  14.320 -1.9136  1.3721 -1.2089
  161PROXR  H3364954  12.767  12.106  14.294  0.8950  0.9771  0.8263
  162PROXR   O164955  12.527  12.162  14.371  0.6040 -0.0059  0.6831
  162PROXR   C164956  12.548  12.271  14.459  0.0133  0.6747  0.1698
  162PROXR  H1164957  12.653  12.266  14.495 -0.8540  1.9282  3.1970
  162PROXR  H1364958  12.524  12.368  14.411  3.1184  1.7253  0.5341
  162PROXR   C264959  12.472  12.255  14.588  0.0034 -0.2683 -0.1688
  162PROXR  H2164960  12.376  12.210  14.556 -0.7273  2.6132 -2.5149
  162PROXR   C364961  12.430  12.379  14.666 -0.7602  0.0833  0.4532
  162PROXR  H3164962  12.358  12.357  14.748 -0.2198  1.3951  1.3095
  162PROXR  H3264963  12.514  12.413  14.731 -0.1128  0.0340 -0.3395
  162PROXR  H3364964  12.392  12.463  14.604  0.0378  1.4253  1.7205
  163PROXS   O164965  12.540  12.162  14.677 -0.7653 -0.7528  0.4048
  163PROXS   C164966  12.535  12.030  14.624 -0.7290  0.0950  0.4102
  163PROXS  H1164967  12.442  11.997  14.573  0.5852 -0.9144 -1.4537
  163PROXS  H1364968  12.614  12.010  14.549  0.5538  1.4512  1.3446
  163PROXS   C264969  12.557  11.928  14.742 -0.2492  0.0912  0.3174
  163PROXS  H2164970  12.501  11.958  14.833 -0.4747  1.4803 -0.2575
  163PROXS   C364971  12.703  11.917  14.778  0.1058 -0.4704  0.9809
  163PROXS  H3164972  12.765  11.897  14.688 -0.9524  0.8573 -0.0908
  163PROXS  H3264973  12.740  12.013  14.818  1.9289 -0.1668 -1.2250
  163PROXS  H3364974  12.726  11.838  14.852  0.6736 -0.1146  1.1911
  164PROXR   O164975  12.506  11.809  14.705 -0.0090  0.4365 -0.2883
  164PROXR   C164976  12.457  11.723  14.813 -0.2187 -0.5655 -0.4125
  164PROXR  H1164977  12.514  11.735  14.907  0.8217  0.3784 -1.1309
  164PROXR  H1364978  12.349  11.742  14.823 -0.7330 -2.2159 -2.0948
  164PROXR   C264979  12.475  11.572  14.767 -0.6082  0.3765  0.2746
  164PROXR  H2164980  12.418  11.558  14.673 -0.2701  1.5673 -0.1190
  164PROXR   C364981  12.422  11.469  14.868  0.2563 -0.5182 -0.1965
  164PROXR  H3164982  12.313  11.465  14.893  0.8591  0.8282  3.2979
  164PROXR  H3264983  12.441  11.366  14.832  1.1695 -1.4095  2.5492
  164PROXR  H3364984  12.475  11.484  14.964 -1.8986 -1.5254  1.2414
  165PROXR   O164985  12.617  11.560  14.749 -0.9512  0.2559 -0.3317
  165PROXR   C164986  12.653  11.517  14.620 -0.0226  0.0850  0.6521
  165PROXR  H1164987  12.636  11.408  14.606 -0.3939  0.4461 -2.3506
  165PROXR  H1364988  12.601  11.580  14.545  0.3928 -1.4571 -0.9977
  165PROXR   C264989  12.800  11.562  14.586 -0.5440  0.3567  0.1851
  165PROXR  H2164990  12.794  11.671  14.607  0.6812  0.3716  0.5441
  165PROXR   C364991  12.837  11.528  14.443 -0.3568 -0.1360  0.1759
  165PROXR  H3164992  12.942  11.553  14.416  0.1072  0.1410  2.1197
  165PROXR  H3264993  12.824  11.421  14.417  1.8683 -0.3098 -0.4619
  165PROXR  H3364994  12.779  11.600  14.381 -0.3578  0.0965  0.4436
  166ETHOX   O164995  12.887  11.497  14.680 -0.0432  0.7149  0.4550
  166ETHOX   C164996  13.002  11.564  14.704 -0.3824  0.4315 -0.8415
  166ETHOX  H1164997  12.992  11.672  14.727 -0.5706  0.1690  0.3561
  166ETHOX  H1364998  13.071  11.568  14.617  1.1041  0.2734  0.2875
  166ETHOX   C264999  13.079  11.487  14.809 -0.5328  0.4832  0.1859
  166ETHOX  H2165000  13.183  11.523  14.827 -0.5234  1.2396 -1.2183
  166ETHOX  H2365001  13.077  11.379  14.785 -0.9658  0.1357  1.6694
  167ETHOX   O165002  13.008  11.495  14.930  0.0655 -0.3579 -0.6308
  167ETHOX   C165003  13.029  11.387  15.017  0.0903  0.1664  0.0767
  167ETHOX  H1165004  12.976  11.297  14.979  0.8733 -0.1754 -0.2248
  167ETHOX  H1365005  13.139  11.377  15.022  0.0573 -1.8952 -1.9669
  167ETHOX   C265006  12.962  11.414  15.149 -0.4800  0.3214  1.0240
  167ETHOX  H2165007  12.851  11.410  15.136 -0.2742  1.3777 -1.6346
  167ETHOX  H2365008  12.993  11.513  15.189  0.9450 -0.1565  1.1521
  168ETHOX   O165009  13.008  11.317  15.240  0.4175 -0.3252 -0.2783
  168ETHOX   C165010  12.911  11.304  15.345 -0.1570  0.0135 -0.9381
  168ETHOX  H1165011  12.935  11.215  15.407 -4.4576 -1.2949 -0.7888
  168ETHOX  H1365012  12.807  11.293  15.308 -0.9003  3.0740 -0.0428
  168ETHOX   C265013  12.908  11.422  15.445  0.0896  0.0179  0.0237
  168ETHOX  H2165014  12.813  11.414  15.502 -0.2652  0.5824 -0.4693
  168ETHOX  H2365015  12.894  11.516  15.387  2.0805  0.4468  0.1847
  169ETHOX   O165016  13.015  11.446  15.542  0.2049  0.3706  0.5822
  169ETHOX   C165017  13.126  11.505  15.480 -0.4308 -0.4935  0.4369
  169ETHOX  H1165018  13.156  11.438  15.396 -1.7381  0.7804 -1.1029
  169ETHOX  H1365019  13.099  11.607  15.445 -1.5354 -1.1158 -0.6164
  169ETHOX   C265020  13.253  11.503  15.572 -0.4515 -0.3555 -0.7355
  169ETHOX  H2165021  13.239  11.550  15.671 -1.5095 -3.4850  0.7316
  169ETHOX  H2365022  13.343  11.557  15.536  1.1291 -0.7912  2.2129
  170ETHOX   O165023  13.320  11.374  15.603  0.1141  0.5184 -0.2292
  170ETHOX   C165024  13.459  11.386  15.649  0.4483  0.0844  0.5902
  170ETHOX  H1165025  13.468  11.466  15.725 -2.6337  0.9217  0.2107
  170ETHOX  H1365026  13.528  11.417  15.568 -1.6306 -1.7014 -2.0554
  170ETHOX   C265027  13.511  11.256  15.700 -0.4371 -0.1738 -0.1981
  170ETHOX  H2165028  13.615  11.277  15.729 -0.9145  1.9159  0.1367
  170ETHOX  H2365029  13.508  11.183  15.616  1.0694 -1.8967  1.1872
  171ETHOX   O165030  13.438  11.209  15.809  0.7430  0.2640 -0.0892
  171ETHOX   C165031  13.466  11.076  15.842  0.5401  0.8169  0.1790
  171ETHOX  H1165032  13.571  11.039  15.840 -0.2554 -1.5844 -0.8134
  171ETHOX  H1365033  13.437  11.065  15.948  0.9515  1.2265  0.3384
  171ETHOX   C265034  13.373  10.975  15.772 -0.2859 -0.2404  0.2080
  171ETHOX  H2165035  13.271  11.017  15.756  0.2066  0.4806 -1.2194
  171ETHOX  H2365036  13.358  10.887  15.840 -0.6532 -1.0190 -0.8534
  172ETHOX   O165037  13.440  10.940  15.648  0.3748  0.5021  0.5866
  172ETHOX   C165038  13.346  10.877  15.561 -0.1746 -0.0159  0.1708
  172ETHOX  H1165039  13.288  10.802  15.619  2.3198 -3.5246 -1.5014
  172ETHOX  H1365040  13.404  10.813  15.491 -0.7590  0.7617 -1.0591
  172ETHOX   C265041  13.263  10.988  15.503 -0.6264 -0.0808  0.0377
  172ETHOX  H2165042  13.317  11.084  15.494 -2.9692  1.4047  0.8281
  172ETHOX  H2365043  13.171  11.007  15.563 -0.5744 -1.0577  0.4442
  173ETHOX   O165044  13.231  10.940  15.378 -0.4620  0.1219  0.0460
  173ETHOX   C165045  13.107  10.979  15.329  0.4606 -0.2058  0.4738
  173ETHOX  H1165046  13.026  10.984  15.405 -1.0530  1.0133 -1.1260
  173ETHOX  H1365047  13.108  11.085  15.297 -1.7353  0.6235  2.7754
  173ETHOX   C265048  13.064  10.882  15.216 -0.1271 -0.8767  0.3596
  173ETHOX  H2165049  13.140  10.876  15.135 -1.9839 -1.5653 -1.4269
  173ETHOX  H2365050  13.065  10.782  15.264  1.0136  0.3849  3.1271
  174ETHOX   O165051  12.939  10.915  15.168 -0.3753 -0.1193  0.1661
  174ETHOX   C165052  12.938  10.998  15.056 -0.4013 -0.2304  0.3980
  174ETHOX  H1165053  12.985  11.097  15.076 -1.4625  0.6866 -1.3727
  174ETHOX  H1365054  12.993  10.951  14.973  1.4512  3.5228 -0.7422
  174ETHOX   C265055  12.794  11.036  15.019 -0.3379 -0.0693  0.1768
  174ETHOX  H2165056  12.789  11.139  14.979 -0.0754 -0.5226 -1.0731
  174ETHOX  H2365057  12.728  11.041  15.108 -0.0092 -0.5220  0.4544
  175ETHOX   O165058  12.746  10.944  14.926  0.0043  0.1249 -0.3628
  175ETHOX   C165059  12.638  10.990  14.852  0.1027  0.3000 -0.5435
  175ETHOX  H1165060  12.549  10.998  14.919  0.9639 -2.4404  1.0961
  175ETHOX  H1365061  12.659  11.090  14.809  0.5378  0.3881 -0.1364
  175ETHOX   C265062  12.592  10.890  14.740  1.0271  0.0687 -0.7245
  175ETHOX  H2165063  12.486  10.917  14.721  0.3377 -0.4750  1.9283
  175ETHOX  H2365064  12.582  10.791  14.790 -1.1943 -1.1814 -3.3329
  176ETHOX   O165065  12.665  10.877  14.618  0.1638  0.1866  0.5111
  176ETHOX   C165066  12.801  10.813  14.635 -0.3446 -0.2220  0.2363
  176ETHOX  H1165067  12.871  10.876  14.693  0.1001 -0.8115  0.3515
  176ETHOX  H1365068  12.790  10.724  14.701 -0.2818 -0.1149  0.3918
  176ETHOX   C265069  12.856  10.785  14.495 -0.0291 -0.1579  0.2742
  176ETHOX  H2165070  12.963  10.807  14.478  0.2121 -1.7384 -0.4526
  176ETHOX  H2365071  12.807  10.841  14.412  0.0098 -2.5376 -1.4472
  177ETHOX   O165072  12.846  10.647  14.470 -0.4487  0.3520  0.0328
  177ETHOX   C165073  12.709  10.602  14.449 -0.3601 -0.4519  0.6914
  177ETHOX  H1165074  12.664  10.654  14.361  0.2402  0.2297  0.7732
  177ETHOX  H1365075  12.654  10.627  14.543  1.6200 -0.1331  1.8135
  177ETHOX   C265076  12.709  10.447  14.425 -0.5339 -0.6989 -0.4376
  177ETHOX  H2165077  12.603  10.417  14.442 -0.3320 -0.5438  1.2274
  177ETHOX  H2365078  12.772  10.392  14.497 -1.0959 -1.9624 -0.8836
  178ETHOX   O165079  12.748  10.413  14.300 -0.1102 -0.1458 -0.2816
  178ETHOX   C165080  12.725  10.269  14.279 -0.2098 -0.3527  0.0233
  178ETHOX  H1165081  12.808  10.239  14.211  0.6655 -0.8246  1.2687
  178ETHOX  H1365082  12.732  10.215  14.376 -0.2360 -0.2865  0.0619
  178ETHOX   C265083  12.596  10.231  14.205  0.0635  0.2727  0.2591
  178ETHOX  H2165084  12.602  10.129  14.162  0.2870  0.2036  0.4518
  178ETHOX  H2365085  12.574  10.308  14.128 -0.2597 -0.9074 -0.8551
  179ETHOX   O165086  12.483  10.230  14.290 -0.5543 -0.3002  0.2974
  179ETHOX   C165087  12.358  10.242  14.223  0.8949 -0.4796  0.4655
  179ETHOX  H1165088  12.323  10.161  14.155 -0.1262 -0.5191  1.0205
  179ETHOX  H1365089  12.358  10.336  14.164 -0.1112 -0.0471  1.1316
  179ETHOX   C265090  12.251  10.262  14.338 -0.3444 -0.1460 -0.3359
  179ETHOX  H2165091  12.168  10.329  14.306 -1.9139 -0.3669  2.8876
  179ETHOX  H2365092  12.291  10.317  14.426 -2.7276 -0.3496  0.9455
  180ETHOX   O165093  12.196  10.139  14.372  0.2375 -0.2768 -0.0711
  180ETHOX   C165094  12.132  10.137  14.494  0.1286  0.1915 -0.1717
  180ETHOX  H1165095  12.073  10.231  14.506  0.2231 -0.0416  2.7894
  180ETHOX  H1365096  12.058  10.054  14.490 -0.4549  0.7306 -1.0029
  180ETHOX   C265097  12.230  10.116  14.609 -0.1690  0.1549 -0.2342
  180ETHOX  H2165098  12.290  10.023  14.599  0.5415  0.6733 -0.9059
  180ETHOX  H2365099  12.170  10.101  14.701  1.3094 -2.4754  0.4141
  181ETHOX   O165100  12.311  10.230  14.627  0.0595  0.0441  0.0769
  181ETHOX   C165101  12.446  10.200  14.648 -0.0357 -0.2281 -0.4499
  181ETHOX  H1165102  12.492  10.194  14.547  0.2875 -0.7554 -0.2771
  181ETHOX  H1365103  12.465  10.101  14.694 -0.7228 -0.1778 -0.0417
  181ETHOX   C265104  12.524  10.304  14.726  0.7884  0.1221  0.1313
  181ETHOX  H2165105  12.493  10.287  14.832 -4.7004  1.1602 -0.9826
  181ETHOX  H2365106  12.496  10.402  14.682  0.5394  0.0622  0.1538
  182ETHOX   O165107  12.665  10.299  14.709 -0.1928 -0.4115 -0.3481
  182ETHOX   C165108  12.732  10.205  14.787  0.1064  0.0622 -0.2095
  182ETHOX  H1165109  12.725  10.235  14.894 -0.3590 -2.3434  0.4813
  182ETHOX  H1365110  12.693  10.102  14.777  2.8729 -1.0347 -0.8104
  182ETHOX   C265111  12.886  10.188  14.764  0.5656 -0.7744  0.1034
  182ETHOX  H2165112  12.938  10.137  14.847 -0.3990 -0.6962  0.7678
  182ETHOX  H2365113  12.930  10.290  14.758 -1.8445  0.3213 -0.2105
  183ETHOX   O165114  12.911  10.105  14.652  0.2723  0.8721  0.0195
  183ETHOX   C165115  13.040  10.136  14.600  0.1871  0.0493  0.6290
  183ETHOX  H1165116  13.085  10.053  14.542 -1.3081 -0.7556  0.5830
  183ETHOX  H1365117  13.111  10.161  14.682  2.8122 -3.1829 -0.4184
  183ETHOX   C265118  13.037  10.258  14.501 -0.4502 -0.5936  0.0651
  183ETHOX  H2165119  13.026  10.347  14.566  6.0495 -0.1061  1.0951
  183ETHOX  H2365120  12.962  10.244  14.420  1.2613  2.0264 -2.1965
  184ETHOX   O165121  13.165  10.275  14.426  0.1407  0.4360 -0.0486
  184ETHOX   C165122  13.144  10.345  14.302 -0.8464 -0.0646  0.4778
  184ETHOX  H1165123  13.226  10.321  14.231 -0.6445  0.6967  0.4449
  184ETHOX  H1365124  13.052  10.303  14.257 -0.9421 -0.7400  1.2808
  184ETHOX   C265125  13.121  10.495  14.317 -0.1942  0.7214  0.2774
  184ETHOX  H2165126  13.057  10.496  14.408  0.9923  0.1074  1.1527
  184ETHOX  H2365127  13.073  10.544  14.230  0.9105  1.4433  0.0567
  185ETHOX   O165128  13.228  10.576  14.344 -0.2777 -0.1063  0.3027
  185ETHOX   C165129  13.246  10.697  14.268 -0.8881  0.0805  0.2176
  185ETHOX  H1165130  13.155  10.760  14.268 -2.0208 -1.4707  1.3395
  185ETHOX  H1365131  13.313  10.768  14.321 -2.5748  2.2682 -0.4398
  185ETHOX   C265132  13.309  10.671  14.131 -0.4061 -0.5908  0.7690
  185ETHOX  H2165133  13.403  10.611  14.128  0.7740  1.1329 -2.9154
  185ETHOX  H2365134  13.337  10.769  14.088  0.8994 -2.0934 -2.0867
  186ETHOX   O165135  13.220  10.618  14.035 -0.2918  0.4609  0.0820
  186ETHOX   C165136  13.281  10.586  13.910  0.5278 -0.1765 -0.2039
  186ETHOX  H1165137  13.198  10.597  13.837 -0.8744 -0.2399  1.3192
  186ETHOX  H1365138  13.358  10.657  13.871  1.5195 -1.3477 -0.4297
  186ETHOX   C265139  13.330  10.441  13.901 -0.4856 -0.5061  0.2840
  186ETHOX  H2165140  13.375  10.443  13.799 -1.3339  1.3707 -0.1071
  186ETHOX  H2365141  13.248  10.366  13.904 -1.1361  0.0776 -1.4835
  187ETHOX   O165142  13.425  10.389  13.992 -0.1460  0.5404 -0.7824
  187ETHOX   C165143  13.466  10.257  13.969 -0.1217  0.0986  0.2195
  187ETHOX  H1165144  13.398  10.198  13.905 -0.9596  2.1271 -0.8458
  187ETHOX  H1365145  13.560  10.281  13.914  0.2648  1.4261  1.4073
  187ETHOX   C265146  13.507  10.185  14.095  0.4468  0.3231  0.3309
  187ETHOX  H2165147  13.520  10.077  14.072 -0.0305  0.1572  0.8475
  187ETHOX  H2365148  13.412  10.194  14.151 -0.4314 -1.2596 -0.8174
  188ETHOX   O165149  13.621  10.244  14.154  0.3276 -0.7813 -0.5208
  188ETHOX   C165150  13.711  10.151  14.214  0.3074  0.1297 -0.1841
  188ETHOX  H1165151  13.722  10.059  14.152  1.9974 -0.0672  0.3680
  188ETHOX  H1365152  13.660  10.122  14.308  1.0755  0.9560  0.4987
  188ETHOX   C265153  13.849  10.214  14.246 -0.1740 -0.5505  0.5858
  188ETHOX  H2165154  13.891  10.173  14.341  0.2671 -0.3792  0.4693
  188ETHOX  H2365155  13.823  10.319  14.271 -1.1772 -0.9414  1.2211
  189ETHOX   O165156  13.957  10.214  14.147 -0.4464 -0.0282 -0.2446
  189ETHOX   C165157  13.929  10.291  14.035 -0.3801  0.6271 -0.0544
  189ETHOX  H1165158  13.829  10.266  13.994  1.0190 -2.2239 -2.0375
  189ETHOX  H1365159  13.922  10.399  14.064  0.7813  0.6127  0.3273
  189ETHOX   C265160  14.021  10.269  13.919  0.4972 -0.2411 -0.1652
  189ETHOX  H2165161  14.125  10.285  13.954  0.2657  1.4666 -0.1948
  189ETHOX  H2365162  13.996  10.348  13.845  0.2445 -0.3359 -0.1828
  190ETHOX   O165163  14.010  10.150  13.851 -0.9429  0.4294  0.8803
  190ETHOX   C165164  14.101  10.147  13.737  0.5078 -0.0995  0.2194
  190ETHOX  H1165165  14.201  10.123  13.779  1.2643  2.1380 -0.1419
  190ETHOX  H1365166  14.107  10.249  13.692 -2.5116  0.6598  1.2315
  190ETHOX   C265167  14.053  10.045  13.637  0.1966 -0.4310 -0.0930
  190ETHOX  H2165168  14.122  10.053  13.550 -0.3662  2.2460 -0.3874
  190ETHOX  H2365169  13.953  10.080  13.601  0.2437 -0.5574 -0.3525
  191ETHOX   O165170  14.043   9.911  13.677  0.0086  0.2081  0.4457
  191ETHOX   C165171  14.019   9.821  13.564 -0.2510 -0.4859 -0.3696
  191ETHOX  H1165172  13.922   9.849  13.518 -0.0583 -1.8830 -1.7124
  191ETHOX  H1365173  14.091   9.843  13.482 -1.5706 -1.6922 -1.9197
  191ETHOX   C265174  14.040   9.671  13.589 -0.4568  0.4247  0.2804
  191ETHOX  H2165175  14.003   9.605  13.507  0.1686  0.5237 -0.0847
  191ETHOX  H2365176  13.988   9.636  13.681 -0.4041  1.2661  0.6403
  192ETHOX   O165177  14.180   9.653  13.602  0.1813  0.6473 -0.6320
  192ETHOX   C165178  14.224   9.517  13.591  0.1991  0.0004  0.1510
  192ETHOX  H1165179  14.334   9.508  13.590  0.2425  0.0445 -2.6508
  192ETHOX  H1365180  14.193   9.480  13.491 -0.1926  1.5120 -0.3010
  192ETHOX   C265181  14.155   9.428  13.699 -1.1760 -0.9203 -0.0061
  192ETHOX  H2165182  14.154   9.480  13.797  1.6574  0.9130 -0.8210
  192ETHOX  H2365183  14.225   9.342  13.703  1.4613  1.1212 -0.0682
  193ETHOX   O165184  14.034   9.378  13.656  0.9290  0.5309 -0.1566
  193ETHOX   C165185  13.954   9.332  13.766 -0.1557 -0.1986 -0.3574
  193ETHOX  H1165186  13.986   9.237  13.815 -2.5742 -1.2908 -0.7598
  193ETHOX  H1365187  13.957   9.415  13.841 -1.1487 -0.8473  0.4362
  193ETHOX   C265188  13.807   9.304  13.721  0.6094  0.4648 -0.0901
  193ETHOX  H2165189  13.749   9.228  13.779 -1.7424  1.4515 -1.0204
  193ETHOX  H2365190  13.802   9.281  13.613  1.1184 -0.0076 -0.0179
  194ETHOX   O165191  13.717   9.417  13.743  0.0499 -0.3648  0.2658
  194ETHOX   C165192  13.679   9.489  13.623 -0.0832  0.1942  0.1271
  194ETHOX  H1165193  13.658   9.428  13.533  0.0419  0.3497 -0.0075
  194ETHOX  H1365194  13.764   9.558  13.605 -0.8865  0.8120 -1.5328
  194ETHOX   C265195  13.559   9.577  13.660  0.7322 -0.0193 -0.6083
  194ETHOX  H2165196  13.568   9.669  13.598  2.5097  0.8451  0.8541
  194ETHOX  H2365197  13.554   9.598  13.769 -1.2427 -4.5665  0.4255
  195ETHOX   O165198  13.434   9.516  13.639 -0.4715  0.0847  0.1282
  195ETHOX   C165199  13.328   9.582  13.706 -0.0692  0.2234  0.6978
  195ETHOX  H1165200  13.345   9.599  13.815 -1.9184 -1.5164  1.3059
  195ETHOX  H1365201  13.317   9.683  13.661  3.3369 -0.5998 -2.5143
  195ETHOX   C265202  13.212   9.497  13.681  1.1345 -0.1749 -0.2243
  195ETHOX  H2165203  13.235   9.390  13.703  2.6554  0.2320  0.2910
  195ETHOX  H2365204  13.181   9.484  13.575 -0.9065 -0.1536  0.3248
  196ETHOX   O165205  13.110   9.536  13.771  0.5085 -0.2559  0.4573
  196ETHOX   C165206  13.001   9.448  13.782 -0.0631 -0.1800  0.1461
  196ETHOX  H1165207  12.919   9.502  13.835 -0.0058 -0.3220  0.3798
  196ETHOX  H1365208  12.973   9.409  13.682  0.1864 -0.8090  0.3148
  196ETHOX   C265209  13.025   9.314  13.858 -0.8523 -0.5955 -0.2827
  196ETHOX  H2165210  12.924   9.290  13.898 -1.0067 -0.0980 -0.3609
  196ETHOX  H2365211  13.091   9.339  13.945 -0.2514 -2.5862 -0.1303
  197ETHOX   O165212  13.079   9.217  13.779 -0.1585  0.2214  0.8125
  197ETHOX   C165213  13.107   9.092  13.848  0.1364 -0.6142 -0.8716
  197ETHOX  H1165214  13.179   9.111  13.930 -1.1857 -1.0865  0.4340
  197ETHOX  H1365215  13.019   9.067  13.911  1.1968  0.3541  1.0845
  197ETHOX   C265216  13.144   8.965  13.765 -0.5457  0.0985 -0.1176
  197ETHOX  H2165217  13.211   8.900  13.825 -1.0746  0.3841  0.7853
  197ETHOX  H2365218  13.193   8.991  13.668  0.5683 -3.0787 -0.5418
  198ETHOX   O165219  13.029   8.897  13.729  0.2371 -0.2284 -0.7832
  198ETHOX   C165220  13.064   8.774  13.670  0.9542  0.8268  0.0651
  198ETHOX  H1165221  13.145   8.777  13.594  1.1096 -1.7759  0.0403
  198ETHOX  H1365222  13.089   8.696  13.744 -1.2699  0.0506  0.0598
  198ETHOX   C265223  12.929   8.725  13.597  0.2560  0.2066  0.8334
  198ETHOX  H2165224  12.843   8.746  13.664 -1.0254  1.7025 -1.1554
  198ETHOX  H2365225  12.950   8.617  13.584  0.9489  0.4184  0.0940
  199ETHOX   O165226  12.899   8.783  13.467 -0.2773  0.3299  0.6166
  199ETHOX   C165227  12.862   8.685  13.373  0.0733 -0.4388  0.1545
  199ETHOX  H1165228  12.785   8.617  13.416 -0.2935 -1.4856 -2.0494
  199ETHOX  H1365229  12.950   8.621  13.350  2.0380  1.6692  1.3472
  199ETHOX   C265230  12.806   8.761  13.248 -0.2625 -0.2222  0.2373
  199ETHOX  H2165231  12.736   8.841  13.278 -0.1312  0.4105 -1.0944
  199ETHOX  H2365232  12.744   8.689  13.190  2.3438 -1.6003 -1.0243
  200ETHOX   O165233  12.911   8.819  13.177 -0.1983  0.1883  0.5409
  200ETHOX   C165234  12.867   8.895  13.059  0.0149  0.4022 -0.3143
  200ETHOX  H1165235  12.819   8.830  12.984 -0.5993 -2.1037  2.0945
  200ETHOX  H1365236  12.797   8.976  13.091  0.8832  0.6414  1.0984
  200ETHOX   C265237  12.989   8.972  13.010  0.5287  0.1171 -0.6947
  200ETHOX  H2165238  13.030   9.040  13.087 -0.1479 -0.6402  0.3679
  200ETHOX  H2365239  12.969   9.041  12.925  1.9129  1.4758  0.0319
  201ETHOX   O165240  13.083   8.880  12.963  0.0853 -0.0320 -0.4015
  201ETHOX   C165241  13.181   8.932  12.869 -0.3021 -0.4142 -0.3078
  201ETHOX  H1165242  13.226   9.026  12.909  1.0162 -1.2045  0.1380
  201ETHOX  H1365243  13.122   8.951  12.777  0.7378 -2.1173 -1.3856
  201ETHOX   C265244  13.291   8.827  12.842 -0.0183  0.6235  0.0279
  201ETHOX  H2165245  13.366   8.862  12.769 -0.4831 -1.8818 -1.7604
  201ETHOX  H2365246  13.249   8.728  12.813  0.4304  0.9278 -1.8112
  202ETHOX   O165247  13.361   8.806  12.963 -0.2180  0.6664 -0.1295
  202ETHOX   C165248  13.486   8.744  12.950 -0.5295  0.0187  0.4558
  202ETHOX  H1165249  13.462   8.651  12.894  0.1859 -2.3114  3.7210
  202ETHOX  H1365250  13.560   8.803  12.891 -1.3027 -1.2567 -1.9257
  202ETHOX   C265251  13.542   8.702  13.085  0.5194  0.5838 -0.6452
  202ETHOX  H2165252  13.609   8.614  13.071  0.3089 -0.5823  4.0003
  202ETHOX  H2365253  13.459   8.664  13.149  0.3647 -0.1013 -1.2352
  203ETHOX   O165254  13.635   8.794  13.140  0.1519 -0.1850  0.2052
  203ETHOX   C165255  13.684   8.765  13.265  0.2625 -0.0116  0.6071
  203ETHOX  H1165256  13.732   8.665  13.259 -0.2595 -0.1798 -2.1673
  203ETHOX  H1365257  13.606   8.742  13.340  1.2049 -0.3261  1.5062
  203ETHOX   C265258  13.777   8.875  13.323 -0.6585  0.2016  0.5562
  203ETHOX  H2165259  13.800   8.856  13.430  1.0430 -2.2020 -0.1552
  203ETHOX  H2365260  13.719   8.970  13.320 -0.6490  0.2913  2.4241
  204ETHOX   O165261  13.895   8.884  13.246 -0.4886 -0.4904 -0.0191
  204ETHOX   C165262  13.976   9.000  13.263  0.1287 -0.1544  0.4733
  204ETHOX  H1165263  13.914   9.091  13.255 -0.2469 -0.3213  1.3246
  204ETHOX  H1365264  14.019   8.991  13.365  0.6851 -0.1566  0.2396
  204ETHOX   C265265  14.080   9.005  13.152 -0.2168  0.1471 -0.8314
  204ETHOX  H2165266  14.134   8.910  13.172  1.3688  1.0658 -0.5266
  204ETHOX  H2365267  14.161   9.080  13.160 -0.3801  0.1780  0.7244
  205ETHOX   O165268  14.029   8.990  13.019 -0.1088 -0.3489 -0.4126
  205ETHOX   C165269  14.148   8.976  12.922  0.2238 -0.1750 -0.1535
  205ETHOX  H1165270  14.183   8.873  12.941  3.1122  0.8338  0.5763
  205ETHOX  H1365271  14.235   9.033  12.962  1.3081 -2.4305  0.8621
  205ETHOX   C265272  14.122   9.001  12.771  0.5178 -0.2505  1.0844
  205ETHOX  H2165273  14.023   8.953  12.753  1.3483 -2.3333  1.7324
  205ETHOX  H2365274  14.207   8.967  12.708  0.8685  0.1651  1.3243
  206ETHOX   O165275  14.123   9.139  12.736 -0.3390 -0.1506 -0.5549
  206ETHOX   C165276  14.089   9.145  12.607 -0.5732  1.6416  0.5950
  206ETHOX  H1165277  14.157   9.079  12.548 -1.3344 -1.7547  3.1918
  206ETHOX  H1365278  13.984   9.121  12.582 -0.7494  3.2044 -0.2821
  206ETHOX   C265279  14.117   9.277  12.532  0.2057  0.0408 -0.3565
  206ETHOX  H2165280  14.226   9.297  12.537  0.0394  1.0326 -0.6800
  206ETHOX  H2365281  14.094   9.261  12.425  2.3472 -2.0099 -0.6065
  207ETHOX   O165282  14.044   9.385  12.589 -0.1012 -0.1644  0.6548
  207ETHOX   C165283  14.124   9.505  12.613 -0.2256  0.4806 -0.2054
  207ETHOX  H1165284  14.198   9.526  12.533  0.6729 -0.1759  0.4326
  207ETHOX  H1365285  14.181   9.494  12.708 -0.3576  1.0665 -0.0541
  207ETHOX   C265286  14.050   9.636  12.628 -0.6458  0.0967 -0.2270
  207ETHOX  H2165287  13.969   9.639  12.552  1.3540 -1.3439 -2.5810
  207ETHOX  H2365288  14.124   9.718  12.616  0.8117 -1.3095 -1.1745
  208ETHOX   O165289  14.006   9.676  12.758 -0.3990 -0.3722  0.2988
  208ETHOX   C165290  13.906   9.594  12.806  0.0503  0.5440  0.7713
  208ETHOX  H1165291  13.824   9.652  12.853 -3.1364 -2.1126 -1.0819
  208ETHOX  H1365292  13.856   9.541  12.722  0.4591  2.9293 -1.1095
  208ETHOX   C265293  13.964   9.484  12.902  0.5261 -0.1750 -0.2056
  208ETHOX  H2165294  14.007   9.543  12.986  0.4650 -0.3999 -0.0172
  208ETHOX  H2365295  14.048   9.430  12.854  1.2324  1.9452 -1.4947
  209ETHOX   O165296  13.858   9.401  12.949 -0.2435  0.0721  0.5722
  209ETHOX   C165297  13.831   9.283  12.872 -0.5045 -0.5168 -0.2344
  209ETHOX  H1165298  13.931   9.234  12.860  0.0094  0.6874 -1.0812
  209ETHOX  H1365299  13.796   9.323  12.774  1.8976  2.9361  0.1623
  209ETHOX   C265300  13.734   9.174  12.930  0.2060  0.4248  0.0608
  209ETHOX  H2165301  13.778   9.135  13.024 -2.3823 -1.0285  0.7578
  209ETHOX  H2365302  13.734   9.115  12.836 -0.5534  1.1774 -0.4313
  210ETHOX   O165303  13.602   9.227  12.964 -0.0465 -0.5348 -0.2966
  210ETHOX   C165304  13.518   9.129  13.012  0.1845  0.5295 -0.4868
  210ETHOX  H1165305  13.477   9.073  12.926  0.8751 -0.7617 -0.0044
  210ETHOX  H1365306  13.584   9.065  13.074  1.8444  0.6361 -2.0397
  210ETHOX   C265307  13.397   9.174  13.089 -0.4418 -0.1133 -0.0577
  210ETHOX  H2165308  13.425   9.243  13.172  1.2403 -2.0394  1.0471
  210ETHOX  H2365309  13.339   9.094  13.139 -1.2009  0.2511 -0.3301
  211ETHOX   O165310  13.317   9.258  13.008  0.1502 -0.1770 -0.5390
  211ETHOX   C165311  13.193   9.307  13.068 -0.3898 -0.0271 -0.1538
  211ETHOX  H1165312  13.111   9.265  13.006  0.0634 -0.6727 -0.3283
  211ETHOX  H1365313  13.179   9.263  13.169  0.2807 -1.0638 -0.5032
  211ETHOX   C265314  13.187   9.460  13.066  0.7158  0.0699 -0.0386
  211ETHOX  H2165315  13.086   9.483  13.104  0.5726  0.0554 -0.4080
  211ETHOX  H2365316  13.205   9.503  12.965  1.7013  0.0747  0.1283
  212ETHOX   O165317  13.269   9.519  13.158 -0.0044  0.5751 -0.0134
  212ETHOX   C165318  13.382   9.588  13.099 -0.0664  0.8320  0.1616
  212ETHOX  H1165319  13.442   9.514  13.042 -1.2825 -1.4976  1.7910
  212ETHOX  H1365320  13.354   9.666  13.024  1.6382  0.5493 -0.8487
  212ETHOX   C265321  13.476   9.644  13.201 -0.1679 -0.2061 -0.3836
  212ETHOX  H2165322  13.578   9.657  13.160 -0.4541 -1.0658 -1.4078
  212ETHOX  H2365323  13.484   9.561  13.274  0.2566 -0.5868 -0.8561
  213ETHOX   O165324  13.430   9.770  13.251 -0.1618 -0.5863 -0.0102
  213ETHOX   C165325  13.356   9.746  13.371 -0.4919 -0.0871 -0.0961
  213ETHOX  H1165326  13.269   9.682  13.346 -0.3823 -0.5927  0.7761
  213ETHOX  H1365327  13.425   9.688  13.436 -0.5144 -0.5788 -0.5010
  213ETHOX   C265328  13.319   9.881  13.426  0.1661  0.0120  0.3002
  213ETHOX  H2165329  13.215   9.867  13.464  0.6492 -4.3280  0.5661
  213ETHOX  H2365330  13.308   9.955  13.344 -0.7470  0.1477  0.5394
  214ETHOX   O165331  13.401   9.923  13.537  1.0850  0.8808 -0.2223
  214ETHOX   C165332  13.528   9.963  13.493  0.0530 -0.2537  0.1581
  214ETHOX  H1165333  13.516  10.034  13.409  2.8497 -2.0933 -1.9963
  214ETHOX  H1365334  13.589   9.882  13.448 -2.1492 -1.3505 -0.9842
  214ETHOX   C265335  13.611  10.034  13.606 -0.4093  0.3706  0.3739
  214ETHOX  H2165336  13.547  10.111  13.655 -3.1013 -1.2787 -0.3607
  214ETHOX  H2365337  13.696  10.088  13.559 -0.4894 -0.4238 -0.7092
  215ETHOX   O165338  13.650   9.922  13.693  0.1037  0.6245  0.1580
  215ETHOX   C165339  13.718   9.967  13.811 -0.4721  0.8506  0.1757
  215ETHOX  H1165340  13.806  10.028  13.780  0.6944 -0.7390  0.2168
  215ETHOX  H1365341  13.653  10.032  13.873 -2.1061  0.6851 -1.2911
  215ETHOX   C265342  13.769   9.863  13.908  0.3762  0.4635  0.4177
  215ETHOX  H2165343  13.812   9.912  13.998  0.5225  0.0994  0.5433
  215ETHOX  H2365344  13.849   9.806  13.858  1.5163  1.3361  1.1922
  216ETHOX   O165345  13.665   9.775  13.961  0.4352 -0.1123  1.1739
  216ETHOX   C165346  13.722   9.658  14.021  0.1355  0.0319  0.6516
  216ETHOX  H1165347  13.772   9.698  14.111 -0.7875 -0.4606  1.3968
  216ETHOX  H1365348  13.793   9.602  13.957 -0.2669 -1.5472  1.5323
  216ETHOX   C265349  13.598   9.566  14.058 -0.2883 -0.0837  0.2760
  216ETHOX  H2165350  13.555   9.510  13.973 -1.8017 -1.3078  1.7784
  216ETHOX  H2365351  13.521   9.632  14.105 -0.3279 -0.6735  1.0603
  217ETHOX   O165352  13.645   9.469  14.158 -0.5579  0.2933 -0.7775
  217ETHOX   C165353  13.712   9.358  14.097  0.0012  0.4636 -0.2341
  217ETHOX  H1165354  13.636   9.290  14.055  0.3945 -1.3222  1.7519
  217ETHOX  H1365355  13.786   9.391  14.021 -0.5010 -1.4648 -1.6145
  217ETHOX   C265356  13.774   9.264  14.215 -0.9083 -0.5819  0.7781
  217ETHOX  H2165357  13.848   9.315  14.280  0.8534 -1.2252 -0.6388
  217ETHOX  H2365358  13.837   9.183  14.171  0.3321  0.7606  0.0013
  218ETHOX   O165359  13.683   9.207  14.304 -0.3326  0.6976 -0.4424
  218ETHOX   C165360  13.591   9.116  14.239  0.4291 -0.2283 -0.4677
  218ETHOX  H1165361  13.652   9.051  14.173  2.1660 -0.0150  0.8402
  218ETHOX  H1365362  13.510   9.161  14.178  1.9708 -0.9542 -3.1733
  218ETHOX   C265363  13.530   9.016  14.338 -0.5426  0.2017 -0.4450
  218ETHOX  H2165364  13.454   8.970  14.271 -1.4384 -1.1344  1.4087
  218ETHOX  H2365365  13.479   9.069  14.421 -2.8759 -2.2946 -0.1572
  219ETHOX   O165366  13.621   8.921  14.397  0.0953  0.4266 -0.5693
  219ETHOX   C165367  13.559   8.789  14.416 -0.3535  0.2220 -0.0346
  219ETHOX  H1165368  13.490   8.804  14.501  1.2846  0.5579  1.3005
  219ETHOX  H1365369  13.500   8.763  14.326 -0.3389 -1.1115  0.3218
  219ETHOX   C265370  13.666   8.678  14.422 -0.3338  0.1272 -0.5245
  219ETHOX  H2165371  13.732   8.684  14.332 -0.5412 -0.1626 -0.6985
  219ETHOX  H2365372  13.614   8.580  14.417 -1.0816  0.5246 -0.6757
  220ETHOX   O165373  13.750   8.685  14.542  0.0809  0.2945  0.0226
  220ETHOX   C165374  13.863   8.594  14.538 -0.0294  0.7634  0.0712
  220ETHOX  H1165375  13.891   8.572  14.433  2.1225  0.4598  0.6707
  220ETHOX  H1365376  13.835   8.501  14.593  0.7914 -0.2041 -1.1026
  220ETHOX   C265377  13.975   8.656  14.628  0.5892  0.8039  0.1878
  220ETHOX  H2165378  14.051   8.581  14.659 -1.1790 -0.1853  2.3008
  220ETHOX  H2365379  13.918   8.698  14.713 -2.3548  0.3942 -1.4744
  221ETHOX   O165380  14.038   8.759  14.560 -0.7584 -0.3485  0.2932
  221ETHOX   C165381  14.109   8.844  14.648  0.7551  0.7903 -0.3074
  221ETHOX  H1165382  14.035   8.909  14.700  0.3846  0.7898 -0.8307
  221ETHOX  H1365383  14.180   8.791  14.715  1.1196  0.9569 -0.5618
  221ETHOX   C265384  14.198   8.936  14.573  0.6628  0.2752 -0.4445
  221ETHOX  H2165385  14.262   9.000  14.636  3.0750 -0.4630 -2.0220
  221ETHOX  H2365386  14.138   9.008  14.513  1.0328  0.6861 -0.3166
  222ETHOX   O165387  14.268   8.865  14.471 -0.1937  0.3851  0.2897
  222ETHOX   C165388  14.363   8.775  14.527 -0.7819  0.6468 -0.5122
  222ETHOX  H1165389  14.406   8.828  14.614 -3.4945  0.1521  1.2281
  222ETHOX  H1365390  14.306   8.688  14.564 -0.2035 -0.1729 -1.5096
  222ETHOX   C265391  14.447   8.735  14.412 -0.5475  0.1598  0.3805
  222ETHOX  H2165392  14.541   8.694  14.455 -0.7932 -1.1032 -0.2510
  222ETHOX  H2365393  14.463   8.824  14.347 -2.0315  0.3945  0.3111
  223ETHOX   O165394  14.387   8.645  14.324 -0.2238  0.5222 -0.2961
  223ETHOX   C165395  14.370   8.515  14.387 -0.0533 -0.7258 -0.1347
  223ETHOX  H1165396  14.467   8.485  14.432  1.6849 -2.2474 -4.3677
  223ETHOX  H1365397  14.296   8.530  14.469  0.9813  2.7364  0.3571
  223ETHOX   C265398  14.319   8.406  14.290 -0.1859  0.3500  0.0109
  223ETHOX  H2165399  14.233   8.444  14.231 -0.6108 -2.5889 -1.4128
  223ETHOX  H2365400  14.280   8.321  14.350  0.4902 -0.8897 -1.2482
  224ETHOX   O165401  14.431   8.367  14.210 -0.1537 -0.2678 -0.1230
  224ETHOX   C165402  14.397   8.282  14.106  0.3526  0.2259  0.1861
  224ETHOX  H1165403  14.355   8.192  14.156 -1.7316  2.0127  1.8653
  224ETHOX  H1365404  14.315   8.324  14.044  1.0864 -1.3451 -1.9582
  224ETHOX   C265405  14.518   8.244  14.016  0.1674 -0.3625 -0.0619
  224ETHOX  H2165406  14.569   8.339  13.990  1.1684 -0.5643  1.0311
  224ETHOX  H2365407  14.478   8.182  13.933 -0.8682 -1.7647  1.4159
  225ETHOX   O165408  14.609   8.160  14.082 -0.1305 -0.1081 -0.1985
  225ETHOX   C165409  14.695   8.096  13.986  0.1271  0.5176 -0.1367
  225ETHOX  H1165410  14.761   8.172  13.939 -0.0530 -0.3630 -1.8909
  225ETHOX  H1365411  14.634   8.042  13.910  3.0185 -1.8678 -0.9607
  225ETHOX   C265412  14.778   7.985  14.058  0.3657  0.9819 -0.3897
  225ETHOX  H2165413  14.837   8.038  14.137  2.2292 -0.2655 -0.8719
  225ETHOX  H2365414  14.853   7.957  13.981  0.3158  0.9842 -0.4389
  226ETHOX   O165415  14.704   7.873  14.102  0.1955  0.3471 -0.5972
  226ETHOX   C165416  14.775   7.783  14.183 -0.4423  0.2033  0.0796
  226ETHOX  H1165417  14.855   7.841  14.234  0.0748 -0.8098  0.4596
  226ETHOX  H1365418  14.715   7.740  14.266 -2.9449  0.3527 -1.5768
  226ETHOX   C265419  14.849   7.671  14.112  0.3132 -0.0117  0.2363
  226ETHOX  H2165420  14.924   7.615  14.172 -1.8329 -2.4128  0.8408
  226ETHOX  H2365421  14.905   7.713  14.025  1.8315 -1.3150  0.5365
  227ETHOX   O165422  14.756   7.575  14.061  0.5933  0.5293 -0.5233
  227ETHOX   C165423  14.804   7.456  13.999 -0.1322  0.5504 -0.0790
  227ETHOX  H1165424  14.869   7.399  14.069  1.2474 -1.1844 -2.6120
  227ETHOX  H1365425  14.861   7.494  13.912 -1.0235 -0.7357 -1.2492
  227ETHOX   C265426  14.687   7.368  13.968  0.0858  0.1330  0.3244
  227ETHOX  H2165427  14.620   7.359  14.056 -1.6249  1.2574 -0.8203
  227ETHOX  H2365428  14.719   7.263  13.949 -0.1419  0.2645 -0.8855
  228ETHOX   O165429  14.605   7.424  13.864  0.0526  0.4841 -0.3104
  228ETHOX   C165430  14.496   7.337  13.825 -0.4779 -0.0380  0.2321
  228ETHOX  H1165431  14.479   7.276  13.916  0.6883  0.7752  1.0284
  228ETHOX  H1365432  14.401   7.391  13.807 -0.7106  0.9231  3.6248
  228ETHOX   C265433  14.531   7.260  13.699  0.3561  0.1754  0.0472
  228ETHOX  H2165434  14.568   7.325  13.617 -0.5287 -1.7064 -1.9559
  228ETHOX  H2365435  14.450   7.193  13.664  0.2203  0.0431  0.6057
  229ETHOX   O165436  14.634   7.162  13.737  0.5956 -0.1432 -0.6050
  229ETHOX   C165437  14.665   7.064  13.634 -0.2226  0.0111 -0.2469
  229ETHOX  H1165438  14.707   7.113  13.543 -0.4820 -1.4371 -1.1769
  229ETHOX  H1365439  14.573   7.009  13.605  1.2226 -2.4562 -0.4416
  229ETHOX   C265440  14.763   6.971  13.699  0.3436 -0.4072 -0.2957
  229ETHOX  H2165441  14.778   6.889  13.626 -3.1114  1.3423 -3.3104
  229ETHOX  H2365442  14.722   6.923  13.791  1.0586 -1.9650 -0.7564
  230ETHOX   O165443  14.888   7.036  13.720 -0.3156 -0.2203  0.8115
  230ETHOX   C165444  14.960   6.976  13.827 -0.5041 -0.1795  0.2582
  230ETHOX  H1165445  14.957   6.866  13.840  0.4775 -0.1003  1.4127
  230ETHOX  H1365446  15.065   7.011  13.812 -0.5476  0.4256  1.2858
  230ETHOX   C265447  14.929   7.032  13.966 -0.8200  0.1500 -0.3266
  230ETHOX  H2165448  14.945   7.142  13.964  0.5231 -0.0316 -0.6111
  230ETHOX  H2365449  15.015   6.995  14.025  0.0788 -0.0044 -1.6948
  231ETHOX   O165450  14.810   6.995  14.030 -0.2015  0.0632 -0.1834
  231ETHOX   C165451  14.814   7.010  14.181  0.4486  0.3016 -0.0116
  231ETHOX  H1165452  14.850   7.114  14.202  0.2786  0.3017  0.2769
  231ETHOX  H1365453  14.898   6.949  14.220  1.3018 -0.2468 -2.5221
  231ETHOX   C265454  14.681   6.965  14.238 -0.3356 -0.9400  1.1819
  231ETHOX  H2165455  14.600   7.033  14.203  0.0443 -1.9647 -1.9620
  231ETHOX  H2365456  14.681   6.967  14.349 -3.1066  1.1181  1.2634
  232ETHOX   O165457  14.644   6.829  14.201  0.5765 -0.0845 -0.0137
  232ETHOX   C165458  14.507   6.793  14.242 -0.5217 -0.4572  0.6233
  232ETHOX  H1165459  14.480   6.799  14.350 -0.5388  0.5910  0.5731
  232ETHOX  H1365460  14.442   6.871  14.197  0.1684  1.3759  2.5998
  232ETHOX   C265461  14.476   6.650  14.200  0.7886 -0.7837 -0.2957
  232ETHOX  H2165462  14.486   6.641  14.090 -2.4061  0.7548 -0.8457
  232ETHOX  H2365463  14.370   6.616  14.206  2.0116 -5.3457 -1.0664
  233ETHOX   O165464  14.537   6.541  14.263 -0.1116 -0.3375 -0.7348
  233ETHOX   C165465  14.607   6.461  14.176 -0.0040  0.2577  1.1847
  233ETHOX  H1165466  14.542   6.418  14.096 -0.9201 -0.0906  2.0878
  233ETHOX  H1365467  14.678   6.530  14.126 -1.2404  0.1193 -0.8694
  233ETHOX   C265468  14.681   6.352  14.252  0.0303  0.3508 -0.2757
  233ETHOX  H2165469  14.737   6.400  14.335  0.1139  0.8964 -0.6445
  233ETHOX  H2365470  14.752   6.300  14.183  1.6122 -0.1096  1.5949
  234ETHOX   O165471  14.588   6.271  14.320 -0.5057  0.1645 -0.5168
  234ETHOX   C165472  14.646   6.187  14.416  0.1875  0.0978  0.3443
  234ETHOX  H1165473  14.735   6.133  14.377 -0.5597 -0.0569 -1.2143
  234ETHOX  H1365474  14.678   6.246  14.505  0.3857 -0.4503  0.6460
  234ETHOX   C265475  14.534   6.084  14.463  0.1102 -0.3639 -0.7535
  234ETHOX  H2165476  14.436   6.134  14.476 -0.5196 -1.5925 -0.6776
  234ETHOX  H2365477  14.561   6.031  14.557 -2.8090 -0.3284  0.1959
  235ETHOX   O165478  14.524   5.990  14.363 -0.2820  0.1935  0.6865
  235ETHOX   C165479  14.425   5.890  14.383 -0.4588 -0.4339  0.7603
  235ETHOX  H1165480  14.469   5.822  14.460 -2.3584 -1.0560  1.3597
  235ETHOX  H1365481  14.331   5.938  14.418 -0.9402  0.8358 -1.9952
  235ETHOX   C265482  14.410   5.818  14.257 -0.5780  0.0909  0.2497
  235ETHOX  H2165483  14.339   5.735  14.277  1.1523 -0.9711  2.4168
  235ETHOX  H2365484  14.505   5.775  14.219 -1.1501  0.3192 -1.5462
  236ETHOX   O165485  14.352   5.895  14.153 -0.2252 -0.6773 -0.1885
  236ETHOX   C165486  14.348   5.833  14.028 -0.3787  0.6730  0.1918
  236ETHOX  H1165487  14.310   5.729  14.040 -1.5206  0.7545 -2.1623
  236ETHOX  H1365488  14.456   5.827  14.002 -0.0035 -0.3759  1.8044
  236ETHOX   C265489  14.255   5.902  13.922 -0.6911 -0.0002  0.3648
  236ETHOX  H2165490  14.272   5.874  13.816 -2.8882  0.1280 -0.0670
  236ETHOX  H2365491  14.273   6.012  13.920  0.0718 -0.1275  0.1880
  237ETHOX   O165492  14.121   5.869  13.951  0.2377 -0.1315 -0.1798
  237ETHOX   C165493  14.033   5.965  13.895 -0.2228 -0.4275  0.0699
  237ETHOX  H1165494  14.029   6.051  13.965  0.2794  0.3931 -0.8969
  237ETHOX  H1365495  14.079   5.996  13.799 -0.6592 -0.9982 -0.3297
  237ETHOX   C265496  13.898   5.900  13.877  0.3779 -0.0998  0.2445
  237ETHOX  H2165497  13.828   5.979  13.842  1.3568  1.3786  1.5117
  237ETHOX  H2365498  13.861   5.852  13.970  2.4466 -1.4898  0.4122
  238ETHOX   O165499  13.912   5.807  13.768  0.2091 -1.0103  0.5415
  238ETHOX   C165500  13.812   5.711  13.774  0.3869  0.7531 -0.2707
  238ETHOX  H1165501  13.708   5.749  13.777  0.4838  1.0076 -0.1126
  238ETHOX  H1365502  13.829   5.655  13.869 -1.9912  1.0787  0.4067
  238ETHOX   C265503  13.832   5.607  13.665  0.3086  0.4072 -0.6925
  238ETHOX  H2165504  13.803   5.653  13.568 -1.7518 -0.3369 -0.4957
  238ETHOX  H2365505  13.761   5.527  13.694 -0.2287  1.5286  1.3651
  239ETHOX   O165506  13.965   5.556  13.653 -0.1533  0.0579  0.0099
  239ETHOX   C165507  14.036   5.611  13.546  0.4265  0.0808 -0.9763
  239ETHOX  H1165508  13.979   5.598  13.451 -0.6401  0.1937 -0.3682
  239ETHOX  H1365509  14.028   5.720  13.561 -0.6443 -0.0313 -0.6449
  239ETHOX   C265510  14.179   5.564  13.527 -0.1990 -0.1488 -0.1260
  239ETHOX  H2165511  14.237   5.638  13.466  1.8437 -0.9589  0.7322
  239ETHOX  H2365512  14.231   5.552  13.625 -1.9593 -1.8594  0.6476
  240ETHOX   O165513  14.187   5.444  13.448  0.3082  0.2676  0.0916
  240ETHOX   C165514  14.317   5.387  13.446  0.1739  0.6146  0.1554
  240ETHOX  H1165515  14.361   5.387  13.548 -0.2469 -1.7325  0.4066
  240ETHOX  H1365516  14.380   5.425  13.363 -0.8796 -1.2364 -1.5896
  240ETHOX   C265517  14.310   5.242  13.406 -0.7311 -0.9081 -0.1407
  240ETHOX  H2165518  14.256   5.189  13.487 -2.8439  1.5008  0.1536
  240ETHOX  H2365519  14.410   5.195  13.399 -1.4376 -2.4577 -0.3439
  241ETHOX   O165520  14.250   5.213  13.285  0.5078  0.9897  0.6319
  241ETHOX   C165521  14.234   5.077  13.251 -0.4768 -0.3403 -0.6969
  241ETHOX  H1165522  14.180   5.032  13.337  0.1912  1.6084  0.7960
  241ETHOX  H1365523  14.159   5.105  13.173 -1.4092  1.3005  0.7343
  241ETHOX   C265524  14.347   4.991  13.198 -0.3525  0.1024 -0.6852
  241ETHOX  H2165525  14.308   4.888  13.210 -0.0166  0.1353  0.7815
  241ETHOX  H2365526  14.442   5.006  13.254  0.4221  1.4321 -2.2569
  242ETHOX   O165527  14.383   5.016  13.060 -0.0182 -0.1879  0.3829
  242ETHOX   C165528  14.484   5.109  13.055 -0.1913  0.0576  0.1073
  242ETHOX  H1165529  14.574   5.047  13.073 -1.4156 -2.7081 -2.5766
  242ETHOX  H1365530  14.468   5.178  13.141  0.0143 -1.8663  1.7539
  242ETHOX   C265531  14.493   5.195  12.928  0.9185  0.0790  0.1931
  242ETHOX  H2165532  14.576   5.267  12.943  1.3921 -0.1842 -1.0058
  242ETHOX  H2365533  14.396   5.248  12.917 -0.1747 -0.8886  3.8359
  243ETHOX   O165534  14.536   5.112  12.824 -0.1143 -0.0049  0.3383
  243ETHOX   C165535  14.507   5.170  12.698 -0.7039  0.1777 -0.0500
  243ETHOX  H1165536  14.402   5.158  12.662 -0.1142 -2.1122 -1.1352
  243ETHOX  H1365537  14.542   5.276  12.695 -1.1157  0.3003 -2.1205
  243ETHOX   C265538  14.598   5.106  12.589 -0.0336 -0.6363  0.5131
  243ETHOX  H2165539  14.705   5.094  12.615  0.0472  0.4329  0.7132
  243ETHOX  H2365540  14.589   5.174  12.502 -1.2910 -0.9045  0.4183
  244ETHOX   O165541  14.553   4.976  12.544  0.0336 -0.7880  0.4765
  244ETHOX   C165542  14.630   4.931  12.435  0.4513 -0.0426  0.2238
  244ETHOX  H1165543  14.732   4.914  12.475  0.1835 -0.8856  0.5762
  244ETHOX  H1365544  14.629   5.007  12.355  3.0495 -0.4062 -0.2334
  244ETHOX   C265545  14.588   4.792  12.374 -0.4582 -0.2252  0.0261
  244ETHOX  H2165546  14.529   4.750  12.458  1.4484  0.9899  2.0831
  244ETHOX  H2365547  14.687   4.746  12.353 -0.7064  0.0230 -1.8384
  245ETHOX   O165548  14.509   4.811  12.260 -0.2403  0.7341  0.1206
  245ETHOX   C165549  14.421   4.708  12.221 -0.1478  0.3777 -0.1222
  245ETHOX  H1165550  14.413   4.716  12.110  2.2014  1.8727 -0.2621
  245ETHOX  H1365551  14.467   4.608  12.237 -0.5226  0.2839  0.3611
  245ETHOX   C265552  14.277   4.722  12.280 -0.6831  0.0829 -0.8060
  245ETHOX  H2165553  14.274   4.739  12.390 -0.6489  0.7753 -0.9069
  245ETHOX  H2365554  14.220   4.631  12.253 -0.0137  0.2235 -2.8608
  246ETHOX   O165555  14.226   4.838  12.214  0.3418  0.3713  0.2677
  246ETHOX   C165556  14.093   4.817  12.165  0.1873 -0.1344 -0.2065
  246ETHOX  H1165557  14.036   4.782  12.253  0.9846  1.0708  0.8198
  246ETHOX  H1365558  14.096   4.749  12.077  0.2746 -0.4476  0.0381
  246ETHOX   C265559  14.023   4.949  12.125  0.2004 -0.2567 -0.1706
  246ETHOX  H2165560  13.997   5.013  12.212  1.0017 -2.7003  1.9981
  246ETHOX  H2365561  13.925   4.952  12.073 -0.1287  0.5895  0.4641
  247ETHOX   O165562  14.107   5.029  12.044 -0.5684 -0.4259 -0.2324
  247ETHOX   C165563  14.069   5.040  11.902 -0.4665 -0.4847 -0.2478
  247ETHOX  H1165564  13.960   5.044  11.881 -1.0633 -1.3374  2.2823
  247ETHOX  H1365565  14.110   5.131  11.854 -0.5326 -1.3117 -1.9431
  247ETHOX   C265566  14.146   4.929  11.823  0.0061 -0.2073 -0.4447
  247ETHOX  H2165567  14.132   4.829  11.870 -1.2502 -0.5016 -1.3989
  247ETHOX  H2365568  14.099   4.930  11.723  0.0776  0.9754 -0.4729
  248ETHOX   O165569  14.284   4.951  11.808  0.1191 -0.5760 -0.3760
  248ETHOX   C165570  14.361   4.834  11.786  0.5459  0.0616  0.5007
  248ETHOX  H1165571  14.343   4.763  11.869  2.0308 -0.3002  0.5556
  248ETHOX  H1365572  14.329   4.784  11.693 -1.5236  1.0646  0.6247
  248ETHOX   C265573  14.514   4.843  11.784  0.2597 -0.6778 -0.6786
  248ETHOX  H2165574  14.547   4.942  11.747 -2.3314  0.7100  0.4433
  248ETHOX  H2365575  14.545   4.759  11.719  3.2997  0.5255 -0.9906
  249ETHOX   O165576  14.575   4.831  11.909  0.5581 -0.3808 -1.0736
  249ETHOX   C165577  14.710   4.799  11.906  0.2968  0.3805  0.7758
  249ETHOX  H1165578  14.707   4.688  11.892  0.6036  0.3636  0.8297
  249ETHOX  H1365579  14.764   4.837  11.817 -0.1539  2.7938  1.4668
  249ETHOX   C265580  14.800   4.848  12.023 -0.5167  0.3870  0.1087
  249ETHOX  H2165581  14.892   4.786  12.014  0.6646  1.9607  0.7663
  249ETHOX  H2365582  14.768   4.820  12.125 -1.3296 -1.9274 -0.7352
  250ETHOX   O165583  14.831   4.988  12.011 -0.2354 -0.2605  0.1963
  250ETHOX   C165584  14.938   5.028  12.101  0.3380 -0.2409  0.9471
  250ETHOX  H1165585  14.915   5.137  12.106 -1.4460 -0.5785  0.6551
  250ETHOX  H1365586  14.922   4.984  12.202 -1.6731 -2.3478 -0.1998
  250ETHOX   C265587  15.086   4.998  12.059  0.4144  0.2457  0.0868
  250ETHOX  H2165588  15.086   4.890  12.032  1.2195  0.9756 -3.3112
  250ETHOX  H2365589  15.146   5.005  12.152  1.9098  0.7647 -0.8825
  251ETHOX   O165590  15.134   5.088  11.961 -0.8555  0.0034 -0.3301
  251ETHOX   C165591  15.254   5.055  11.903 -0.5571 -0.2180  0.2865
  251ETHOX  H1165592  15.336   5.035  11.975  1.7784  1.4846 -1.7344
  251ETHOX  H1365593  15.297   5.145  11.854  0.4545 -0.3756  0.8546
  251ETHOX   C265594  15.232   4.946  11.808  0.2668 -0.0086  0.1735
  251ETHOX  H2165595  15.199   4.849  11.853  0.6898 -1.2133 -1.9931
  251ETHOX  H2365596  15.322   4.912  11.753 -1.2620 -2.2242 -1.1133
  252ETHOX   O165597  15.130   4.979  11.716  0.0475 -0.2846  0.3867
  252ETHOX   C165598  15.068   4.864  11.651 -0.1619 -0.2244  0.1296
  252ETHOX  H1165599  15.140   4.787  11.615 -0.1349 -0.0496 -0.1951
  252ETHOX  H1365600  15.006   4.808  11.724  0.1193 -2.8590 -1.5149
  252ETHOX   C265601  14.994   4.905  11.518  0.2570 -0.5036 -0.0450
  252ETHOX  H2165602  14.978   4.818  11.451  1.4500  0.4919 -1.6926
  252ETHOX  H2365603  15.064   4.969  11.461 -1.2822 -0.1989 -1.7011
  253ETHOX   O165604  14.858   4.960  11.531  0.1373  0.3139  0.0496
  253ETHOX   C165605  14.795   4.987  11.408 -0.1316 -0.1781  0.9189
  253ETHOX  H1165606  14.816   4.899  11.343  0.3274 -1.9527  3.3459
  253ETHOX  H1365607  14.847   5.075  11.364 -0.6134 -1.1456 -1.8223
  253ETHOX   C265608  14.645   5.014  11.417  0.0317  0.3122 -0.4473
  253ETHOX  H2165609  14.626   5.101  11.351 -0.1557  0.4666 -0.1910
  253ETHOX  H2365610  14.626   5.060  11.516 -2.4639 -1.2672 -0.0972
  254ETHOX   O165611  14.549   4.908  11.386  0.1119 -0.3099  0.1040
  254ETHOX   C165612  14.418   4.958  11.394 -0.4361 -0.5377 -0.1205
  254ETHOX  H1165613  14.396   5.005  11.493 -1.5957 -1.9282  0.3127
  254ETHOX  H1365614  14.404   5.038  11.319  0.4992  1.3792  1.6287
  254ETHOX   C265615  14.311   4.850  11.361  0.4131 -0.2181  0.5915
  254ETHOX  H2165616  14.347   4.790  11.274  1.0293  1.9924 -0.7724
  254ETHOX  H2365617  14.209   4.892  11.343 -0.0711 -0.4882  2.4946
  255ETHOX   O165618  14.288   4.772  11.469  0.5137  0.2237  0.0497
  255ETHOX   C165619  14.188   4.673  11.446  1.0216  1.0086 -0.1405
  255ETHOX  H1165620  14.228   4.591  11.382 -1.5857 -0.5018 -0.0121
  255ETHOX  H1365621  14.100   4.712  11.391  1.4025  0.4327 -1.1882
  255ETHOX   C265622  14.135   4.606  11.575  1.0395  0.1350 -0.6981
  255ETHOX  H2165623  14.037   4.558  11.555  0.0543  1.8008 -0.1036
  255ETHOX  H2365624  14.117   4.675  11.661  2.7229  0.7741 -0.8211
  256ETHOX   O165625  14.233   4.513  11.628  0.2826 -0.4253  0.6669
  256ETHOX   C165626  14.200   4.464  11.756  0.3120 -0.2890  0.0362
  256ETHOX  H1165627  14.290   4.421  11.806 -0.5120 -0.6493  1.2677
  256ETHOX  H1365628  14.167   4.545  11.824 -1.3530 -2.1687  1.6006
  256ETHOX   C265629  14.082   4.362  11.752 -0.3121 -0.0508 -0.4936
  256ETHOX  H2165630  14.090   4.314  11.851  0.5554 -0.3905 -0.7220
  256ETHOX  H2365631  14.097   4.281  11.678 -2.1214 -2.8537  1.9905
  257ETHOX   O165632  13.950   4.417  11.742 -0.5988 -0.5795  0.0798
  257ETHOX   C165633  13.851   4.310  11.760 -0.4731 -0.4644  0.4496
  257ETHOX  H1165634  13.862   4.267  11.862 -0.9329 -0.8383  0.3458
  257ETHOX  H1365635  13.872   4.231  11.684 -1.0040 -0.1459 -0.0388
  257ETHOX   C265636  13.704   4.357  11.723 -0.0072  0.4117 -0.3215
  257ETHOX  H2165637  13.641   4.270  11.693 -1.9419  1.4344  0.6023
  257ETHOX  H2365638  13.703   4.433  11.642 -1.1026 -0.4552 -1.1604
  258ETHOX   O165639  13.647   4.418  11.834  0.1009  0.0788  0.1561
  258ETHOX   C165640  13.504   4.433  11.822 -0.6461  0.2685  0.4456
  258ETHOX  H1165641  13.469   4.506  11.898 -2.0096  0.0119  0.0942
  258ETHOX  H1365642  13.486   4.488  11.727  0.1740  0.1835  0.2323
  258ETHOX   C265643  13.416   4.305  11.838 -0.4443  0.3504 -0.0606
  258ETHOX  H2165644  13.451   4.233  11.761  1.6948  1.2041  0.0380
  258ETHOX  H2365645  13.313   4.340  11.814 -1.5759 -2.9154 -0.3783
  259ETHOX   O165646  13.429   4.256  11.970 -0.2269 -0.1336  0.2957
  259ETHOX   C165647  13.334   4.146  11.986  0.2646  0.4212 -0.4609
  259ETHOX  H1165648  13.229   4.181  11.973  0.5610  2.1881  1.4116
  259ETHOX  H1365649  13.358   4.076  11.904  1.0776 -0.1723  0.2668
  259ETHOX   C265650  13.348   4.073  12.118  0.3667 -0.4692 -0.5903
  259ETHOX  H2165651  13.329   4.154  12.192 -2.6194 -0.9065 -0.7664
  259ETHOX  H2365652  13.449   4.028  12.127 -0.0877 -1.5755 -0.9035
  260ETHOX   O165653  13.245   3.975  12.126 -0.1769 -1.3330  0.5345
  260ETHOX   C165654  13.259   3.888  12.234 -0.4497  0.0896 -0.1649
  260ETHOX  H1165655  13.362   3.847  12.241 -1.0675 -1.5403  0.0160
  260ETHOX  H1365656  13.230   3.941  12.327 -2.1899  0.3220 -0.7984
  260ETHOX   C265657  13.169   3.760  12.227 -0.3333  0.3893  0.1919
  260ETHOX  H2165658  13.063   3.786  12.205 -0.1057  0.6499 -0.6396
  260ETHOX  H2365659  13.177   3.709  12.325 -0.8805  0.0381  0.0620
  261ETHOX   O165660  13.222   3.654  12.143  0.1150 -0.9547 -0.1895
  261ETHOX   C165661  13.200   3.676  12.001  0.2680  0.9626  0.3757
  261ETHOX  H1165662  13.094   3.703  11.983  0.6909  2.4817  0.0480
  261ETHOX  H1365663  13.267   3.753  11.957  1.5436 -0.9757 -1.3077
  261ETHOX   C265664  13.222   3.548  11.921  0.4845 -0.3289  0.3111
  261ETHOX  H2165665  13.190   3.566  11.816  0.1496  2.8598  0.8674
  261ETHOX  H2365666  13.171   3.456  11.955  1.1481 -0.6553  0.4299
  262ETHOX   O165667  13.360   3.535  11.909  0.0730 -0.3721  0.5307
  262ETHOX   C165668  13.397   3.418  11.833  0.5910 -0.0692 -0.7137
  262ETHOX  H1165669  13.316   3.397  11.760 -0.9261  0.6263  0.7157
  262ETHOX  H1365670  13.401   3.335  11.906  0.6423 -0.4806 -1.1739
  262ETHOX   C265671  13.541   3.415  11.775  0.4864 -0.9419 -0.1510
  262ETHOX  H2165672  13.628   3.449  11.835  0.0655 -0.1963  0.0518
  262ETHOX  H2365673  13.538   3.494  11.696 -2.2405  0.4126  1.1912
  263ETHOX   O165674  13.583   3.289  11.726  0.2825  0.1317 -0.7580
  263ETHOX   C165675  13.672   3.293  11.622 -0.1039  0.0633 -0.1603
  263ETHOX  H1165676  13.771   3.336  11.650  0.5066 -0.6885 -1.0869
  263ETHOX  H1365677  13.636   3.359  11.541 -0.1708  0.4546  0.1833
  263ETHOX   C265678  13.692   3.154  11.556 -0.0730 -0.7038  0.5090
  263ETHOX  H2165679  13.602   3.109  11.510  0.3057  0.0805 -1.0847
  263ETHOX  H2365680  13.734   3.082  11.629  0.7865  0.4321  1.1779
  264ETHOX   O165681  13.781   3.167  11.447  0.4818 -0.1075  0.2670
  264ETHOX   C165682  13.790   3.042  11.373 -0.1785  0.5767  0.3022
  264ETHOX  H1165683  13.711   3.034  11.295 -1.3759 -2.8342  1.6783
  264ETHOX  H1365684  13.777   2.962  11.449 -1.7826  0.6497  0.1374
  264ETHOX   C265685  13.919   3.020  11.302  0.6674 -0.1785  0.1563
  264ETHOX  H2165686  13.920   2.914  11.270  0.1528  0.1210 -0.8776
  264ETHOX  H2365687  14.013   3.036  11.360  0.4241  2.9846 -0.1337
  265ETHOX   O165688  13.931   3.109  11.191 -0.0840 -0.2652  0.0481
  265ETHOX   C165689  14.036   3.069  11.102  0.7793 -0.0253 -0.1662
  265ETHOX  H1165690  14.139   3.066  11.144  0.9628 -0.1930 -0.6158
  265ETHOX  H1365691  13.996   2.975  11.057 -1.9348  1.4805 -1.1187
  265ETHOX   C265692  14.033   3.163  10.974  0.1457 -0.2865 -0.4512
  265ETHOX  H2165693  13.927   3.183  10.949 -1.0026 -2.2816  2.3430
  265ETHOX  H2365694  14.092   3.110  10.896  0.8089  0.8572 -0.7545
  265ETHOX   OZ65695  14.102   3.289  10.994 -0.0371  0.7659  0.3487
  265ETHOX  HZ165696  14.155   3.273  11.072  0.4969  1.8631  0.2323
    1ETHOX   O165697   8.984   8.061  15.434 -0.1008  0.4320 -0.2719
    1ETHOX  HO165698   8.892   8.082  15.415 -0.1219  1.2388  0.6865
    1ETHOX   C165699   9.071   8.110  15.331 -0.7338 -0.0466 -0.9442
    1ETHOX  H1165700   9.079   8.220  15.345 -0.4916 -0.2303  0.4610
    1ETHOX  H1365701   9.035   8.108  15.225  1.4429  2.0085 -1.8322
    1ETHOX   C265702   9.204   8.038  15.332  0.5689 -0.7264 -0.1491
    1ETHOX  H2165703   9.212   7.948  15.268  1.1796  0.6051 -2.0097
    1ETHOX  H2365704   9.234   8.000  15.432  2.0326  1.3674  0.2767
    2ETHOX   O165705   9.302   8.125  15.288 -0.3167 -0.5585  0.0775
    2ETHOX   C165706   9.429   8.057  15.260 -0.3129  0.2204 -0.3273
    2ETHOX  H1165707   9.467   8.007  15.352  0.0464  1.1522  0.0399
    2ETHOX  H1365708   9.402   7.974  15.191  0.0256 -1.3324  1.3211
    2ETHOX   C265709   9.545   8.155  15.220 -0.3737 -0.2286 -0.9131
    2ETHOX  H2165710   9.639   8.111  15.260 -0.3262  0.9643  0.3107
    2ETHOX  H2365711   9.530   8.252  15.271  0.3287 -0.8923  0.6021
    3ETHOX   O165712   9.541   8.166  15.084 -0.9266 -0.8027 -0.2610
    3ETHOX   C165713   9.608   8.279  15.036 -0.1077 -0.3868 -0.0561
    3ETHOX  H1165714   9.682   8.313  15.112 -1.1267 -0.5919  1.0702
    3ETHOX  H1365715   9.535   8.363  15.031 -1.8954 -1.2146  5.0474
    3ETHOX   C265716   9.683   8.244  14.903  0.2128  0.5862 -0.4283
    3ETHOX  H2165717   9.751   8.157  14.916 -0.4241  0.3011  1.2117
    3ETHOX  H2365718   9.742   8.334  14.877  0.9492  0.7707  1.7280
    4ETHOX   O165719   9.597   8.219  14.790  0.6125 -0.0933 -0.5221
    4ETHOX   C165720   9.669   8.158  14.679 -0.0028 -0.6245 -0.0111
    4ETHOX  H1165721   9.772   8.200  14.674  0.2823 -1.1925  0.8438
    4ETHOX  H1365722   9.681   8.050  14.699  2.4473 -0.7742 -1.7962
    4ETHOX   C265723   9.614   8.192  14.541  0.2167 -0.2640  0.8440
    4ETHOX  H2165724   9.689   8.168  14.462 -0.4005  1.7570 -0.4353
    4ETHOX  H2365725   9.597   8.301  14.531 -0.7064 -0.4038  0.8203
    5ETHOX   O165726   9.501   8.110  14.514 -0.4144 -0.3524  0.2554
    5ETHOX   C165727   9.414   8.183  14.431  0.1202 -0.0940  0.7029
    5ETHOX  H1165728   9.356   8.245  14.503  0.2925 -2.4831  3.0799
    5ETHOX  H1365729   9.461   8.243  14.350  1.4697  0.4754  1.8684
    5ETHOX   C265730   9.315   8.079  14.362  0.1963 -0.5042  0.5918
    5ETHOX  H2165731   9.232   8.137  14.317  0.9825 -1.3129 -2.0903
    5ETHOX  H2365732   9.266   8.011  14.435  0.7681 -1.5327  0.0348
    6ETHOX   O165733   9.379   8.005  14.264 -0.2389  0.2050 -0.1812
    6ETHOX   C165734   9.290   7.917  14.187  0.0706 -0.5617 -0.9543
    6ETHOX  H1165735   9.236   7.849  14.255  1.1989 -1.7570 -1.2173
    6ETHOX  H1365736   9.226   7.985  14.126 -1.9496 -2.4009 -0.9939
    6ETHOX   C265737   9.374   7.835  14.096 -0.0977  0.6151  0.2069
    6ETHOX  H2165738   9.325   7.739  14.069  1.1475 -0.7366  2.5104
    6ETHOX  H2365739   9.466   7.808  14.150 -0.2625 -0.0504  0.1609
    7ETHOX   O165740   9.403   7.903  13.973 -0.0162  0.2609 -0.3645
    7ETHOX   C165741   9.479   7.818  13.892 -0.0221  0.3463 -0.4089
    7ETHOX  H1165742   9.586   7.836  13.917 -0.1676  0.0153  0.4902
    7ETHOX  H1365743   9.471   7.709  13.911  2.4751  0.5215  2.2764
    7ETHOX   C265744   9.470   7.861  13.747  0.5666  0.4551 -0.1625
    7ETHOX  H2165745   9.365   7.850  13.714  0.9161 -0.3696 -1.0265
    7ETHOX  H2365746   9.527   7.785  13.690  0.0247 -1.3947  1.6135
    8ETHOX   O165747   9.526   7.989  13.728  0.0880 -0.4857  0.7162
    8ETHOX   C165748   9.500   8.046  13.597 -0.4463 -0.2624  0.2659
    8ETHOX  H1165749   9.406   8.007  13.552  0.6581 -2.2200 -0.4512
    8ETHOX  H1365750   9.588   8.023  13.534  2.1721 -1.2365  3.9590
    8ETHOX   C265751   9.492   8.199  13.615 -0.0835 -0.1145  0.3181
    8ETHOX  H2165752   9.581   8.231  13.673  0.6389 -0.3652 -0.6356
    8ETHOX  H2365753   9.398   8.227  13.668 -1.5531 -1.9003 -1.1878
    9ETHOX   O165754   9.496   8.268  13.485 -0.1948  0.6601 -0.4803
    9ETHOX   C165755   9.479   8.409  13.501 -0.4270 -0.1591  0.1753
    9ETHOX  H1165756   9.376   8.425  13.539 -0.5929 -2.4492  0.7929
    9ETHOX  H1365757   9.556   8.449  13.570 -1.2361 -0.3103  1.1963
    9ETHOX   C265758   9.503   8.479  13.366 -0.2110  0.2864 -0.1225
    9ETHOX  H2165759   9.460   8.581  13.373 -1.4763 -0.2620  0.4257
    9ETHOX  H2365760   9.449   8.433  13.280  1.1121  0.9013 -1.3210
   10ETHOX   O165761   9.641   8.490  13.336 -0.5974 -0.4825  0.1484
   10ETHOX   C165762   9.654   8.534  13.204  0.0569 -0.0107  0.0518
   10ETHOX  H1165763   9.593   8.474  13.133  0.1255 -2.9658  2.3097
   10ETHOX  H1365764   9.756   8.505  13.170 -0.3243 -1.6572  0.2469
   10ETHOX   C265765   9.615   8.685  13.178 -0.3814  0.1124  0.1353
   10ETHOX  H2165766   9.505   8.698  13.190 -0.4686  0.0230 -0.4933
   10ETHOX  H2365767   9.632   8.698  13.069  0.6136 -0.7977  0.1717
   11ETHOX   O165768   9.691   8.778  13.257 -0.3497  0.6349  0.2344
   11ETHOX   C165769   9.611   8.846  13.346  1.3806 -0.4934 -0.4171
   11ETHOX  H1165770   9.544   8.776  13.399  1.5291  0.7267  1.4816
   11ETHOX  H1365771   9.684   8.889  13.418  1.6010  0.8208 -1.3693
   11ETHOX   C265772   9.531   8.961  13.275  0.2918 -0.1943  0.8204
   11ETHOX  H2165773   9.458   8.918  13.203 -1.0774  0.4301  1.7859
   11ETHOX  H2365774   9.468   9.006  13.354 -2.2665 -0.4138 -0.9742
   12ETHOX   O165775   9.617   9.062  13.221  0.6775 -0.2962 -0.5611
   12ETHOX   C165776   9.587   9.096  13.083 -0.1852  0.7809 -0.5140
   12ETHOX  H1165777   9.486   9.143  13.079 -0.2193  1.1060  2.2342
   12ETHOX  H1365778   9.602   9.006  13.018  0.0633 -0.2320  0.9053
   12ETHOX   C265779   9.670   9.205  13.016  0.0363  0.2776  0.9632
   12ETHOX  H2165780   9.631   9.237  12.917  2.7107 -0.4335 -0.4032
   12ETHOX  H2365781   9.770   9.158  13.007  0.1928  0.5568  1.2180
   13ETHOX   O165782   9.687   9.323  13.090  0.4463  0.1536 -0.2072
   13ETHOX   C165783   9.734   9.432  13.018  0.6207 -0.2004  0.4466
   13ETHOX  H1165784   9.829   9.394  12.975  0.4143 -1.2150  0.8536
   13ETHOX  H1365785   9.659   9.462  12.942  1.5417  1.4089  0.1243
   13ETHOX   C265786   9.769   9.556  13.106  0.6469  0.0410 -0.8660
   13ETHOX  H2165787   9.697   9.560  13.190 -0.5481 -2.4903 -1.6626
   13ETHOX  H2365788   9.769   9.650  13.047  1.2233  0.5805 -0.0202
   14ETHOX   O165789   9.898   9.551  13.166 -0.4060 -0.5971 -0.0219
   14ETHOX   C165790   9.908   9.462  13.279  0.0689 -0.6668  0.8076
   14ETHOX  H1165791   9.894   9.357  13.244 -0.5170 -0.4847  0.4721
   14ETHOX  H1365792   9.824   9.485  13.348  0.5324  0.8679  0.9014
   14ETHOX   C265793  10.038   9.493  13.352 -0.1452 -0.0099  0.3932
   14ETHOX  H2165794  10.116   9.499  13.273  0.2816 -0.0909  0.8082
   14ETHOX  H2365795  10.055   9.414  13.428 -1.9062  1.6520  2.6301
   15ETHOX   O165796  10.024   9.623  13.421 -0.0219  0.8025  0.1098
   15ETHOX   C165797  10.133   9.647  13.508  0.1466  0.0599  0.6161
   15ETHOX  H1165798  10.165   9.562  13.572  1.2533  1.6246  2.2431
   15ETHOX  H1365799  10.211   9.690  13.442 -1.0608  1.2820 -0.0881
   15ETHOX   C265800  10.092   9.765  13.597  0.1125 -0.5826 -0.3863
   15ETHOX  H2165801  10.183   9.811  13.640  0.2640 -1.8623  0.7453
   15ETHOX  H2365802  10.039   9.844  13.541 -0.1383  1.0523  2.0094
   16ETHOX   O165803  10.006   9.736  13.712 -0.4046 -0.3940  0.0094
   16ETHOX   C165804   9.882   9.686  13.677  0.1906  0.2493 -0.3642
   16ETHOX  H1165805   9.863   9.729  13.576  0.7282 -0.1386 -0.6362
   16ETHOX  H1365806   9.889   9.575  13.679 -1.9436 -0.0236 -2.6933
   16ETHOX   C265807   9.767   9.734  13.765 -0.1035  0.2079 -0.3669
   16ETHOX  H2165808   9.680   9.705  13.702 -0.3158  1.0950 -0.4902
   16ETHOX  H2365809   9.768   9.845  13.766 -1.1754  0.2670 -2.1620
   17ETHOX   O165810   9.771   9.672  13.894  0.4303  0.0620 -0.0446
   17ETHOX   C165811   9.673   9.728  13.976  0.4956 -0.6484  0.2145
   17ETHOX  H1165812   9.683   9.838  13.978 -1.0763 -0.4883  0.8576
   17ETHOX  H1365813   9.575   9.705  13.927  1.6296 -1.9698 -1.5957
   17ETHOX   C265814   9.668   9.679  14.121 -0.0478 -0.1499  0.2219
   17ETHOX  H2165815   9.768   9.682  14.168  0.0927  1.0438 -0.1284
   17ETHOX  H2365816   9.626   9.576  14.119 -0.4276  0.0031 -0.0534
   18ETHOX   O165817   9.579   9.754  14.203  0.3299 -0.1503  0.3253
   18ETHOX   C165818   9.628   9.782  14.339  0.2542 -0.6008 -0.3543
   18ETHOX  H1165819   9.657   9.683  14.381  0.8809 -1.0161 -1.6907
   18ETHOX  H1365820   9.713   9.853  14.334 -1.2192  1.2109 -0.6099
   18ETHOX   C265821   9.521   9.845  14.426  0.1669 -0.1467 -0.7530
   18ETHOX  H2165822   9.487   9.949  14.406  0.8982  0.2284 -0.0856
   18ETHOX  H2365823   9.562   9.846  14.529  0.3412  0.4025 -0.8242
   19ETHOX   O165824   9.413   9.755  14.436  0.0762 -0.6844 -0.2899
   19ETHOX   C165825   9.307   9.832  14.502  0.2799 -0.0570 -0.1586
   19ETHOX  H1165826   9.243   9.869  14.418  1.4616 -0.2979 -1.1971
   19ETHOX  H1365827   9.346   9.921  14.556 -0.2365  0.7910 -1.1368
   19ETHOX   C265828   9.221   9.745  14.591 -0.2090  0.0656 -0.0928
   19ETHOX  H2165829   9.195   9.657  14.528 -0.2176  1.4835 -2.1547
   19ETHOX  H2365830   9.131   9.799  14.628 -0.9283 -1.6158  0.7094
   20ETHOX   O165831   9.305   9.717  14.703  0.3555  0.1270 -0.3476
   20ETHOX   C165832   9.276   9.579  14.746 -0.1413  0.2924 -0.0918
   20ETHOX  H1165833   9.280   9.509  14.660 -0.3101  0.4399 -0.2193
   20ETHOX  H1365834   9.357   9.549  14.817 -1.0703 -0.9941  0.4647
   20ETHOX   C265835   9.149   9.569  14.831  0.4182  0.7347 -0.0436
   20ETHOX  H2165836   9.146   9.664  14.890  1.5520  0.4804  0.4491
   20ETHOX  H2365837   9.153   9.486  14.904 -0.4991  0.6671 -0.0573
   21ETHOX   O165838   9.034   9.554  14.747 -0.2548  0.4721  0.2177
   21ETHOX   C165839   8.912   9.549  14.816  0.2488  0.2465  0.6671
   21ETHOX  H1165840   8.898   9.641  14.876 -2.4553  0.2519  0.1864
   21ETHOX  H1365841   8.915   9.459  14.882 -1.8089 -1.0193 -0.8394
   21ETHOX   C265842   8.794   9.545  14.721  0.4576  0.5495  0.0879
   21ETHOX  H2165843   8.702   9.531  14.780  1.2370 -3.0731  0.6816
   21ETHOX  H2365844   8.804   9.463  14.646 -0.6011  2.4853 -2.3167
   22ETHOX   O165845   8.776   9.669  14.651  0.2852  0.3436  0.0134
   22ETHOX   C165846   8.834   9.681  14.523 -0.3753 -0.2598 -0.6610
   22ETHOX  H1165847   8.937   9.640  14.528  0.1422  0.7626 -2.3526
   22ETHOX  H1365848   8.775   9.622  14.449  1.0291 -0.7169 -1.4557
   22ETHOX   C265849   8.836   9.832  14.486  0.7584  0.3427 -0.1411
   22ETHOX  H2165850   8.865   9.886  14.578 -2.0370  0.4794  0.7252
   22ETHOX  H2365851   8.907   9.843  14.401 -0.0390  2.6728 -0.5925
   23ETHOX   O165852   8.711   9.876  14.442  0.0299 -0.5671 -0.0917
   23ETHOX   C165853   8.706  10.018  14.442  0.0104  0.4492 -0.5691
   23ETHOX  H1165854   8.774  10.072  14.373  0.6548 -1.7604 -1.7392
   23ETHOX  H1365855   8.732  10.058  14.543 -2.1439 -0.0695  0.2513
   23ETHOX   C265856   8.558  10.062  14.407 -0.8223 -0.2213 -0.8630
   23ETHOX  H2165857   8.555  10.172  14.411  1.5453 -0.1112 -0.2854
   23ETHOX  H2365858   8.480  10.037  14.482 -0.9525  0.6542 -0.7004
   24ETHOX   O165859   8.528  10.028  14.273  0.0752  0.3845 -0.1293
   24ETHOX   C165860   8.400  10.058  14.237  0.4387  0.4382  0.1545
   24ETHOX  H1165861   8.335   9.993  14.299  0.6923 -1.8368 -1.8449
   24ETHOX  H1365862   8.369  10.165  14.247  0.3705  0.6971 -2.2757
   24ETHOX   C265863   8.376  10.006  14.091 -0.0269  0.7638 -0.5689
   24ETHOX  H2165864   8.270   9.978  14.072  0.5581 -0.7189 -1.9589
   24ETHOX  H2365865   8.424   9.906  14.081 -1.0230 -0.3678  3.7385
   25ETHOX   O165866   8.428  10.080  13.983 -0.2108 -0.5472  0.1391
   25ETHOX   C165867   8.386  10.024  13.857 -0.9463  0.5629 -0.4066
   25ETHOX  H1165868   8.286  10.066  13.836 -0.4026  1.5934 -1.0333
   25ETHOX  H1365869   8.383   9.914  13.872  1.7881  0.4488 -0.1251
   25ETHOX   C265870   8.482  10.062  13.740  0.4409 -0.4471 -0.5052
   25ETHOX  H2165871   8.467  10.172  13.727  1.3489 -0.3151 -0.4751
   25ETHOX  H2365872   8.456  10.031  13.636 -0.0148  0.1439 -0.5801
   26ETHOX   O165873   8.616  10.045  13.773  0.6600  0.0668 -0.3574
   26ETHOX   C165874   8.702  10.080  13.674 -0.2927  0.0459  0.2053
   26ETHOX  H1165875   8.696  10.015  13.584  2.5853 -1.1390  0.7546
   26ETHOX  H1365876   8.666  10.184  13.657  0.0931  0.1471 -0.0201
   26ETHOX   C265877   8.850  10.080  13.708  0.3933 -0.6901 -0.6974
   26ETHOX  H2165878   8.915  10.092  13.618  0.5353  3.0075 -0.2527
   26ETHOX  H2365879   8.879   9.985  13.757  1.2739 -0.4085 -0.6599
   27ETHOX   O165880   8.873  10.178  13.812 -0.4234 -0.0519  0.5243
   27ETHOX   C165881   9.011  10.183  13.849 -0.3126 -0.8812 -0.1100
   27ETHOX  H1165882   9.063  10.239  13.768 -1.2525 -0.6384 -0.5625
   27ETHOX  H1365883   9.054  10.081  13.861  1.3861 -0.0822  0.8918
   27ETHOX   C265884   9.037  10.242  13.993  0.2068  0.5408  0.0703
   27ETHOX  H2165885   9.131  10.213  14.045 -0.2647 -0.0017  0.6439
   27ETHOX  H2365886   8.960  10.208  14.066  0.4302  3.6030  1.9040
   28ETHOX   O165887   9.030  10.384  13.993 -0.1877 -0.0772 -0.2594
   28ETHOX   C165888   9.074  10.450  14.112  0.2309  0.4083  0.1355
   28ETHOX  H1165889   9.030  10.410  14.206 -0.1200 -0.2468 -0.3008
   28ETHOX  H1365890   9.178  10.419  14.135  0.0526  0.5922  1.2270
   28ETHOX   C265891   9.070  10.602  14.101 -0.7129 -0.1048 -0.2632
   28ETHOX  H2165892   8.965  10.634  14.088 -0.5638  1.0771  1.1591
   28ETHOX  H2365893   9.119  10.645  14.011 -0.9321  1.6621  0.4204
   29ETHOX   O165894   9.116  10.657  14.225 -0.9025  0.0526  0.1720
   29ETHOX   C165895   9.082  10.799  14.233  0.2511  0.6016 -0.3408
   29ETHOX  H1165896   8.972  10.813  14.233  0.3053  1.5815  1.9573
   29ETHOX  H1365897   9.122  10.842  14.139  1.6071 -2.0472 -1.0567
   29ETHOX   C265898   9.141  10.870  14.357 -0.3020 -0.4664  0.2854
   29ETHOX  H2165899   9.123  10.980  14.360  1.7586 -0.1123  1.0991
   29ETHOX  H2365900   9.251  10.860  14.352 -0.3111 -0.2901 -0.4661
   30ETHOX   O165901   9.078  10.828  14.479 -0.0120 -0.6232 -0.1504
   30ETHOX   C165902   9.160  10.843  14.601  0.0332 -0.4389  0.4483
   30ETHOX  H1165903   9.231  10.928  14.598  0.0831 -0.3982  1.8292
   30ETHOX  H1365904   9.089  10.867  14.683 -1.6983 -0.9755 -0.8433
   30ETHOX   C265905   9.232  10.713  14.639 -0.4216  0.7729  0.4639
   30ETHOX  H2165906   9.153  10.636  14.652  1.0838 -0.7294  1.1052
   30ETHOX  H2365907   9.270  10.727  14.743 -0.8554 -0.3270  0.7815
   31ETHOX   O165908   9.332  10.681  14.543  0.0087 -0.0688  0.1678
   31ETHOX   C165909   9.397  10.551  14.564  0.4909  0.6116 -0.9816
   31ETHOX  H1165910   9.467  10.554  14.650  0.3408  0.6064 -0.8585
   31ETHOX  H1365911   9.315  10.479  14.582  1.5674 -0.4320 -0.1403
   31ETHOX   C265912   9.477  10.504  14.438  0.3366 -0.2945 -0.1848
   31ETHOX  H2165913   9.562  10.569  14.409  0.1808 -0.4509 -1.0227
   31ETHOX  H2365914   9.405  10.514  14.354 -0.6877  0.8577  0.7900
   32ETHOX   O165915   9.507  10.369  14.440  0.4203  0.8185 -0.8054
   32ETHOX   C165916   9.637  10.346  14.493 -0.2266  0.1968  0.2541
   32ETHOX  H1165917   9.712  10.391  14.425 -2.2115 -0.0156 -2.2188
   32ETHOX  H1365918   9.647  10.391  14.595 -0.6214 -0.1292  0.4412
   32ETHOX   C265919   9.674  10.195  14.494  0.1445  0.4445  0.0648
   32ETHOX  H2165920   9.782  10.170  14.497 -0.6879 -3.8708 -0.0360
   32ETHOX  H2365921   9.647  10.144  14.399  1.3925 -0.3673  0.1253
   33ETHOX   O165922   9.599  10.125  14.590 -0.4738  0.1734 -0.2134
   33ETHOX   C165923   9.667  10.129  14.716 -0.2713 -0.2672  0.4033
   33ETHOX  H1165924   9.773  10.107  14.694  0.0919  1.3783  0.3928
   33ETHOX  H1365925   9.677  10.231  14.759  1.1961 -0.0106 -0.4990
   33ETHOX   C265926   9.604  10.024  14.808 -0.0702 -0.6136  0.0963
   33ETHOX  H2165927   9.695   9.983  14.856  0.7117 -0.6329 -1.3641
   33ETHOX  H2365928   9.547   9.939  14.764  0.4513 -0.9079 -0.0092
   34ETHOX   O165929   9.539  10.087  14.915  0.0111 -0.2919  0.4617
   34ETHOX   C165930   9.513   9.994  15.022 -0.3377 -0.2243  0.8280
   34ETHOX  H1165931   9.612   9.954  15.051  0.4405 -0.3459 -1.7364
   34ETHOX  H1365932   9.450   9.910  14.985 -0.4344  0.4137 -0.5209
   34ETHOX   C265933   9.440  10.053  15.138 -0.0002  0.3731  0.2675
   34ETHOX  H2165934   9.406   9.973  15.207  0.3380 -0.9337 -1.0098
   34ETHOX  H2365935   9.352  10.108  15.099  0.1522 -0.1047 -0.7904
   35ETHOX   O165936   9.527  10.138  15.205  0.1192  0.3974 -0.4365
   35ETHOX   C165937   9.459  10.201  15.319 -0.1071 -0.2508 -0.4934
   35ETHOX  H1165938   9.376  10.265  15.283  0.1335  1.1578  1.2916
   35ETHOX  H1365939   9.405  10.120  15.372  0.7305 -1.4458 -1.4290
   35ETHOX   C265940   9.555  10.285  15.406 -0.2678  0.3762  0.5352
   35ETHOX  H2165941   9.643  10.226  15.441 -0.6388 -1.5159 -1.5084
   35ETHOX  H2365942   9.492  10.330  15.485  0.9004  1.5957  0.8089
   36ETHOX   O165943   9.613  10.396  15.335  0.5303 -0.8307  0.1281
   36ETHOX   C165944   9.706  10.466  15.418  0.4708 -0.3455 -0.0995
   36ETHOX  H1165945   9.786  10.396  15.448 -0.7610 -1.3026  1.1223
   36ETHOX  H1365946   9.664  10.500  15.516 -2.0334 -0.3142 -1.1025
   36ETHOX   C265947   9.771  10.586  15.349 -0.1782  0.3808  0.1265
   36ETHOX  H2165948   9.829  10.647  15.422  0.2283  0.5073 -0.3046
   36ETHOX  H2365949   9.698  10.663  15.316  0.1819  1.7969  2.3926
   37ETHOX   O165950   9.859  10.547  15.241  0.3935  0.0824  0.1043
   37ETHOX   C165951   9.899  10.662  15.166  0.0437 -0.2302  0.7341
   37ETHOX  H1165952   9.820  10.687  15.092  2.1491  2.5797 -0.7666
   37ETHOX  H1365953   9.901  10.750  15.234  0.3811  1.2413 -1.0870
   37ETHOX   C265954  10.037  10.639  15.097 -0.0582  0.0629  0.9102
   37ETHOX  H2165955  10.119  10.613  15.167  1.7940 -2.3522 -1.9161
   37ETHOX  H2365956  10.067  10.737  15.055 -1.0791  0.2442  0.5686
   38ETHOX   O165957  10.022  10.554  14.982  0.0684  0.4273  0.6006
   38ETHOX   C165958  10.142  10.545  14.906  0.6998  0.0308  0.5615
   38ETHOX  H1165959  10.220  10.508  14.975  0.5326  2.6975  2.3148
   38ETHOX  H1365960  10.165  10.646  14.866  0.9673  0.7615  2.4744
   38ETHOX   C265961  10.131  10.440  14.796 -0.0675  0.2182  0.3554
   38ETHOX  H2165962  10.220  10.449  14.730 -0.3837  1.6197  0.0841
   38ETHOX  H2365963  10.039  10.451  14.736 -1.2225  0.1273  2.0515
   39ETHOX   O165964  10.134  10.312  14.850  0.5012 -0.1884  0.5627
   39ETHOX   C165965  10.011  10.261  14.895  0.5560  0.4428 -0.2249
   39ETHOX  H1165966   9.984  10.302  14.994  2.4649 -2.0520  1.4418
   39ETHOX  H1365967   9.934  10.297  14.823  0.7888  0.6140 -0.3915
   39ETHOX   C265968  10.003  10.108  14.906 -0.6228  0.2812  0.0735
   39ETHOX  H2165969   9.910  10.083  14.961 -1.0904 -0.0090 -0.8282
   39ETHOX  H2365970  10.088  10.069  14.966 -1.1668 -0.8884  0.1246
   40ETHOX   O165971   9.999  10.040  14.785 -0.2519 -0.8060  0.0831
   40ETHOX   C165972   9.999   9.898  14.797  0.2728 -0.4363 -0.5226
   40ETHOX  H1165973   9.957   9.848  14.707  1.2504  0.0513 -1.2719
   40ETHOX  H1365974   9.941   9.871  14.887  0.4682 -2.6814 -1.0019
   40ETHOX   C265975  10.142   9.842  14.818 -0.6660  0.6154 -0.2229
   40ETHOX  H2165976  10.180   9.861  14.920 -1.6812  1.0575  0.0777
   40ETHOX  H2365977  10.217   9.892  14.753  0.8043 -1.4678 -0.2305
   41ETHOX   O165978  10.135   9.704  14.789  0.6938 -0.0006  0.3806
   41ETHOX   C165979  10.252   9.639  14.808  0.1665 -0.3592  0.7706
   41ETHOX  H1165980  10.321   9.685  14.734 -0.1059 -0.4332  0.4687
   41ETHOX  H1365981  10.284   9.648  14.914 -1.9498  0.7736  1.3817
   41ETHOX   C265982  10.230   9.493  14.767 -0.2090 -0.1186  0.1295
   41ETHOX  H2165983  10.124   9.462  14.771 -0.2683 -0.4070 -2.0410
   41ETHOX  H2365984  10.290   9.427  14.833 -0.5326 -0.4153  0.1282
   42ETHOX   O165985  10.265   9.484  14.630 -0.5686  0.3864  0.2718
   42ETHOX   C165986  10.257   9.349  14.583 -0.3312 -0.2435 -0.0956
   42ETHOX  H1165987  10.328   9.284  14.639 -0.2527  0.8593  1.1484
   42ETHOX  H1365988  10.153   9.312  14.587 -0.6823  0.8151  0.9931
   42ETHOX   C265989  10.291   9.338  14.428  0.0350 -1.1896 -0.5421
   42ETHOX  H2165990  10.247   9.425  14.375  1.4427 -0.2606 -0.2404
   42ETHOX  H2365991  10.246   9.245  14.386 -0.3234 -0.6683 -1.3558
   43ETHOX   O165992  10.432   9.343  14.402  0.0383  0.2152 -0.3335
   43ETHOX   C165993  10.447   9.361  14.263  0.0105 -0.4676  0.0500
   43ETHOX  H1165994  10.395   9.286  14.199  0.9902 -1.1181 -0.0150
   43ETHOX  H1365995  10.404   9.457  14.227  0.0769  0.7040  2.8564
   43ETHOX   C265996  10.599   9.357  14.226 -0.0281 -0.8933  0.0301
   43ETHOX  H2165997  10.653   9.434  14.285  1.0108 -0.7794 -1.0263
   43ETHOX  H2365998  10.618   9.401  14.125  2.4692 -0.3184  0.6719
   44ETHOX   O165999  10.666   9.236  14.253 -0.3184  0.1326  0.1269
   44ETHOX   C166000  10.692   9.165  14.130 -0.2478  0.9251  0.6774
   44ETHOX  H1166001  10.763   9.223  14.067  0.5866 -1.2733 -0.5354
   44ETHOX  H1366002  10.741   9.075  14.173  0.1651  0.4152 -0.7880
   44ETHOX   C266003  10.576   9.123  14.036 -0.5722  0.9391 -0.4715
   44ETHOX  H2166004  10.500   9.065  14.093 -2.6471  2.0956 -1.9383
   44ETHOX  H2366005  10.625   9.050  13.968 -1.1891 -0.0216  0.0889
   45ETHOX   O166006  10.525   9.221  13.948 -0.0290  0.4281  0.8523
   45ETHOX   C166007  10.475   9.150  13.833 -0.2670 -0.6275 -0.3225
   45ETHOX  H1166008  10.406   9.065  13.852  1.1988 -1.5796  0.9535
   45ETHOX  H1366009  10.559   9.100  13.782 -0.5321  0.3926 -1.8310
   45ETHOX   C266010  10.400   9.243  13.733 -1.1561  0.5140  0.6843
   45ETHOX  H2166011  10.394   9.192  13.635 -2.7762 -0.4545  1.2444
   45ETHOX  H2366012  10.446   9.341  13.708  0.3935  0.3773  2.7444
   46ETHOX   O166013  10.267   9.264  13.771  0.8245  0.0250 -0.3375
   46ETHOX   C166014  10.234   9.387  13.835 -0.6029  0.1212  0.1073
   46ETHOX  H1166015  10.287   9.397  13.932  0.5426 -1.2357 -0.3522
   46ETHOX  H1366016  10.267   9.469  13.768  0.1262 -0.9279 -0.8542
   46ETHOX   C266017  10.081   9.385  13.855 -0.1470  0.3049  0.1221
   46ETHOX  H2166018  10.032   9.330  13.772 -0.8251  2.1817 -0.7755
   46ETHOX  H2366019  10.037   9.487  13.847 -1.0265 -0.1832 -1.7280
   47ETHOX   O166020  10.040   9.328  13.980  0.1480 -0.1768 -0.4570
   47ETHOX   C166021   9.902   9.347  14.001 -0.5910 -0.0894 -0.1756
   47ETHOX  H1166022   9.855   9.310  13.908  2.1899  1.0375 -2.1624
   47ETHOX  H1366023   9.876   9.453  13.985 -1.7849 -0.8158 -4.0209
   47ETHOX   C266024   9.851   9.291  14.134  0.2660  0.6757  0.4265
   47ETHOX  H2166025   9.900   9.192  14.149  0.7459  0.8064 -0.2695
   47ETHOX  H2366026   9.743   9.271  14.116  0.3923  0.0855  0.3077
   48ETHOX   O166027   9.878   9.381  14.238 -0.2427  0.1328 -0.4547
   48ETHOX   C166028   9.798   9.361  14.356 -0.2562 -0.3009 -0.2396
   48ETHOX  H1166029   9.690   9.352  14.332 -0.6736 -3.3982  2.0000
   48ETHOX  H1366030   9.835   9.268  14.405  2.8392  1.9573  2.1456
   48ETHOX   C266031   9.847   9.465  14.453  0.3582  0.1117 -0.1450
   48ETHOX  H2166032   9.954   9.447  14.475  0.9707  0.6793 -2.3859
   48ETHOX  H2366033   9.852   9.566  14.407 -0.9334  0.1797 -0.1583
   49ETHOX   O166034   9.757   9.465  14.570  0.6578 -0.3015  0.0798
   49ETHOX   C166035   9.770   9.584  14.654  0.0021  0.1661  0.3262
   49ETHOX  H1166036   9.759   9.663  14.576  1.0816 -1.2843 -1.3808
   49ETHOX  H1366037   9.874   9.591  14.692  0.6922 -0.3469 -1.3527
   49ETHOX   C266038   9.662   9.605  14.754 -0.2537 -0.7463  0.3699
   49ETHOX  H2166039   9.558   9.583  14.722 -0.4978 -1.7635  1.7383
   49ETHOX  H2366040   9.672   9.713  14.778 -2.0791 -0.1962 -1.1225
   50ETHOX   O166041   9.679   9.548  14.875 -0.1025  0.5174  0.1645
   50ETHOX   C166042   9.592   9.589  14.977 -0.4645  0.3836  0.1777
   50ETHOX  H1166043   9.546   9.687  14.952  1.6049  0.8466 -2.2339
   50ETHOX  H1366044   9.518   9.507  14.989  0.4375 -0.6425 -1.0463
   50ETHOX   C266045   9.662   9.602  15.110  0.5028 -0.1901  0.2080
   50ETHOX  H2166046   9.730   9.516  15.126 -0.2691 -1.4513 -2.7053
   50ETHOX  H2366047   9.590   9.598  15.195  0.7471 -0.8321  0.3906
   51ETHOX   O166048   9.725   9.726  15.111  0.7154 -0.5904  0.0181
   51ETHOX   C166049   9.763   9.767  15.245  0.0024 -0.0822  0.2916
   51ETHOX  H1166050   9.788   9.674  15.299 -4.0459 -1.3770  0.2810
   51ETHOX  H1366051   9.673   9.815  15.289 -0.8562  0.3233 -1.7911
   51ETHOX   C266052   9.886   9.860  15.243 -0.1914 -0.3713  0.0100
   51ETHOX  H2166053   9.959   9.806  15.178 -0.7083 -0.1699 -0.7505
   51ETHOX  H2366054   9.938   9.875  15.340 -0.7510  1.4410  0.0599
   52ETHOX   O166055   9.865   9.984  15.185  0.4449  0.0358 -0.7964
   52ETHOX   C166056   9.838  10.087  15.287 -0.0007  0.3242  0.0883
   52ETHOX  H1166057   9.787  10.167  15.229  1.1717  2.1503  1.4587
   52ETHOX  H1366058   9.772  10.046  15.367  1.5102 -3.2044 -0.2645
   52ETHOX   C266059   9.962  10.141  15.357  0.0776  0.3898  0.3537
   52ETHOX  H2166060   9.952  10.248  15.385 -0.1492  0.3011  0.6175
   52ETHOX  H2366061  10.054  10.119  15.299 -1.0281 -1.1644 -0.9084
   53ETHOX   O166062   9.984  10.065  15.474 -0.1380 -0.5707 -0.0186
   53ETHOX   C166063  10.110  10.087  15.534  0.2022 -0.1863  0.4793
   53ETHOX  H1166064  10.191  10.084  15.457 -0.7919  0.4863 -0.6303
   53ETHOX  H1366065  10.123  10.185  15.583 -0.4606  0.5676 -0.8103
   53ETHOX   C266066  10.111   9.980  15.645 -0.7423  0.1775  0.3975
   53ETHOX  H2166067  10.216   9.972  15.681 -0.4088  0.1665 -0.5495
   53ETHOX  H2366068  10.079   9.883  15.601 -1.6515  0.3451  0.6685
   54ETHOX   O166069  10.027  10.012  15.749 -0.4497  0.6028 -0.0063
   54ETHOX   C166070  10.026   9.910  15.847  0.2832 -0.5148  0.9288
   54ETHOX  H1166071  10.004   9.816  15.793  1.4603 -0.3517  0.1222
   54ETHOX  H1366072  10.119   9.889  15.904 -0.4877 -0.8614  2.1032
   54ETHOX   C266073   9.918   9.944  15.949 -0.1717 -0.1650  0.6074
   54ETHOX  H2166074   9.934  10.048  15.983  1.1278  0.7056 -2.4033
   54ETHOX  H2366075   9.914   9.870  16.032 -0.2557  0.4639  1.1714
   55ETHOX   O166076   9.784   9.940  15.898 -0.0354 -0.0087 -0.6760
   55ETHOX   C166077   9.685   9.997  15.982  0.0144  0.1864  0.1232
   55ETHOX  H1166078   9.694   9.954  16.084 -0.6428  1.6329  0.8131
   55ETHOX  H1366079   9.702  10.106  15.989 -1.2881  0.3300  1.2455
   55ETHOX   C266080   9.547   9.983  15.917 -0.0164  0.8897 -0.4085
   55ETHOX  H2166081   9.485  10.055  15.974 -0.4179 -0.4137  0.8667
   55ETHOX  H2366082   9.567  10.018  15.813  0.5251 -0.1875 -0.6938
   56ETHOX   O166083   9.492   9.856  15.919  0.1703  0.2183  0.4137
   56ETHOX   C166084   9.386   9.854  15.826  0.5395 -0.5874  0.0240
   56ETHOX  H1166085   9.413   9.883  15.722  0.4986  0.8399  0.3989
   56ETHOX  H1366086   9.308   9.933  15.837  1.2740  0.4516 -1.7044
   56ETHOX   C266087   9.321   9.710  15.818 -0.0158  0.1319 -0.0886
   56ETHOX  H2166088   9.400   9.638  15.786 -0.2770  0.3655 -1.3227
   56ETHOX  H2366089   9.244   9.705  15.739  1.2239  0.5551 -1.3622
   57ETHOX   O166090   9.282   9.676  15.949 -0.0416 -0.0592  0.4864
   57ETHOX   C166091   9.238   9.538  15.952  0.2852 -0.1156 -0.2350
   57ETHOX  H1166092   9.167   9.513  15.871  0.0144  0.6453 -0.2329
   57ETHOX  H1366093   9.334   9.482  15.950  0.9544  0.9908  0.1237
   57ETHOX   C266094   9.172   9.522  16.088  0.8745  0.2075 -0.1325
   57ETHOX  H2166095   9.103   9.436  16.074 -0.3425  0.9102  1.2898
   57ETHOX  H2366096   9.116   9.614  16.116  0.7885 -0.1398  0.8669
   58ETHOX   O166097   9.281   9.500  16.176 -0.2747 -0.3294  0.1293
   58ETHOX   C166098   9.248   9.538  16.313 -0.0683 -0.3566 -0.4296
   58ETHOX  H1166099   9.165   9.478  16.358  1.0572 -0.6984  1.2691
   58ETHOX  H1366100   9.207   9.642  16.312  0.6940 -0.0287  0.8372
   58ETHOX   C266101   9.371   9.532  16.407 -0.7390 -0.6241  0.2293
   58ETHOX  H2166102   9.370   9.610  16.485 -0.0984 -1.3601  0.9941
   58ETHOX  H2366103   9.461   9.550  16.344 -1.8182  0.5885 -1.0126
   59ETHOX   O166104   9.378   9.401  16.463  0.2695  0.0365  0.4227
   59ETHOX   C166105   9.487   9.377  16.544 -0.9045  0.0962 -0.5450
   59ETHOX  H1166106   9.585   9.393  16.495 -1.1545 -2.3515 -1.9987
   59ETHOX  H1366107   9.479   9.443  16.633 -0.4337  2.9000 -2.4330
   59ETHOX   C266108   9.496   9.230  16.592  0.2208  0.5262  0.2767
   59ETHOX  H2166109   9.396   9.210  16.634 -0.8588 -0.1854 -2.3991
   59ETHOX  H2366110   9.585   9.210  16.655 -0.1474 -4.0263 -0.3316
   60ETHOX   O166111   9.500   9.155  16.470  0.0756  0.5848  0.5247
   60ETHOX   C166112   9.545   9.019  16.481 -0.4670 -0.6458  0.1715
   60ETHOX  H1166113   9.490   8.970  16.564  1.1772 -0.8770  1.1823
   60ETHOX  H1366114   9.652   9.031  16.511 -0.2834  2.5893 -1.3012
   60ETHOX   C266115   9.548   8.932  16.353 -0.5732  0.6011 -0.2661
   60ETHOX  H2166116   9.457   8.950  16.293  0.4339  0.8862 -1.7652
   60ETHOX  H2366117   9.542   8.826  16.384 -2.1818  1.0560  1.1744
   61ETHOX   O166118   9.667   8.941  16.280 -0.2864 -0.1956  0.7673
   61ETHOX   C166119   9.659   8.858  16.163  0.0876  0.6484 -0.5200
   61ETHOX  H1166120   9.552   8.843  16.139  0.1992 -1.0007 -0.1046
   61ETHOX  H1366121   9.716   8.906  16.081  2.0263  2.7630  1.8707
   61ETHOX   C266122   9.716   8.723  16.199 -0.1185 -0.5249 -0.1169
   61ETHOX  H2166123   9.712   8.648  16.117  3.1770  0.5740 -1.4196
   61ETHOX  H2366124   9.658   8.672  16.280 -1.1599 -1.4287 -1.3825
   62ETHOX   O166125   9.850   8.738  16.240  0.1760 -0.1528  0.3577
   62ETHOX   C166126   9.933   8.626  16.201  1.1680 -0.5235 -0.5679
   62ETHOX  H1166127   9.954   8.658  16.097 -0.1720 -0.5205 -0.8484
   62ETHOX  H1366128   9.872   8.533  16.201  0.4478 -0.0687 -1.6692
   62ETHOX   C266129  10.064   8.618  16.280  0.2624 -0.1815  0.2760
   62ETHOX  H2166130  10.047   8.573  16.381  2.2384 -1.4792  0.0744
   62ETHOX  H2366131  10.111   8.718  16.287 -2.7793  1.3658  0.6061
   63ETHOX   O166132  10.131   8.517  16.206 -0.0069  0.0184 -0.4111
   63ETHOX   C166133  10.265   8.507  16.250  0.3486  0.6650  0.1702
   63ETHOX  H1166134  10.313   8.607  16.243 -0.4152  0.9180 -2.3152
   63ETHOX  H1366135  10.273   8.479  16.358 -0.4696 -1.0054 -0.1698
   63ETHOX   C266136  10.344   8.405  16.170  0.4238  0.6192  0.5876
   63ETHOX  H2166137  10.294   8.307  16.161  0.4842  0.6365 -0.0413
   63ETHOX  H2366138  10.442   8.392  16.220  0.7385  1.4568  0.2082
   64ETHOX   O166139  10.385   8.448  16.042  0.8005 -0.1774 -0.3890
   64ETHOX   C166140  10.374   8.347  15.932 -0.7376 -0.4175 -1.1079
   64ETHOX  H1166141  10.267   8.320  15.933 -0.9157  0.1588  1.3535
   64ETHOX  H1366142  10.439   8.261  15.960  1.4360  1.4259 -0.1345
   64ETHOX   C266143  10.419   8.387  15.790  0.5823 -1.0910 -0.4619
   64ETHOX  H2166144  10.374   8.487  15.772  1.7912 -0.5984 -0.8421
   64ETHOX  H2366145  10.371   8.330  15.708 -1.3012  2.2372 -1.8969
   65ETHOX   O166146  10.561   8.383  15.770 -0.2556  0.5405 -0.1603
   65ETHOX   C166147  10.609   8.443  15.646  0.0888 -0.4853  0.3221
   65ETHOX  H1166148  10.555   8.404  15.558  1.9432 -0.3660 -0.9250
   65ETHOX  H1366149  10.590   8.553  15.643  0.8747 -0.3679 -1.3156
   65ETHOX   C266150  10.760   8.408  15.630  0.8190 -0.6159 -0.4175
   65ETHOX  H2166151  10.788   8.456  15.534 -0.9884 -0.4146 -0.8669
   65ETHOX  H2366152  10.752   8.299  15.616  0.8844 -0.5247 -1.2138
   66ETHOX   O166153  10.828   8.454  15.743  0.3712 -0.9569  0.3148
   66ETHOX   C166154  10.970   8.430  15.726 -0.1693 -0.0469  0.1522
   66ETHOX  H1166155  10.996   8.397  15.623  0.4025  1.0335 -0.0637
   66ETHOX  H1366156  10.999   8.355  15.804 -0.2632  1.0562  1.2705
   66ETHOX   C266157  11.050   8.562  15.728  0.1932 -1.0398 -0.1813
   66ETHOX  H2166158  11.021   8.627  15.643 -0.1621  1.2186  1.5556
   66ETHOX  H2366159  11.155   8.532  15.709 -0.1371 -1.1371 -1.9732
   67ETHOX   O166160  11.041   8.634  15.851  0.0686 -0.5697 -0.3620
   67ETHOX   C166161  11.049   8.779  15.832 -0.0926 -0.6533 -0.3484
   67ETHOX  H1166162  11.127   8.807  15.758 -0.2581 -2.0647 -1.0887
   67ETHOX  H1366163  10.951   8.808  15.790 -1.8148 -5.1014  0.0584
   67ETHOX   C266164  11.078   8.853  15.959 -0.3173  0.0067  1.0525
   67ETHOX  H2166165  11.003   8.820  16.033 -4.3172  1.4641 -1.9798
   67ETHOX  H2366166  11.070   8.962  15.939 -2.0752 -0.4445 -1.1329
   68ETHOX   O166167  11.205   8.828  16.009 -0.5363  0.1627  0.2062
   68ETHOX   C166168  11.219   8.886  16.140  0.0341 -0.3088  0.0749
   68ETHOX  H1166169  11.259   8.988  16.122  0.0227 -0.0020  1.6631
   68ETHOX  H1366170  11.124   8.895  16.196  0.8996 -0.1838  1.6088
   68ETHOX   C266171  11.306   8.793  16.224 -0.1791 -0.2671 -0.7675
   68ETHOX  H2166172  11.271   8.688  16.211  1.2466 -0.8120 -0.3816
   68ETHOX  H2366173  11.309   8.821  16.331 -0.8043  0.8222 -1.0266
   69ETHOX   O166174  11.444   8.800  16.192 -0.4211 -0.3934  0.6544
   69ETHOX   C166175  11.525   8.693  16.237 -0.2516  0.3084  0.0736
   69ETHOX  H1166176  11.539   8.706  16.347 -0.1757 -1.8464  0.3583
   69ETHOX  H1366177  11.464   8.602  16.224 -0.0981  0.3723 -1.1777
   69ETHOX   C266178  11.662   8.683  16.174  0.8558 -0.0618 -0.0521
   69ETHOX  H2166179  11.723   8.609  16.230  0.7280 -1.2602 -1.4241
   69ETHOX  H2366180  11.695   8.788  16.165 -2.4090  1.0411 -0.6479
   70ETHOX   O166181  11.655   8.625  16.044  0.2102 -0.5948  0.4006
   70ETHOX   C166182  11.788   8.607  16.000 -1.5016 -0.4871 -0.6622
   70ETHOX  H1166183  11.844   8.702  15.987  0.6932 -1.6408 -0.1937
   70ETHOX  H1366184  11.845   8.547  16.074 -0.8006  0.9926  0.0459
   70ETHOX   C266185  11.814   8.529  15.868  0.2611  0.3406 -0.2974
   70ETHOX  H2166186  11.921   8.541  15.843  0.6975  1.7646  1.9869
   70ETHOX  H2366187  11.766   8.580  15.781 -1.3304  1.0639  0.9566
   71ETHOX   O166188  11.774   8.390  15.867  0.1496  0.4961 -0.2565
   71ETHOX   C166189  11.802   8.321  15.741 -1.1995 -0.2355  0.4570
   71ETHOX  H1166190  11.786   8.392  15.657 -2.2645  1.1438  1.7785
   71ETHOX  H1366191  11.730   8.237  15.742 -1.2483 -0.1928  0.6330
   71ETHOX   C266192  11.942   8.264  15.735 -0.2015  0.4455 -0.0990
   71ETHOX  H2166193  11.950   8.189  15.653 -0.3979 -0.9641  1.1077
   71ETHOX  H2366194  11.959   8.213  15.833 -0.4247  1.2780  0.3819
   72ETHOX   O166195  12.038   8.367  15.714 -0.5001  0.2444  0.4606
   72ETHOX   C166196  12.159   8.337  15.783  0.2384  0.0238 -0.8288
   72ETHOX  H1166197  12.131   8.345  15.890  0.4444 -1.8469 -0.5982
   72ETHOX  H1366198  12.187   8.230  15.775  0.3515 -0.3829  3.0586
   72ETHOX   C266199  12.282   8.432  15.760 -0.4509  0.4087 -0.3341
   72ETHOX  H2166200  12.351   8.416  15.845  0.5414 -0.5978 -1.2879
   72ETHOX  H2366201  12.249   8.537  15.765  1.3398  1.0172 -0.6685
   73ETHOX   O166202  12.344   8.417  15.633  0.0358  0.1936  0.3002
   73ETHOX   C166203  12.469   8.486  15.630 -0.0610  0.3142 -0.1927
   73ETHOX  H1166204  12.521   8.458  15.724 -0.0030  0.7547 -0.0904
   73ETHOX  H1366205  12.449   8.595  15.642 -0.5073  0.2533 -0.3743
   73ETHOX   C266206  12.558   8.464  15.507  0.4487  0.0915  0.0989
   73ETHOX  H2166207  12.651   8.522  15.521  1.5539 -1.7029  0.5148
   73ETHOX  H2366208  12.501   8.485  15.413  2.6080 -3.3274 -2.1964
   74ETHOX   O166209  12.596   8.327  15.495 -0.2153 -0.7619  0.2232
   74ETHOX   C166210  12.682   8.303  15.380 -0.8108 -0.0920  0.0497
   74ETHOX  H1166211  12.633   8.348  15.290 -0.2257  1.6670  0.5705
   74ETHOX  H1366212  12.782   8.352  15.377 -0.6279 -0.4006  0.9500
   74ETHOX   C266213  12.698   8.149  15.369 -0.1183  0.2963  0.5655
   74ETHOX  H2166214  12.736   8.117  15.468 -1.8738 -0.8444  0.9053
   74ETHOX  H2366215  12.770   8.134  15.286 -0.4835  1.5629 -0.0096
   75ETHOX   O166216  12.580   8.068  15.346  0.1964  0.5953  0.1549
   75ETHOX   C166217  12.614   7.936  15.305  0.6040 -0.0906  0.2391
   75ETHOX  H1166218  12.713   7.907  15.345  0.5649 -1.0165 -0.3109
   75ETHOX  H1366219  12.625   7.931  15.194 -1.2623 -1.9596  0.0861
   75ETHOX   C266220  12.521   7.833  15.343  0.1225 -0.6523  0.0350
   75ETHOX  H2166221  12.507   7.845  15.453 -2.3179  0.6144 -0.3495
   75ETHOX  H2366222  12.556   7.732  15.313 -2.4102 -1.4605 -0.4930
   76ETHOX   O166223  12.398   7.870  15.278  0.5185  0.6188 -0.4186
   76ETHOX   C166224  12.294   7.782  15.314  0.2567 -0.5391  0.2545
   76ETHOX  H1166225  12.320   7.678  15.285 -2.2331 -1.6588  1.6871
   76ETHOX  H1366226  12.281   7.782  15.425 -1.4226  1.4074  0.1273
   76ETHOX   C266227  12.161   7.820  15.245  0.1535 -0.1485  0.3419
   76ETHOX  H2166228  12.109   7.722  15.239  2.2557 -1.3631  1.0304
   76ETHOX  H2366229  12.171   7.865  15.144 -0.8578 -2.6159 -0.9406
   77ETHOX   O166230  12.083   7.905  15.333  0.5601  0.3937  0.3253
   77ETHOX   C166231  11.970   7.943  15.255  0.4324  0.4696 -0.1572
   77ETHOX  H1166232  11.922   7.844  15.235  2.8630 -1.1420  1.4137
   77ETHOX  H1366233  12.003   8.000  15.166  0.3569  1.7894  0.6406
   77ETHOX   C266234  11.880   8.042  15.337 -0.4245  0.7304  0.7301
   77ETHOX  H2166235  11.930   8.141  15.338  2.3893 -0.5754  0.3731
   77ETHOX  H2366236  11.871   8.009  15.443  1.2405  1.3725  1.1072
   78ETHOX   O166237  11.746   8.053  15.289  0.2506 -0.1068 -0.1271
   78ETHOX   C166238  11.665   8.139  15.364  0.0364 -0.3428  0.0017
   78ETHOX  H1166239  11.673   8.100  15.468  0.5058 -3.7764 -1.1799
   78ETHOX  H1366240  11.711   8.239  15.355 -0.6295  0.2089  2.1139
   78ETHOX   C266241  11.520   8.160  15.314 -0.0131 -0.1147  0.0599
   78ETHOX  H2166242  11.532   8.243  15.241  1.2076 -0.4412 -0.1409
   78ETHOX  H2366243  11.461   8.194  15.402 -0.6998 -0.5799 -0.2166
   79ETHOX   O166244  11.454   8.048  15.248 -0.3102  0.1480  0.0863
   79ETHOX   C166245  11.325   8.073  15.215 -0.1453 -0.2647  0.8041
   79ETHOX  H1166246  11.267   8.094  15.308 -1.1979 -0.9088  0.3075
   79ETHOX  H1366247  11.318   8.157  15.144  2.9687 -1.3403 -0.9449
   79ETHOX   C266248  11.270   7.945  15.154 -0.3955 -0.5016  0.1781
   79ETHOX  H2166249  11.309   7.857  15.209  0.7922  0.5925  1.1368
   79ETHOX  H2366250  11.298   7.926  15.048 -0.2963 -0.3658  0.1800
   80ETHOX   O166251  11.130   7.944  15.177 -0.5236 -0.1510  0.0478
   80ETHOX   C166252  11.062   7.972  15.059  0.1925  0.2482  0.2977
   80ETHOX  H1166253  11.101   8.066  15.015  0.7292  1.4348  3.1148
   80ETHOX  H1366254  11.073   7.885  14.990  3.2977  1.3154 -0.6891
   80ETHOX   C266255  10.907   7.988  15.075  0.6418  0.0192  0.0856
   80ETHOX  H2166256  10.864   7.897  15.122  0.4078  0.2215  0.2598
   80ETHOX  H2366257  10.869   7.990  14.970 -2.0600  1.7105  1.0081
   81ETHOX   O166258  10.864   8.108  15.127 -0.0977 -1.0574  0.2235
   81ETHOX   C166259  10.720   8.108  15.131  0.6679 -0.5646  0.3534
   81ETHOX  H1166260  10.666   8.095  15.035  4.1804  0.5621 -1.9708
   81ETHOX  H1366261  10.691   8.027  15.201 -2.0695 -0.2004 -0.2437
   81ETHOX   C266262  10.659   8.240  15.187 -0.0953  0.3741 -0.4222
   81ETHOX  H2166263  10.555   8.214  15.216  0.0716 -0.5012 -0.5871
   81ETHOX  H2366264  10.714   8.268  15.280  0.6833 -2.4342  0.0318
   82ETHOX   O166265  10.670   8.344  15.087  0.6370  0.4312  0.3720
   82ETHOX   C166266  10.651   8.479  15.134  0.0887 -0.4429  0.2104
   82ETHOX  H1166267  10.748   8.528  15.158  0.0217  0.1473 -0.6626
   82ETHOX  H1366268  10.579   8.495  15.217 -0.8692 -0.5610 -0.5788
   82ETHOX   C266269  10.600   8.572  15.014  0.2398 -0.2838  0.3679
   82ETHOX  H2166270  10.646   8.535  14.920 -1.0810  0.6983 -0.7060
   82ETHOX  H2366271  10.627   8.679  15.017  0.1840 -0.2858  1.1692
   83ETHOX   O166272  10.460   8.567  15.009 -0.1132 -0.7276  0.3076
   83ETHOX   C166273  10.396   8.652  14.906  0.1813  0.1082 -0.1113
   83ETHOX  H1166274  10.288   8.664  14.929  0.0592  1.2961 -1.1875
   83ETHOX  H1366275  10.442   8.753  14.918 -0.1759  0.0054  2.6601
   83ETHOX   C266276  10.390   8.602  14.759 -0.2915  0.0175  0.5436
   83ETHOX  H2166277  10.491   8.574  14.722  0.0392  1.1317  0.5830
   83ETHOX  H2366278  10.359   8.693  14.703  0.4907  0.2675  0.5092
   84ETHOX   O166279  10.298   8.507  14.721  0.8908  0.2858  0.0805
   84ETHOX   C166280  10.307   8.449  14.589  0.0915  0.3396  0.4830
   84ETHOX  H1166281  10.300   8.338  14.583 -0.7020  0.3684  0.7163
   84ETHOX  H1366282  10.410   8.476  14.557 -0.3272 -0.9602 -2.2714
   84ETHOX   C266283  10.217   8.507  14.476  1.2600 -0.4523  0.3209
   84ETHOX  H2166284  10.233   8.465  14.374 -0.9976  1.6455 -1.0128
   84ETHOX  H2366285  10.249   8.614  14.479 -0.1030 -0.0375  0.5436
   85ETHOX   O166286  10.078   8.501  14.501  0.1491  1.0222 -0.5702
   85ETHOX   C166287  10.008   8.587  14.417  0.6496 -0.1576  0.3036
   85ETHOX  H1166288  10.034   8.694  14.436  2.3312 -0.4602 -0.1045
   85ETHOX  H1366289  10.029   8.554  14.314  2.0535  1.5107  0.0032
   85ETHOX   C266290   9.851   8.578  14.446 -0.5515  0.4720 -0.0473
   85ETHOX  H2166291   9.812   8.475  14.426 -3.1621  1.1464  1.0636
   85ETHOX  H2366292   9.797   8.641  14.373 -1.3923  0.5591  0.6233
   86ETHOX   O166293   9.827   8.616  14.579  0.6585  0.1436 -0.4208
   86ETHOX   C166294   9.689   8.598  14.602  0.4884  0.2600  0.6077
   86ETHOX  H1166295   9.654   8.496  14.577 -1.5420  0.7707  1.1645
   86ETHOX  H1366296   9.630   8.655  14.527 -0.6550 -0.9576  0.5352
   86ETHOX   C266297   9.640   8.646  14.745  0.0007  0.5186 -0.0935
   86ETHOX  H2166298   9.696   8.589  14.821 -0.7873  0.5844  0.5483
   86ETHOX  H2366299   9.530   8.628  14.744 -0.1397  1.3094 -0.3123
   87ETHOX   O166300   9.650   8.788  14.763 -0.2531  0.3929 -0.2189
   87ETHOX   C166301   9.586   8.825  14.884  0.7437 -0.2912  0.5015
   87ETHOX  H1166302   9.501   8.756  14.901  0.3468 -0.2965 -1.3148
   87ETHOX  H1366303   9.660   8.809  14.965  2.2424 -2.9318 -1.2592
   87ETHOX   C266304   9.549   8.977  14.887 -0.2689  0.2520  0.0000
   87ETHOX  H2166305   9.637   9.034  14.851 -2.0881  2.7334 -0.7729
   87ETHOX  H2366306   9.524   8.997  14.993 -0.0472 -1.1574  0.3407
   88ETHOX   O166307   9.446   9.006  14.790 -0.4911  0.6407 -0.0356
   88ETHOX   C166308   9.398   9.136  14.809 -0.3140 -0.2842  0.3715
   88ETHOX  H1166309   9.479   9.211  14.793 -2.5828  2.2038 -0.0819
   88ETHOX  H1366310   9.373   9.167  14.912  1.8112  2.4681  0.1643
   88ETHOX   C266311   9.275   9.153  14.716 -0.1911  0.4281  0.4752
   88ETHOX  H2166312   9.309   9.123  14.615 -1.7987 -0.4016  0.1624
   88ETHOX  H2366313   9.253   9.262  14.710 -2.4097 -0.0237 -0.2779
   89ETHOX   O166314   9.162   9.081  14.748  0.6532  0.4065 -0.1619
   89ETHOX   C166315   9.047   9.121  14.679 -0.5540  0.5972  0.2005
   89ETHOX  H1166316   9.047   9.228  14.651 -3.1851 -0.4295 -4.9471
   89ETHOX  H1366317   9.061   9.081  14.576  2.1443  0.4566  0.5594
   89ETHOX   C266318   8.920   9.087  14.750  0.0117  0.6350 -0.3614
   89ETHOX  H2166319   8.916   8.979  14.779 -0.5628  1.1910  1.8582
   89ETHOX  H2366320   8.842   9.093  14.672 -2.4780 -1.5630  1.7247
   90ETHOX   O166321   8.890   9.170  14.854 -0.5903  0.3234  0.5226
   90ETHOX   C166322   8.754   9.158  14.890  0.3653  0.0169  0.3624
   90ETHOX  H1166323   8.689   9.211  14.818 -0.2230 -1.5898 -0.3377
   90ETHOX  H1366324   8.719   9.052  14.894 -0.1245  0.2128  2.6152
   90ETHOX   C266325   8.714   9.203  15.032  0.6315 -0.5986 -0.7893
   90ETHOX  H2166326   8.796   9.219  15.104 -0.4674  2.2799 -0.0265
   90ETHOX  H2366327   8.631   9.138  15.068  0.2719 -0.0588 -0.6248
   91ETHOX   O166328   8.658   9.334  15.024 -0.0938  0.4642  0.0189
   91ETHOX   C166329   8.576   9.374  15.135 -0.4723  0.2301 -0.0221
   91ETHOX  H1166330   8.498   9.297  15.154  0.2601 -1.2200 -2.5105
   91ETHOX  H1366331   8.635   9.379  15.229  0.2628  1.3215 -0.5228
   91ETHOX   C266332   8.511   9.513  15.119 -0.5642  0.2535  0.0476
   91ETHOX  H2166333   8.424   9.532  15.185 -0.8333  0.2860 -0.3163
   91ETHOX  H2366334   8.481   9.502  15.012  1.8935 -1.2725 -0.5795
   92ETHOX   O166335   8.603   9.622  15.137  0.0358  0.5390 -0.1171
   92ETHOX   C166336   8.547   9.743  15.083 -0.3860  0.4961 -1.5594
   92ETHOX  H1166337   8.540   9.749  14.973  0.6555  1.6695 -1.5844
   92ETHOX  H1366338   8.450   9.763  15.134 -0.3169 -0.3809 -1.0587
   92ETHOX   C266339   8.629   9.862  15.135 -0.6082  0.3034  0.1487
   92ETHOX  H2166340   8.631   9.857  15.246 -0.5987  1.6054  0.2217
   92ETHOX  H2366341   8.573   9.952  15.105 -1.7534 -1.0980 -2.2144
   93ETHOX   O166342   8.752   9.855  15.074 -0.0210 -0.4120 -0.1466
   93ETHOX   C166343   8.748   9.904  14.940 -0.0582 -0.2993  0.6870
   93ETHOX  H1166344   8.646   9.919  14.899 -0.2897  0.0902  1.3903
   93ETHOX  H1366345   8.790   9.827  14.871 -1.6562 -0.1568 -0.4893
   93ETHOX   C266346   8.817  10.041  14.932 -0.8543 -0.1481 -0.8286
   93ETHOX  H2166347   8.758  10.118  14.985  1.1246  0.9329 -0.0935
   93ETHOX  H2366348   8.822  10.058  14.822 -0.1439 -2.4222 -1.2095
   94ETHOX   O166349   8.944  10.037  14.995 -0.0625 -0.1496 -0.8380
   94ETHOX   C166350   9.051   9.968  14.931 -0.1963  0.4279 -1.0286
   94ETHOX  H1166351   9.122   9.942  15.012 -0.9712  3.5762  0.8518
   94ETHOX  H1366352   9.008   9.876  14.888  0.4250  0.1184 -0.9997
   94ETHOX   C266353   9.127  10.047  14.828 -0.8973  0.4515 -0.4073
   94ETHOX  H2166354   9.055  10.093  14.757 -0.4594  0.4842 -0.8382
   94ETHOX  H2366355   9.198   9.975  14.782 -0.7765 -1.0729  2.0001
   95ETHOX   O166356   9.202  10.148  14.900  0.4632 -0.3736  0.0202
   95ETHOX   C166357   9.264  10.244  14.814  0.0086  0.2395  0.5274
   95ETHOX  H1166358   9.187  10.298  14.756 -1.7065 -2.7912 -0.2255
   95ETHOX  H1366359   9.333  10.196  14.741  0.7615 -0.5392  1.7135
   95ETHOX   C266360   9.347  10.350  14.899  0.2080  0.2101  0.2318
   95ETHOX  H2166361   9.419  10.405  14.834  2.7286  0.2800  2.8493
   95ETHOX  H2366362   9.429  10.309  14.962  2.1908  2.4488 -0.7100
   96ETHOX   O166363   9.267  10.446  14.969 -0.7532  0.3610 -0.0512
   96ETHOX   C166364   9.342  10.532  15.056  0.3066  0.1942  0.2699
   96ETHOX  H1166365   9.344  10.474  15.151 -0.8472 -0.7912 -0.2800
   96ETHOX  H1366366   9.446  10.539  15.018  0.9626  0.2666  1.9767
   96ETHOX   C266367   9.270  10.670  15.072  0.0417  1.3282  0.3758
   96ETHOX  H2166368   9.295  10.689  15.178  0.2531  1.4517  0.3075
   96ETHOX  H2366369   9.161  10.655  15.064  0.3218 -0.0945 -1.4117
   97ETHOX   O166370   9.333  10.771  14.996  0.8883 -0.0972  0.1668
   97ETHOX   C166371   9.270  10.898  15.017 -0.2307 -0.1214  0.1112
   97ETHOX  H1166372   9.290  10.936  15.120  1.6960  0.2044 -0.3525
   97ETHOX  H1366373   9.163  10.879  14.996 -0.8549  2.4212  0.5784
   97ETHOX   C266374   9.324  11.004  14.930 -0.1388  0.0917 -0.0391
   97ETHOX  H2166375   9.253  11.089  14.919 -1.2852 -0.6873  1.0440
   97ETHOX  H2366376   9.339  10.964  14.827 -1.8937  2.1422 -1.1914
   98ETHOX   O166377   9.443  11.054  14.986  0.6134 -0.3327  0.1820
   98ETHOX   C166378   9.471  11.180  14.922 -0.1963 -0.1710 -0.7621
   98ETHOX  H1166379   9.420  11.187  14.824 -0.6174 -1.4424 -0.6656
   98ETHOX  H1366380   9.430  11.247  15.000 -2.0858 -2.1880  0.0756
   98ETHOX   C266381   9.618  11.236  14.924  0.7493 -0.2710  0.8448
   98ETHOX  H2166382   9.653  11.249  15.028 -2.2672 -2.2745  2.2642
   98ETHOX  H2366383   9.599  11.324  14.859 -0.5018  1.0763  2.9365
   99ETHOX   O166384   9.708  11.158  14.844  0.4706 -0.1783  0.0895
   99ETHOX   C166385   9.828  11.225  14.847 -0.3038  0.4253  0.1680
   99ETHOX  H1166386   9.873  11.214  14.948 -1.8853 -0.7718  0.7818
   99ETHOX  H1366387   9.836  11.334  14.824  1.4515  0.3598  0.3522
   99ETHOX   C266388   9.929  11.157  14.740 -0.5405  0.1679  0.0431
   99ETHOX  H2166389   9.912  11.047  14.731  0.0321  0.1782 -1.7041
   99ETHOX  H2366390  10.031  11.189  14.769 -1.2986  0.3512  2.7893
  100ETHOX   O166391   9.897  11.214  14.607  0.4544 -0.7528 -0.1812
  100ETHOX   C166392   9.937  11.127  14.499 -0.6012  0.0520  0.3945
  100ETHOX  H1166393   9.892  11.026  14.511 -2.8025  0.9583  0.2390
  100ETHOX  H1366394   9.904  11.161  14.399  1.9952 -3.8195 -2.0737
  100ETHOX   C266395  10.088  11.113  14.491  0.8208 -0.8041 -0.3575
  100ETHOX  H2166396  10.131  11.215  14.485  4.2274 -1.7881  3.2326
  100ETHOX  H2366397  10.104  11.060  14.395 -0.3083  1.8105 -2.1259
  101PROXS   O166398  10.151  11.050  14.602 -0.7792  0.3732  0.1162
  101PROXS   C166399  10.292  11.044  14.579 -0.6535  0.1882 -0.7732
  101PROXS  H1166400  10.319  10.997  14.483  3.2985  0.3655  0.0951
  101PROXS  H1366401  10.311  11.153  14.566 -0.1188 -0.1153 -2.8960
  101PROXS   C266402  10.378  10.998  14.702  0.0717 -0.2520 -0.2437
  101PROXS  H2166403  10.329  11.046  14.790  0.5394  1.8814 -1.0866
  101PROXS   C366404  10.527  11.056  14.704  0.1095 -0.1551 -0.0983
  101PROXS  H3166405  10.575  11.020  14.611 -0.7318 -0.3096 -0.4874
  101PROXS  H3266406  10.521  11.167  14.704 -1.2818 -0.1801  1.6225
  101PROXS  H3366407  10.589  11.031  14.793 -3.0491 -0.2283  2.2839
  102PROXS   O166408  10.377  10.853  14.716  0.2902 -0.1909  0.1479
  102PROXS   C166409  10.460  10.802  14.818 -0.2040  0.0777 -0.1736
  102PROXS  H1166410  10.489  10.887  14.883 -3.1259  0.5565  0.6136
  102PROXS  H1366411  10.393  10.733  14.874  0.6505 -0.5354  0.1293
  102PROXS   C266412  10.582  10.728  14.755 -0.1455  0.1129 -0.6827
  102PROXS  H2166413  10.640  10.804  14.698  0.8581  0.5488  0.8303
  102PROXS   C366414  10.546  10.608  14.666  0.5097 -0.2354  0.1291
  102PROXS  H3166415  10.501  10.530  14.732 -1.5534  0.3290 -0.5215
  102PROXS  H3266416  10.472  10.650  14.595 -1.7842 -1.5484  1.6044
  102PROXS  H3366417  10.637  10.562  14.621  0.0456 -0.8357 -0.2232
  103PROXR   O166418  10.675  10.695  14.861 -0.5311 -0.2768 -0.9689
  103PROXR   C166419  10.811  10.669  14.814 -0.2660  0.5575 -0.0400
  103PROXR  H1166420  10.817  10.560  14.792  1.9190  0.6508 -0.0558
  103PROXR  H1366421  10.832  10.724  14.720 -0.3401  4.1288  1.8663
  103PROXR   C266422  10.910  10.702  14.920 -0.6548  0.1280 -0.3135
  103PROXR  H2166423  10.882  10.651  15.015  1.7336 -2.3414 -0.8044
  103PROXR   C366424  10.905  10.857  14.943  0.7065  0.3612  0.8004
  103PROXR  H3166425  10.997  10.894  14.991  0.4954  1.2870  0.5130
  103PROXR  H3266426  10.900  10.906  14.843 -0.3731  0.5982  0.9549
  103PROXR  H3366427  10.816  10.892  15.001  0.6891  0.5410  0.6682
  104PROXS   O166428  11.036  10.645  14.882  0.4009 -0.4217  0.4076
  104PROXS   C166429  11.132  10.640  14.984  0.2735  0.4279 -0.2914
  104PROXS  H1166430  11.109  10.716  15.062 -0.3871 -1.0821  1.0486
  104PROXS  H1366431  11.127  10.542  15.035  0.4969  0.6517  0.1652
  104PROXS   C266432  11.278  10.654  14.942  0.7837 -0.3500  0.2751
  104PROXS  H2166433  11.278  10.636  14.832  0.0901  1.6058 -0.0946
  104PROXS   C366434  11.366  10.553  15.004  0.0354  0.3114 -0.2984
  104PROXS  H3166435  11.356  10.545  15.115  0.6624 -1.5831 -0.3397
  104PROXS  H3266436  11.337  10.451  14.972  0.4546 -0.1438  0.7304
  104PROXS  H3366437  11.475  10.572  14.990 -0.2428  1.2662 -1.3201
  105PROXS   O166438  11.323  10.789  14.966  0.1613 -0.0160  0.7225
  105PROXS   C166439  11.293  10.869  14.854 -0.0512  0.5411  0.1214
  105PROXS  H1166440  11.362  10.833  14.776  0.4325  1.7734 -0.0388
  105PROXS  H1366441  11.187  10.844  14.830 -0.6461  1.2313  1.8537
  105PROXS   C266442  11.317  11.015  14.876 -0.2131 -0.2806  0.0647
  105PROXS  H2166443  11.426  11.025  14.894 -0.3222 -1.3682  1.5264
  105PROXS   C366444  11.249  11.078  14.999  0.8778  0.2561 -0.7245
  105PROXS  H3166445  11.294  11.177  15.024 -0.6637  0.8919 -0.3063
  105PROXS  H3266446  11.141  11.096  14.976  0.8682 -0.1593 -1.0188
  105PROXS  H3366447  11.254  11.019  15.093 -1.9628  0.8479 -0.1028
  106PROXS   O166448  11.281  11.087  14.760 -0.2632  0.1106 -0.0095
  106PROXS   C166449  11.330  11.219  14.741 -0.1863 -0.2627 -0.1941
  106PROXS  H1166450  11.301  11.273  14.833  0.0505  0.0893 -0.3241
  106PROXS  H1366451  11.441  11.221  14.737 -0.1838  2.2179 -0.5230
  106PROXS   C266452  11.260  11.285  14.622 -0.3241 -0.0912  0.5483
  106PROXS  H2166453  11.150  11.293  14.629 -0.5011 -0.3225 -1.4686
  106PROXS   C366454  11.285  11.200  14.489 -0.1141 -0.4807 -0.7363
  106PROXS  H3166455  11.259  11.092  14.498  0.2666 -0.6701 -1.7438
  106PROXS  H3266456  11.233  11.245  14.402 -0.1429  1.3406  0.1803
  106PROXS  H3366457  11.394  11.197  14.466 -0.0770 -0.4750 -0.5658
  107PROXR   O166458  11.321  11.415  14.601  0.4443 -0.0931 -0.0645
  107PROXR   C166459  11.231  11.501  14.523 -0.6316 -0.0628 -0.4027
  107PROXR  H1166460  11.226  11.460  14.420  1.3634 -1.3702 -0.0365
  107PROXR  H1366461  11.130  11.495  14.567  0.4584 -2.9565  2.0574
  107PROXR   C266462  11.285  11.647  14.532  0.0811 -0.2914  0.7126
  107PROXR  H2166463  11.386  11.638  14.486 -0.5196  2.1498 -1.2890
  107PROXR   C366464  11.297  11.698  14.672 -0.1536  0.2701 -0.1913
  107PROXR  H3166465  11.199  11.708  14.723 -0.3205  0.7183 -0.5860
  107PROXR  H3266466  11.362  11.633  14.734 -2.9480 -1.0238  1.5676
  107PROXR  H3366467  11.331  11.804  14.664  1.0640  0.0803  1.7976
  108PROXS   O166468  11.201  11.737  14.460 -0.4679 -0.1476  0.1191
  108PROXS   C166469  11.283  11.842  14.396  0.0013  0.0052  0.5729
  108PROXS  H1166470  11.350  11.889  14.471  1.3349 -1.3292  0.2712
  108PROXS  H1366471  11.339  11.789  14.316  0.1346 -0.6675  1.1020
  108PROXS   C266472  11.192  11.955  14.335  0.0165  0.3624 -0.6225
  108PROXS  H2166473  11.109  11.964  14.408  0.7505 -1.8332  0.5768
  108PROXS   C366474  11.127  11.925  14.196 -0.5936  0.4018 -0.0291
  108PROXS  H3166475  11.075  12.018  14.165  0.6341  1.1019 -0.0472
  108PROXS  H3266476  11.209  11.893  14.128 -1.5879 -1.3689 -0.4462
  108PROXS  H3366477  11.059  11.837  14.194  0.6858 -0.6064 -0.9120
  109PROXS   O166478  11.271  12.069  14.315 -0.2259 -0.2276 -0.2065
  109PROXS   C166479  11.290  12.156  14.430 -0.6753 -0.5316  0.3166
  109PROXS  H1166480  11.195  12.199  14.467 -0.3545 -0.4162  1.0097
  109PROXS  H1366481  11.333  12.100  14.515 -1.6484  0.0580  1.2183
  109PROXS   C266482  11.388  12.273  14.397  1.2267 -0.4047  0.4966
  109PROXS  H2166483  11.484  12.243  14.349  0.7267 -2.0022  0.4127
  109PROXS   C366484  11.424  12.351  14.531  0.3096  0.0809  0.8440
  109PROXS  H3166485  11.489  12.440  14.518  1.2662 -0.4114  2.0671
  109PROXS  H3266486  11.324  12.393  14.556  0.2959 -0.0232  0.9659
  109PROXS  H3366487  11.450  12.285  14.617 -0.7009  0.6709  1.6304
  110PROXR   O166488  11.313  12.370  14.321 -0.2156  0.7712 -0.5419
  110PROXR   C166489  11.280  12.341  14.192 -0.2257 -0.5245 -0.5297
  110PROXR  H1166490  11.204  12.259  14.190 -1.2829  0.3903  0.7924
  110PROXR  H1366491  11.246  12.437  14.148  1.0115 -0.5010 -1.4824
  110PROXR   C266492  11.399  12.296  14.102 -0.7666 -0.0120  0.1313
  110PROXR  H2166493  11.440  12.197  14.131  1.1579  0.7884  0.2837
  110PROXR   C366494  11.518  12.398  14.107  0.4297 -0.7356 -0.2793
  110PROXR  H3166495  11.473  12.485  14.056 -0.9054 -2.0869 -1.5178
  110PROXR  H3266496  11.550  12.419  14.211  2.9265 -0.8375 -0.9645
  110PROXR  H3366497  11.609  12.375  14.048  1.9362  1.2898  1.1152
  111PROXS   O166498  11.361  12.299  13.964  0.0944 -1.0344 -0.4822
  111PROXS   C166499  11.284  12.184  13.922  0.1616 -0.0641  0.0720
  111PROXS  H1166500  11.344  12.097  13.956  2.5941  1.3879 -0.2250
  111PROXS  H1366501  11.186  12.181  13.973  0.8951 -1.0128  1.5071
  111PROXS   C266502  11.277  12.182  13.769 -0.8672 -0.2477 -0.6040
  111PROXS  H2166503  11.381  12.182  13.730 -0.1996 -0.2849  1.0628
  111PROXS   C366504  11.211  12.314  13.718 -0.3801  0.4747  0.0116
  111PROXS  H3166505  11.102  12.319  13.740 -0.1074  2.2905  1.1288
  111PROXS  H3266506  11.264  12.398  13.767  2.5751 -1.6571  0.7862
  111PROXS  H3366507  11.226  12.316  13.608  2.3441  0.0549  0.3023
  112PROXR   O166508  11.214  12.061  13.729 -0.7131  0.2411  0.0317
  112PROXR   C166509  11.285  11.934  13.754 -0.2584 -0.2127  0.6676
  112PROXR  H1166510  11.384  11.931  13.705 -1.1766  0.7160 -1.3929
  112PROXR  H1366511  11.292  11.919  13.864 -1.8117  0.0218  0.8330
  112PROXR   C266512  11.200  11.817  13.703 -0.2068  0.4195  0.7950
  112PROXR  H2166513  11.176  11.832  13.596 -1.3845  0.4480  1.0511
  112PROXR   C366514  11.055  11.813  13.770 -0.5673  0.1845  0.1540
  112PROXR  H3166515  10.976  11.742  13.739 -0.0614 -0.5795  0.5725
  112PROXR  H3266516  11.068  11.778  13.875  0.4322  0.0937  0.0159
  112PROXR  H3366517  11.010  11.915  13.772 -2.7195 -0.7181  1.8884
  113PROXS   O166518  11.279  11.702  13.723  0.0356  0.4171 -0.2279
  113PROXS   C166519  11.228  11.584  13.665  0.0448 -0.0699 -0.1646
  113PROXS  H1166520  11.130  11.562  13.713 -1.0263  1.6779 -1.4115
  113PROXS  H1366521  11.197  11.603  13.560  0.4218  0.8149 -0.1248
  113PROXS   C266522  11.320  11.468  13.694  0.2047  0.9142  0.1977
  113PROXS  H2166523  11.337  11.463  13.804  1.8366  1.8232  0.0189
  113PROXS   C366524  11.466  11.475  13.637  1.0262  0.0880 -0.4990
  113PROXS  H3166525  11.507  11.574  13.667 -1.4323  1.0025  0.0471
  113PROXS  H3266526  11.522  11.382  13.661 -0.8339 -1.5092 -2.0503
  113PROXS  H3366527  11.457  11.472  13.527 -1.4588 -1.9131 -0.3346
  114PROXR   O166528  11.271  11.341  13.637  0.1981  0.2937  0.6393
  114PROXR   C166529  11.171  11.270  13.701 -0.6809  0.0706  0.2975
  114PROXR  H1166530  11.214  11.249  13.801 -0.5685  1.7846  0.6436
  114PROXR  H1366531  11.077  11.329  13.706 -0.3317  0.5668  1.3021
  114PROXR   C266532  11.156  11.138  13.630 -0.7799  0.1580  0.6538
  114PROXR  H2166533  11.255  11.088  13.633  0.7209  2.9110  0.0734
  114PROXR   C366534  11.110  11.146  13.486  0.1320 -0.0127  0.2231
  114PROXR  H3166535  11.007  11.187  13.500 -1.3245 -3.6150  1.0026
  114PROXR  H3266536  11.165  11.214  13.418  1.7994 -1.3379  0.1976
  114PROXR  H3366537  11.104  11.044  13.443  1.8953  0.0266 -0.1819
  115PROXR   O166538  11.056  11.062  13.693 -0.0498 -0.3797 -0.0847
  115PROXR   C166539  11.059  10.924  13.658  0.4080 -0.5919  0.0559
  115PROXR  H1166540  11.023  10.910  13.553 -3.0728 -0.2484  1.0683
  115PROXR  H1366541  11.165  10.893  13.657  0.6032 -0.0524 -2.2666
  115PROXR   C266542  10.973  10.848  13.760 -0.0994 -0.1141 -0.1119
  115PROXR  H2166543  10.869  10.888  13.752  0.0425  0.0873 -1.1699
  115PROXR   C366544  11.002  10.872  13.910  0.0358 -0.6136  0.2955
  115PROXR  H3166545  10.932  10.822  13.980 -0.3920  0.4550  0.6469
  115PROXR  H3266546  11.109  10.849  13.928  0.6183  0.3251 -1.7322
  115PROXR  H3366547  10.993  10.981  13.929  0.4287 -0.4348 -0.4840
  116PROXS   O166548  10.963  10.709  13.718  0.2593  0.3160 -0.4040
  116PROXS   C166549  10.860  10.634  13.775  0.2351 -0.0910  0.2595
  116PROXS  H1166550  10.862  10.646  13.885  0.8312  1.5456  0.1002
  116PROXS  H1366551  10.762  10.667  13.735  1.5327  1.7463 -1.6115
  116PROXS   C266552  10.875  10.481  13.734  0.0026 -1.2413  0.0039
  116PROXS  H2166553  10.973  10.441  13.770 -0.0149  0.3294  1.9351
  116PROXS   C366554  10.863  10.474  13.581 -0.7010  0.2905  0.7134
  116PROXS  H3166555  10.941  10.536  13.532  1.4251 -1.3797  1.8381
  116PROXS  H3266556  10.869  10.372  13.537  1.4968  1.2259 -1.4267
  116PROXS  H3366557  10.767  10.524  13.555 -1.2821 -0.8996  0.4925
  117PROXS   O166558  10.782  10.395  13.796 -0.2402 -0.0303 -0.0569
  117PROXS   C166559  10.817  10.360  13.930 -0.2201 -0.2356  0.5167
  117PROXS  H1166560  10.885  10.432  13.980  0.7631  0.3268 -1.5481
  117PROXS  H1366561  10.730  10.361  13.999  1.6448  1.2795  3.0187
  117PROXS   C266562  10.883  10.219  13.936  0.0534 -0.4575  0.7399
  117PROXS  H2166563  10.987  10.217  13.896 -0.4561  0.1008 -0.6873
  117PROXS   C366564  10.788  10.122  13.867  0.0721 -0.1925 -0.1307
  117PROXS  H3166565  10.828  10.115  13.763  0.1565 -0.3022 -0.0906
  117PROXS  H3266566  10.778  10.018  13.904 -2.3847 -0.0512 -0.2229
  117PROXS  H3366567  10.683  10.157  13.864  0.2765  0.4029 -1.5013
  118PROXR   O166568  10.878  10.177  14.073 -0.2932  0.5465 -0.1233
  118PROXR   C166569  10.976  10.078  14.100 -0.4479  0.7841 -0.2428
  118PROXR  H1166570  10.958   9.999  14.024 -1.5881  0.7182  0.0730
  118PROXR  H1366571  11.075  10.125  14.084  0.8455 -2.1213 -1.4458
  118PROXR   C266572  10.974  10.021  14.247  0.4195  0.3540 -0.1807
  118PROXR  H2166573  10.871   9.992  14.275  0.0923  1.6055  0.0121
  118PROXR   C366574  11.023  10.133  14.339 -0.2885 -0.5001 -0.1205
  118PROXR  H3166575  11.009  10.100  14.444  0.4636  2.5475  1.0422
  118PROXR  H3266576  11.131  10.153  14.329 -0.3105  1.2493  2.3314
  118PROXR  H3366577  10.971  10.231  14.331 -0.5700 -0.5163  1.2383
  119PROXR   O166578  11.060   9.907  14.253 -0.2106 -0.6618  0.0921
  119PROXR   C166579  10.994   9.790  14.201  0.5349 -0.1691 -0.0689
  119PROXR  H1166580  10.925   9.759  14.282  1.6619  2.6776  2.1618
  119PROXR  H1366581  10.937   9.816  14.109  0.1043  0.1584  0.2872
  119PROXR   C266582  11.096   9.673  14.165  0.2368 -0.7865  0.7389
  119PROXR  H2166583  11.126   9.633  14.264 -0.5946 -1.6837  0.6326
  119PROXR   C366584  11.218   9.725  14.093 -0.5101 -0.0242  0.4708
  119PROXR  H3166585  11.268   9.797  14.161 -0.8025  1.2086 -0.5895
  119PROXR  H3266586  11.291   9.649  14.056 -0.2911  0.2713  0.2973
  119PROXR  H3366587  11.192   9.784  14.003 -0.1107  0.3142  0.5760
  120PROXS   O166588  11.033   9.571  14.087 -0.1991 -0.3515  0.0071
  120PROXS   C166589  11.120   9.475  14.024 -0.3537  0.2046  0.6607
  120PROXS  H1166590  11.166   9.526  13.936 -0.4581  1.0609  1.0893
  120PROXS  H1366591  11.193   9.455  14.106  1.0869 -0.8375 -0.8007
  120PROXS   C266592  11.039   9.353  13.992  0.0517  0.5122  0.5946
  120PROXS  H2166593  10.958   9.331  14.064 -3.0892 -2.0176 -3.2673
  120PROXS   C366594  11.121   9.228  13.985  0.0054 -0.1731 -0.1028
  120PROXS  H3166595  11.169   9.208  14.084  1.5867  1.0012 -0.5928
  120PROXS  H3266596  11.059   9.140  13.956 -0.0835  0.0269 -0.5178
  120PROXS  H3366597  11.195   9.248  13.905 -1.3139 -0.6081 -1.4640
  121PROXS   O166598  10.974   9.380  13.866 -0.0718  0.1285  0.6937
  121PROXS   C166599  10.853   9.460  13.876 -0.2048 -0.8290 -0.1876
  121PROXS  H1166600  10.814   9.451  13.980  2.9370  0.3403  1.2244
  121PROXS  H1366601  10.902   9.559  13.863 -1.7429  0.1835  1.2563
  121PROXS   C266602  10.742   9.431  13.772  0.1280 -1.2136 -0.5520
  121PROXS  H2166603  10.690   9.336  13.795 -2.4874 -0.2893 -2.1926
  121PROXS   C366604  10.786   9.438  13.631  0.5745  0.7479  0.4877
  121PROXS  H3166605  10.859   9.357  13.614 -0.6887 -0.6320  1.3911
  121PROXS  H3266606  10.694   9.404  13.578  0.0258  1.3515  1.0316
  121PROXS  H3366607  10.825   9.538  13.601  0.0730  0.7551 -0.1681
  122PROXS   O166608  10.647   9.548  13.769  0.0798  0.1139  0.0804
  122PROXS   C166609  10.564   9.564  13.882 -0.4412  0.3095  0.4915
  122PROXS  H1166610  10.508   9.469  13.900  0.5709 -0.5157 -0.6060
  122PROXS  H1366611  10.628   9.591  13.969  0.6622  1.8764 -0.7659
  122PROXS   C266612  10.454   9.672  13.867 -0.9431  0.2024  0.5680
  122PROXS  H2166613  10.409   9.654  13.768  0.3298  1.5138 -0.3045
  122PROXS   C366614  10.521   9.809  13.865 -0.3965 -0.1894  0.0452
  122PROXS  H3166615  10.556   9.834  13.968  1.4705  1.0917 -0.8513
  122PROXS  H3266616  10.613   9.808  13.804  1.2594  1.6091  2.3377
  122PROXS  H3366617  10.447   9.887  13.837  0.1209 -0.5232 -2.4474
  123PROXS   O166618  10.363   9.674  13.976  0.1580 -0.2050  0.2473
  123PROXS   C166619  10.252   9.760  13.952 -0.2226 -0.0342 -0.1625
  123PROXS  H1166620  10.264   9.848  13.886 -0.3662  1.0337  1.1948
  123PROXS  H1366621  10.176   9.704  13.894 -1.5810 -0.3173  1.7836
  123PROXS   C266622  10.187   9.818  14.079  0.4011 -0.4448  0.0659
  123PROXS  H2166623  10.280   9.837  14.138  1.3513 -1.4628 -1.0442
  123PROXS   C366624  10.106   9.707  14.144 -0.2792 -0.1393 -0.5651
  123PROXS  H3166625  10.033   9.752  14.215 -1.0780 -1.0560 -0.7950
  123PROXS  H3266626  10.050   9.657  14.062  0.4018 -0.9725 -0.5367
  123PROXS  H3366627  10.176   9.631  14.185  1.5199  0.4483 -2.3218
  124PROXR   O166628  10.117   9.941  14.056 -0.4338  0.1313 -0.2088
  124PROXR   C166629  10.015   9.946  13.954 -0.3981  0.0682  0.4924
  124PROXR  H1166630  10.063   9.952  13.854 -1.0090 -1.1600  0.1076
  124PROXR  H1366631   9.968   9.846  13.956 -0.5164  0.1230  0.4738
  124PROXR   C266632   9.908  10.042  13.991 -0.4689 -0.6959  0.0767
  124PROXR  H2166633   9.958  10.141  13.994  2.6625 -2.1683  1.1861
  124PROXR   C366634   9.847  10.031  14.135 -0.0791  0.0864 -0.0964
  124PROXR  H3166635   9.771  10.112  14.135  1.6136  1.8373 -3.4312
  124PROXR  H3266636   9.806   9.929  14.148  0.9699 -0.2121  1.1706
  124PROXR  H3366637   9.926  10.062  14.207  2.1450  0.7863 -2.6825
  125PROXS   O166638   9.797  10.037  13.907  0.9366  0.1971 -0.1211
  125PROXS   C166639   9.823  10.112  13.791 -0.0288 -0.0350  0.4327
  125PROXS  H1166640   9.881  10.203  13.817 -2.4482  2.0119 -0.8897
  125PROXS  H1366641   9.884  10.050  13.722 -3.3477 -0.3494 -2.4801
  125PROXS   C266642   9.695  10.153  13.720 -0.2929  0.2027  0.5248
  125PROXS  H2166643   9.631  10.062  13.717 -0.0180  0.0206 -2.3949
  125PROXS   C366644   9.732  10.191  13.576  0.1824 -0.3079 -0.1132
  125PROXS  H3166645   9.797  10.116  13.526  2.2515  1.3472 -0.0882
  125PROXS  H3266646   9.637  10.207  13.521  0.3866 -3.4098 -1.5393
  125PROXS  H3366647   9.793  10.284  13.572  0.3358 -0.4173 -0.3449
  126PROXS   O166648   9.621  10.260  13.786 -0.1461  0.8527  0.4245
  126PROXS   C166649   9.541  10.228  13.898  0.4625 -0.3498  0.6741
  126PROXS  H1166650   9.460  10.156  13.874  0.3001 -0.4396  1.4474
  126PROXS  H1366651   9.601  10.176  13.976  0.9757 -1.7334 -0.5911
  126PROXS   C266652   9.478  10.361  13.953  0.1043 -0.1107 -0.4878
  126PROXS  H2166653   9.430  10.326  14.046  3.1033  0.7422  1.5359
  126PROXS   C366654   9.370  10.425  13.866 -0.0754  0.0824  0.1480
  126PROXS  H3166655   9.417  10.442  13.767 -1.3324 -1.3281 -0.7394
  126PROXS  H3266656   9.290  10.350  13.848 -2.0879  2.1250  0.1069
  126PROXS  H3366657   9.336  10.521  13.910 -1.9702 -0.3884 -0.1987
  127PROXR   O166658   9.579  10.457  13.988  0.2881  0.2805  0.1491
  127PROXR   C166659   9.674  10.422  14.098  0.3698  0.4123  0.4634
  127PROXR  H1166660   9.620  10.401  14.193  0.6896  0.4658  0.6588
  127PROXR  H1366661   9.732  10.331  14.074  0.1425  0.1198  1.0134
  127PROXR   C266662   9.776  10.528  14.120 -0.8695  0.8331  0.7073
  127PROXR  H2166663   9.721  10.624  14.122 -1.2280  0.6468  0.0861
  127PROXR   C366664   9.874  10.529  14.000  0.4225 -0.0570  0.2166
  127PROXR  H3166665   9.942  10.616  14.014  0.6255 -0.1633 -0.0981
  127PROXR  H3266666   9.937  10.439  14.013 -1.9140 -1.5122  2.3543
  127PROXR  H3366667   9.822  10.533  13.902 -0.4377  0.7079  0.6802
  128PROXR   O166668   9.840  10.514  14.244  0.5061 -0.3572 -0.5052
  128PROXR   C166669   9.885  10.639  14.291  0.1152 -0.8896 -0.0911
  128PROXR  H1166670   9.940  10.699  14.216 -0.0357  1.1515  1.3747
  128PROXR  H1366671   9.802  10.711  14.304 -0.0788 -1.0854 -0.2230
  128PROXR   C266672   9.963  10.631  14.427  0.5591  0.0684  0.0069
  128PROXR  H2166673   9.908  10.553  14.484  0.3169  1.1711  1.3352
  128PROXR   C366674   9.968  10.756  14.505 -0.1020  0.2144 -0.3935
  128PROXR  H3166675   9.987  10.726  14.610 -0.3596  1.9032  0.1538
  128PROXR  H3266676  10.058  10.814  14.473  0.2566 -1.2429 -2.2577
  128PROXR  H3366677   9.871  10.810  14.505  0.5038  1.3404  0.6996
  129PROXS   O166678  10.093  10.585  14.403  0.3043 -0.5145 -0.4649
  129PROXS   C166679  10.095  10.439  14.401 -0.4798 -0.1477  0.9114
  129PROXS  H1166680  10.058  10.399  14.498 -0.6170  0.9406  1.3237
  129PROXS  H1366681  10.026  10.404  14.320 -0.0794  0.6709  0.1995
  129PROXS   C266682  10.226  10.384  14.359 -0.5515  0.4919  0.2988
  129PROXS  H2166683  10.310  10.384  14.432 -0.9364  2.2287  0.8101
  129PROXS   C366684  10.288  10.464  14.241 -0.1072 -0.1553 -0.4660
  129PROXS  H3166685  10.367  10.403  14.191 -1.1324 -1.6452 -0.3533
  129PROXS  H3266686  10.210  10.494  14.168  0.0820  0.9863 -0.2124
  129PROXS  H3366687  10.340  10.557  14.272 -0.4858 -0.3127  0.6892
  130PROXS   O166688  10.203  10.248  14.311  0.5765 -0.5765 -0.5796
  130PROXS   C166689  10.153  10.156  14.407 -0.4166  0.6867 -0.1491
  130PROXS  H1166690  10.186  10.194  14.506 -0.1590  1.8485 -0.6570
  130PROXS  H1366691  10.042  10.155  14.403 -0.4198 -2.1260 -1.5389
  130PROXS   C266692  10.206  10.012  14.386  0.7481 -0.4707 -0.5187
  130PROXS  H2166693  10.224   9.995  14.277  2.7092 -2.2016  0.0030
  130PROXS   C366694  10.108   9.910  14.445 -0.9101  0.5409  0.5619
  130PROXS  H3166695  10.005   9.923  14.406 -0.8345  0.6285  0.3935
  130PROXS  H3266696  10.143   9.805  14.435 -1.3364  0.4565 -0.0552
  130PROXS  H3366697  10.102   9.938  14.553  0.1223 -0.7120  0.9648
  131PROXS   O166698  10.335  10.009  14.456  0.1643 -0.1375 -0.5469
  131PROXS   C166699  10.424   9.907  14.416 -0.4012 -0.0574  0.1962
  131PROXS  H1166700  10.476   9.870  14.507 -1.6954  0.4288  1.1745
  131PROXS  H1366701  10.366   9.825  14.369 -2.6843  1.6774 -0.1836
  131PROXS   C266702  10.516   9.953  14.309  0.3352 -0.5950  0.9260
  131PROXS  H2166703  10.453  10.007  14.235  0.6387 -1.1868  0.2255
  131PROXS   C366704  10.594   9.841  14.244 -0.9602 -0.7141 -0.0463
  131PROXS  H3166705  10.529   9.776  14.182  1.1565 -2.0066 -1.0126
  131PROXS  H3266706  10.681   9.879  14.186  0.0794 -0.7677  1.4267
  131PROXS  H3366707  10.639   9.765  14.312 -2.4032 -0.9747  0.6404
  132PROXS   O166708  10.606  10.052  14.366 -0.1718  0.1122  0.2981
  132PROXS   C166709  10.561  10.182  14.336  0.9658 -0.4254  0.4055
  132PROXS  H1166710  10.545  10.191  14.226 -0.0211 -2.9998  0.2522
  132PROXS  H1366711  10.466  10.202  14.390  0.3654 -0.0771 -0.7590
  132PROXS   C266712  10.664  10.277  14.390 -0.3083  0.2437 -0.6426
  132PROXS  H2166713  10.759  10.250  14.339 -1.4929 -0.7800 -2.4435
  132PROXS   C366714  10.675  10.264  14.544  0.0787 -0.2910 -0.4644
  132PROXS  H3166715  10.721  10.168  14.577  0.9107 -1.1913 -3.8484
  132PROXS  H3266716  10.742  10.339  14.591 -0.5523 -0.9650  1.6526
  132PROXS  H3366717  10.574  10.289  14.583 -0.4058  0.0688 -1.8876
  133PROXS   O166718  10.628  10.406  14.350 -0.8671  0.3769 -0.3828
  133PROXS   C166719  10.734  10.495  14.351 -0.7549  0.2932 -1.0015
  133PROXS  H1166720  10.777  10.507  14.452  0.4456 -1.2523 -1.2950
  133PROXS  H1366721  10.813  10.462  14.281 -0.7242  1.5302 -1.5711
  133PROXS   C266722  10.695  10.635  14.304 -0.3338 -0.8295 -0.9241
  133PROXS  H2166723  10.610  10.672  14.365  0.5172  1.7352 -1.1423
  133PROXS   C366724  10.654  10.627  14.153  0.7934  0.5251 -0.1105
  133PROXS  H3166725  10.725  10.565  14.094  0.7894 -1.6395  2.0383
  133PROXS  H3266726  10.563  10.564  14.150  2.3425 -1.9391  1.5972
  133PROXS  H3366727  10.625  10.720  14.100  0.8586  0.6397  0.0531
  134PROXS   O166728  10.802  10.731  14.319 -0.2431 -0.3329  0.5373
  134PROXS   C166729  10.760  10.863  14.302  0.5586 -0.2665  0.0136
  134PROXS  H1166730  10.737  10.882  14.195  0.6834  1.6974  0.3033
  134PROXS  H1366731  10.671  10.890  14.363 -0.2404 -0.7579 -0.9005
  134PROXS   C266732  10.861  10.963  14.364 -0.5309 -0.1252  0.3784
  134PROXS  H2166733  10.957  10.949  14.310 -1.7341 -2.2424 -1.3664
  134PROXS   C366734  10.879  10.934  14.519 -0.0739  0.7957  0.0953
  134PROXS  H3166735  10.781  10.941  14.570 -1.0733 -0.2440 -1.5960
  134PROXS  H3266736  10.928  10.835  14.532 -1.0171  0.1693 -0.9055
  134PROXS  H3366737  10.945  11.019  14.547  1.4546 -0.4140  0.2668
  135PROXS   O166738  10.818  11.095  14.328  0.6749  0.1411  0.1068
  135PROXS   C166739  10.920  11.200  14.338 -0.6697  0.1399  0.2542
  135PROXS  H1166740  10.870  11.280  14.396 -0.1295  1.0416 -0.4983
  135PROXS  H1366741  11.001  11.160  14.404 -1.8159 -0.3318  1.4197
  135PROXS   C266742  10.970  11.257  14.207  0.0363 -0.3868  0.0156
  135PROXS  H2166743  10.882  11.279  14.142  1.0642 -0.9598 -1.6157
  135PROXS   C366744  11.061  11.155  14.141  0.5073  0.1039  0.5271
  135PROXS  H3166745  11.078  11.201  14.041  2.2507  0.4835  0.9700
  135PROXS  H3266746  11.154  11.148  14.200  2.4921 -1.2791 -2.4990
  135PROXS  H3366747  11.020  11.052  14.135  1.0020 -0.0401 -0.8917
  136PROXS   O166748  11.054  11.368  14.232  0.0381  0.3908 -0.7641
  136PROXS   C166749  10.995  11.489  14.213 -0.2571  0.0677 -0.1854
  136PROXS  H1166750  10.887  11.491  14.237  0.3783  0.0993  3.2206
  136PROXS  H1366751  11.046  11.560  14.282 -0.2687 -0.5390  0.4555
  136PROXS   C266752  11.027  11.526  14.069  0.2565 -0.0845  0.9354
  136PROXS  H2166753  10.995  11.437  14.011  0.3547  0.7576 -0.4739
  136PROXS   C366754  11.175  11.556  14.047 -0.2942  0.2875  0.2474
  136PROXS  H3166755  11.237  11.476  14.095 -1.8768  0.4448  2.7004
  136PROXS  H3266756  11.208  11.583  13.944  0.3404 -3.6225 -0.7436
  136PROXS  H3366757  11.180  11.650  14.106  0.4544 -1.0510  2.4181
  137PROXS   O166758  10.953  11.637  14.018 -0.5256 -0.3625 -0.5032
  137PROXS   C166759  10.818  11.605  13.977  0.8665 -0.6139  0.2011
  137PROXS  H1166760  10.828  11.583  13.869 -0.7328 -0.7276  0.0496
  137PROXS  H1366761  10.774  11.523  14.038  1.0868 -0.2872  0.8074
  137PROXS   C266762  10.738  11.735  13.981  0.1944 -0.1740 -0.0609
  137PROXS  H2166763  10.793  11.820  13.935 -2.6255  2.5262  1.2420
  137PROXS   C366764  10.718  11.767  14.127  0.3179  0.3594 -0.0219
  137PROXS  H3166765  10.656  11.685  14.171  1.9097 -0.8172  0.1167
  137PROXS  H3266766  10.813  11.776  14.184  0.7156  0.2888 -0.6698
  137PROXS  H3366767  10.654  11.857  14.139  0.7426  0.5797  0.6930
  138PROXR   O166768  10.614  11.725  13.917  0.4952  0.1544  0.0606
  138PROXR   C166769  10.626  11.720  13.776  0.7532 -0.1707  0.1798
  138PROXR  H1166770  10.695  11.801  13.744 -0.7204  1.0088 -0.1340
  138PROXR  H1366771  10.646  11.614  13.751 -1.1772 -0.7820  1.0302
  138PROXR   C266772  10.489  11.751  13.702  0.6184  0.4692 -0.6618
  138PROXR  H2166773  10.459  11.855  13.728 -0.3962  0.4658 -1.7086
  138PROXR   C366774  10.382  11.646  13.762 -0.6562  0.0590  0.0104
  138PROXR  H3166775  10.421  11.542  13.754 -1.8789 -0.3042 -1.6477
  138PROXR  H3266776  10.361  11.666  13.870  1.7272  1.2776  0.3170
  138PROXR  H3366777  10.284  11.667  13.714 -1.7462 -2.6163  0.8959
  139PROXS   O166778  10.507  11.729  13.563 -0.1361  0.1496 -0.3637
  139PROXS   C166779  10.544  11.844  13.493 -0.0780  0.3920 -0.0252
  139PROXS  H1166780  10.498  11.936  13.535 -1.0503  0.3190 -0.9174
  139PROXS  H1366781  10.654  11.857  13.503  0.0619 -0.9871  0.3380
  139PROXS   C266782  10.494  11.823  13.349 -0.2733  0.1551 -0.2358
  139PROXS  H2166783  10.383  11.825  13.342 -0.2200 -0.1692 -1.2522
  139PROXS   C366784  10.542  11.688  13.293  0.1989  0.3018 -0.0539
  139PROXS  H3166785  10.487  11.603  13.339 -0.5730  0.2165 -1.1119
  139PROXS  H3266786  10.524  11.675  13.184  2.7651 -1.0142 -0.4003
  139PROXS  H3366787  10.649  11.672  13.318 -0.2643 -0.8608  1.3302
  140PROXR   O166788  10.554  11.922  13.269  0.3717 -0.5779  0.0807
  140PROXR   C166789  10.517  12.058  13.294 -0.2548 -0.2255  0.2675
  140PROXR  H1166790  10.409  12.066  13.317 -0.7263 -2.2860 -0.9426
  140PROXR  H1366791  10.577  12.102  13.377  1.4348 -1.7654 -0.0559
  140PROXR   C266792  10.541  12.151  13.172 -0.3379  0.3272 -0.3908
  140PROXR  H2166793  10.477  12.108  13.092  1.0107 -0.6268 -0.9908
  140PROXR   C366794  10.690  12.158  13.133  0.1095 -0.2908 -0.1122
  140PROXR  H3166795  10.745  12.230  13.197  0.5691  1.6036 -2.5044
  140PROXR  H3266796  10.740  12.059  13.138  0.5786 -0.1738 -1.9225
  140PROXR  H3366797  10.693  12.199  13.030  1.1609 -1.1172 -0.4266
  141PROXS   O166798  10.502  12.277  13.217  0.1726 -0.3014  0.3924
  141PROXS   C166799  10.477  12.363  13.104  0.1819 -0.4512  0.0198
  141PROXS  H1166800  10.573  12.399  13.063  0.4049 -0.1136  0.8170
  141PROXS  H1366801  10.432  12.297  13.026  0.9620 -0.1270 -0.7175
  141PROXS   C266802  10.371  12.474  13.124  0.5466 -0.3284 -0.3026
  141PROXS  H2166803  10.425  12.553  13.182  0.0446 -0.5179  0.4349
  141PROXS   C366804  10.249  12.428  13.205  0.0508 -0.0927  0.6931
  141PROXS  H3166805  10.164  12.500  13.203 -0.0897 -0.2339 -1.7230
  141PROXS  H3266806  10.204  12.336  13.162 -3.0126  0.1524  3.0102
  141PROXS  H3366807  10.277  12.404  13.310 -3.2818  0.0888  1.7510
  142PROXS   O166808  10.344  12.532  13.000 -0.6885 -0.5911  0.0392
  142PROXS   C166809  10.455  12.616  12.954 -0.5332 -0.4093 -0.5727
  142PROXS  H1166810  10.488  12.684  13.035  2.1549 -2.0405 -0.1622
  142PROXS  H1366811  10.538  12.559  12.907 -1.3118 -0.5306 -1.8323
  142PROXS   C266812  10.403  12.712  12.839 -0.0885  0.1023  0.1691
  142PROXS  H2166813  10.315  12.763  12.884 -1.0471  0.9493 -2.4620
  142PROXS   C366814  10.373  12.638  12.705 -0.1549  0.4877 -0.8151
  142PROXS  H3166815  10.310  12.704  12.642  1.6255  0.6335 -2.5164
  142PROXS  H3266816  10.467  12.616  12.651 -1.3594 -0.2740 -2.6838
  142PROXS  H3366817  10.315  12.548  12.733  2.5316 -0.8221  0.8989
  143PROXS   O166818  10.501  12.804  12.808 -0.3528  0.3124  0.2924
  143PROXS   C166819  10.446  12.931  12.786 -0.7533  0.0667  0.4707
  143PROXS  H1166820  10.370  12.929  12.706 -0.7530 -0.5067  0.4829
  143PROXS  H1366821  10.400  12.960  12.883 -2.8516  0.5387 -0.6150
  143PROXS   C266822  10.564  13.028  12.748  0.6050  0.1110 -1.0516
  143PROXS  H2166823  10.511  13.126  12.754 -1.0412 -0.7833 -0.3846
  143PROXS   C366824  10.633  13.012  12.612 -0.8138  0.2195  0.0918
  143PROXS  H3166825  10.659  12.907  12.587 -1.1483  0.0058  0.6104
  143PROXS  H3266826  10.555  13.034  12.535 -0.4303  0.0300 -0.3525
  143PROXS  H3366827  10.721  13.078  12.593 -1.1285  0.9591  1.0711
  144PROXS   O166828  10.654  13.054  12.854 -0.1454 -0.0962 -0.1615
  144PROXS   C166829  10.737  12.943  12.886 -0.2583 -0.7206 -0.2960
  144PROXS  H1166830  10.685  12.861  12.941 -2.4623  0.1389 -0.9788
  144PROXS  H1366831  10.774  12.895  12.793  0.3415 -1.3884  0.2750
  144PROXS   C266832  10.863  12.988  12.968 -0.5756  0.1246 -0.4780
  144PROXS  H2166833  10.821  13.037  13.058 -0.8531 -3.2776  1.3900
  144PROXS   C366834  10.952  13.081  12.886  0.7280 -0.0861 -0.5905
  144PROXS  H3166835  10.880  13.161  12.860  0.0227 -0.2066  0.8768
  144PROXS  H3266836  11.029  13.135  12.946 -1.2293  2.3101 -0.1011
  144PROXS  H3366837  10.992  13.029  12.797 -1.9269  2.7809 -3.6913
  145PROXR   O166838  10.943  12.875  13.001 -0.4434  0.5014 -0.6558
  145PROXR   C166839  10.900  12.811  13.117 -0.3832  0.1850  0.7375
  145PROXR  H1166840  10.941  12.864  13.205  2.5729 -1.2846  0.3676
  145PROXR  H1366841  10.789  12.805  13.110 -0.5067 -1.2002  2.9796
  145PROXR   C266842  10.947  12.664  13.125  0.1419  0.0761 -0.3774
  145PROXR  H2166843  11.058  12.659  13.130  0.1115 -0.1036  4.0159
  145PROXR   C366844  10.901  12.586  12.998 -0.6312  0.0482 -0.1668
  145PROXR  H3166845  10.948  12.637  12.911 -2.6162  2.1252 -0.1188
  145PROXR  H3266846  10.947  12.485  13.006 -0.9219 -0.0611  0.2186
  145PROXR  H3366847  10.790  12.593  12.993 -0.5313  1.0579 -1.4181
  146PROXS   O166848  10.912  12.607  13.247 -0.2561  0.0934 -0.1563
  146PROXS   C166849  10.972  12.480  13.285  0.5957 -0.3526 -0.3806
  146PROXS  H1166850  10.932  12.408  13.210 -0.3435 -0.7410  0.4825
  146PROXS  H1366851  11.080  12.509  13.287  0.3431  1.0129  4.0467
  146PROXS   C266852  10.924  12.447  13.430  0.4785  0.1593  0.4882
  146PROXS  H2166853  10.813  12.439  13.428  0.4138 -0.1733 -3.6337
  146PROXS   C366854  10.971  12.560  13.526 -0.0351  0.1985 -0.4300
  146PROXS  H3166855  10.926  12.564  13.627 -0.9370  4.2597 -0.8242
  146PROXS  H3266856  11.081  12.554  13.532 -0.0366  0.8735  0.4435
  146PROXS  H3366857  10.941  12.660  13.486  1.8215  1.2398  0.6382
  147PROXR   O166858  10.980  12.323  13.473 -0.3001 -0.4042 -0.1993
  147PROXR   C166859  10.926  12.206  13.410  0.2950  0.3192 -0.0605
  147PROXR  H1166860  10.822  12.234  13.384  0.3154  0.2409 -0.2309
  147PROXR  H1366861  10.981  12.189  13.314 -0.6328 -1.3857 -0.3295
  147PROXR   C266862  10.934  12.080  13.491 -0.5178  0.2328 -0.5156
  147PROXR  H2166863  11.028  12.082  13.550 -1.5958  0.6031  1.2699
  147PROXR   C366864  10.915  11.949  13.404  0.2937 -0.6895 -1.1436
  147PROXR  H3166865  10.937  11.867  13.476  1.5277  0.0925 -0.5928
  147PROXR  H3266866  10.807  11.948  13.378  0.0217  0.4498 -0.1271
  147PROXR  H3366867  10.982  11.952  13.316  0.4056 -3.0226 -1.2175
  148PROXR   O166868  10.828  12.070  13.583  0.2870  0.5881  0.2585
  148PROXR   C166869  10.824  12.166  13.686  0.4733 -0.4450 -0.6555
  148PROXR  H1166870  10.919  12.146  13.740 -0.6750 -1.1288  1.1955
  148PROXR  H1366871  10.816  12.270  13.646 -0.0733  0.3174  1.3003
  148PROXR   C266872  10.695  12.153  13.774 -0.0586 -0.1607  0.3037
  148PROXR  H2166873  10.678  12.046  13.795 -0.0572  0.1326  1.8924
  148PROXR   C366874  10.572  12.207  13.704  0.2037 -0.3463  0.3671
  148PROXR  H3166875  10.494  12.186  13.780  0.1411 -0.1385  0.3611
  148PROXR  H3266876  10.574  12.316  13.685 -2.7536 -0.6452 -2.6231
  148PROXR  H3366877  10.563  12.148  13.611  0.1362 -0.8105  0.6644
  149PROXR   O166878  10.706  12.228  13.892  0.6576  0.4235 -0.2448
  149PROXR   C166879  10.759  12.153  13.999 -0.3293 -0.3466 -0.3755
  149PROXR  H1166880  10.686  12.070  14.015 -1.1686  1.0250  4.0473
  149PROXR  H1366881  10.856  12.110  13.965 -0.9250 -1.1640 -1.1064
  149PROXR   C266882  10.780  12.231  14.134 -0.3880 -0.1172  0.2861
  149PROXR  H2166883  10.681  12.279  14.149 -1.1349 -1.5878  0.2173
  149PROXR   C366884  10.890  12.336  14.109 -0.2948  0.1128  0.3932
  149PROXR  H3166885  10.899  12.406  14.195  0.4865  1.9940 -1.1652
  149PROXR  H3266886  10.986  12.290  14.078 -0.5582 -0.9575  1.0871
  149PROXR  H3366887  10.860  12.398  14.023  0.6483 -0.0191 -0.0301
  150PROXS   O166888  10.810  12.145  14.240  0.7757 -0.3987 -0.2157
  150PROXS   C166889  10.792  12.204  14.373 -0.0631 -0.1656  0.4055
  150PROXS  H1166890  10.874  12.276  14.392  1.3060 -0.2907 -4.0124
  150PROXS  H1366891  10.704  12.272  14.376  0.8734  1.1372 -0.6281
  150PROXS   C266892  10.796  12.089  14.472  1.1302  0.0652 -0.7580
  150PROXS  H2166893  10.884  12.026  14.446  0.5375 -1.1475  0.1091
  150PROXS   C366894  10.674  11.990  14.465 -0.0574 -0.1416 -0.3676
  150PROXS  H3166895  10.667  11.909  14.541  0.2925  1.2647  1.2196
  150PROXS  H3266896  10.580  12.048  14.475 -1.9684 -3.4167  3.4254
  150PROXS  H3366897  10.680  11.931  14.371 -1.0109 -0.3496 -0.3009
  151PROXR   O166898  10.803  12.133  14.606 -0.1568  0.0440  0.1930
  151PROXR   C166899  10.831  12.031  14.706 -0.1592  0.1301  0.6604
  151PROXR  H1166900  10.742  11.992  14.760  1.1997 -1.3667  1.9237
  151PROXR  H1366901  10.892  11.950  14.659  0.2593 -0.1666  1.6976
  151PROXR   C266902  10.919  12.089  14.818 -0.4498  0.2311  0.1205
  151PROXR  H2166903  10.859  12.179  14.844 -1.5323 -0.6964  0.9441
  151PROXR   C366904  11.063  12.137  14.769  0.2994  0.0263 -0.3671
  151PROXR  H3166905  11.051  12.201  14.679  1.3678 -1.5131 -1.6608
  151PROXR  H3266906  11.109  12.190  14.855 -0.8520  0.0278  0.2704
  151PROXR  H3366907  11.130  12.052  14.744 -1.7114 -1.2677 -1.5629
  152PROXR   O166908  10.920  12.004  14.935 -0.0394  0.7524  0.3428
  152PROXR   C166909  10.978  12.062  15.045 -0.4470 -0.2498  0.1156
  152PROXR  H1166910  11.087  12.066  15.025 -0.1288  0.9139  1.9438
  152PROXR  H1366911  10.941  12.165  15.063 -0.1074 -0.1661  0.3389
  152PROXR   C266912  10.954  11.974  15.175 -0.5420  0.3088 -0.6537
  152PROXR  H2166913  11.011  11.881  15.157 -0.9444  0.3666 -2.3751
  152PROXR   C366914  10.810  11.927  15.208 -0.3100 -0.5807 -0.6933
  152PROXR  H3166915  10.751  12.009  15.256 -1.3669 -2.1981  0.9165
  152PROXR  H3266916  10.753  11.887  15.121 -2.3883 -0.4158  0.5171
  152PROXR  H3366917  10.811  11.849  15.287 -0.6460  2.2444  2.3100
  153PROXR   O166918  10.997  12.046  15.293  0.3272 -0.5471 -0.1513
  153PROXR   C166919  11.138  12.052  15.305  0.4598 -0.2090  0.4106
  153PROXR  H1166920  11.184  11.950  15.309  2.4865  0.6859  2.5555
  153PROXR  H1366921  11.187  12.109  15.224 -0.3328  1.2960  0.9606
  153PROXR   C266922  11.175  12.125  15.438 -0.2883  0.7263  0.8924
  153PROXR  H2166923  11.112  12.086  15.522 -1.2271  2.1830  0.8887
  153PROXR   C366924  11.158  12.274  15.436 -0.1715  0.2739 -0.1250
  153PROXR  H3166925  11.186  12.316  15.535  0.2164  0.0301 -0.1311
  153PROXR  H3266926  11.235  12.311  15.365 -1.0437 -1.7659 -2.2843
  153PROXR  H3366927  11.057  12.306  15.402 -0.3698 -0.3988 -0.1736
  154PROXS   O166928  11.312  12.105  15.471 -0.2014  0.3557  0.9945
  154PROXS   C166929  11.328  11.988  15.548  0.0919 -0.2142 -0.1626
  154PROXS  H1166930  11.284  12.016  15.646  0.3266 -0.9948  0.1746
  154PROXS  H1366931  11.271  11.903  15.505  0.5638  0.2548 -1.8237
  154PROXS   C266932  11.475  11.935  15.560 -0.4396 -0.1121 -0.3914
  154PROXS  H2166933  11.508  11.971  15.660 -2.2584 -0.0458  0.2191
  154PROXS   C366934  11.555  11.984  15.436 -0.2918  0.5049 -0.8690
  154PROXS  H3166935  11.664  11.965  15.433 -0.1691  1.2452 -1.8233
  154PROXS  H3266936  11.500  11.932  15.355  0.2439 -1.5685  0.0265
  154PROXS  H3366937  11.539  12.092  15.412 -2.3906 -0.0374 -2.1120
  155PROXR   O166938  11.474  11.792  15.567 -0.3078  0.1276 -0.0120
  155PROXR   C166939  11.586  11.738  15.641  0.0209  0.2150  0.3063
  155PROXR  H1166940  11.678  11.788  15.607 -0.6266 -0.0136 -1.9250
  155PROXR  H1366941  11.568  11.769  15.746 -0.3948  1.2185 -0.0483
  155PROXR   C266942  11.601  11.585  15.627  0.2194 -0.1123 -0.2834
  155PROXR  H2166943  11.501  11.540  15.649 -1.1001  2.1997 -1.1712
  155PROXR   C366944  11.702  11.530  15.733 -0.1822 -0.2266  0.0482
  155PROXR  H3166945  11.655  11.544  15.832 -1.5242  2.2536 -0.8770
  155PROXR  H3266946  11.710  11.420  15.720 -4.0492 -1.2830  4.2071
  155PROXR  H3366947  11.800  11.580  15.715 -0.2225 -0.0525  0.3189
  156PROXS   O166948  11.653  11.542  15.496 -0.0568 -0.3911  0.5272
  156PROXS   C166949  11.561  11.568  15.393 -0.9468  0.6081  0.1349
  156PROXS  H1166950  11.467  11.515  15.422 -1.3147  0.4203 -1.3132
  156PROXS  H1366951  11.553  11.678  15.379  1.9407  0.7697 -0.7131
  156PROXS   C266952  11.613  11.501  15.261  0.2518  0.2512  0.0566
  156PROXS  H2166953  11.609  11.391  15.279 -1.3137  0.0415 -1.3034
  156PROXS   C366954  11.747  11.544  15.201 -0.3482  0.8162 -0.4766
  156PROXS  H3166955  11.826  11.568  15.276 -1.3008 -1.1314  1.2705
  156PROXS  H3266956  11.788  11.466  15.133 -0.1667  1.9516 -1.7151
  156PROXS  H3366957  11.730  11.639  15.146 -1.4431  0.6454 -0.4504
  157PROXS   O166958  11.515  11.528  15.163 -0.0743 -0.4603  1.6379
  157PROXS   C166959  11.381  11.477  15.163  0.4394  0.3202 -0.3021
  157PROXS  H1166960  11.387  11.368  15.144  1.6163  0.8750 -4.0349
  157PROXS  H1366961  11.331  11.490  15.262  1.1326 -2.3665  0.4578
  157PROXS   C266962  11.290  11.542  15.051  0.2821  0.8042  0.6344
  157PROXS  H2166963  11.341  11.546  14.953 -2.5201  0.1923 -0.9741
  157PROXS   C366964  11.240  11.684  15.083  0.2476 -0.0873  0.1729
  157PROXS  H3166965  11.166  11.677  15.165 -0.3322 -1.6270 -0.4493
  157PROXS  H3266966  11.322  11.752  15.116  0.2974 -0.3410  0.5740
  157PROXS  H3366967  11.195  11.743  15.001  1.6192 -1.1323 -1.3918
  158PROXR   O166968  11.171  11.466  15.041 -0.3878 -0.0347  0.6847
  158PROXR   C166969  11.102  11.482  14.916 -0.2164 -0.1066 -0.4061
  158PROXR  H1166970  11.108  11.586  14.877 -0.2627 -0.0544 -0.2726
  158PROXR  H1366971  11.165  11.412  14.856 -1.0296  0.6089 -2.1660
  158PROXR   C266972  10.960  11.434  14.931  0.6600 -0.2562 -0.1468
  158PROXR  H2166973  10.913  11.493  15.012  0.2335 -1.2142  0.3196
  158PROXR   C366974  10.937  11.286  14.970  0.9441 -0.0882 -0.1160
  158PROXR  H3166975  10.831  11.259  14.992  0.9948 -0.1625  0.0392
  158PROXR  H3266976  10.984  11.212  14.903  0.0447  0.1288 -1.0170
  158PROXR  H3366977  10.975  11.267  15.073 -1.3021 -3.5340  0.2676
  159PROXR   O166978  10.901  11.457  14.800 -0.1629 -0.3089  0.0066
  159PROXR   C166979  10.766  11.462  14.808  0.5437 -0.0035  0.0732
  159PROXR  H1166980  10.729  11.359  14.827  1.6185 -0.6057 -0.9540
  159PROXR  H1366981  10.734  11.536  14.885 -1.0140  1.2906 -1.7290
  159PROXR   C266982  10.709  11.508  14.672  0.0885 -0.5630  0.4493
  159PROXR  H2166983  10.727  11.420  14.607  0.0269 -1.1292  1.1824
  159PROXR   C366984  10.789  11.627  14.621 -0.0484  0.1761  0.3246
  159PROXR  H3166985  10.899  11.610  14.617 -0.2311 -1.2149  0.4534
  159PROXR  H3266986  10.757  11.655  14.519 -2.0373 -2.6306  0.0537
  159PROXR  H3366987  10.777  11.716  14.686 -0.8461 -0.4047  1.0096
  160PROXS   O166988  10.566  11.532  14.690 -0.0371  0.4672  0.0895
  160PROXS   C166989  10.506  11.597  14.576  0.4568 -0.4321 -0.2406
  160PROXS  H1166990  10.548  11.700  14.572  0.2916 -0.3544 -0.0174
  160PROXS  H1366991  10.524  11.545  14.480  2.2795  0.1033 -0.2268
  160PROXS   C266992  10.357  11.624  14.602 -0.0369  0.1085  0.5655
  160PROXS  H2166993  10.352  11.681  14.698 -0.5750  0.7921  0.1411
  160PROXS   C366994  10.281  11.490  14.612  0.2511 -0.2283 -0.4133
  160PROXS  H3166995  10.286  11.435  14.516  0.8755  0.4454 -0.7804
  160PROXS  H3266996  10.324  11.432  14.696 -1.9391 -0.3178  0.6994
  160PROXS  H3366997  10.175  11.506  14.640  0.6210  0.8744  0.4190
  161PROXR   O166998  10.298  11.705  14.497  0.1551 -0.3193 -0.0534
  161PROXR   C166999  10.302  11.845  14.531 -0.1276 -0.2600 -0.6225
  161PROXR  H1167000  10.262  11.866  14.633  2.1216 -1.3411  0.5607
  161PROXR  H1367001  10.408  11.878  14.538 -0.2815 -0.0072  1.1521
  161PROXR   C267002  10.230  11.916  14.419 -0.2459 -0.6036 -0.0026
  161PROXR  H2167003  10.147  11.855  14.379 -2.0953  0.7802  1.5508
  161PROXR   C367004  10.328  11.945  14.299 -0.1200  0.0164 -0.0405
  161PROXR  H3167005  10.274  11.989  14.212 -0.1862 -0.2809 -0.1525
  161PROXR  H3267006  10.418  12.004  14.322  1.0045 -0.8973 -1.8660
  161PROXR  H3367007  10.371  11.852  14.257  0.5192 -0.2176  1.1113
  162PROXR   O167008  10.171  12.038  14.468  0.2153  0.2545 -0.0964
  162PROXR   C167009  10.081  12.093  14.368 -0.3624 -0.4870  0.0229
  162PROXR  H1167010  10.109  12.080  14.262 -0.9593 -1.3010 -0.0434
  162PROXR  H1367011   9.987  12.034  14.370  0.7990 -2.4556  2.3503
  162PROXR   C267012  10.047  12.239  14.387 -0.4161  0.3018  0.4000
  162PROXR  H2167013  10.138  12.297  14.364 -0.6489  0.7210  0.5313
  162PROXR   C367014  10.013  12.269  14.531  0.1886  0.1385 -0.3538
  162PROXR  H3167015   9.927  12.212  14.570 -1.3003  4.0432  2.8159
  162PROXR  H3267016  10.095  12.231  14.596 -2.2989 -1.5559  2.0298
  162PROXR  H3367017   9.996  12.376  14.557  1.0519  0.3261 -0.5142
  163PROXS   O167018   9.950  12.283  14.290  0.2026  0.5170 -0.1074
  163PROXS   C167019   9.964  12.423  14.255 -0.1401  0.0002 -0.0934
  163PROXS  H1167020   9.956  12.477  14.351 -0.0099  0.4189 -0.3178
  163PROXS  H1367021  10.064  12.459  14.222  0.3080 -1.5861 -0.6032
  163PROXS   C267022   9.854  12.452  14.152  0.1861 -0.4155  0.2642
  163PROXS  H2167023   9.754  12.453  14.199  0.1788 -1.3466  0.2864
  163PROXS   C367024   9.846  12.343  14.039 -0.0640  0.0639 -0.2509
  163PROXS  H3167025   9.805  12.254  14.091  0.0996 -0.3407 -0.8036
  163PROXS  H3267026   9.776  12.365  13.956 -1.9967 -1.1732  0.9599
  163PROXS  H3367027   9.947  12.320  14.000  0.5637 -1.7454  2.2064
  164PROXR   O167028   9.875  12.575  14.089  0.0636  0.3097 -0.1851
  164PROXR   C167029   9.842  12.678  14.174 -0.1925  0.1683 -0.5812
  164PROXR  H1167030   9.743  12.673  14.226 -0.9932 -0.2217 -2.0899
  164PROXR  H1367031   9.930  12.684  14.241 -0.4348  0.5548 -0.2917
  164PROXR   C267032   9.836  12.808  14.088 -0.7038 -0.3215 -0.0765
  164PROXR  H2167033   9.757  12.790  14.011 -1.3677 -1.8262  0.9109
  164PROXR   C367034   9.966  12.849  14.022 -0.2800 -0.1627 -0.8715
  164PROXR  H3167035  10.008  12.777  13.948 -0.0728 -1.0905  0.1207
  164PROXR  H3267036   9.962  12.948  13.971  1.4180  0.4450  0.1105
  164PROXR  H3367037  10.039  12.862  14.104 -2.4671 -2.3539  1.5950
  165PROXR   O167038   9.778  12.911  14.171  0.1356 -0.2869  0.6168
  165PROXR   C167039   9.637  12.923  14.153 -0.6914 -0.7343 -0.5542
  165PROXR  H1167040   9.623  12.957  14.048  2.6490  1.1930 -0.5192
  165PROXR  H1367041   9.583  12.826  14.164 -1.6624 -0.1598 -0.0762
  165PROXR   C267042   9.574  13.026  14.240 -0.4029 -0.2004 -0.5325
  165PROXR  H2167043   9.626  13.123  14.229  2.3609 -1.7746 -2.4915
  165PROXR   C367044   9.602  12.991  14.384 -0.1263  0.3573 -0.6094
  165PROXR  H3167045   9.712  12.984  14.404  0.2658  2.6858 -1.6187
  165PROXR  H3267046   9.553  13.050  14.464 -1.4405 -3.6893  1.8776
  165PROXR  H3367047   9.551  12.895  14.407  0.9051  0.4429  2.4277
  166ETHOX   O167048   9.434  13.024  14.216  0.2531  0.5350  0.3590
  166ETHOX   C167049   9.376  13.141  14.263  0.1661 -0.1998 -0.3613
  166ETHOX  H1167050   9.336  13.183  14.168 -1.8146 -1.6906 -0.2445
  166ETHOX  H1367051   9.450  13.217  14.296  1.4728 -1.6309  0.1330
  166ETHOX   C267052   9.265  13.128  14.370 -0.3283 -0.0226  0.1630
  166ETHOX  H2167053   9.233  13.232  14.395  1.1314 -0.0905  2.6566
  166ETHOX  H2367054   9.294  13.082  14.467 -3.7643 -0.2437  1.2232
  167ETHOX   O167055   9.146  13.058  14.326 -0.1344  0.0272  0.6285
  167ETHOX   C167056   9.054  13.033  14.434 -0.7184 -0.3860  0.3234
  167ETHOX  H1167057   9.089  12.987  14.529 -2.0194  2.1871  2.2084
  167ETHOX  H1367058   9.007  13.131  14.458 -1.6836 -0.8090  0.1961
  167ETHOX   C267059   8.936  12.966  14.368 -0.0595 -0.4348 -1.0613
  167ETHOX  H2167060   8.921  13.032  14.280  3.3849  2.4599  0.2912
  167ETHOX  H2367061   8.853  12.965  14.442  0.4683  0.9019 -0.4185
  168ETHOX   O167062   8.979  12.833  14.326  0.3004 -0.4195  0.1478
  168ETHOX   C167063   8.878  12.744  14.277  0.0511  0.2095  0.0717
  168ETHOX  H1167064   8.827  12.802  14.197 -0.5928  0.9332  0.9928
  168ETHOX  H1367065   8.808  12.708  14.354  1.0300 -0.0360  0.8633
  168ETHOX   C267066   8.941  12.624  14.211 -0.2909  0.2003  0.0813
  168ETHOX  H2167067   9.026  12.669  14.156  1.2995 -1.8922  0.7127
  168ETHOX  H2367068   8.878  12.579  14.132  1.7027  2.0732 -2.7635
  169ETHOX   O167069   8.990  12.523  14.300  0.9593 -0.3451  0.1076
  169ETHOX   C167070   9.000  12.392  14.241  0.3273 -0.5528  0.3019
  169ETHOX  H1167071   9.030  12.324  14.323  1.5160 -2.9195 -1.9179
  169ETHOX  H1367072   8.901  12.356  14.205  0.7791 -0.5987 -0.9407
  169ETHOX   C267073   9.118  12.380  14.138  0.6004 -0.4919  0.0306
  169ETHOX  H2167074   9.117  12.463  14.064 -0.3488 -0.7543 -0.2811
  169ETHOX  H2367075   9.114  12.285  14.081  1.0715 -0.3812 -0.1903
  170ETHOX   O167076   9.243  12.376  14.209 -0.0897 -0.6846  0.2104
  170ETHOX   C167077   9.343  12.394  14.108 -0.0013  0.3580  0.2084
  170ETHOX  H1167078   9.319  12.495  14.068  0.7700  0.9602  1.2126
  170ETHOX  H1367079   9.346  12.318  14.027  4.2657 -0.7431  1.1164
  170ETHOX   C267080   9.477  12.400  14.168 -0.6351 -0.3007  0.0402
  170ETHOX  H2167081   9.485  12.459  14.262  2.7239 -2.9404  1.6494
  170ETHOX  H2367082   9.537  12.463  14.098  2.5357 -1.0978  1.8429
  171ETHOX   O167083   9.532  12.269  14.187 -0.1389 -0.4354 -0.2212
  171ETHOX   C167084   9.532  12.244  14.328 -0.1630 -0.4919 -0.0331
  171ETHOX  H1167085   9.581  12.326  14.385 -2.2531  1.1569 -0.5072
  171ETHOX  H1367086   9.430  12.225  14.368  0.6874 -5.7543  0.3586
  171ETHOX   C267087   9.608  12.115  14.354 -0.2255  1.1240  0.4899
  171ETHOX  H2167088   9.642  12.109  14.460 -2.4278  1.4909  1.2673
  171ETHOX  H2367089   9.697  12.116  14.288  0.0228  0.9896  0.8169
  172ETHOX   O167090   9.525  12.002  14.329 -0.3367  0.0834  0.2766
  172ETHOX   C167091   9.598  11.893  14.277 -0.4853  0.3746 -0.3413
  172ETHOX  H1167092   9.679  11.868  14.349 -1.6198 -0.7777  0.5965
  172ETHOX  H1367093   9.642  11.906  14.176  0.4017 -0.2140 -0.0511
  172ETHOX   C267094   9.515  11.762  14.278  0.2106 -0.3227 -0.4710
  172ETHOX  H2167095   9.471  11.744  14.378 -1.6294  2.3290 -0.6897
  172ETHOX  H2367096   9.587  11.679  14.259  1.2433  0.1847  1.0609
  173ETHOX   O167097   9.415  11.752  14.176  0.3720  0.2513 -0.3694
  173ETHOX   C167098   9.318  11.650  14.205  0.5210 -0.5354 -0.4499
  173ETHOX  H1167099   9.366  11.552  14.227  0.0959 -0.5627  0.4147
  173ETHOX  H1367100   9.267  11.679  14.299  0.5676  3.2386 -1.4487
  173ETHOX   C267101   9.199  11.637  14.116  0.4020 -0.7713  0.2841
  173ETHOX  H2167102   9.153  11.737  14.108 -0.0911 -1.0110  0.0703
  173ETHOX  H2367103   9.231  11.599  14.017 -0.6465 -1.4229  0.1803
  174ETHOX   O167104   9.113  11.538  14.172  0.0400  0.0577 -0.3977
  174ETHOX   C167105   8.977  11.560  14.116 -0.2393  0.1317  0.0020
  174ETHOX  H1167106   8.918  11.648  14.148 -0.6445  0.8783 -2.5363
  174ETHOX  H1367107   8.979  11.558  14.005 -0.6436  0.5909 -0.0114
  174ETHOX   C267108   8.898  11.439  14.172  0.0962 -0.2268 -0.2831
  174ETHOX  H2167109   8.870  11.452  14.278  0.4631  0.1380 -0.2318
  174ETHOX  H2367110   8.963  11.350  14.187  3.6768  2.2655  0.0970
  175ETHOX   O167111   8.786  11.387  14.105  0.5824 -0.4877  0.3888
  175ETHOX   C167112   8.681  11.477  14.143 -0.1939  0.2154  0.9866
  175ETHOX  H1167113   8.670  11.474  14.254 -0.7388 -3.0710  0.9286
  175ETHOX  H1367114   8.709  11.581  14.117 -0.0531 -0.2047 -0.6160
  175ETHOX   C267115   8.547  11.440  14.084 -0.1941  0.5710 -0.4988
  175ETHOX  H2167116   8.478  11.460  14.168  1.2873  1.0744  0.6578
  175ETHOX  H2367117   8.541  11.335  14.049 -0.5207 -1.1091  3.9936
  176ETHOX   O167118   8.512  11.514  13.971  0.3207  0.1930  0.5471
  176ETHOX   C167119   8.462  11.645  13.999 -0.2311  0.0122  0.3034
  176ETHOX  H1167120   8.505  11.689  14.092 -0.4526  0.3389  0.2529
  176ETHOX  H1367121   8.503  11.694  13.908  1.2047 -3.3570 -1.0320
  176ETHOX   C267122   8.310  11.653  13.981  0.2284 -0.3637 -0.4980
  176ETHOX  H2167123   8.281  11.615  13.881  1.6976 -1.2147 -0.6153
  176ETHOX  H2367124   8.285  11.760  13.997  1.4283  0.2119 -2.2266
  177ETHOX   O167125   8.251  11.571  14.077 -0.3921  0.2587  0.0844
  177ETHOX   C167126   8.113  11.545  14.042  0.0154 -0.0357  0.2680
  177ETHOX  H1167127   8.100  11.522  13.934  0.6312  1.6393 -0.1886
  177ETHOX  H1367128   8.059  11.636  14.077 -1.7756 -0.2904 -1.6004
  177ETHOX   C267129   8.044  11.438  14.130 -0.4928  0.2773  0.4678
  177ETHOX  H2167130   7.935  11.458  14.122 -0.6119 -0.2539  0.6916
  177ETHOX  H2367131   8.074  11.462  14.234  0.0671 -2.9475  1.1462
  178ETHOX   O167132   8.086  11.308  14.079 -1.0771  0.1105  0.5692
  178ETHOX   C167133   8.037  11.201  14.151  0.0096 -0.3269 -0.2911
  178ETHOX  H1167134   8.065  11.204  14.259  3.8793  2.9781 -1.1382
  178ETHOX  H1367135   7.927  11.189  14.147  0.1751 -1.6712 -1.6435
  178ETHOX   C267136   8.086  11.065  14.098  0.1575 -1.0076  0.3475
  178ETHOX  H2167137   8.082  11.067  13.987 -2.6702 -0.3202  0.3787
  178ETHOX  H2367138   8.020  10.985  14.138 -1.8095  1.1859  1.8266
  179ETHOX   O167139   8.215  11.043  14.159  0.3508  0.0909  0.0001
  179ETHOX   C167140   8.312  11.089  14.072 -0.3415  0.0834  0.3278
  179ETHOX  H1167141   8.304  11.199  14.070 -0.7760  0.0439 -0.7970
  179ETHOX  H1367142   8.286  11.048  13.972  2.8374  0.8443 -0.9502
  179ETHOX   C267143   8.453  11.044  14.107  0.0082  0.8623 -0.0636
  179ETHOX  H2167144   8.518  11.094  14.033  0.7666 -0.1533 -0.1119
  179ETHOX  H2367145   8.449  10.933  14.097  2.5742  0.6739  0.4608
  180ETHOX   O167146   8.490  11.087  14.236 -0.4831  0.1386  0.2213
  180ETHOX   C167147   8.628  11.058  14.265  0.4140 -0.1985 -0.0933
  180ETHOX  H1167148   8.645  10.948  14.270  1.4488 -0.0227  0.7861
  180ETHOX  H1367149   8.694  11.101  14.187  0.0352  2.2026  0.7973
  180ETHOX   C267150   8.661  11.112  14.409  0.7314 -0.2902  0.5982
  180ETHOX  H2167151   8.765  11.084  14.438  0.7735 -1.6329 -0.7022
  180ETHOX  H2367152   8.591  11.065  14.482 -0.0012 -0.1083  0.0317
  181ETHOX   O167153   8.655  11.251  14.419  1.1251 -0.3543 -0.0943
  181ETHOX   C167154   8.618  11.290  14.551 -0.1167  0.1455 -0.2057
  181ETHOX  H1167155   8.672  11.382  14.579  1.4923 -0.9914  0.6066
  181ETHOX  H1367156   8.671  11.216  14.615  1.4514 -0.8186 -2.5216
  181ETHOX   C267157   8.464  11.285  14.571  0.2817  0.1996  0.2023
  181ETHOX  H2167158   8.450  11.240  14.672  0.8698  1.8046  1.0364
  181ETHOX  H2367159   8.416  11.211  14.504 -1.6361 -0.1399  1.8521
  182ETHOX   O167160   8.395  11.408  14.576  0.4750 -0.2755  0.0656
  182ETHOX   C167161   8.391  11.480  14.452  0.4273 -0.4368  0.5480
  182ETHOX  H1167162   8.421  11.404  14.376 -1.6663  0.3252 -1.1632
  182ETHOX  H1367163   8.287  11.512  14.433  1.2601  1.0332 -2.2018
  182ETHOX   C267164   8.474  11.607  14.458 -0.6389 -0.2105 -0.3575
  182ETHOX  H2167165   8.433  11.671  14.539  2.5813 -0.0209  1.2890
  182ETHOX  H2367166   8.470  11.669  14.366  2.2577  0.2696 -0.2555
  183ETHOX   O167167   8.617  11.602  14.496  0.1041 -0.3563  0.9245
  183ETHOX   C167168   8.698  11.710  14.446  0.3047  0.0596 -0.2179
  183ETHOX  H1167169   8.656  11.809  14.475  1.7612  0.0046  2.3719
  183ETHOX  H1367170   8.701  11.710  14.335  2.1565  1.5122 -0.2296
  183ETHOX   C267171   8.833  11.700  14.506  0.6708 -0.2315  0.4295
  183ETHOX  H2167172   8.878  11.607  14.466  0.2575  0.2419 -1.1976
  183ETHOX  H2367173   8.830  11.701  14.618  2.8170 -0.3143  0.5209
  184ETHOX   O167174   8.902  11.815  14.478 -0.0445 -0.1144 -0.9092
  184ETHOX   C167175   9.032  11.795  14.433 -0.5998  0.1253  1.1093
  184ETHOX  H1167176   9.085  11.737  14.512 -0.9928 -0.0328  1.2571
  184ETHOX  H1367177   9.031  11.743  14.335  0.3748  0.1001  1.0984
  184ETHOX   C267178   9.099  11.931  14.412 -0.0510 -1.2996 -0.5078
  184ETHOX  H2167179   9.024  11.984  14.349 -2.9156 -0.3459  3.3580
  184ETHOX  H2367180   9.197  11.939  14.361  1.0132 -1.3926  1.4488
  185ETHOX   O167181   9.110  12.006  14.529  0.3993 -0.3265  0.2978
  185ETHOX   C167182   9.168  12.132  14.508  0.0380 -0.4378  0.1954
  185ETHOX  H1167183   9.277  12.128  14.530  0.1031  1.0132  0.2400
  185ETHOX  H1367184   9.154  12.180  14.408 -1.6817  0.3988  0.7882
  185ETHOX   C267185   9.095  12.223  14.608  0.3489  0.1978 -0.3851
  185ETHOX  H2167186   9.159  12.314  14.611 -1.6144  1.8678 -3.5030
  185ETHOX  H2367187   9.092  12.166  14.703 -2.8203  0.4126 -0.2525
  186ETHOX   O167188   8.964  12.247  14.565 -0.3843 -0.0297  0.2871
  186ETHOX   C167189   8.886  12.324  14.650 -0.4916 -0.8382 -0.5848
  186ETHOX  H1167190   8.931  12.418  14.688  0.1144 -0.9100 -1.0992
  186ETHOX  H1367191   8.802  12.373  14.595  0.0160  2.8322  1.5691
  186ETHOX   C267192   8.836  12.238  14.770  0.0350 -0.3431  0.4025
  186ETHOX  H2167193   8.917  12.183  14.823  0.1499 -2.6302 -1.9301
  186ETHOX  H2367194   8.763  12.167  14.726  0.3327 -1.4670  1.6598
  187ETHOX   O167195   8.773  12.322  14.862  0.9936  0.2650  0.2010
  187ETHOX   C167196   8.745  12.261  14.988  0.3412  0.0926  0.0413
  187ETHOX  H1167197   8.816  12.178  15.009  0.0533  0.4404  2.7863
  187ETHOX  H1367198   8.762  12.330  15.073  1.5100  3.1687 -2.4896
  187ETHOX   C267199   8.604  12.205  15.001 -0.0674  0.1836  0.1296
  187ETHOX  H2167200   8.534  12.290  15.014 -0.8514 -0.4632  0.1855
  187ETHOX  H2367201   8.600  12.155  15.100  0.8537  1.0808  0.6397
  188ETHOX   O167202   8.564  12.118  14.892 -0.4089  0.1257 -0.5065
  188ETHOX   C167203   8.416  12.110  14.890 -0.4186  0.5009  0.0205
  188ETHOX  H1167204   8.395  12.083  14.996 -1.5730  2.4148  0.3195
  188ETHOX  H1367205   8.389  12.016  14.837 -0.0520 -0.2666  1.1505
  188ETHOX   C267206   8.326  12.219  14.845 -0.3597  0.2230  0.7442
  188ETHOX  H2167207   8.234  12.166  14.813  0.0555  0.0241 -0.1547
  188ETHOX  H2367208   8.368  12.266  14.753  0.1760 -0.1564  0.7879
  189ETHOX   O167209   8.285  12.322  14.937 -0.0597  0.5103 -0.2739
  189ETHOX   C167210   8.219  12.425  14.870 -0.0216 -0.5076 -0.0091
  189ETHOX  H1167211   8.198  12.511  14.938 -1.3805 -0.5838 -0.2913
  189ETHOX  H1367212   8.281  12.469  14.789 -0.4045  0.2045  0.0736
  189ETHOX   C267213   8.071  12.406  14.817  0.2729  0.4109 -0.3372
  189ETHOX  H2167214   8.065  12.319  14.749 -4.7174  0.6502 -0.5492
  189ETHOX  H2367215   8.045  12.501  14.767 -1.9081  0.9431  1.6078
  190ETHOX   O167216   7.978  12.384  14.928 -0.5487 -0.3011  0.0505
  190ETHOX   C167217   7.924  12.251  14.918  0.0877  0.0984  0.1724
  190ETHOX  H1167218   8.001  12.172  14.906 -0.1070  0.0950 -1.2347
  190ETHOX  H1367219   7.853  12.244  14.833  0.7764 -1.6591 -0.2973
  190ETHOX   C267220   7.842  12.230  15.045 -0.4240  0.1467  0.3287
  190ETHOX  H2167221   7.778  12.139  15.048  1.2901 -1.2104 -1.1885
  190ETHOX  H2367222   7.768  12.312  15.052 -0.3662  0.2169  0.1044
  191ETHOX   O167223   7.915  12.214  15.173 -0.5605  0.2608  0.3101
  191ETHOX   C167224   7.820  12.178  15.274  0.2161  0.1200  0.1532
  191ETHOX  H1167225   7.739  12.254  15.274  0.2556  0.1700 -0.6118
  191ETHOX  H1367226   7.771  12.081  15.252  0.5237 -0.0976  0.4345
  191ETHOX   C267227   7.887  12.193  15.415 -0.7943  0.5382  0.2132
  191ETHOX  H2167228   7.812  12.221  15.492  0.0823 -1.8553  2.0924
  191ETHOX  H2367229   7.980  12.254  15.418 -0.8490  0.6491 -0.3236
  192ETHOX   O167230   7.923  12.066  15.460  0.1265  0.1736  0.1125
  192ETHOX   C167231   7.972  12.072  15.593 -0.1231  0.0681 -0.5506
  192ETHOX  H1167232   7.968  11.967  15.629  0.6733  0.1305 -0.2727
  192ETHOX  H1367233   7.896  12.123  15.656  0.8403  1.3462 -0.3969
  192ETHOX   C267234   8.113  12.126  15.623 -0.0565 -0.0310  0.1827
  192ETHOX  H2167235   8.120  12.109  15.733  1.2525 -1.5091 -0.0875
  192ETHOX  H2367236   8.109  12.233  15.594 -0.3834 -0.7158 -2.5571
  193ETHOX   O167237   8.215  12.046  15.560  0.1312  0.3548 -0.0419
  193ETHOX   C167238   8.278  12.126  15.460 -0.1040 -0.2125  0.3491
  193ETHOX  H1167239   8.200  12.179  15.400 -2.1132 -1.9573  1.2812
  193ETHOX  H1367240   8.332  12.212  15.506  0.3210  0.4275 -1.2814
  193ETHOX   C267241   8.373  12.048  15.372 -0.1107 -0.3321 -0.4838
  193ETHOX  H2167242   8.441  11.984  15.432 -0.7864 -1.2331 -0.6518
  193ETHOX  H2367243   8.440  12.111  15.311  0.9403  0.3248  1.2631
  194ETHOX   O167244   8.296  11.961  15.288 -0.2220 -0.4057  0.1542
  194ETHOX   C167245   8.369  11.870  15.205 -0.3708 -0.3213 -0.3752
  194ETHOX  H1167246   8.437  11.811  15.270  1.7752  0.2063 -2.0137
  194ETHOX  H1367247   8.434  11.929  15.136 -1.6435  0.4422 -0.9807
  194ETHOX   C267248   8.280  11.785  15.121 -0.0511  0.7270  0.6101
  194ETHOX  H2167249   8.189  11.743  15.169 -0.5202 -2.4188 -2.6329
  194ETHOX  H2367250   8.346  11.696  15.110 -1.4824 -0.4607  1.2840
  195ETHOX   O167251   8.239  11.843  14.997  0.1262  0.3168 -0.4449
  195ETHOX   C167252   8.202  11.744  14.898  0.0214 -0.4789  0.3697
  195ETHOX  H1167253   8.147  11.657  14.939 -1.1745  0.4499  0.8062
  195ETHOX  H1367254   8.142  11.794  14.818  1.6311  2.3428  0.7969
  195ETHOX   C267255   8.323  11.687  14.828 -0.2789  0.6177 -0.3734
  195ETHOX  H2167256   8.379  11.778  14.796 -1.3361  0.6303 -2.3387
  195ETHOX  H2367257   8.304  11.630  14.735  0.3375  2.4254 -1.6634
  196ETHOX   O167258   8.409  11.601  14.904 -0.5662  0.4061  0.2971
  196ETHOX   C167259   8.546  11.594  14.850  0.0714  0.2649  0.6432
  196ETHOX  H1167260   8.541  11.617  14.742 -1.6659 -2.5545  0.0236
  196ETHOX  H1367261   8.593  11.678  14.906 -0.6212  1.7984 -0.9661
  196ETHOX   C267262   8.611  11.457  14.870 -0.4937  0.0672 -0.1584
  196ETHOX  H2167263   8.707  11.460  14.814 -0.2586  0.9437  0.2694
  196ETHOX  H2367264   8.540  11.376  14.842 -0.5703  0.2284 -0.4359
  197ETHOX   O167265   8.621  11.425  15.011 -0.1875  0.2776  0.2010
  197ETHOX   C167266   8.660  11.292  15.033 -0.5361 -0.3676 -0.1492
  197ETHOX  H1167267   8.591  11.229  14.971 -1.9197 -0.1650  1.1305
  197ETHOX  H1367268   8.763  11.290  14.992 -0.6031  1.1772 -0.4251
  197ETHOX   C267269   8.647  11.244  15.179  0.0086  0.1104  0.0345
  197ETHOX  H2167270   8.540  11.252  15.209  0.6137 -0.3728  2.5113
  197ETHOX  H2367271   8.709  11.315  15.237 -0.4017 -1.5650  2.7332
  198ETHOX   O167272   8.705  11.115  15.202  0.2331  0.4629 -0.0263
  198ETHOX   C167273   8.728  11.098  15.338  1.1209  0.3484 -0.1462
  198ETHOX  H1167274   8.797  11.179  15.370  1.9062  1.0201 -3.2190
  198ETHOX  H1367275   8.628  11.116  15.384  1.7646  3.0147  0.3678
  198ETHOX   C267276   8.775  10.957  15.372 -0.6282  0.5527 -0.2535
  198ETHOX  H2167277   8.807  10.958  15.479 -1.2738 -1.0569 -0.0124
  198ETHOX  H2367278   8.860  10.930  15.306 -1.1489  1.0078 -1.1175
  199ETHOX   O167279   8.668  10.863  15.351 -0.3380  0.3996 -0.2247
  199ETHOX   C167280   8.672  10.762  15.456 -0.2500  0.7737  0.3222
  199ETHOX  H1167281   8.661  10.806  15.558 -1.1716 -0.6173  0.8463
  199ETHOX  H1367282   8.759  10.695  15.443 -1.4749 -0.6862 -0.6591
  199ETHOX   C267283   8.547  10.683  15.434  0.1202  0.0262 -0.4186
  199ETHOX  H2167284   8.538  10.643  15.330 -2.5444 -0.7602  0.0521
  199ETHOX  H2367285   8.459  10.749  15.440 -0.6946 -0.9905 -0.8231
  200ETHOX   O167286   8.528  10.572  15.518 -0.1146  0.0102 -0.0676
  200ETHOX   C167287   8.441  10.473  15.462  0.0165  0.3053 -0.2174
  200ETHOX  H1167288   8.346  10.524  15.438 -1.1072 -2.5125 -2.4423
  200ETHOX  H1367289   8.489  10.428  15.372  0.2336 -0.9738  0.5165
  200ETHOX   C267290   8.408  10.344  15.542  0.5837  0.2746 -0.0253
  200ETHOX  H2167291   8.310  10.316  15.496  0.1270  0.0441  1.0518
  200ETHOX  H2367292   8.404  10.356  15.652 -2.2923 -3.1526  0.4531
  201ETHOX   O167293   8.518  10.247  15.528  0.6337 -0.2505  0.5301
  201ETHOX   C167294   8.480  10.126  15.577  0.4179 -0.1849 -0.1809
  201ETHOX  H1167295   8.502  10.054  15.495  2.1965 -1.2823  1.1794
  201ETHOX  H1367296   8.376  10.136  15.612  0.5805 -0.3378  0.3572
  201ETHOX   C267297   8.569  10.088  15.703  0.0575 -0.3664  0.6357
  201ETHOX  H2167298   8.677  10.108  15.689  0.0253 -0.6698 -0.1298
  201ETHOX  H2367299   8.552   9.979  15.718  1.2252 -0.4236  1.6698
  202ETHOX   O167300   8.515  10.149  15.819 -0.7820  0.4078 -0.0677
  202ETHOX   C167301   8.594  10.132  15.936  0.2707  0.2766 -0.2180
  202ETHOX  H1167302   8.517  10.118  16.015  0.4631  1.1888  0.1357
  202ETHOX  H1367303   8.648  10.034  15.936 -1.5104 -0.7702  1.0932
  202ETHOX   C267304   8.671  10.257  15.986 -0.2038 -0.2338 -0.5784
  202ETHOX  H2167305   8.732  10.233  16.075  0.3728 -0.4259 -1.0184
  202ETHOX  H2367306   8.598  10.338  16.006  0.2371  0.2073 -0.7481
  203ETHOX   O167307   8.773  10.287  15.890  0.2982 -0.6114 -0.1459
  203ETHOX   C167308   8.741  10.391  15.799 -0.2274 -0.1088  0.2545
  203ETHOX  H1167309   8.720  10.478  15.865  0.4337  0.0790  0.2183
  203ETHOX  H1367310   8.655  10.364  15.734 -0.3323  0.6955  0.0436
  203ETHOX   C267311   8.855  10.429  15.695 -0.3429  0.3459 -0.5313
  203ETHOX  H2167312   8.809  10.494  15.618 -2.4274  0.5079  0.7759
  203ETHOX  H2367313   8.907  10.341  15.651  0.0602 -1.5630  3.2740
  204ETHOX   O167314   8.955  10.511  15.756  0.8530  0.3980  0.2810
  204ETHOX   C167315   9.065  10.440  15.801 -0.2576  0.9062  0.8223
  204ETHOX  H1167316   9.034  10.359  15.870 -0.3258  2.0356  2.1665
  204ETHOX  H1367317   9.119  10.403  15.712  0.6926 -0.2888  1.8604
  204ETHOX   C267318   9.168  10.530  15.873  0.0568  0.3838 -0.6549
  204ETHOX  H2167319   9.240  10.457  15.915 -2.0866 -2.3304 -1.4447
  204ETHOX  H2367320   9.114  10.584  15.954 -0.6174 -0.8194 -0.2814
  205ETHOX   O167321   9.218  10.631  15.782  0.2178 -0.7457 -0.2973
  205ETHOX   C167322   9.359  10.616  15.755 -0.7344 -0.9254 -0.1537
  205ETHOX  H1167323   9.376  10.511  15.725  0.8106 -0.7873  0.1298
  205ETHOX  H1367324   9.421  10.625  15.847  0.8470 -1.9708 -1.0657
  205ETHOX   C267325   9.405  10.705  15.642 -0.1879 -0.0424 -0.0499
  205ETHOX  H2167326   9.338  10.690  15.555 -2.0401  1.2578  1.0727
  205ETHOX  H2367327   9.511  10.675  15.624 -0.9197 -2.3657 -0.7708
  206ETHOX   O167328   9.399  10.836  15.705  0.3757  0.6404  0.2122
  206ETHOX   C167329   9.437  10.946  15.617  0.5710 -1.1257  0.2458
  206ETHOX  H1167330   9.516  10.923  15.543  2.5883  0.5432  1.7789
  206ETHOX  H1367331   9.339  10.959  15.565  0.0617 -0.7729  1.2575
  206ETHOX   C267332   9.457  11.087  15.683 -0.2733  0.3152  0.4187
  206ETHOX  H2167333   9.467  11.155  15.595 -0.9289  0.8366  0.7456
  206ETHOX  H2367334   9.371  11.115  15.747  0.6413 -1.3455  2.4695
  207ETHOX   O167335   9.567  11.095  15.777  0.1514 -0.3284 -0.1285
  207ETHOX   C167336   9.692  11.059  15.717  0.6216 -0.0584  0.1139
  207ETHOX  H1167337   9.707  11.120  15.625  2.1303 -0.4232  0.0829
  207ETHOX  H1367338   9.680  10.952  15.691 -2.8231  0.9234 -3.2329
  207ETHOX   C267339   9.826  11.090  15.796  0.6349  0.6112 -0.6771
  207ETHOX  H2167340   9.822  11.196  15.829 -1.4879  0.1373  0.7965
  207ETHOX  H2367341   9.901  11.069  15.717  2.5943  0.0665  1.2142
  208ETHOX   O167342   9.846  11.000  15.905  0.6900  0.4059  0.3606
  208ETHOX   C167343   9.968  11.025  15.970  0.1354  0.7779  0.8941
  208ETHOX  H1167344  10.048  10.985  15.903 -1.2369  1.0901 -1.0383
  208ETHOX  H1367345   9.979  11.135  15.983  0.2736  0.9521 -0.5238
  208ETHOX   C267346   9.970  10.952  16.104  0.1880  0.8238 -0.6809
  208ETHOX  H2167347   9.872  10.960  16.156 -0.1292 -0.2057 -1.0831
  208ETHOX  H2367348  10.047  10.994  16.172  0.0315  0.6662 -0.4033
  209ETHOX   O167349   9.994  10.816  16.074 -0.0249  1.0423  0.2355
  209ETHOX   C167350  10.010  10.733  16.191 -0.6883  0.0675 -0.8146
  209ETHOX  H1167351   9.909  10.732  16.237 -0.6703  0.6620 -0.7558
  209ETHOX  H1367352  10.085  10.777  16.260 -0.1536 -2.0587  0.0497
  209ETHOX   C267353  10.052  10.588  16.168  0.0954 -0.3897 -0.3358
  209ETHOX  H2167354   9.979  10.537  16.102 -0.4130 -0.6070  0.3792
  209ETHOX  H2367355  10.041  10.542  16.269  0.5402  3.7035  1.7973
  210ETHOX   O167356  10.189  10.577  16.120 -0.0558 -1.0399  0.4311
  210ETHOX   C167357  10.190  10.585  15.981  0.4901 -0.2677 -0.4642
  210ETHOX  H1167358  10.120  10.510  15.939 -1.4327 -0.5172  2.8521
  210ETHOX  H1367359  10.161  10.688  15.952  0.5601 -0.1162 -0.0155
  210ETHOX   C267360  10.334  10.550  15.942  0.2465 -0.4199 -0.3522
  210ETHOX  H2167361  10.331  10.536  15.831  1.2054  1.5022 -0.6555
  210ETHOX  H2367362  10.375  10.457  15.987  0.9709 -0.0419 -0.2220
  211ETHOX   O167363  10.428  10.654  15.974  0.5389  0.2525 -0.2481
  211ETHOX   C167364  10.529  10.617  16.067 -0.7463 -0.9608  0.2686
  211ETHOX  H1167365  10.496  10.590  16.169  1.6032  2.0985  1.9960
  211ETHOX  H1367366  10.585  10.536  16.015  2.4960  2.1145 -1.4306
  211ETHOX   C267367  10.644  10.721  16.103  0.5006 -0.0002  0.4620
  211ETHOX  H2167368  10.702  10.673  16.184 -0.5014 -2.0803  0.0038
  211ETHOX  H2367369  10.597  10.814  16.144  0.7238 -0.3938  1.6473
  212ETHOX   O167370  10.726  10.737  15.992 -0.1541 -0.0249 -0.2471
  212ETHOX   C167371  10.697  10.856  15.919 -0.7234  0.3594  0.4322
  212ETHOX  H1167372  10.588  10.855  15.896 -0.7354  2.8534  0.1802
  212ETHOX  H1367373  10.727  10.946  15.976 -2.5045  0.6970  0.9207
  212ETHOX   C267374  10.760  10.859  15.775  0.0952  0.2893  0.1002
  212ETHOX  H2167375  10.707  10.942  15.724 -0.9123  1.1578  2.4200
  212ETHOX  H2367376  10.734  10.763  15.724  0.9367 -0.4443  1.0199
  213ETHOX   O167377  10.897  10.877  15.792 -0.4465  0.9076  0.2064
  213ETHOX   C167378  10.943  10.999  15.736  0.2107  0.1414  0.2209
  213ETHOX  H1167379  10.906  11.023  15.633 -3.0125 -2.0036  0.7597
  213ETHOX  H1367380  10.901  11.084  15.794 -1.5788 -0.8214  0.3999
  213ETHOX   C267381  11.092  10.987  15.733  0.7086  0.4254  1.1266
  213ETHOX  H2167382  11.116  10.906  15.661 -1.2832  2.8209 -2.5393
  213ETHOX  H2367383  11.128  10.953  15.832  0.5588 -1.4461  0.5773
  214ETHOX   O167384  11.158  11.105  15.682  0.0648 -0.0032  0.2040
  214ETHOX   C167385  11.303  11.095  15.688  0.1188 -0.6574  0.4184
  214ETHOX  H1167386  11.328  11.008  15.624 -2.1243 -0.1393 -1.3158
  214ETHOX  H1367387  11.330  11.082  15.795 -1.1439 -2.9197  0.5302
  214ETHOX   C267388  11.378  11.223  15.635  0.2854 -0.0421  0.8867
  214ETHOX  H2167389  11.486  11.203  15.652  0.1133 -1.2503  0.6998
  214ETHOX  H2367390  11.356  11.309  15.701  0.2784  1.1453 -0.6072
  215ETHOX   O167391  11.352  11.262  15.498 -0.0367  0.1469  0.0307
  215ETHOX   C167392  11.230  11.334  15.472  0.2266 -0.4447 -0.0478
  215ETHOX  H1167393  11.155  11.325  15.553  1.3316  0.8743  1.1572
  215ETHOX  H1367394  11.251  11.442  15.460 -0.3539 -0.5007 -2.0119
  215ETHOX   C267395  11.157  11.278  15.352 -0.0151 -0.5573 -0.1651
  215ETHOX  H2167396  11.179  11.169  15.357  1.4669 -0.2041  2.2495
  215ETHOX  H2367397  11.187  11.324  15.255  0.6649  1.3389  0.9057
  216ETHOX   O167398  11.014  11.283  15.363 -0.0553  0.0514 -0.0817
  216ETHOX   C167399  10.962  11.424  15.340 -0.2135  0.1239  0.1783
  216ETHOX  H1167400  10.981  11.443  15.232  0.3362 -2.1760 -0.1887
  216ETHOX  H1367401  11.013  11.499  15.403  0.1234  0.3561 -0.3679
  216ETHOX   C267402  10.812  11.437  15.344 -0.4285  0.1599 -0.1235
  216ETHOX  H2167403  10.757  11.350  15.302 -0.6042  0.0953  0.2364
  216ETHOX  H2367404  10.792  11.532  15.291  2.7824 -0.1860 -2.2123
  217ETHOX   O167405  10.754  11.458  15.472 -0.3209 -0.1166  0.4303
  217ETHOX   C167406  10.777  11.357  15.566 -0.5375  0.0195  0.0943
  217ETHOX  H1167407  10.752  11.260  15.518  0.2955  0.5870 -1.5768
  217ETHOX  H1367408  10.882  11.366  15.602 -0.7740  1.4401  0.4945
  217ETHOX   C267409  10.687  11.378  15.690 -0.0012 -0.4495 -0.0293
  217ETHOX  H2167410  10.689  11.281  15.744  1.7292 -1.1845 -1.3393
  217ETHOX  H2367411  10.581  11.396  15.661  0.9659  0.7890 -3.2078
  218ETHOX   O167412  10.735  11.489  15.771  0.0194 -0.6554 -0.4698
  218ETHOX   C167413  10.663  11.504  15.887  0.3852 -0.3159  1.1397
  218ETHOX  H1167414  10.648  11.402  15.928  1.3829 -1.2470 -0.6670
  218ETHOX  H1367415  10.566  11.553  15.865  0.8463  1.8651  3.5672
  218ETHOX   C267416  10.732  11.600  15.978 -0.0343 -0.3771 -0.2807
  218ETHOX  H2167417  10.648  11.631  16.044  2.0738  1.2105  1.8071
  218ETHOX  H2367418  10.754  11.693  15.921  1.2415  0.3510  1.3450
  219ETHOX   O167419  10.836  11.542  16.052 -0.3092 -0.9152  0.1032
  219ETHOX   C167420  10.894  11.639  16.139 -0.3334  0.0611  0.5439
  219ETHOX  H1167421  10.914  11.738  16.092  1.5397 -0.0078  1.0985
  219ETHOX  H1367422  10.818  11.663  16.216  1.3484  1.3232  1.9013
  219ETHOX   C267423  11.025  11.592  16.205 -0.0255 -0.0747 -0.4683
  219ETHOX  H2167424  11.052  11.677  16.272 -0.3115 -1.7407  1.8685
  219ETHOX  H2367425  11.105  11.583  16.129 -0.6602 -4.1465 -0.8890
  220ETHOX   O167426  11.021  11.464  16.274  0.4101 -1.1531 -0.0877
  220ETHOX   C167427  11.154  11.437  16.316 -0.0468  0.4214 -0.1331
  220ETHOX  H1167428  11.161  11.506  16.403 -1.2716 -0.7869  0.9640
  220ETHOX  H1367429  11.240  11.467  16.251  0.8522  1.1976  1.3556
  220ETHOX   C267430  11.173  11.293  16.367 -0.3132  0.6753  0.6292
  220ETHOX  H2167431  11.099  11.260  16.443  0.3321  1.5006  1.6594
  220ETHOX  H2367432  11.268  11.278  16.424 -0.0919 -1.4679 -0.2390
  221ETHOX   O167433  11.165  11.201  16.252  0.1556 -0.4494 -0.8340
  221ETHOX   C167434  11.036  11.144  16.244  0.7970  0.4468 -0.4144
  221ETHOX  H1167435  11.015  11.098  16.343  0.4335  1.4582 -0.0092
  221ETHOX  H1367436  10.951  11.216  16.241  1.0140  1.0735  3.4159
  221ETHOX   C267437  11.020  11.040  16.137  0.5302 -0.0728 -0.6935
  221ETHOX  H2167438  11.049  11.080  16.038  1.3113  1.4616  0.1084
  221ETHOX  H2367439  10.915  11.008  16.120  0.1372  1.5407 -1.4373
  222ETHOX   O167440  11.096  10.925  16.177  0.4014 -0.3934  0.1667
  222ETHOX   C167441  11.064  10.819  16.085  0.4383  0.1186  0.1225
  222ETHOX  H1167442  10.964  10.774  16.104  0.4413 -0.1144 -0.3831
  222ETHOX  H1367443  11.041  10.850  15.981 -2.6015  1.0325  0.9726
  222ETHOX   C267444  11.168  10.706  16.076  0.8246 -0.0644 -0.7504
  222ETHOX  H2167445  11.116  10.616  16.038 -0.6484  0.0133  0.9524
  222ETHOX  H2367446  11.197  10.672  16.178 -0.3312 -2.6031 -1.1876
  223ETHOX   O167447  11.277  10.739  15.993  0.7348  0.5751  0.1322
  223ETHOX   C167448  11.385  10.649  16.019 -0.3349  0.3873  0.6367
  223ETHOX  H1167449  11.425  10.700  16.110 -0.0802  0.8292  0.2791
  223ETHOX  H1367450  11.361  10.548  16.059  2.1334 -0.1458  0.9634
  223ETHOX   C267451  11.487  10.656  15.898 -0.8514 -0.0687 -0.0618
  223ETHOX  H2167452  11.588  10.627  15.936  0.1667  0.9111 -1.9114
  223ETHOX  H2367453  11.499  10.759  15.861 -4.3278  0.4824  0.0365
  224ETHOX   O167454  11.452  10.571  15.788  0.5595  0.5829 -0.0940
  224ETHOX   C167455  11.558  10.568  15.696  0.0696 -0.1034 -0.1224
  224ETHOX  H1167456  11.571  10.673  15.662  0.5642  0.1278  0.7455
  224ETHOX  H1367457  11.645  10.522  15.746  0.5475 -0.5180 -1.3257
  224ETHOX   C267458  11.506  10.479  15.584 -0.3384  0.5633 -0.1327
  224ETHOX  H2167459  11.494  10.375  15.622 -1.7055  1.5848  2.5279
  224ETHOX  H2367460  11.577  10.481  15.499 -0.7764  0.2526 -0.5087
  225ETHOX   O167461  11.378  10.527  15.539  0.2979  0.0606 -0.3514
  225ETHOX   C167462  11.334  10.468  15.412  0.1924 -0.4273 -0.8596
  225ETHOX  H1167463  11.316  10.358  15.421 -1.3067 -0.0649  1.1341
  225ETHOX  H1367464  11.408  10.493  15.334  0.5961  1.7588  0.1495
  225ETHOX   C267465  11.194  10.520  15.390 -0.2684 -0.9865  0.0664
  225ETHOX  H2167466  11.130  10.493  15.477 -0.6559  2.3252  0.9434
  225ETHOX  H2367467  11.150  10.482  15.296 -0.1895 -1.2347  0.1273
  226ETHOX   O167468  11.210  10.665  15.387 -0.0595 -0.1044  0.0062
  226ETHOX   C167469  11.086  10.721  15.385  0.7045 -0.1987 -0.3127
  226ETHOX  H1167470  11.012  10.660  15.330  1.6943 -0.0960 -1.7886
  226ETHOX  H1367471  11.050  10.725  15.491  1.3330  1.3998 -0.1385
  226ETHOX   C267472  11.084  10.860  15.342 -1.1889 -0.7258 -0.5422
  226ETHOX  H2167473  11.179  10.881  15.288  0.6568 -3.3185  1.4118
  226ETHOX  H2367474  11.099  10.935  15.422  3.4480 -1.6136 -0.2402
  227ETHOX   O167475  10.972  10.891  15.261 -0.1462  0.5292 -0.0296
  227ETHOX   C167476  10.871  10.956  15.342  0.0482 -0.2171 -0.5259
  227ETHOX  H1167477  10.905  11.058  15.371 -1.8376  0.6203 -1.0704
  227ETHOX  H1367478  10.844  10.899  15.433 -2.4870  0.9833 -0.4432
  227ETHOX   C267479  10.734  10.982  15.270  0.4262  0.6903 -0.2255
  227ETHOX  H2167480  10.688  10.881  15.265  0.7178  0.5344  0.1628
  227ETHOX  H2367481  10.758  11.020  15.168  2.0455 -1.9724 -0.9277
  228ETHOX   O167482  10.650  11.077  15.343 -0.1366 -0.2590 -0.1149
  228ETHOX   C167483  10.523  11.087  15.292  0.0410 -0.0866 -0.0424
  228ETHOX  H1167484  10.528  11.157  15.206  2.1039  2.4154  1.9464
  228ETHOX  H1367485  10.492  10.984  15.267  1.2260 -0.3421 -0.5072
  228ETHOX   C267486  10.433  11.156  15.396  0.2143 -0.9306 -0.1272
  228ETHOX  H2167487  10.341  11.190  15.345  1.3773  0.1761 -1.5622
  228ETHOX  H2367488  10.475  11.237  15.460 -3.8206  2.0966 -0.9123
  229ETHOX   O167489  10.393  11.053  15.482  0.0771 -0.4479  0.4767
  229ETHOX   C167490  10.297  11.099  15.577 -0.6384  0.0619  0.1119
  229ETHOX  H1167491  10.195  11.115  15.537 -1.6654 -1.7353  1.8215
  229ETHOX  H1367492  10.333  11.188  15.633  1.2129  0.4713 -1.6124
  229ETHOX   C267493  10.278  10.990  15.684  0.0683 -0.0202  0.4432
  229ETHOX  H2167494  10.216  11.021  15.771  0.9287  1.3824  0.5856
  229ETHOX  H2367495  10.382  10.969  15.716  0.5594  0.9448 -0.4980
  230ETHOX   O167496  10.221  10.881  15.615 -0.4451 -0.4622 -0.3884
  230ETHOX   C167497  10.204  10.770  15.695 -0.8940 -0.0340 -0.5611
  230ETHOX  H1167498  10.299  10.756  15.751 -0.9085  1.5881 -0.1035
  230ETHOX  H1367499  10.127  10.790  15.772 -1.3232 -0.1650 -0.9506
  230ETHOX   C267500  10.165  10.653  15.607  0.3966 -0.9786 -0.5288
  230ETHOX  H2167501  10.084  10.684  15.538 -1.2855  0.0540  1.7967
  230ETHOX  H2367502  10.124  10.575  15.674  1.4005  1.2076  2.8543
  231ETHOX   O167503  10.266  10.608  15.522  0.6126  0.0294 -0.0935
  231ETHOX   C167504  10.213  10.494  15.444  0.0747 -0.4567 -0.6627
  231ETHOX  H1167505  10.111  10.505  15.401  0.4096  1.2861 -1.0593
  231ETHOX  H1367506  10.210  10.411  15.518  1.8839  0.4802  0.5262
  231ETHOX   C267507  10.320  10.461  15.343  0.4510  1.0056  0.2648
  231ETHOX  H2167508  10.421  10.469  15.388  1.4777  0.8965 -1.8998
  231ETHOX  H2367509  10.308  10.531  15.257 -0.3573  2.7760  1.7514
  232ETHOX   O167510  10.302  10.320  15.316  0.4836  0.0462  0.0022
  232ETHOX   C167511  10.384  10.275  15.210  0.2566  0.3728  0.4552
  232ETHOX  H1167512  10.364  10.341  15.123 -0.3919 -0.7039 -0.2345
  232ETHOX  H1367513  10.492  10.266  15.233  0.8520 -2.0937 -2.6680
  232ETHOX   C267514  10.336  10.139  15.156  0.0155  0.2839 -0.0838
  232ETHOX  H2167515  10.405  10.120  15.071  1.9162 -2.8103  1.9473
  232ETHOX  H2367516  10.229  10.133  15.126 -0.9400 -2.4425  3.2017
  233ETHOX   O167517  10.367  10.036  15.252  0.3434 -0.3810 -0.5718
  233ETHOX   C167518  10.325   9.915  15.215 -0.2488  0.3931  0.1787
  233ETHOX  H1167519  10.216   9.901  15.207 -0.5018  2.1818  0.0512
  233ETHOX  H1367520  10.372   9.894  15.116  0.3229 -1.2502  0.7675
  233ETHOX   C267521  10.375   9.807  15.315 -0.4114  0.7222 -0.3866
  233ETHOX  H2167522  10.485   9.820  15.322 -0.2913 -0.8193  1.4668
  233ETHOX  H2367523  10.358   9.702  15.283  0.8591  0.6592 -0.9035
  234ETHOX   O167524  10.305   9.819  15.434 -0.2931  0.1946 -0.3668
  234ETHOX   C167525  10.319   9.695  15.513 -0.5204  0.5517  0.0874
  234ETHOX  H1167526  10.279   9.715  15.615  0.0581  0.4141  0.3504
  234ETHOX  H1367527  10.264   9.610  15.467  0.1775  1.1131 -1.8763
  234ETHOX   C267528  10.466   9.658  15.545  0.1995 -0.3018 -0.0044
  234ETHOX  H2167529  10.461   9.588  15.631 -1.7747 -0.3846 -0.1382
  234ETHOX  H2367530  10.524   9.750  15.567 -0.0779 -0.1982  0.3148
  235ETHOX   O167531  10.536   9.582  15.443  0.3127 -0.7036 -0.3830
  235ETHOX   C167532  10.652   9.527  15.505  0.4800 -0.0606  0.0828
  235ETHOX  H1167533  10.728   9.602  15.538 -1.9808  1.8438  1.7344
  235ETHOX  H1367534  10.638   9.469  15.598  0.3101 -2.2641 -1.2587
  235ETHOX   C267535  10.714   9.410  15.418 -0.5249  0.5331 -0.1644
  235ETHOX  H2167536  10.634   9.336  15.398  1.0776 -0.4871 -3.3571
  235ETHOX  H2367537  10.795   9.371  15.482  0.7069  0.6048 -1.6263
  236ETHOX   O167538  10.767   9.460  15.297 -0.8939 -0.2672 -1.1060
  236ETHOX   C167539  10.835   9.365  15.226  0.4519  0.8548  0.6134
  236ETHOX  H1167540  10.779   9.269  15.223  0.5051  0.7891  1.4890
  236ETHOX  H1367541  10.924   9.320  15.274  0.0897  0.7184  1.1760
  236ETHOX   C267542  10.857   9.423  15.085 -0.4565 -0.7353  0.6009
  236ETHOX  H2167543  10.765   9.472  15.049 -0.1837  0.5672  1.6052
  236ETHOX  H2367544  10.877   9.339  15.015 -0.1329 -1.9253  2.0721
  237ETHOX   O167545  10.963   9.519  15.103  0.2708  0.4147  0.3213
  237ETHOX   C167546  11.004   9.567  14.975  0.5989 -0.3802 -0.1437
  237ETHOX  H1167547  11.042   9.484  14.912 -1.9185 -1.8548  0.1205
  237ETHOX  H1367548  10.919   9.605  14.913  1.7299 -0.0369 -1.5466
  237ETHOX   C267549  11.107   9.670  14.990  0.0870  0.6727 -0.0366
  237ETHOX  H2167550  11.159   9.679  14.892 -0.7099  1.4270 -0.3977
  237ETHOX  H2367551  11.181   9.640  15.067  0.3836  0.5644 -0.3591
  238ETHOX   O167552  11.050   9.801  15.021  0.5560  0.5509  0.5204
  238ETHOX   C167553  11.157   9.892  15.049 -0.1966  0.6010 -0.1523
  238ETHOX  H1167554  11.227   9.892  14.962 -1.5121  1.6237 -1.2468
  238ETHOX  H1367555  11.212   9.841  15.132 -1.4129 -0.9502 -0.2575
  238ETHOX   C267556  11.114  10.040  15.059  0.5153  0.3190 -0.6032
  238ETHOX  H2167557  11.212  10.091  15.071  0.1449  1.0293 -0.5459
  238ETHOX  H2367558  11.059  10.075  15.150  0.6689  2.3842 -1.2614
  239ETHOX   O167559  11.042  10.095  14.955  0.1348 -0.0090  0.2447
  239ETHOX   C167560  11.035  10.234  14.961  0.0803  0.2584 -0.1678
  239ETHOX  H1167561  10.962  10.259  15.041 -0.4649 -2.1961  0.1823
  239ETHOX  H1367562  11.134  10.268  14.998  0.7876 -1.6418 -0.2087
  239ETHOX   C267563  11.000  10.302  14.830  0.7399 -0.5295 -0.1783
  239ETHOX  H2167564  10.913  10.254  14.780 -0.0035  0.5789  0.0192
  239ETHOX  H2367565  10.966  10.405  14.852  0.3225 -0.5320 -0.7689
  240ETHOX   O167566  11.102  10.322  14.732 -0.1879 -0.4710  0.0251
  240ETHOX   C167567  11.167  10.193  14.709  0.1411  0.0439  0.0923
  240ETHOX  H1167568  11.093  10.112  14.691 -0.3308  0.4131  0.3376
  240ETHOX  H1367569  11.224  10.167  14.801  0.0026 -0.5376  0.0133
  240ETHOX   C267570  11.264  10.197  14.595 -0.2184 -0.2580 -0.5390
  240ETHOX  H2167571  11.233  10.260  14.509  0.1634 -0.2657 -0.6848
  240ETHOX  H2367572  11.273  10.091  14.561  0.1981 -0.1125 -0.8937
  241ETHOX   O167573  11.394  10.235  14.630  0.2416  0.1187  0.0173
  241ETHOX   C167574  11.414  10.376  14.613  0.5289  0.1636  0.1152
  241ETHOX  H1167575  11.390  10.404  14.508  1.3117 -0.1265 -0.1536
  241ETHOX  H1367576  11.341  10.426  14.680 -1.8055 -1.2296 -1.2652
  241ETHOX   C267577  11.559  10.431  14.638 -0.3702  0.4403  0.4905
  241ETHOX  H2167578  11.563  10.542  14.639 -1.0241  0.4677  1.1588
  241ETHOX  H2367579  11.631  10.395  14.562 -0.3959  1.2345  0.0870
  242ETHOX   O167580  11.604  10.391  14.772 -0.3264 -0.1572 -0.4040
  242ETHOX   C167581  11.735  10.433  14.796  0.1722 -0.2809  0.3122
  242ETHOX  H1167582  11.737  10.543  14.777 -1.0462 -0.3367 -0.2617
  242ETHOX  H1367583  11.802  10.395  14.715  0.4337 -0.2835  0.5292
  242ETHOX   C267584  11.779  10.401  14.938 -0.4304 -0.1929 -0.0826
  242ETHOX  H2167585  11.888  10.384  14.922  0.4725  4.3434 -0.0703
  242ETHOX  H2367586  11.733  10.304  14.964  0.2760 -0.8518 -1.1831
  243ETHOX   O167587  11.761  10.500  15.042 -0.3928 -0.1631 -0.2935
  243ETHOX   C167588  11.860  10.609  15.033  0.4487  0.3551 -0.3591
  243ETHOX  H1167589  11.874  10.633  14.925 -2.5144  1.3469 -0.5976
  243ETHOX  H1367590  11.811  10.691  15.089 -1.4526 -0.7299 -0.3336
  243ETHOX   C267591  11.978  10.554  15.114  0.0574  0.2383  0.6949
  243ETHOX  H2167592  12.039  10.479  15.059 -0.5280  1.4929 -1.8346
  243ETHOX  H2367593  11.938  10.511  15.208 -0.3298 -1.2252 -0.1085
  244ETHOX   O167594  12.071  10.648  15.148  0.3138 -0.6347  0.2118
  244ETHOX   C167595  12.132  10.712  15.035  0.3930  0.2110  0.3255
  244ETHOX  H1167596  12.090  10.685  14.936 -0.9956  0.8170  0.7254
  244ETHOX  H1367597  12.239  10.681  15.036  0.1618 -0.6252 -0.0332
  244ETHOX   C267598  12.157  10.860  15.070 -0.1901  0.3162  0.5451
  244ETHOX  H2167599  12.232  10.901  14.999 -0.7433  1.2439  0.4745
  244ETHOX  H2367600  12.183  10.882  15.175 -1.4924 -1.6473  1.3434
  245ETHOX   O167601  12.035  10.927  15.051  0.2875  0.5796 -0.1094
  245ETHOX   C167602  12.051  11.073  15.063  0.8111  0.4541  0.3309
  245ETHOX  H1167603  12.083  11.094  15.167  1.6724 -1.1506  0.4282
  245ETHOX  H1367604  12.138  11.098  14.998 -2.3331  2.6561 -3.5257
  245ETHOX   C267605  11.934  11.159  15.014 -0.6087  0.2929 -0.7235
  245ETHOX  H2167606  11.909  11.148  14.906 -1.7029  4.0659 -1.0022
  245ETHOX  H2367607  11.973  11.262  15.026  0.0287 -0.0338  0.1545
  246ETHOX   O167608  11.816  11.160  15.090 -0.3306  0.5110 -0.7988
  246ETHOX   C167609  11.732  11.047  15.052 -0.1219  0.6091  0.5667
  246ETHOX  H1167610  11.779  10.947  15.058 -1.1669 -0.1745 -2.6015
  246ETHOX  H1367611  11.713  11.069  14.945  4.2338  2.1699 -0.1040
  246ETHOX   C267612  11.613  11.059  15.144  0.0915  0.3699  1.1223
  246ETHOX  H2167613  11.541  10.980  15.113  1.4554 -0.0532 -1.1693
  246ETHOX  H2367614  11.562  11.156  15.128 -0.8694 -0.1163  1.1705
  247ETHOX   O167615  11.639  11.023  15.283  0.2729 -0.4511  1.1391
  247ETHOX   C167616  11.516  10.990  15.356  0.3112 -0.7477 -0.6545
  247ETHOX  H1167617  11.508  11.063  15.438  0.6719 -0.3300 -0.9891
  247ETHOX  H1367618  11.424  11.015  15.298 -1.1392 -1.6419  1.1300
  247ETHOX   C267619  11.508  10.844  15.390 -0.2878 -0.6254 -0.0876
  247ETHOX  H2167620  11.416  10.830  15.451 -0.0157 -2.4834 -0.0296
  247ETHOX  H2367621  11.502  10.775  15.303  2.2837 -1.3331  0.2274
  248ETHOX   O167622  11.623  10.804  15.470  0.0806 -0.0322  0.2433
  248ETHOX   C167623  11.730  10.755  15.394 -0.0761  0.7897 -0.4585
  248ETHOX  H1167624  11.688  10.692  15.312  0.0161 -0.2152  0.2462
  248ETHOX  H1367625  11.778  10.841  15.345  2.6102  0.3471  1.2017
  248ETHOX   C267626  11.827  10.668  15.479  0.0602  0.6421 -0.2393
  248ETHOX  H2167627  11.804  10.661  15.587 -0.2711  2.4009 -0.1784
  248ETHOX  H2367628  11.932  10.701  15.464 -0.4255  2.8782  0.8671
  249ETHOX   O167629  11.816  10.526  15.434  0.3933 -0.6754 -0.6466
  249ETHOX   C167630  11.897  10.435  15.509 -0.2445 -0.2189 -0.0812
  249ETHOX  H1167631  12.001  10.466  15.485 -0.2226 -0.1996  0.0414
  249ETHOX  H1367632  11.873  10.445  15.617 -2.8487 -0.7505 -0.5297
  249ETHOX   C267633  11.866  10.290  15.462 -0.5261 -0.6645  0.4220
  249ETHOX  H2167634  11.951  10.242  15.514 -1.8548 -0.3995  2.9719
  249ETHOX  H2367635  11.854  10.287  15.351 -2.1799  2.1037  0.4272
  250ETHOX   O167636  11.749  10.243  15.528  0.2947 -0.0686 -0.4250
  250ETHOX   C167637  11.727  10.108  15.493  0.6708 -0.1429 -0.1110
  250ETHOX  H1167638  11.681  10.093  15.393 -1.3896  0.8438  0.6316
  250ETHOX  H1367639  11.826  10.058  15.496  0.7059 -0.0404  0.6952
  250ETHOX   C267640  11.622  10.050  15.601  0.1176 -0.2114 -0.2771
  250ETHOX  H2167641  11.658  10.063  15.706 -1.0401 -1.8469  0.3524
  250ETHOX  H2367642  11.592   9.946  15.578 -3.1530  0.4686  0.3898
  251ETHOX   O167643  11.493  10.119  15.596 -0.2654  0.0761 -0.0302
  251ETHOX   C167644  11.395  10.060  15.684  0.2278  0.5125  0.1085
  251ETHOX  H1167645  11.426  10.097  15.784  0.5315  0.6138 -0.0214
  251ETHOX  H1367646  11.392   9.949  15.685  1.6784  0.4642  0.3260
  251ETHOX   C267647  11.254  10.111  15.650  0.0958 -0.9362  0.4106
  251ETHOX  H2167648  11.260  10.218  15.621  0.8843 -1.2630 -0.6905
  251ETHOX  H2367649  11.196  10.111  15.745  0.4099 -0.1592  0.6103
  252ETHOX   O167650  11.182  10.029  15.553 -0.0892  0.2291 -0.1366
  252ETHOX   C167651  11.038  10.067  15.544  0.5727 -0.2666  0.7584
  252ETHOX  H1167652  10.999  10.075  15.647 -0.3752  2.1394  0.2654
  252ETHOX  H1367653  11.027  10.167  15.497 -0.6150 -0.9730 -0.5329
  252ETHOX   C267654  10.960   9.961  15.462  0.9153  0.2816  0.2290
  252ETHOX  H2167655  11.002   9.978  15.361  1.6238  0.1855  0.4931
  252ETHOX  H2367656  10.853   9.981  15.445  1.1574 -0.5200 -2.6430
  253ETHOX   O167657  10.984   9.829  15.507 -0.2978  0.1596  0.9122
  253ETHOX   C167658  10.964   9.735  15.400 -0.1725  0.6417  0.5592
  253ETHOX  H1167659  11.007   9.774  15.305  2.3909 -1.3120  0.8340
  253ETHOX  H1367660  10.858   9.721  15.371 -0.3186  0.2411  1.2457
  253ETHOX   C267661  11.029   9.601  15.438 -0.5510  0.2743  0.4739
  253ETHOX  H2167662  11.012   9.532  15.352  1.6540 -1.2854  1.2101
  253ETHOX  H2367663  10.989   9.548  15.527  0.1347 -1.7344 -0.3697
  254ETHOX   O167664  11.171   9.612  15.477  0.1825 -0.6286 -0.0024
  254ETHOX   C167665  11.245   9.498  15.444 -0.2449 -0.4153  0.5760
  254ETHOX  H1167666  11.213   9.462  15.344 -1.7766  1.0950  0.4709
  254ETHOX  H1367667  11.352   9.529  15.445 -0.9025  2.3130  3.5622
  254ETHOX   C267668  11.238   9.384  15.543 -0.0180 -0.3346  0.4069
  254ETHOX  H2167669  11.265   9.421  15.644  0.8832  0.1178  0.0095
  254ETHOX  H2367670  11.322   9.316  15.516 -0.3758 -1.2565  1.5368
  255ETHOX   O167671  11.112   9.306  15.536  0.2766  0.0132  0.2603
  255ETHOX   C167672  11.099   9.210  15.646 -0.4907 -0.1351 -0.2906
  255ETHOX  H1167673  11.101   9.273  15.738  1.0683  2.6142 -2.0327
  255ETHOX  H1367674  11.187   9.143  15.647 -0.0045  0.4288  2.1724
  255ETHOX   C267675  10.966   9.151  15.622  0.1213 -1.1290  0.3759
  255ETHOX  H2167676  10.962   9.110  15.519 -0.5026  1.3898 -0.6813
  255ETHOX  H2367677  10.897   9.239  15.622  0.8179 -0.5756  0.3058
  256ETHOX   O167678  10.918   9.070  15.726  0.2523  0.6042 -0.3530
  256ETHOX   C167679  10.783   9.033  15.706 -0.1557  0.2146  0.6070
  256ETHOX  H1167680  10.748   9.044  15.601  0.6418  3.0081  0.5489
  256ETHOX  H1367681  10.774   8.927  15.737 -0.4406  0.2277  0.5740
  256ETHOX   C267682  10.693   9.111  15.800 -0.1176  0.1193  0.3507
  256ETHOX  H2167683  10.762   9.150  15.878  0.3076  1.9643 -0.8901
  256ETHOX  H2367684  10.624   9.047  15.859 -1.3426  2.4362  1.5593
  257ETHOX   O167685  10.621   9.218  15.743  0.1823  0.1884  0.0999
  257ETHOX   C167686  10.499   9.168  15.688 -0.6744  0.1970  0.1890
  257ETHOX  H1167687  10.453   9.097  15.760  3.4081 -1.7928  1.1132
  257ETHOX  H1367688  10.534   9.108  15.601  0.0836 -0.9414  1.2396
  257ETHOX   C267689  10.403   9.273  15.633 -0.7310  0.2143 -0.6001
  257ETHOX  H2167690  10.310   9.237  15.583 -0.3478 -0.9446 -0.4879
  257ETHOX  H2367691  10.459   9.317  15.548  1.6422 -0.5883  0.4634
  258ETHOX   O167692  10.368   9.380  15.724 -0.2149  0.3727  0.4368
  258ETHOX   C167693  10.294   9.338  15.842  0.6226 -0.0972 -0.1040
  258ETHOX  H1167694  10.203   9.286  15.805  2.2069 -1.9718 -1.6056
  258ETHOX  H1367695  10.353   9.263  15.901  0.1067 -1.7849 -1.6463
  258ETHOX   C267696  10.264   9.469  15.913  0.6445  0.6136  0.8535
  258ETHOX  H2167697  10.209   9.548  15.858  0.0918  0.2746  0.9211
  258ETHOX  H2367698  10.353   9.530  15.941  1.2053 -0.0125  0.4727
  259ETHOX   O167699  10.181   9.434  16.030 -0.3680 -0.2672 -0.1007
  259ETHOX   C167700  10.135   9.554  16.101 -0.2400  0.3176 -0.0767
  259ETHOX  H1167701  10.231   9.596  16.141  0.6287 -0.9209 -0.7911
  259ETHOX  H1367702  10.079   9.628  16.040 -1.6266 -0.6329  0.0165
  259ETHOX   C267703  10.054   9.508  16.223  0.6665 -1.1560 -0.1962
  259ETHOX  H2167704  10.037   9.591  16.295  1.1982 -0.7589 -0.5237
  259ETHOX  H2367705  10.111   9.435  16.285 -0.9969 -0.1283  2.7467
  260ETHOX   O167706   9.933   9.446  16.172 -0.1345 -0.3851 -0.6814
  260ETHOX   C167707   9.869   9.382  16.276 -0.3085  0.8515 -0.1521
  260ETHOX  H1167708   9.934   9.294  16.295 -2.5109 -0.6796  0.6847
  260ETHOX  H1367709   9.863   9.437  16.372 -0.6485 -0.5223  0.6420
  260ETHOX   C267710   9.725   9.338  16.233 -0.6933 -0.6588  0.6356
  260ETHOX  H2167711   9.651   9.420  16.244 -0.9791 -0.7744 -0.3462
  260ETHOX  H2367712   9.694   9.250  16.295 -0.5907  0.1646  1.8991
  261ETHOX   O167713   9.712   9.293  16.104 -0.1299 -0.3979 -0.1742
  261ETHOX   C167714   9.578   9.271  16.075  0.1919  0.2746  0.2615
  261ETHOX  H1167715   9.546   9.188  16.142  1.6165 -1.0335 -0.6023
  261ETHOX  H1367716   9.520   9.366  16.074 -0.9001 -0.3473  1.6133
  261ETHOX   C267717   9.582   9.208  15.935  0.1507  0.3376 -0.4609
  261ETHOX  H2167718   9.479   9.188  15.900 -0.3950 -0.1304  1.3320
  261ETHOX  H2367719   9.624   9.106  15.946 -0.9991 -0.1600 -0.6170
  262ETHOX   O167720   9.656   9.289  15.842  0.4204 -0.0708 -0.0186
  262ETHOX   C167721   9.655   9.234  15.710 -0.0386 -0.2067  0.0112
  262ETHOX  H1167722   9.557   9.257  15.663  0.0409 -2.2913 -1.2728
  262ETHOX  H1367723   9.667   9.124  15.710  0.0518 -0.3163 -4.1235
  262ETHOX   C267724   9.763   9.296  15.621 -0.0761 -0.6924  0.1238
  262ETHOX  H2167725   9.759   9.407  15.631  0.4052 -0.7053  0.4721
  262ETHOX  H2367726   9.749   9.279  15.512  1.0771  1.5582 -0.4390
  263ETHOX   O167727   9.898   9.264  15.649 -0.1444 -0.4596  0.4705
  263ETHOX   C167728   9.999   9.353  15.594 -0.3484 -0.6172 -0.1159
  263ETHOX  H1167729  10.097   9.310  15.624  0.2760  0.9669  0.2068
  263ETHOX  H1367730   9.992   9.452  15.644 -2.4764  0.0725 -1.6316
  263ETHOX   C267731   9.979   9.371  15.443  0.0945  0.6593 -0.0986
  263ETHOX  H2167732   9.914   9.455  15.412 -0.2347  0.9581  1.3756
  263ETHOX  H2367733   9.941   9.277  15.397  0.5456  1.2956 -1.8839
  264ETHOX   O167734  10.108   9.373  15.383 -0.1862 -0.3124  0.1996
  264ETHOX   C167735  10.096   9.419  15.247 -0.5368 -0.1482  0.9478
  264ETHOX  H1167736  10.061   9.524  15.235  1.8316  0.3891 -3.7715
  264ETHOX  H1367737  10.018   9.365  15.189 -1.5452  2.5326 -0.3916
  264ETHOX   C267738  10.235   9.412  15.174  0.5769 -0.5713  0.2495
  264ETHOX  H2167739  10.294   9.462  15.254 -2.2403  1.3959  1.2667
  264ETHOX  H2367740  10.239   9.470  15.080  0.2884 -0.7830  0.1046
  265ETHOX   O167741  10.278   9.275  15.155 -0.1163 -1.0327  0.4249
  265ETHOX   C167742  10.417   9.278  15.111 -0.2422 -0.7573 -0.2396
  265ETHOX  H1167743  10.416   9.330  15.013  1.5370 -1.8614 -0.8942
  265ETHOX  H1367744  10.478   9.334  15.184  0.5425 -0.8362 -0.8181
  265ETHOX   C267745  10.481   9.140  15.088 -0.4324 -0.7060  0.6523
  265ETHOX  H2167746  10.581   9.163  15.047 -0.8305 -0.2759 -0.1032
  265ETHOX  H2367747  10.427   9.082  15.010 -1.2466 -1.6601  1.8636
  265ETHOX   OZ67748  10.497   9.063  15.207  0.5795  0.3319 -0.2175
  265ETHOX  HZ167749  10.587   9.028  15.210  1.5017  2.5173 -0.7226
    1ETHOX   O167750   8.401  10.588  14.388 -0.2470  0.5093 -0.0053
    1ETHOX  HO167751   8.490  10.570  14.356 -1.1756 -1.9151 -1.5524
    1ETHOX   C167752   8.370  10.720  14.343 -0.3438 -0.0027 -0.4115
    1ETHOX  H1167753   8.350  10.702  14.236  1.3177 -1.3585 -0.5282
    1ETHOX  H1367754   8.448  10.798  14.359 -0.6860  1.5577 -4.9662
    1ETHOX   C267755   8.238  10.764  14.402 -0.0867 -0.1742 -1.4913
    1ETHOX  H2167756   8.160  10.685  14.406 -0.4521  0.2275 -0.4759
    1ETHOX  H2367757   8.194  10.850  14.347 -1.1882  0.6767  0.6078
    2ETHOX   O167758   8.246  10.797  14.539 -0.0204  0.0450  0.3784
    2ETHOX   C167759   8.224  10.934  14.563 -0.0798  0.3703  0.2733
    2ETHOX  H1167760   8.299  10.992  14.504 -0.0986 -0.6569 -0.7974
    2ETHOX  H1367761   8.123  10.961  14.525  0.1035  1.2879  0.4021
    2ETHOX   C267762   8.261  10.956  14.710  0.7535 -0.4241 -0.2322
    2ETHOX  H2167763   8.203  10.882  14.768 -0.5611 -0.5078 -1.5840
    2ETHOX  H2367764   8.237  11.062  14.734  2.0696  0.6811 -3.3429
    3ETHOX   O167765   8.397  10.923  14.728  0.2351 -0.3269 -0.6138
    3ETHOX   C167766   8.448  10.970  14.851 -0.0511 -0.3594  0.3552
    3ETHOX  H1167767   8.396  10.906  14.926 -0.9674 -0.2404 -0.1654
    3ETHOX  H1367768   8.411  11.073  14.864 -1.6944 -0.4893 -2.4883
    3ETHOX   C267769   8.607  10.952  14.858 -0.6811 -0.2005  0.2222
    3ETHOX  H2167770   8.628  10.843  14.855  0.8705  0.0835 -0.4605
    3ETHOX  H2367771   8.638  10.981  14.961  0.3020  1.9140 -0.6129
    4ETHOX   O167772   8.681  11.030  14.761 -0.4257  0.8968 -0.2684
    4ETHOX   C167773   8.817  11.045  14.809  0.4208 -0.3778 -0.0586
    4ETHOX  H1167774   8.826  11.103  14.903  0.3699 -1.6354  0.7437
    4ETHOX  H1367775   8.855  10.942  14.829  1.0442 -0.1073  0.1671
    4ETHOX   C267776   8.909  11.107  14.707 -0.5985 -0.0340  0.2465
    4ETHOX  H2167777   8.883  11.066  14.607  1.4289  1.7271 -1.0875
    4ETHOX  H2367778   9.013  11.068  14.718 -0.7981 -1.0481 -1.2500
    5ETHOX   O167779   8.911  11.248  14.705  0.4383  0.2259  0.3727
    5ETHOX   C167780   8.986  11.303  14.810 -0.1232  1.0586 -0.5407
    5ETHOX  H1167781   8.917  11.353  14.881 -1.7007 -0.3427 -1.0451
    5ETHOX  H1367782   9.049  11.227  14.861  1.5351  1.2827 -2.1177
    5ETHOX   C267783   9.088  11.411  14.757 -0.7344 -0.3158  0.2166
    5ETHOX  H2167784   9.126  11.473  14.841 -1.3975 -0.9589  1.0093
    5ETHOX  H2367785   9.037  11.482  14.689 -0.6493 -0.4104  0.0548
    6ETHOX   O167786   9.209  11.361  14.698  0.4890 -0.2687  0.3101
    6ETHOX   C167787   9.284  11.471  14.641 -0.5325  0.2330  0.3790
    6ETHOX  H1167788   9.236  11.511  14.549  2.2659  2.6987 -0.1436
    6ETHOX  H1367789   9.301  11.555  14.712 -0.3711  1.8151 -1.4374
    6ETHOX   C267790   9.431  11.435  14.594  0.1572 -0.9401  0.7893
    6ETHOX  H2167791   9.422  11.384  14.496  0.0819  1.2713 -0.4223
    6ETHOX  H2367792   9.466  11.353  14.661  1.0398 -0.4516  0.9419
    7ETHOX   O167793   9.527  11.540  14.584 -0.0941  0.1757 -0.0350
    7ETHOX   C167794   9.656  11.491  14.552 -0.2185  0.1421  0.2569
    7ETHOX  H1167795   9.691  11.424  14.633  1.9983  0.8969 -0.0051
    7ETHOX  H1367796   9.652  11.442  14.452 -1.3840  2.1844 -0.7676
    7ETHOX   C267797   9.774  11.597  14.561 -0.5102 -0.5169  0.1699
    7ETHOX  H2167798   9.757  11.674  14.482 -3.5927 -1.9294 -0.6965
    7ETHOX  H2367799   9.866  11.540  14.541 -0.6865 -0.4462 -0.9354
    8ETHOX   O167800   9.790  11.672  14.681  0.2000 -0.3820 -0.3271
    8ETHOX   C167801   9.873  11.782  14.664  0.2739 -0.2564  0.2778
    8ETHOX  H1167802   9.819  11.864  14.613  0.3595  0.3979  1.2063
    8ETHOX  H1367803   9.948  11.754  14.588  0.2359 -0.0055  0.1497
    8ETHOX   C267804   9.928  11.826  14.798 -0.1207  0.3819 -0.2911
    8ETHOX  H2167805   9.847  11.824  14.874  0.7601  1.1133  0.7135
    8ETHOX  H2367806   9.945  11.934  14.774  0.9972  0.4932  0.8690
    9ETHOX   O167807  10.044  11.753  14.846 -0.0217  0.7099  0.0553
    9ETHOX   C167808  10.018  11.624  14.880 -0.9565 -0.3076  0.3649
    9ETHOX  H1167809   9.913  11.610  14.913 -0.4106 -2.2269  1.4759
    9ETHOX  H1367810  10.044  11.573  14.785  0.7607 -0.1494  0.7099
    9ETHOX   C267811  10.100  11.559  14.992  0.2261  0.0711  0.5082
    9ETHOX  H2167812  10.077  11.609  15.089  1.2480 -1.6431  1.6846
    9ETHOX  H2367813  10.210  11.571  14.976  0.7257 -3.2484  0.7028
   10ETHOX   O167814  10.066  11.416  15.015 -0.0784  0.5446 -0.4675
   10ETHOX   C167815  10.149  11.363  15.120 -0.1436  0.0808 -0.0573
   10ETHOX  H1167816  10.099  11.271  15.158  2.2005 -1.1066  0.3625
   10ETHOX  H1367817  10.157  11.434  15.205  0.0547 -0.3933  0.3285
   10ETHOX   C267818  10.296  11.316  15.069  0.1819 -0.8749  0.2860
   10ETHOX  H2167819  10.270  11.262  14.976  0.2182  0.5178 -0.5615
   10ETHOX  H2367820  10.340  11.234  15.129 -0.5536 -0.2295  1.7753
   11ETHOX   O167821  10.397  11.410  15.032 -0.4212  0.0913  0.3674
   11ETHOX   C167822  10.456  11.470  15.147 -0.2648  0.1963 -0.2152
   11ETHOX  H1167823  10.396  11.466  15.240  0.7759 -0.3372  0.4501
   11ETHOX  H1367824  10.550  11.421  15.180 -0.8745  1.2953  3.6246
   11ETHOX   C267825  10.478  11.622  15.124  0.4540  0.6565  0.0062
   11ETHOX  H2167826  10.546  11.654  15.206  0.2119  0.0343  0.4584
   11ETHOX  H2367827  10.532  11.646  15.030  0.2245  0.0540 -0.2896
   12ETHOX   O167828  10.362  11.690  15.138 -0.0070  0.5172  0.4333
   12ETHOX   C167829  10.386  11.829  15.100  0.2933 -0.3263  0.3795
   12ETHOX  H1167830  10.422  11.840  14.996 -2.6668 -0.0774 -0.7301
   12ETHOX  H1367831  10.452  11.874  15.177 -0.1182 -0.7405  0.9809
   12ETHOX   C267832  10.249  11.910  15.105  0.8106  0.2209  0.3832
   12ETHOX  H2167833  10.169  11.855  15.052  0.9999 -0.0529  0.3791
   12ETHOX  H2367834  10.268  12.008  15.057 -1.1191 -0.1698 -1.3029
   13ETHOX   O167835  10.200  11.936  15.236  0.5919  0.0890 -0.2966
   13ETHOX   C167836  10.079  12.016  15.242 -0.5653  0.3813 -0.0041
   13ETHOX  H1167837  10.065  12.076  15.335  0.5726  1.7483 -0.6638
   13ETHOX  H1367838  10.076  12.091  15.160 -0.8734  1.7036  1.1598
   13ETHOX   C267839   9.949  11.935  15.242  0.7260 -0.1915 -0.1832
   13ETHOX  H2167840   9.933  11.881  15.146 -1.2406  0.7839 -0.4511
   13ETHOX  H2367841   9.867  12.006  15.263  0.7205 -0.1565 -0.3268
   14ETHOX   O167842   9.946  11.836  15.342 -0.0249 -0.6290  0.3395
   14ETHOX   C167843   9.812  11.805  15.374 -0.5195  0.0034  0.7941
   14ETHOX  H1167844   9.758  11.814  15.277  1.4552  3.4653 -0.1584
   14ETHOX  H1367845   9.757  11.881  15.433  0.7478 -1.0979  3.5355
   14ETHOX   C267846   9.790  11.659  15.424 -0.3584 -0.0069 -0.5287
   14ETHOX  H2167847   9.879  11.596  15.402  1.4149  2.0552  0.3507
   14ETHOX  H2367848   9.694  11.616  15.389 -1.8843  0.3994  2.7407
   15ETHOX   O167849   9.777  11.655  15.565 -0.2032  0.3745  0.2185
   15ETHOX   C167850   9.898  11.715  15.624 -0.0497  0.2648  0.4414
   15ETHOX  H1167851   9.983  11.667  15.571 -2.6568 -2.9404 -1.1432
   15ETHOX  H1367852   9.908  11.825  15.607  1.5590  0.1134  0.1834
   15ETHOX   C267853   9.908  11.682  15.770 -0.1573  0.3976 -0.4570
   15ETHOX  H2167854   9.928  11.574  15.787  2.6698  0.9651  0.3330
   15ETHOX  H2367855   9.998  11.728  15.817  0.7347 -1.3024 -0.4408
   16ETHOX   O167856   9.800  11.721  15.853  0.3463  0.4962  0.2310
   16ETHOX   C167857   9.713  11.615  15.880 -0.7716  0.6239  0.0657
   16ETHOX  H1167858   9.663  11.576  15.788 -0.2520 -0.1970  0.1243
   16ETHOX  H1367859   9.767  11.524  15.914 -0.5876 -0.1584 -2.1473
   16ETHOX   C267860   9.611  11.658  15.980  0.5718  0.0485  0.7881
   16ETHOX  H2167861   9.546  11.571  15.998 -1.4707  0.7605 -2.2794
   16ETHOX  H2367862   9.552  11.739  15.932  1.9897 -0.6194 -2.3440
   17ETHOX   O167863   9.674  11.702  16.099  0.0939  0.2921 -0.1592
   17ETHOX   C167864   9.576  11.712  16.211 -0.1238 -0.4230  0.4170
   17ETHOX  H1167865   9.496  11.779  16.173  0.8545  0.9687  0.7571
   17ETHOX  H1367866   9.540  11.608  16.227  0.8648 -1.0034 -0.9753
   17ETHOX   C267867   9.645  11.752  16.343  0.0970 -0.6905 -0.4166
   17ETHOX  H2167868   9.721  11.671  16.353 -0.1783 -0.7825  1.1442
   17ETHOX  H2367869   9.584  11.743  16.435  1.8953 -1.4873  0.7692
   18ETHOX   O167870   9.706  11.880  16.342  0.3285  0.3868 -0.2287
   18ETHOX   C167871   9.763  11.910  16.467  0.3980 -0.2553 -0.0226
   18ETHOX  H1167872   9.679  11.933  16.536  1.0232 -0.7089  0.9048
   18ETHOX  H1367873   9.819  11.820  16.500  0.5426 -1.6855 -3.6120
   18ETHOX   C267874   9.867  12.019  16.442  0.9892 -0.2779  0.1341
   18ETHOX  H2167875   9.896  12.050  16.544  1.2679 -0.9256  0.2590
   18ETHOX  H2367876   9.815  12.105  16.395 -2.2033 -1.8238  0.5475
   19ETHOX   O167877   9.977  11.980  16.365  0.2988 -0.4326 -0.2152
   19ETHOX   C167878  10.017  12.080  16.269 -0.3590 -0.3225 -0.1115
   19ETHOX  H1167879  10.018  12.180  16.316 -2.7575  0.3570 -1.3729
   19ETHOX  H1367880   9.947  12.085  16.183  0.3501  0.4039 -0.6665
   19ETHOX   C267881  10.155  12.051  16.208 -0.5172  0.4380 -0.0338
   19ETHOX  H2167882  10.175  12.117  16.121  1.3049  0.6741  0.5399
   19ETHOX  H2367883  10.158  11.946  16.171 -0.6171  0.6271 -0.5904
   20ETHOX   O167884  10.260  12.070  16.307 -0.0970 -0.1393 -0.0200
   20ETHOX   C167885  10.376  11.999  16.282  0.3228  0.0180 -0.3216
   20ETHOX  H1167886  10.374  11.895  16.322  0.3762  0.4612  0.8827
   20ETHOX  H1367887  10.393  11.996  16.173  0.0127  1.0861 -0.4134
   20ETHOX   C267888  10.513  12.063  16.333  0.2008  0.2612 -0.2274
   20ETHOX  H2167889  10.589  11.981  16.332  0.0905  0.0772  1.7865
   20ETHOX  H2367890  10.496  12.077  16.442  0.6627 -1.4520  0.1001
   21ETHOX   O167891  10.555  12.186  16.268 -0.3155 -0.5030 -0.4861
   21ETHOX   C167892  10.698  12.208  16.300 -0.1913 -0.6690 -0.5249
   21ETHOX  H1167893  10.765  12.127  16.264  0.2763 -0.3962 -0.2694
   21ETHOX  H1367894  10.704  12.199  16.410  1.3106 -0.5143 -0.5696
   21ETHOX   C267895  10.750  12.351  16.289 -0.5148 -0.1032  0.9260
   21ETHOX  H2167896  10.828  12.375  16.364  1.9213  0.6392 -1.6484
   21ETHOX  H2367897  10.662  12.417  16.308 -0.5955  0.3560 -0.8358
   22ETHOX   O167898  10.790  12.385  16.149 -0.9300  0.1959 -0.6917
   22ETHOX   C167899  10.925  12.334  16.125 -0.0389  0.1344 -0.7187
   22ETHOX  H1167900  10.988  12.410  16.177 -1.0235 -0.3396  1.2760
   22ETHOX  H1367901  10.949  12.232  16.161  3.6977  1.4403  0.9592
   22ETHOX   C267902  10.955  12.338  15.970  0.2704 -0.1307 -0.0325
   22ETHOX  H2167903  10.924  12.438  15.933  0.5569 -1.4394 -4.2943
   22ETHOX  H2367904  11.066  12.330  15.971  0.5083  2.3420 -0.4132
   23ETHOX   O167905  10.877  12.245  15.889  0.6106  0.7714 -0.1133
   23ETHOX   C167906  10.940  12.230  15.758 -0.6560  0.6072  0.5118
   23ETHOX  H1167907  11.033  12.172  15.772 -1.7578 -1.4642 -0.2798
   23ETHOX  H1367908  10.953  12.332  15.715 -0.0290 -0.0201 -0.8155
   23ETHOX   C267909  10.861  12.147  15.655 -0.4808 -1.0008  0.3314
   23ETHOX  H2167910  10.914  12.147  15.557 -0.9712 -0.3809  0.0545
   23ETHOX  H2367911  10.766  12.202  15.638  0.5040  0.1152 -2.1169
   24ETHOX   O167912  10.842  12.015  15.701  0.5995  0.6831 -0.0203
   24ETHOX   C167913  10.823  11.933  15.592 -0.5323  0.1533 -0.4520
   24ETHOX  H1167914  10.715  11.948  15.571 -0.2885  0.8450 -1.3243
   24ETHOX  H1367915  10.879  11.976  15.505 -1.6291 -1.8306 -2.2315
   24ETHOX   C267916  10.860  11.788  15.617  0.0498 -0.0663  0.0627
   24ETHOX  H2167917  10.839  11.738  15.521 -2.0514  1.4002 -0.3169
   24ETHOX  H2367918  10.806  11.747  15.705  1.7633 -0.4262  1.0067
   25ETHOX   O167919  10.995  11.770  15.653 -0.0924 -0.4705  0.0199
   25ETHOX   C167920  11.022  11.636  15.695  0.1845 -0.0710  0.6996
   25ETHOX  H1167921  10.976  11.572  15.617 -0.6349  0.5624  0.6444
   25ETHOX  H1367922  10.957  11.605  15.780  1.1675 -1.1095  1.0867
   25ETHOX   C267923  11.164  11.616  15.738 -0.1697  0.2246  0.1954
   25ETHOX  H2167924  11.236  11.651  15.661 -0.9059  1.3696  0.0057
   25ETHOX  H2367925  11.186  11.507  15.746 -1.1045  0.0664  0.7582
   26ETHOX   O167926  11.195  11.689  15.854  0.5621 -0.9324  0.2877
   26ETHOX   C167927  11.330  11.662  15.890 -0.7142 -0.3685  0.9488
   26ETHOX  H1167928  11.377  11.584  15.826  0.1288 -0.6745  1.9326
   26ETHOX  H1367929  11.391  11.753  15.869  0.1756 -0.4539  2.9882
   26ETHOX   C267930  11.353  11.628  16.036  0.3646  0.7540  0.5151
   26ETHOX  H2167931  11.453  11.586  16.059 -0.2540 -2.4053 -1.8463
   26ETHOX  H2367932  11.289  11.543  16.067 -0.6724  1.0333 -0.7421
   27ETHOX   O167933  11.327  11.739  16.120 -0.3964  0.4250 -0.6046
   27ETHOX   C167934  11.387  11.721  16.247 -0.1859  0.5047 -0.9759
   27ETHOX  H1167935  11.486  11.670  16.249  0.5077  1.7433 -2.2020
   27ETHOX  H1367936  11.318  11.661  16.311  2.9804 -1.0938  1.2388
   27ETHOX   C267937  11.408  11.852  16.325  0.4205  0.3412 -0.4687
   27ETHOX  H2167938  11.439  11.937  16.262  0.8170  0.6342  0.1192
   27ETHOX  H2367939  11.486  11.837  16.403 -0.7507  0.4638  0.7743
   28ETHOX   O167940  11.298  11.894  16.404 -0.2876 -0.0605 -0.4802
   28ETHOX   C167941  11.199  11.946  16.322  0.4365 -0.4904 -0.6637
   28ETHOX  H1167942  11.235  12.037  16.269 -1.6994  2.2477  2.2046
   28ETHOX  H1367943  11.151  11.882  16.245  0.9161 -0.6297 -0.8486
   28ETHOX   C267944  11.080  12.018  16.395 -0.6625  0.3537  0.1266
   28ETHOX  H2167945  11.019  12.080  16.325 -0.2360 -0.0987 -0.6542
   28ETHOX  H2367946  11.123  12.092  16.466  0.3681  0.4057 -0.5310
   29ETHOX   O167947  11.002  11.923  16.464  0.0708  0.2301 -0.4841
   29ETHOX   C167948  10.895  11.982  16.539 -0.5116  0.1440 -0.5829
   29ETHOX  H1167949  10.840  12.059  16.482 -1.4213 -0.3816 -0.4458
   29ETHOX  H1367950  10.941  12.026  16.630  1.1330  0.8805 -1.7331
   29ETHOX   C267951  10.798  11.873  16.584 -0.1494 -0.2098 -0.5329
   29ETHOX  H2167952  10.772  11.795  16.510 -2.1171 -0.3002  0.1664
   29ETHOX  H2367953  10.698  11.916  16.610 -0.6208 -0.3347 -2.0377
   30ETHOX   O167954  10.865  11.792  16.688 -0.2107  0.0804  0.4190
   30ETHOX   C167955  10.778  11.706  16.765 -0.2756 -0.2036  0.0390
   30ETHOX  H1167956  10.715  11.771  16.829  2.2791  1.2319  1.2604
   30ETHOX  H1367957  10.707  11.649  16.701 -0.2217 -0.1559 -0.0660
   30ETHOX   C267958  10.868  11.615  16.853  0.5508 -0.7787 -0.5219
   30ETHOX  H2167959  10.894  11.660  16.951 -1.4428  0.7880 -0.6507
   30ETHOX  H2367960  10.956  11.589  16.790 -1.1383 -3.5948 -1.9243
   31ETHOX   O167961  10.816  11.483  16.868 -0.2089 -0.2406  0.0920
   31ETHOX   C167962  10.761  11.458  16.994  0.4122  0.1723 -0.2146
   31ETHOX  H1167963  10.844  11.473  17.066 -0.0732 -2.0073  0.8793
   31ETHOX  H1367964  10.682  11.530  17.022 -0.4877 -0.4456 -1.0929
   31ETHOX   C267965  10.708  11.312  17.017 -0.3958 -0.0544  0.0705
   31ETHOX  H2167966  10.650  11.275  16.930  1.1670 -0.1144 -0.9842
   31ETHOX  H2367967  10.643  11.318  17.106  0.3541  0.1666  0.6183
   32ETHOX   O167968  10.809  11.216  17.031 -0.5712 -0.4535 -0.6064
   32ETHOX   C167969  10.754  11.092  17.068  0.9377  0.3312 -0.2793
   32ETHOX  H1167970  10.701  11.100  17.165  1.7137  3.0741  0.0087
   32ETHOX  H1367971  10.678  11.058  16.995 -1.3411 -0.2893  2.2307
   32ETHOX   C267972  10.854  10.979  17.087 -0.2349 -0.3166  0.6691
   32ETHOX  H2167973  10.922  10.989  16.999 -0.3480  0.5549  0.6628
   32ETHOX  H2367974  10.814  10.876  17.092 -1.5791 -0.0098 -1.9936
   33ETHOX   O167975  10.926  11.003  17.204  0.0275 -0.3325  0.2514
   33ETHOX   C167976  11.036  10.916  17.220 -0.0135  0.8350  0.7760
   33ETHOX  H1167977  11.020  10.809  17.195  1.6106  0.7363  0.0311
   33ETHOX  H1367978  11.114  10.942  17.145 -0.6339 -0.9259 -0.5275
   33ETHOX   C267979  11.111  10.936  17.354  0.7051 -0.3210  0.5647
   33ETHOX  H2167980  11.118  11.046  17.368 -3.8874  0.2639 -0.1753
   33ETHOX  H2367981  11.212  10.890  17.344  0.5969 -0.3531 -0.4835
   34ETHOX   O167982  11.028  10.878  17.451  0.3517  0.0291  0.2697
   34ETHOX   C167983  11.063  10.932  17.577 -0.9746 -0.3943 -0.0873
   34ETHOX  H1167984  11.063  11.043  17.579 -0.6844 -0.3936 -0.0839
   34ETHOX  H1367985  11.172  10.919  17.597 -1.1022  1.6124  2.4687
   34ETHOX   C267986  10.988  10.880  17.694 -1.0182 -0.3687  0.1121
   34ETHOX  H2167987  11.026  10.905  17.796 -0.0607  0.6033 -0.4701
   34ETHOX  H2367988  10.963  10.773  17.679 -2.5278  0.1979 -1.7052
   35ETHOX   O167989  10.866  10.950  17.681  0.5304 -0.1676  0.0953
   35ETHOX   C167990  10.855  11.063  17.769  0.2075 -0.2219  0.7165
   35ETHOX  H1167991  10.877  11.023  17.871 -1.4780 -1.0191  0.7960
   35ETHOX  H1367992  10.930  11.143  17.755  0.6623 -0.2563  2.5972
   35ETHOX   C267993  10.710  11.114  17.762  0.4077 -0.3295  0.0101
   35ETHOX  H2167994  10.684  11.140  17.657  3.4327  1.0893 -0.4896
   35ETHOX  H2367995  10.702  11.205  17.825  2.4663 -0.7563  0.9600
   36ETHOX   O167996  10.619  11.018  17.817  0.1267  0.1706 -0.0226
   36ETHOX   C167997  10.483  11.054  17.800  0.4290 -0.0065 -0.0314
   36ETHOX  H1167998  10.423  10.961  17.813 -0.4362  0.7979  2.1700
   36ETHOX  H1367999  10.467  11.083  17.694  2.1217 -1.0483 -0.6185
   36ETHOX   C268000  10.418  11.157  17.896  0.4201 -0.1331 -0.2200
   36ETHOX  H2168001  10.313  11.169  17.862  0.8361  1.8193 -0.9628
   36ETHOX  H2368002  10.461  11.259  17.889 -1.9049  0.9285 -0.1105
   37ETHOX   O168003  10.424  11.121  18.031 -0.3188 -0.2633  0.2566
   37ETHOX   C168004  10.375  11.218  18.124 -0.2609 -0.4368  1.3455
   37ETHOX  H1168005  10.359  11.158  18.216 -0.3164 -0.7850  1.1121
   37ETHOX  H1368006  10.459  11.284  18.154 -1.7170  2.4717 -0.5476
   37ETHOX   C268007  10.245  11.302  18.091 -0.1681 -0.0592 -0.0108
   37ETHOX  H2168008  10.212  11.353  18.183  0.1082 -0.7464  0.4800
   37ETHOX  H2368009  10.158  11.236  18.069 -0.2372 -0.5190  1.5614
   38ETHOX   O168010  10.277  11.398  17.994  1.0091  0.1460 -0.7786
   38ETHOX   C168011  10.168  11.465  17.924 -0.4331 -0.2909 -0.3488
   38ETHOX  H1168012  10.176  11.575  17.927  2.1298 -0.3864 -0.8802
   38ETHOX  H1368013  10.070  11.443  17.971  0.4670 -1.7590  0.9211
   38ETHOX   C268014  10.168  11.430  17.780  0.1055  0.1068  0.1602
   38ETHOX  H2168015  10.074  11.464  17.731  0.3411  2.7875  1.3918
   38ETHOX  H2368016  10.175  11.320  17.769 -1.1152 -0.0984  1.2629
   39ETHOX   O168017  10.288  11.478  17.719  0.2760 -0.3247 -0.8099
   39ETHOX   C168018  10.281  11.482  17.573 -0.8225  0.6454  0.1828
   39ETHOX  H1168019  10.181  11.460  17.530 -0.0090  2.5490 -2.9410
   39ETHOX  H1368020  10.320  11.574  17.526 -0.8840 -0.3448 -1.9118
   39ETHOX   C268021  10.372  11.376  17.517 -0.0614  0.4227 -0.1917
   39ETHOX  H2168022  10.338  11.355  17.413  1.4463  1.5921 -0.9791
   39ETHOX  H2368023  10.358  11.282  17.573 -0.8823 -1.4848 -3.3399
   40ETHOX   O168024  10.500  11.431  17.515 -0.0949 -0.3423 -0.5831
   40ETHOX   C168025  10.578  11.369  17.411 -0.2421  0.4069 -0.2185
   40ETHOX  H1168026  10.541  11.397  17.310  0.7984 -2.2645 -1.4293
   40ETHOX  H1368027  10.579  11.258  17.419 -1.0327  0.2829 -1.4420
   40ETHOX   C268028  10.728  11.402  17.417  0.3199 -0.3371  0.3763
   40ETHOX  H2168029  10.751  11.510  17.408  0.0559 -0.2182  1.0302
   40ETHOX  H2368030  10.785  11.354  17.335  1.1765  2.8396 -1.0275
   41ETHOX   O168031  10.776  11.366  17.545 -0.1844 -0.0640  0.4280
   41ETHOX   C168032  10.909  11.416  17.580  0.1958  0.0924  0.0716
   41ETHOX  H1168033  10.915  11.527  17.577 -0.3734  0.1745  1.1479
   41ETHOX  H1368034  10.931  11.382  17.683  0.5156  1.0998  0.3492
   41ETHOX   C268035  11.011  11.361  17.480 -0.3658  0.2863 -0.8316
   41ETHOX  H2168036  10.991  11.253  17.461  0.1466 -0.6009  2.8610
   41ETHOX  H2368037  11.104  11.369  17.539 -0.7997 -0.0184 -0.0992
   42ETHOX   O168038  11.022  11.434  17.356  0.3702  0.0626  0.1981
   42ETHOX   C168039  11.092  11.364  17.252  0.1958 -0.3319  0.1261
   42ETHOX  H1168040  11.182  11.321  17.300 -0.3063 -0.8898  0.5814
   42ETHOX  H1368041  11.032  11.279  17.213 -1.8813  1.7992 -1.6893
   42ETHOX   C268042  11.138  11.462  17.147 -0.0166  0.2228  0.0511
   42ETHOX  H2168043  11.049  11.516  17.106  0.7174  1.2649 -0.2192
   42ETHOX  H2368044  11.174  11.406  17.058 -0.9926  0.9987 -0.8561
   43ETHOX   O168045  11.227  11.552  17.194  0.1325 -0.7922  0.1146
   43ETHOX   C168046  11.286  11.633  17.094 -0.0334 -0.5021  0.3802
   43ETHOX  H1168047  11.368  11.693  17.142  0.0234  0.2573 -0.6361
   43ETHOX  H1368048  11.349  11.582  17.019  2.0333  0.9789  1.0006
   43ETHOX   C268049  11.189  11.734  17.018 -0.3245 -0.0314 -0.3125
   43ETHOX  H2168050  11.120  11.666  16.964 -0.4365  0.9272 -1.4344
   43ETHOX  H2368051  11.250  11.791  16.944 -0.4784  0.3672 -0.1299
   44ETHOX   O168052  11.114  11.828  17.091 -0.4478  0.0406  0.6076
   44ETHOX   C168053  11.044  11.912  17.003  0.3044  0.2984  0.1360
   44ETHOX  H1168054  11.106  12.003  16.984 -0.4729  0.4059 -2.0595
   44ETHOX  H1368055  11.021  11.867  16.905  1.4153  0.0813 -0.0375
   44ETHOX   C268056  10.916  11.950  17.079  0.7573 -0.2348  0.1977
   44ETHOX  H2168057  10.855  12.025  17.023  1.6391  0.5402  0.2567
   44ETHOX  H2368058  10.938  11.994  17.178  3.7001 -0.2689 -0.3512
   45ETHOX   O168059  10.826  11.846  17.087 -0.3298 -0.1023 -0.2656
   45ETHOX   C168060  10.711  11.871  17.175  0.3007 -0.7972  0.2788
   45ETHOX  H1168061  10.669  11.974  17.163 -0.1485 -1.1633 -1.6365
   45ETHOX  H1368062  10.756  11.873  17.277 -0.8395  2.4668  0.8493
   45ETHOX   C268063  10.609  11.760  17.172 -0.1183  0.1382 -0.5031
   45ETHOX  H2168064  10.529  11.767  17.248 -0.7511  2.0790 -1.2750
   45ETHOX  H2368065  10.670  11.669  17.190 -1.7353 -0.8947 -0.0510
   46ETHOX   O168066  10.548  11.760  17.045 -0.0489  0.8000  0.5844
   46ETHOX   C168067  10.424  11.684  17.048 -0.3458  0.0614 -0.0354
   46ETHOX  H1168068  10.426  11.598  17.118 -1.4468 -1.1485 -1.4178
   46ETHOX  H1368069  10.341  11.750  17.082 -1.2436 -2.1781  2.5201
   46ETHOX   C268070  10.375  11.636  16.912 -0.2487 -0.7218 -0.5049
   46ETHOX  H2168071  10.385  11.720  16.840  2.9843 -1.0956 -0.6443
   46ETHOX  H2368072  10.269  11.607  16.924 -0.7298  1.2696  0.5836
   47ETHOX   O168073  10.435  11.522  16.859  0.1479  0.1321  0.1199
   47ETHOX   C168074  10.398  11.488  16.723 -0.1818  0.0550 -0.1889
   47ETHOX  H1168075  10.463  11.539  16.649 -1.2265  1.1778 -0.3799
   47ETHOX  H1368076  10.290  11.499  16.699 -0.0561  0.6620 -0.5045
   47ETHOX   C268077  10.434  11.339  16.707 -0.6309 -0.4307 -0.0281
   47ETHOX  H2168078  10.541  11.315  16.728  0.1379  1.9536 -0.9757
   47ETHOX  H2368079  10.423  11.307  16.601  0.1080  0.6600 -0.4548
   48ETHOX   O168080  10.355  11.254  16.781  0.1058 -0.4129 -0.3693
   48ETHOX   C168081  10.412  11.121  16.788 -0.7364 -0.4798 -0.2714
   48ETHOX  H1168082  10.406  11.069  16.691 -1.6140 -2.7029  0.9005
   48ETHOX  H1368083  10.521  11.124  16.810 -0.7824  2.2399  0.0549
   48ETHOX   C268084  10.344  11.019  16.885  0.4339 -0.9348 -0.0018
   48ETHOX  H2168085  10.233  11.019  16.884  0.4016 -0.0617 -2.5632
   48ETHOX  H2368086  10.375  10.918  16.852  0.9452 -0.0984 -2.2567
   49ETHOX   O168087  10.380  11.044  17.020  0.1787  0.2192 -0.0640
   49ETHOX   C168088  10.282  11.006  17.115 -0.2394  0.6193 -0.6680
   49ETHOX  H1168089  10.176  11.026  17.085 -0.5129  1.3639  0.7178
   49ETHOX  H1368090  10.305  11.072  17.202 -2.8187  2.3953 -1.2113
   49ETHOX   C268091  10.295  10.859  17.142  0.6164 -0.6148 -1.0242
   49ETHOX  H2168092  10.284  10.801  17.048  0.4424 -1.2742 -0.6033
   49ETHOX  H2368093  10.212  10.832  17.211  2.4819  0.9403  2.0411
   50ETHOX   O168094  10.409  10.840  17.226 -0.1182 -0.0766  0.0391
   50ETHOX   C168095  10.490  10.738  17.176  0.1833 -0.1386  0.1638
   50ETHOX  H1168096  10.436  10.643  17.157  0.1538  0.1104 -1.0920
   50ETHOX  H1368097  10.541  10.770  17.082  0.3923 -0.3885  0.1896
   50ETHOX   C268098  10.599  10.705  17.281 -0.7416 -0.1828 -0.8415
   50ETHOX  H2168099  10.661  10.789  17.319  0.4466 -1.7996  0.9867
   50ETHOX  H2368100  10.664  10.626  17.236 -1.7171 -1.9595  0.7285
   51ETHOX   O168101  10.556  10.641  17.402  0.4319  0.3688  0.2087
   51ETHOX   C168102  10.654  10.629  17.505  0.3315  0.0364  0.8756
   51ETHOX  H1168103  10.706  10.727  17.509  1.2784 -0.4618  1.1417
   51ETHOX  H1368104  10.739  10.563  17.478 -0.0435 -0.3256  0.5599
   51ETHOX   C268105  10.609  10.577  17.649  0.3005 -0.4277  0.4326
   51ETHOX  H2168106  10.562  10.658  17.708 -1.0102 -1.2228  0.5104
   51ETHOX  H2368107  10.705  10.564  17.703 -0.3573  0.5032  1.8901
   52ETHOX   O168108  10.530  10.463  17.638 -0.7370  0.4689 -0.0304
   52ETHOX   C168109  10.605  10.351  17.594 -0.0148 -0.2187  0.2552
   52ETHOX  H1168110  10.630  10.366  17.486  1.8437  1.8049  0.8806
   52ETHOX  H1368111  10.695  10.339  17.658 -0.2633 -0.0841  0.6338
   52ETHOX   C268112  10.514  10.228  17.610 -0.1574 -0.2444  0.4258
   52ETHOX  H2168113  10.546  10.155  17.533  1.8967  3.4463 -2.5772
   52ETHOX  H2368114  10.410  10.253  17.578 -0.6948 -0.3970  1.9690
   53ETHOX   O168115  10.527  10.162  17.735  0.7352  0.5038 -0.3055
   53ETHOX   C168116  10.440  10.055  17.742  0.3602  0.7966  0.0568
   53ETHOX  H1168117  10.337  10.091  17.763 -1.5297 -1.7304 -3.5913
   53ETHOX  H1368118  10.435   9.994  17.649 -2.9145  0.2997  0.4212
   53ETHOX   C268119  10.458   9.953  17.861  0.4514 -0.8694 -0.0567
   53ETHOX  H2168120  10.377   9.877  17.866  0.3629 -0.9002 -1.3964
   53ETHOX  H2368121  10.450  10.024  17.945 -0.7712  0.0455 -0.9111
   54ETHOX   O168122  10.574   9.867  17.847 -0.6854 -0.2624  0.0513
   54ETHOX   C168123  10.600   9.796  17.969 -0.2556  0.3292 -0.2230
   54ETHOX  H1168124  10.574   9.852  18.061 -1.9902 -4.4916  2.6169
   54ETHOX  H1368125  10.536   9.706  17.982 -0.2790  0.4561  0.6229
   54ETHOX   C268126  10.739   9.742  17.969  0.0168 -0.8514 -0.1390
   54ETHOX  H2168127  10.756   9.678  17.880 -1.3999 -1.3362 -0.0908
   54ETHOX  H2368128  10.765   9.678  18.055  1.6823 -1.3471 -0.9776
   55ETHOX   O168129  10.832   9.854  17.973 -0.9347 -0.5265  0.0130
   55ETHOX   C168130  10.968   9.818  17.991 -0.1311  0.1260 -0.6983
   55ETHOX  H1168131  11.020   9.906  18.035  1.2623 -0.4026 -1.2311
   55ETHOX  H1368132  10.967   9.741  18.071  0.1709  0.2396 -0.5841
   55ETHOX   C268133  11.042   9.772  17.872 -0.2676  0.5493  0.1837
   55ETHOX  H2168134  11.151   9.766  17.891 -0.0158  1.0533 -1.0619
   55ETHOX  H2368135  11.003   9.677  17.829  0.8281  0.6324 -1.0518
   56ETHOX   O168136  11.032   9.860  17.760 -0.2319  0.1812 -0.0777
   56ETHOX   C168137  11.132   9.833  17.658  0.7755 -1.2119  0.7241
   56ETHOX  H1168138  11.119   9.731  17.616 -0.2654 -1.1857  0.9699
   56ETHOX  H1368139  11.235   9.855  17.695  0.8206  1.8156 -0.8607
   56ETHOX   C268140  11.122   9.926  17.533  0.0866  0.1642  0.1080
   56ETHOX  H2168141  11.018   9.964  17.518  0.8582  2.1727 -0.4778
   56ETHOX  H2368142  11.147   9.872  17.439  0.4102  3.4604 -1.8425
   57ETHOX   O168143  11.197  10.044  17.533 -0.3915  0.5518  0.0276
   57ETHOX   C168144  11.323  10.035  17.468  0.1253  0.6394  0.4598
   57ETHOX  H1168145  11.365   9.940  17.507 -0.6961  0.2533  0.4352
   57ETHOX  H1368146  11.319  10.027  17.357  1.8975  2.1524  0.2469
   57ETHOX   C268147  11.422  10.156  17.497  0.9592  0.9195 -0.3864
   57ETHOX  H2168148  11.369  10.249  17.466 -1.2665 -0.7607 -2.0107
   57ETHOX  H2368149  11.508  10.151  17.428 -0.5165 -0.9435 -2.2228
   58ETHOX   O168150  11.456  10.164  17.634  0.0328  0.4848 -0.1669
   58ETHOX   C168151  11.544  10.271  17.650  0.2617  0.4269 -0.9768
   58ETHOX  H1168152  11.486  10.365  17.634  1.1490  0.9474 -1.2254
   58ETHOX  H1368153  11.619  10.262  17.568  0.4483 -0.9189 -0.6750
   58ETHOX   C268154  11.633  10.277  17.776  0.2071 -0.4520 -0.6515
   58ETHOX  H2168155  11.560  10.298  17.857 -0.5635 -0.1609 -1.4066
   58ETHOX  H2368156  11.703  10.362  17.760 -0.9031  0.7135  0.4687
   59ETHOX   O168157  11.702  10.154  17.791  0.4117 -0.5403  0.6612
   59ETHOX   C168158  11.772  10.134  17.912  0.3901 -0.2131 -1.6383
   59ETHOX  H1168159  11.822  10.226  17.951 -1.5071 -0.0262  0.6317
   59ETHOX  H1368160  11.698  10.111  17.992  1.8703 -0.7591 -0.3753
   59ETHOX   C268161  11.879  10.019  17.903  0.0827 -0.3117  0.2305
   59ETHOX  H2168162  11.826   9.935  17.855  1.2037 -1.4449  0.9165
   59ETHOX  H2368163  11.897   9.990  18.009 -1.4317  1.6361  1.1060
   60ETHOX   O168164  12.004  10.045  17.834 -0.0359  0.0521 -0.1411
   60ETHOX   C168165  12.069   9.930  17.782 -0.7374  0.1936  0.0479
   60ETHOX  H1168166  12.011   9.880  17.701  1.2465 -1.7989 -0.2209
   60ETHOX  H1368167  12.088   9.860  17.866 -1.2492  0.7565  0.6516
   60ETHOX   C268168  12.205   9.971  17.712  0.5410  0.0978 -0.1667
   60ETHOX  H2168169  12.178  10.041  17.630 -2.6070 -1.4093 -0.5782
   60ETHOX  H2368170  12.241   9.874  17.672 -1.5656 -0.4107 -0.9874
   61ETHOX   O168171  12.286  10.018  17.817 -0.6234 -0.1324  0.4558
   61ETHOX   C168172  12.424  10.023  17.785  0.1534  0.3108 -0.0947
   61ETHOX  H1168173  12.452   9.955  17.701 -1.0111 -0.1448 -0.1316
   61ETHOX  H1368174  12.446  10.123  17.743 -1.2634  1.4833  1.7928
   61ETHOX   C268175  12.514   9.993  17.903 -0.6681  0.6246  0.0841
   61ETHOX  H2168176  12.502  10.068  17.984  1.8038  0.0426  1.0555
   61ETHOX  H2368177  12.614  10.004  17.856  0.0358 -1.5761  0.9273
   62ETHOX   O168178  12.513   9.856  17.939  0.0554  1.0922 -0.0182
   62ETHOX   C168179  12.611   9.828  18.037  0.0180 -0.3166 -0.2579
   62ETHOX  H1168180  12.569   9.881  18.125 -0.0572 -1.4158  0.3873
   62ETHOX  H1368181  12.716   9.859  18.018  0.6580 -2.0408  0.3043
   62ETHOX   C268182  12.620   9.682  18.078  0.1099 -0.1777  0.2759
   62ETHOX  H2168183  12.519   9.644  18.104 -0.0577 -0.3038 -0.5566
   62ETHOX  H2368184  12.675   9.689  18.175  0.4275 -0.8378  0.1481
   63ETHOX   O168185  12.687   9.596  17.990 -0.3170 -0.2784  0.2761
   63ETHOX   C168186  12.812   9.546  18.042 -0.2762 -0.1846 -0.2945
   63ETHOX  H1168187  12.873   9.634  18.071 -0.1118 -0.8817  1.6084
   63ETHOX  H1368188  12.784   9.513  18.145  0.4057  1.7617  0.5722
   63ETHOX   C268189  12.879   9.449  17.949  0.1393  0.6649 -0.5097
   63ETHOX  H2168190  12.982   9.425  17.985  0.6532  1.1208 -1.6128
   63ETHOX  H2368191  12.883   9.479  17.842 -0.5991 -1.1357 -1.0803
   64ETHOX   O168192  12.809   9.325  17.977 -0.3802  0.1055  0.4476
   64ETHOX   C168193  12.877   9.218  17.909  0.1803  0.2065 -0.1151
   64ETHOX  H1168194  12.954   9.180  17.980  1.1116  0.7651 -0.7944
   64ETHOX  H1368195  12.925   9.241  17.811  1.6107 -0.6815  0.3462
   64ETHOX   C268196  12.790   9.092  17.894 -0.0523 -0.3978 -0.5067
   64ETHOX  H2168197  12.749   9.087  17.997  0.5908  1.5532 -0.1071
   64ETHOX  H2368198  12.860   9.008  17.875 -0.4984 -1.1884  1.2210
   65ETHOX   O168199  12.679   9.104  17.804  0.1875  0.2061 -0.0224
   65ETHOX   C168200  12.607   8.989  17.777  0.1154 -0.0704  0.3623
   65ETHOX  H1168201  12.557   9.008  17.679  1.9871  0.4304 -0.5493
   65ETHOX  H1368202  12.673   8.900  17.764 -0.5543 -0.4878 -0.2869
   65ETHOX   C268203  12.492   8.952  17.881 -0.6575  0.0769  0.4758
   65ETHOX  H2168204  12.426   9.040  17.893 -0.0807  1.0738 -2.7620
   65ETHOX  H2368205  12.551   8.942  17.975  2.5966 -3.0372 -1.6386
   66ETHOX   O168206  12.415   8.840  17.847 -0.2816  0.5206  0.1773
   66ETHOX   C168207  12.347   8.797  17.968  0.3365 -0.0448  0.3506
   66ETHOX  H1168208  12.274   8.875  17.999  4.2279  3.4241  1.7046
   66ETHOX  H1368209  12.418   8.787  18.052 -0.8965 -1.5741  1.2783
   66ETHOX   C268210  12.282   8.670  17.937  0.9223  0.5907  0.2483
   66ETHOX  H2168211  12.273   8.612  18.031  1.6337  3.3529  2.1554
   66ETHOX  H2368212  12.338   8.609  17.863 -0.2967 -0.4653  0.1685
   67ETHOX   O168213  12.145   8.679  17.902 -0.0416  0.8078 -0.0680
   67ETHOX   C168214  12.124   8.727  17.771  0.2051  0.5776 -0.1180
   67ETHOX  H1168215  12.160   8.832  17.766 -1.1053  1.1098  0.9402
   67ETHOX  H1368216  12.170   8.660  17.696  0.3120  2.0074 -1.3631
   67ETHOX   C268217  11.974   8.731  17.756  0.2856  0.2993  0.6350
   67ETHOX  H2168218  11.948   8.778  17.659  0.4345 -2.5017 -0.8494
   67ETHOX  H2368219  11.916   8.793  17.828 -1.6593  0.7775 -1.2140
   68ETHOX   O168220  11.914   8.595  17.751 -0.3058  0.3066 -0.3759
   68ETHOX   C168221  11.773   8.601  17.793  0.7148 -0.4467 -0.3270
   68ETHOX  H1168222  11.739   8.496  17.799  1.6299 -0.6625  1.8207
   68ETHOX  H1368223  11.756   8.642  17.895  0.1312  1.0485 -0.9980
   68ETHOX   C268224  11.683   8.681  17.697  0.0029 -0.3055  0.6544
   68ETHOX  H2168225  11.582   8.642  17.721  0.2725  0.9669  4.5325
   68ETHOX  H2368226  11.708   8.651  17.593  2.3262  0.6646  0.8755
   69ETHOX   O168227  11.693   8.823  17.715  0.5154 -0.2493  0.6540
   69ETHOX   C168228  11.593   8.901  17.645 -0.6798  0.4177 -0.3632
   69ETHOX  H1168229  11.586   8.874  17.538 -1.0338 -0.5888 -0.0994
   69ETHOX  H1368230  11.495   8.872  17.690  0.0229  0.2892  1.1447
   69ETHOX   C268231  11.602   9.051  17.655  0.0986 -0.7864 -0.2917
   69ETHOX  H2168232  11.647   9.080  17.752  1.6262 -0.5413 -1.0353
   69ETHOX  H2368233  11.500   9.096  17.650  0.7443  0.6596 -3.2896
   70ETHOX   O168234  11.672   9.119  17.551 -0.2399 -0.7108 -0.2687
   70ETHOX   C168235  11.805   9.094  17.552 -0.6922  0.5073 -0.5906
   70ETHOX  H1168236  11.849   9.195  17.561 -1.8333  1.0515 -0.9291
   70ETHOX  H1368237  11.834   9.027  17.636  0.2404  1.5244 -0.0731
   70ETHOX   C268238  11.871   9.028  17.433  0.6685  0.2282 -0.1959
   70ETHOX  H2168239  11.821   8.935  17.400  0.1880  0.3703  0.1269
   70ETHOX  H2368240  11.974   8.998  17.463  1.1123  0.5446 -1.3201
   71ETHOX   O168241  11.875   9.125  17.331  0.1426  0.1334 -0.2757
   71ETHOX   C168242  11.953   9.081  17.222  0.1292  0.5581 -0.2394
   71ETHOX  H1168243  11.919   8.979  17.195  1.5285 -0.0285  0.0908
   71ETHOX  H1368244  12.056   9.055  17.254 -0.0256 -0.5861 -0.6259
   71ETHOX   C268245  11.982   9.183  17.116  0.3916 -0.3984  0.5102
   71ETHOX  H2168246  11.897   9.251  17.093  0.1856 -0.9303 -0.3616
   71ETHOX  H2368247  12.002   9.132  17.019  0.1820  0.6628 -0.1206
   72ETHOX   O168248  12.101   9.262  17.134  0.1282 -0.0281 -0.7997
   72ETHOX   C168249  12.131   9.348  17.026 -0.1650  0.3521 -0.1822
   72ETHOX  H1168250  12.155   9.288  16.936  1.5348  0.2633  0.2962
   72ETHOX  H1368251  12.039   9.402  16.993  0.1641  0.8111 -0.3623
   72ETHOX   C268252  12.250   9.447  17.043  0.9433 -0.5047 -0.4191
   72ETHOX  H2168253  12.226   9.509  17.132 -2.5565 -0.8273 -0.9834
   72ETHOX  H2368254  12.258   9.510  16.952 -0.0780  2.3524  1.3334
   73ETHOX   O168255  12.377   9.382  17.053  0.7339 -0.2134 -0.2936
   73ETHOX   C168256  12.472   9.478  17.097 -0.3685 -0.3463 -0.1062
   73ETHOX  H1168257  12.425   9.547  17.170  0.2359 -1.4705  1.3977
   73ETHOX  H1368258  12.511   9.538  17.012 -0.0594  0.6723  0.7477
   73ETHOX   C268259  12.587   9.393  17.150  0.2182  0.9643 -0.0710
   73ETHOX  H2168260  12.559   9.328  17.236  3.2556 -0.1587  0.1956
   73ETHOX  H2368261  12.666   9.463  17.184  0.0506  2.0650 -1.8784
   74ETHOX   O168262  12.647   9.324  17.040  0.3966  0.4705  0.1768
   74ETHOX   C168263  12.759   9.252  17.090  0.7942 -0.6601  0.0711
   74ETHOX  H1168264  12.852   9.305  17.060 -0.1414  1.3990  0.6540
   74ETHOX  H1368265  12.758   9.245  17.201  1.4710  0.7944  0.1933
   74ETHOX   C268266  12.763   9.107  17.027 -0.3024  0.1629  0.0142
   74ETHOX  H2168267  12.662   9.062  17.036 -0.0621 -0.1908  1.0725
   74ETHOX  H2368268  12.828   9.050  17.097  0.7608  1.1869 -0.1161
   75ETHOX   O168269  12.828   9.099  16.894 -0.0731  0.1128  0.0009
   75ETHOX   C168270  12.827   8.969  16.840 -0.3928 -0.1702 -0.3811
   75ETHOX  H1168271  12.864   8.980  16.736 -0.8269 -0.2883 -0.5487
   75ETHOX  H1368272  12.729   8.918  16.851 -1.4583  1.2645 -2.5296
   75ETHOX   C268273  12.935   8.880  16.904 -1.6704  0.0597 -0.5429
   75ETHOX  H2168274  13.032   8.932  16.888 -2.0618  1.3097  0.8753
   75ETHOX  H2368275  12.949   8.787  16.845  0.2950  0.0615 -0.1673
   76ETHOX   O168276  12.930   8.850  17.045  0.2700  0.3037  0.3054
   76ETHOX   C168277  12.839   8.741  17.068  0.1894 -0.2281  0.1718
   76ETHOX  H1168278  12.801   8.737  17.172  0.6131 -3.1215  0.2953
   76ETHOX  H1368279  12.761   8.756  16.990  1.6396  1.1583 -1.0660
   76ETHOX   C268280  12.920   8.617  17.059 -0.0712 -0.0446 -0.0503
   76ETHOX  H2168281  13.008   8.635  17.125 -0.8000  0.8497  0.6997
   76ETHOX  H2368282  12.968   8.603  16.960  0.9120  1.6278  0.1458
   77ETHOX   O168283  12.848   8.503  17.099 -0.1543 -0.7256  0.4027
   77ETHOX   C168284  12.894   8.389  17.035  0.0441  0.0307  0.1075
   77ETHOX  H1168285  13.003   8.387  17.057 -0.3220  1.6671  2.4022
   77ETHOX  H1368286  12.882   8.404  16.925 -0.3480  0.8189  0.2494
   77ETHOX   C268287  12.808   8.269  17.072 -0.8416 -0.3478 -0.4210
   77ETHOX  H2168288  12.800   8.256  17.182 -0.0147  1.2367 -0.1420
   77ETHOX  H2368289  12.858   8.181  17.026  3.4762  0.6945  1.7814
   78ETHOX   O168290  12.672   8.290  17.034  0.1613  0.0197 -0.3689
   78ETHOX   C168291  12.591   8.174  17.046  0.0080  0.1035  0.2594
   78ETHOX  H1168292  12.632   8.102  16.972  0.7417  1.9530 -1.2185
   78ETHOX  H1368293  12.605   8.122  17.143 -0.3420  2.1267  1.4432
   78ETHOX   C268294  12.438   8.198  17.016 -0.1192  0.4603 -0.4706
   78ETHOX  H2168295  12.384   8.101  17.014 -0.1219  0.4190  0.9896
   78ETHOX  H2368296  12.435   8.254  16.920  4.4677  0.8719 -0.5984
   79ETHOX   O168297  12.373   8.269  17.113  0.3844 -0.9497  0.3741
   79ETHOX   C168298  12.244   8.307  17.070  0.7401 -0.7798 -0.2934
   79ETHOX  H1168299  12.241   8.350  16.967  0.7533 -3.4010 -1.4650
   79ETHOX  H1368300  12.182   8.215  17.069 -1.6886  0.7695 -1.3914
   79ETHOX   C268301  12.176   8.410  17.159 -0.1441 -0.1536 -0.6767
   79ETHOX  H2168302  12.089   8.449  17.103 -0.4208 -0.5053 -0.4988
   79ETHOX  H2368303  12.253   8.490  17.167  0.6476 -0.8662 -1.0030
   80ETHOX   O168304  12.143   8.361  17.290 -0.5579 -0.2677  0.1454
   80ETHOX   C168305  12.090   8.463  17.369  0.3991 -0.1089 -1.2922
   80ETHOX  H1168306  12.168   8.542  17.376  1.9170 -1.5661 -1.1773
   80ETHOX  H1368307  11.993   8.488  17.322  0.0441 -0.3923 -0.7161
   80ETHOX   C268308  12.054   8.402  17.510  0.6425 -0.6001  0.4575
   80ETHOX  H2168309  12.020   8.484  17.578 -1.9081  0.8440 -2.3177
   80ETHOX  H2368310  12.147   8.368  17.560  0.2314 -2.2091  0.1894
   81ETHOX   O168311  11.961   8.297  17.514  0.0146  0.1261  0.1378
   81ETHOX   C168312  11.826   8.341  17.502 -0.7768 -0.2072 -0.1731
   81ETHOX  H1168313  11.790   8.397  17.591 -1.3954 -3.2580  1.6676
   81ETHOX  H1368314  11.808   8.404  17.412 -1.4659  1.5534  1.1504
   81ETHOX   C268315  11.739   8.214  17.499  0.0585  0.6000  0.6878
   81ETHOX  H2168316  11.732   8.177  17.394 -2.8157  2.8377 -0.0321
   81ETHOX  H2368317  11.790   8.145  17.570  0.3866  0.2847  0.1545
   82ETHOX   O168318  11.612   8.244  17.540  0.1756  0.0598 -0.8731
   82ETHOX   C168319  11.531   8.125  17.538 -0.2319  0.1172  0.6194
   82ETHOX  H1168320  11.594   8.052  17.593  0.8342  0.5959  0.0814
   82ETHOX  H1368321  11.502   8.090  17.437 -1.8870  1.1763  0.6888
   82ETHOX   C268322  11.402   8.133  17.626  0.5576 -0.4792 -0.0659
   82ETHOX  H2168323  11.424   8.171  17.727  0.7145 -0.6403 -0.0400
   82ETHOX  H2368324  11.360   8.031  17.640 -0.6323  0.3532  3.3090
   83ETHOX   O168325  11.291   8.201  17.575 -0.3959  0.1220  0.1618
   83ETHOX   C168326  11.234   8.132  17.463 -0.0785 -0.3310 -0.0911
   83ETHOX  H1168327  11.314   8.107  17.390  0.9742  0.9189  0.6034
   83ETHOX  H1368328  11.210   8.033  17.507 -1.7707  1.1545  2.6478
   83ETHOX   C268329  11.103   8.198  17.403 -0.2680 -0.5922 -0.6581
   83ETHOX  H2168330  11.041   8.224  17.491  2.1485  3.5236  0.1222
   83ETHOX  H2368331  11.060   8.110  17.351 -1.0701 -0.9532  0.5849
   84ETHOX   O168332  11.093   8.302  17.304 -0.3843 -0.1477  0.2254
   84ETHOX   C168333  11.143   8.434  17.343  0.1886  1.3519 -0.1475
   84ETHOX  H1168334  11.249   8.410  17.364 -0.5946 -3.3072 -0.3742
   84ETHOX  H1368335  11.099   8.467  17.440  0.6979 -1.1231  1.0238
   84ETHOX   C268336  11.135   8.537  17.234  0.4853  0.3488  0.7146
   84ETHOX  H2168337  11.186   8.499  17.143 -2.7861 -0.7128 -0.8073
   84ETHOX  H2368338  11.178   8.632  17.274 -1.2199  1.2446  0.5084
   85ETHOX   O168339  11.003   8.550  17.185  0.3079 -0.0217  0.1710
   85ETHOX   C168340  10.985   8.669  17.104 -0.5015  0.3211 -0.9017
   85ETHOX  H1168341  11.024   8.755  17.163 -0.7775 -1.0117  1.3747
   85ETHOX  H1368342  11.049   8.665  17.014 -1.6259 -4.4061 -1.7231
   85ETHOX   C268343  10.839   8.683  17.057 -0.4404 -0.2028  0.1487
   85ETHOX  H2168344  10.796   8.583  17.034  0.4845 -1.5100  3.5055
   85ETHOX  H2368345  10.839   8.763  16.980 -0.0880 -2.4364 -2.3151
   86ETHOX   O168346  10.773   8.730  17.176 -0.0627 -0.3488  0.1182
   86ETHOX   C168347  10.649   8.782  17.132 -0.0243  0.3631  0.2089
   86ETHOX  H1168348  10.584   8.695  17.108  1.0450  0.1017 -1.9445
   86ETHOX  H1368349  10.657   8.835  17.035  0.0575 -0.9789 -0.5371
   86ETHOX   C268350  10.576   8.867  17.236 -1.1251  0.4075 -0.6019
   86ETHOX  H2168351  10.586   8.814  17.333 -1.3475 -1.7600 -1.7071
   86ETHOX  H2368352  10.472   8.861  17.199 -0.1935 -0.6131 -3.2395
   87ETHOX   O168353  10.614   9.000  17.245  0.4610  0.4118  0.2062
   87ETHOX   C168354  10.569   9.063  17.367  0.0626 -0.5995  0.8720
   87ETHOX  H1168355  10.464   9.042  17.396  0.2805 -0.7318  1.6009
   87ETHOX  H1368356  10.641   9.026  17.444  0.1185  0.1153  1.1676
   87ETHOX   C268357  10.577   9.213  17.338  0.4096  0.4086 -0.3944
   87ETHOX  H2168358  10.669   9.241  17.282  0.4553  1.8914  0.3702
   87ETHOX  H2368359  10.562   9.266  17.434  0.5008 -1.3190  0.5964
   88ETHOX   O168360  10.485   9.259  17.249  0.0347  0.3707  0.1525
   88ETHOX   C168361  10.498   9.400  17.205  0.0998  0.3204  0.2346
   88ETHOX  H1168362  10.599   9.443  17.223 -0.1272  0.5885  0.9171
   88ETHOX  H1368363  10.435   9.460  17.275  2.9354  1.9026  1.6067
   88ETHOX   C268364  10.463   9.427  17.058 -0.5784  0.8765  0.5281
   88ETHOX  H2168365  10.457   9.538  17.051  0.6960  1.1895  3.3218
   88ETHOX  H2368366  10.367   9.372  17.045 -0.2524  0.9873 -3.8736
   89ETHOX   O168367  10.561   9.378  16.973  0.1152 -0.3854 -0.8176
   89ETHOX   C168368  10.507   9.360  16.841 -0.5366  0.3718  0.1502
   89ETHOX  H1168369  10.404   9.318  16.843  0.1936 -1.4928  0.9885
   89ETHOX  H1368370  10.503   9.461  16.796 -0.9166 -0.8145 -2.7779
   89ETHOX   C268371  10.598   9.269  16.755 -0.4954 -0.3133  0.0170
   89ETHOX  H2168372  10.543   9.241  16.662 -1.4840  2.1796 -0.2056
   89ETHOX  H2368373  10.617   9.169  16.800 -0.7427 -1.1292 -1.5756
   90ETHOX   O168374  10.727   9.319  16.713  0.4212  0.0300  0.2523
   90ETHOX   C168375  10.790   9.232  16.622 -0.0322 -0.7454 -0.3383
   90ETHOX  H1168376  10.794   9.135  16.677 -2.2815 -0.0516  1.1805
   90ETHOX  H1368377  10.739   9.219  16.524  2.0756 -0.9943 -1.4547
   90ETHOX   C268378  10.924   9.308  16.606 -0.2500  0.2264 -0.0429
   90ETHOX  H2168379  10.992   9.251  16.539  0.4855  1.7466 -0.6455
   90ETHOX  H2368380  10.972   9.315  16.706 -1.7010 -0.8409  0.7723
   91ETHOX   O168381  10.914   9.438  16.549  0.1898 -0.2936 -0.5434
   91ETHOX   C168382  11.042   9.500  16.548 -0.2901 -0.0022  0.4213
   91ETHOX  H1168383  11.100   9.455  16.631 -1.3484 -1.1674  0.5559
   91ETHOX  H1368384  11.095   9.469  16.455  0.2582 -1.2826  1.1201
   91ETHOX   C268385  11.022   9.647  16.550  0.4032 -0.2452  0.1699
   91ETHOX  H2168386  11.117   9.698  16.520 -0.5277  1.0199 -0.7565
   91ETHOX  H2368387  10.995   9.681  16.653  1.7619 -0.6266  0.6738
   92ETHOX   O168388  10.920   9.695  16.464  0.0573  0.5840 -0.0402
   92ETHOX   C168389  10.964   9.680  16.327  0.3023 -0.0711  0.1137
   92ETHOX  H1168390  11.059   9.737  16.322 -0.0370  0.5236  0.2773
   92ETHOX  H1368391  10.978   9.577  16.289 -0.3509  0.4052 -1.5308
   92ETHOX   C268392  10.860   9.751  16.238 -0.4282 -0.5240 -0.3222
   92ETHOX  H2168393  10.763   9.702  16.260 -0.8490  0.7576  0.8957
   92ETHOX  H2368394  10.879   9.743  16.129  0.7871 -0.2400 -0.1538
   93ETHOX   O168395  10.838   9.878  16.276 -0.1989 -0.0216 -0.2253
   93ETHOX   C168396  10.752   9.934  16.181  0.7204  0.0309 -0.4661
   93ETHOX  H1168397  10.666   9.865  16.169  2.0890 -2.0832  1.2389
   93ETHOX  H1368398  10.814   9.948  16.090  0.2314  1.4511 -0.6014
   93ETHOX   C268399  10.693  10.073  16.222 -0.1651  1.1080 -0.3316
   93ETHOX  H2168400  10.635  10.050  16.314  2.8951 -0.7388  1.2741
   93ETHOX  H2368401  10.629  10.103  16.136  1.5362  2.2032 -1.2744
   94ETHOX   O168402  10.786  10.177  16.233 -0.1379 -0.7028 -0.0276
   94ETHOX   C168403  10.733  10.289  16.281  0.6680 -0.8196  0.0984
   94ETHOX  H1168404  10.638  10.310  16.228 -0.4381 -3.6446  0.7523
   94ETHOX  H1368405  10.702  10.280  16.388  0.8658  2.4048  0.5323
   94ETHOX   C268406  10.819  10.409  16.260 -0.1713 -0.0068  0.3658
   94ETHOX  H2168407  10.754  10.495  16.290  0.0868  0.0250  0.8374
   94ETHOX  H2368408  10.844  10.417  16.152  1.6393  0.6541  0.8049
   95ETHOX   O168409  10.936  10.412  16.340  0.0019 -0.0276 -0.1763
   95ETHOX   C168410  11.058  10.379  16.277 -0.7571 -0.5176  0.8571
   95ETHOX  H1168411  11.068  10.456  16.198  2.2241  0.0074  1.6205
   95ETHOX  H1368412  11.056  10.272  16.247  2.1375 -1.4289  3.4271
   95ETHOX   C268413  11.179  10.378  16.377 -0.0709 -0.0761 -0.1049
   95ETHOX  H2168414  11.256  10.302  16.350 -0.5272 -0.2406 -0.9623
   95ETHOX  H2368415  11.152  10.338  16.478  2.1209 -2.3003 -0.2865
   96ETHOX   O168416  11.246  10.501  16.384 -0.2935  0.0006 -0.4486
   96ETHOX   C168417  11.252  10.551  16.514 -0.4098 -0.8712 -0.3805
   96ETHOX  H1168418  11.281  10.658  16.507 -0.2109 -0.7288  2.0172
   96ETHOX  H1368419  11.157  10.545  16.571 -0.5082  2.9135  0.1054
   96ETHOX   C268420  11.367  10.487  16.596 -0.4907 -0.0184  0.2301
   96ETHOX  H2168421  11.370  10.378  16.575 -2.1863 -0.2672  1.1280
   96ETHOX  H2368422  11.352  10.500  16.706  0.9776 -1.0925  0.5873
   97ETHOX   O168423  11.494  10.535  16.559 -0.0993 -0.1528 -0.4214
   97ETHOX   C168424  11.604  10.471  16.636 -0.4855  0.2458  0.2747
   97ETHOX  H1168425  11.595  10.372  16.586 -0.6278  1.2608 -1.8313
   97ETHOX  H1368426  11.581  10.467  16.744  1.0890 -0.2546  0.6175
   97ETHOX   C268427  11.744  10.515  16.591  0.2941  0.1785 -0.2435
   97ETHOX  H2168428  11.815  10.464  16.660  0.7323 -0.9576 -1.5060
   97ETHOX  H2368429  11.749  10.625  16.609 -1.2904  0.0338  1.2910
   98ETHOX   O168430  11.780  10.484  16.459  0.3118 -0.3864 -0.6346
   98ETHOX   C168431  11.918  10.507  16.432  0.0650  0.7308 -0.7785
   98ETHOX  H1168432  11.945  10.613  16.451  1.2775 -0.0133  2.1783
   98ETHOX  H1368433  11.972  10.456  16.514 -1.0663  3.1255  1.6160
   98ETHOX   C268434  11.965  10.447  16.302 -0.1305  0.5101 -0.8659
   98ETHOX  H2168435  11.894  10.363  16.287  0.9153 -0.4187 -0.7752
   98ETHOX  H2368436  12.066  10.401  16.307 -1.6006 -2.9892  0.4391
   99ETHOX   O168437  11.945  10.548  16.199  0.4553  0.1428  0.5973
   99ETHOX   C168438  11.910  10.491  16.073  1.2437 -0.0541 -0.0542
   99ETHOX  H1168439  11.824  10.421  16.081  1.9430 -1.0037 -0.6729
   99ETHOX  H1368440  11.991  10.427  16.032 -0.4922 -0.8285 -2.5814
   99ETHOX   C268441  11.874  10.604  15.965  0.6907 -0.3163 -0.6035
   99ETHOX  H2168442  11.804  10.676  16.011 -0.0118 -1.8713  0.8734
   99ETHOX  H2368443  11.817  10.558  15.882  0.0174  0.3850 -0.5367
  100ETHOX   O168444  11.997  10.671  15.915 -0.1402  0.3380 -0.1599
  100ETHOX   C168445  11.967  10.789  15.850  0.4000  0.4136  0.1508
  100ETHOX  H1168446  11.887  10.774  15.774  0.2272 -0.2713  0.4561
  100ETHOX  H1368447  11.915  10.848  15.927 -1.6908 -0.6904 -0.3452
  100ETHOX   C268448  12.083  10.867  15.800 -0.3697 -0.4616  0.0842
  100ETHOX  H2168449  12.181  10.829  15.836 -0.2312 -0.9468 -0.7755
  100ETHOX  H2368450  12.069  10.972  15.835  1.0766 -0.3708  0.4482
  101PROXS   O168451  12.094  10.875  15.660  0.0139  0.1419 -0.6618
  101PROXS   C168452  12.195  10.965  15.618  0.2979 -0.5373  0.8703
  101PROXS  H1168453  12.162  11.071  15.631 -2.8757 -1.1579 -1.0495
  101PROXS  H1368454  12.291  10.949  15.671  0.8451 -2.0110 -0.5015
  101PROXS   C268455  12.234  10.948  15.467  0.5709  0.4612  0.0051
  101PROXS  H2168456  12.146  10.960  15.400 -0.6696 -1.9335  1.0987
  101PROXS   C368457  12.289  10.803  15.439  0.0101 -0.3345  0.2724
  101PROXS  H3168458  12.382  10.792  15.499 -0.4952  1.3231  1.4344
  101PROXS  H3268459  12.225  10.716  15.463  0.7243 -0.5730  1.3860
  101PROXS  H3368460  12.319  10.795  15.332 -0.6501  0.7616 -0.0086
  102PROXS   O168461  12.340  11.036  15.430  0.2475 -0.3136 -0.3899
  102PROXS   C168462  12.293  11.169  15.410 -0.5614  0.6056 -0.2810
  102PROXS  H1168463  12.183  11.180  15.412 -0.4167  2.6216 -0.7340
  102PROXS  H1368464  12.313  11.226  15.503 -0.9181  2.8354 -1.4870
  102PROXS   C268465  12.373  11.228  15.290  0.1258  0.0830  0.0317
  102PROXS  H2168466  12.336  11.192  15.191  3.0758 -0.4541 -0.9802
  102PROXS   C368467  12.525  11.194  15.294 -0.0246 -0.3022 -0.1785
  102PROXS  H3168468  12.541  11.085  15.311 -1.3514 -0.5495 -0.4075
  102PROXS  H3268469  12.576  11.232  15.204 -1.2339 -0.1838 -0.8355
  102PROXS  H3368470  12.574  11.238  15.384 -0.1061 -0.5454 -0.0132
  103PROXR   O168471  12.366  11.372  15.286  0.2323 -0.3555  0.0517
  103PROXR   C168472  12.240  11.416  15.236 -0.6027 -1.2718  0.6049
  103PROXR  H1168473  12.240  11.378  15.131 -0.3133  1.9223 -0.6693
  103PROXR  H1368474  12.150  11.378  15.288 -1.8232  0.7221  0.0730
  103PROXR   C268475  12.247  11.567  15.211 -1.0174  0.1386  0.4634
  103PROXR  H2168476  12.348  11.587  15.170 -1.7622  3.3447 -0.1221
  103PROXR   C368477  12.243  11.637  15.344  0.3960  0.3362  0.2310
  103PROXR  H3168478  12.218  11.745  15.348 -1.0657  0.0141  0.4937
  103PROXR  H3268479  12.172  11.589  15.415 -0.4667  2.8170  1.1432
  103PROXR  H3368480  12.345  11.627  15.386  0.5541 -2.1125 -0.5624
  104PROXS   O168481  12.151  11.602  15.118 -0.0087  0.2841  0.5171
  104PROXS   C168482  12.167  11.730  15.059 -0.0540  0.1743 -0.4326
  104PROXS  H1168483  12.147  11.811  15.133  0.8108 -0.1617  0.1929
  104PROXS  H1368484  12.269  11.742  15.018 -0.1691 -1.4535 -1.2602
  104PROXS   C268485  12.069  11.751  14.941  0.0138  0.0352  0.7043
  104PROXS  H2168486  12.085  11.856  14.909  0.3656 -0.1405  0.2895
  104PROXS   C368487  11.926  11.740  14.978  0.3818 -0.2241  0.2096
  104PROXS  H3168488  11.842  11.776  14.915 -0.2229  0.1397  1.2010
  104PROXS  H3268489  11.895  11.641  15.018 -2.0955  0.3844 -0.0165
  104PROXS  H3368490  11.911  11.806  15.065 -1.8944  0.3215 -0.5211
  105PROXS   O168491  12.099  11.654  14.842  0.1422  0.1552 -0.0527
  105PROXS   C168492  12.078  11.713  14.717 -0.3476  0.1307 -0.4982
  105PROXS  H1168493  11.995  11.786  14.713 -0.0601  0.4404 -3.1142
  105PROXS  H1368494  12.171  11.766  14.688  1.2944 -1.1875  1.9752
  105PROXS   C268495  12.054  11.617  14.596  0.3601  0.7622  0.8167
  105PROXS  H2168496  12.134  11.540  14.593  0.2262  0.6347  0.5246
  105PROXS   C368497  12.057  11.695  14.465 -0.0051  0.7203 -0.2551
  105PROXS  H3168498  12.029  11.633  14.378  0.1910  0.7068 -0.3098
  105PROXS  H3268499  11.971  11.765  14.475 -0.3003  0.0907  2.3079
  105PROXS  H3368500  12.152  11.753  14.461  0.3850  0.2479  1.2606
  106PROXS   O168501  11.925  11.556  14.607 -0.3604 -0.4155  0.2780
  106PROXS   C168502  11.937  11.429  14.655 -0.6581 -0.2838  0.1866
  106PROXS  H1168503  12.008  11.363  14.602 -0.5150 -0.8448  1.0486
  106PROXS  H1368504  11.969  11.429  14.762 -0.0244  0.3724  0.0107
  106PROXS   C268505  11.795  11.364  14.676 -0.0915  0.2998  0.1760
  106PROXS  H2168506  11.734  11.377  14.584 -2.0756 -2.4392  0.9797
  106PROXS   C368507  11.717  11.432  14.789  0.1153 -0.2061 -0.3297
  106PROXS  H3168508  11.608  11.442  14.772 -0.1802  0.5809  1.7062
  106PROXS  H3268509  11.747  11.382  14.884 -1.5368  0.6725  0.7020
  106PROXS  H3368510  11.762  11.531  14.809  2.5971 -1.3421  0.0377
  107PROXR   O168511  11.813  11.221  14.703 -0.8025 -0.2537 -0.0759
  107PROXR   C168512  11.742  11.141  14.608  0.4590  0.2603  0.4457
  107PROXR  H1168513  11.645  11.182  14.574  1.7682  2.9417 -0.3376
  107PROXR  H1368514  11.804  11.141  14.515 -0.0236 -1.9099  0.0511
  107PROXR   C268515  11.728  10.996  14.656 -0.1470 -0.0334 -0.2985
  107PROXR  H2168516  11.657  10.989  14.741  3.2308 -2.4319  2.6752
  107PROXR   C368517  11.858  10.940  14.699 -0.2677 -0.1760  0.0783
  107PROXR  H3168518  11.845  10.856  14.771  0.5255  0.3158  0.8135
  107PROXR  H3268519  11.916  10.902  14.612 -1.5998  1.2199 -1.4767
  107PROXR  H3368520  11.926  11.014  14.746 -0.4277  0.6138 -0.9240
  108PROXS   O168521  11.691  10.914  14.548  0.6748  0.1577  0.4373
  108PROXS   C168522  11.547  10.917  14.520 -0.3088 -0.1268 -0.1754
  108PROXS  H1168523  11.506  10.871  14.613  2.0611 -0.9024  0.5905
  108PROXS  H1368524  11.507  11.020  14.508 -0.7476 -0.2436  0.2570
  108PROXS   C268525  11.494  10.824  14.406 -0.1538 -1.2271  0.1518
  108PROXS  H2168526  11.520  10.717  14.421 -1.3202 -1.6550 -0.7141
  108PROXS   C368527  11.544  10.883  14.275  0.2272 -0.1320 -0.2605
  108PROXS  H3168528  11.530  10.992  14.258 -0.1133  0.3257  2.5108
  108PROXS  H3268529  11.654  10.865  14.277  0.1998 -0.2845 -0.1785
  108PROXS  H3368530  11.506  10.827  14.186  1.1826  1.4889 -1.7585
  109PROXS   O168531  11.354  10.832  14.398 -0.3402 -0.6273  0.0191
  109PROXS   C168532  11.280  10.753  14.492  0.0147  0.5359  0.3869
  109PROXS  H1168533  11.355  10.705  14.558  0.1096  0.5160  0.2666
  109PROXS  H1368534  11.229  10.830  14.554 -0.7738 -0.5173  1.0676
  109PROXS   C268535  11.170  10.659  14.431 -0.5697 -0.3392 -0.0857
  109PROXS  H2168536  11.095  10.717  14.373 -0.6405 -0.7641 -0.4235
  109PROXS   C368537  11.099  10.584  14.543 -0.6272 -0.6001 -0.3591
  109PROXS  H3168538  11.027  10.512  14.501 -1.4681  0.7916 -1.3958
  109PROXS  H3268539  11.178  10.538  14.605 -0.6917 -1.4763 -0.9190
  109PROXS  H3368540  11.049  10.652  14.615 -1.2797  2.8788 -3.7663
  110PROXR   O168541  11.225  10.558  14.339  0.0769  0.6140  0.1076
  110PROXR   C168542  11.234  10.609  14.209 -0.4283  0.1707  0.3520
  110PROXR  H1168543  11.139  10.613  14.152  0.1486 -0.0112 -0.6440
  110PROXR  H1368544  11.280  10.711  14.214 -0.5759  0.2677 -0.2901
  110PROXR   C268545  11.327  10.516  14.129 -0.1390  0.7480  0.2792
  110PROXR  H2168546  11.286  10.414  14.145 -0.9226  0.8705 -0.8247
  110PROXR   C368547  11.472  10.521  14.189  0.2813  0.1464 -0.1396
  110PROXR  H3168548  11.524  10.605  14.139  0.5592  1.1202  1.7217
  110PROXR  H3268549  11.452  10.539  14.296 -0.4928  2.5979 -0.6281
  110PROXR  H3368550  11.536  10.433  14.167 -0.7514 -0.2995 -1.5225
  111PROXS   O168551  11.330  10.546  13.988 -0.2593  0.0874  0.1422
  111PROXS   C168552  11.412  10.450  13.920  0.1076  0.2200 -0.0808
  111PROXS  H1168553  11.519  10.479  13.916  0.8685 -2.3122  0.1725
  111PROXS  H1368554  11.402  10.348  13.962  2.2512 -1.0848 -2.4287
  111PROXS   C268555  11.370  10.449  13.768 -0.3138  0.4399 -0.2707
  111PROXS  H2168556  11.264  10.483  13.756 -0.7339 -0.9420 -0.5740
  111PROXS   C368557  11.379  10.309  13.714 -0.3522  0.0572 -0.1078
  111PROXS  H3168558  11.480  10.264  13.727 -1.2788 -1.8513  0.7307
  111PROXS  H3268559  11.306  10.239  13.759  0.4747  0.2906  1.7099
  111PROXS  H3368560  11.363  10.311  13.604  1.5532 -2.2077 -0.4972
  112PROXR   O168561  11.457  10.532  13.691  0.5289 -0.2661  0.2531
  112PROXR   C168562  11.399  10.657  13.658 -1.0384 -0.8679 -0.2952
  112PROXR  H1168563  11.315  10.633  13.589 -2.1822  0.0977  0.7196
  112PROXR  H1368564  11.349  10.709  13.742 -1.6719 -0.3591 -0.9638
  112PROXR   C268565  11.510  10.733  13.584 -0.6790  0.4731  0.0861
  112PROXR  H2168566  11.567  10.677  13.507  0.2627 -0.2137  1.2661
  112PROXR   C368567  11.615  10.766  13.699 -0.0733  0.1890  0.7738
  112PROXR  H3168568  11.650  10.667  13.737 -0.5875  0.0007  0.7595
  112PROXR  H3268569  11.697  10.830  13.660 -0.8314  2.1210  2.1863
  112PROXR  H3368570  11.569  10.807  13.791  1.1567 -0.6344  1.7931
  113PROXS   O168571  11.451  10.851  13.532 -0.3354 -0.3108  0.0149
  113PROXS   C168572  11.542  10.929  13.449  0.2612  0.6934  0.0038
  113PROXS  H1168573  11.618  10.968  13.520  0.5831  0.9569 -0.4802
  113PROXS  H1368574  11.586  10.861  13.372  0.4529  0.1864  0.5470
  113PROXS   C268575  11.476  11.052  13.385  0.0149  0.6507  0.4135
  113PROXS  H2168576  11.435  11.121  13.462  1.4855  0.5388  1.3217
  113PROXS   C368577  11.360  11.002  13.295  0.5947  0.3703  0.2491
  113PROXS  H3168578  11.404  10.945  13.210  2.4021  0.8659  0.7930
  113PROXS  H3268579  11.287  10.937  13.347 -2.0918  1.3079 -2.1100
  113PROXS  H3368580  11.304  11.082  13.242  1.4099 -0.4307 -1.9514
  114PROXR   O168581  11.573  11.128  13.322  0.4918  0.0431  0.0304
  114PROXR   C168582  11.513  11.250  13.276  0.4169  0.3093 -0.1226
  114PROXR  H1168583  11.454  11.228  13.184  2.9139  1.6913 -2.2235
  114PROXR  H1368584  11.447  11.299  13.351  0.4119  0.7711 -0.4213
  114PROXR   C268585  11.631  11.346  13.230 -0.1377 -0.3666 -0.2697
  114PROXR  H2168586  11.688  11.293  13.151 -0.6192 -0.7221 -0.3823
  114PROXR   C368587  11.724  11.377  13.347 -0.5561 -0.1712 -0.1076
  114PROXR  H3168588  11.675  11.426  13.434 -0.9700 -1.4271  0.3756
  114PROXR  H3268589  11.760  11.276  13.373  0.5411  0.4550  0.9110
  114PROXR  H3368590  11.812  11.439  13.321  0.9703 -1.6634  1.3169
  115PROXR   O168591  11.577  11.466  13.182  0.1369 -0.1681  0.4900
  115PROXR   C168592  11.667  11.550  13.111  0.1683 -0.4316 -0.4626
  115PROXR  H1168593  11.729  11.593  13.192 -1.0755 -1.5637  1.1603
  115PROXR  H1368594  11.733  11.492  13.044 -1.0754  0.0248 -2.1504
  115PROXR   C268595  11.601  11.662  13.026  0.2368 -0.1560 -0.0549
  115PROXR  H2168596  11.533  11.715  13.096  3.1227  2.6744  0.8426
  115PROXR   C368597  11.505  11.601  12.919 -0.1258  0.0687 -0.5367
  115PROXR  H3168598  11.569  11.567  12.834  0.2443  2.2465 -1.1720
  115PROXR  H3268599  11.436  11.519  12.950  0.9311 -0.7758 -0.3552
  115PROXR  H3368600  11.437  11.677  12.876 -0.2244  0.3314  0.0720
  116PROXS   O168601  11.699  11.746  12.961  0.4066 -0.1414 -0.6224
  116PROXS   C168602  11.654  11.876  12.917  0.0509  0.3419  0.4609
  116PROXS  H1168603  11.612  11.867  12.814  0.7929  0.8631  0.1025
  116PROXS  H1368604  11.566  11.900  12.980 -1.1407 -1.5378 -0.3872
  116PROXS   C268605  11.744  11.995  12.945  0.5325 -0.1418  0.4777
  116PROXS  H2168606  11.835  11.981  12.883  0.6360 -2.6332  1.0854
  116PROXS   C368607  11.775  12.000  13.098  0.2751  0.5783 -0.0356
  116PROXS  H3168608  11.676  12.010  13.148  0.0980  2.0091 -0.6126
  116PROXS  H3268609  11.820  11.905  13.133  0.5180  0.4059 -0.8030
  116PROXS  H3368610  11.845  12.077  13.136  0.1462  0.6855 -0.0126
  117PROXS   O168611  11.669  12.110  12.904 -0.4347 -0.0254  0.6989
  117PROXS   C168612  11.753  12.226  12.880 -1.0874  0.7602  0.2927
  117PROXS  H1168613  11.777  12.252  12.985 -0.4556 -0.5064  0.4836
  117PROXS  H1368614  11.832  12.190  12.810 -2.8525 -0.6953 -1.0693
  117PROXS   C268615  11.676  12.342  12.818 -0.2024  0.0167 -0.1092
  117PROXS  H2168616  11.659  12.318  12.711  0.2835 -1.9767  0.2189
  117PROXS   C368617  11.765  12.472  12.832  0.5743  0.8046 -0.3023
  117PROXS  H3168618  11.801  12.478  12.937 -0.2819  0.0948  0.0456
  117PROXS  H3268619  11.853  12.462  12.766  1.6048  1.2921  0.9486
  117PROXS  H3368620  11.724  12.573  12.806  2.0720  1.4720 -0.1707
  118PROXR   O168621  11.562  12.371  12.893  0.5500 -0.2179 -0.1796
  118PROXR   C168622  11.460  12.442  12.824  0.0883 -0.0247 -0.3708
  118PROXR  H1168623  11.474  12.550  12.799 -2.3469  0.4795  0.1636
  118PROXR  H1368624  11.441  12.388  12.729 -0.6399 -0.1905 -0.1370
  118PROXR   C268625  11.330  12.431  12.902 -0.0807 -0.3493  0.3692
  118PROXR  H2168626  11.316  12.333  12.953  1.7181 -0.9979 -0.3044
  118PROXR   C368627  11.212  12.447  12.809 -0.3730 -0.4269 -0.2845
  118PROXR  H3168628  11.202  12.359  12.742  0.5363 -0.6259 -0.1690
  118PROXR  H3268629  11.129  12.449  12.883 -0.3479  3.9570 -0.1058
  118PROXR  H3368630  11.225  12.540  12.749  2.4136 -1.4384 -1.4079
  119PROXR   O168631  11.319  12.541  12.998  0.2589  0.8043  0.3013
  119PROXR   C168632  11.419  12.531  13.098  0.4027  0.8121  0.0667
  119PROXR  H1168633  11.422  12.431  13.147 -0.7153 -0.2347 -1.8986
  119PROXR  H1368634  11.516  12.552  13.050  0.7440 -2.3942 -0.9098
  119PROXR   C268635  11.391  12.644  13.201  0.9221  0.4001  0.5336
  119PROXR  H2168636  11.306  12.622  13.270  1.4088  0.4917  1.1704
  119PROXR   C368637  11.360  12.779  13.130  0.5060 -0.3041 -0.1343
  119PROXR  H3168638  11.340  12.869  13.191  2.5159  0.1772 -0.0994
  119PROXR  H3268639  11.440  12.797  13.054 -0.5839  1.9397 -0.8426
  119PROXR  H3368640  11.271  12.755  13.068 -0.6515 -2.5793  2.2112
  120PROXS   O168641  11.505  12.662  13.279  0.4256 -0.6984  0.5004
  120PROXS   C168642  11.516  12.570  13.391 -0.6771 -0.3051  0.6735
  120PROXS  H1168643  11.429  12.588  13.457 -0.7799  1.0945  0.1893
  120PROXS  H1368644  11.520  12.467  13.348 -1.6597 -0.6615  1.3918
  120PROXS   C268645  11.644  12.600  13.458  0.3704  1.1515 -0.8690
  120PROXS  H2168646  11.650  12.710  13.477 -0.3119  0.9468  0.6541
  120PROXS   C368647  11.766  12.559  13.369 -0.2342 -0.2588 -0.0679
  120PROXS  H3168648  11.786  12.450  13.379  0.1618 -0.3013 -1.1741
  120PROXS  H3268649  11.752  12.571  13.259  1.4175 -1.3128 -0.4285
  120PROXS  H3368650  11.865  12.604  13.392 -0.8622  0.6175  0.9604
  121PROXS   O168651  11.645  12.527  13.579 -0.4339 -0.4677 -0.2056
  121PROXS   C168652  11.745  12.573  13.663 -0.3753  0.5530  0.2330
  121PROXS  H1168653  11.844  12.569  13.612  1.1072  1.0138  2.8554
  121PROXS  H1368654  11.727  12.677  13.697  2.2688  1.2713 -0.3507
  121PROXS   C268655  11.760  12.474  13.784 -0.2851 -1.1699 -0.2544
  121PROXS  H2168656  11.658  12.462  13.827  0.3010  0.1919  1.6508
  121PROXS   C368657  11.870  12.503  13.892  0.4475  0.0598 -0.1459
  121PROXS  H3168658  11.960  12.528  13.832  0.0629 -1.7967 -1.5861
  121PROXS  H3268659  11.828  12.589  13.950  0.4733  2.6398 -3.6639
  121PROXS  H3368660  11.895  12.413  13.953  2.6652 -0.9032 -2.3482
  122PROXS   O168661  11.805  12.353  13.736  0.3293  0.2144 -0.0814
  122PROXS   C168662  11.698  12.261  13.733  0.6287 -0.0519 -0.0677
  122PROXS  H1168663  11.675  12.221  13.834 -0.3746 -0.3951 -0.4244
  122PROXS  H1368664  11.612  12.318  13.692 -0.3136 -0.9390  0.6317
  122PROXS   C268665  11.749  12.148  13.643 -0.6758 -0.0654 -0.2045
  122PROXS  H2168666  11.844  12.106  13.681  0.0300  2.3317  0.8575
  122PROXS   C368667  11.782  12.189  13.494  0.4031 -0.7401 -0.4242
  122PROXS  H3168668  11.779  12.100  13.428  0.0396 -0.9486 -0.1262
  122PROXS  H3268669  11.698  12.256  13.467  0.2522 -0.7841 -0.0648
  122PROXS  H3368670  11.875  12.251  13.492 -0.4857  0.6718  0.1996
  123PROXS   O168671  11.650  12.047  13.639  0.5365  0.4074  0.2755
  123PROXS   C168672  11.690  11.921  13.586 -0.5093  0.3460 -0.4837
  123PROXS  H1168673  11.793  11.925  13.544  0.3608 -1.5358  1.3088
  123PROXS  H1368674  11.700  11.854  13.674 -0.4925  1.5955  0.4962
  123PROXS   C268675  11.590  11.866  13.482  0.1318  0.5735 -0.5141
  123PROXS  H2168676  11.494  11.840  13.531  1.2072 -1.1537  0.7797
  123PROXS   C368677  11.651  11.748  13.406 -0.5151  0.4258  0.0022
  123PROXS  H3168678  11.757  11.764  13.377  0.4069 -2.0257  1.6541
  123PROXS  H3268679  11.653  11.655  13.468 -2.0395 -0.3577 -1.0521
  123PROXS  H3368680  11.589  11.720  13.318  1.4621  0.1397 -1.3627
  124PROXR   O168681  11.560  11.967  13.386  0.2496 -0.0380 -0.1342
  124PROXR   C168682  11.451  11.944  13.301 -0.3410  0.2981 -0.0959
  124PROXR  H1168683  11.491  11.894  13.210  0.6680 -2.9006  1.9222
  124PROXR  H1368684  11.387  11.864  13.344  1.2132  0.3178  2.4459
  124PROXR   C268685  11.366  12.073  13.265 -0.2589  0.6939 -0.1724
  124PROXR  H2168686  11.438  12.147  13.224 -0.5216  2.6801  2.6705
  124PROXR   C368687  11.291  12.124  13.394 -0.1466  0.2510  0.0924
  124PROXR  H3168688  11.232  12.041  13.437 -1.1971  1.8765  1.9568
  124PROXR  H3268689  11.363  12.154  13.474 -1.4304 -2.3587  2.3965
  124PROXR  H3368690  11.230  12.213  13.369  0.2249 -0.2563 -2.9186
  125PROXS   O168691  11.270  12.041  13.164 -0.0033 -0.6702  0.0653
  125PROXS   C168692  11.325  12.004  13.037 -0.0942  0.3198 -0.2674
  125PROXS  H1168693  11.404  12.069  12.994 -0.0478  0.9029  0.6497
  125PROXS  H1368694  11.367  11.901  13.039  0.4739  0.5132 -1.3199
  125PROXS   C268695  11.212  11.989  12.932  0.2543  0.5037  0.6750
  125PROXS  H2168696  11.139  12.073  12.938  0.2753  0.5107  0.8263
  125PROXS   C368697  11.118  11.871  12.962  0.2380 -0.4897  0.3890
  125PROXS  H3168698  11.045  11.861  12.879 -0.4925  0.4093  0.9023
  125PROXS  H3268699  11.168  11.772  12.972 -1.0314 -1.2048 -0.1807
  125PROXS  H3368700  11.062  11.890  13.056  0.5171 -0.9961  0.6612
  126PROXS   O168701  11.265  11.963  12.797  0.0335  0.0620  0.1048
  126PROXS   C168702  11.292  12.088  12.736 -0.0297 -0.8224 -0.1387
  126PROXS  H1168703  11.203  12.152  12.719  0.4135 -0.0766  0.3231
  126PROXS  H1368704  11.366  12.146  12.794 -0.7269  0.2946 -0.3297
  126PROXS   C268705  11.348  12.072  12.593  0.1633 -0.2428 -0.8331
  126PROXS  H2168706  11.264  12.030  12.533 -0.8941  0.8826 -0.1965
  126PROXS   C368707  11.480  11.988  12.589 -0.1565 -0.4335 -0.3698
  126PROXS  H3168708  11.520  11.986  12.486 -0.7823  2.1817 -0.7385
  126PROXS  H3268709  11.557  12.046  12.643 -1.4173  0.4257  0.5872
  126PROXS  H3368710  11.466  11.894  12.647 -0.6361  1.3675  2.6866
  127PROXR   O168711  11.378  12.203  12.542  0.1174  0.7467  0.0494
  127PROXR   C168712  11.358  12.206  12.400 -0.3998 -0.0690 -0.1936
  127PROXR  H1168713  11.408  12.118  12.354 -0.3465  0.0909 -0.4435
  127PROXR  H1368714  11.250  12.206  12.375 -0.2719  2.2468 -0.9514
  127PROXR   C268715  11.415  12.341  12.357  0.4807 -1.2301 -1.0108
  127PROXR  H2168716  11.507  12.368  12.413 -0.3160  0.4941 -0.4827
  127PROXR   C368717  11.302  12.442  12.374  0.0049  1.1823 -0.0151
  127PROXR  H3168718  11.210  12.409  12.323  0.2950 -0.4549  0.4814
  127PROXR  H3268719  11.273  12.449  12.481 -0.3730  0.8078 -0.0906
  127PROXR  H3368720  11.338  12.545  12.349  0.3963  1.4766  1.6484
  128PROXR   O168721  11.443  12.347  12.215 -0.3831  0.3252 -0.4469
  128PROXR   C168722  11.573  12.292  12.178  0.6422 -0.1936 -0.2106
  128PROXR  H1168723  11.597  12.197  12.230  2.0599  0.8261  1.0841
  128PROXR  H1368724  11.568  12.269  12.069 -0.1493  0.6633 -0.3667
  128PROXR   C268725  11.685  12.398  12.214 -0.1423  0.3244  0.2122
  128PROXR  H2168726  11.689  12.417  12.323  2.1684 -1.7612  0.5662
  128PROXR   C368727  11.667  12.539  12.154 -0.2078  0.2234  0.1575
  128PROXR  H3168728  11.693  12.539  12.046 -3.7667  0.9798 -0.8353
  128PROXR  H3268729  11.561  12.574  12.149  0.4526  2.0891 -2.5424
  128PROXR  H3368730  11.728  12.607  12.217 -0.1314 -0.9981  1.4691
  129PROXS   O168731  11.817  12.344  12.198 -0.0373  0.6601  0.9237
  129PROXS   C168732  11.866  12.335  12.062  0.0727  0.1577 -0.4382
  129PROXS  H1168733  11.781  12.319  11.993 -0.8728  2.1728  0.2054
  129PROXS  H1368734  11.933  12.421  12.046  1.1841 -0.0106  2.6734
  129PROXS   C268735  11.958  12.211  12.047 -0.1032 -0.6157  0.0378
  129PROXS  H2168736  12.033  12.219  12.129  0.7324  1.5105 -0.8556
  129PROXS   C368737  12.034  12.219  11.909  0.2829  0.1542  0.0188
  129PROXS  H3168738  12.094  12.126  11.907 -1.7250 -1.2429  1.4006
  129PROXS  H3268739  11.965  12.220  11.822 -1.3356  1.1551  1.2461
  129PROXS  H3368740  12.110  12.297  11.932 -0.4582  0.1434  2.9331
  130PROXS   O168741  11.885  12.090  12.049 -0.0499 -0.2105  0.2604
  130PROXS   C168742  11.861  12.041  12.182 -0.5806 -0.7314  0.9677
  130PROXS  H1168743  11.955  12.024  12.239  0.4963  1.0632 -0.2051
  130PROXS  H1368744  11.799  12.107  12.246  1.0182  1.4277  0.3846
  130PROXS   C268745  11.809  11.894  12.166  0.3646  0.3993  0.1720
  130PROXS  H2168746  11.892  11.837  12.120  0.8537 -1.5299  3.1456
  130PROXS   C368747  11.676  11.879  12.086 -0.2920 -0.0949 -0.2300
  130PROXS  H3168748  11.672  11.779  12.038  0.1549  0.6733 -1.9369
  130PROXS  H3268749  11.587  11.884  12.152 -0.7596 -0.2280 -0.8391
  130PROXS  H3368750  11.676  11.952  12.002  2.2204  0.8935  0.5312
  131PROXS   O168751  11.790  11.834  12.294  0.1273 -0.3461  0.1263
  131PROXS   C168752  11.916  11.780  12.334  0.1214  0.7134 -0.0319
  131PROXS  H1168753  11.962  11.713  12.258  0.0523 -0.0905  0.6106
  131PROXS  H1368754  11.986  11.862  12.361  0.3913  0.0756  1.3085
  131PROXS   C268755  11.894  11.694  12.463 -0.1524  0.2025 -0.2859
  131PROXS  H2168756  11.844  11.599  12.434  2.9948 -1.9620  0.7709
  131PROXS   C368757  11.811  11.771  12.567 -0.1693 -0.1338  0.2074
  131PROXS  H3168758  11.810  11.712  12.661  0.6011 -0.7616 -0.1621
  131PROXS  H3268759  11.851  11.874  12.577  0.2521  0.0475 -2.5277
  131PROXS  H3368760  11.708  11.796  12.532 -0.6097 -1.1032  0.7558
  132PROXS   O168761  12.018  11.657  12.515 -0.5063  0.0365 -0.2253
  132PROXS   C168762  12.071  11.547  12.456  0.1899  0.0262  0.3883
  132PROXS  H1168763  12.058  11.458  12.521  0.6905 -0.0304  0.4155
  132PROXS  H1368764  12.027  11.541  12.354 -0.0083  0.4529  0.4476
  132PROXS   C268765  12.225  11.562  12.444 -0.1775 -0.7232  0.5374
  132PROXS  H2168766  12.277  11.572  12.541 -3.7030 -1.3592  2.6946
  132PROXS   C368767  12.268  11.683  12.358 -0.0935  0.3047 -0.5088
  132PROXS  H3168768  12.374  11.712  12.367  0.4216 -1.7218  0.6608
  132PROXS  H3268769  12.238  11.669  12.251  0.4223 -1.5665 -0.4527
  132PROXS  H3368770  12.208  11.770  12.392 -1.4104  0.7142 -3.5401
  133PROXS   O168771  12.280  11.450  12.376 -0.2366 -0.3281 -0.9459
  133PROXS   C168772  12.273  11.329  12.451  0.2446 -0.1992 -0.1782
  133PROXS  H1168773  12.301  11.349  12.557  0.9984  0.2415 -0.4541
  133PROXS  H1368774  12.170  11.289  12.454  0.1354  0.0823 -0.0769
  133PROXS   C268775  12.364  11.228  12.389 -0.5109  0.2356  0.2083
  133PROXS  H2168776  12.464  11.247  12.432 -0.6061 -0.4735  0.7789
  133PROXS   C368777  12.358  11.225  12.237 -0.5910  0.3479 -0.6581
  133PROXS  H3168778  12.262  11.183  12.200  0.2701 -2.3279 -0.0400
  133PROXS  H3268779  12.384  11.323  12.192  1.8633  1.0169  1.9400
  133PROXS  H3368780  12.435  11.149  12.212 -0.5530 -0.8901  2.6797
  134PROXS   O168781  12.319  11.099  12.427  0.4444 -0.3995  0.7312
  134PROXS   C168782  12.367  11.055  12.554  0.2387  0.0182  0.4178
  134PROXS  H1168783  12.476  11.073  12.552  0.1223  0.6754 -0.2955
  134PROXS  H1368784  12.316  11.101  12.641  0.1521 -1.9737  1.4864
  134PROXS   C268785  12.338  10.901  12.551  0.6608 -0.1123 -0.0555
  134PROXS  H2168786  12.371  10.859  12.454  0.6603  1.1388 -0.6201
  134PROXS   C368787  12.184  10.890  12.567  0.2845  0.0437  0.1175
  134PROXS  H3168788  12.147  10.964  12.493  0.7331  0.6848  0.5229
  134PROXS  H3268789  12.140  10.791  12.542  0.9055  0.0748 -1.1545
  134PROXS  H3368790  12.146  10.926  12.666 -1.3386  0.3707 -0.5904
  135PROXS   O168791  12.402  10.836  12.661 -0.1279 -0.0330 -0.0890
  135PROXS   C168792  12.373  10.696  12.665  0.1206 -0.7476  0.0952
  135PROXS  H1168793  12.279  10.685  12.723 -0.2753 -1.0266 -0.5889
  135PROXS  H1368794  12.366  10.657  12.561 -0.7639  1.7685 -0.8795
  135PROXS   C268795  12.487  10.618  12.735 -0.5063  0.6040  0.8219
  135PROXS  H2168796  12.493  10.654  12.840  1.3888 -0.0247  0.9683
  135PROXS   C368797  12.624  10.632  12.666 -0.1010 -0.2548  0.4442
  135PROXS  H3168798  12.654  10.738  12.656 -2.0418  0.3341  0.5090
  135PROXS  H3268799  12.695  10.571  12.725  0.3555 -1.0422 -0.8716
  135PROXS  H3368800  12.623  10.598  12.560  0.9292 -0.3763  0.4667
  136PROXS   O168801  12.463  10.477  12.738 -0.2301  0.6033 -0.4241
  136PROXS   C168802  12.341  10.436  12.803 -0.2030 -0.1659  0.0589
  136PROXS  H1168803  12.328  10.488  12.900  0.0576  0.0324 -0.0111
  136PROXS  H1368804  12.255  10.456  12.737 -1.6923  0.1238  2.0186
  136PROXS   C268805  12.337  10.288  12.825  0.4044  0.6876 -0.3188
  136PROXS  H2168806  12.424  10.255  12.884  2.0350 -1.0773 -3.4383
  136PROXS   C368807  12.347  10.202  12.690  0.1355 -0.3912  0.0234
  136PROXS  H3168808  12.320  10.096  12.709  3.7466 -1.1568  1.7954
  136PROXS  H3268809  12.285  10.247  12.610  2.3285  1.4437 -0.7549
  136PROXS  H3368810  12.451  10.198  12.652  0.9843 -1.6492  2.2755
  137PROXS   O168811  12.219  10.249  12.897 -0.4234  0.1164  0.2681
  137PROXS   C168812  12.246  10.246  13.037  0.4545 -0.5541  0.0887
  137PROXS  H1168813  12.267  10.141  13.068  0.3917 -0.5555  0.1255
  137PROXS  H1368814  12.338  10.306  13.053  0.3028 -0.6804  1.6655
  137PROXS   C268815  12.135  10.315  13.118 -0.6775 -0.1447 -0.4017
  137PROXS  H2168816  12.040  10.270  13.081 -0.0920 -0.4097 -1.6462
  137PROXS   C368817  12.126  10.464  13.093 -0.0015  0.3594 -0.1272
  137PROXS  H3168818  12.082  10.480  12.992 -1.9116  0.8951  0.7292
  137PROXS  H3268819  12.054  10.504  13.167 -1.2880 -1.0187 -0.5816
  137PROXS  H3368820  12.229  10.498  13.117  0.2587 -1.0735  0.8671
  138PROXR   O168821  12.160  10.293  13.253 -0.1312  0.3550  0.1047
  138PROXR   C168822  12.057  10.219  13.312  0.4550 -0.0539 -0.8665
  138PROXR  H1168823  11.961  10.271  13.289 -0.7755 -3.2865 -3.8282
  138PROXR  H1368824  12.036  10.116  13.276 -1.3096  0.5380 -1.6722
  138PROXR   C268825  12.073  10.216  13.463 -0.0059  0.2030 -0.7755
  138PROXR  H2168826  12.110  10.315  13.500 -3.1888  0.5494  2.0219
  138PROXR   C368827  12.177  10.116  13.515 -0.1063 -0.3182 -0.0215
  138PROXR  H3168828  12.158  10.096  13.622  0.7795 -2.4096 -0.2145
  138PROXR  H3268829  12.181  10.021  13.458  0.6533 -0.6172  0.5188
  138PROXR  H3368830  12.279  10.159  13.505  0.6883 -2.1137 -0.0120
  139PROXS   O168831  11.952  10.172  13.525 -0.9167 -0.1132 -0.2194
  139PROXS   C168832  11.924  10.245  13.640  0.9411  0.0958 -0.7777
  139PROXS  H1168833  11.848  10.184  13.694  0.3719  1.0950 -0.4263
  139PROXS  H1368834  12.016  10.254  13.703 -1.0808  2.7219  2.0821
  139PROXS   C268835  11.854  10.380  13.629  0.0938  0.1057 -0.2847
  139PROXS  H2168836  11.826  10.413  13.731  0.1706  2.9656 -1.1213
  139PROXS   C368837  11.724  10.371  13.545 -0.7153  0.2501  0.3847
  139PROXS  H3168838  11.663  10.279  13.556  0.2953 -0.2177  2.8926
  139PROXS  H3268839  11.666  10.464  13.564  1.1212  1.5604 -0.1002
  139PROXS  H3368840  11.752  10.370  13.437  2.0599 -0.5105  1.0134
  140PROXR   O168841  11.949  10.473  13.582  0.1017 -0.3057 -1.0487
  140PROXR   C168842  11.914  10.613  13.591  0.3486 -0.0380  0.2159
  140PROXR  H1168843  11.813  10.629  13.548  0.7457 -2.4999 -1.9002
  140PROXR  H1368844  11.905  10.632  13.700 -0.2717 -0.4103  0.2331
  140PROXR   C268845  12.032  10.700  13.536 -0.0258 -0.1531  0.3471
  140PROXR  H2168846  12.050  10.661  13.433  0.3891 -4.2430  1.7665
  140PROXR   C368847  12.147  10.676  13.632 -0.1880 -0.2572  0.2726
  140PROXR  H3168848  12.187  10.572  13.630 -0.0757 -0.2087 -1.8037
  140PROXR  H3268849  12.239  10.734  13.609  0.2442 -1.2640 -0.6004
  140PROXR  H3368850  12.122  10.711  13.734  2.5479  0.6240  0.7224
  141PROXS   O168851  11.998  10.840  13.538  0.0989 -0.0681 -0.5604
  141PROXS   C168852  12.102  10.934  13.512  0.3160  0.2477  0.3387
  141PROXS  H1168853  12.179  10.936  13.593 -0.2216  0.6613  0.8484
  141PROXS  H1368854  12.145  10.914  13.412  1.4390  1.2947  0.5898
  141PROXS   C268855  12.051  11.076  13.515  0.0867  0.8072  0.5541
  141PROXS  H2168856  11.970  11.083  13.440  0.4770 -0.4521 -0.0043
  141PROXS   C368857  12.166  11.167  13.474  0.7138 -0.1613  0.5400
  141PROXS  H3168858  12.134  11.270  13.446  0.0480 -0.4787  0.1033
  141PROXS  H3268859  12.239  11.179  13.556 -0.3679 -0.4312  1.5608
  141PROXS  H3368860  12.211  11.137  13.377 -0.2475  1.6029 -0.5070
  142PROXS   O168861  12.009  11.118  13.645  0.8879  0.3082  0.0413
  142PROXS   C168862  11.866  11.103  13.672  0.1857 -0.2067  1.0823
  142PROXS  H1168863  11.805  11.127  13.582 -1.7871  0.6955  2.5730
  142PROXS  H1368864  11.852  10.995  13.692  1.2343 -0.3937  0.8867
  142PROXS   C268865  11.811  11.174  13.799  0.3958  0.5175  0.1009
  142PROXS  H2168866  11.874  11.139  13.884  2.3307  0.7184 -1.1779
  142PROXS   C368867  11.670  11.121  13.837 -0.0707 -0.0276  0.7326
  142PROXS  H3168868  11.665  11.010  13.835 -0.5765 -0.0053  0.4083
  142PROXS  H3268869  11.628  11.157  13.933  0.2119 -1.8462  1.5740
  142PROXS  H3368870  11.592  11.151  13.763  2.1575 -2.3917 -2.8860
  143PROXS   O168871  11.814  11.319  13.787 -0.7176  0.5871  0.2417
  143PROXS   C168872  11.948  11.374  13.786  0.0483 -0.5683  0.2801
  143PROXS  H1168873  11.991  11.350  13.885  0.4070 -1.1252 -0.0049
  143PROXS  H1368874  12.018  11.335  13.708  2.6298  0.3607  2.0043
  143PROXS   C268875  11.939  11.530  13.780  0.1600  0.2111  0.1065
  143PROXS  H2168876  11.867  11.562  13.857 -0.6977  0.3836 -0.7454
  143PROXS   C368877  11.898  11.580  13.638  0.3610 -0.3949  0.0993
  143PROXS  H3168878  11.807  11.532  13.597  0.2128  0.8704 -1.1503
  143PROXS  H3268879  11.885  11.690  13.633  0.1205 -0.4759 -3.1671
  143PROXS  H3368880  11.980  11.555  13.566  0.6816  0.2248  0.2488
  144PROXS   O168881  12.064  11.600  13.811  0.3373  0.0095  0.4149
  144PROXS   C168882  12.090  11.606  13.952 -0.5321  0.0264  0.5602
  144PROXS  H1168883  12.007  11.662  13.998 -3.0752 -1.8952 -1.3939
  144PROXS  H1368884  12.093  11.507  14.003  0.3013 -0.1701  0.1552
  144PROXS   C268885  12.228  11.677  13.972  0.0838  0.3411 -0.0569
  144PROXS  H2168886  12.224  11.779  13.928  1.0247 -0.2712 -1.6586
  144PROXS   C368887  12.339  11.609  13.880  0.2243  0.2799  0.1044
  144PROXS  H3168888  12.313  11.619  13.772 -1.2155  0.1783  0.4223
  144PROXS  H3268889  12.431  11.667  13.903  1.3469 -0.9370 -1.0916
  144PROXS  H3368890  12.346  11.501  13.907  0.8016 -0.1811 -1.7152
  145PROXR   O168891  12.252  11.665  14.110  0.0593 -0.2412 -0.3567
  145PROXR   C168892  12.365  11.735  14.155  0.0445 -0.5000 -0.1721
  145PROXR  H1168893  12.453  11.705  14.094  2.4973  0.8898  2.4469
  145PROXR  H1368894  12.340  11.842  14.137  0.8869 -0.6674 -2.7703
  145PROXR   C268895  12.403  11.710  14.303 -0.2645  0.2322  0.9441
  145PROXR  H2168896  12.316  11.718  14.372 -1.5419 -2.3637 -0.2376
  145PROXR   C368897  12.515  11.801  14.355 -0.4559  0.2848 -0.4972
  145PROXR  H3168898  12.559  11.765  14.451  1.6449 -1.7152 -2.0971
  145PROXR  H3268899  12.599  11.803  14.283 -0.8468  2.5794 -0.9533
  145PROXR  H3368900  12.477  11.903  14.373 -0.8380 -0.2120  1.9368
  146PROXS   O168901  12.452  11.575  14.325  0.6152  0.0472  0.0961
  146PROXS   C168902  12.343  11.487  14.357  0.1845 -0.4308 -0.7923
  146PROXS  H1168903  12.295  11.522  14.451 -0.9800  0.0401 -1.5450
  146PROXS  H1368904  12.270  11.483  14.273 -0.4809  1.9232 -0.3991
  146PROXS   C268905  12.389  11.339  14.374 -0.9467 -0.2849 -0.8361
  146PROXS  H2168906  12.481  11.330  14.436  0.1274 -2.5473 -2.6306
  146PROXS   C368907  12.425  11.286  14.236 -0.4460 -0.3487  0.6331
  146PROXS  H3168908  12.343  11.267  14.164  0.1739 -0.5406 -0.0344
  146PROXS  H3268909  12.496  11.361  14.193  0.2330 -1.9174 -1.1308
  146PROXS  H3368910  12.483  11.193  14.255 -0.6414 -0.0245  3.1890
  147PROXR   O168911  12.292  11.269  14.443  0.0480  0.1606  0.0374
  147PROXR   C168912  12.314  11.127  14.466  0.0131  0.1504  0.0760
  147PROXR  H1168913  12.282  11.068  14.377 -3.5210  2.3460 -0.3074
  147PROXR  H1368914  12.414  11.089  14.497 -1.3193 -1.8668  2.1437
  147PROXR   C268915  12.215  11.085  14.578 -0.6028 -0.1070  1.0141
  147PROXR  H2168916  12.113  11.103  14.540 -0.6141 -2.5838 -0.3688
  147PROXR   C368917  12.232  11.162  14.706 -0.4608  0.0268  0.1074
  147PROXR  H3168918  12.227  11.270  14.680 -0.8956 -0.3645 -1.5775
  147PROXR  H3268919  12.146  11.139  14.773 -0.2802  1.5731  0.9003
  147PROXR  H3368920  12.326  11.139  14.759 -0.5970  0.1053  0.3823
  148PROXR   O168921  12.223  10.948  14.611 -0.3912  0.1164  0.0039
  148PROXR   C168922  12.199  10.862  14.497 -1.2243 -0.6828 -0.5185
  148PROXR  H1168923  12.113  10.897  14.436 -1.3602  1.3074  0.7419
  148PROXR  H1368924  12.290  10.860  14.433  0.3022  1.1558  1.4627
  148PROXR   C268925  12.166  10.724  14.544  0.1925  0.2581  0.2011
  148PROXR  H2168926  12.096  10.724  14.630 -0.7653 -0.2902 -0.5578
  148PROXR   C368927  12.296  10.655  14.576  0.8801  0.2395 -0.1199
  148PROXR  H3168928  12.340  10.706  14.664 -2.2009 -2.2250  3.1357
  148PROXR  H3268929  12.271  10.553  14.614  2.3457 -0.4312 -0.8779
  148PROXR  H3368930  12.366  10.640  14.492  1.4101 -1.0322  0.5200
  149PROXR   O168931  12.106  10.653  14.435  0.7218  0.2693 -0.5447
  149PROXR   C168932  12.042  10.529  14.466  0.5005  0.4171  0.0270
  149PROXR  H1168933  12.116  10.447  14.461  0.0431 -0.0042  0.0917
  149PROXR  H1368934  11.997  10.518  14.567 -2.2725 -0.0539 -1.1604
  149PROXR   C268935  11.923  10.518  14.368 -0.1923 -0.5283  0.2254
  149PROXR  H2168936  11.966  10.520  14.266 -0.7669 -0.8043 -0.0252
  149PROXR   C368937  11.817  10.636  14.380  0.1881  0.3676  0.6287
  149PROXR  H3168938  11.865  10.735  14.370 -0.7240  0.7406 -0.2797
  149PROXR  H3268939  11.739  10.618  14.303 -0.1471  0.7198  0.8777
  149PROXR  H3368940  11.769  10.620  14.479 -1.4572 -0.4352 -0.2510
  150PROXS   O168941  11.852  10.399  14.406  0.3543  0.1952  0.2813
  150PROXS   C168942  11.799  10.350  14.293 -0.1737  0.4465  0.0922
  150PROXS  H1168943  11.744  10.425  14.232  0.1816  0.4703 -0.2002
  150PROXS  H1368944  11.887  10.312  14.237  1.1491 -0.2534  2.4992
  150PROXS   C268945  11.712  10.224  14.327 -0.2951 -0.1371 -0.4444
  150PROXS  H2168946  11.631  10.250  14.398  1.4406  1.5826  1.0470
  150PROXS   C368947  11.791  10.121  14.401  0.5815  0.4434  0.7416
  150PROXS  H3168948  11.747  10.019  14.408 -0.8099  1.1116  2.7766
  150PROXS  H3268949  11.887  10.104  14.346  0.0322  0.4885 -0.2580
  150PROXS  H3368950  11.829  10.145  14.503 -1.4398  1.7557  1.2404
  151PROXR   O168951  11.675  10.163  14.206  0.1303  0.2136  0.4213
  151PROXR   C168952  11.543  10.113  14.199 -0.4397  0.6460 -0.1039
  151PROXR  H1168953  11.520  10.048  14.286 -0.7238  1.5260  0.4849
  151PROXR  H1368954  11.473  10.198  14.204  0.6011  1.5228 -0.0219
  151PROXR   C268955  11.518  10.037  14.070  0.6835 -0.5023 -0.0469
  151PROXR  H2168956  11.567  10.086  13.983 -0.8188 -1.5287 -1.5360
  151PROXR   C368957  11.361  10.040  14.045 -0.7264 -0.2647  0.0709
  151PROXR  H3168958  11.332  10.147  14.041  0.6148  0.0899 -0.8087
  151PROXR  H3268959  11.334   9.982  13.954 -2.1672 -0.1832  0.4297
  151PROXR  H3368960  11.311   9.992  14.132  1.2496 -0.2937  1.2654
  152PROXR   O168961  11.544   9.897  14.081  0.0582 -0.7915 -0.0667
  152PROXR   C168962  11.679   9.859  14.088  0.3963 -0.0632  0.4049
  152PROXR  H1168963  11.730   9.897  13.997  3.2906 -0.7704  1.6005
  152PROXR  H1368964  11.736   9.906  14.171  0.6901  1.6343 -0.7057
  152PROXR   C268965  11.701   9.710  14.086 -0.0876 -0.1782 -0.1700
  152PROXR  H2168966  11.641   9.656  14.010  0.1832 -0.8790  0.1008
  152PROXR   C368967  11.657   9.649  14.222 -0.1138 -0.1013  0.0626
  152PROXR  H3168968  11.547   9.662  14.228  0.0344  1.6007 -0.4374
  152PROXR  H3268969  11.680   9.540  14.211 -0.4607 -0.0034 -2.1316
  152PROXR  H3368970  11.701   9.701  14.310  0.6513  0.4045 -0.6109
  153PROXR   O168971  11.837   9.666  14.075  0.2033 -1.0809 -0.4933
  153PROXR   C168972  11.881   9.638  13.944  1.3006  0.1128 -0.2650
  153PROXR  H1168973  11.979   9.587  13.956  2.8647  2.3173 -2.5761
  153PROXR  H1368974  11.802   9.580  13.893 -0.5900  1.7941  0.6159
  153PROXR   C268975  11.918   9.760  13.857  0.3442 -0.3428 -0.0222
  153PROXR  H2168976  11.826   9.816  13.829  1.1030  0.9561  0.0258
  153PROXR   C368977  11.976   9.691  13.729  0.5682 -0.4582  0.2278
  153PROXR  H3168978  11.985   9.758  13.641 -0.4723 -1.0210 -0.3182
  153PROXR  H3268979  12.069   9.635  13.755  2.5505  2.1739 -0.7004
  153PROXR  H3368980  11.895   9.621  13.703  2.1249 -1.7002 -1.5623
  154PROXS   O168981  12.016   9.840  13.930  0.2013 -0.2135  0.3522
  154PROXS   C168982  12.039   9.967  13.863  0.4608  0.4496  0.0830
  154PROXS  H1168983  12.119   9.940  13.791 -3.6373  0.2217 -4.9067
  154PROXS  H1368984  11.955  10.005  13.801 -0.0029 -3.0710 -1.6637
  154PROXS   C268985  12.094  10.070  13.961  0.0124  0.0279 -0.2937
  154PROXS  H2168986  12.178  10.026  14.018 -1.2570 -1.0466  0.8299
  154PROXS   C368987  11.994  10.113  14.064 -0.3271 -0.2867 -0.4975
  154PROXS  H3168988  11.896  10.127  14.014 -0.2474 -1.3148 -0.9685
  154PROXS  H3268989  11.977  10.044  14.149 -1.2739  0.8690  0.2852
  154PROXS  H3368990  12.032  10.206  14.112  1.5641 -1.2086 -0.0716
  155PROXR   O168991  12.127  10.187  13.890 -0.2922  0.6355 -0.4750
  155PROXR   C168992  12.268  10.188  13.843  0.0152  0.0048 -0.0898
  155PROXR  H1168993  12.331  10.152  13.928  0.7544  1.9432  0.2264
  155PROXR  H1368994  12.293  10.108  13.769  2.5029 -1.6497  2.3436
  155PROXR   C268995  12.319  10.314  13.788  0.7153 -0.3380  0.2808
  155PROXR  H2168996  12.251  10.353  13.710  0.4094  0.9814  1.1673
  155PROXR   C368997  12.456  10.303  13.728 -0.4288 -0.2356  0.8674
  155PROXR  H3168998  12.474  10.390  13.661 -0.3509  0.0030  1.2026
  155PROXR  H3268999  12.528  10.294  13.811 -1.4800  0.1300  1.8498
  155PROXR  H3369000  12.455  10.216  13.659  1.4296  1.0594 -0.9232
  156PROXS   O169001  12.327  10.407  13.891  0.1065  0.1976 -0.6145
  156PROXS   C169002  12.197  10.461  13.940 -0.0239 -0.5819 -0.4561
  156PROXS  H1169003  12.119  10.454  13.861  0.3755 -0.6787 -0.8466
  156PROXS  H1369004  12.160  10.404  14.028 -3.0102  0.7762 -0.7121
  156PROXS   C269005  12.223  10.602  13.996  0.5630 -0.3634  0.3330
  156PROXS  H2169006  12.272  10.671  13.924 -0.5311  2.8584  2.4467
  156PROXS   C369007  12.321  10.593  14.114 -0.2210  0.2827  0.3937
  156PROXS  H3169008  12.349  10.691  14.158  0.0694  0.8398 -0.9590
  156PROXS  H3269009  12.262  10.535  14.188 -1.4525  0.6819 -0.2449
  156PROXS  H3369010  12.417  10.538  14.099 -0.8531 -0.2320 -2.4177
  157PROXS   O169011  12.094  10.668  14.028 -0.3584  0.8079  1.0591
  157PROXS   C169012  12.114  10.804  14.056  0.3569  0.1681  0.3893
  157PROXS  H1169013  12.186  10.825  14.138 -0.0548  1.4678  0.4452
  157PROXS  H1369014  12.153  10.860  13.969 -0.3789  0.1810  0.0612
  157PROXS   C269015  11.979  10.866  14.095 -0.0206  0.4724 -0.0822
  157PROXS  H2169016  11.942  10.823  14.190 -0.7501  0.7759 -0.2233
  157PROXS   C369017  11.877  10.831  13.987 -0.2891  0.0530 -0.0380
  157PROXS  H3169018  11.942  10.818  13.897 -0.1875 -0.2106  0.0724
  157PROXS  H3269019  11.823  10.738  14.015  0.3971 -0.4097 -0.2236
  157PROXS  H3369020  11.804  10.911  13.966  1.7278  1.5984 -1.6357
  158PROXR   O169021  11.992  11.003  14.098  0.3962 -0.6183  0.5144
  158PROXR   C169022  11.903  11.068  14.193 -0.0991  0.4656  0.5280
  158PROXR  H1169023  11.801  11.038  14.160 -0.8383  1.5743  1.7130
  158PROXR  H1369024  11.913  11.030  14.297 -1.7129 -0.3652  0.4172
  158PROXR   C269025  11.908  11.216  14.194 -1.0838 -0.3500 -0.3638
  158PROXR  H2169026  11.891  11.263  14.095 -1.8740  0.1675  0.0139
  158PROXR   C369027  12.040  11.261  14.261  0.1542  0.0530  0.0900
  158PROXR  H3169028  12.044  11.372  14.270  2.2255  0.1503 -1.3106
  158PROXR  H3269029  12.029  11.220  14.363 -2.5195 -2.2478 -0.9992
  158PROXR  H3369030  12.134  11.226  14.213 -0.3058  0.3763 -1.1052
  159PROXR   O169031  11.801  11.263  14.274  0.5179  0.0547  0.1429
  159PROXR   C169032  11.791  11.408  14.274 -0.2899 -0.0395 -0.4032
  159PROXR  H1169033  11.861  11.441  14.354 -0.4838 -2.0750  0.6795
  159PROXR  H1369034  11.820  11.442  14.172 -3.4016 -2.0910 -2.1366
  159PROXR   C269035  11.642  11.447  14.309 -0.0522  0.6166  0.6718
  159PROXR  H2169036  11.628  11.434  14.419 -2.0604  0.8194  0.4729
  159PROXR   C369037  11.546  11.362  14.226  0.0946  0.0894  0.5103
  159PROXR  H3169038  11.444  11.400  14.247  0.3149  0.0291  1.8025
  159PROXR  H3269039  11.573  11.378  14.120  0.2128 -1.9032  0.2009
  159PROXR  H3369040  11.554  11.255  14.254 -1.1503  0.0289  0.6693
  160PROXS   O169041  11.625  11.578  14.270  0.1154  0.0621 -0.0261
  160PROXS   C169042  11.723  11.670  14.324  0.0183  0.9548  0.2436
  160PROXS  H1169043  11.763  11.618  14.413 -2.0234  0.0107  0.6808
  160PROXS  H1369044  11.809  11.684  14.255 -0.7467  1.5700 -0.6000
  160PROXS   C269045  11.654  11.811  14.348  0.0959  0.1239  0.4551
  160PROXS  H2169046  11.569  11.800  14.419 -1.4206  0.4579 -1.2209
  160PROXS   C369047  11.595  11.877  14.222 -0.4054  0.5595  0.4810
  160PROXS  H3169048  11.660  11.903  14.136 -3.3592  3.4694 -1.0619
  160PROXS  H3269049  11.513  11.811  14.189  1.7095 -1.6478 -0.6401
  160PROXS  H3369050  11.553  11.975  14.252 -0.9594  0.4568  0.0514
  161PROXR   O169051  11.751  11.897  14.410 -0.0540  0.6322 -0.5141
  161PROXR   C169052  11.750  11.893  14.552 -0.3651 -0.2521  0.9428
  161PROXR  H1169053  11.717  11.794  14.592 -3.4367 -0.6392 -2.0196
  161PROXR  H1369054  11.853  11.905  14.592  0.9336 -1.8451 -1.6415
  161PROXR   C269055  11.667  12.007  14.610 -0.0105 -0.0476 -0.4150
  161PROXR  H2169056  11.564  12.000  14.570 -0.4357  0.8238  0.4907
  161PROXR   C369057  11.736  12.131  14.556  0.3608  0.4681  0.3606
  161PROXR  H3169058  11.675  12.221  14.580 -1.5937 -0.7313  0.0793
  161PROXR  H3269059  11.835  12.135  14.605  1.1723 -0.3361 -1.1564
  161PROXR  H3369060  11.746  12.133  14.445  0.4063 -0.2731  0.3511
  162PROXR   O169061  11.671  12.007  14.751 -0.5627 -0.0057  0.3960
  162PROXR   C169062  11.570  12.094  14.802 -0.0980 -0.3851  0.4800
  162PROXR  H1169063  11.601  12.200  14.795 -2.2413  0.2928  0.3692
  162PROXR  H1369064  11.484  12.082  14.732  1.6412  2.3933 -2.4139
  162PROXR   C269065  11.515  12.059  14.942  0.8429  0.7956  0.2756
  162PROXR  H2169066  11.605  12.069  15.006  0.3332  0.1722  1.1050
  162PROXR   C369067  11.465  11.912  14.947 -0.2806 -0.9974  0.5590
  162PROXR  H3169068  11.437  11.895  15.053  0.1057  0.4246  0.9147
  162PROXR  H3269069  11.378  11.890  14.881 -0.6420  1.6479  0.0250
  162PROXR  H3369070  11.543  11.840  14.913 -0.8606 -0.9883 -0.8753
  163PROXS   O169071  11.408  12.149  14.979 -0.2222  0.1228 -0.3189
  163PROXS   C169072  11.443  12.260  15.059  0.2923 -0.1888 -0.3684
  163PROXS  H1169073  11.453  12.228  15.165  1.7226 -2.7871 -1.1887
  163PROXS  H1369074  11.535  12.314  15.028  1.2746 -1.3075  0.4855
  163PROXS   C269075  11.332  12.372  15.052  0.1237  0.4114  0.1186
  163PROXS  H2169076  11.237  12.322  15.080 -1.3107  2.5980 -0.6054
  163PROXS   C369077  11.304  12.420  14.905 -0.8882 -0.4737  0.6509
  163PROXS  H3169078  11.212  12.481  14.892  0.1436  0.9301 -0.4308
  163PROXS  H3269079  11.388  12.485  14.871 -1.3229 -1.1802 -1.9396
  163PROXS  H3369080  11.294  12.331  14.840 -0.1508 -0.2561  0.2367
  164PROXR   O169081  11.361  12.476  15.143  0.6673 -0.1167 -0.6141
  164PROXR   C169082  11.244  12.561  15.169  0.1952  0.5262 -0.0819
  164PROXR  H1169083  11.210  12.604  15.073  2.8109  0.3747 -1.1496
  164PROXR  H1369084  11.160  12.496  15.204  0.0672  0.3824 -0.6555
  164PROXR   C269085  11.270  12.668  15.267  0.5209 -0.6116  0.3494
  164PROXR  H2169086  11.348  12.731  15.219 -0.1745 -1.5867 -2.2718
  164PROXR   C369087  11.315  12.611  15.405 -0.4321 -0.9188  0.6214
  164PROXR  H3169088  11.338  12.692  15.478  0.7470 -0.7759  0.1241
  164PROXR  H3269089  11.233  12.548  15.445 -1.7802  0.6390  0.4269
  164PROXR  H3369090  11.406  12.547  15.396 -0.6040 -1.4157  2.1953
  165PROXR   O169091  11.149  12.745  15.287  0.0126  0.1257 -0.1120
  165PROXR   C169092  11.164  12.879  15.321 -0.2033  0.0564  0.2476
  165PROXR  H1169093  11.211  12.886  15.422 -1.8951  2.4902  0.9712
  165PROXR  H1369094  11.232  12.932  15.251  1.8406  0.5296  2.4410
  165PROXR   C269095  11.027  12.945  15.315  0.3732 -0.3345  0.4883
  165PROXR  H2169096  10.956  12.878  15.368  0.4863  0.0487  1.1412
  165PROXR   C369097  10.988  12.960  15.169  0.0474  0.3057 -1.1262
  165PROXR  H3169098  10.878  12.977  15.166 -0.2388 -1.3358 -0.7371
  165PROXR  H3269099  11.044  13.048  15.129  0.4841  0.1480 -0.8671
  165PROXR  H3369100  11.010  12.870  15.108  3.5391  2.2443 -3.0767
  166ETHOX   O169101  11.034  13.070  15.387 -0.7176 -0.2723  0.2789
  166ETHOX   C169102  10.910  13.129  15.411 -0.1909 -0.2981 -0.3806
  166ETHOX  H1169103  10.833  13.059  15.453 -1.3896  1.8130  1.1815
  166ETHOX  H1369104  10.875  13.174  15.316  0.0965 -0.9122 -0.7760
  166ETHOX   C269105  10.908  13.251  15.512 -0.4091  0.8123 -0.0987
  166ETHOX  H2169106  10.811  13.303  15.523 -1.2816 -1.0048  1.2894
  166ETHOX  H2369107  10.979  13.332  15.482 -3.7940  3.1044 -2.6526
  167ETHOX   O169108  10.946  13.197  15.638 -0.2494 -0.0644  0.2605
  167ETHOX   C169109  10.937  13.298  15.739 -0.8244 -0.7091  0.8559
  167ETHOX  H1169110  10.997  13.385  15.704 -1.9660 -0.9217 -1.9029
  167ETHOX  H1369111  10.828  13.316  15.753 -0.6734  2.4261 -1.1443
  167ETHOX   C269112  10.998  13.243  15.871  0.5781  0.8103 -0.6241
  167ETHOX  H2169113  10.955  13.143  15.896  2.1361  0.5400  1.1994
  167ETHOX  H2369114  10.976  13.304  15.960  0.1379 -0.7187  0.3533
  168ETHOX   O169115  11.131  13.194  15.862  0.2813  0.0177  0.1269
  168ETHOX   C169116  11.228  13.287  15.912 -0.7477 -1.1409 -0.3128
  168ETHOX  H1169117  11.211  13.388  15.869  1.9670 -1.8877 -3.5988
  168ETHOX  H1369118  11.323  13.272  15.858 -0.7959 -1.6986 -0.2520
  168ETHOX   C269119  11.234  13.279  16.061  0.7451  0.5690 -0.5620
  168ETHOX  H2169120  11.144  13.306  16.121  1.6026 -0.5409  1.3235
  168ETHOX  H2369121  11.312  13.347  16.100 -0.6056  1.9492 -0.1664
  169ETHOX   O169122  11.284  13.143  16.089  0.4411  0.1758 -0.3895
  169ETHOX   C169123  11.317  13.133  16.229  0.8758  0.5022  0.2423
  169ETHOX  H1169124  11.384  13.216  16.258 -1.0336  1.8336  1.0000
  169ETHOX  H1369125  11.227  13.152  16.291 -0.0743  0.0657 -0.9707
  169ETHOX   C269126  11.373  12.994  16.268  0.1582 -0.4466 -0.6793
  169ETHOX  H2169127  11.296  12.919  16.241  0.3831 -0.6422 -0.7784
  169ETHOX  H2369128  11.359  12.989  16.378 -0.5701  1.6998 -0.6313
  170ETHOX   O169129  11.509  12.980  16.238  0.1675  0.1609  0.1319
  170ETHOX   C169130  11.574  12.893  16.333  0.3002  0.2507  0.0008
  170ETHOX  H1169131  11.513  12.803  16.357 -1.8219  2.0706  1.9454
  170ETHOX  H1369132  11.581  12.938  16.435 -0.4555  0.0963  0.1273
  170ETHOX   C269133  11.718  12.855  16.290  0.3964 -0.3127  0.2397
  170ETHOX  H2169134  11.722  12.855  16.179  0.8643  2.5617  0.1864
  170ETHOX  H2369135  11.743  12.754  16.330  0.3533 -0.3844  0.0849
  171ETHOX   O169136  11.807  12.950  16.340 -0.1992 -0.2180  0.3615
  171ETHOX   C169137  11.922  12.949  16.255  0.3287  0.4255  0.5723
  171ETHOX  H1169138  11.956  12.847  16.223  1.4066  0.9565 -0.0309
  171ETHOX  H1369139  11.880  12.996  16.164  0.0195  0.9898  1.0036
  171ETHOX   C269140  12.044  13.019  16.304 -0.3940 -0.1146  0.5378
  171ETHOX  H2169141  12.032  13.115  16.358 -0.2907 -0.1083  0.5510
  171ETHOX  H2369142  12.102  13.050  16.215 -0.6902  0.2385  0.4679
  172ETHOX   O169143  12.129  12.934  16.388  0.8480  0.0202 -0.5603
  172ETHOX   C169144  12.222  13.006  16.465 -0.1553  0.2313 -0.4747
  172ETHOX  H1169145  12.228  13.113  16.435  1.3198 -0.1756 -1.7291
  172ETHOX  H1369146  12.319  12.953  16.460 -0.8366 -1.6094  2.8313
  172ETHOX   C269147  12.177  13.004  16.609 -0.3388  0.0532 -0.1395
  172ETHOX  H2169148  12.080  13.056  16.626  1.1148  2.1202  2.6495
  172ETHOX  H2369149  12.249  13.063  16.670 -1.9131  0.3214  1.5579
  173ETHOX   O169150  12.162  12.870  16.665 -0.1625  0.3623  0.1523
  173ETHOX   C169151  12.156  12.863  16.807 -0.4772 -0.6337 -0.0807
  173ETHOX  H1169152  12.247  12.915  16.843  1.0831 -1.0865 -2.9935
  173ETHOX  H1369153  12.062  12.907  16.846  0.7002  0.1376  2.0066
  173ETHOX   C269154  12.155  12.716  16.845 -0.4632  0.0808 -0.4837
  173ETHOX  H2169155  12.248  12.662  16.819 -0.1870  0.8529 -1.1478
  173ETHOX  H2369156  12.149  12.700  16.954  1.2821 -2.6987 -0.7204
  174ETHOX   O169157  12.040  12.647  16.787 -0.1074 -0.3861  0.1864
  174ETHOX   C169158  12.053  12.512  16.831 -0.3253  0.6848 -0.8672
  174ETHOX  H1169159  12.132  12.459  16.773 -0.7702  0.0421 -0.8786
  174ETHOX  H1369160  12.077  12.499  16.939 -0.8318 -0.1257 -0.8501
  174ETHOX   C269161  11.933  12.423  16.816 -0.9411 -0.2329 -0.2016
  174ETHOX  H2169162  11.852  12.475  16.872  0.3618  1.6053  0.0666
  174ETHOX  H2369163  11.963  12.327  16.863 -0.1679 -0.4697 -1.1587
  175ETHOX   O169164  11.926  12.399  16.676  0.0444 -0.7557 -0.0522
  175ETHOX   C169165  11.842  12.284  16.657 -0.2881 -0.4349  0.6093
  175ETHOX  H1169166  11.891  12.193  16.697  1.5881  0.2398 -0.0504
  175ETHOX  H1369167  11.743  12.313  16.697 -0.4049  0.5835 -0.3594
  175ETHOX   C269168  11.817  12.255  16.512  0.1171 -0.2664  0.7337
  175ETHOX  H2169169  11.798  12.348  16.454 -1.1337 -1.2333 -0.4619
  175ETHOX  H2369170  11.723  12.203  16.486  0.1534  0.3263 -0.6730
  176ETHOX   O169171  11.920  12.164  16.465 -0.1542  0.3732 -0.3838
  176ETHOX   C169172  11.899  12.121  16.330 -0.0876  0.0633 -0.6358
  176ETHOX  H1169173  11.848  12.024  16.348  3.3506 -1.8322 -0.2745
  176ETHOX  H1369174  11.835  12.196  16.279  0.9831  2.9108  1.9524
  176ETHOX   C269175  12.029  12.088  16.253 -0.1255 -0.5502 -0.2833
  176ETHOX  H2169176  12.111  12.163  16.259 -0.1342 -0.5551 -0.0904
  176ETHOX  H2369177  12.005  12.080  16.144  1.5726  2.4814 -1.0035
  177ETHOX   O169178  12.097  11.968  16.286  0.1022  0.3302 -0.3691
  177ETHOX   C169179  12.225  11.958  16.236 -0.3505 -0.2090 -0.4340
  177ETHOX  H1169180  12.297  12.015  16.299  0.3609 -1.1619 -0.3561
  177ETHOX  H1369181  12.240  11.988  16.130  0.3700  2.8880  0.4528
  177ETHOX   C269182  12.284  11.813  16.231  0.5668 -0.3418  0.0027
  177ETHOX  H2169183  12.391  11.823  16.200  0.5196  0.2449  0.0064
  177ETHOX  H2369184  12.227  11.758  16.153  0.4809  1.3980 -1.2204
  178ETHOX   O169185  12.259  11.742  16.352 -0.1673  0.4454 -0.0742
  178ETHOX   C169186  12.322  11.615  16.346 -0.1737 -0.5766  0.2099
  178ETHOX  H1169187  12.286  11.553  16.261 -2.1111  2.0665 -1.0255
  178ETHOX  H1369188  12.430  11.637  16.334 -0.2545  0.0416  0.6002
  178ETHOX   C269189  12.297  11.534  16.470  0.3162  0.3513  0.1022
  178ETHOX  H2169190  12.341  11.589  16.556 -1.3714  2.9226 -0.5966
  178ETHOX  H2369191  12.339  11.431  16.467 -0.7494 -0.1534  1.2962
  179ETHOX   O169192  12.152  11.505  16.479 -0.6026 -0.1518  0.2559
  179ETHOX   C169193  12.137  11.413  16.578  0.3324  0.0037 -0.3070
  179ETHOX  H1169194  12.194  11.440  16.670 -0.0337 -0.5195  0.0819
  179ETHOX  H1369195  12.183  11.321  16.536  1.2448  0.3383 -0.0541
  179ETHOX   C269196  11.992  11.380  16.598 -0.0147  1.2694  0.4421
  179ETHOX  H2169197  11.952  11.358  16.497  0.6656 -1.8534  0.7543
  179ETHOX  H2369198  11.943  11.477  16.623 -2.8030  0.4793 -1.4661
  180ETHOX   O169199  11.973  11.276  16.693  0.2153 -0.5374  0.2504
  180ETHOX   C169200  11.839  11.230  16.681 -0.4103 -0.1086 -0.0598
  180ETHOX  H1169201  11.766  11.310  16.655 -0.6537  0.1613  1.3523
  180ETHOX  H1369202  11.810  11.155  16.605 -1.2029  2.9237 -3.0093
  180ETHOX   C269203  11.800  11.186  16.822 -0.1834 -0.1838  0.5790
  180ETHOX  H2169204  11.692  11.180  16.847 -0.5843 -0.1694 -1.0286
  180ETHOX  H2369205  11.836  11.265  16.892  1.5790 -0.1877 -0.2520
  181ETHOX   O169206  11.865  11.071  16.856 -0.0489  0.3472 -0.4459
  181ETHOX   C169207  11.851  11.057  16.998  0.0073 -0.2421  0.4530
  181ETHOX  H1169208  11.745  11.078  17.024 -0.9526 -3.0700 -0.8595
  181ETHOX  H1369209  11.918  11.126  17.054  1.6805 -1.0286 -0.5203
  181ETHOX   C269210  11.890  10.917  17.052  0.0387 -0.5130  0.0636
  181ETHOX  H2169211  11.878  10.834  16.979  2.8879 -0.3619 -0.6906
  181ETHOX  H2369212  11.827  10.902  17.142 -0.0645  0.6761  0.2030
  182ETHOX   O169213  12.019  10.913  17.101 -0.5157  0.1176  0.4894
  182ETHOX   C169214  12.117  10.898  17.002  0.1018 -0.1805 -0.4364
  182ETHOX  H1169215  12.086  10.807  16.946 -1.0489 -0.5432  0.7491
  182ETHOX  H1369216  12.127  10.998  16.953 -2.3353 -0.0225 -0.7435
  182ETHOX   C269217  12.244  10.869  17.088 -0.0503 -0.0068  0.9151
  182ETHOX  H2169218  12.260  10.947  17.165  0.4744  0.3040  0.5017
  182ETHOX  H2369219  12.326  10.877  17.012 -1.1821  0.1443 -0.3385
  183ETHOX   O169220  12.249  10.739  17.137 -0.7291  0.1565  0.1016
  183ETHOX   C169221  12.373  10.718  17.201  0.0827 -0.3922  0.7792
  183ETHOX  H1169222  12.399  10.791  17.281 -0.1088  0.6439 -0.0811
  183ETHOX  H1369223  12.450  10.745  17.125 -2.1081  3.3232 -0.3535
  183ETHOX   C269224  12.378  10.577  17.246  0.0962  0.6097 -0.2460
  183ETHOX  H2169225  12.288  10.550  17.306  0.0004  0.4115 -0.4761
  183ETHOX  H2369226  12.470  10.549  17.303  0.6997 -0.2406 -1.5801
  184ETHOX   O169227  12.380  10.496  17.129  0.3513 -0.0245 -0.0565
  184ETHOX   C169228  12.371  10.354  17.160  0.2057  0.2076 -0.0248
  184ETHOX  H1169229  12.471  10.331  17.203  0.1526 -0.4345 -0.2378
  184ETHOX  H1369230  12.288  10.335  17.231 -1.5225 -0.2770 -2.0718
  184ETHOX   C269231  12.336  10.273  17.037 -0.8802 -0.3099 -0.2437
  184ETHOX  H2169232  12.251  10.315  16.980  0.8791  1.5207 -1.6872
  184ETHOX  H2369233  12.310  10.173  17.078  1.0898 -2.2006 -3.1937
  185ETHOX   O169234  12.456  10.250  16.955 -0.4789  0.1733  0.1736
  185ETHOX   C169235  12.426  10.181  16.830 -0.3674 -0.4784 -0.1610
  185ETHOX  H1169236  12.348  10.104  16.849 -0.3888 -0.0554  1.5679
  185ETHOX  H1369237  12.386  10.248  16.751 -2.7865  0.8949  2.0675
  185ETHOX   C269238  12.548  10.112  16.775 -0.3122  0.4320  0.3775
  185ETHOX  H2169239  12.640  10.175  16.782  0.2157 -0.0133 -1.6919
  185ETHOX  H2369240  12.520  10.111  16.668  0.1801 -0.2009  0.2464
  186ETHOX   O169241  12.584   9.980  16.813  0.3223 -0.0642  0.5165
  186ETHOX   C169242  12.647   9.983  16.940  0.5475 -0.0150 -0.2604
  186ETHOX  H1169243  12.733  10.052  16.941  1.0671 -0.6048 -1.7348
  186ETHOX  H1369244  12.571  10.030  17.006  1.2000  1.3476 -0.4516
  186ETHOX   C269245  12.681   9.835  16.968  0.2809 -0.0700  0.2501
  186ETHOX  H2169246  12.589   9.773  16.960  1.2659 -1.4365 -1.0393
  186ETHOX  H2369247  12.714   9.833  17.074  2.7410 -0.9464 -0.4719
  187ETHOX   O169248  12.796   9.789  16.889 -0.0808  0.3101 -0.1623
  187ETHOX   C169249  12.837   9.657  16.910  0.6644  0.4835 -0.5362
  187ETHOX  H1169250  12.838   9.640  17.020 -1.9450  0.1342 -0.5092
  187ETHOX  H1369251  12.754   9.594  16.870  0.3370 -0.8326  1.9936
  187ETHOX   C269252  12.974   9.621  16.851  0.5138 -0.0513  0.5554
  187ETHOX  H2169253  13.003   9.524  16.896  2.7448  0.0726 -0.5011
  187ETHOX  H2369254  13.050   9.700  16.873  1.0829 -0.8205  1.4127
  188ETHOX   O169255  12.961   9.606  16.709  0.0325 -0.2444  0.3798
  188ETHOX   C169256  13.085   9.612  16.640  0.5910  0.0782  0.5509
  188ETHOX  H1169257  13.144   9.688  16.696  0.5698 -1.1794  2.3565
  188ETHOX  H1369258  13.075   9.646  16.534 -2.8277  1.6075  1.2473
  188ETHOX   C269259  13.149   9.475  16.642 -0.3294  0.1827  0.6102
  188ETHOX  H2169260  13.248   9.482  16.591 -0.3693  0.3212  0.5553
  188ETHOX  H2369261  13.087   9.404  16.583 -1.3097  2.5106 -1.2816
  189ETHOX   O169262  13.160   9.418  16.775  0.2104 -0.6718  0.0225
  189ETHOX   C169263  13.188   9.277  16.761  0.1021 -0.1551  0.0861
  189ETHOX  H1169264  13.110   9.219  16.706  0.9798 -2.8547  1.5300
  189ETHOX  H1369265  13.280   9.246  16.708  0.5952 -3.0520  2.4267
  189ETHOX   C269266  13.195   9.224  16.897  0.1657 -0.0244 -0.1666
  189ETHOX  H2169267  13.094   9.230  16.944  0.2672  0.2075  0.0219
  189ETHOX  H2369268  13.269   9.272  16.965 -0.8121 -0.2101  1.0721
  190ETHOX   O169269  13.246   9.089  16.902 -0.5706  0.2090 -0.0329
  190ETHOX   C169270  13.273   9.032  17.029 -0.0450 -0.5487 -0.4858
  190ETHOX  H1169271  13.178   8.992  17.072  1.2971  0.7055  4.2493
  190ETHOX  H1369272  13.301   9.112  17.102 -0.4129 -1.1099  0.2927
  190ETHOX   C269273  13.385   8.927  17.035  0.3348  0.2418 -0.0705
  190ETHOX  H2169274  13.387   8.888  17.140 -0.4916  3.1929  1.1511
  190ETHOX  H2369275  13.479   8.974  17.000 -0.3312 -0.0408 -2.3800
  191ETHOX   O169276  13.374   8.808  16.960 -0.1748 -0.8892  0.3991
  191ETHOX   C169277  13.288   8.710  17.017 -0.5441  0.1776  0.1026
  191ETHOX  H1169278  13.339   8.682  17.111  2.0215  0.5936 -1.0704
  191ETHOX  H1369279  13.191   8.758  17.044 -1.2943 -0.9129 -0.5654
  191ETHOX   C269280  13.273   8.598  16.920  0.0998  0.9435  0.6330
  191ETHOX  H2169281  13.234   8.510  16.975  1.2284 -0.0825 -0.1731
  191ETHOX  H2369282  13.374   8.577  16.880 -0.3473  0.8023 -0.4597
  192ETHOX   O169283  13.176   8.623  16.825 -0.0416  0.0672  0.9589
  192ETHOX   C169284  13.195   8.550  16.702 -0.4371  0.6095 -0.2833
  192ETHOX  H1169285  13.197   8.443  16.730 -3.2167  0.7541  0.7697
  192ETHOX  H1369286  13.289   8.584  16.654 -1.1110  1.8693 -0.7647
  192ETHOX   C269287  13.082   8.581  16.606 -0.3744  0.0689  0.0766
  192ETHOX  H2169288  13.110   8.539  16.507 -1.0694  0.2945 -0.2253
  192ETHOX  H2369289  13.057   8.689  16.607 -1.0807 -0.0920  0.8162
  193ETHOX   O169290  12.975   8.506  16.650 -0.1283  0.6409 -0.1532
  193ETHOX   C169291  12.857   8.534  16.573 -0.0681  0.0650 -0.1093
  193ETHOX  H1169292  12.842   8.644  16.574  0.6872  0.1915  2.0920
  193ETHOX  H1369293  12.872   8.492  16.471 -1.1391 -1.3093  0.2684
  193ETHOX   C269294  12.741   8.462  16.635 -0.3328 -0.0668 -0.0209
  193ETHOX  H2169295  12.776   8.367  16.680  0.7661 -0.8801 -2.4283
  193ETHOX  H2369296  12.660   8.434  16.565 -2.5919  3.1558  1.0865
  194ETHOX   O169297  12.689   8.545  16.747  0.0512 -0.0250  0.0044
  194ETHOX   C169298  12.567   8.488  16.795 -0.1832  0.0475  0.7022
  194ETHOX  H1169299  12.592   8.384  16.827 -1.3226 -0.2454  0.6694
  194ETHOX  H1369300  12.500   8.473  16.708 -1.0171  1.2405  1.1221
  194ETHOX   C269301  12.495   8.571  16.908 -0.6488  0.6149  0.0612
  194ETHOX  H2169302  12.570   8.612  16.978 -1.2500  0.4677  0.7926
  194ETHOX  H2369303  12.422   8.507  16.962  0.6600 -1.9114 -0.9669
  195ETHOX   O169304  12.424   8.677  16.853  0.1512  0.0337  0.1567
  195ETHOX   C169305  12.363   8.758  16.952 -0.8940 -0.5421 -0.0541
  195ETHOX  H1169306  12.293   8.686  17.000  0.2118 -1.8411 -0.3428
  195ETHOX  H1369307  12.442   8.802  17.015  0.4046 -0.1629 -1.8753
  195ETHOX   C269308  12.276   8.877  16.898 -0.0391  0.6283 -0.0981
  195ETHOX  H2169309  12.330   8.931  16.818 -0.6961 -0.2826 -1.1836
  195ETHOX  H2369310  12.235   8.944  16.977 -0.4336 -1.0724  1.2044
  196ETHOX   O169311  12.157   8.826  16.838 -0.3747 -0.2368  0.4231
  196ETHOX   C169312  12.098   8.934  16.766  1.1730  0.6143 -0.2216
  196ETHOX  H1169313  12.106   9.035  16.812  4.3396  1.3002 -1.9548
  196ETHOX  H1369314  12.159   8.946  16.673  0.2087  0.7598 -0.8426
  196ETHOX   C269315  11.955   8.904  16.733  0.1267 -0.2895 -0.6757
  196ETHOX  H2169316  11.946   8.800  16.697  0.0485 -0.4050 -0.3336
  196ETHOX  H2369317  11.922   8.979  16.657  0.0487 -0.2270 -0.5805
  197ETHOX   O169318  11.885   8.923  16.858 -0.3959 -0.3748 -0.4614
  197ETHOX   C169319  11.755   8.865  16.855  0.1644 -0.4355 -0.2361
  197ETHOX  H1169320  11.698   8.915  16.775  0.3627  0.9647  0.4738
  197ETHOX  H1369321  11.766   8.756  16.834 -1.7815 -0.1068 -3.6856
  197ETHOX   C269322  11.686   8.889  16.992 -0.1449 -0.1603 -0.4426
  197ETHOX  H2169323  11.761   8.855  17.066 -0.3405 -0.1252 -0.2289
  197ETHOX  H2369324  11.594   8.832  17.017  0.2951  0.2597  2.5020
  198ETHOX   O169325  11.654   9.029  17.010  0.1013 -0.5484  0.3466
  198ETHOX   C169326  11.608   9.054  17.136  0.8115 -0.3376  0.2052
  198ETHOX  H1169327  11.523   8.987  17.159  0.1210  0.1184 -0.9460
  198ETHOX  H1369328  11.688   9.021  17.206  1.5550  1.6775  0.3567
  198ETHOX   C269329  11.576   9.199  17.149  0.0866  0.4487 -0.4660
  198ETHOX  H2169330  11.655   9.274  17.129 -1.7567  4.1967  4.1606
  198ETHOX  H2369331  11.539   9.220  17.252 -1.0040  1.3115 -1.0138
  199ETHOX   O169332  11.461   9.222  17.069 -0.1505  0.5263  0.6886
  199ETHOX   C169333  11.427   9.358  17.072  0.3853  0.2506 -0.3439
  199ETHOX  H1169334  11.507   9.420  17.026  0.1601 -0.7540 -2.1979
  199ETHOX  H1369335  11.411   9.385  17.178 -2.8179  1.5525 -1.0398
  199ETHOX   C269336  11.288   9.406  17.012 -0.1978  0.7904  0.0652
  199ETHOX  H2169337  11.290   9.360  16.911  1.9212  2.4015 -0.7091
  199ETHOX  H2369338  11.287   9.516  16.998  0.9768  0.8586  0.3940
  200ETHOX   O169339  11.179   9.370  17.102 -0.2475  0.1379  0.0090
  200ETHOX   C169340  11.054   9.406  17.053  0.2911  0.1735 -0.4407
  200ETHOX  H1169341  11.048   9.517  17.054 -0.3460  0.1422  0.2208
  200ETHOX  H1369342  11.030   9.389  16.946 -0.0602  0.8257 -0.4667
  200ETHOX   C269343  10.947   9.363  17.152 -0.7241  0.5710  0.6185
  200ETHOX  H2169344  10.848   9.411  17.141 -1.5981 -1.0595  1.1063
  200ETHOX  H2369345  10.993   9.383  17.252  1.6688  0.9055 -0.4733
  201ETHOX   O169346  10.932   9.224  17.136 -0.4887 -0.7321  0.0042
  201ETHOX   C169347  10.857   9.182  17.026  0.0749 -0.1002 -0.3355
  201ETHOX  H1169348  10.863   9.250  16.939 -1.0089 -0.7176 -0.9172
  201ETHOX  H1369349  10.750   9.185  17.058  0.5984  0.8213  1.4616
  201ETHOX   C269350  10.890   9.041  16.968 -0.2742 -0.3888  0.5993
  201ETHOX  H2169351  10.805   9.009  16.904 -0.3358  0.1632  0.3996
  201ETHOX  H2369352  10.884   8.972  17.055  0.2141  0.0921  1.0173
  202ETHOX   O169353  11.007   9.023  16.890  0.0388  0.2247  0.2837
  202ETHOX   C169354  11.128   9.042  16.970 -0.3459 -0.7320  0.1499
  202ETHOX  H1169355  11.141   9.148  17.001  1.3973  0.3786 -3.7353
  202ETHOX  H1369356  11.136   8.975  17.058 -1.2151  1.3331  1.9016
  202ETHOX   C269357  11.248   9.010  16.877 -0.2451 -0.6238  0.5179
  202ETHOX  H2169358  11.345   9.024  16.929 -1.2021  0.5864  2.0496
  202ETHOX  H2369359  11.248   9.091  16.801  1.8466 -0.4292  0.6674
  203ETHOX   O169360  11.229   8.878  16.816 -0.3980 -0.0948 -0.0489
  203ETHOX   C169361  11.326   8.853  16.710 -0.0184  0.0067  0.4542
  203ETHOX  H1169362  11.430   8.870  16.745  1.3872 -0.9075 -2.9317
  203ETHOX  H1369363  11.303   8.931  16.634  0.1504 -0.1964  0.1944
  203ETHOX   C269364  11.313   8.713  16.649  0.4238  0.0196 -0.3913
  203ETHOX  H2169365  11.356   8.720  16.546 -1.0344  2.3150 -0.9149
  203ETHOX  H2369366  11.207   8.680  16.643  0.7684 -1.4091  0.7308
  204ETHOX   O169367  11.382   8.611  16.721  0.4357 -0.6008  0.2529
  204ETHOX   C169368  11.344   8.491  16.666 -0.1257  0.7059  0.2191
  204ETHOX  H1169369  11.241   8.455  16.687  1.1230 -2.2577  1.9407
  204ETHOX  H1369370  11.368   8.491  16.558 -0.9566 -2.4390 -0.0726
  204ETHOX   C269371  11.438   8.381  16.718 -0.3479 -0.0846  0.0045
  204ETHOX  H2169372  11.392   8.283  16.692 -0.9349  0.6861 -2.0568
  204ETHOX  H2369373  11.433   8.385  16.829  1.0738  1.2517  0.0550
  205ETHOX   O169374  11.570   8.379  16.666  0.3950 -0.1213 -0.2132
  205ETHOX   C169375  11.573   8.353  16.523  0.5230 -0.3318  0.4124
  205ETHOX  H1169376  11.528   8.436  16.464  1.3215  0.2221  0.5770
  205ETHOX  H1369377  11.507   8.264  16.515 -0.4578  0.4040 -0.0213
  205ETHOX   C269378  11.708   8.335  16.465 -0.1848  0.4648  0.5137
  205ETHOX  H2169379  11.703   8.307  16.358 -1.4828 -0.5714  0.8203
  205ETHOX  H2369380  11.749   8.249  16.521 -0.3625 -0.1515 -0.2890
  206ETHOX   O169381  11.781   8.460  16.489 -0.5947  0.5254  0.8154
  206ETHOX   C169382  11.912   8.445  16.431 -0.1086 -0.8082 -0.4431
  206ETHOX  H1169383  11.972   8.372  16.489  0.5263  2.0380  2.8230
  206ETHOX  H1369384  11.917   8.424  16.322 -0.3078  2.4665 -1.2066
  206ETHOX   C269385  11.982   8.578  16.446  0.7051  0.0062  0.0036
  206ETHOX  H2169386  11.989   8.610  16.553 -1.8993 -0.8766  0.5177
  206ETHOX  H2369387  12.086   8.561  16.412  0.5214 -1.1585 -0.0185
  207ETHOX   O169388  11.916   8.680  16.372 -0.1687  0.0781 -0.3308
  207ETHOX   C169389  11.997   8.786  16.353 -0.0315 -0.0149  0.3166
  207ETHOX  H1169390  12.063   8.766  16.266  0.7532  0.5201  0.7734
  207ETHOX  H1369391  12.054   8.802  16.447  0.2854  2.3051 -0.2213
  207ETHOX   C269392  11.917   8.915  16.316  0.3106  0.8624  0.6197
  207ETHOX  H2169393  11.982   9.005  16.326  0.7947  0.8078 -1.4746
  207ETHOX  H2369394  11.837   8.919  16.393  1.9445 -1.1723  2.5804
  208ETHOX   O169395  11.874   8.919  16.190 -0.0590  0.5913  0.6223
  208ETHOX   C169396  11.789   9.029  16.166  0.0213 -0.4757 -0.1727
  208ETHOX  H1169397  11.703   9.030  16.236  1.4784  0.5781  1.6968
  208ETHOX  H1369398  11.861   9.113  16.180  2.1792 -1.9921 -1.4730
  208ETHOX   C269399  11.733   9.041  16.023  0.5664 -0.0622  0.2095
  208ETHOX  H2169400  11.667   9.130  16.029 -0.4740 -0.8128  0.2698
  208ETHOX  H2369401  11.671   8.953  15.992 -1.6238  1.1701  0.8488
  209ETHOX   O169402  11.825   9.085  15.923  0.3236 -0.9423  0.0051
  209ETHOX   C169403  11.779   9.056  15.793  0.3000  0.5116  0.2907
  209ETHOX  H1169404  11.686   9.114  15.770  0.4361  0.5375 -0.2048
  209ETHOX  H1369405  11.728   8.958  15.793 -2.1994  1.7231  1.0011
  209ETHOX   C269406  11.888   9.070  15.680  0.0884 -0.8343  0.2903
  209ETHOX  H2169407  11.935   9.171  15.679 -2.5340  0.4727  0.5295
  209ETHOX  H2369408  11.826   9.063  15.589 -0.1193  2.2133  0.0837
  210ETHOX   O169409  11.986   8.965  15.693  0.0995 -0.2338  0.6334
  210ETHOX   C169410  11.932   8.836  15.656  0.9915 -0.3339 -0.0658
  210ETHOX  H1169411  11.871   8.805  15.744  0.1896  1.2810 -0.0264
  210ETHOX  H1369412  11.870   8.832  15.564 -0.6756 -1.5940  1.0472
  210ETHOX   C269413  12.052   8.736  15.639  0.7417 -0.1042  0.0054
  210ETHOX  H2169414  12.009   8.634  15.629  0.2315  0.0868  0.2060
  210ETHOX  H2369415  12.113   8.731  15.732  0.5319  2.4659  0.3379
  211ETHOX   O169416  12.145   8.760  15.531 -0.0710 -0.2382  0.6522
  211ETHOX   C169417  12.127   8.676  15.416  0.3850 -0.3038 -0.7416
  211ETHOX  H1169418  12.098   8.574  15.449 -0.7846  0.7624  1.8613
  211ETHOX  H1369419  12.037   8.715  15.364  0.9734  1.1692 -0.6997
  211ETHOX   C269420  12.248   8.652  15.317  0.2713 -0.4484 -0.2893
  211ETHOX  H2169421  12.236   8.556  15.262 -1.1505 -2.1633  2.7092
  211ETHOX  H2369422  12.335   8.649  15.385 -0.4684 -0.4688  0.6892
  212ETHOX   O169423  12.278   8.758  15.226  1.2072 -0.1999 -0.0329
  212ETHOX   C169424  12.410   8.754  15.178 -1.3513  0.1261  0.2149
  212ETHOX  H1169425  12.484   8.755  15.262 -1.4704 -0.4448  0.3285
  212ETHOX  H1369426  12.433   8.673  15.106 -1.3422  1.0481 -0.8374
  212ETHOX   C269427  12.460   8.875  15.109  0.4973  0.4080 -0.0657
  212ETHOX  H2169428  12.570   8.870  15.092  0.3607  0.7562 -1.1468
  212ETHOX  H2369429  12.447   8.960  15.179  0.9081 -1.1303  1.9570
  213ETHOX   O169430  12.398   8.886  14.980  0.3547 -0.5776  0.6246
  213ETHOX   C169431  12.481   8.949  14.882 -0.0751  0.0527  0.1860
  213ETHOX  H1169432  12.538   9.032  14.929 -0.3041 -0.0859  0.7118
  213ETHOX  H1369433  12.546   8.875  14.830 -0.1626  0.5264 -0.6065
  213ETHOX   C269434  12.383   9.004  14.779  0.5797  0.5597  0.1497
  213ETHOX  H2169435  12.310   9.072  14.829  0.5883 -0.4137  1.5426
  213ETHOX  H2369436  12.323   8.917  14.744 -0.7873  1.0196  1.2492
  214ETHOX   O169437  12.445   9.068  14.665  0.2874 -0.3595 -0.1951
  214ETHOX   C169438  12.340   9.124  14.581  0.3094 -0.6591  0.6287
  214ETHOX  H1169439  12.300   9.207  14.644 -0.4920 -1.3560  1.0520
  214ETHOX  H1369440  12.270   9.042  14.556  0.8552 -0.8788 -0.2206
  214ETHOX   C269441  12.407   9.187  14.451 -0.1356 -0.3202 -0.4764
  214ETHOX  H2169442  12.488   9.262  14.469 -0.1350  0.1984 -2.4453
  214ETHOX  H2369443  12.326   9.231  14.389  0.3756 -1.1976 -1.8052
  215ETHOX   O169444  12.467   9.092  14.365 -0.0470 -0.1882  0.2483
  215ETHOX   C169445  12.538   9.140  14.252  0.1981 -0.6242 -0.0509
  215ETHOX  H1169446  12.465   9.158  14.171  1.5216  2.4644 -0.7103
  215ETHOX  H1369447  12.579   9.241  14.278  1.4179 -0.3563 -2.6493
  215ETHOX   C269448  12.652   9.055  14.208 -0.8039  0.7498  0.5326
  215ETHOX  H2169449  12.736   9.066  14.280 -0.7463  0.2096  0.5522
  215ETHOX  H2369450  12.701   9.098  14.118  1.4489 -0.7280  0.9783
  216ETHOX   O169451  12.620   8.909  14.177 -0.0533 -0.3428  0.2957
  216ETHOX   C169452  12.515   8.897  14.080  0.2379 -0.0972  0.7120
  216ETHOX  H1169453  12.547   8.976  14.008 -2.0896  1.4128  1.2283
  216ETHOX  H1369454  12.420   8.934  14.124 -1.6792 -0.2597 -2.9253
  216ETHOX   C269455  12.499   8.761  14.015 -0.1163  0.3179 -0.2503
  216ETHOX  H2169456  12.402   8.752  13.961 -0.0741  1.5131 -0.5401
  216ETHOX  H2369457  12.505   8.696  14.105  1.5043  1.6453  0.6446
  217ETHOX   O169458  12.609   8.733  13.930  0.0110 -0.4481 -0.3508
  217ETHOX   C169459  12.607   8.605  13.865  0.1245  0.0292 -0.4182
  217ETHOX  H1169460  12.504   8.579  13.831  0.0888  0.8819 -0.9864
  217ETHOX  H1369461  12.677   8.626  13.781  0.9532  2.4341  0.7907
  217ETHOX   C269462  12.663   8.485  13.943 -0.0148 -0.5025  0.2189
  217ETHOX  H2169463  12.603   8.475  14.036  1.0654 -0.0910  0.9745
  217ETHOX  H2369464  12.769   8.505  13.969 -0.0078 -0.1942 -0.0465
  218ETHOX   O169465  12.670   8.366  13.870 -0.5285 -0.2034 -0.3939
  218ETHOX   C169466  12.720   8.259  13.957 -0.6791 -0.8187  0.3494
  218ETHOX  H1169467  12.658   8.242  14.048 -0.1707  0.8246  1.0261
  218ETHOX  H1369468  12.818   8.285  14.002 -1.3208 -1.8375  2.4768
  218ETHOX   C269469  12.728   8.124  13.899 -0.0062  1.2718  0.0744
  218ETHOX  H2169470  12.787   8.056  13.964 -1.2119  0.0584 -0.0463
  218ETHOX  H2369471  12.796   8.122  13.811  1.0623  0.2823  0.8886
  219ETHOX   O169472  12.599   8.071  13.866 -0.0878  0.0915  0.1791
  219ETHOX   C169473  12.592   7.930  13.886 -0.0568 -0.4954 -0.9115
  219ETHOX  H1169474  12.691   7.879  13.884 -0.9867 -2.3642 -2.3686
  219ETHOX  H1369475  12.557   7.906  13.989 -0.8464 -0.9746 -1.2780
  219ETHOX   C269476  12.495   7.873  13.787 -0.0556  0.0029 -0.2055
  219ETHOX  H2169477  12.421   7.956  13.780  0.3629  0.5813  1.7396
  219ETHOX  H2369478  12.448   7.779  13.824  0.1931 -0.5256 -1.1856
  220ETHOX   O169479  12.553   7.849  13.665 -1.0362  0.2742  0.7945
  220ETHOX   C169480  12.462   7.807  13.568  0.3841  0.3169  0.2603
  220ETHOX  H1169481  12.403   7.718  13.599 -1.0518  0.8110 -0.9619
  220ETHOX  H1369482  12.520   7.771  13.480  1.2505  1.1775  0.4676
  220ETHOX   C269483  12.365   7.915  13.525  0.1497 -0.8267 -0.4107
  220ETHOX  H2169484  12.333   7.890  13.422 -1.1736 -0.7703 -0.0271
  220ETHOX  H2369485  12.411   8.016  13.517 -0.9958 -0.1193  1.4043
  221ETHOX   O169486  12.250   7.930  13.609 -0.2592 -0.2629 -0.1580
  221ETHOX   C169487  12.155   8.023  13.554 -0.4083 -0.1550  0.4804
  221ETHOX  H1169488  12.200   8.097  13.484 -2.1311 -1.4716 -2.1898
  221ETHOX  H1369489  12.085   7.965  13.490  1.0383 -1.9671  0.4485
  221ETHOX   C269490  12.071   8.101  13.666  0.0035  0.4140 -0.2182
  221ETHOX  H2169491  12.038   8.023  13.738 -1.3800 -0.8182 -2.0904
  221ETHOX  H2369492  11.978   8.130  13.612 -1.7610 -1.7861  1.3961
  222ETHOX   O169493  12.134   8.215  13.725  0.3206  0.4841 -0.2710
  222ETHOX   C169494  12.195   8.183  13.848 -0.4248 -0.0072  0.1101
  222ETHOX  H1169495  12.112   8.143  13.911  1.5371 -0.6652  2.4554
  222ETHOX  H1369496  12.267   8.099  13.842 -0.8059 -0.4253  1.1126
  222ETHOX   C269497  12.257   8.300  13.917  0.5693  0.5281 -0.5618
  222ETHOX  H2169498  12.324   8.359  13.851 -1.0434  1.8214 -1.1019
  222ETHOX  H2369499  12.320   8.270  14.004  0.0997 -0.1682 -0.4566
  223ETHOX   O169500  12.148   8.370  13.960  0.0857 -0.2585 -0.1225
  223ETHOX   C169501  12.185   8.456  14.066 -0.0735  0.3894  0.1763
  223ETHOX  H1169502  12.167   8.402  14.161  0.9698  0.3302  0.3604
  223ETHOX  H1369503  12.293   8.481  14.054  0.4382 -1.0386  1.4770
  223ETHOX   C269504  12.111   8.593  14.087 -0.2848 -0.0457  0.1669
  223ETHOX  H2169505  12.146   8.640  14.181 -3.0190  1.7785  0.4038
  223ETHOX  H2369506  12.002   8.569  14.096 -0.2615 -0.3796 -0.4207
  224ETHOX   O169507  12.138   8.678  13.976 -0.2143  0.1673 -0.5023
  224ETHOX   C169508  12.087   8.811  13.994 -0.5666 -0.5082 -0.2429
  224ETHOX  H1169509  11.978   8.803  14.017 -0.8617 -0.1323 -1.4319
  224ETHOX  H1369510  12.141   8.862  14.076 -0.8670  1.0510 -0.9608
  224ETHOX   C269511  12.089   8.892  13.861 -0.1132 -0.4031  0.8500
  224ETHOX  H2169512  12.192   8.869  13.823 -0.0366  1.0496  0.1344
  224ETHOX  H2369513  12.090   9.002  13.872 -1.1718 -0.0899 -1.5911
  225ETHOX   O169514  11.974   8.858  13.786 -0.2957  0.1151  0.4313
  225ETHOX   C169515  11.983   8.930  13.669  0.3839  0.5247  0.0941
  225ETHOX  H1169516  11.999   9.038  13.693  2.1629  0.5986 -1.1801
  225ETHOX  H1369517  11.886   8.918  13.617  1.9638 -0.2807 -2.8736
  225ETHOX   C269518  12.080   8.874  13.562  0.2384  0.5091 -0.0661
  225ETHOX  H2169519  12.056   8.897  13.457  2.3216 -0.4011 -0.7999
  225ETHOX  H2369520  12.077   8.764  13.579 -1.5710  0.3521 -1.1613
  226ETHOX   O169521  12.218   8.903  13.587  0.4737 -0.3294 -0.4786
  226ETHOX   C169522  12.304   8.846  13.491  0.0951  0.3740  0.0498
  226ETHOX  H1169523  12.283   8.737  13.481 -2.1378  0.1347  4.8187
  226ETHOX  H1369524  12.292   8.898  13.393  1.9854  3.5537  1.3461
  226ETHOX   C269525  12.454   8.853  13.545  1.0589  1.1607 -0.6048
  226ETHOX  H2169526  12.516   8.806  13.466 -0.6852 -0.0278 -1.3148
  226ETHOX  H2369527  12.465   8.801  13.643  0.1667 -0.0129 -1.1107
  227ETHOX   O169528  12.485   8.983  13.569 -1.1688 -0.4466  0.1387
  227ETHOX   C169529  12.610   9.009  13.629  0.3499  0.7312 -0.2385
  227ETHOX  H1169530  12.645   8.923  13.691  0.5197  0.3354 -0.8776
  227ETHOX  H1369531  12.594   9.087  13.707  1.1718  0.6545  0.0252
  227ETHOX   C269532  12.727   9.053  13.543 -0.0094  0.3198  1.2555
  227ETHOX  H2169533  12.755   8.983  13.462  2.2562  1.5869  0.8723
  227ETHOX  H2369534  12.816   9.053  13.610 -0.0480 -1.1026  1.3287
  228ETHOX   O169535  12.698   9.178  13.481 -0.4898  0.2001  0.2531
  228ETHOX   C169536  12.799   9.216  13.391 -0.0081  0.0623 -0.1284
  228ETHOX  H1169537  12.896   9.222  13.444 -0.3236  2.1448  0.2625
  228ETHOX  H1369538  12.793   9.139  13.311  3.6394 -0.5031 -0.0305
  228ETHOX   C269539  12.775   9.355  13.338 -0.4021  0.0628  0.2602
  228ETHOX  H2169540  12.666   9.364  13.315 -1.1164 -2.4974  2.1272
  228ETHOX  H2369541  12.837   9.369  13.248 -0.9151 -1.9420 -0.4726
  229ETHOX   O169542  12.816   9.451  13.436  0.3771  0.0991 -0.3372
  229ETHOX   C169543  12.844   9.582  13.378  0.5985 -0.4310  0.4992
  229ETHOX  H1169544  12.750   9.612  13.327 -0.0059  0.3362  2.0041
  229ETHOX  H1369545  12.923   9.562  13.302  0.7517  1.2285  0.1688
  229ETHOX   C269546  12.898   9.682  13.478  0.6207  0.6683  0.8577
  229ETHOX  H2169547  12.932   9.778  13.432 -0.2241  0.4543 -0.2578
  229ETHOX  H2369548  12.984   9.634  13.528 -0.0161  2.5184  4.0547
  230ETHOX   O169549  12.804   9.708  13.581 -0.2342  0.0227  0.4208
  230ETHOX   C169550  12.867   9.782  13.685 -0.0364 -0.2604  0.5318
  230ETHOX  H1169551  12.910   9.722  13.768  1.4048 -0.5460 -0.3771
  230ETHOX  H1369552  12.947   9.843  13.637  0.2808 -0.4727  0.7867
  230ETHOX   C269553  12.764   9.874  13.746 -0.2166 -1.2007  0.7583
  230ETHOX  H2169554  12.713   9.945  13.678  0.2473  1.1937  2.7486
  230ETHOX  H2369555  12.818   9.946  13.811  0.3545  2.0945 -2.9501
  231ETHOX   O169556  12.669   9.804  13.821  0.6556  0.0910 -0.2770
  231ETHOX   C169557  12.566   9.894  13.867  0.1215 -0.0508 -0.4269
  231ETHOX  H1169558  12.481   9.894  13.796  0.2667  2.6352 -0.7085
  231ETHOX  H1369559  12.606   9.997  13.875 -0.2704  0.3012 -2.5219
  231ETHOX   C269560  12.525   9.849  14.008 -0.0513 -0.1329 -0.3982
  231ETHOX  H2169561  12.479   9.748  13.998 -1.4383  0.4967 -0.5795
  231ETHOX  H2369562  12.454   9.927  14.043  2.4182  1.5036  1.2382
  232ETHOX   O169563  12.633   9.834  14.097  0.1419  0.1579 -0.1181
  232ETHOX   C169564  12.586   9.823  14.233 -0.2754  0.0856 -0.0816
  232ETHOX  H1169565  12.678   9.812  14.294  0.3591 -0.1844 -1.0762
  232ETHOX  H1369566  12.532   9.913  14.271  0.6159  0.4768  0.3011
  232ETHOX   C269567  12.507   9.688  14.251  0.1680  0.3340 -0.4711
  232ETHOX  H2169568  12.568   9.615  14.193  2.7672  0.9055  1.3756
  232ETHOX  H2369569  12.404   9.691  14.209 -1.0229 -2.9939  1.7738
  233ETHOX   O169570  12.491   9.657  14.389 -0.0869 -0.1302  0.6648
  233ETHOX   C169571  12.381   9.571  14.405 -0.3851  0.0974 -0.3555
  233ETHOX  H1169572  12.279   9.609  14.385 -0.4981  0.6731  1.1706
  233ETHOX  H1369573  12.397   9.480  14.344 -2.0281 -1.9888  2.0691
  233ETHOX   C269574  12.385   9.521  14.549  0.0394 -0.5070  0.2342
  233ETHOX  H2169575  12.483   9.472  14.568 -0.0368 -0.7815 -0.0738
  233ETHOX  H2369576  12.309   9.442  14.564 -0.0738 -1.3136 -3.4696
  234ETHOX   O169577  12.375   9.629  14.641  0.2286 -0.0984 -0.2470
  234ETHOX   C169578  12.237   9.666  14.665 -0.2553  0.2903  0.3217
  234ETHOX  H1169579  12.248   9.777  14.664  0.3116  0.2346 -0.1639
  234ETHOX  H1369580  12.175   9.638  14.578  0.8126 -1.8942  0.1934
  234ETHOX   C269581  12.187   9.626  14.797  0.6612  0.1928  0.1090
  234ETHOX  H2169582  12.087   9.672  14.813 -0.5050 -2.8556  2.8287
  234ETHOX  H2369583  12.269   9.644  14.870  0.4349 -2.5448  1.1480
  235ETHOX   O169584  12.154   9.486  14.793 -0.2363  0.0556  0.2597
  235ETHOX   C169585  12.107   9.443  14.919  0.4903 -0.3731  0.3606
  235ETHOX  H1169586  12.172   9.455  15.008  1.4922 -1.1208 -0.2433
  235ETHOX  H1369587  12.012   9.498  14.939 -0.0562 -0.7714 -0.9929
  235ETHOX   C269588  12.077   9.291  14.929  0.6124  0.6186  0.8058
  235ETHOX  H2169589  12.076   9.256  15.035  0.5258  3.7691  1.9528
  235ETHOX  H2369590  12.169   9.246  14.886  0.3766  0.0384  0.8949
  236ETHOX   O169591  11.976   9.238  14.842  0.3151  0.1385 -0.4445
  236ETHOX   C169592  11.843   9.271  14.888 -0.3718 -0.7915  0.1513
  236ETHOX  H1169593  11.818   9.379  14.880 -0.0970 -0.8503 -1.9398
  236ETHOX  H1369594  11.843   9.228  14.991  2.8420 -0.6067  0.3374
  236ETHOX   C269595  11.730   9.209  14.807 -0.3882 -0.0936  0.5808
  236ETHOX  H2169596  11.635   9.243  14.853 -0.1073  0.9442  0.4187
  236ETHOX  H2369597  11.727   9.099  14.792 -1.1287 -0.3815  2.5822
  237ETHOX   O169598  11.736   9.283  14.681 -0.2663 -0.5675  0.3606
  237ETHOX   C169599  11.621   9.254  14.596 -0.1877  0.5723 -0.5516
  237ETHOX  H1169600  11.612   9.144  14.586  0.1166  0.3458  1.3712
  237ETHOX  H1369601  11.527   9.282  14.648  0.1468  0.8611 -0.1011
  237ETHOX   C269602  11.621   9.328  14.465  0.2625  0.2909 -0.3408
  237ETHOX  H2169603  11.679   9.420  14.487 -0.8559  0.8548  0.3546
  237ETHOX  H2369604  11.518   9.359  14.436  0.6969  1.4618 -0.6623
  238ETHOX   O169605  11.668   9.257  14.357 -0.2237  0.4860  0.2945
  238ETHOX   C169606  11.808   9.280  14.342 -0.2446 -0.4391  0.2447
  238ETHOX  H1169607  11.861   9.214  14.414  1.8375 -0.4470 -1.1861
  238ETHOX  H1369608  11.832   9.386  14.365 -1.4240 -0.5039  1.9129
  238ETHOX   C269609  11.868   9.245  14.203 -0.4448  0.5581  0.6168
  238ETHOX  H2169610  11.871   9.136  14.181  3.8032  1.0247 -2.3491
  238ETHOX  H2369611  11.975   9.275  14.194 -0.5140  0.3457 -1.2958
  239ETHOX   O169612  11.802   9.322  14.098 -0.0479  0.4463  0.1433
  239ETHOX   C169613  11.846   9.274  13.972  0.0401  0.3583  0.0686
  239ETHOX  H1169614  11.917   9.350  13.933  1.8959 -0.4371  1.7367
  239ETHOX  H1369615  11.885   9.170  13.982 -3.6598 -1.0798  0.8764
  239ETHOX   C269616  11.720   9.270  13.884 -0.8561  0.0230  0.3961
  239ETHOX  H2169617  11.666   9.368  13.883 -1.9759 -0.5746 -0.0481
  239ETHOX  H2369618  11.756   9.256  13.780 -0.5238 -1.2519  0.6733
  240ETHOX   O169619  11.625   9.161  13.912  0.0845  0.0307 -0.1588
  240ETHOX   C169620  11.511   9.161  13.825 -0.1901 -0.0453  0.0244
  240ETHOX  H1169621  11.546   9.157  13.720 -2.1305 -2.2280 -0.6235
  240ETHOX  H1369622  11.444   9.250  13.831  0.2542  0.2858  0.1364
  240ETHOX   C269623  11.423   9.034  13.848 -0.5749 -0.4033 -0.2518
  240ETHOX  H2169624  11.483   8.943  13.826 -1.6641 -0.6606 -2.3519
  240ETHOX  H2369625  11.348   9.042  13.767  0.4837 -4.4561 -1.8803
  241ETHOX   O169626  11.357   9.038  13.969 -0.0322  0.0406 -0.5465
  241ETHOX   C169627  11.273   8.924  13.984  0.2765  0.4684 -0.7273
  241ETHOX  H1169628  11.191   8.946  14.056  0.7379 -0.8000  0.2198
  241ETHOX  H1369629  11.237   8.887  13.886 -0.7921 -0.5459  0.0246
  241ETHOX   C269630  11.352   8.809  14.050  0.5920 -0.2018  0.6257
  241ETHOX  H2169631  11.288   8.729  14.092  1.1798 -1.2469 -0.4057
  241ETHOX  H2369632  11.392   8.873  14.131 -2.3543  4.2356 -1.0278
  242ETHOX   O169633  11.456   8.768  13.967  0.0647  0.1320 -0.2985
  242ETHOX   C169634  11.553   8.697  14.040 -0.2285 -0.0004  0.1908
  242ETHOX  H1169635  11.505   8.610  14.091  1.3780 -1.4500 -0.6535
  242ETHOX  H1369636  11.588   8.760  14.125 -1.4847  0.1873  0.5930
  242ETHOX   C269637  11.682   8.649  13.966  0.1081  0.2906  0.0981
  242ETHOX  H2169638  11.769   8.654  14.035  1.1651  1.7805 -1.2559
  242ETHOX  H2369639  11.699   8.730  13.892  3.2518  0.6236  1.0482
  243ETHOX   O169640  11.681   8.518  13.909 -0.3508 -0.0778 -0.1266
  243ETHOX   C169641  11.812   8.469  13.881  0.1590 -0.4126 -0.6046
  243ETHOX  H1169642  11.864   8.550  13.826 -0.7014  1.3673  1.0814
  243ETHOX  H1369643  11.862   8.456  13.980 -0.4939 -0.9863 -0.3331
  243ETHOX   C269644  11.809   8.331  13.810 -0.0003  0.3575 -0.5072
  243ETHOX  H2169645  11.908   8.314  13.762 -0.7035  2.0128 -2.7205
  243ETHOX  H2369646  11.742   8.344  13.722 -0.1358 -2.9452 -0.9869
  244ETHOX   O169647  11.770   8.215  13.891 -0.4012 -0.3022  0.7083
  244ETHOX   C169648  11.837   8.206  14.013  0.1498  0.1283 -0.3785
  244ETHOX  H1169649  11.788   8.277  14.082 -0.4647 -1.1567  0.5574
  244ETHOX  H1369650  11.941   8.244  14.001 -0.2916  1.1370 -1.0714
  244ETHOX   C269651  11.820   8.071  14.085  0.2304 -0.0782 -0.0221
  244ETHOX  H2169652  11.713   8.062  14.113 -0.1209  1.1938 -0.8522
  244ETHOX  H2369653  11.895   8.073  14.167 -0.5294 -0.6556  0.6922
  245ETHOX   O169654  11.864   7.967  13.998 -0.2166 -0.0387 -0.3274
  245ETHOX   C169655  11.827   7.838  14.050 -0.1335 -0.0070  0.7437
  245ETHOX  H1169656  11.833   7.831  14.161  2.1644  0.4154  0.6893
  245ETHOX  H1369657  11.726   7.808  14.013  0.3882  0.5943 -1.2699
  245ETHOX   C269658  11.920   7.733  13.986 -0.0898  0.3942  0.0480
  245ETHOX  H2169659  11.951   7.750  13.881  0.5897 -0.6951  0.0627
  245ETHOX  H2369660  11.862   7.639  13.978  1.2524 -0.3728 -1.0766
  246ETHOX   O169661  12.023   7.699  14.070  0.1019  0.0798  0.3068
  246ETHOX   C169662  12.139   7.687  13.995 -0.5355  0.6067  0.2714
  246ETHOX  H1169663  12.223   7.657  14.061 -1.3507 -0.0949  1.0202
  246ETHOX  H1369664  12.173   7.788  13.963  1.6844  0.8483  3.0253
  246ETHOX   C269665  12.148   7.583  13.872  0.3294 -0.8705  0.1296
  246ETHOX  H2169666  12.251   7.597  13.833  0.5786  0.9864  1.3260
  246ETHOX  H2369667  12.067   7.614  13.802 -0.0162 -0.1926  0.8181
  247ETHOX   O169668  12.138   7.453  13.921  0.2695  0.2317 -0.3463
  247ETHOX   C169669  12.137   7.356  13.810  1.2817 -0.1976 -0.7672
  247ETHOX  H1169670  12.058   7.385  13.737  0.8031  0.8331  0.1345
  247ETHOX  H1369671  12.233   7.365  13.754  1.2493  0.7701 -0.6773
  247ETHOX   C269672  12.137   7.213  13.867  0.3022  0.1115  0.3826
  247ETHOX  H2169673  12.158   7.145  13.782 -0.6667  1.2876 -0.8411
  247ETHOX  H2369674  12.221   7.200  13.938 -0.2563  2.8482  1.6944
  248ETHOX   O169675  12.021   7.172  13.936  0.3173  0.1263  0.1028
  248ETHOX   C169676  11.895   7.187  13.863  0.8117  0.2847 -0.2886
  248ETHOX  H1169677  11.815   7.162  13.936 -0.2492 -1.9990 -2.0949
  248ETHOX  H1369678  11.882   7.294  13.838  0.7988 -0.1974 -2.5586
  248ETHOX   C269679  11.885   7.081  13.744  0.1927 -1.6343  0.3617
  248ETHOX  H2169680  11.777   7.065  13.721  0.1919 -0.8305 -0.2359
  248ETHOX  H2369681  11.925   6.982  13.774 -1.7266 -2.8316 -0.7857
  249ETHOX   O169682  11.954   7.122  13.621 -0.0092  0.0878  0.1922
  249ETHOX   C169683  11.865   7.128  13.510 -0.8913  0.0200  0.3600
  249ETHOX  H1169684  11.829   7.025  13.493 -0.1852 -0.1089 -0.3575
  249ETHOX  H1369685  11.774   7.189  13.530 -1.0804 -0.7051  1.8455
  249ETHOX   C269686  11.938   7.171  13.384 -0.1783 -0.1830 -0.4262
  249ETHOX  H2169687  11.923   7.098  13.302  3.0429 -1.4734 -0.0383
  249ETHOX  H2369688  12.048   7.162  13.401 -0.4292 -1.1061  0.9245
  250ETHOX   O169689  11.905   7.304  13.356 -0.1021  0.1903 -0.1983
  250ETHOX   C169690  11.977   7.358  13.247  0.0014 -0.4277 -0.3658
  250ETHOX  H1169691  12.084   7.329  13.260  0.4848  1.9668  1.8486
  250ETHOX  H1369692  11.934   7.311  13.157  1.9992 -4.7415  0.6670
  250ETHOX   C269693  11.971   7.511  13.245  0.0801  0.2057  0.2869
  250ETHOX  H2169694  11.867   7.550  13.256  0.1209  0.9574 -1.6529
  250ETHOX  H2369695  12.007   7.554  13.149  0.7332  0.5241  0.6650
  251ETHOX   O169696  12.052   7.551  13.352 -0.0250 -0.2094  0.1266
  251ETHOX   C169697  12.039   7.688  13.377 -0.7562 -0.0699  0.0871
  251ETHOX  H1169698  12.063   7.741  13.282  2.5988 -3.0316 -0.9086
  251ETHOX  H1369699  12.100   7.719  13.464 -0.3129 -3.4923  1.1356
  251ETHOX   C269700  11.898   7.747  13.428 -0.5530 -0.0203 -0.3493
  251ETHOX  H2169701  11.816   7.699  13.370  0.2227 -0.9768 -0.6829
  251ETHOX  H2369702  11.881   7.854  13.400 -0.0689  0.1249 -0.0889
  252ETHOX   O169703  11.869   7.732  13.568 -0.3962 -0.0520  0.1705
  252ETHOX   C169704  11.839   7.597  13.594 -0.3526  0.6259  0.3331
  252ETHOX  H1169705  11.890   7.532  13.519 -2.3965 -0.2696 -0.3464
  252ETHOX  H1369706  11.890   7.562  13.687 -0.4869 -0.2061  0.1044
  252ETHOX   C269707  11.688   7.562  13.603  0.2376 -0.2092 -0.6844
  252ETHOX  H2169708  11.684   7.451  13.595 -0.3027 -0.1298 -1.6476
  252ETHOX  H2369709  11.626   7.605  13.522 -3.7999  1.7325  3.0501
  253ETHOX   O169710  11.631   7.619  13.724  0.0073  0.3758 -0.6090
  253ETHOX   C169711  11.616   7.760  13.719 -0.4937 -0.2446  0.4662
  253ETHOX  H1169712  11.609   7.808  13.619 -1.7586  0.2268  0.7531
  253ETHOX  H1369713  11.715   7.796  13.753 -0.6032  0.4452  0.0820
  253ETHOX   C269714  11.503   7.808  13.812  1.4718  0.1588 -0.2874
  253ETHOX  H2169715  11.502   7.919  13.811  0.5979  0.2208  1.9814
  253ETHOX  H2369716  11.519   7.773  13.916 -1.1776  2.2900  0.9836
  254ETHOX   O169717  11.371   7.755  13.774 -0.1035  0.3243 -0.6344
  254ETHOX   C169718  11.272   7.811  13.855  0.4583  0.1706 -0.2601
  254ETHOX  H1169719  11.176   7.759  13.835 -0.8426  1.8316  1.3322
  254ETHOX  H1369720  11.288   7.812  13.965 -3.3999 -0.7893  0.4769
  254ETHOX   C269721  11.227   7.955  13.822 -0.2032 -0.3204 -0.5268
  254ETHOX  H2169722  11.196   7.977  13.717 -3.1694  0.9487  0.5130
  254ETHOX  H2369723  11.304   8.025  13.861 -0.5102 -0.7418  0.8920
  255ETHOX   O169724  11.111   7.967  13.895  0.1019  0.4816  0.1745
  255ETHOX   C169725  11.079   8.100  13.895  0.3774  0.7440 -0.1806
  255ETHOX  H1169726  11.072   8.132  13.789  0.2469  0.6658 -0.1958
  255ETHOX  H1369727  11.163   8.155  13.943  0.3981  0.6878 -0.1532
  255ETHOX   C269728  10.934   8.128  13.955  0.1526 -0.1906 -0.5145
  255ETHOX  H2169729  10.859   8.064  13.904 -1.7546 -0.4287  2.3443
  255ETHOX  H2369730  10.912   8.235  13.941  1.9032  0.2291 -0.3577
  256ETHOX   O169731  10.947   8.083  14.087  0.3350 -0.1250 -0.1545
  256ETHOX   C169732  10.844   8.124  14.178 -0.1442 -0.2187 -0.3308
  256ETHOX  H1169733  10.838   8.235  14.175 -2.8239 -0.2567  0.6116
  256ETHOX  H1369734  10.745   8.085  14.146 -0.3118 -2.4044  2.4438
  256ETHOX   C269735  10.864   8.088  14.322  0.3383  0.4173 -0.4956
  256ETHOX  H2169736  10.820   8.163  14.391 -4.9016 -3.0199  0.4271
  256ETHOX  H2369737  10.975   8.089  14.331  0.2908  2.8960  0.6253
  257ETHOX   O169738  10.811   7.957  14.346 -0.1979 -0.3349 -0.4177
  257ETHOX   C169739  10.822   7.915  14.488  0.3382  0.2179 -0.1433
  257ETHOX  H1169740  10.840   8.012  14.539 -0.3391 -0.4396  1.4144
  257ETHOX  H1369741  10.915   7.859  14.509 -0.3799 -0.3965  1.6039
  257ETHOX   C269742  10.695   7.860  14.546  0.3489 -0.2067 -0.4632
  257ETHOX  H2169743  10.663   7.764  14.499 -2.0114 -0.0733  0.7718
  257ETHOX  H2369744  10.605   7.922  14.529 -0.2426 -0.6152  1.0850
  258ETHOX   O169745  10.709   7.833  14.683  0.0866  0.1362  0.5161
  258ETHOX   C169746  10.588   7.765  14.725  0.0638  0.2998 -0.0294
  258ETHOX  H1169747  10.496   7.827  14.716 -2.1796 -2.3838  2.6174
  258ETHOX  H1369748  10.586   7.670  14.669  0.5249  1.4133 -2.0255
  258ETHOX   C269749  10.593   7.743  14.876 -0.3182 -0.1660 -0.4247
  258ETHOX  H2169750  10.493   7.701  14.901 -0.9620  1.2985 -0.4030
  258ETHOX  H2369751  10.613   7.835  14.934 -1.2008 -0.5973  0.6104
  259ETHOX   O169752  10.703   7.649  14.915  0.4362  0.0810  0.0374
  259ETHOX   C169753  10.692   7.623  15.049  0.1640  0.0923 -0.5228
  259ETHOX  H1169754  10.693   7.714  15.114 -2.2040 -0.7300  0.7926
  259ETHOX  H1369755  10.602   7.559  15.054  0.6898 -0.6135  0.3445
  259ETHOX   C269756  10.811   7.539  15.094  0.1753 -0.1583 -0.5973
  259ETHOX  H2169757  10.806   7.525  15.204  1.5522 -0.6622 -0.5701
  259ETHOX  H2369758  10.909   7.591  15.081  1.1789 -1.4348  1.3143
  260ETHOX   O169759  10.802   7.412  15.035 -0.0741  0.4725 -0.3914
  260ETHOX   C169760  10.896   7.315  15.091  0.1116  0.5116 -0.0254
  260ETHOX  H1169761  10.999   7.350  15.071  0.0108  0.1283 -1.3321
  260ETHOX  H1369762  10.872   7.307  15.200 -0.3257  2.1385  0.0127
  260ETHOX   C269763  10.878   7.170  15.039 -0.3122 -0.2924 -0.2778
  260ETHOX  H2169764  10.769   7.151  15.042 -0.1084 -1.9034 -1.5681
  260ETHOX  H2369765  10.925   7.094  15.106 -1.3103  0.4047  1.2669
  261ETHOX   O169766  10.945   7.162  14.918  0.0547  0.1445  0.4325
  261ETHOX   C169767  10.878   7.068  14.836 -0.4219 -0.7324  1.1061
  261ETHOX  H1169768  10.897   6.963  14.869  2.2403 -1.8123 -3.0154
  261ETHOX  H1369769  10.772   7.097  14.820 -0.1117  0.5946  1.3976
  261ETHOX   C269770  10.947   7.066  14.696  0.7649  0.0307 -1.0054
  261ETHOX  H2169771  10.928   7.163  14.644 -1.9938  0.4626  0.6044
  261ETHOX  H2369772  10.900   6.987  14.634  0.8526 -1.2826  0.5621
  262ETHOX   O169773  11.083   7.038  14.703  0.0490  0.3139  0.1560
  262ETHOX   C169774  11.144   7.025  14.578 -0.3992 -0.9202 -0.2448
  262ETHOX  H1169775  11.079   6.950  14.529 -1.7906 -1.8028  2.7106
  262ETHOX  H1369776  11.240   6.971  14.587 -1.0297 -2.4121 -1.8005
  262ETHOX   C269777  11.161   7.159  14.499 -0.8449 -0.4869 -0.2004
  262ETHOX  H2169778  11.238   7.219  14.552 -0.0148 -0.8447 -0.9679
  262ETHOX  H2369779  11.063   7.213  14.497 -1.6581 -1.9049 -2.5026
  263ETHOX   O169780  11.188   7.144  14.362  0.4163 -0.3371 -0.1746
  263ETHOX   C169781  11.157   7.261  14.282  0.7571  1.2204  0.3404
  263ETHOX  H1169782  11.189   7.354  14.333 -0.7171  1.5251  0.7479
  263ETHOX  H1369783  11.048   7.264  14.259  1.1315  0.9262 -1.6302
  263ETHOX   C269784  11.218   7.239  14.137  0.0081 -0.2400  0.1316
  263ETHOX  H2169785  11.183   7.316  14.065  0.1402 -0.3522 -0.0520
  263ETHOX  H2369786  11.171   7.146  14.100  0.1405  0.1623 -1.0856
  264ETHOX   O169787  11.361   7.232  14.138 -0.1986  0.0456 -0.0559
  264ETHOX   C169788  11.402   7.113  14.069 -0.7385  0.2816  0.4620
  264ETHOX  H1169789  11.380   7.130  13.961  3.5442  0.7274 -0.4947
  264ETHOX  H1369790  11.351   7.018  14.094 -1.1987 -0.1147 -1.7470
  264ETHOX   C269791  11.558   7.102  14.100  0.3693 -0.2575 -0.1555
  264ETHOX  H2169792  11.608   7.200  14.087 -2.3369  0.9994 -2.0815
  264ETHOX  H2369793  11.598   7.034  14.022 -1.8847  0.8727 -2.4536
  265ETHOX   O169794  11.582   7.048  14.230 -0.3500 -0.3705 -0.8784
  265ETHOX   C169795  11.722   7.041  14.252 -0.5258 -0.0559  0.4881
  265ETHOX  H1169796  11.765   7.142  14.238  1.3277 -0.9129 -0.3117
  265ETHOX  H1369797  11.731   7.028  14.362  1.4460  2.0866  0.6421
  265ETHOX   C269798  11.806   6.933  14.187  0.5447  0.2477  0.1356
  265ETHOX  H2169799  11.916   6.942  14.204  0.5875 -0.5434  0.2994
  265ETHOX  H2369800  11.803   6.929  14.076  0.5905  0.2306  0.1349
  265ETHOX   OZ69801  11.767   6.807  14.243  0.1040 -0.1841 -0.3158
  265ETHOX  HZ169802  11.738   6.757  14.166 -2.3924  0.2853  0.2206
  266PYR     C169803  11.878  13.805  11.314  0.1937 -0.3392 -0.0671
  266PYR     C269804  11.928  13.884  11.210 -1.2251  0.7475  0.1839
  266PYR     C369805  11.959  13.832  11.085 -0.8340  0.6444  0.4510
  266PYR     C469806  11.944  13.696  11.064  0.5596  0.3016 -0.3823
  266PYR     C569807  11.887  13.615  11.163 -0.5750  0.3390 -0.2226
  266PYR     C669808  11.866  13.667  11.285  0.0635 -0.4880 -0.0963
  266PYR     C769809  11.808  13.582  11.383  0.3299 -0.5539 -0.5306
  266PYR     C869810  11.775  13.633  11.512  0.2062  0.4669 -0.1126
  266PYR     C969811  11.800  13.767  11.535  0.0795 -0.3844 -0.0607
  266PYR    C1069812  11.835  13.863  11.433 -0.1386 -0.3785 -0.3174
  266PYR    C1169813  11.776  13.448  11.358  0.5410 -0.2809  0.9910
  266PYR    C1269814  11.723  13.371  11.459 -0.2414  0.5678  0.6040
  266PYR    C1369815  11.698  13.423  11.587  0.2389  0.3182  0.0881
  266PYR    C1469816  11.728  13.556  11.617 -0.0230 -0.2645  0.3158
  266PYR    C1569817  11.866  13.477  11.132  0.1881  0.1070 -0.4455
  266PYR    C1669818  11.809  13.394  11.232 -0.0882 -0.6097 -0.3114
  266PYR     H169819  11.835  13.969  11.453  0.3201 -0.7480  2.0055
  266PYR     H269820  11.757  13.814  11.622  0.0657 -0.7998  0.1558
  266PYR     H369821  11.926  13.991  11.218 -2.9170  0.7112  0.5730
  266PYR     H469822  11.982  13.905  11.009  0.4905 -0.2059  0.0020
  266PYR     H569823  11.969  13.653  10.968 -1.7761 -0.1941 -0.8245
  266PYR     H669824  11.889  13.437  11.034  0.0310 -0.2592 -0.3343
  266PYR     H769825  11.793  13.289  11.210 -0.5043 -0.4483 -0.8059
  266PYR     H869826  11.694  13.269  11.440  1.3770  0.2076 -0.0698
  266PYR     H969827  11.669  13.355  11.665  3.2263 -0.2424  0.8436
  266PYR    H1069828  11.705  13.591  11.716  0.6866  2.0722 -0.2662
  267PYR     C169829  12.718  12.973  10.566  0.9678 -0.2305 -0.0711
  267PYR     C269830  12.616  13.045  10.624  0.0406  0.1147 -0.5455
  267PYR     C369831  12.630  13.183  10.658  0.9529 -0.3550  0.3195
  267PYR     C469832  12.744  13.255  10.623  0.3084  0.2086 -0.1536
  267PYR     C569833  12.849  13.191  10.557 -1.1176 -0.2234  0.6109
  267PYR     C669834  12.836  13.045  10.527  0.1781  0.4271  0.2168
  267PYR     C769835  12.937  12.981  10.455 -0.6194 -0.4274  0.1596
  267PYR     C869836  12.928  12.842  10.428 -0.6341 -0.5682  0.1010
  267PYR     C969837  12.816  12.769  10.476 -0.5462  0.3475 -0.5684
  267PYR    C1069838  12.715  12.834  10.547 -0.1273  0.4060  0.3468
  267PYR    C1169839  13.054  13.052  10.416 -0.4184 -0.0778 -0.1477
  267PYR    C1269840  13.171  12.980  10.370  0.0754 -0.6157 -0.6674
  267PYR    C1369841  13.162  12.843  10.356 -1.1609  0.5356 -0.1990
  267PYR    C1469842  13.044  12.774  10.375  0.1928  0.1587 -0.4838
  267PYR    C1569843  12.966  13.263  10.503  0.4908  0.2003 -0.5607
  267PYR    C1669844  13.065  13.189  10.440 -0.1869 -0.2181  0.1542
  267PYR     H169845  12.631  12.781  10.590 -0.1650 -1.7709 -2.1294
  267PYR     H269846  12.808  12.663  10.456 -0.2666  0.5954 -2.1651
  267PYR     H369847  12.528  12.995  10.663  0.7535  0.2688  1.3814
  267PYR     H469848  12.550  13.231  10.712  0.4515  0.2621 -0.9158
  267PYR     H569849  12.745  13.360  10.650 -0.9057 -0.2777  1.9552
  267PYR     H669850  12.971  13.371  10.503 -4.1085  0.6165  0.5401
  267PYR     H769851  13.156  13.243  10.419 -0.5737 -0.2226 -1.7886
  267PYR     H869852  13.262  13.033  10.346  0.4093 -0.6871  0.3864
  267PYR     H969853  13.253  12.794  10.324 -0.4339  0.2969  2.0653
  267PYR    H1069854  13.037  12.667  10.387  1.1142  0.2260  0.8920
  268PYR     C169855  11.158  14.399  12.930 -0.2515 -0.4866 -0.3559
  268PYR     C269856  11.216  14.473  12.824 -0.0466  0.2645  0.3947
  268PYR     C369857  11.202  14.416  12.692 -0.5699  0.6492  0.0449
  268PYR     C469858  11.130  14.303  12.665  0.5553 -0.7554  0.5082
  268PYR     C569859  11.066  14.231  12.765 -0.0200  0.2033  0.3924
  268PYR     C669860  11.086  14.277  12.895  0.1034 -0.0570 -0.1942
  268PYR     C769861  11.032  14.206  13.002  0.0158  0.5720 -0.5775
  268PYR     C869862  11.054  14.240  13.139  0.2418 -0.1923 -0.6668
  268PYR     C969863  11.132  14.353  13.163  1.0010  0.3848 -0.1432
  268PYR    C1069864  11.175  14.434  13.064  0.9992 -0.5430 -0.0168
  268PYR    C1169865  10.948  14.090  12.983  0.1052 -0.0666 -0.0488
  268PYR    C1269866  10.896  14.015  13.092 -0.0202 -0.3639 -0.5572
  268PYR    C1369867  10.927  14.055  13.220  1.3809 -0.0031  0.0165
  268PYR    C1469868  11.006  14.165  13.253  0.0168 -0.0080  0.6365
  268PYR    C1569869  10.981  14.120  12.747  0.6930 -0.7183  0.8718
  268PYR    C1669870  10.920  14.049  12.853 -0.2517  0.3227 -0.3130
  268PYR     H169871  11.228  14.527  13.084 -0.1546  0.2368 -0.4718
  268PYR     H269872  11.149  14.385  13.265 -0.3545 -0.3780  0.3523
  268PYR     H369873  11.268  14.568  12.834 -0.4406  0.4576  0.6487
  268PYR     H469874  11.246  14.465  12.607  0.0634 -1.3823 -0.8659
  268PYR     H569875  11.119  14.267  12.564  0.8269 -0.5068  0.3904
  268PYR     H669876  10.961  14.083  12.648  0.4194 -0.1077  0.6925
  268PYR     H769877  10.847  13.974  12.825  0.9797 -1.4007  0.8980
  268PYR     H869878  10.841  13.922  13.080  1.9187 -1.8095  1.0393
  268PYR     H969879  10.895  13.995  13.304 -0.9505  0.1423 -0.7041
  268PYR    H1069880  11.031  14.194  13.354 -2.5798  0.5097  1.1967
  269PYR     C169881  14.666  14.064  14.271 -0.2405 -0.2791 -0.7749
  269PYR     C269882  14.783  13.986  14.253 -0.0098 -0.8639 -0.4799
  269PYR     C369883  14.802  13.921  14.132  0.1930 -0.5648  0.2609
  269PYR     C469884  14.702  13.921  14.028  0.5108 -0.3047 -0.6411
  269PYR     C569885  14.586  13.995  14.048 -0.4749 -0.4399 -0.6236
  269PYR     C669886  14.569  14.068  14.170  0.7475  0.7384 -0.2057
  269PYR     C769887  14.456  14.147  14.193 -0.2888  0.1287  0.1674
  269PYR     C869888  14.437  14.223  14.313 -0.3885  0.6981 -0.1626
  269PYR     C969889  14.533  14.212  14.414 -0.1537  0.2641  0.1494
  269PYR    C1069890  14.644  14.124  14.398 -0.4878  0.1165 -0.2014
  269PYR    C1169891  14.361  14.160  14.088  1.3806  0.1007 -0.2038
  269PYR    C1269892  14.242  14.242  14.110 -0.1467  0.3604 -0.1849
  269PYR    C1369893  14.231  14.319  14.225 -0.4041 -0.0007  0.6861
  269PYR    C1469894  14.328  14.311  14.328  0.2600  1.4062 -0.2782
  269PYR    C1569895  14.485  14.003  13.952  0.0092  0.9950 -0.2114
  269PYR    C1669896  14.372  14.088  13.969  0.4118 -0.9275 -0.2049
  269PYR     H169897  14.722  14.127  14.473 -0.0799  1.8329 -0.6647
  269PYR     H269898  14.519  14.259  14.510 -1.7512  0.4225 -0.1495
  269PYR     H369899  14.866  13.994  14.322 -1.0594  1.7860  0.6126
  269PYR     H469900  14.898  13.874  14.118  0.8603  0.6357  0.6193
  269PYR     H569901  14.704  13.854  13.943 -1.9187 -0.8076 -0.3692
  269PYR     H669902  14.499  13.950  13.858 -1.8979  1.1660 -0.6350
  269PYR     H769903  14.298  14.091  13.891  0.5373 -1.0852 -0.3303
  269PYR     H869904  14.164  14.245  14.036  0.2965 -1.6409 -0.8181
  269PYR     H969905  14.140  14.376  14.237 -0.2904  0.4039 -0.2763
  269PYR    H1069906  14.308  14.372  14.415 -0.5644 -1.7141  1.9446
  270PYR     C169907  13.092  10.651   9.936 -0.6765 -0.3110  0.5336
  270PYR     C269908  13.125  10.518   9.899  0.3002  0.2780 -0.5049
  270PYR     C369909  13.119  10.417   9.995  0.0644  0.0531 -0.0464
  270PYR     C469910  13.086  10.450  10.130 -0.6456  0.4310  0.8594
  270PYR     C569911  13.050  10.583  10.166 -0.2284  1.0799  0.7499
  270PYR     C669912  13.050  10.682  10.071 -0.8192  0.1714  0.4956
  270PYR     C769913  13.015  10.812  10.106 -0.1972 -0.3145  0.8636
  270PYR     C869914  13.011  10.911  10.008  0.2066 -0.6212  0.6326
  270PYR     C969915  13.035  10.876   9.878 -0.0303  0.4926 -0.1505
  270PYR    C1069916  13.084  10.750   9.838 -0.1007 -0.3225  0.1453
  270PYR    C1169917  12.974  10.843  10.239 -0.7798  0.1353  0.1568
  270PYR    C1269918  12.929  10.975  10.266  0.5572 -0.0016 -0.2775
  270PYR    C1369919  12.925  11.073  10.162 -0.4897  0.0644 -0.3537
  270PYR    C1469920  12.969  11.036  10.038 -0.0017 -0.3647 -0.2263
  270PYR    C1569921  13.018  10.609  10.303  0.2470  0.0554 -0.1901
  270PYR    C1669922  12.973  10.738  10.333  0.8947  0.3290  0.0689
  270PYR     H169923  13.109  10.725   9.736  1.1515  1.9387 -0.1716
  270PYR     H269924  13.031  10.958   9.808  0.4938  2.7145  2.2572
  270PYR     H369925  13.161  10.487   9.802  0.6122 -0.8153 -0.0547
  270PYR     H469926  13.150  10.318   9.965 -0.7314 -0.5093  0.9148
  270PYR     H569927  13.089  10.372  10.205 -2.3453 -1.4661 -0.8945
  270PYR     H669928  13.020  10.537  10.384 -2.3300 -0.6159 -0.6385
  270PYR     H769929  12.946  10.756  10.437  0.2168 -0.9558  0.1425
  270PYR     H869930  12.905  11.000  10.368  1.5238  0.5071 -0.1602
  270PYR     H969931  12.885  11.171  10.180  1.3820  0.4523  2.2985
  270PYR    H1069932  12.949  11.107   9.959 -1.6641  1.3449  1.6072
  271PYR     C169933  11.952  14.094  11.832 -0.1796  0.8704  0.1563
  271PYR     C269934  11.962  14.179  11.727 -0.4510  0.0033 -0.1433
  271PYR     C369935  11.904  14.305  11.738  0.0787 -0.8472  0.1475
  271PYR     C469936  11.840  14.352  11.856 -0.0399  0.0907  0.1265
  271PYR     C569937  11.831  14.266  11.965  0.1397 -0.3536  0.4777
  271PYR     C669938  11.885  14.135  11.953 -0.5284 -0.0281  0.2817
  271PYR     C769939  11.861  14.041  12.052  0.9401 -0.2742 -1.4409
  271PYR     C869940  11.901  13.901  12.037  0.3159 -0.6846 -0.0609
  271PYR     C969941  11.971  13.866  11.919 -0.7649 -0.8282  0.0138
  271PYR    C1069942  12.001  13.958  11.823  1.0768 -0.7331 -0.2126
  271PYR    C1169943  11.808  14.082  12.178 -0.2247  0.1389  1.0595
  271PYR    C1269944  11.786  13.987  12.278 -0.1421  0.0915 -0.5991
  271PYR    C1369945  11.813  13.854  12.263  0.5962  0.2785  0.2258
  271PYR    C1469946  11.874  13.811  12.140 -0.5271 -0.0603 -0.5309
  271PYR    C1569947  11.763  14.302  12.091  0.9292 -0.3201 -0.2889
  271PYR    C1669948  11.762  14.211  12.200 -0.0737  0.0210  0.2544
  271PYR     H169949  12.062  13.931  11.737  0.9475  0.1026 -0.5757
  271PYR     H269950  12.002  13.765  11.901 -0.1638 -0.7364  0.4852
  271PYR     H369951  12.016  14.153  11.637 -1.5040  0.0980 -0.8073
  271PYR     H469952  11.905  14.365  11.648  0.4243  3.3256  2.7099
  271PYR     H569953  11.804  14.454  11.858 -0.8624 -0.1868 -0.0562
  271PYR     H669954  11.712  14.396  12.104 -2.0551 -1.9814  0.9299
  271PYR     H769955  11.721  14.251  12.292 -0.9666  2.6389 -1.1714
  271PYR     H869956  11.749  14.026  12.372  0.5524  1.9347 -1.0433
  271PYR     H969957  11.783  13.793  12.347 -2.7979 -0.0872 -1.1093
  271PYR    H1069958  11.906  13.708  12.138  1.4679  0.4357  1.3914
  272PYR     C169959  12.405  15.132  13.603 -0.4697 -0.1142 -0.7347
  272PYR     C269960  12.432  14.996  13.626  0.1881 -0.7559 -0.1116
  272PYR     C369961  12.398  14.930  13.743 -0.1721  0.2331 -1.0988
  272PYR     C469962  12.327  15.003  13.840  0.6831 -0.1667  0.2274
  272PYR     C569963  12.304  15.137  13.826 -0.3169  0.0359  0.6375
  272PYR     C669964  12.341  15.206  13.707 -0.5249 -0.3533  0.8626
  272PYR     C769965  12.315  15.348  13.693 -0.2312  0.7671  0.0134
  272PYR     C869966  12.358  15.413  13.572  0.3543  0.4472  0.2872
  272PYR     C969967  12.434  15.343  13.476  0.0083  0.0111  0.6670
  272PYR    C1069968  12.455  15.204  13.493  0.3687  0.0365 -0.1638
  272PYR    C1169969  12.248  15.417  13.793 -0.6347  0.2171 -0.1505
  272PYR    C1269970  12.229  15.554  13.780  0.6118  0.1121  0.1005
  272PYR    C1369971  12.272  15.619  13.663 -0.3403  0.6128  0.2846
  272PYR    C1469972  12.334  15.550  13.559 -0.3897  0.7101 -0.5883
  272PYR    C1569973  12.231  15.212  13.921 -0.0633  0.4878 -0.7529
  272PYR    C1669974  12.198  15.342  13.906  0.2175 -0.5750  0.2439
  272PYR     H169975  12.492  15.153  13.406 -2.5228 -0.2763 -1.3091
  272PYR     H269976  12.469  15.402  13.393  0.9819 -1.0765  0.2702
  272PYR     H369977  12.486  14.941  13.551  3.2317  0.0145  1.3591
  272PYR     H469978  12.398  14.822  13.749 -1.7257  0.2006 -1.2898
  272PYR     H569979  12.295  14.952  13.930  1.9195  2.0300  2.0139
  272PYR     H669980  12.202  15.169  14.016  2.5094 -2.3427 -1.0692
  272PYR     H769981  12.144  15.404  13.976  0.0509 -0.2938 -0.1300
  272PYR     H869982  12.177  15.606  13.860 -0.5596 -0.9769  0.0643
  272PYR     H969983  12.256  15.725  13.655 -1.1663  0.4798  0.0722
  272PYR    H1069984  12.374  15.611  13.479  0.6999  0.1616 -0.4778
  273PYR     C169985  11.238  16.266  14.124 -0.3855 -0.0674  0.2458
  273PYR     C269986  11.125  16.255  14.210 -0.1189 -0.3469  0.0297
  273PYR     C369987  11.143  16.235  14.348  0.8255 -0.2095  0.7062
  273PYR     C469988  11.270  16.237  14.411 -1.1037  0.4080  0.1906
  273PYR     C569989  11.386  16.250  14.331  0.5569 -0.0364  0.9301
  273PYR     C669990  11.367  16.259  14.186  0.3137  0.1842 -0.0129
  273PYR     C769991  11.484  16.266  14.108 -0.3991 -0.0309 -0.0925
  273PYR     C869992  11.468  16.276  13.966  0.3892 -0.0668 -0.6762
  273PYR     C969993  11.340  16.286  13.904  0.6226 -0.3572  0.5603
  273PYR    C1069994  11.232  16.277  13.983  1.2553  0.3104 -0.7900
  273PYR    C1169995  11.610  16.256  14.164 -0.2771  0.0966 -0.4595
  273PYR    C1269996  11.727  16.250  14.087  0.2645 -0.5971  0.5860
  273PYR    C1369997  11.711  16.257  13.945 -0.7408  0.1833 -0.3430
  273PYR    C1469998  11.586  16.268  13.888 -0.0189 -0.1183  0.7367
  273PYR    C1569999  11.513  16.250  14.386  0.3691 -0.7622  0.2643
  273PYR    C1670000  11.624  16.248  14.308 -0.5440 -0.1608 -0.5973
  273PYR     H170001  11.131  16.289  13.948  1.5396  2.7100 -1.0075
  273PYR     H270002  11.336  16.299  13.797  0.6561  2.0457  0.7996
  273PYR     H370003  11.023  16.258  14.174 -0.3514  0.6281  0.7219
  273PYR     H470004  11.057  16.224  14.413 -0.8849 -0.7388 -1.5331
  273PYR     H570005  11.280  16.228  14.519  3.5648  1.6699  0.0905
  273PYR     H670006  11.528  16.253  14.492 -0.5639 -0.8988  0.4075
  273PYR     H770007  11.716  16.266  14.361 -1.0459  0.2382  0.1734
  273PYR     H870008  11.827  16.239  14.126  1.8744  2.1102 -2.3235
  273PYR     H970009  11.800  16.249  13.884 -0.7581 -2.3429 -0.1687
  273PYR    H1070010  11.574  16.264  13.781 -0.7643 -2.0525  0.8390
  24.80085  24.80085  24.80085
