F127 hollow shell, 34 chains, no guest
69802
    1ETHO    O1    1  14.002  22.984  14.365
    1ETHO   HO1    2  14.076  22.924  14.372
    1ETHO    C1    3  14.013  23.055  14.245
    1ETHO   H11    4  14.116  23.093  14.227
    1ETHO   H13    5  13.947  23.144  14.239
    1ETHO    C2    6  13.978  22.971  14.121
    1ETHO   H21    7  14.015  22.866  14.119
    1ETHO   H23    8  14.012  23.014  14.024
    2ETHO    O1    9  13.835  22.968  14.105
    2ETHO    C1   10  13.787  22.853  14.044
    2ETHO   H11   11  13.823  22.756  14.085
    2ETHO   H13   12  13.679  22.833  14.060
    2ETHO    C2   13  13.809  22.863  13.887
    2ETHO   H21   14  13.780  22.967  13.861
    2ETHO   H23   15  13.733  22.797  13.840
    3ETHO    O1   16  13.934  22.819  13.839
    3ETHO    C1   17  13.943  22.860  13.706
    3ETHO   H11   18  13.946  22.971  13.699
    3ETHO   H13   19  13.850  22.837  13.650
    3ETHO    C2   20  14.064  22.810  13.628
    3ETHO   H21   21  14.164  22.818  13.675
    3ETHO   H23   22  14.074  22.859  13.529
    4ETHO    O1   23  14.047  22.672  13.607
    4ETHO    C1   24  14.127  22.636  13.494
    4ETHO   H11   25  14.101  22.695  13.404
    4ETHO   H13   26  14.236  22.654  13.502
    4ETHO    C2   27  14.102  22.486  13.442
    4ETHO   H21   28  14.148  22.481  13.341
    4ETHO   H23   29  13.992  22.469  13.443
    5ETHO    O1   30  14.174  22.404  13.531
    5ETHO    C1   31  14.200  22.279  13.470
    5ETHO   H11   32  14.115  22.223  13.426
    5ETHO   H13   33  14.275  22.288  13.388
    5ETHO    C2   34  14.256  22.169  13.569
    5ETHO   H21   35  14.173  22.162  13.644
    5ETHO   H23   36  14.345  22.197  13.629
    6ETHO    O1   37  14.259  22.054  13.495
    6ETHO    C1   38  14.379  22.019  13.417
    6ETHO   H11   39  14.409  22.105  13.355
    6ETHO   H13   40  14.460  22.001  13.491
    6ETHO    C2   41  14.374  21.896  13.322
    6ETHO   H21   42  14.321  21.813  13.375
    6ETHO   H23   43  14.478  21.862  13.305
    7ETHO    O1   44  14.311  21.928  13.197
    7ETHO    C1   45  14.169  21.925  13.215
    7ETHO   H11   46  14.142  21.823  13.248
    7ETHO   H13   47  14.139  21.998  13.293
    7ETHO    C2   48  14.097  21.957  13.075
    7ETHO   H21   49  14.147  22.046  13.031
    7ETHO   H23   50  13.997  21.998  13.101
    8ETHO    O1   51  14.097  21.841  12.988
    8ETHO    C1   52  14.088  21.882  12.851
    8ETHO   H11   53  14.185  21.929  12.825
    8ETHO   H13   54  14.013  21.963  12.835
    8ETHO    C2   55  14.041  21.768  12.766
    8ETHO   H21   56  14.114  21.685  12.774
    8ETHO   H23   57  14.057  21.788  12.658
    9ETHO    O1   58  13.908  21.733  12.774
    9ETHO    C1   59  13.877  21.661  12.656
    9ETHO   H11   60  13.829  21.723  12.577
    9ETHO   H13   61  13.960  21.609  12.604
    9ETHO    C2   62  13.764  21.561  12.703
    9ETHO   H21   63  13.666  21.611  12.715
    9ETHO   H23   64  13.791  21.507  12.796
   10ETHO    O1   65  13.739  21.455  12.609
   10ETHO    C1   66  13.642  21.373  12.662
   10ETHO   H11   67  13.560  21.423  12.717
   10ETHO   H13   68  13.685  21.310  12.743
   10ETHO    C2   69  13.586  21.281  12.558
   10ETHO   H21   70  13.553  21.331  12.464
   10ETHO   H23   71  13.488  21.243  12.594
   11ETHO    O1   72  13.669  21.164  12.535
   11ETHO    C1   73  13.634  21.087  12.424
   11ETHO   H11   74  13.534  21.038  12.433
   11ETHO   H13   75  13.633  21.153  12.335
   11ETHO    C2   76  13.737  20.973  12.417
   11ETHO   H21   77  13.730  20.924  12.317
   11ETHO   H23   78  13.835  21.018  12.443
   12ETHO    O1   79  13.706  20.878  12.517
   12ETHO    C1   80  13.794  20.770  12.513
   12ETHO   H11   81  13.820  20.750  12.407
   12ETHO   H13   82  13.746  20.681  12.559
   12ETHO    C2   83  13.923  20.809  12.588
   12ETHO   H21   84  13.963  20.906  12.552
   12ETHO   H23   85  14.007  20.743  12.558
   13ETHO    O1   86  13.899  20.801  12.729
   13ETHO    C1   87  14.021  20.780  12.801
   13ETHO   H11   88  14.105  20.842  12.763
   13ETHO   H13   89  13.998  20.794  12.909
   13ETHO    C2   90  14.065  20.631  12.789
   13ETHO   H21   91  13.982  20.559  12.771
   13ETHO   H23   92  14.114  20.609  12.886
   14ETHO    O1   93  14.165  20.614  12.686
   14ETHO    C1   94  14.193  20.477  12.664
   14ETHO   H11   95  14.288  20.465  12.608
   14ETHO   H13   96  14.110  20.435  12.604
   14ETHO    C2   97  14.225  20.383  12.785
   14ETHO   H21   98  14.209  20.274  12.770
   14ETHO   H23   99  14.176  20.407  12.881
   15ETHO    O1  100  14.370  20.393  12.801
   15ETHO    C1  101  14.420  20.294  12.895
   15ETHO   H11  102  14.515  20.330  12.939
   15ETHO   H13  103  14.354  20.284  12.984
   15ETHO    C2  104  14.445  20.152  12.834
   15ETHO   H21  105  14.506  20.160  12.742
   15ETHO   H23  106  14.498  20.085  12.904
   16ETHO    O1  107  14.331  20.069  12.792
   16ETHO    C1  108  14.276  19.996  12.899
   16ETHO   H11  109  14.320  19.894  12.906
   16ETHO   H13  110  14.297  20.045  12.996
   16ETHO    C2  111  14.122  19.979  12.888
   16ETHO   H21  112  14.088  19.929  12.981
   16ETHO   H23  113  14.101  19.918  12.798
   17ETHO    O1  114  14.063  20.108  12.885
   17ETHO    C1  115  13.931  20.093  12.831
   17ETHO   H11  116  13.941  20.062  12.725
   17ETHO   H13  117  13.879  20.008  12.881
   17ETHO    C2  118  13.845  20.217  12.852
   17ETHO   H21  119  13.866  20.250  12.957
   17ETHO   H23  120  13.736  20.199  12.851
   18ETHO    O1  121  13.869  20.323  12.756
   18ETHO    C1  122  13.831  20.285  12.628
   18ETHO   H11  123  13.914  20.224  12.588
   18ETHO   H13  124  13.728  20.242  12.625
   18ETHO    C2  125  13.822  20.409  12.544
   18ETHO   H21  126  13.913  20.472  12.533
   18ETHO   H23  127  13.742  20.467  12.595
   19ETHO    O1  128  13.796  20.378  12.407
   19ETHO    C1  129  13.654  20.371  12.377
   19ETHO   H11  130  13.605  20.469  12.393
   19ETHO   H13  131  13.616  20.289  12.441
   19ETHO    C2  132  13.629  20.343  12.225
   19ETHO   H21  133  13.525  20.305  12.221
   19ETHO   H23  134  13.699  20.264  12.190
   20ETHO    O1  135  13.647  20.459  12.142
   20ETHO    C1  136  13.667  20.426  12.005
   20ETHO   H11  137  13.737  20.341  11.996
   20ETHO   H13  138  13.567  20.399  11.965
   20ETHO    C2  139  13.721  20.548  11.931
   20ETHO   H21  140  13.661  20.641  11.945
   20ETHO   H23  141  13.721  20.520  11.824
   21ETHO    O1  142  13.855  20.579  11.962
   21ETHO    C1  143  13.908  20.674  11.876
   21ETHO   H11  144  13.888  20.654  11.769
   21ETHO   H13  145  14.017  20.661  11.866
   21ETHO    C2  146  13.870  20.814  11.926
   21ETHO   H21  147  13.940  20.890  11.885
   21ETHO   H23  148  13.871  20.822  12.037
   22ETHO    O1  149  13.739  20.847  11.873
   22ETHO    C1  150  13.661  20.941  11.951
   22ETHO   H11  151  13.563  20.947  11.899
   22ETHO   H13  152  13.646  20.916  12.058
   22ETHO    C2  153  13.715  21.080  11.934
   22ETHO   H21  154  13.796  21.098  12.007
   22ETHO   H23  155  13.748  21.094  11.829
   23ETHO    O1  156  13.613  21.186  11.954
   23ETHO    C1  157  13.654  21.297  12.032
   23ETHO   H11  158  13.722  21.361  11.973
   23ETHO   H13  159  13.714  21.265  12.120
   23ETHO    C2  160  13.530  21.378  12.069
   23ETHO   H21  161  13.483  21.430  11.983
   23ETHO   H23  162  13.574  21.461  12.129
   24ETHO    O1  163  13.440  21.310  12.159
   24ETHO    C1  164  13.344  21.400  12.204
   24ETHO   H11  165  13.382  21.467  12.284
   24ETHO   H13  166  13.297  21.454  12.119
   24ETHO    C2  167  13.227  21.317  12.266
   24ETHO   H21  168  13.211  21.236  12.191
   24ETHO   H23  169  13.142  21.385  12.283
   25ETHO    O1  170  13.268  21.256  12.391
   25ETHO    C1  171  13.165  21.199  12.470
   25ETHO   H11  172  13.075  21.264  12.470
   25ETHO   H13  173  13.206  21.178  12.572
   25ETHO    C2  174  13.102  21.070  12.419
   25ETHO   H21  175  13.059  21.080  12.317
   25ETHO   H23  176  13.017  21.049  12.488
   26ETHO    O1  177  13.188  20.960  12.422
   26ETHO    C1  178  13.278  20.939  12.318
   26ETHO   H11  179  13.213  20.915  12.231
   26ETHO   H13  180  13.322  21.040  12.302
   26ETHO    C2  181  13.376  20.823  12.337
   26ETHO   H21  182  13.405  20.825  12.444
   26ETHO   H23  183  13.466  20.828  12.271
   27ETHO    O1  184  13.308  20.700  12.321
   27ETHO    C1  185  13.271  20.654  12.450
   27ETHO   H11  186  13.209  20.723  12.511
   27ETHO   H13  187  13.367  20.630  12.499
   27ETHO    C2  188  13.177  20.527  12.429
   27ETHO   H21  189  13.085  20.540  12.368
   27ETHO   H23  190  13.139  20.511  12.533
   28ETHO    O1  191  13.265  20.411  12.414
   28ETHO    C1  192  13.190  20.293  12.430
   28ETHO   H11  193  13.132  20.289  12.524
   28ETHO   H13  194  13.117  20.283  12.346
   28ETHO    C2  195  13.299  20.178  12.436
   28ETHO   H21  196  13.263  20.086  12.486
   28ETHO   H23  197  13.384  20.215  12.497
   29ETHO    O1  198  13.347  20.143  12.309
   29ETHO    C1  199  13.425  20.025  12.314
   29ETHO   H11  200  13.491  20.025  12.403
   29ETHO   H13  201  13.493  20.018  12.227
   29ETHO    C2  202  13.332  19.900  12.309
   29ETHO   H21  203  13.377  19.817  12.252
   29ETHO   H23  204  13.236  19.934  12.263
   30ETHO    O1  205  13.298  19.838  12.431
   30ETHO    C1  206  13.201  19.739  12.405
   30ETHO   H11  207  13.105  19.794  12.394
   30ETHO   H13  208  13.212  19.673  12.316
   30ETHO    C2  209  13.181  19.637  12.518
   30ETHO   H21  210  13.080  19.596  12.495
   30ETHO   H23  211  13.190  19.670  12.623
   31ETHO    O1  212  13.280  19.539  12.510
   31ETHO    C1  213  13.240  19.421  12.440
   31ETHO   H11  214  13.190  19.438  12.343
   31ETHO   H13  215  13.336  19.372  12.413
   31ETHO    C2  216  13.161  19.329  12.533
   31ETHO   H21  217  13.202  19.341  12.636
   31ETHO   H23  218  13.185  19.230  12.491
   32ETHO    O1  219  13.019  19.356  12.547
   32ETHO    C1  220  12.963  19.287  12.657
   32ETHO   H11  221  13.015  19.190  12.668
   32ETHO   H13  222  12.969  19.340  12.754
   32ETHO    C2  223  12.817  19.265  12.614
   32ETHO   H21  224  12.762  19.206  12.690
   32ETHO   H23  225  12.813  19.225  12.511
   33ETHO    O1  226  12.744  19.389  12.609
   33ETHO    C1  227  12.618  19.367  12.547
   33ETHO   H11  228  12.622  19.339  12.439
   33ETHO   H13  229  12.572  19.279  12.597
   33ETHO    C2  230  12.531  19.492  12.577
   33ETHO   H21  231  12.531  19.507  12.687
   33ETHO   H23  232  12.431  19.459  12.541
   34ETHO    O1  233  12.574  19.602  12.502
   34ETHO    C1  234  12.537  19.732  12.545
   34ETHO   H11  235  12.601  19.800  12.486
   34ETHO   H13  236  12.556  19.743  12.654
   34ETHO    C2  237  12.388  19.765  12.505
   34ETHO   H21  238  12.345  19.838  12.577
   34ETHO   H23  239  12.324  19.675  12.500
   35ETHO    O1  240  12.379  19.827  12.379
   35ETHO    C1  241  12.242  19.839  12.332
   35ETHO   H11  242  12.203  19.750  12.279
   35ETHO   H13  243  12.177  19.867  12.418
   35ETHO    C2  244  12.228  19.960  12.227
   35ETHO   H21  245  12.136  19.935  12.171
   35ETHO   H23  246  12.312  19.951  12.155
   36ETHO    O1  247  12.242  20.088  12.290
   36ETHO    C1  248  12.195  20.200  12.214
   36ETHO   H11  249  12.227  20.191  12.108
   36ETHO   H13  250  12.248  20.291  12.250
   36ETHO    C2  251  12.046  20.220  12.223
   36ETHO   H21  252  12.002  20.125  12.186
   36ETHO   H23  253  12.007  20.308  12.169
   37ETHO    O1  254  12.007  20.234  12.363
   37ETHO    C1  255  11.869  20.264  12.371
   37ETHO   H11  256  11.857  20.354  12.307
   37ETHO   H13  257  11.799  20.182  12.347
   37ETHO    C2  258  11.823  20.309  12.508
   37ETHO   H21  259  11.907  20.368  12.552
   37ETHO   H23  260  11.811  20.223  12.577
   38ETHO    O1  261  11.717  20.400  12.498
   38ETHO    C1  262  11.662  20.440  12.623
   38ETHO   H11  263  11.733  20.508  12.673
   38ETHO   H13  264  11.652  20.346  12.681
   38ETHO    C2  265  11.519  20.491  12.603
   38ETHO   H21  266  11.466  20.494  12.701
   38ETHO   H23  267  11.468  20.412  12.543
   39ETHO    O1  268  11.529  20.607  12.520
   39ETHO    C1  269  11.567  20.719  12.595
   39ETHO   H11  270  11.518  20.731  12.694
   39ETHO   H13  271  11.677  20.727  12.606
   39ETHO    C2  272  11.533  20.849  12.520
   39ETHO   H21  273  11.558  20.938  12.581
   39ETHO   H23  274  11.423  20.845  12.505
   40ETHO    O1  275  11.594  20.851  12.399
   40ETHO    C1  276  11.580  20.976  12.334
   40ETHO   H11  277  11.601  21.068  12.394
   40ETHO   H13  278  11.472  20.978  12.309
   40ETHO    C2  279  11.669  20.965  12.209
   40ETHO   H21  280  11.647  21.049  12.141
   40ETHO   H23  281  11.659  20.864  12.163
   41ETHO    O1  282  11.810  20.990  12.246
   41ETHO    C1  283  11.892  20.923  12.154
   41ETHO   H11  284  11.896  20.815  12.179
   41ETHO   H13  285  11.864  20.922  12.046
   41ETHO    C2  286  12.038  20.973  12.143
   41ETHO   H21  287  12.097  20.892  12.095
   41ETHO   H23  288  12.083  20.991  12.243
   42ETHO    O1  289  12.068  21.093  12.068
   42ETHO    C1  290  12.208  21.125  12.067
   42ETHO   H11  291  12.247  21.141  12.170
   42ETHO   H13  292  12.258  21.038  12.018
   42ETHO    C2  293  12.225  21.249  11.989
   42ETHO   H21  294  12.333  21.274  11.999
   42ETHO   H23  295  12.160  21.322  12.042
   43ETHO    O1  296  12.187  21.249  11.852
   43ETHO    C1  297  12.208  21.378  11.792
   43ETHO   H11  298  12.146  21.457  11.839
   43ETHO   H13  299  12.315  21.408  11.788
   43ETHO    C2  300  12.171  21.375  11.636
   43ETHO   H21  301  12.169  21.477  11.593
   43ETHO   H23  302  12.072  21.331  11.612
   44ETHO    O1  303  12.272  21.294  11.569
   44ETHO    C1  304  12.238  21.250  11.437
   44ETHO   H11  305  12.245  21.139  11.433
   44ETHO   H13  306  12.133  21.267  11.407
   44ETHO    C2  307  12.345  21.308  11.332
   44ETHO   H21  308  12.361  21.418  11.342
   44ETHO   H23  309  12.311  21.273  11.233
   45ETHO    O1  310  12.475  21.249  11.358
   45ETHO    C1  311  12.566  21.289  11.258
   45ETHO   H11  312  12.565  21.400  11.252
   45ETHO   H13  313  12.516  21.238  11.173
   45ETHO    C2  314  12.707  21.235  11.264
   45ETHO   H21  315  12.762  21.240  11.168
   45ETHO   H23  316  12.705  21.124  11.277
   46ETHO    O1  317  12.792  21.293  11.357
   46ETHO    C1  318  12.781  21.234  11.484
   46ETHO   H11  319  12.676  21.221  11.518
   46ETHO   H13  320  12.828  21.133  11.481
   46ETHO    C2  321  12.850  21.322  11.595
   46ETHO   H21  322  12.817  21.282  11.693
   46ETHO   H23  323  12.816  21.427  11.585
   47ETHO    O1  324  12.988  21.305  11.597
   47ETHO    C1  325  13.053  21.389  11.692
   47ETHO   H11  326  12.991  21.394  11.783
   47ETHO   H13  327  13.067  21.491  11.651
   47ETHO    C2  328  13.192  21.337  11.723
   47ETHO   H21  329  13.249  21.410  11.785
   47ETHO   H23  330  13.256  21.305  11.639
   48ETHO    O1  331  13.178  21.218  11.802
   48ETHO    C1  332  13.301  21.161  11.857
   48ETHO   H11  333  13.380  21.164  11.779
   48ETHO   H13  334  13.331  21.219  11.947
   48ETHO    C2  335  13.275  21.026  11.918
   48ETHO   H21  336  13.357  21.009  11.991
   48ETHO   H23  337  13.175  21.014  11.965
   49ETHO    O1  338  13.278  20.930  11.810
   49ETHO    C1  339  13.231  20.806  11.843
   49ETHO   H11  340  13.218  20.753  11.746
   49ETHO   H13  341  13.128  20.817  11.882
   49ETHO    C2  342  13.313  20.709  11.939
   49ETHO   H21  343  13.308  20.749  12.043
   49ETHO   H23  344  13.423  20.709  11.925
   50ETHO    O1  345  13.267  20.575  11.932
   50ETHO    C1  346  13.264  20.515  12.064
   50ETHO   H11  347  13.365  20.536  12.106
   50ETHO   H13  348  13.182  20.554  12.129
   50ETHO    C2  349  13.238  20.361  12.067
   50ETHO   H21  350  13.278  20.321  12.163
   50ETHO   H23  351  13.290  20.304  11.987
   51ETHO    O1  352  13.103  20.333  12.071
   51ETHO    C1  353  13.069  20.197  12.046
   51ETHO   H11  354  13.143  20.127  12.089
   51ETHO   H13  355  13.072  20.173  11.938
   51ETHO    C2  356  12.936  20.173  12.110
   51ETHO   H21  357  12.905  20.070  12.080
   51ETHO   H23  358  12.859  20.246  12.077
   52ETHO    O1  359  12.959  20.162  12.248
   52ETHO    C1  360  12.873  20.063  12.312
   52ETHO   H11  361  12.768  20.100  12.311
   52ETHO   H13  362  12.887  19.965  12.262
   52ETHO    C2  363  12.913  20.040  12.458
   52ETHO   H21  364  12.891  20.131  12.517
   52ETHO   H23  365  13.022  20.017  12.452
   53ETHO    O1  366  12.859  19.924  12.526
   53ETHO    C1  367  12.925  19.908  12.650
   53ETHO   H11  368  13.032  19.887  12.624
   53ETHO   H13  369  12.917  19.998  12.714
   53ETHO    C2  370  12.873  19.776  12.714
   53ETHO   H21  371  12.951  19.743  12.787
   53ETHO   H23  372  12.858  19.698  12.636
   54ETHO    O1  373  12.756  19.813  12.786
   54ETHO    C1  374  12.696  19.714  12.870
   54ETHO   H11  375  12.594  19.753  12.890
   54ETHO   H13  376  12.690  19.621  12.810
   54ETHO    C2  377  12.763  19.689  13.009
   54ETHO   H21  378  12.862  19.640  12.992
   54ETHO   H23  379  12.717  19.603  13.063
   55ETHO    O1  380  12.763  19.801  13.100
   55ETHO    C1  381  12.871  19.897  13.083
   55ETHO   H11  382  12.972  19.850  13.080
   55ETHO   H13  383  12.856  19.937  12.980
   55ETHO    C2  384  12.847  20.012  13.188
   55ETHO   H21  385  12.914  20.100  13.174
   55ETHO   H23  386  12.742  20.044  13.168
   56ETHO    O1  387  12.876  19.945  13.320
   56ETHO    C1  388  12.840  20.034  13.426
   56ETHO   H11  389  12.730  20.025  13.420
   56ETHO   H13  390  12.875  20.136  13.397
   56ETHO    C2  391  12.903  19.992  13.554
   56ETHO   H21  392  12.880  20.070  13.630
   56ETHO   H23  393  13.014  19.993  13.554
   57ETHO    O1  394  12.874  19.861  13.605
   57ETHO    C1  395  12.865  19.867  13.752
   57ETHO   H11  396  12.874  19.767  13.800
   57ETHO   H13  397  12.940  19.933  13.800
   57ETHO    C2  398  12.731  19.926  13.794
   57ETHO   H21  399  12.708  19.885  13.895
   57ETHO   H23  400  12.656  19.883  13.724
   58ETHO    O1  401  12.712  20.065  13.788
   58ETHO    C1  402  12.577  20.114  13.801
   58ETHO   H11  403  12.529  20.079  13.896
   58ETHO   H13  404  12.520  20.069  13.717
   58ETHO    C2  405  12.570  20.264  13.809
   58ETHO   H21  406  12.608  20.304  13.905
   58ETHO   H23  407  12.464  20.293  13.795
   59ETHO    O1  408  12.652  20.331  13.712
   59ETHO    C1  409  12.595  20.341  13.580
   59ETHO   H11  410  12.586  20.238  13.540
   59ETHO   H13  411  12.489  20.374  13.585
   59ETHO    C2  412  12.686  20.419  13.476
   59ETHO   H21  413  12.794  20.395  13.490
   59ETHO   H23  414  12.683  20.527  13.503
   60ETHO    O1  415  12.647  20.397  13.341
   60ETHO    C1  416  12.747  20.435  13.247
   60ETHO   H11  417  12.744  20.358  13.167
   60ETHO   H13  418  12.850  20.444  13.288
   60ETHO    C2  419  12.699  20.568  13.194
   60ETHO   H21  420  12.611  20.553  13.129
   60ETHO   H23  421  12.788  20.600  13.135
   61ETHO    O1  422  12.673  20.662  13.305
   61ETHO    C1  423  12.784  20.754  13.315
   61ETHO   H11  424  12.868  20.684  13.328
   61ETHO   H13  425  12.807  20.813  13.223
   61ETHO    C2  426  12.770  20.848  13.433
   61ETHO   H21  427  12.857  20.917  13.442
   61ETHO   H23  428  12.777  20.777  13.518
   62ETHO    O1  429  12.650  20.919  13.414
   62ETHO    C1  430  12.632  21.014  13.511
   62ETHO   H11  431  12.722  21.078  13.499
   62ETHO   H13  432  12.628  20.969  13.613
   62ETHO    C2  433  12.507  21.090  13.475
   62ETHO   H21  434  12.466  21.143  13.564
   62ETHO   H23  435  12.423  21.022  13.445
   63ETHO    O1  436  12.526  21.198  13.375
   63ETHO    C1  437  12.395  21.238  13.327
   63ETHO   H11  438  12.337  21.147  13.297
   63ETHO   H13  439  12.335  21.286  13.407
   63ETHO    C2  440  12.408  21.330  13.208
   63ETHO   H21  441  12.461  21.422  13.240
   63ETHO   H23  442  12.310  21.359  13.164
   64ETHO    O1  443  12.480  21.269  13.097
   64ETHO    C1  444  12.544  21.363  13.009
   64ETHO   H11  445  12.635  21.395  13.064
   64ETHO   H13  446  12.480  21.451  12.993
   64ETHO    C2  447  12.573  21.299  12.872
   64ETHO   H21  448  12.634  21.208  12.887
   64ETHO   H23  449  12.633  21.368  12.809
   65ETHO    O1  450  12.455  21.268  12.797
   65ETHO    C1  451  12.475  21.249  12.660
   65ETHO   H11  452  12.528  21.335  12.614
   65ETHO   H13  453  12.551  21.170  12.645
   65ETHO    C2  454  12.345  21.223  12.578
   65ETHO   H21  455  12.366  21.260  12.475
   65ETHO   H23  456  12.266  21.285  12.626
   66ETHO    O1  457  12.305  21.089  12.557
   66ETHO    C1  458  12.180  21.078  12.495
   66ETHO   H11  459  12.200  21.072  12.386
   66ETHO   H13  460  12.112  21.164  12.512
   66ETHO    C2  461  12.108  20.947  12.536
   66ETHO   H21  462  12.003  20.957  12.503
   66ETHO   H23  463  12.104  20.944  12.646
   67ETHO    O1  464  12.162  20.830  12.481
   67ETHO    C1  465  12.098  20.717  12.539
   67ETHO   H11  466  12.088  20.733  12.648
   67ETHO   H13  467  11.994  20.708  12.500
   67ETHO    C2  468  12.158  20.576  12.492
   67ETHO   H21  469  12.221  20.595  12.403
   67ETHO   H23  470  12.081  20.499  12.468
   68ETHO    O1  471  12.234  20.513  12.596
   68ETHO    C1  472  12.285  20.388  12.547
   68ETHO   H11  473  12.198  20.326  12.517
   68ETHO   H13  474  12.356  20.420  12.468
   68ETHO    C2  475  12.358  20.302  12.658
   68ETHO   H21  476  12.436  20.357  12.716
   68ETHO   H23  477  12.410  20.221  12.604
   69ETHO    O1  478  12.267  20.258  12.759
   69ETHO    C1  479  12.243  20.358  12.865
   69ETHO   H11  480  12.331  20.424  12.885
   69ETHO   H13  481  12.158  20.418  12.826
   69ETHO    C2  482  12.206  20.291  13.000
   69ETHO   H21  483  12.124  20.220  12.974
   69ETHO   H23  484  12.173  20.361  13.079
   70ETHO    O1  485  12.314  20.211  13.053
   70ETHO    C1  486  12.275  20.174  13.184
   70ETHO   H11  487  12.274  20.261  13.254
   70ETHO   H13  488  12.183  20.113  13.197
   70ETHO    C2  489  12.391  20.071  13.230
   70ETHO   H21  490  12.371  20.060  13.339
   70ETHO   H23  491  12.489  20.122  13.221
   71ETHO    O1  492  12.392  19.946  13.167
   71ETHO    C1  493  12.470  19.852  13.233
   71ETHO   H11  494  12.562  19.905  13.267
   71ETHO   H13  495  12.496  19.770  13.162
   71ETHO    C2  496  12.385  19.782  13.344
   71ETHO   H21  497  12.356  19.865  13.413
   71ETHO   H23  498  12.461  19.725  13.402
   72ETHO    O1  499  12.271  19.703  13.302
   72ETHO    C1  500  12.208  19.634  13.404
   72ETHO   H11  501  12.287  19.589  13.468
   72ETHO   H13  502  12.150  19.708  13.464
   72ETHO    C2  503  12.131  19.527  13.334
   72ETHO   H21  504  12.068  19.554  13.247
   72ETHO   H23  505  12.057  19.485  13.405
   73ETHO    O1  506  12.202  19.408  13.303
   73ETHO    C1  507  12.115  19.307  13.243
   73ETHO   H11  508  12.052  19.347  13.160
   73ETHO   H13  509  12.041  19.272  13.318
   73ETHO    C2  510  12.204  19.187  13.195
   73ETHO   H21  511  12.145  19.100  13.158
   73ETHO   H23  512  12.263  19.152  13.282
   74ETHO    O1  513  12.292  19.245  13.101
   74ETHO    C1  514  12.257  19.223  12.960
   74ETHO   H11  515  12.278  19.115  12.944
   74ETHO   H13  516  12.150  19.247  12.942
   74ETHO    C2  517  12.364  19.294  12.862
   74ETHO   H21  518  12.367  19.224  12.776
   74ETHO   H23  519  12.466  19.295  12.907
   75ETHO    O1  520  12.336  19.428  12.818
   75ETHO    C1  521  12.335  19.521  12.929
   75ETHO   H11  522  12.423  19.502  12.995
   75ETHO   H13  523  12.242  19.499  12.985
   75ETHO    C2  524  12.319  19.658  12.868
   75ETHO   H21  525  12.375  19.680  12.775
   75ETHO   H23  526  12.356  19.729  12.945
   76ETHO    O1  527  12.190  19.709  12.845
   76ETHO    C1  528  12.111  19.719  12.964
   76ETHO   H11  529  12.088  19.618  13.006
   76ETHO   H13  530  12.160  19.785  13.039
   76ETHO    C2  531  11.972  19.781  12.919
   76ETHO   H21  532  11.981  19.881  12.870
   76ETHO   H23  533  11.914  19.800  13.012
   77ETHO    O1  534  11.901  19.688  12.829
   77ETHO    C1  535  11.770  19.740  12.814
   77ETHO   H11  536  11.732  19.766  12.915
   77ETHO   H13  537  11.708  19.652  12.788
   77ETHO    C2  538  11.747  19.869  12.730
   77ETHO   H21  539  11.780  19.860  12.624
   77ETHO   H23  540  11.803  19.951  12.780
   78ETHO    O1  541  11.605  19.888  12.735
   78ETHO    C1  542  11.569  20.005  12.659
   78ETHO   H11  543  11.643  20.088  12.663
   78ETHO   H13  544  11.557  19.979  12.552
   78ETHO    C2  545  11.439  20.071  12.726
   78ETHO   H21  546  11.376  19.998  12.780
   78ETHO   H23  547  11.378  20.108  12.640
   79ETHO    O1  548  11.463  20.182  12.817
   79ETHO    C1  549  11.527  20.142  12.936
   79ETHO   H11  550  11.484  20.041  12.956
   79ETHO   H13  551  11.636  20.124  12.928
   79ETHO    C2  552  11.496  20.247  13.040
   79ETHO   H21  553  11.494  20.349  12.996
   79ETHO   H23  554  11.567  20.236  13.125
   80ETHO    O1  555  11.367  20.227  13.100
   80ETHO    C1  556  11.326  20.324  13.203
   80ETHO   H11  557  11.341  20.426  13.160
   80ETHO   H13  558  11.217  20.307  13.211
   80ETHO    C2  559  11.401  20.310  13.343
   80ETHO   H21  560  11.406  20.203  13.370
   80ETHO   H23  561  11.350  20.355  13.431
   81ETHO    O1  562  11.535  20.355  13.338
   81ETHO    C1  563  11.546  20.490  13.374
   81ETHO   H11  564  11.482  20.546  13.302
   81ETHO   H13  565  11.517  20.511  13.479
   81ETHO    C2  566  11.689  20.530  13.353
   81ETHO   H21  567  11.721  20.502  13.250
   81ETHO   H23  568  11.681  20.641  13.358
   82ETHO    O1  569  11.790  20.480  13.443
   82ETHO    C1  570  11.917  20.543  13.415
   82ETHO   H11  571  11.935  20.645  13.456
   82ETHO   H13  572  11.933  20.555  13.306
   82ETHO    C2  573  12.039  20.462  13.470
   82ETHO   H21  574  12.129  20.494  13.412
   82ETHO   H23  575  12.008  20.358  13.443
   83ETHO    O1  576  12.063  20.482  13.610
   83ETHO    C1  577  12.190  20.442  13.654
   83ETHO   H11  578  12.196  20.335  13.624
   83ETHO   H13  579  12.256  20.513  13.600
   83ETHO    C2  580  12.195  20.466  13.810
   83ETHO   H21  581  12.268  20.390  13.846
   83ETHO   H23  582  12.101  20.442  13.863
   84ETHO    O1  583  12.251  20.593  13.833
   84ETHO    C1  584  12.261  20.630  13.968
   84ETHO   H11  585  12.301  20.550  14.034
   84ETHO   H13  586  12.163  20.662  14.008
   84ETHO    C2  587  12.367  20.742  13.989
   84ETHO   H21  588  12.349  20.791  14.087
   84ETHO   H23  589  12.365  20.805  13.897
   85ETHO    O1  590  12.499  20.679  13.992
   85ETHO    C1  591  12.566  20.668  13.865
   85ETHO   H11  592  12.511  20.621  13.780
   85ETHO   H13  593  12.576  20.773  13.828
   85ETHO    C2  594  12.713  20.619  13.888
   85ETHO   H21  595  12.708  20.509  13.898
   85ETHO   H23  596  12.771  20.671  13.966
   86ETHO    O1  597  12.792  20.635  13.765
   86ETHO    C1  598  12.925  20.586  13.787
   86ETHO   H11  599  12.923  20.475  13.798
   86ETHO   H13  600  12.968  20.634  13.877
   86ETHO    C2  601  13.022  20.618  13.669
   86ETHO   H21  602  13.127  20.640  13.698
   86ETHO   H23  603  12.982  20.718  13.640
   87ETHO    O1  604  13.019  20.512  13.570
   87ETHO    C1  605  13.111  20.519  13.465
   87ETHO   H11  606  13.076  20.587  13.385
   87ETHO   H13  607  13.201  20.574  13.500
   87ETHO    C2  608  13.139  20.394  13.394
   87ETHO   H21  609  13.211  20.408  13.311
   87ETHO   H23  610  13.054  20.344  13.343
   88ETHO    O1  611  13.201  20.303  13.477
   88ETHO    C1  612  13.254  20.186  13.407
   88ETHO   H11  613  13.330  20.219  13.333
   88ETHO   H13  614  13.175  20.132  13.350
   88ETHO    C2  615  13.332  20.090  13.506
   88ETHO   H21  616  13.421  20.146  13.543
   88ETHO   H23  617  13.374  20.010  13.442
   89ETHO    O1  618  13.259  20.048  13.614
   89ETHO    C1  619  13.319  19.948  13.688
   89ETHO   H11  620  13.426  19.942  13.660
   89ETHO   H13  621  13.317  19.975  13.796
   89ETHO    C2  622  13.251  19.820  13.646
   89ETHO   H21  623  13.252  19.816  13.535
   89ETHO   H23  624  13.142  19.818  13.663
   90ETHO    O1  625  13.307  19.701  13.690
   90ETHO    C1  626  13.307  19.592  13.597
   90ETHO   H11  627  13.342  19.632  13.499
   90ETHO   H13  628  13.383  19.516  13.625
   90ETHO    C2  629  13.173  19.529  13.585
   90ETHO   H21  630  13.103  19.590  13.525
   90ETHO   H23  631  13.134  19.503  13.686
   91ETHO    O1  632  13.177  19.401  13.523
   91ETHO    C1  633  13.050  19.340  13.524
   91ETHO   H11  634  13.024  19.324  13.631
   91ETHO   H13  635  12.976  19.411  13.480
   91ETHO    C2  636  13.052  19.204  13.461
   91ETHO   H21  637  13.085  19.218  13.356
   91ETHO   H23  638  12.951  19.158  13.465
   92ETHO    O1  639  13.144  19.111  13.518
   92ETHO    C1  640  13.128  18.982  13.459
   92ETHO   H11  641  13.019  18.959  13.463
   92ETHO   H13  642  13.141  18.988  13.349
   92ETHO    C2  643  13.215  18.862  13.507
   92ETHO   H21  644  13.321  18.895  13.496
   92ETHO   H23  645  13.200  18.771  13.445
   93ETHO    O1  646  13.183  18.825  13.641
   93ETHO    C1  647  13.267  18.728  13.702
   93ETHO   H11  648  13.343  18.794  13.750
   93ETHO   H13  649  13.312  18.659  13.627
   93ETHO    C2  650  13.186  18.654  13.810
   93ETHO   H21  651  13.122  18.734  13.854
   93ETHO   H23  652  13.262  18.623  13.884
   94ETHO    O1  653  13.107  18.540  13.771
   94ETHO    C1  654  12.989  18.582  13.696
   94ETHO   H11  655  12.923  18.634  13.769
   94ETHO   H13  656  13.009  18.650  13.611
   94ETHO    C2  657  12.906  18.454  13.663
   94ETHO   H21  658  12.811  18.488  13.617
   94ETHO   H23  659  12.884  18.409  13.761
   95ETHO    O1  660  12.974  18.371  13.572
   95ETHO    C1  661  12.898  18.257  13.528
   95ETHO   H11  662  12.790  18.264  13.557
   95ETHO   H13  663  12.928  18.166  13.584
   95ETHO    C2  664  12.891  18.234  13.380
   95ETHO   H21  665  12.870  18.127  13.357
   95ETHO   H23  666  12.995  18.248  13.344
   96ETHO    O1  667  12.800  18.314  13.302
   96ETHO    C1  668  12.828  18.313  13.156
   96ETHO   H11  669  12.759  18.383  13.106
   96ETHO   H13  670  12.935  18.341  13.144
   96ETHO    C2  671  12.796  18.172  13.094
   96ETHO   H21  672  12.860  18.096  13.144
   96ETHO   H23  673  12.812  18.197  12.987
   97ETHO    O1  674  12.662  18.131  13.111
   97ETHO    C1  675  12.624  18.035  13.015
   97ETHO   H11  676  12.694  17.951  13.032
   97ETHO   H13  677  12.634  18.084  12.916
   97ETHO    C2  678  12.480  17.974  13.025
   97ETHO   H21  679  12.485  17.900  12.942
   97ETHO   H23  680  12.409  18.057  13.005
   98ETHO    O1  681  12.450  17.905  13.145
   98ETHO    C1  682  12.314  17.873  13.148
   98ETHO   H11  683  12.288  17.867  13.256
   98ETHO   H13  684  12.255  17.958  13.106
   98ETHO    C2  685  12.294  17.737  13.077
   98ETHO   H21  686  12.194  17.693  13.098
   98ETHO   H23  687  12.369  17.675  13.131
   99ETHO    O1  688  12.318  17.758  12.942
   99ETHO    C1  689  12.273  17.650  12.855
   99ETHO   H11  690  12.300  17.685  12.753
   99ETHO   H13  691  12.163  17.661  12.864
   99ETHO    C2  692  12.334  17.512  12.871
   99ETHO   H21  693  12.267  17.438  12.822
   99ETHO   H23  694  12.360  17.487  12.976
  100ETHO    O1  695  12.451  17.513  12.796
  100ETHO    C1  696  12.525  17.395  12.816
  100ETHO   H11  697  12.561  17.400  12.921
  100ETHO   H13  698  12.452  17.312  12.820
  100ETHO    C2  699  12.636  17.370  12.717
  100ETHO   H21  700  12.720  17.443  12.725
  100ETHO   H23  701  12.583  17.389  12.622
  101PROX    O1  702  12.680  17.236  12.730
  101PROX    C1  703  12.734  17.184  12.609
  101PROX   H11  704  12.651  17.141  12.548
  101PROX   H13  705  12.785  17.265  12.554
  101PROX    C2  706  12.843  17.072  12.639
  101PROX   H21  707  12.799  16.993  12.704
  101PROX    C3  708  12.975  17.142  12.689
  101PROX   H31  709  12.947  17.206  12.775
  101PROX   H32  710  13.050  17.071  12.728
  101PROX   H33  711  13.023  17.210  12.615
  102PROX    O1  712  12.872  17.016  12.510
  102PROX    C1  713  12.913  16.883  12.516
  102PROX   H11  714  12.985  16.866  12.600
  102PROX   H13  715  12.820  16.830  12.546
  102PROX    C2  716  12.971  16.839  12.383
  102PROX   H21  717  12.899  16.873  12.305
  102PROX    C3  718  12.992  16.690  12.382
  102PROX   H31  719  12.894  16.639  12.378
  102PROX   H32  720  13.045  16.670  12.287
  102PROX   H33  721  13.067  16.661  12.458
  103PROX    O1  722  13.089  16.908  12.366
  103PROX    C1  723  13.133  16.904  12.229
  103PROX   H11  724  13.064  16.857  12.155
  103PROX   H13  725  13.143  17.008  12.191
  103PROX    C2  726  13.276  16.850  12.223
  103PROX   H21  727  13.266  16.758  12.284
  103PROX    C3  728  13.391  16.932  12.280
  103PROX   H31  729  13.365  17.011  12.354
  103PROX   H32  730  13.468  16.864  12.323
  103PROX   H33  731  13.440  16.983  12.194
  104PROX    O1  732  13.298  16.820  12.085
  104PROX    C1  733  13.377  16.705  12.063
  104PROX   H11  734  13.436  16.731  11.973
  104PROX   H13  735  13.449  16.686  12.146
  104PROX    C2  736  13.292  16.582  12.045
  104PROX   H21  737  13.352  16.500  12.000
  104PROX    C3  738  13.173  16.610  11.941
  104PROX   H31  739  13.216  16.668  11.856
  104PROX   H32  740  13.122  16.516  11.909
  104PROX   H33  741  13.096  16.674  11.989
  105PROX    O1  742  13.249  16.529  12.168
  105PROX    C1  743  13.156  16.428  12.156
  105PROX   H11  744  13.051  16.453  12.134
  105PROX   H13  745  13.182  16.363  12.070
  105PROX    C2  746  13.145  16.343  12.283
  105PROX   H21  747  13.148  16.413  12.369
  105PROX    C3  748  13.270  16.252  12.290
  105PROX   H31  749  13.364  16.309  12.273
  105PROX   H32  750  13.277  16.189  12.381
  105PROX   H33  751  13.264  16.173  12.213
  106PROX    O1  752  13.021  16.267  12.276
  106PROX    C1  753  12.985  16.193  12.387
  106PROX   H11  754  13.052  16.104  12.392
  106PROX   H13  755  13.004  16.254  12.478
  106PROX    C2  756  12.831  16.148  12.376
  106PROX   H21  757  12.823  16.090  12.281
  106PROX    C3  758  12.738  16.265  12.380
  106PROX   H31  759  12.769  16.348  12.313
  106PROX   H32  760  12.632  16.241  12.362
  106PROX   H33  761  12.733  16.298  12.486
  107PROX    O1  762  12.795  16.059  12.485
  107PROX    C1  763  12.763  15.930  12.444
  107PROX   H11  764  12.674  15.944  12.380
  107PROX   H13  765  12.841  15.875  12.386
  107PROX    C2  766  12.715  15.839  12.560
  107PROX   H21  767  12.675  15.744  12.519
  107PROX    C3  768  12.603  15.900  12.647
  107PROX   H31  769  12.642  15.990  12.700
  107PROX   H32  770  12.518  15.927  12.582
  107PROX   H33  771  12.562  15.832  12.725
  108PROX    O1  772  12.824  15.799  12.643
  108PROX    C1  773  12.804  15.681  12.726
  108PROX   H11  774  12.868  15.682  12.817
  108PROX   H13  775  12.697  15.679  12.756
  108PROX    C2  776  12.828  15.553  12.647
  108PROX   H21  777  12.762  15.541  12.559
  108PROX    C3  778  12.793  15.419  12.720
  108PROX   H31  779  12.844  15.400  12.817
  108PROX   H32  780  12.684  15.415  12.744
  108PROX   H33  781  12.818  15.331  12.658
  109PROX    O1  782  12.967  15.543  12.622
  109PROX    C1  783  12.994  15.581  12.489
  109PROX   H11  784  12.966  15.487  12.437
  109PROX   H13  785  12.931  15.665  12.454
  109PROX    C2  786  13.145  15.615  12.471
  109PROX   H21  787  13.162  15.607  12.361
  109PROX    C3  788  13.250  15.526  12.534
  109PROX   H31  789  13.248  15.518  12.645
  109PROX   H32  790  13.256  15.420  12.503
  109PROX   H33  791  13.349  15.574  12.514
  110PROX    O1  792  13.169  15.756  12.500
  110PROX    C1  793  13.146  15.790  12.639
  110PROX   H11  794  13.053  15.744  12.678
  110PROX   H13  795  13.225  15.754  12.709
  110PROX    C2  796  13.129  15.938  12.657
  110PROX   H21  797  13.047  15.959  12.585
  110PROX    C3  798  13.262  16.011  12.620
  110PROX   H31  799  13.324  15.993  12.710
  110PROX   H32  800  13.306  15.970  12.528
  110PROX   H33  801  13.248  16.121  12.612
  111PROX    O1  802  13.095  15.975  12.785
  111PROX    C1  803  13.051  16.108  12.801
  111PROX   H11  804  13.096  16.171  12.880
  111PROX   H13  805  13.072  16.165  12.708
  111PROX    C2  806  12.902  16.111  12.832
  111PROX   H21  807  12.843  16.042  12.767
  111PROX    C3  808  12.843  16.248  12.845
  111PROX   H31  809  12.849  16.302  12.748
  111PROX   H32  810  12.734  16.242  12.862
  111PROX   H33  811  12.877  16.300  12.937
  112PROX    O1  812  12.876  16.077  12.968
  112PROX    C1  813  12.895  15.942  13.002
  112PROX   H11  814  12.946  15.884  12.922
  112PROX   H13  815  12.964  15.926  13.087
  112PROX    C2  816  12.759  15.879  13.036
  112PROX   H21  817  12.692  15.870  12.949
  112PROX    C3  818  12.678  15.969  13.132
  112PROX   H31  819  12.734  15.994  13.225
  112PROX   H32  820  12.659  16.072  13.096
  112PROX   H33  821  12.590  15.906  13.159
  113PROX    O1  822  12.776  15.742  13.081
  113PROX    C1  823  12.656  15.659  13.059
  113PROX   H11  824  12.573  15.704  13.118
  113PROX   H13  825  12.643  15.655  12.949
  113PROX    C2  826  12.681  15.515  13.109
  113PROX   H21  827  12.610  15.444  13.061
  113PROX    C3  828  12.659  15.511  13.265
  113PROX   H31  829  12.737  15.572  13.316
  113PROX   H32  830  12.564  15.558  13.297
  113PROX   H33  831  12.651  15.408  13.305
  114PROX    O1  832  12.812  15.472  13.080
  114PROX    C1  833  12.855  15.349  13.127
  114PROX   H11  834  12.871  15.357  13.237
  114PROX   H13  835  12.780  15.268  13.113
  114PROX    C2  836  12.989  15.314  13.069
  114PROX   H21  837  12.963  15.306  12.961
  114PROX    C3  838  13.052  15.184  13.125
  114PROX   H31  839  13.001  15.087  13.108
  114PROX   H32  840  13.152  15.175  13.078
  114PROX   H33  841  13.080  15.203  13.231
  115PROX    O1  842  13.082  15.421  13.081
  115PROX    C1  843  13.170  15.434  12.970
  115PROX   H11  844  13.253  15.363  12.990
  115PROX   H13  845  13.120  15.420  12.872
  115PROX    C2  846  13.242  15.567  12.977
  115PROX   H21  847  13.288  15.577  13.077
  115PROX    C3  848  13.129  15.677  12.977
  115PROX   H31  849  13.081  15.678  12.877
  115PROX   H32  850  13.044  15.655  13.045
  115PROX   H33  851  13.165  15.781  12.992
  116PROX    O1  852  13.332  15.579  12.870
  116PROX    C1  853  13.424  15.686  12.885
  116PROX   H11  854  13.380  15.780  12.925
  116PROX   H13  855  13.500  15.661  12.962
  116PROX    C2  856  13.494  15.720  12.755
  116PROX   H21  857  13.421  15.736  12.672
  116PROX    C3  858  13.595  15.608  12.718
  116PROX   H31  859  13.652  15.584  12.810
  116PROX   H32  860  13.551  15.516  12.673
  116PROX   H33  861  13.667  15.650  12.645
  117PROX    O1  862  13.561  15.848  12.762
  117PROX    C1  863  13.673  15.861  12.848
  117PROX   H11  864  13.633  15.863  12.952
  117PROX   H13  865  13.748  15.779  12.839
  117PROX    C2  866  13.748  15.993  12.820
  117PROX   H21  867  13.799  15.980  12.722
  117PROX    C3  868  13.844  16.015  12.930
  117PROX   H31  869  13.916  16.092  12.896
  117PROX   H32  870  13.798  16.061  13.020
  117PROX   H33  871  13.903  15.931  12.974
  118PROX    O1  872  13.655  16.111  12.806
  118PROX    C1  873  13.706  16.204  12.710
  118PROX   H11  874  13.799  16.244  12.755
  118PROX   H13  875  13.727  16.162  12.610
  118PROX    C2  876  13.623  16.329  12.665
  118PROX   H21  877  13.545  16.288  12.597
  118PROX    C3  878  13.706  16.426  12.575
  118PROX   H31  879  13.652  16.505  12.518
  118PROX   H32  880  13.782  16.467  12.645
  118PROX   H33  881  13.757  16.363  12.498
  119PROX    O1  882  13.584  16.403  12.780
  119PROX    C1  883  13.484  16.501  12.755
  119PROX   H11  884  13.468  16.559  12.848
  119PROX   H13  885  13.509  16.570  12.671
  119PROX    C2  886  13.345  16.435  12.730
  119PROX   H21  887  13.355  16.332  12.689
  119PROX    C3  888  13.264  16.515  12.630
  119PROX   H31  889  13.300  16.520  12.525
  119PROX   H32  890  13.167  16.461  12.635
  119PROX   H33  891  13.257  16.622  12.658
  120PROX    O1  892  13.269  16.414  12.847
  120PROX    C1  893  13.319  16.317  12.934
  120PROX   H11  894  13.296  16.217  12.892
  120PROX   H13  895  13.426  16.338  12.954
  120PROX    C2  896  13.244  16.313  13.076
  120PROX   H21  897  13.134  16.310  13.058
  120PROX    C3  898  13.280  16.435  13.152
  120PROX   H31  899  13.252  16.424  13.260
  120PROX   H32  900  13.390  16.447  13.153
  120PROX   H33  901  13.229  16.528  13.120
  121PROX    O1  902  13.281  16.196  13.151
  121PROX    C1  903  13.205  16.074  13.124
  121PROX   H11  904  13.102  16.101  13.091
  121PROX   H13  905  13.249  16.029  13.033
  121PROX    C2  906  13.200  15.978  13.242
  121PROX   H21  907  13.141  15.885  13.226
  121PROX    C3  908  13.131  16.059  13.356
  121PROX   H31  909  13.154  16.167  13.369
  121PROX   H32  910  13.020  16.051  13.355
  121PROX   H33  911  13.166  16.021  13.454
  122PROX    O1  912  13.328  15.944  13.294
  122PROX    C1  913  13.394  15.854  13.201
  122PROX   H11  914  13.338  15.760  13.181
  122PROX   H13  915  13.406  15.900  13.101
  122PROX    C2  916  13.537  15.823  13.247
  122PROX   H21  917  13.526  15.800  13.355
  122PROX    C3  918  13.622  15.954  13.234
  122PROX   H31  919  13.609  15.996  13.132
  122PROX   H32  920  13.590  16.030  13.308
  122PROX   H33  921  13.729  15.936  13.255
  123PROX    O1  922  13.589  15.717  13.174
  123PROX    C1  923  13.711  15.666  13.216
  123PROX   H11  924  13.788  15.708  13.148
  123PROX   H13  925  13.731  15.710  13.317
  123PROX    C2  926  13.733  15.505  13.209
  123PROX   H21  927  13.657  15.465  13.279
  123PROX    C3  928  13.879  15.456  13.231
  123PROX   H31  929  13.937  15.508  13.152
  123PROX   H32  930  13.915  15.491  13.330
  123PROX   H33  931  13.886  15.347  13.210
  124PROX    O1  932  13.688  15.465  13.084
  124PROX    C1  933  13.633  15.333  13.094
  124PROX   H11  934  13.701  15.268  13.154
  124PROX   H13  935  13.541  15.354  13.153
  124PROX    C2  936  13.579  15.287  12.965
  124PROX   H21  937  13.539  15.371  12.905
  124PROX    C3  938  13.473  15.181  12.975
  124PROX   H31  939  13.400  15.158  12.893
  124PROX   H32  940  13.528  15.088  13.003
  124PROX   H33  941  13.409  15.213  13.060
  125PROX    O1  942  13.670  15.220  12.880
  125PROX    C1  943  13.768  15.304  12.820
  125PROX   H11  944  13.720  15.369  12.744
  125PROX   H13  945  13.815  15.360  12.904
  125PROX    C2  946  13.886  15.233  12.743
  125PROX   H21  947  13.936  15.166  12.816
  125PROX    C3  948  13.989  15.340  12.707
  125PROX   H31  949  14.036  15.380  12.799
  125PROX   H32  950  14.069  15.303  12.639
  125PROX   H33  951  13.926  15.412  12.650
  126PROX    O1  952  13.850  15.169  12.619
  126PROX    C1  953  13.862  15.026  12.630
  126PROX   H11  954  13.879  14.986  12.528
  126PROX   H13  955  13.936  14.992  12.705
  126PROX    C2  956  13.728  14.962  12.679
  126PROX   H21  957  13.694  15.001  12.777
  126PROX    C3  958  13.755  14.809  12.706
  126PROX   H31  959  13.787  14.752  12.615
  126PROX   H32  960  13.839  14.803  12.778
  126PROX   H33  961  13.669  14.761  12.756
  127PROX    O1  962  13.624  14.986  12.580
  127PROX    C1  963  13.496  14.964  12.632
  127PROX   H11  964  13.470  14.856  12.627
  127PROX   H13  965  13.480  14.989  12.739
  127PROX    C2  966  13.413  15.068  12.566
  127PROX   H21  967  13.392  15.037  12.462
  127PROX    C3  968  13.467  15.210  12.568
  127PROX   H31  969  13.394  15.271  12.511
  127PROX   H32  970  13.466  15.243  12.675
  127PROX   H33  971  13.566  15.211  12.517
  128PROX    O1  972  13.285  15.074  12.634
  128PROX    C1  973  13.201  14.956  12.621
  128PROX   H11  974  13.230  14.918  12.521
  128PROX   H13  975  13.214  14.884  12.705
  128PROX    C2  976  13.056  14.992  12.616
  128PROX   H21  977  13.042  15.079  12.548
  128PROX    C3  978  13.038  15.036  12.765
  128PROX   H31  979  12.950  15.104  12.767
  128PROX   H32  980  13.013  14.955  12.837
  128PROX   H33  981  13.123  15.095  12.806
  129PROX    O1  982  12.980  14.882  12.583
  129PROX    C1  983  12.845  14.894  12.621
  129PROX   H11  984  12.839  14.842  12.719
  129PROX   H13  985  12.810  14.998  12.638
  129PROX    C2  986  12.754  14.830  12.511
  129PROX   H21  987  12.784  14.724  12.499
  129PROX    C3  988  12.766  14.914  12.384
  129PROX   H31  989  12.873  14.926  12.359
  129PROX   H32  990  12.704  14.879  12.299
  129PROX   H33  991  12.731  15.016  12.409
  130PROX    O1  992  12.616  14.839  12.536
  130PROX    C1  993  12.580  14.756  12.648
  130PROX   H11  994  12.590  14.650  12.617
  130PROX   H13  995  12.625  14.789  12.744
  130PROX    C2  996  12.427  14.773  12.657
  130PROX   H21  997  12.415  14.883  12.660
  130PROX    C3  998  12.367  14.722  12.792
  130PROX   H31  999  12.273  14.770  12.824
  130PROX   H32 1000  12.348  14.612  12.797
  130PROX   H33 1001  12.444  14.750  12.867
  131PROX    O1 1002  12.354  14.726  12.552
  131PROX    C1 1003  12.227  14.786  12.558
  131PROX   H11 1004  12.165  14.709  12.607
  131PROX   H13 1005  12.218  14.878  12.620
  131PROX    C2 1006  12.171  14.819  12.415
  131PROX   H21 1007  12.151  14.720  12.369
  131PROX    C3 1008  12.266  14.900  12.330
  131PROX   H31 1009  12.231  14.889  12.226
  131PROX   H32 1010  12.272  15.007  12.362
  131PROX   H33 1011  12.372  14.867  12.335
  132PROX    O1 1012  12.043  14.886  12.425
  132PROX    C1 1013  11.985  14.932  12.311
  132PROX   H11 1014  12.049  15.011  12.266
  132PROX   H13 1015  11.968  14.852  12.235
  132PROX    C2 1016  11.849  15.005  12.332
  132PROX   H21 1017  11.875  15.088  12.402
  132PROX    C3 1018  11.735  14.932  12.402
  132PROX   H31 1019  11.776  14.898  12.499
  132PROX   H32 1020  11.640  14.986  12.421
  132PROX   H33 1021  11.716  14.847  12.333
  133PROX    O1 1022  11.807  15.070  12.211
  133PROX    C1 1023  11.741  15.193  12.241
  133PROX   H11 1024  11.657  15.164  12.307
  133PROX   H13 1025  11.802  15.269  12.294
  133PROX    C2 1026  11.678  15.253  12.111
  133PROX   H21 1027  11.622  15.346  12.135
  133PROX    C3 1028  11.572  15.155  12.065
  133PROX   H31 1029  11.621  15.059  12.038
  133PROX   H32 1030  11.495  15.126  12.139
  133PROX   H33 1031  11.524  15.194  11.973
  134PROX    O1 1032  11.783  15.278  12.014
  134PROX    C1 1033  11.748  15.370  11.914
  134PROX   H11 1034  11.815  15.346  11.829
  134PROX   H13 1035  11.641  15.352  11.889
  134PROX    C2 1036  11.763  15.518  11.962
  134PROX   H21 1037  11.702  15.552  12.048
  134PROX    C3 1038  11.715  15.604  11.844
  134PROX   H31 1039  11.764  15.589  11.746
  134PROX   H32 1040  11.606  15.590  11.824
  134PROX   H33 1041  11.728  15.707  11.882
  135PROX    O1 1042  11.902  15.559  11.975
  135PROX    C1 1043  11.958  15.528  12.112
  135PROX   H11 1044  11.924  15.428  12.145
  135PROX   H13 1045  12.068  15.519  12.098
  135PROX    C2 1046  11.928  15.637  12.223
  135PROX   H21 1047  11.822  15.624  12.255
  135PROX    C3 1048  11.928  15.775  12.156
  135PROX   H31 1049  11.845  15.774  12.082
  135PROX   H32 1050  11.894  15.846  12.235
  135PROX   H33 1051  12.020  15.809  12.104
  136PROX    O1 1052  12.007  15.619  12.340
  136PROX    C1 1053  11.953  15.527  12.434
  136PROX   H11 1054  11.914  15.592  12.515
  136PROX   H13 1055  11.869  15.470  12.390
  136PROX    C2 1056  12.061  15.425  12.465
  136PROX   H21 1057  12.150  15.482  12.500
  136PROX    C3 1058  12.106  15.339  12.344
  136PROX   H31 1059  12.026  15.271  12.309
  136PROX   H32 1060  12.146  15.397  12.258
  136PROX   H33 1061  12.180  15.264  12.379
  137PROX    O1 1062  12.014  15.334  12.564
  137PROX    C1 1063  12.115  15.293  12.660
  137PROX   H11 1064  12.215  15.328  12.626
  137PROX   H13 1065  12.092  15.342  12.757
  137PROX    C2 1066  12.124  15.139  12.675
  137PROX   H21 1067  12.147  15.088  12.579
  137PROX    C3 1068  11.992  15.061  12.713
  137PROX   H31 1069  11.917  15.073  12.633
  137PROX   H32 1070  12.008  14.951  12.719
  137PROX   H33 1071  11.964  15.100  12.813
  138PROX    O1 1072  12.231  15.100  12.766
  138PROX    C1 1073  12.209  15.107  12.906
  138PROX   H11 1074  12.164  15.205  12.934
  138PROX   H13 1075  12.138  15.030  12.946
  138PROX    C2 1076  12.342  15.092  12.986
  138PROX   H21 1077  12.401  15.005  12.951
  138PROX    C3 1078  12.327  15.073  13.142
  138PROX   H31 1079  12.427  15.044  13.181
  138PROX   H32 1080  12.268  15.155  13.189
  138PROX   H33 1081  12.268  14.981  13.159
  139PROX    O1 1082  12.417  15.213  12.970
  139PROX    C1 1083  12.472  15.249  12.848
  139PROX   H11 1084  12.400  15.302  12.782
  139PROX   H13 1085  12.551  15.324  12.872
  139PROX    C2 1086  12.545  15.132  12.771
  139PROX   H21 1087  12.467  15.057  12.746
  139PROX    C3 1088  12.658  15.073  12.859
  139PROX   H31 1089  12.752  15.130  12.843
  139PROX   H32 1090  12.623  15.088  12.963
  139PROX   H33 1091  12.671  14.966  12.834
  140PROX    O1 1092  12.582  15.192  12.648
  140PROX    C1 1093  12.490  15.169  12.544
  140PROX   H11 1094  12.487  15.066  12.504
  140PROX   H13 1095  12.383  15.184  12.571
  140PROX    C2 1096  12.515  15.267  12.437
  140PROX   H21 1097  12.624  15.265  12.415
  140PROX    C3 1098  12.471  15.417  12.472
  140PROX   H31 1099  12.495  15.488  12.390
  140PROX   H32 1100  12.362  15.414  12.494
  140PROX   H33 1101  12.519  15.436  12.570
  141PROX    O1 1102  12.425  15.243  12.327
  141PROX    C1 1103  12.479  15.154  12.231
  141PROX   H11 1104  12.576  15.196  12.198
  141PROX   H13 1105  12.482  15.052  12.275
  141PROX    C2 1106  12.396  15.140  12.098
  141PROX   H21 1107  12.292  15.110  12.124
  141PROX    C3 1108  12.461  15.052  11.990
  141PROX   H31 1109  12.541  15.102  11.933
  141PROX   H32 1110  12.523  14.965  12.020
  141PROX   H33 1111  12.380  15.012  11.926
  142PROX    O1 1112  12.377  15.273  12.043
  142PROX    C1 1113  12.268  15.267  11.945
  142PROX   H11 1114  12.294  15.204  11.858
  142PROX   H13 1115  12.164  15.250  11.981
  142PROX    C2 1116  12.244  15.404  11.865
  142PROX   H21 1117  12.232  15.489  11.935
  142PROX    C3 1118  12.127  15.394  11.763
  142PROX   H31 1119  12.030  15.391  11.816
  142PROX   H32 1120  12.131  15.474  11.686
  142PROX   H33 1121  12.139  15.296  11.711
  143PROX    O1 1122  12.353  15.419  11.778
  143PROX    C1 1123  12.467  15.483  11.834
  143PROX   H11 1124  12.450  15.587  11.869
  143PROX   H13 1125  12.495  15.431  11.928
  143PROX    C2 1126  12.595  15.498  11.749
  143PROX   H21 1127  12.575  15.565  11.663
  143PROX    C3 1128  12.635  15.352  11.702
  143PROX   H31 1129  12.546  15.309  11.650
  143PROX   H32 1130  12.722  15.356  11.633
  143PROX   H33 1131  12.660  15.292  11.792
  144PROX    O1 1132  12.691  15.575  11.821
  144PROX    C1 1133  12.825  15.565  11.772
  144PROX   H11 1134  12.883  15.480  11.814
  144PROX   H13 1135  12.819  15.560  11.661
  144PROX    C2 1136  12.923  15.687  11.812
  144PROX   H21 1137  12.894  15.697  11.919
  144PROX    C3 1138  12.894  15.823  11.755
  144PROX   H31 1139  12.789  15.851  11.778
  144PROX   H32 1140  12.969  15.896  11.793
  144PROX   H33 1141  12.906  15.822  11.644
  145PROX    O1 1142  13.051  15.642  11.789
  145PROX    C1 1143  13.154  15.692  11.871
  145PROX   H11 1144  13.182  15.791  11.829
  145PROX   H13 1145  13.133  15.713  11.978
  145PROX    C2 1146  13.270  15.601  11.872
  145PROX   H21 1147  13.286  15.564  11.769
  145PROX    C3 1148  13.236  15.479  11.960
  145PROX   H31 1149  13.306  15.396  11.937
  145PROX   H32 1150  13.230  15.492  12.070
  145PROX   H33 1151  13.133  15.449  11.933
  146PROX    O1 1152  13.390  15.663  11.912
  146PROX    C1 1153  13.506  15.588  11.880
  146PROX   H11 1154  13.517  15.502  11.950
  146PROX   H13 1155  13.494  15.537  11.781
  146PROX    C2 1156  13.624  15.685  11.882
  146PROX   H21 1157  13.625  15.743  11.977
  146PROX    C3 1158  13.622  15.789  11.767
  146PROX   H31 1159  13.529  15.849  11.780
  146PROX   H32 1160  13.720  15.840  11.761
  146PROX   H33 1161  13.612  15.744  11.666
  147PROX    O1 1162  13.747  15.616  11.860
  147PROX    C1 1163  13.780  15.518  11.957
  147PROX   H11 1164  13.750  15.549  12.060
  147PROX   H13 1165  13.727  15.425  11.931
  147PROX    C2 1166  13.933  15.491  11.959
  147PROX   H21 1167  13.955  15.448  11.859
  147PROX    C3 1168  13.953  15.377  12.057
  147PROX   H31 1169  13.939  15.428  12.155
  147PROX   H32 1170  13.879  15.295  12.041
  147PROX   H33 1171  14.051  15.325  12.055
  148PROX    O1 1172  14.002  15.606  11.990
  148PROX    C1 1173  14.138  15.599  11.970
  148PROX   H11 1174  14.178  15.547  12.059
  148PROX   H13 1175  14.164  15.529  11.888
  148PROX    C2 1176  14.208  15.739  11.948
  148PROX   H21 1177  14.145  15.794  11.875
  148PROX    C3 1178  14.357  15.731  11.897
  148PROX   H31 1179  14.354  15.706  11.789
  148PROX   H32 1180  14.402  15.833  11.897
  148PROX   H33 1181  14.413  15.655  11.956
  149PROX    O1 1182  14.206  15.821  12.067
  149PROX    C1 1183  14.084  15.878  12.115
  149PROX   H11 1184  14.094  15.985  12.143
  149PROX   H13 1185  14.013  15.894  12.031
  149PROX    C2 1186  14.011  15.805  12.230
  149PROX   H21 1187  14.031  15.697  12.217
  149PROX    C3 1188  13.856  15.803  12.196
  149PROX   H31 1189  13.803  15.748  12.277
  149PROX   H32 1190  13.817  15.907  12.200
  149PROX   H33 1191  13.836  15.777  12.090
  150PROX    O1 1192  14.058  15.845  12.356
  150PROX    C1 1193  13.988  15.781  12.461
  150PROX   H11 1194  13.883  15.818  12.471
  150PROX   H13 1195  14.002  15.673  12.444
  150PROX    C2 1196  14.069  15.814  12.588
  150PROX   H21 1197  14.176  15.807  12.557
  150PROX    C3 1198  14.050  15.721  12.709
  150PROX   H31 1199  13.940  15.722  12.720
  150PROX   H32 1200  14.087  15.616  12.703
  150PROX   H33 1201  14.092  15.763  12.803
  151PROX    O1 1202  14.038  15.951  12.621
  151PROX    C1 1203  14.146  16.041  12.592
  151PROX   H11 1204  14.219  16.025  12.674
  151PROX   H13 1205  14.200  16.010  12.500
  151PROX    C2 1206  14.116  16.197  12.584
  151PROX   H21 1207  14.205  16.238  12.532
  151PROX    C3 1208  14.101  16.260  12.722
  151PROX   H31 1209  14.010  16.211  12.761
  151PROX   H32 1210  14.193  16.235  12.779
  151PROX   H33 1211  14.078  16.369  12.724
  152PROX    O1 1212  13.997  16.221  12.510
  152PROX    C1 1213  14.016  16.180  12.371
  152PROX   H11 1214  14.122  16.185  12.338
  152PROX   H13 1215  13.994  16.072  12.382
  152PROX    C2 1216  13.915  16.248  12.269
  152PROX   H21 1217  13.930  16.358  12.274
  152PROX    C3 1218  13.771  16.191  12.298
  152PROX   H31 1219  13.736  16.205  12.403
  152PROX   H32 1220  13.699  16.237  12.227
  152PROX   H33 1221  13.767  16.082  12.279
  153PROX    O1 1222  13.940  16.193  12.143
  153PROX    C1 1223  14.004  16.283  12.058
  153PROX   H11 1224  13.951  16.381  12.059
  153PROX   H13 1225  14.109  16.287  12.095
  153PROX    C2 1226  14.019  16.220  11.919
  153PROX   H21 1227  14.033  16.109  11.924
  153PROX    C3 1228  14.145  16.273  11.846
  153PROX   H31 1229  14.145  16.381  11.875
  153PROX   H32 1230  14.239  16.229  11.886
  153PROX   H33 1231  14.134  16.258  11.737
  154PROX    O1 1232  13.892  16.241  11.851
  154PROX    C1 1233  13.779  16.184  11.914
  154PROX   H11 1234  13.790  16.075  11.932
  154PROX   H13 1235  13.765  16.224  12.017
  154PROX    C2 1236  13.659  16.220  11.833
  154PROX   H21 1237  13.681  16.202  11.726
  154PROX    C3 1238  13.606  16.361  11.834
  154PROX   H31 1239  13.686  16.437  11.820
  154PROX   H32 1240  13.519  16.373  11.767
  154PROX   H33 1241  13.559  16.391  11.930
  155PROX    O1 1242  13.551  16.126  11.854
  155PROX    C1 1243  13.487  16.143  11.985
  155PROX   H11 1244  13.566  16.152  12.062
  155PROX   H13 1245  13.415  16.228  11.984
  155PROX    C2 1246  13.395  16.019  12.012
  155PROX   H21 1247  13.427  15.934  11.948
  155PROX    C3 1248  13.251  16.044  11.977
  155PROX   H31 1249  13.210  16.140  12.016
  155PROX   H32 1250  13.239  16.047  11.867
  155PROX   H33 1251  13.190  15.953  12.001
  156PROX    O1 1252  13.395  15.985  12.151
  156PROX    C1 1253  13.484  15.874  12.178
  156PROX   H11 1254  13.445  15.785  12.124
  156PROX   H13 1255  13.585  15.901  12.141
  156PROX    C2 1256  13.490  15.834  12.333
  156PROX   H21 1257  13.387  15.808  12.368
  156PROX    C3 1258  13.548  15.942  12.418
  156PROX   H31 1259  13.526  15.927  12.525
  156PROX   H32 1260  13.659  15.943  12.415
  156PROX   H33 1261  13.516  16.042  12.381
  157PROX    O1 1262  13.579  15.722  12.354
  157PROX    C1 1263  13.532  15.600  12.294
  157PROX   H11 1264  13.424  15.581  12.312
  157PROX   H13 1265  13.552  15.611  12.185
  157PROX    C2 1266  13.606  15.475  12.353
  157PROX   H21 1267  13.567  15.467  12.457
  157PROX    C3 1268  13.755  15.495  12.359
  157PROX   H31 1269  13.800  15.520  12.261
  157PROX   H32 1270  13.771  15.585  12.422
  157PROX   H33 1271  13.809  15.409  12.403
  158PROX    O1 1272  13.579  15.352  12.291
  158PROX    C1 1273  13.448  15.344  12.235
  158PROX   H11 1274  13.378  15.361  12.320
  158PROX   H13 1275  13.425  15.414  12.152
  158PROX    C2 1276  13.435  15.198  12.177
  158PROX   H21 1277  13.459  15.130  12.261
  158PROX    C3 1278  13.540  15.164  12.069
  158PROX   H31 1279  13.620  15.101  12.115
  158PROX   H32 1280  13.508  15.102  11.983
  158PROX   H33 1281  13.577  15.258  12.023
  159PROX    O1 1282  13.309  15.178  12.122
  159PROX    C1 1283  13.277  15.036  12.113
  159PROX   H11 1284  13.244  15.014  12.009
  159PROX   H13 1285  13.366  14.975  12.139
  159PROX    C2 1286  13.156  14.999  12.212
  159PROX   H21 1287  13.173  15.043  12.313
  159PROX    C3 1288  13.129  14.848  12.225
  159PROX   H31 1289  13.022  14.824  12.206
  159PROX   H32 1290  13.182  14.797  12.142
  159PROX   H33 1291  13.171  14.804  12.318
  160PROX    O1 1292  13.034  15.051  12.160
  160PROX    C1 1293  13.027  15.189  12.165
  160PROX   H11 1294  13.071  15.228  12.259
  160PROX   H13 1295  13.081  15.234  12.079
  160PROX    C2 1296  12.879  15.245  12.166
  160PROX   H21 1297  12.824  15.194  12.248
  160PROX    C3 1298  12.809  15.216  12.036
  160PROX   H31 1299  12.710  15.266  12.029
  160PROX   H32 1300  12.867  15.261  11.953
  160PROX   H33 1301  12.789  15.107  12.029
  161PROX    O1 1302  12.881  15.385  12.173
  161PROX    C1 1303  12.761  15.449  12.227
  161PROX   H11 1304  12.672  15.383  12.216
  161PROX   H13 1305  12.780  15.467  12.335
  161PROX    C2 1306  12.737  15.581  12.156
  161PROX   H21 1307  12.716  15.556  12.050
  161PROX    C3 1308  12.853  15.675  12.173
  161PROX   H31 1309  12.952  15.631  12.149
  161PROX   H32 1310  12.845  15.769  12.114
  161PROX   H33 1311  12.865  15.711  12.277
  162PROX    O1 1312  12.622  15.649  12.216
  162PROX    C1 1313  12.564  15.758  12.141
  162PROX   H11 1314  12.641  15.839  12.140
  162PROX   H13 1315  12.540  15.729  12.037
  162PROX    C2 1316  12.433  15.797  12.210
  162PROX   H21 1317  12.454  15.807  12.319
  162PROX    C3 1318  12.323  15.685  12.200
  162PROX   H31 1319  12.233  15.721  12.254
  162PROX   H32 1320  12.296  15.658  12.096
  162PROX   H33 1321  12.360  15.599  12.260
  163PROX    O1 1322  12.376  15.907  12.141
  163PROX    C1 1323  12.442  16.029  12.184
  163PROX   H11 1324  12.478  16.036  12.289
  163PROX   H13 1325  12.529  16.050  12.118
  163PROX    C2 1326  12.352  16.153  12.160
  163PROX   H21 1327  12.277  16.141  12.241
  163PROX    C3 1328  12.277  16.152  12.028
  163PROX   H31 1329  12.207  16.238  12.023
  163PROX   H32 1330  12.350  16.168  11.947
  163PROX   H33 1331  12.216  16.062  12.004
  164PROX    O1 1332  12.436  16.271  12.171
  164PROX    C1 1333  12.359  16.398  12.185
  164PROX   H11 1334  12.265  16.390  12.126
  164PROX   H13 1335  12.324  16.410  12.290
  164PROX    C2 1336  12.439  16.537  12.147
  164PROX   H21 1337  12.499  16.515  12.056
  164PROX    C3 1338  12.532  16.589  12.256
  164PROX   H31 1339  12.626  16.536  12.280
  164PROX   H32 1340  12.548  16.698  12.239
  164PROX   H33 1341  12.479  16.594  12.353
  165PROX    O1 1342  12.345  16.643  12.107
  165PROX    C1 1343  12.294  16.615  11.973
  165PROX   H11 1344  12.371  16.590  11.897
  165PROX   H13 1345  12.232  16.524  11.961
  165PROX    C2 1346  12.204  16.733  11.926
  165PROX   H21 1347  12.263  16.826  11.940
  165PROX    C3 1348  12.080  16.743  12.012
  165PROX   H31 1349  12.107  16.755  12.119
  165PROX   H32 1350  12.023  16.833  11.980
  165PROX   H33 1351  12.005  16.661  12.007
  166ETHO    O1 1352  12.164  16.709  11.790
  166ETHO    C1 1353  12.179  16.824  11.709
  166ETHO   H11 1354  12.138  16.919  11.749
  166ETHO   H13 1355  12.122  16.802  11.617
  166ETHO    C2 1356  12.329  16.838  11.659
  166ETHO   H21 1357  12.334  16.926  11.591
  166ETHO   H23 1358  12.374  16.757  11.598
  167ETHO    O1 1359  12.413  16.866  11.771
  167ETHO    C1 1360  12.548  16.893  11.739
  167ETHO   H11 1361  12.594  16.803  11.693
  167ETHO   H13 1362  12.559  16.976  11.666
  167ETHO    C2 1363  12.621  16.928  11.876
  167ETHO   H21 1364  12.726  16.891  11.877
  167ETHO   H23 1365  12.587  16.848  11.946
  168ETHO    O1 1366  12.598  17.059  11.927
  168ETHO    C1 1367  12.620  17.074  12.066
  168ETHO   H11 1368  12.621  17.183  12.088
  168ETHO   H13 1369  12.721  17.040  12.097
  168ETHO    C2 1370  12.517  17.014  12.156
  168ETHO   H21 1371  12.564  17.015  12.256
  168ETHO   H23 1372  12.493  16.914  12.114
  169ETHO    O1 1373  12.401  17.093  12.158
  169ETHO    C1 1374  12.296  17.041  12.249
  169ETHO   H11 1375  12.269  16.937  12.221
  169ETHO   H13 1376  12.319  17.037  12.358
  169ETHO    C2 1377  12.160  17.116  12.232
  169ETHO   H21 1378  12.085  17.057  12.289
  169ETHO   H23 1379  12.137  17.117  12.123
  170ETHO    O1 1380  12.164  17.243  12.288
  170ETHO    C1 1381  12.048  17.316  12.255
  170ETHO   H11 1382  11.995  17.299  12.159
  170ETHO   H13 1383  12.069  17.424  12.241
  170ETHO    C2 1384  11.945  17.328  12.373
  170ETHO   H21 1385  11.875  17.412  12.352
  170ETHO   H23 1386  12.005  17.342  12.465
  171ETHO    O1 1387  11.875  17.203  12.393
  171ETHO    C1 1388  11.799  17.213  12.509
  171ETHO   H11 1389  11.870  17.162  12.578
  171ETHO   H13 1390  11.790  17.317  12.545
  171ETHO    C2 1391  11.667  17.137  12.501
  171ETHO   H21 1392  11.614  17.134  12.598
  171ETHO   H23 1393  11.698  17.032  12.480
  172ETHO    O1 1394  11.581  17.186  12.397
  172ETHO    C1 1395  11.472  17.100  12.381
  172ETHO   H11 1396  11.412  17.105  12.474
  172ETHO   H13 1397  11.508  16.995  12.373
  172ETHO    C2 1398  11.392  17.148  12.257
  172ETHO   H21 1399  11.382  17.258  12.272
  172ETHO   H23 1400  11.292  17.100  12.260
  173ETHO    O1 1401  11.458  17.128  12.132
  173ETHO    C1 1402  11.392  17.192  12.031
  173ETHO   H11 1403  11.415  17.131  11.940
  173ETHO   H13 1404  11.285  17.185  12.058
  173ETHO    C2 1405  11.453  17.331  11.992
  173ETHO   H21 1406  11.415  17.364  11.893
  173ETHO   H23 1407  11.434  17.417  12.061
  174ETHO    O1 1408  11.594  17.338  11.977
  174ETHO    C1 1409  11.666  17.366  12.098
  174ETHO   H11 1410  11.614  17.322  12.187
  174ETHO   H13 1411  11.759  17.306  12.085
  174ETHO    C2 1412  11.694  17.513  12.114
  174ETHO   H21 1413  11.719  17.531  12.221
  174ETHO   H23 1414  11.609  17.577  12.081
  175ETHO    O1 1415  11.808  17.536  12.036
  175ETHO    C1 1416  11.830  17.672  11.991
  175ETHO   H11 1417  11.918  17.675  11.923
  175ETHO   H13 1418  11.738  17.697  11.933
  175ETHO    C2 1419  11.857  17.770  12.108
  175ETHO   H21 1420  11.893  17.866  12.065
  175ETHO   H23 1421  11.941  17.723  12.164
  176ETHO    O1 1422  11.745  17.805  12.193
  176ETHO    C1 1423  11.786  17.893  12.302
  176ETHO   H11 1424  11.865  17.966  12.273
  176ETHO   H13 1425  11.696  17.950  12.334
  176ETHO    C2 1426  11.845  17.810  12.424
  176ETHO   H21 1427  11.774  17.728  12.449
  176ETHO   H23 1428  11.839  17.871  12.517
  177ETHO    O1 1429  11.973  17.761  12.402
  177ETHO    C1 1430  12.006  17.671  12.510
  177ETHO   H11 1431  11.936  17.585  12.512
  177ETHO   H13 1432  12.007  17.719  12.610
  177ETHO    C2 1433  12.153  17.616  12.478
  177ETHO   H21 1434  12.146  17.572  12.377
  177ETHO   H23 1435  12.189  17.541  12.552
  178ETHO    O1 1436  12.248  17.723  12.472
  178ETHO    C1 1437  12.380  17.678  12.471
  178ETHO   H11 1438  12.409  17.617  12.559
  178ETHO   H13 1439  12.389  17.615  12.380
  178ETHO    C2 1440  12.478  17.795  12.460
  178ETHO   H21 1441  12.580  17.752  12.456
  178ETHO   H23 1442  12.468  17.851  12.555
  179ETHO    O1 1443  12.441  17.889  12.362
  179ETHO    C1 1444  12.533  17.997  12.365
  179ETHO   H11 1445  12.638  17.964  12.352
  179ETHO   H13 1446  12.533  18.047  12.464
  179ETHO    C2 1447  12.501  18.110  12.266
  179ETHO   H21 1448  12.561  18.201  12.287
  179ETHO   H23 1449  12.396  18.141  12.289
  180ETHO    O1 1450  12.525  18.087  12.130
  180ETHO    C1 1451  12.470  18.193  12.060
  180ETHO   H11 1452  12.366  18.199  12.098
  180ETHO   H13 1453  12.534  18.282  12.079
  180ETHO    C2 1454  12.468  18.150  11.915
  180ETHO   H21 1455  12.388  18.209  11.866
  180ETHO   H23 1456  12.432  18.045  11.905
  181ETHO    O1 1457  12.593  18.164  11.842
  181ETHO    C1 1458  12.579  18.173  11.709
  181ETHO   H11 1459  12.524  18.267  11.685
  181ETHO   H13 1460  12.521  18.083  11.679
  181ETHO    C2 1461  12.710  18.156  11.640
  181ETHO   H21 1462  12.706  18.143  11.529
  181ETHO   H23 1463  12.751  18.057  11.671
  182ETHO    O1 1464  12.810  18.251  11.664
  182ETHO    C1 1465  12.803  18.363  11.576
  182ETHO   H11 1466  12.799  18.322  11.473
  182ETHO   H13 1467  12.709  18.423  11.577
  182ETHO    C2 1468  12.921  18.460  11.588
  182ETHO   H21 1469  12.926  18.499  11.484
  182ETHO   H23 1470  13.018  18.413  11.614
  183ETHO    O1 1471  12.885  18.556  11.687
  183ETHO    C1 1472  12.974  18.666  11.668
  183ETHO   H11 1473  12.963  18.713  11.569
  183ETHO   H13 1474  13.081  18.638  11.675
  183ETHO    C2 1475  12.945  18.776  11.770
  183ETHO   H21 1476  13.029  18.848  11.758
  183ETHO   H23 1477  12.943  18.727  11.869
  184ETHO    O1 1478  12.821  18.845  11.737
  184ETHO    C1 1479  12.729  18.874  11.846
  184ETHO   H11 1480  12.660  18.789  11.865
  184ETHO   H13 1481  12.780  18.884  11.945
  184ETHO    C2 1482  12.646  19.003  11.819
  184ETHO   H21 1483  12.556  19.007  11.884
  184ETHO   H23 1484  12.599  18.996  11.719
  185ETHO    O1 1485  12.728  19.114  11.832
  185ETHO    C1 1486  12.658  19.230  11.814
  185ETHO   H11 1487  12.730  19.312  11.793
  185ETHO   H13 1488  12.590  19.217  11.727
  185ETHO    C2 1489  12.570  19.272  11.936
  185ETHO   H21 1490  12.545  19.184  12.000
  185ETHO   H23 1491  12.474  19.321  11.910
  186ETHO    O1 1492  12.651  19.353  12.017
  186ETHO    C1 1493  12.581  19.389  12.139
  186ETHO   H11 1494  12.522  19.304  12.178
  186ETHO   H13 1495  12.663  19.410  12.211
  186ETHO    C2 1496  12.505  19.524  12.130
  186ETHO   H21 1497  12.461  19.536  12.231
  186ETHO   H23 1498  12.420  19.523  12.058
  187ETHO    O1 1499  12.596  19.622  12.096
  187ETHO    C1 1500  12.539  19.751  12.068
  187ETHO   H11 1501  12.518  19.752  11.958
  187ETHO   H13 1502  12.452  19.754  12.136
  187ETHO    C2 1503  12.641  19.868  12.097
  187ETHO   H21 1504  12.704  19.825  12.178
  187ETHO   H23 1505  12.598  19.963  12.137
  188ETHO    O1 1506  12.738  19.887  12.005
  188ETHO    C1 1507  12.680  19.945  11.892
  188ETHO   H11 1508  12.625  20.034  11.929
  188ETHO   H13 1509  12.598  19.886  11.844
  188ETHO    C2 1510  12.793  19.985  11.792
  188ETHO   H21 1511  12.853  20.067  11.837
  188ETHO   H23 1512  12.755  20.016  11.693
  189ETHO    O1 1513  12.886  19.882  11.766
  189ETHO    C1 1514  12.988  19.918  11.667
  189ETHO   H11 1515  12.951  19.873  11.573
  189ETHO   H13 1516  12.995  20.029  11.663
  189ETHO    C2 1517  13.117  19.848  11.705
  189ETHO   H21 1518  13.186  19.840  11.618
  189ETHO   H23 1519  13.091  19.743  11.730
  190ETHO    O1 1520  13.187  19.901  11.816
  190ETHO    C1 1521  13.311  19.829  11.836
  190ETHO   H11 1522  13.369  19.852  11.745
  190ETHO   H13 1523  13.288  19.722  11.852
  190ETHO    C2 1524  13.379  19.891  11.955
  190ETHO   H21 1525  13.307  19.884  12.039
  190ETHO   H23 1526  13.392  19.996  11.922
  191ETHO    O1 1527  13.506  19.833  11.976
  191ETHO    C1 1528  13.505  19.703  12.030
  191ETHO   H11 1529  13.563  19.712  12.125
  191ETHO   H13 1530  13.401  19.672  12.054
  191ETHO    C2 1531  13.572  19.594  11.938
  191ETHO   H21 1532  13.524  19.607  11.839
  191ETHO   H23 1533  13.539  19.499  11.985
  192ETHO    O1 1534  13.714  19.589  11.918
  192ETHO    C1 1535  13.745  19.474  11.843
  192ETHO   H11 1536  13.676  19.392  11.874
  192ETHO   H13 1537  13.849  19.451  11.877
  192ETHO    C2 1538  13.751  19.489  11.690
  192ETHO   H21 1539  13.653  19.535  11.663
  192ETHO   H23 1540  13.761  19.388  11.646
  193ETHO    O1 1541  13.855  19.570  11.651
  193ETHO    C1 1542  13.836  19.632  11.525
  193ETHO   H11 1543  13.847  19.552  11.449
  193ETHO   H13 1544  13.734  19.676  11.526
  193ETHO    C2 1545  13.934  19.737  11.498
  193ETHO   H21 1546  13.958  19.743  11.390
  193ETHO   H23 1547  14.024  19.703  11.553
  194ETHO    O1 1548  13.880  19.862  11.534
  194ETHO    C1 1549  13.975  19.963  11.541
  194ETHO   H11 1550  13.977  20.020  11.446
  194ETHO   H13 1551  14.076  19.920  11.557
  194ETHO    C2 1552  13.962  20.072  11.647
  194ETHO   H21 1553  13.940  20.014  11.738
  194ETHO   H23 1554  13.867  20.127  11.629
  195ETHO    O1 1555  14.068  20.156  11.658
  195ETHO    C1 1556  14.036  20.262  11.750
  195ETHO   H11 1557  14.084  20.355  11.711
  195ETHO   H13 1558  13.930  20.294  11.755
  195ETHO    C2 1559  14.059  20.233  11.901
  195ETHO   H21 1560  14.053  20.328  11.958
  195ETHO   H23 1561  14.163  20.198  11.914
  196ETHO    O1 1562  13.969  20.140  11.966
  196ETHO    C1 1563  13.958  20.152  12.107
  196ETHO   H11 1564  14.058  20.143  12.156
  196ETHO   H13 1565  13.922  20.255  12.127
  196ETHO    C2 1566  13.866  20.044  12.156
  196ETHO   H21 1567  13.775  20.050  12.093
  196ETHO   H23 1568  13.841  20.069  12.262
  197ETHO    O1 1569  13.924  19.917  12.145
  197ETHO    C1 1570  13.828  19.820  12.202
  197ETHO   H11 1571  13.825  19.822  12.313
  197ETHO   H13 1572  13.727  19.840  12.158
  197ETHO    C2 1573  13.874  19.680  12.165
  197ETHO   H21 1574  13.910  19.678  12.060
  197ETHO   H23 1575  13.788  19.609  12.169
  198ETHO    O1 1576  13.980  19.634  12.249
  198ETHO    C1 1577  14.009  19.497  12.225
  198ETHO   H11 1578  13.945  19.426  12.281
  198ETHO   H13 1579  14.004  19.465  12.118
  198ETHO    C2 1580  14.153  19.465  12.249
  198ETHO   H21 1581  14.228  19.536  12.209
  198ETHO   H23 1582  14.161  19.361  12.210
  199ETHO    O1 1583  14.169  19.459  12.392
  199ETHO    C1 1584  14.295  19.416  12.436
  199ETHO   H11 1585  14.341  19.491  12.504
  199ETHO   H13 1586  14.356  19.397  12.346
  199ETHO    C2 1587  14.284  19.279  12.514
  199ETHO   H21 1588  14.212  19.294  12.598
  199ETHO   H23 1589  14.387  19.273  12.554
  200ETHO    O1 1590  14.259  19.170  12.429
  200ETHO    C1 1591  14.382  19.134  12.359
  200ETHO   H11 1592  14.353  19.065  12.277
  200ETHO   H13 1593  14.424  19.216  12.298
  200ETHO    C2 1594  14.487  19.057  12.433
  200ETHO   H21 1595  14.531  19.120  12.513
  200ETHO   H23 1596  14.558  19.026  12.354
  201ETHO    O1 1597  14.432  18.942  12.488
  201ETHO    C1 1598  14.520  18.894  12.596
  201ETHO   H11 1599  14.550  18.971  12.669
  201ETHO   H13 1600  14.621  18.875  12.553
  201ETHO    C2 1601  14.467  18.764  12.679
  201ETHO   H21 1602  14.545  18.739  12.754
  201ETHO   H23 1603  14.439  18.690  12.601
  202ETHO    O1 1604  14.344  18.814  12.737
  202ETHO    C1 1605  14.269  18.709  12.788
  202ETHO   H11 1606  14.276  18.628  12.712
  202ETHO   H13 1607  14.308  18.678  12.887
  202ETHO    C2 1608  14.119  18.757  12.806
  202ETHO   H21 1609  14.067  18.660  12.817
  202ETHO   H23 1610  14.083  18.816  12.719
  203ETHO    O1 1611  14.100  18.834  12.927
  203ETHO    C1 1612  13.963  18.858  12.942
  203ETHO   H11 1613  13.913  18.760  12.953
  203ETHO   H13 1614  13.921  18.906  12.851
  203ETHO    C2 1615  13.938  18.942  13.066
  203ETHO   H21 1616  13.828  18.952  13.079
  203ETHO   H23 1617  13.982  19.043  13.048
  204ETHO    O1 1618  13.980  18.883  13.185
  204ETHO    C1 1619  13.973  18.967  13.295
  204ETHO   H11 1620  14.052  19.044  13.285
  204ETHO   H13 1621  13.877  19.023  13.292
  204ETHO    C2 1622  14.005  18.898  13.428
  204ETHO   H21 1623  13.991  18.965  13.515
  204ETHO   H23 1624  14.111  18.863  13.423
  205ETHO    O1 1625  13.913  18.803  13.456
  205ETHO    C1 1626  13.933  18.732  13.572
  205ETHO   H11 1627  13.942  18.805  13.655
  205ETHO   H13 1628  14.023  18.672  13.549
  205ETHO    C2 1629  13.830  18.626  13.618
  205ETHO   H21 1630  13.732  18.672  13.642
  205ETHO   H23 1631  13.866  18.575  13.710
  206ETHO    O1 1632  13.795  18.533  13.516
  206ETHO    C1 1633  13.693  18.450  13.565
  206ETHO   H11 1634  13.734  18.391  13.650
  206ETHO   H13 1635  13.608  18.511  13.602
  206ETHO    C2 1636  13.646  18.362  13.446
  206ETHO   H21 1637  13.732  18.300  13.412
  206ETHO   H23 1638  13.568  18.291  13.482
  207ETHO    O1 1639  13.616  18.434  13.322
  207ETHO    C1 1640  13.493  18.503  13.340
  207ETHO   H11 1641  13.493  18.576  13.424
  207ETHO   H13 1642  13.423  18.422  13.370
  207ETHO    C2 1643  13.449  18.569  13.220
  207ETHO   H21 1644  13.338  18.577  13.219
  207ETHO   H23 1645  13.472  18.512  13.128
  208ETHO    O1 1646  13.518  18.687  13.204
  208ETHO    C1 1647  13.480  18.746  13.077
  208ETHO   H11 1648  13.562  18.734  13.003
  208ETHO   H13 1649  13.384  18.704  13.041
  208ETHO    C2 1650  13.439  18.897  13.091
  208ETHO   H21 1651  13.424  18.931  13.195
  208ETHO   H23 1652  13.348  18.929  13.035
  209ETHO    O1 1653  13.556  18.967  13.048
  209ETHO    C1 1654  13.529  19.102  13.013
  209ETHO   H11 1655  13.498  19.169  13.096
  209ETHO   H13 1656  13.452  19.123  12.935
  209ETHO    C2 1657  13.661  19.165  12.962
  209ETHO   H21 1658  13.738  19.165  13.042
  209ETHO   H23 1659  13.635  19.271  12.938
  210ETHO    O1 1660  13.700  19.099  12.845
  210ETHO    C1 1661  13.802  19.173  12.784
  210ETHO   H11 1662  13.854  19.233  12.861
  210ETHO   H13 1663  13.879  19.118  12.726
  210ETHO    C2 1664  13.758  19.285  12.681
  210ETHO   H21 1665  13.849  19.346  12.663
  210ETHO   H23 1666  13.688  19.357  12.728
  211ETHO    O1 1667  13.707  19.239  12.554
  211ETHO    C1 1668  13.688  19.356  12.478
  211ETHO   H11 1669  13.617  19.418  12.537
  211ETHO   H13 1670  13.780  19.417  12.465
  211ETHO    C2 1671  13.630  19.311  12.340
  211ETHO   H21 1672  13.609  19.408  12.289
  211ETHO   H23 1673  13.534  19.256  12.335
  212ETHO    O1 1674  13.722  19.232  12.267
  212ETHO    C1 1675  13.697  19.214  12.128
  212ETHO   H11 1676  13.610  19.145  12.120
  212ETHO   H13 1677  13.660  19.311  12.089
  212ETHO    C2 1678  13.814  19.151  12.057
  212ETHO   H21 1679  13.773  19.107  11.964
  212ETHO   H23 1680  13.870  19.066  12.102
  213ETHO    O1 1681  13.917  19.243  12.025
  213ETHO    C1 1682  14.004  19.198  11.920
  213ETHO   H11 1683  14.033  19.091  11.918
  213ETHO   H13 1684  13.960  19.209  11.819
  213ETHO    C2 1685  14.127  19.298  11.910
  213ETHO   H21 1686  14.101  19.405  11.926
  213ETHO   H23 1687  14.164  19.308  11.806
  214ETHO    O1 1688  14.221  19.260  12.008
  214ETHO    C1 1689  14.351  19.268  11.965
  214ETHO   H11 1690  14.353  19.229  11.862
  214ETHO   H13 1691  14.415  19.205  12.030
  214ETHO    C2 1692  14.396  19.413  11.979
  214ETHO   H21 1693  14.319  19.484  11.941
  214ETHO   H23 1694  14.481  19.417  11.907
  215ETHO    O1 1695  14.446  19.467  12.099
  215ETHO    C1 1696  14.511  19.595  12.080
  215ETHO   H11 1697  14.609  19.591  12.028
  215ETHO   H13 1698  14.444  19.669  12.031
  215ETHO    C2 1699  14.553  19.644  12.220
  215ETHO   H21 1700  14.461  19.658  12.281
  215ETHO   H23 1701  14.604  19.741  12.203
  216ETHO    O1 1702  14.648  19.557  12.281
  216ETHO    C1 1703  14.666  19.574  12.417
  216ETHO   H11 1704  14.699  19.482  12.469
  216ETHO   H13 1705  14.568  19.586  12.468
  216ETHO    C2 1706  14.756  19.691  12.456
  216ETHO   H21 1707  14.737  19.721  12.562
  216ETHO   H23 1708  14.716  19.781  12.404
  217ETHO    O1 1709  14.891  19.674  12.423
  217ETHO    C1 1710  14.973  19.750  12.517
  217ETHO   H11 1711  14.937  19.730  12.620
  217ETHO   H13 1712  15.076  19.710  12.501
  217ETHO    C2 1713  15.002  19.908  12.493
  217ETHO   H21 1714  15.012  19.920  12.382
  217ETHO   H23 1715  15.086  19.947  12.553
  218ETHO    O1 1716  14.886  19.981  12.519
  218ETHO    C1 1717  14.878  20.012  12.659
  218ETHO   H11 1718  14.930  19.939  12.724
  218ETHO   H13 1719  14.771  20.011  12.690
  218ETHO    C2 1720  14.947  20.143  12.705
  218ETHO   H21 1721  14.908  20.166  12.807
  218ETHO   H23 1722  14.911  20.227  12.642
  219ETHO    O1 1723  15.089  20.147  12.711
  219ETHO    C1 1724  15.129  20.268  12.770
  219ETHO   H11 1725  15.078  20.287  12.866
  219ETHO   H13 1726  15.237  20.259  12.793
  219ETHO    C2 1727  15.116  20.399  12.690
  219ETHO   H21 1728  15.169  20.376  12.595
  219ETHO   H23 1729  15.170  20.475  12.750
  220ETHO    O1 1730  14.983  20.447  12.671
  220ETHO    C1 1731  14.965  20.578  12.625
  220ETHO   H11 1732  14.872  20.591  12.565
  220ETHO   H13 1733  15.057  20.602  12.566
  220ETHO    C2 1734  14.962  20.663  12.751
  220ETHO   H21 1735  15.011  20.759  12.722
  220ETHO   H23 1736  15.015  20.617  12.837
  221ETHO    O1 1737  14.814  20.670  12.770
  221ETHO    C1 1738  14.776  20.792  12.832
  221ETHO   H11 1739  14.819  20.796  12.934
  221ETHO   H13 1740  14.828  20.879  12.787
  221ETHO    C2 1741  14.621  20.793  12.865
  221ETHO   H21 1742  14.567  20.767  12.772
  221ETHO   H23 1743  14.597  20.897  12.894
  222ETHO    O1 1744  14.594  20.693  12.957
  222ETHO    C1 1745  14.458  20.665  12.967
  222ETHO   H11 1746  14.421  20.658  12.863
  222ETHO   H13 1747  14.446  20.574  13.030
  222ETHO    C2 1748  14.381  20.778  13.031
  222ETHO   H21 1749  14.348  20.851  12.955
  222ETHO   H23 1750  14.449  20.829  13.103
  223ETHO    O1 1751  14.265  20.729  13.090
  223ETHO    C1 1752  14.183  20.836  13.156
  223ETHO   H11 1753  14.254  20.893  13.220
  223ETHO   H13 1754  14.147  20.907  13.079
  223ETHO    C2 1755  14.064  20.787  13.244
  223ETHO   H21 1756  14.030  20.870  13.308
  223ETHO   H23 1757  14.111  20.720  13.320
  224ETHO    O1 1758  13.967  20.720  13.174
  224ETHO    C1 1759  13.877  20.649  13.266
  224ETHO   H11 1760  13.937  20.608  13.350
  224ETHO   H13 1761  13.800  20.720  13.301
  224ETHO    C2 1762  13.787  20.549  13.191
  224ETHO   H21 1763  13.725  20.499  13.269
  224ETHO   H23 1764  13.847  20.471  13.139
  225ETHO    O1 1765  13.692  20.612  13.104
  225ETHO    C1 1766  13.715  20.588  12.965
  225ETHO   H11 1767  13.719  20.477  12.957
  225ETHO   H13 1768  13.817  20.629  12.950
  225ETHO    C2 1769  13.607  20.629  12.859
  225ETHO   H21 1770  13.506  20.588  12.879
  225ETHO   H23 1771  13.636  20.599  12.757
  226ETHO    O1 1772  13.579  20.770  12.843
  226ETHO    C1 1773  13.487  20.799  12.732
  226ETHO   H11 1774  13.527  20.772  12.632
  226ETHO   H13 1775  13.388  20.750  12.735
  226ETHO    C2 1776  13.464  20.954  12.747
  226ETHO   H21 1777  13.409  20.992  12.658
  226ETHO   H23 1778  13.560  21.008  12.753
  227ETHO    O1 1779  13.379  20.975  12.860
  227ETHO    C1 1780  13.362  21.119  12.890
  227ETHO   H11 1781  13.312  21.181  12.813
  227ETHO   H13 1782  13.461  21.169  12.900
  227ETHO    C2 1783  13.272  21.143  13.014
  227ETHO   H21 1784  13.280  21.248  13.048
  227ETHO   H23 1785  13.298  21.077  13.101
  228ETHO    O1 1786  13.136  21.111  12.996
  228ETHO    C1 1787  13.043  21.144  13.101
  228ETHO   H11 1788  13.055  21.245  13.144
  228ETHO   H13 1789  12.946  21.150  13.046
  228ETHO    C2 1790  13.039  21.035  13.210
  228ETHO   H21 1791  13.063  20.935  13.167
  228ETHO   H23 1792  12.937  21.037  13.256
  229ETHO    O1 1793  13.136  21.060  13.313
  229ETHO    C1 1794  13.178  20.943  13.383
  229ETHO   H11 1795  13.219  20.870  13.310
  229ETHO   H13 1796  13.086  20.903  13.429
  229ETHO    C2 1797  13.269  20.963  13.511
  229ETHO   H21 1798  13.361  21.022  13.494
  229ETHO   H23 1799  13.304  20.864  13.549
  230ETHO    O1 1800  13.205  21.035  13.617
  230ETHO    C1 1801  13.268  21.018  13.746
  230ETHO   H11 1802  13.255  20.913  13.779
  230ETHO   H13 1803  13.378  21.035  13.739
  230ETHO    C2 1804  13.215  21.130  13.841
  230ETHO   H21 1805  13.116  21.095  13.878
  230ETHO   H23 1806  13.198  21.222  13.780
  231ETHO    O1 1807  13.304  21.156  13.950
  231ETHO    C1 1808  13.386  21.268  13.927
  231ETHO   H11 1809  13.321  21.348  13.886
  231ETHO   H13 1810  13.446  21.239  13.839
  231ETHO    C2 1811  13.457  21.315  14.046
  231ETHO   H21 1812  13.558  21.269  14.056
  231ETHO   H23 1813  13.390  21.305  14.135
  232ETHO    O1 1814  13.462  21.459  14.021
  232ETHO    C1 1815  13.488  21.524  14.145
  232ETHO   H11 1816  13.454  21.630  14.143
  232ETHO   H13 1817  13.433  21.472  14.227
  232ETHO    C2 1818  13.639  21.532  14.168
  232ETHO   H21 1819  13.691  21.433  14.166
  232ETHO   H23 1820  13.648  21.588  14.263
  233ETHO    O1 1821  13.701  21.607  14.065
  233ETHO    C1 1822  13.840  21.580  14.066
  233ETHO   H11 1823  13.878  21.562  14.169
  233ETHO   H13 1824  13.873  21.498  13.999
  233ETHO    C2 1825  13.914  21.705  14.024
  233ETHO   H21 1826  14.020  21.703  14.056
  233ETHO   H23 1827  13.877  21.777  14.101
  234ETHO    O1 1828  13.909  21.742  13.886
  234ETHO    C1 1829  13.966  21.872  13.874
  234ETHO   H11 1830  13.896  21.938  13.929
  234ETHO   H13 1831  14.063  21.882  13.929
  234ETHO    C2 1832  13.985  21.937  13.727
  234ETHO   H21 1833  14.031  21.860  13.662
  234ETHO   H23 1834  14.058  22.019  13.745
  235ETHO    O1 1835  13.870  21.991  13.665
  235ETHO    C1 1836  13.899  22.042  13.533
  235ETHO   H11 1837  13.975  22.120  13.556
  235ETHO   H13 1838  13.951  21.961  13.477
  235ETHO    C2 1839  13.781  22.083  13.448
  235ETHO   H21 1840  13.719  21.990  13.448
  235ETHO   H23 1841  13.808  22.102  13.341
  236ETHO    O1 1842  13.706  22.196  13.486
  236ETHO    C1 1843  13.787  22.317  13.467
  236ETHO   H11 1844  13.807  22.327  13.358
  236ETHO   H13 1845  13.886  22.306  13.515
  236ETHO    C2 1846  13.718  22.448  13.521
  236ETHO   H21 1847  13.806  22.515  13.530
  236ETHO   H23 1848  13.676  22.455  13.623
  237ETHO    O1 1849  13.628  22.500  13.428
  237ETHO    C1 1850  13.593  22.634  13.467
  237ETHO   H11 1851  13.535  22.640  13.562
  237ETHO   H13 1852  13.690  22.689  13.472
  237ETHO    C2 1853  13.518  22.702  13.350
  237ETHO   H21 1854  13.480  22.802  13.379
  237ETHO   H23 1855  13.429  22.641  13.323
  238ETHO    O1 1856  13.603  22.721  13.237
  238ETHO    C1 1857  13.529  22.774  13.121
  238ETHO   H11 1858  13.445  22.839  13.154
  238ETHO   H13 1859  13.490  22.686  13.066
  238ETHO    C2 1860  13.625  22.868  13.047
  238ETHO   H21 1861  13.586  22.881  12.944
  238ETHO   H23 1862  13.715  22.803  13.043
  239ETHO    O1 1863  13.652  22.989  13.111
  239ETHO    C1 1864  13.671  23.088  13.018
  239ETHO   H11 1865  13.754  23.069  12.948
  239ETHO   H13 1866  13.591  23.114  12.946
  239ETHO    C2 1867  13.715  23.218  13.102
  239ETHO   H21 1868  13.700  23.310  13.041
  239ETHO   H23 1869  13.645  23.224  13.187
  240ETHO    O1 1870  13.848  23.220  13.142
  240ETHO    C1 1871  13.882  23.346  13.204
  240ETHO   H11 1872  13.855  23.336  13.312
  240ETHO   H13 1873  13.842  23.442  13.168
  240ETHO    C2 1874  14.036  23.362  13.176
  240ETHO   H21 1875  14.080  23.261  13.189
  240ETHO   H23 1876  14.076  23.435  13.249
  241ETHO    O1 1877  14.073  23.397  13.037
  241ETHO    C1 1878  14.210  23.437  13.027
  241ETHO   H11 1879  14.209  23.530  13.088
  241ETHO   H13 1880  14.275  23.364  13.080
  241ETHO    C2 1881  14.252  23.460  12.883
  241ETHO   H21 1882  14.355  23.499  12.893
  241ETHO   H23 1883  14.190  23.535  12.829
  242ETHO    O1 1884  14.258  23.335  12.810
  242ETHO    C1 1885  14.245  23.369  12.666
  242ETHO   H11 1886  14.309  23.455  12.636
  242ETHO   H13 1887  14.138  23.395  12.658
  242ETHO    C2 1888  14.281  23.242  12.584
  242ETHO   H21 1889  14.276  23.265  12.475
  242ETHO   H23 1890  14.206  23.163  12.606
  243ETHO    O1 1891  14.401  23.183  12.619
  243ETHO    C1 1892  14.511  23.270  12.578
  243ETHO   H11 1893  14.489  23.322  12.483
  243ETHO   H13 1894  14.511  23.356  12.648
  243ETHO    C2 1895  14.629  23.175  12.568
  243ETHO   H21 1896  14.653  23.120  12.662
  243ETHO   H23 1897  14.718  23.234  12.538
  244ETHO    O1 1898  14.626  23.079  12.457
  244ETHO    C1 1899  14.744  22.990  12.455
  244ETHO   H11 1900  14.800  22.994  12.552
  244ETHO   H13 1901  14.819  23.033  12.385
  244ETHO    C2 1902  14.707  22.843  12.418
  244ETHO   H21 1903  14.790  22.769  12.419
  244ETHO   H23 1904  14.660  22.847  12.317
  245ETHO    O1 1905  14.606  22.796  12.509
  245ETHO    C1 1906  14.665  22.742  12.626
  245ETHO   H11 1907  14.737  22.664  12.594
  245ETHO   H13 1908  14.723  22.823  12.675
  245ETHO    C2 1909  14.569  22.697  12.734
  245ETHO   H21 1910  14.503  22.781  12.764
  245ETHO   H23 1911  14.619  22.671  12.830
  246ETHO    O1 1912  14.491  22.583  12.697
  246ETHO    C1 1913  14.379  22.568  12.788
  246ETHO   H11 1914  14.326  22.663  12.810
  246ETHO   H13 1915  14.421  22.532  12.885
  246ETHO    C2 1916  14.282  22.472  12.726
  246ETHO   H21 1917  14.204  22.452  12.802
  246ETHO   H23 1918  14.338  22.379  12.706
  247ETHO    O1 1919  14.207  22.520  12.611
  247ETHO    C1 1920  14.090  22.601  12.648
  247ETHO   H11 1921  14.034  22.555  12.732
  247ETHO   H13 1922  14.118  22.699  12.692
  247ETHO    C2 1923  13.992  22.621  12.524
  247ETHO   H21 1924  13.913  22.693  12.554
  247ETHO   H23 1925  14.059  22.667  12.448
  248ETHO    O1 1926  13.939  22.489  12.489
  248ETHO    C1 1927  13.825  22.504  12.396
  248ETHO   H11 1928  13.735  22.550  12.443
  248ETHO   H13 1929  13.858  22.563  12.308
  248ETHO    C2 1930  13.790  22.362  12.353
  248ETHO   H21 1931  13.888  22.317  12.326
  248ETHO   H23 1932  13.718  22.371  12.270
  249ETHO    O1 1933  13.738  22.285  12.461
  249ETHO    C1 1934  13.696  22.153  12.415
  249ETHO   H11 1935  13.620  22.147  12.335
  249ETHO   H13 1936  13.788  22.099  12.385
  249ETHO    C2 1937  13.649  22.072  12.539
  249ETHO   H21 1938  13.626  21.968  12.508
  249ETHO   H23 1939  13.553  22.126  12.558
  250ETHO    O1 1940  13.739  22.066  12.651
  250ETHO    C1 1941  13.676  22.012  12.769
  250ETHO   H11 1942  13.566  22.009  12.752
  250ETHO   H13 1943  13.730  21.917  12.787
  250ETHO    C2 1944  13.717  22.095  12.888
  250ETHO   H21 1945  13.820  22.133  12.870
  250ETHO   H23 1946  13.735  22.032  12.978
  251ETHO    O1 1947  13.637  22.216  12.912
  251ETHO    C1 1948  13.671  22.277  13.035
  251ETHO   H11 1949  13.782  22.271  13.041
  251ETHO   H13 1950  13.644  22.221  13.127
  251ETHO    C2 1951  13.594  22.415  13.043
  251ETHO   H21 1952  13.633  22.484  12.966
  251ETHO   H23 1953  13.624  22.464  13.139
  252ETHO    O1 1954  13.454  22.404  13.055
  252ETHO    C1 1955  13.390  22.383  12.935
  252ETHO   H11 1956  13.433  22.432  12.845
  252ETHO   H13 1957  13.405  22.274  12.921
  252ETHO    C2 1958  13.251  22.431  12.968
  252ETHO   H21 1959  13.220  22.394  13.068
  252ETHO   H23 1960  13.188  22.398  12.882
  253ETHO    O1 1961  13.253  22.575  12.957
  253ETHO    C1 1962  13.126  22.632  12.950
  253ETHO   H11 1963  13.071  22.581  13.033
  253ETHO   H13 1964  13.073  22.598  12.858
  253ETHO    C2 1965  13.144  22.776  12.986
  253ETHO   H21 1966  13.231  22.790  13.053
  253ETHO   H23 1967  13.054  22.821  13.033
  254ETHO    O1 1968  13.166  22.845  12.864
  254ETHO    C1 1969  13.230  22.971  12.875
  254ETHO   H11 1970  13.179  23.026  12.957
  254ETHO   H13 1971  13.335  22.952  12.904
  254ETHO    C2 1972  13.242  23.041  12.738
  254ETHO   H21 1973  13.287  23.142  12.748
  254ETHO   H23 1974  13.141  23.047  12.691
  255ETHO    O1 1975  13.313  22.954  12.651
  255ETHO    C1 1976  13.340  23.013  12.528
  255ETHO   H11 1977  13.392  23.110  12.545
  255ETHO   H13 1978  13.236  23.031  12.493
  255ETHO    C2 1979  13.410  22.903  12.440
  255ETHO   H21 1980  13.473  22.833  12.498
  255ETHO   H23 1981  13.473  22.956  12.365
  256ETHO    O1 1982  13.313  22.823  12.368
  256ETHO    C1 1983  13.375  22.740  12.272
  256ETHO   H11 1984  13.401  22.799  12.182
  256ETHO   H13 1985  13.475  22.715  12.314
  256ETHO    C2 1986  13.294  22.617  12.249
  256ETHO   H21 1987  13.359  22.564  12.177
  256ETHO   H23 1988  13.190  22.632  12.212
  257ETHO    O1 1989  13.269  22.539  12.366
  257ETHO    C1 1990  13.386  22.486  12.425
  257ETHO   H11 1991  13.457  22.561  12.466
  257ETHO   H13 1992  13.436  22.422  12.349
  257ETHO    C2 1993  13.336  22.393  12.537
  257ETHO   H21 1994  13.279  22.450  12.613
  257ETHO   H23 1995  13.427  22.350  12.585
  258ETHO    O1 1996  13.254  22.287  12.494
  258ETHO    C1 1997  13.199  22.214  12.606
  258ETHO   H11 1998  13.280  22.185  12.676
  258ETHO   H13 1999  13.142  22.285  12.670
  258ETHO    C2 2000  13.099  22.099  12.576
  258ETHO   H21 2001  13.027  22.123  12.495
  258ETHO   H23 2002  13.037  22.081  12.666
  259ETHO    O1 2003  13.150  21.971  12.544
  259ETHO    C1 2004  13.225  21.969  12.418
  259ETHO   H11 2005  13.163  21.997  12.330
  259ETHO   H13 2006  13.310  22.041  12.426
  259ETHO    C2 2007  13.303  21.839  12.392
  259ETHO   H21 2008  13.363  21.862  12.301
  259ETHO   H23 2009  13.233  21.754  12.375
  260ETHO    O1 2010  13.379  21.816  12.505
  260ETHO    C1 2011  13.439  21.681  12.511
  260ETHO   H11 2012  13.452  21.650  12.406
  260ETHO   H13 2013  13.534  21.705  12.565
  260ETHO    C2 2014  13.338  21.581  12.569
  260ETHO   H21 2015  13.375  21.479  12.546
  260ETHO   H23 2016  13.242  21.587  12.513
  261ETHO    O1 2017  13.314  21.582  12.705
  261ETHO    C1 2018  13.223  21.488  12.752
  261ETHO   H11 2019  13.120  21.510  12.715
  261ETHO   H13 2020  13.242  21.383  12.720
  261ETHO    C2 2021  13.226  21.492  12.903
  261ETHO   H21 2022  13.329  21.508  12.942
  261ETHO   H23 2023  13.192  21.401  12.957
  262ETHO    O1 2024  13.144  21.596  12.940
  262ETHO    C1 2025  13.199  21.658  13.060
  262ETHO   H11 2026  13.297  21.709  13.051
  262ETHO   H13 2027  13.200  21.581  13.140
  262ETHO    C2 2028  13.086  21.757  13.104
  262ETHO   H21 2029  13.058  21.818  13.015
  262ETHO   H23 2030  13.135  21.800  13.194
  263ETHO    O1 2031  12.976  21.679  13.147
  263ETHO    C1 2032  12.914  21.745  13.254
  263ETHO   H11 2033  12.893  21.847  13.217
  263ETHO   H13 2034  12.980  21.748  13.343
  263ETHO    C2 2035  12.780  21.688  13.287
  263ETHO   H21 2036  12.734  21.656  13.191
  263ETHO   H23 2037  12.702  21.754  13.331
  264ETHO    O1 2038  12.795  21.592  13.388
  264ETHO    C1 2039  12.666  21.551  13.429
  264ETHO   H11 2040  12.621  21.506  13.338
  264ETHO   H13 2041  12.603  21.635  13.464
  264ETHO    C2 2042  12.688  21.439  13.524
  264ETHO   H21 2043  12.754  21.366  13.472
  264ETHO   H23 2044  12.593  21.389  13.553
  265ETHO    O1 2045  12.744  21.487  13.648
  265ETHO    C1 2046  12.883  21.451  13.667
  265ETHO   H11 2047  12.884  21.340  13.682
  265ETHO   H13 2048  12.939  21.476  13.575
  265ETHO    C2 2049  12.936  21.528  13.783
  265ETHO   H21 2050  12.921  21.637  13.764
  265ETHO   H23 2051  13.042  21.500  13.800
  265ETHO    OZ 2052  12.864  21.498  13.905
  265ETHO   HZ1 2053  12.897  21.556  13.975
  266ETHO    O1 2054   9.636  21.510  11.103
  266ETHO   HO1 2055   9.550  21.549  11.119
  266ETHO    C1 2056   9.727  21.615  11.109
  266ETHO   H11 2057   9.715  21.668  11.206
  266ETHO   H13 2058   9.699  21.693  11.036
  266ETHO    C2 2059   9.868  21.570  11.085
  266ETHO   H21 2060   9.933  21.657  11.065
  266ETHO   H23 2061   9.871  21.506  10.994
  267ETHO    O1 2062   9.928  21.493  11.192
  267ETHO    C1 2063  10.068  21.474  11.159
  267ETHO   H11 2064  10.087  21.459  11.050
  267ETHO   H13 2065  10.133  21.559  11.186
  267ETHO    C2 2066  10.113  21.345  11.229
  267ETHO   H21 2067  10.210  21.309  11.187
  267ETHO   H23 2068  10.032  21.270  11.222
  268ETHO    O1 2069  10.139  21.378  11.362
  268ETHO    C1 2070  10.173  21.263  11.426
  268ETHO   H11 2071  10.260  21.293  11.488
  268ETHO   H13 2072  10.198  21.172  11.368
  268ETHO    C2 2073  10.060  21.228  11.521
  268ETHO   H21 2074  10.089  21.127  11.558
  268ETHO   H23 2075   9.958  21.226  11.478
  269ETHO    O1 2076  10.080  21.310  11.634
  269ETHO    C1 2077   9.952  21.318  11.710
  269ETHO   H11 2078   9.871  21.347  11.639
  269ETHO   H13 2079   9.912  21.220  11.744
  269ETHO    C2 2080   9.947  21.428  11.821
  269ETHO   H21 2081   9.838  21.432  11.839
  269ETHO   H23 2082   9.992  21.520  11.776
  270ETHO    O1 2083  10.011  21.381  11.934
  270ETHO    C1 2084  10.023  21.490  12.021
  270ETHO   H11 2085  10.072  21.570  11.961
  270ETHO   H13 2086   9.929  21.525  12.067
  270ETHO    C2 2087  10.120  21.462  12.136
  270ETHO   H21 2088  10.094  21.362  12.177
  270ETHO   H23 2089  10.105  21.530  12.222
  271ETHO    O1 2090  10.244  21.458  12.079
  271ETHO    C1 2091  10.348  21.461  12.175
  271ETHO   H11 2092  10.337  21.547  12.245
  271ETHO   H13 2093  10.361  21.365  12.229
  271ETHO    C2 2094  10.481  21.469  12.096
  271ETHO   H21 2095  10.470  21.400  12.010
  271ETHO   H23 2096  10.553  21.424  12.168
  272ETHO    O1 2097  10.530  21.602  12.066
  272ETHO    C1 2098  10.461  21.658  11.951
  272ETHO   H11 2099  10.443  21.576  11.878
  272ETHO   H13 2100  10.363  21.703  11.979
  272ETHO    C2 2101  10.551  21.767  11.894
  272ETHO   H21 2102  10.503  21.803  11.801
  272ETHO   H23 2103  10.654  21.732  11.875
  273ETHO    O1 2104  10.547  21.874  11.984
  273ETHO    C1 2105  10.616  21.992  11.937
  273ETHO   H11 2106  10.618  22.061  12.024
  273ETHO   H13 2107  10.555  22.056  11.869
  273ETHO    C2 2108  10.762  21.977  11.898
  273ETHO   H21 2109  10.807  21.901  11.966
  273ETHO   H23 2110  10.814  22.074  11.903
  274ETHO    O1 2111  10.789  21.925  11.764
  274ETHO    C1 2112  10.763  22.024  11.664
  274ETHO   H11 2113  10.660  22.061  11.683
  274ETHO   H13 2114  10.841  22.102  11.679
  274ETHO    C2 2115  10.774  21.969  11.520
  274ETHO   H21 2116  10.867  21.914  11.493
  274ETHO   H23 2117  10.769  22.062  11.458
  275ETHO    O1 2118  10.660  21.883  11.479
  275ETHO    C1 2119  10.669  21.749  11.525
  275ETHO   H11 2120  10.683  21.752  11.635
  275ETHO   H13 2121  10.758  21.697  11.482
  275ETHO    C2 2122  10.554  21.651  11.492
  275ETHO   H21 2123  10.457  21.704  11.499
  275ETHO   H23 2124  10.573  21.570  11.566
  276ETHO    O1 2125  10.571  21.608  11.361
  276ETHO    C1 2126  10.459  21.529  11.325
  276ETHO   H11 2127  10.445  21.444  11.395
  276ETHO   H13 2128  10.367  21.589  11.313
  276ETHO    C2 2129  10.492  21.482  11.183
  276ETHO   H21 2130  10.402  21.437  11.136
  276ETHO   H23 2131  10.526  21.568  11.122
  277ETHO    O1 2132  10.596  21.383  11.190
  277ETHO    C1 2133  10.662  21.343  11.074
  277ETHO   H11 2134  10.725  21.429  11.044
  277ETHO   H13 2135  10.587  21.325  10.994
  277ETHO    C2 2136  10.761  21.225  11.086
  277ETHO   H21 2137  10.826  21.244  11.174
  277ETHO   H23 2138  10.821  21.220  10.993
  278ETHO    O1 2139  10.696  21.098  11.106
  278ETHO    C1 2140  10.789  21.000  11.155
  278ETHO   H11 2141  10.850  20.955  11.073
  278ETHO   H13 2142  10.860  21.052  11.222
  278ETHO    C2 2143  10.714  20.878  11.209
  278ETHO   H21 2144  10.778  20.793  11.242
  278ETHO   H23 2145  10.628  20.857  11.141
  279ETHO    O1 2146  10.652  20.924  11.332
  279ETHO    C1 2147  10.595  20.818  11.411
  279ETHO   H11 2148  10.680  20.764  11.459
  279ETHO   H13 2149  10.550  20.742  11.344
  279ETHO    C2 2150  10.502  20.880  11.508
  279ETHO   H21 2151  10.443  20.798  11.554
  279ETHO   H23 2152  10.435  20.949  11.453
  280ETHO    O1 2153  10.555  20.945  11.621
  280ETHO    C1 2154  10.469  21.050  11.662
  280ETHO   H11 2155  10.503  21.096  11.757
  280ETHO   H13 2156  10.457  21.124  11.580
  280ETHO    C2 2157  10.325  21.005  11.713
  280ETHO   H21 2158  10.262  21.097  11.708
  280ETHO   H23 2159  10.285  20.931  11.641
  281ETHO    O1 2160  10.315  20.949  11.845
  281ETHO    C1 2161  10.181  20.931  11.883
  281ETHO   H11 2162  10.111  21.012  11.854
  281ETHO   H13 2163  10.139  20.844  11.828
  281ETHO    C2 2164  10.159  20.900  12.028
  281ETHO   H21 2165  10.061  20.942  12.059
  281ETHO   H23 2166  10.235  20.959  12.084
  282ETHO    O1 2167  10.171  20.763  12.054
  282ETHO    C1 2168  10.155  20.732  12.192
  282ETHO   H11 2169  10.235  20.788  12.245
  282ETHO   H13 2170  10.055  20.772  12.217
  282ETHO    C2 2171  10.156  20.574  12.206
  282ETHO   H21 2172  10.092  20.517  12.135
  282ETHO   H23 2173  10.106  20.557  12.303
  283ETHO    O1 2174  10.292  20.530  12.211
  283ETHO    C1 2175  10.305  20.391  12.190
  283ETHO   H11 2176  10.225  20.340  12.248
  283ETHO   H13 2177  10.267  20.371  12.087
  283ETHO    C2 2178  10.448  20.334  12.181
  283ETHO   H21 2179  10.480  20.324  12.287
  283ETHO   H23 2180  10.522  20.385  12.115
  284ETHO    O1 2181  10.447  20.202  12.138
  284ETHO    C1 2182  10.578  20.155  12.121
  284ETHO   H11 2183  10.642  20.206  12.197
  284ETHO   H13 2184  10.611  20.188  12.020
  284ETHO    C2 2185  10.618  20.003  12.138
  284ETHO   H21 2186  10.717  19.989  12.090
  284ETHO   H23 2187  10.541  19.940  12.087
  285ETHO    O1 2188  10.634  19.969  12.271
  285ETHO    C1 2189  10.712  19.848  12.298
  285ETHO   H11 2190  10.664  19.754  12.263
  285ETHO   H13 2191  10.814  19.860  12.255
  285ETHO    C2 2192  10.733  19.816  12.452
  285ETHO   H21 2193  10.751  19.915  12.499
  285ETHO   H23 2194  10.823  19.751  12.445
  286ETHO    O1 2195  10.630  19.743  12.512
  286ETHO    C1 2196  10.657  19.743  12.655
  286ETHO   H11 2197  10.666  19.849  12.689
  286ETHO   H13 2198  10.743  19.678  12.678
  286ETHO    C2 2199  10.522  19.701  12.727
  286ETHO   H21 2200  10.449  19.771  12.682
  286ETHO   H23 2201  10.523  19.724  12.836
  287ETHO    O1 2202  10.496  19.560  12.699
  287ETHO    C1 2203  10.355  19.544  12.740
  287ETHO   H11 2204  10.292  19.602  12.669
  287ETHO   H13 2205  10.315  19.441  12.732
  287ETHO    C2 2206  10.324  19.581  12.890
  287ETHO   H21 2207  10.238  19.517  12.920
  287ETHO   H23 2208  10.413  19.549  12.948
  288ETHO    O1 2209  10.300  19.716  12.909
  288ETHO    C1 2210  10.250  19.741  13.041
  288ETHO   H11 2211  10.332  19.714  13.111
  288ETHO   H13 2212  10.173  19.670  13.078
  288ETHO    C2 2213  10.205  19.891  13.068
  288ETHO   H21 2214  10.243  19.963  12.993
  288ETHO   H23 2215  10.244  19.918  13.169
  289ETHO    O1 2216  10.065  19.901  13.063
  289ETHO    C1 2217  10.021  20.026  13.108
  289ETHO   H11 2218  10.109  20.093  13.121
  289ETHO   H13 2219   9.957  20.071  13.030
  289ETHO    C2 2220   9.945  20.033  13.239
  289ETHO   H21 2221   9.948  20.141  13.269
  289ETHO   H23 2222   9.993  19.972  13.318
  290ETHO    O1 2223   9.810  19.989  13.222
  290ETHO    C1 2224   9.737  19.979  13.346
  290ETHO   H11 2225   9.781  19.905  13.416
  290ETHO   H13 2226   9.641  19.935  13.310
  290ETHO    C2 2227   9.727  20.104  13.445
  290ETHO   H21 2228   9.828  20.140  13.472
  290ETHO   H23 2229   9.676  20.067  13.537
  291ETHO    O1 2230   9.648  20.216  13.396
  291ETHO    C1 2231   9.653  20.324  13.487
  291ETHO   H11 2232   9.593  20.305  13.578
  291ETHO   H13 2233   9.758  20.346  13.516
  291ETHO    C2 2234   9.602  20.451  13.423
  291ETHO   H21 2235   9.620  20.453  13.314
  291ETHO   H23 2236   9.644  20.538  13.479
  292ETHO    O1 2237   9.454  20.455  13.440
  292ETHO    C1 2238   9.386  20.547  13.354
  292ETHO   H11 2239   9.383  20.525  13.245
  292ETHO   H13 2240   9.441  20.643  13.361
  292ETHO    C2 2241   9.246  20.580  13.410
  292ETHO   H21 2242   9.208  20.481  13.441
  292ETHO   H23 2243   9.177  20.621  13.333
  293ETHO    O1 2244   9.238  20.660  13.524
  293ETHO    C1 2245   9.108  20.649  13.585
  293ETHO   H11 2246   9.028  20.690  13.520
  293ETHO   H13 2247   9.089  20.542  13.609
  293ETHO    C2 2248   9.084  20.723  13.710
  293ETHO   H21 2249   9.156  20.684  13.785
  293ETHO   H23 2250   8.980  20.711  13.747
  294ETHO    O1 2251   9.102  20.861  13.694
  294ETHO    C1 2252   9.162  20.927  13.802
  294ETHO   H11 2253   9.262  20.883  13.826
  294ETHO   H13 2254   9.097  20.911  13.890
  294ETHO    C2 2255   9.184  21.078  13.802
  294ETHO   H21 2256   9.254  21.113  13.723
  294ETHO   H23 2257   9.234  21.105  13.898
  295ETHO    O1 2258   9.070  21.161  13.768
  295ETHO    C1 2259   8.981  21.179  13.871
  295ETHO   H11 2260   8.884  21.208  13.826
  295ETHO   H13 2261   8.953  21.080  13.914
  295ETHO    C2 2262   9.023  21.280  13.979
  295ETHO   H21 2263   9.127  21.268  14.015
  295ETHO   H23 2264   8.954  21.269  14.065
  296ETHO    O1 2265   9.000  21.408  13.927
  296ETHO    C1 2266   8.955  21.494  14.032
  296ETHO   H11 2267   8.996  21.468  14.132
  296ETHO   H13 2268   8.999  21.593  14.008
  296ETHO    C2 2269   8.798  21.504  14.032
  296ETHO   H21 2270   8.779  21.577  14.114
  296ETHO   H23 2271   8.757  21.401  14.045
  297ETHO    O1 2272   8.751  21.564  13.910
  297ETHO    C1 2273   8.609  21.570  13.909
  297ETHO   H11 2274   8.565  21.474  13.877
  297ETHO   H13 2275   8.569  21.600  14.008
  297ETHO    C2 2276   8.572  21.668  13.806
  297ETHO   H21 2277   8.632  21.760  13.819
  297ETHO   H23 2278   8.464  21.688  13.827
  298ETHO    O1 2279   8.582  21.612  13.675
  298ETHO    C1 2280   8.558  21.716  13.575
  298ETHO   H11 2281   8.448  21.713  13.559
  298ETHO   H13 2282   8.595  21.814  13.611
  298ETHO    C2 2283   8.637  21.671  13.455
  298ETHO   H21 2284   8.651  21.746  13.375
  298ETHO   H23 2285   8.600  21.577  13.408
  299ETHO    O1 2286   8.772  21.648  13.487
  299ETHO    C1 2287   8.856  21.579  13.397
  299ETHO   H11 2288   8.810  21.490  13.349
  299ETHO   H13 2289   8.944  21.544  13.455
  299ETHO    C2 2290   8.904  21.679  13.295
  299ETHO   H21 2291   8.817  21.710  13.233
  299ETHO   H23 2292   8.969  21.624  13.223
  300ETHO    O1 2293   8.977  21.791  13.335
  300ETHO    C1 2294   9.011  21.870  13.225
  300ETHO   H11 2295   9.086  21.811  13.169
  300ETHO   H13 2296   8.924  21.893  13.160
  300ETHO    C2 2297   9.056  22.000  13.276
  300ETHO   H21 2298   9.099  22.070  13.201
  300ETHO   H23 2299   9.126  21.976  13.359
  301ETHO    O1 2300   8.942  22.064  13.339
  301ETHO    C1 2301   8.980  22.193  13.379
  301ETHO   H11 2302   9.059  22.236  13.314
  301ETHO   H13 2303   9.014  22.172  13.483
  301ETHO    C2 2304   8.860  22.282  13.398
  301ETHO   H21 2305   8.778  22.228  13.451
  301ETHO   H23 2306   8.815  22.309  13.300
  302ETHO    O1 2307   8.898  22.404  13.471
  302ETHO    C1 2308   8.904  22.383  13.613
  302ETHO   H11 2309   8.827  22.452  13.655
  302ETHO   H13 2310   8.860  22.282  13.629
  302ETHO    C2 2311   9.042  22.381  13.687
  302ETHO   H21 2312   9.109  22.306  13.640
  302ETHO   H23 2313   9.019  22.358  13.793
  303ETHO    O1 2314   9.098  22.512  13.674
  303ETHO    C1 2315   9.153  22.534  13.545
  303ETHO   H11 2316   9.075  22.546  13.467
  303ETHO   H13 2317   9.217  22.447  13.517
  303ETHO    C2 2318   9.231  22.669  13.553
  303ETHO   H21 2319   9.285  22.675  13.456
  303ETHO   H23 2320   9.315  22.669  13.626
  304ETHO    O1 2321   9.149  22.787  13.580
  304ETHO    C1 2322   9.223  22.898  13.628
  304ETHO   H11 2323   9.266  22.886  13.730
  304ETHO   H13 2324   9.295  22.919  13.547
  304ETHO    C2 2325   9.139  23.028  13.645
  304ETHO   H21 2326   9.097  23.067  13.549
  304ETHO   H23 2327   9.218  23.103  13.663
  305ETHO    O1 2328   9.037  23.029  13.745
  305ETHO    C1 2329   8.988  23.166  13.762
  305ETHO   H11 2330   8.944  23.194  13.664
  305ETHO   H13 2331   9.074  23.236  13.779
  305ETHO    C2 2332   8.895  23.168  13.885
  305ETHO   H21 2333   8.857  23.272  13.890
  305ETHO   H23 2334   8.956  23.149  13.976
  306ETHO    O1 2335   8.781  23.084  13.872
  306ETHO    C1 2336   8.698  23.110  13.984
  306ETHO   H11 2337   8.742  23.153  14.076
  306ETHO   H13 2338   8.617  23.179  13.952
  306ETHO    C2 2339   8.629  22.976  14.012
  306ETHO   H21 2340   8.567  22.948  13.924
  306ETHO   H23 2341   8.554  22.989  14.092
  307ETHO    O1 2342   8.723  22.880  14.055
  307ETHO    C1 2343   8.657  22.757  14.086
  307ETHO   H11 2344   8.567  22.777  14.147
  307ETHO   H13 2345   8.627  22.697  13.997
  307ETHO    C2 2346   8.750  22.659  14.166
  307ETHO   H21 2347   8.854  22.658  14.127
  307ETHO   H23 2348   8.728  22.551  14.154
  308ETHO    O1 2349   8.757  22.688  14.301
  308ETHO    C1 2350   8.844  22.600  14.373
  308ETHO   H11 2351   8.809  22.496  14.354
  308ETHO   H13 2352   8.947  22.601  14.331
  308ETHO    C2 2353   8.836  22.632  14.524
  308ETHO   H21 2354   8.890  22.549  14.575
  308ETHO   H23 2355   8.731  22.633  14.560
  309ETHO    O1 2356   8.904  22.754  14.558
  309ETHO    C1 2357   8.914  22.780  14.693
  309ETHO   H11 2358   8.812  22.795  14.735
  309ETHO   H13 2359   8.955  22.691  14.745
  309ETHO    C2 2360   8.976  22.911  14.727
  309ETHO   H21 2361   9.082  22.919  14.695
  309ETHO   H23 2362   8.980  22.918  14.837
  310ETHO    O1 2363   8.894  23.015  14.676
  310ETHO    C1 2364   8.959  23.132  14.639
  310ETHO   H11 2365   9.046  23.100  14.578
  310ETHO   H13 2366   9.002  23.173  14.732
  310ETHO    C2 2367   8.856  23.227  14.575
  310ETHO   H21 2368   8.890  23.332  14.566
  310ETHO   H23 2369   8.771  23.235  14.646
  311ETHO    O1 2370   8.807  23.176  14.446
  311ETHO    C1 2371   8.667  23.164  14.449
  311ETHO   H11 2372   8.615  23.247  14.503
  311ETHO   H13 2373   8.627  23.168  14.345
  311ETHO    C2 2374   8.633  23.035  14.535
  311ETHO   H21 2375   8.591  23.071  14.631
  311ETHO   H23 2376   8.715  22.960  14.544
  312ETHO    O1 2377   8.522  22.977  14.467
  312ETHO    C1 2378   8.471  22.859  14.528
  312ETHO   H11 2379   8.459  22.859  14.639
  312ETHO   H13 2380   8.538  22.775  14.502
  312ETHO    C2 2381   8.330  22.828  14.471
  312ETHO   H21 2382   8.267  22.917  14.450
  312ETHO   H23 2383   8.270  22.766  14.542
  313ETHO    O1 2384   8.346  22.761  14.349
  313ETHO    C1 2385   8.235  22.710  14.278
  313ETHO   H11 2386   8.156  22.663  14.342
  313ETHO   H13 2387   8.184  22.796  14.231
  313ETHO    C2 2388   8.278  22.619  14.167
  313ETHO   H21 2389   8.186  22.575  14.121
  313ETHO   H23 2390   8.338  22.676  14.092
  314ETHO    O1 2391   8.343  22.512  14.230
  314ETHO    C1 2392   8.392  22.424  14.132
  314ETHO   H11 2393   8.461  22.480  14.065
  314ETHO   H13 2394   8.314  22.373  14.071
  314ETHO    C2 2395   8.460  22.311  14.204
  314ETHO   H21 2396   8.494  22.232  14.134
  314ETHO   H23 2397   8.389  22.271  14.279
  315ETHO    O1 2398   8.578  22.359  14.283
  315ETHO    C1 2399   8.660  22.247  14.333
  315ETHO   H11 2400   8.715  22.294  14.417
  315ETHO   H13 2401   8.592  22.170  14.376
  315ETHO    C2 2402   8.759  22.184  14.236
  315ETHO   H21 2403   8.823  22.263  14.190
  315ETHO   H23 2404   8.708  22.146  14.145
  316ETHO    O1 2405   8.857  22.104  14.300
  316ETHO    C1 2406   8.813  21.969  14.312
  316ETHO   H11 2407   8.758  21.936  14.221
  316ETHO   H13 2408   8.740  21.979  14.395
  316ETHO    C2 2409   8.923  21.876  14.371
  316ETHO   H21 2410   8.873  21.787  14.413
  316ETHO   H23 2411   8.967  21.942  14.449
  317ETHO    O1 2412   9.025  21.834  14.278
  317ETHO    C1 2413   9.098  21.729  14.332
  317ETHO   H11 2414   9.123  21.769  14.432
  317ETHO   H13 2415   9.036  21.637  14.338
  317ETHO    C2 2416   9.221  21.711  14.250
  317ETHO   H21 2417   9.317  21.704  14.306
  317ETHO   H23 2418   9.242  21.789  14.173
  318ETHO    O1 2419   9.211  21.594  14.173
  318ETHO    C1 2420   9.314  21.573  14.076
  318ETHO   H11 2421   9.274  21.493  14.009
  318ETHO   H13 2422   9.341  21.660  14.013
  318ETHO    C2 2423   9.451  21.523  14.140
  318ETHO   H21 2424   9.496  21.598  14.208
  318ETHO   H23 2425   9.521  21.520  14.054
  319ETHO    O1 2426   9.449  21.386  14.197
  319ETHO    C1 2427   9.416  21.394  14.340
  319ETHO   H11 2428   9.486  21.463  14.393
  319ETHO   H13 2429   9.313  21.435  14.349
  319ETHO    C2 2430   9.418  21.256  14.413
  319ETHO   H21 2431   9.385  21.272  14.518
  319ETHO   H23 2432   9.523  21.218  14.422
  320ETHO    O1 2433   9.334  21.160  14.350
  320ETHO    C1 2434   9.399  21.086  14.241
  320ETHO   H11 2435   9.457  21.148  14.169
  320ETHO   H13 2436   9.479  21.022  14.283
  320ETHO    C2 2437   9.291  21.011  14.162
  320ETHO   H21 2438   9.205  21.075  14.133
  320ETHO   H23 2439   9.325  20.956  14.072
  321ETHO    O1 2440   9.236  20.904  14.244
  321ETHO    C1 2441   9.112  20.863  14.192
  321ETHO   H11 2442   9.069  20.935  14.119
  321ETHO   H13 2443   9.034  20.859  14.272
  321ETHO    C2 2444   9.110  20.718  14.118
  321ETHO   H21 2445   9.193  20.724  14.044
  321ETHO   H23 2446   9.011  20.704  14.068
  322ETHO    O1 2447   9.131  20.605  14.198
  322ETHO    C1 2448   9.135  20.488  14.122
  322ETHO   H11 2449   9.050  20.495  14.051
  322ETHO   H13 2450   9.226  20.483  14.059
  322ETHO    C2 2451   9.098  20.356  14.195
  322ETHO   H21 2452   9.091  20.279  14.115
  322ETHO   H23 2453   9.000  20.366  14.246
  323ETHO    O1 2454   9.199  20.313  14.293
  323ETHO    C1 2455   9.166  20.203  14.372
  323ETHO   H11 2456   9.258  20.146  14.398
  323ETHO   H13 2457   9.109  20.128  14.313
  323ETHO    C2 2458   9.102  20.265  14.501
  323ETHO   H21 2459   9.050  20.184  14.557
  323ETHO   H23 2460   9.021  20.337  14.479
  324ETHO    O1 2461   9.205  20.333  14.576
  324ETHO    C1 2462   9.166  20.340  14.713
  324ETHO   H11 2463   9.073  20.398  14.727
  324ETHO   H13 2464   9.143  20.235  14.741
  324ETHO    C2 2465   9.268  20.396  14.812
  324ETHO   H21 2466   9.210  20.437  14.897
  324ETHO   H23 2467   9.318  20.477  14.756
  325ETHO    O1 2468   9.369  20.307  14.859
  325ETHO    C1 2469   9.463  20.380  14.930
  325ETHO   H11 2470   9.408  20.417  15.020
  325ETHO   H13 2471   9.484  20.468  14.866
  325ETHO    C2 2472   9.585  20.301  14.967
  325ETHO   H21 2473   9.551  20.215  15.028
  325ETHO   H23 2474   9.658  20.353  15.033
  326ETHO    O1 2475   9.638  20.254  14.845
  326ETHO    C1 2476   9.734  20.350  14.793
  326ETHO   H11 2477   9.694  20.451  14.814
  326ETHO   H13 2478   9.833  20.340  14.841
  326ETHO    C2 2479   9.751  20.341  14.638
  326ETHO   H21 2480   9.802  20.435  14.607
  326ETHO   H23 2481   9.652  20.360  14.593
  327ETHO    O1 2482   9.821  20.224  14.601
  327ETHO    C1 2483   9.857  20.231  14.466
  327ETHO   H11 2484   9.926  20.318  14.462
  327ETHO   H13 2485   9.768  20.249  14.403
  327ETHO    C2 2486   9.911  20.098  14.412
  327ETHO   H21 2487   9.933  20.112  14.304
  327ETHO   H23 2488   9.832  20.021  14.425
  328ETHO    O1 2489  10.030  20.057  14.470
  328ETHO    C1 2490  10.084  19.938  14.424
  328ETHO   H11 2491  10.171  19.916  14.490
  328ETHO   H13 2492  10.011  19.857  14.443
  328ETHO    C2 2493  10.122  19.934  14.275
  328ETHO   H21 2494  10.205  19.866  14.247
  328ETHO   H23 2495  10.156  20.037  14.251
  329ETHO    O1 2496  10.002  19.888  14.201
  329ETHO    C1 2497  10.003  19.928  14.068
  329ETHO   H11 2498  10.057  19.849  14.012
  329ETHO   H13 2499  10.045  20.030  14.059
  329ETHO    C2 2500   9.863  19.934  14.006
  329ETHO   H21 2501   9.807  19.838  14.009
  329ETHO   H23 2502   9.882  19.961  13.900
  330ETHO    O1 2503   9.795  20.037  14.076
  330ETHO    C1 2504   9.654  20.018  14.092
  330ETHO   H11 2505   9.601  20.022  13.994
  330ETHO   H13 2506   9.622  19.930  14.151
  330ETHO    C2 2507   9.583  20.139  14.166
  330ETHO   H21 2508   9.634  20.152  14.264
  330ETHO   H23 2509   9.477  20.110  14.182
  331ETHO    O1 2510   9.601  20.260  14.093
  331ETHO    C1 2511   9.557  20.371  14.175
  331ETHO   H11 2512   9.641  20.383  14.247
  331ETHO   H13 2513   9.462  20.342  14.223
  331ETHO    C2 2514   9.535  20.509  14.099
  331ETHO   H21 2515   9.638  20.544  14.076
  331ETHO   H23 2516   9.502  20.572  14.184
  332ETHO    O1 2517   9.449  20.512  13.984
  332ETHO    C1 2518   9.435  20.640  13.916
  332ETHO   H11 2519   9.338  20.637  13.864
  332ETHO   H13 2520   9.442  20.723  13.989
  332ETHO    C2 2521   9.543  20.657  13.801
  332ETHO   H21 2522   9.509  20.743  13.740
  332ETHO   H23 2523   9.540  20.570  13.731
  333ETHO    O1 2524   9.676  20.674  13.853
  333ETHO    C1 2525   9.765  20.668  13.744
  333ETHO   H11 2526   9.768  20.570  13.691
  333ETHO   H13 2527   9.734  20.737  13.662
  333ETHO    C2 2528   9.917  20.715  13.780
  333ETHO   H21 2529   9.900  20.808  13.839
  333ETHO   H23 2530   9.977  20.738  13.690
  334ETHO    O1 2531   9.985  20.619  13.858
  334ETHO    C1 2532  10.111  20.675  13.899
  334ETHO   H11 2533  10.201  20.627  13.855
  334ETHO   H13 2534  10.125  20.776  13.854
  334ETHO    C2 2535  10.149  20.682  14.057
  334ETHO   H21 2536  10.256  20.711  14.061
  334ETHO   H23 2537  10.136  20.583  14.106
  335ETHO    O1 2538  10.081  20.776  14.125
  335ETHO    C1 2539  10.103  20.776  14.266
  335ETHO   H11 2540  10.086  20.676  14.312
  335ETHO   H13 2541  10.209  20.806  14.278
  335ETHO    C2 2542  10.009  20.880  14.333
  335ETHO   H21 2543  10.001  20.965  14.262
  335ETHO   H23 2544  10.068  20.921  14.417
  336ETHO    O1 2545   9.887  20.835  14.382
  336ETHO    C1 2546   9.812  20.945  14.437
  336ETHO   H11 2547   9.804  21.015  14.352
  336ETHO   H13 2548   9.870  20.986  14.523
  336ETHO    C2 2549   9.670  20.912  14.488
  336ETHO   H21 2550   9.612  20.862  14.407
  336ETHO   H23 2551   9.614  21.007  14.497
  337ETHO    O1 2552   9.650  20.828  14.599
  337ETHO    C1 2553   9.581  20.896  14.708
  337ETHO   H11 2554   9.627  20.995  14.725
  337ETHO   H13 2555   9.482  20.938  14.683
  337ETHO    C2 2556   9.566  20.811  14.837
  337ETHO   H21 2557   9.560  20.866  14.933
  337ETHO   H23 2558   9.664  20.759  14.846
  338ETHO    O1 2559   9.458  20.717  14.840
  338ETHO    C1 2560   9.345  20.780  14.878
  338ETHO   H11 2561   9.264  20.743  14.811
  338ETHO   H13 2562   9.349  20.890  14.862
  338ETHO    C2 2563   9.301  20.744  15.023
  338ETHO   H21 2564   9.293  20.633  15.028
  338ETHO   H23 2565   9.202  20.790  15.044
  339ETHO    O1 2566   9.384  20.800  15.129
  339ETHO    C1 2567   9.348  20.737  15.254
  339ETHO   H11 2568   9.245  20.760  15.288
  339ETHO   H13 2569   9.366  20.628  15.240
  339ETHO    C2 2570   9.436  20.762  15.374
  339ETHO   H21 2571   9.536  20.719  15.356
  339ETHO   H23 2572   9.389  20.706  15.458
  340ETHO    O1 2573   9.459  20.898  15.422
  340ETHO    C1 2574   9.553  20.905  15.531
  340ETHO   H11 2575   9.649  20.865  15.492
  340ETHO   H13 2576   9.509  20.849  15.616
  340ETHO    C2 2577   9.569  21.046  15.581
  340ETHO   H21 2578   9.620  21.055  15.679
  340ETHO   H23 2579   9.463  21.079  15.588
  341ETHO    O1 2580   9.645  21.135  15.497
  341ETHO    C1 2581   9.566  21.219  15.415
  341ETHO   H11 2582   9.508  21.154  15.346
  341ETHO   H13 2583   9.501  21.282  15.481
  341ETHO    C2 2584   9.649  21.316  15.331
  341ETHO   H21 2585   9.721  21.365  15.400
  341ETHO   H23 2586   9.584  21.394  15.285
  342ETHO    O1 2587   9.723  21.255  15.229
  342ETHO    C1 2588   9.643  21.213  15.113
  342ETHO   H11 2589   9.582  21.291  15.062
  342ETHO   H13 2590   9.568  21.140  15.149
  342ETHO    C2 2591   9.734  21.162  15.007
  342ETHO   H21 2592   9.815  21.238  14.996
  342ETHO   H23 2593   9.672  21.166  14.915
  343ETHO    O1 2594   9.789  21.038  15.036
  343ETHO    C1 2595   9.878  21.003  14.930
  343ETHO   H11 2596   9.812  20.996  14.841
  343ETHO   H13 2597   9.946  21.089  14.913
  343ETHO    C2 2598   9.950  20.879  14.962
  343ETHO   H21 2599   9.871  20.808  14.994
  343ETHO   H23 2600  10.018  20.902  15.047
  344ETHO    O1 2601  10.025  20.849  14.841
  344ETHO    C1 2602   9.972  20.737  14.769
  344ETHO   H11 2603   9.936  20.659  14.839
  344ETHO   H13 2604   9.888  20.772  14.705
  344ETHO    C2 2605  10.091  20.683  14.681
  344ETHO   H21 2606  10.158  20.765  14.647
  344ETHO   H23 2607  10.045  20.634  14.593
  345ETHO    O1 2608  10.166  20.582  14.745
  345ETHO    C1 2609  10.253  20.510  14.658
  345ETHO   H11 2610  10.206  20.479  14.562
  345ETHO   H13 2611  10.332  20.580  14.624
  345ETHO    C2 2612  10.318  20.397  14.746
  345ETHO   H21 2613  10.384  20.326  14.692
  345ETHO   H23 2614  10.239  20.322  14.772
  346ETHO    O1 2615  10.402  20.438  14.854
  346ETHO    C1 2616  10.437  20.333  14.940
  346ETHO   H11 2617  10.344  20.308  14.996
  346ETHO   H13 2618  10.471  20.244  14.884
  346ETHO    C2 2619  10.545  20.369  15.045
  346ETHO   H21 2620  10.512  20.453  15.110
  346ETHO   H23 2621  10.567  20.284  15.113
  347ETHO    O1 2622  10.663  20.411  14.975
  347ETHO    C1 2623  10.751  20.469  15.071
  347ETHO   H11 2624  10.749  20.405  15.162
  347ETHO   H13 2625  10.716  20.572  15.091
  347ETHO    C2 2626  10.898  20.470  15.021
  347ETHO   H21 2627  10.972  20.518  15.088
  347ETHO   H23 2628  10.899  20.516  14.920
  348ETHO    O1 2629  10.952  20.343  15.008
  348ETHO    C1 2630  11.079  20.343  14.949
  348ETHO   H11 2631  11.070  20.392  14.850
  348ETHO   H13 2632  11.157  20.401  15.004
  348ETHO    C2 2633  11.123  20.197  14.909
  348ETHO   H21 2634  11.119  20.130  14.997
  348ETHO   H23 2635  11.230  20.202  14.877
  349ETHO    O1 2636  11.036  20.132  14.812
  349ETHO    C1 2637  11.058  20.174  14.675
  349ETHO   H11 2638  11.168  20.186  14.666
  349ETHO   H13 2639  11.011  20.272  14.651
  349ETHO    C2 2640  10.996  20.082  14.564
  349ETHO   H21 2641  10.981  20.154  14.480
  349ETHO   H23 2642  10.898  20.037  14.591
  350ETHO    O1 2643  11.068  19.973  14.511
  350ETHO    C1 2644  11.105  19.885  14.612
  350ETHO   H11 2645  11.200  19.924  14.654
  350ETHO   H13 2646  11.029  19.872  14.692
  350ETHO    C2 2647  11.147  19.738  14.569
  350ETHO   H21 2648  11.226  19.699  14.637
  350ETHO   H23 2649  11.193  19.744  14.469
  351ETHO    O1 2650  11.035  19.652  14.567
  351ETHO    C1 2651  11.070  19.517  14.507
  351ETHO   H11 2652  11.103  19.451  14.590
  351ETHO   H13 2653  11.162  19.513  14.444
  351ETHO    C2 2654  10.943  19.458  14.430
  351ETHO   H21 2655  10.862  19.458  14.506
  351ETHO   H23 2656  10.961  19.350  14.414
  352ETHO    O1 2657  10.897  19.531  14.314
  352ETHO    C1 2658  10.776  19.470  14.259
  352ETHO   H11 2659  10.797  19.364  14.231
  352ETHO   H13 2660  10.696  19.480  14.336
  352ETHO    C2 2661  10.752  19.536  14.122
  352ETHO   H21 2662  10.769  19.644  14.142
  352ETHO   H23 2663  10.649  19.512  14.088
  353ETHO    O1 2664  10.837  19.472  14.023
  353ETHO    C1 2665  10.839  19.555  13.907
  353ETHO   H11 2666  10.920  19.531  13.834
  353ETHO   H13 2667  10.873  19.652  13.949
  353ETHO    C2 2668  10.712  19.579  13.811
  353ETHO   H21 2669  10.743  19.644  13.726
  353ETHO   H23 2670  10.629  19.609  13.879
  354ETHO    O1 2671  10.688  19.453  13.756
  354ETHO    C1 2672  10.590  19.455  13.657
  354ETHO   H11 2673  10.499  19.508  13.693
  354ETHO   H13 2674  10.618  19.508  13.564
  354ETHO    C2 2675  10.546  19.312  13.625
  354ETHO   H21 2676  10.450  19.297  13.571
  354ETHO   H23 2677  10.545  19.255  13.721
  355ETHO    O1 2678  10.640  19.264  13.531
  355ETHO    C1 2679  10.642  19.130  13.518
  355ETHO   H11 2680  10.633  19.075  13.614
  355ETHO   H13 2681  10.559  19.095  13.451
  355ETHO    C2 2682  10.769  19.081  13.455
  355ETHO   H21 2683  10.784  19.143  13.364
  355ETHO   H23 2684  10.750  18.975  13.425
  356ETHO    O1 2685  10.877  19.079  13.541
  356ETHO    C1 2686  11.000  19.033  13.491
  356ETHO   H11 2687  11.005  18.923  13.476
  356ETHO   H13 2688  11.034  19.074  13.393
  356ETHO    C2 2689  11.103  19.055  13.605
  356ETHO   H21 2690  11.094  19.163  13.632
  356ETHO   H23 2691  11.206  19.039  13.568
  357ETHO    O1 2692  11.098  18.963  13.705
  357ETHO    C1 2693  11.177  18.999  13.822
  357ETHO   H11 2694  11.282  18.995  13.785
  357ETHO   H13 2695  11.146  19.104  13.842
  357ETHO    C2 2696  11.158  18.904  13.937
  357ETHO   H21 2697  11.052  18.908  13.969
  357ETHO   H23 2698  11.214  18.958  14.016
  358ETHO    O1 2699  11.223  18.779  13.933
  358ETHO    C1 2700  11.199  18.694  14.050
  358ETHO   H11 2701  11.098  18.648  14.040
  358ETHO   H13 2702  11.200  18.754  14.144
  358ETHO    C2 2703  11.310  18.593  14.076
  358ETHO   H21 2704  11.284  18.553  14.176
  358ETHO   H23 2705  11.407  18.647  14.079
  359ETHO    O1 2706  11.310  18.483  13.990
  359ETHO    C1 2707  11.392  18.372  14.029
  359ETHO   H11 2708  11.493  18.409  14.057
  359ETHO   H13 2709  11.349  18.317  14.115
  359ETHO    C2 2710  11.429  18.291  13.905
  359ETHO   H21 2711  11.331  18.251  13.870
  359ETHO   H23 2712  11.490  18.198  13.918
  360ETHO    O1 2713  11.485  18.364  13.796
  360ETHO    C1 2714  11.566  18.271  13.725
  360ETHO   H11 2715  11.503  18.185  13.696
  360ETHO   H13 2716  11.649  18.235  13.789
  360ETHO    C2 2717  11.629  18.329  13.591
  360ETHO   H21 2718  11.711  18.262  13.558
  360ETHO   H23 2719  11.663  18.435  13.598
  361ETHO    O1 2720  11.529  18.323  13.486
  361ETHO    C1 2721  11.584  18.351  13.360
  361ETHO   H11 2722  11.497  18.388  13.302
  361ETHO   H13 2723  11.650  18.441  13.365
  361ETHO    C2 2724  11.651  18.237  13.293
  361ETHO   H21 2725  11.752  18.234  13.339
  361ETHO   H23 2726  11.656  18.250  13.183
  362ETHO    O1 2727  11.590  18.116  13.331
  362ETHO    C1 2728  11.649  17.999  13.265
  362ETHO   H11 2729  11.660  18.014  13.156
  362ETHO   H13 2730  11.582  17.913  13.286
  362ETHO    C2 2731  11.784  17.955  13.329
  362ETHO   H21 2732  11.781  17.970  13.439
  362ETHO   H23 2733  11.864  18.021  13.288
  363ETHO    O1 2734  11.818  17.821  13.304
  363ETHO    C1 2735  11.934  17.780  13.370
  363ETHO   H11 2736  12.014  17.830  13.311
  363ETHO   H13 2737  11.935  17.817  13.475
  363ETHO    C2 2738  11.959  17.625  13.374
  363ETHO   H21 2739  11.882  17.581  13.440
  363ETHO   H23 2740  12.051  17.611  13.435
  364ETHO    O1 2741  11.978  17.544  13.256
  364ETHO    C1 2742  11.854  17.519  13.186
  364ETHO   H11 2743  11.790  17.610  13.181
  364ETHO   H13 2744  11.801  17.444  13.248
  364ETHO    C2 2745  11.882  17.463  13.045
  364ETHO   H21 2746  11.954  17.536  13.001
  364ETHO   H23 2747  11.784  17.467  12.994
  365ETHO    O1 2748  11.930  17.327  13.048
  365ETHO    C1 2749  12.043  17.315  12.963
  365ETHO   H11 2750  12.021  17.346  12.858
  365ETHO   H13 2751  12.119  17.382  13.009
  365ETHO    C2 2752  12.079  17.168  12.964
  365ETHO   H21 2753  11.993  17.112  12.921
  365ETHO   H23 2754  12.092  17.116  13.061
  366PROX    O1 2755  12.202  17.155  12.894
  366PROX    C1 2756  12.218  17.013  12.854
  366PROX   H11 2757  12.231  16.952  12.946
  366PROX   H13 2758  12.127  16.970  12.806
  366PROX    C2 2759  12.346  16.998  12.774
  366PROX   H21 2760  12.423  17.055  12.831
  366PROX    C3 2761  12.330  17.056  12.634
  366PROX   H31 2762  12.431  17.075  12.592
  366PROX   H32 2763  12.269  16.987  12.571
  366PROX   H33 2764  12.276  17.153  12.638
  367PROX    O1 2765  12.385  16.861  12.748
  367PROX    C1 2766  12.522  16.835  12.737
  367PROX   H11 2767  12.538  16.760  12.657
  367PROX   H13 2768  12.586  16.922  12.709
  367PROX    C2 2769  12.581  16.773  12.862
  367PROX   H21 2770  12.501  16.715  12.912
  367PROX    C3 2771  12.635  16.880  12.958
  367PROX   H31 2772  12.710  16.938  12.901
  367PROX   H32 2773  12.559  16.951  12.994
  367PROX   H33 2774  12.674  16.836  13.053
  368PROX    O1 2775  12.684  16.686  12.824
  368PROX    C1 2776  12.712  16.590  12.930
  368PROX   H11 2777  12.651  16.597  13.023
  368PROX   H13 2778  12.687  16.487  12.897
  368PROX    C2 2779  12.863  16.611  12.970
  368PROX   H21 2780  12.876  16.712  13.013
  368PROX    C3 2781  12.956  16.604  12.847
  368PROX   H31 2782  12.950  16.503  12.801
  368PROX   H32 2783  12.940  16.683  12.770
  368PROX   H33 2784  13.063  16.611  12.876
  369PROX    O1 2785  12.910  16.518  13.061
  369PROX    C1 2786  12.867  16.547  13.189
  369PROX   H11 2787  12.915  16.639  13.228
  369PROX   H13 2788  12.761  16.580  13.194
  369PROX    C2 2789  12.883  16.427  13.287
  369PROX   H21 2790  12.991  16.405  13.295
  369PROX    C3 2791  12.808  16.299  13.243
  369PROX   H31 2792  12.886  16.245  13.185
  369PROX   H32 2793  12.783  16.237  13.332
  369PROX   H33 2794  12.721  16.329  13.181
  370PROX    O1 2795  12.829  16.468  13.416
  370PROX    C1 2796  12.886  16.394  13.522
  370PROX   H11 2797  12.934  16.305  13.476
  370PROX   H13 2798  12.950  16.454  13.590
  370PROX    C2 2799  12.763  16.346  13.623
  370PROX   H21 2800  12.708  16.272  13.562
  370PROX    C3 2801  12.671  16.466  13.679
  370PROX   H31 2802  12.723  16.518  13.762
  370PROX   H32 2803  12.662  16.537  13.593
  370PROX   H33 2804  12.566  16.436  13.700
  371PROX    O1 2805  12.820  16.281  13.740
  371PROX    C1 2806  12.867  16.148  13.710
  371PROX   H11 2807  12.890  16.135  13.601
  371PROX   H13 2808  12.971  16.145  13.749
  371PROX    C2 2809  12.778  16.031  13.754
  371PROX   H21 2810  12.683  16.024  13.697
  371PROX    C3 2811  12.755  16.025  13.910
  371PROX   H31 2812  12.850  16.034  13.966
  371PROX   H32 2813  12.687  16.109  13.937
  371PROX   H33 2814  12.705  15.927  13.927
  372PROX    O1 2815  12.852  15.908  13.717
  372PROX    C1 2816  12.768  15.806  13.660
  372PROX   H11 2817  12.822  15.710  13.669
  372PROX   H13 2818  12.677  15.804  13.724
  372PROX    C2 2819  12.731  15.829  13.512
  372PROX   H21 2820  12.711  15.727  13.473
  372PROX    C3 2821  12.854  15.878  13.437
  372PROX   H31 2822  12.944  15.826  13.477
  372PROX   H32 2823  12.844  15.862  13.327
  372PROX   H33 2824  12.868  15.986  13.460
  373PROX    O1 2825  12.623  15.920  13.495
  373PROX    C1 2826  12.501  15.852  13.468
  373PROX   H11 2827  12.511  15.763  13.402
  373PROX   H13 2828  12.439  15.827  13.557
  373PROX    C2 2829  12.403  15.955  13.399
  373PROX   H21 2830  12.453  15.994  13.308
  373PROX    C3 2831  12.388  16.076  13.497
  373PROX   H31 2832  12.330  16.063  13.590
  373PROX   H32 2833  12.483  16.124  13.528
  373PROX   H33 2834  12.336  16.160  13.445
  374PROX    O1 2835  12.279  15.899  13.356
  374PROX    C1 2836  12.235  15.797  13.447
  374PROX   H11 2837  12.287  15.700  13.461
  374PROX   H13 2838  12.219  15.843  13.547
  374PROX    C2 2839  12.096  15.742  13.389
  374PROX   H21 2840  12.040  15.832  13.356
  374PROX    C3 2841  12.015  15.686  13.509
  374PROX   H31 2842  11.914  15.663  13.467
  374PROX   H32 2843  12.060  15.595  13.554
  374PROX   H33 2844  11.995  15.756  13.593
  375PROX    O1 2845  12.121  15.649  13.285
  375PROX    C1 2846  12.197  15.699  13.173
  375PROX   H11 2847  12.151  15.795  13.142
  375PROX   H13 2848  12.305  15.718  13.191
  375PROX    C2 2849  12.183  15.607  13.051
  375PROX   H21 2850  12.076  15.577  13.055
  375PROX    C3 2851  12.269  15.482  13.066
  375PROX   H31 2852  12.379  15.498  13.073
  375PROX   H32 2853  12.237  15.445  13.166
  375PROX   H33 2854  12.227  15.414  12.988
  376PROX    O1 2855  12.228  15.678  12.939
  376PROX    C1 2856  12.145  15.642  12.828
  376PROX   H11 2857  12.131  15.532  12.815
  376PROX   H13 2858  12.043  15.680  12.850
  376PROX    C2 2859  12.203  15.699  12.694
  376PROX   H21 2860  12.137  15.669  12.610
  376PROX    C3 2861  12.349  15.660  12.679
  376PROX   H31 2862  12.388  15.694  12.581
  376PROX   H32 2863  12.406  15.714  12.758
  376PROX   H33 2864  12.354  15.550  12.689
  377PROX    O1 2865  12.182  15.841  12.706
  377PROX    C1 2866  12.235  15.924  12.604
  377PROX   H11 2867  12.324  15.974  12.649
  377PROX   H13 2868  12.255  15.867  12.511
  377PROX    C2 2869  12.134  16.033  12.553
  377PROX   H21 2870  12.087  16.066  12.648
  377PROX    C3 2871  12.028  15.965  12.450
  377PROX   H31 2872  12.004  15.865  12.491
  377PROX   H32 2873  11.942  16.035  12.443
  377PROX   H33 2874  12.070  15.943  12.350
  378PROX    O1 2875  12.205  16.145  12.486
  378PROX    C1 2876  12.219  16.256  12.570
  378PROX   H11 2877  12.232  16.344  12.502
  378PROX   H13 2878  12.126  16.276  12.628
  378PROX    C2 2879  12.343  16.258  12.658
  378PROX   H21 2880  12.368  16.358  12.700
  378PROX    C3 2881  12.459  16.223  12.573
  378PROX   H31 2882  12.557  16.215  12.626
  378PROX   H32 2883  12.430  16.122  12.537
  378PROX   H33 2884  12.472  16.287  12.483
  379PROX    O1 2885  12.325  16.170  12.764
  379PROX    C1 2886  12.424  16.194  12.865
  379PROX   H11 2887  12.529  16.163  12.846
  379PROX   H13 2888  12.416  16.300  12.897
  379PROX    C2 2889  12.371  16.114  12.986
  379PROX   H21 2890  12.432  16.136  13.076
  379PROX    C3 2891  12.384  15.965  12.966
  379PROX   H31 2892  12.383  15.907  13.062
  379PROX   H32 2893  12.299  15.929  12.905
  379PROX   H33 2894  12.475  15.933  12.911
  380PROX    O1 2895  12.233  16.153  12.998
  380PROX    C1 2896  12.177  16.119  13.129
  380PROX   H11 2897  12.204  16.014  13.152
  380PROX   H13 2898  12.226  16.178  13.209
  380PROX    C2 2899  12.031  16.143  13.127
  380PROX   H21 2900  12.002  16.231  13.065
  380PROX    C3 2901  11.966  16.157  13.264
  380PROX   H31 2902  11.860  16.189  13.252
  380PROX   H32 2903  11.958  16.056  13.308
  380PROX   H33 2904  12.013  16.222  13.340
  381PROX    O1 2905  11.958  16.039  13.077
  381PROX    C1 2906  11.982  16.015  12.937
  381PROX   H11 2907  12.004  16.112  12.887
  381PROX   H13 2908  12.075  15.955  12.941
  381PROX    C2 2909  11.860  15.945  12.859
  381PROX   H21 2910  11.897  15.948  12.755
  381PROX    C3 2911  11.728  16.029  12.883
  381PROX   H31 2912  11.717  16.045  12.992
  381PROX   H32 2913  11.746  16.136  12.862
  381PROX   H33 2914  11.631  15.977  12.867
  382PROX    O1 2915  11.841  15.802  12.882
  382PROX    C1 2916  11.842  15.769  13.021
  382PROX   H11 2917  11.948  15.760  13.053
  382PROX   H13 2918  11.816  15.861  13.077
  382PROX    C2 2919  11.753  15.653  13.062
  382PROX   H21 2920  11.646  15.677  13.048
  382PROX    C3 2921  11.779  15.618  13.210
  382PROX   H31 2922  11.713  15.535  13.242
  382PROX   H32 2923  11.881  15.578  13.229
  382PROX   H33 2924  11.750  15.706  13.272
  383PROX    O1 2925  11.785  15.533  12.986
  383PROX    C1 2926  11.709  15.507  12.872
  383PROX   H11 2927  11.603  15.499  12.903
  383PROX   H13 2928  11.725  15.591  12.801
  383PROX    C2 2929  11.752  15.380  12.794
  383PROX   H21 2930  11.863  15.378  12.793
  383PROX    C3 2931  11.708  15.371  12.654
  383PROX   H31 2932  11.741  15.460  12.597
  383PROX   H32 2933  11.740  15.271  12.616
  383PROX   H33 2934  11.598  15.369  12.636
  384PROX    O1 2935  11.704  15.266  12.861
  384PROX    C1 2936  11.775  15.245  12.986
  384PROX   H11 2937  11.880  15.281  12.978
  384PROX   H13 2938  11.712  15.302  13.058
  384PROX    C2 2939  11.778  15.097  13.032
  384PROX   H21 2940  11.859  15.050  12.973
  384PROX    C3 2941  11.648  15.018  13.005
  384PROX   H31 2942  11.639  15.009  12.894
  384PROX   H32 2943  11.657  14.914  13.043
  384PROX   H33 2944  11.566  15.069  13.059
  385PROX    O1 2945  11.815  15.091  13.164
  385PROX    C1 2946  11.951  15.067  13.195
  385PROX   H11 2947  11.966  14.957  13.205
  385PROX   H13 2948  12.031  15.103  13.128
  385PROX    C2 2949  11.975  15.136  13.339
  385PROX   H21 2950  11.902  15.102  13.415
  385PROX    C3 2951  11.998  15.287  13.310
  385PROX   H31 2952  12.010  15.347  13.402
  385PROX   H32 2953  12.089  15.294  13.246
  385PROX   H33 2954  11.905  15.316  13.256
  386PROX    O1 2955  12.104  15.095  13.388
  386PROX    C1 2956  12.136  15.131  13.523
  386PROX   H11 2957  12.045  15.178  13.567
  386PROX   H13 2958  12.139  15.044  13.592
  386PROX    C2 2959  12.257  15.227  13.542
  386PROX   H21 2960  12.244  15.321  13.483
  386PROX    C3 2961  12.386  15.171  13.490
  386PROX   H31 2962  12.386  15.181  13.379
  386PROX   H32 2963  12.473  15.229  13.529
  386PROX   H33 2964  12.386  15.062  13.509
  387PROX    O1 2965  12.279  15.268  13.681
  387PROX    C1 2966  12.231  15.395  13.717
  387PROX   H11 2967  12.131  15.421  13.675
  387PROX   H13 2968  12.222  15.383  13.827
  387PROX    C2 2969  12.338  15.501  13.687
  387PROX   H21 2970  12.334  15.511  13.577
  387PROX    C3 2971  12.483  15.448  13.720
  387PROX   H31 2972  12.555  15.531  13.733
  387PROX   H32 2973  12.479  15.383  13.810
  387PROX   H33 2974  12.520  15.393  13.631
  388PROX    O1 2975  12.298  15.624  13.743
  388PROX    C1 2976  12.353  15.654  13.874
  388PROX   H11 2977  12.326  15.573  13.946
  388PROX   H13 2978  12.464  15.648  13.873
  388PROX    C2 2979  12.283  15.789  13.913
  388PROX   H21 2980  12.173  15.778  13.903
  388PROX    C3 2981  12.344  15.901  13.827
  388PROX   H31 2982  12.299  15.893  13.726
  388PROX   H32 2983  12.309  15.994  13.876
  388PROX   H33 2984  12.455  15.905  13.818
  389PROX    O1 2985  12.316  15.819  14.054
  389PROX    C1 2986  12.202  15.794  14.136
  389PROX   H11 2987  12.150  15.703  14.100
  389PROX   H13 2988  12.241  15.778  14.239
  389PROX    C2 2989  12.110  15.917  14.144
  389PROX   H21 2990  12.082  15.934  14.038
  389PROX    C3 2991  12.185  16.037  14.195
  389PROX   H31 2992  12.273  16.087  14.149
  389PROX   H32 2993  12.100  16.109  14.198
  389PROX   H33 2994  12.208  16.023  14.303
  390PROX    O1 2995  12.002  15.886  14.229
  390PROX    C1 2996  11.879  15.955  14.218
  390PROX   H11 2997  11.817  15.904  14.295
  390PROX   H13 2998  11.886  16.062  14.246
  390PROX    C2 2999  11.805  15.935  14.079
  390PROX   H21 3000  11.857  15.996  14.003
  390PROX    C3 3001  11.665  15.999  14.085
  390PROX   H31 3002  11.668  16.106  14.114
  390PROX   H32 3003  11.618  15.991  13.984
  390PROX   H33 3004  11.592  15.949  14.153
  391PROX    O1 3005  11.821  15.809  14.028
  391PROX    C1 3006  11.833  15.802  13.882
  391PROX   H11 3007  11.764  15.869  13.827
  391PROX   H13 3008  11.936  15.825  13.846
  391PROX    C2 3009  11.816  15.652  13.847
  391PROX   H21 3010  11.730  15.603  13.898
  391PROX    C3 3011  11.947  15.579  13.877
  391PROX   H31 3012  11.996  15.610  13.972
  391PROX   H32 3013  11.935  15.469  13.885
  391PROX   H33 3014  12.010  15.613  13.792
  392PROX    O1 3015  11.789  15.659  13.705
  392PROX    C1 3016  11.665  15.602  13.672
  392PROX   H11 3017  11.580  15.636  13.735
  392PROX   H13 3018  11.640  15.635  13.569
  392PROX    C2 3019  11.674  15.442  13.657
  392PROX   H21 3020  11.709  15.407  13.757
  392PROX    C3 3021  11.783  15.400  13.557
  392PROX   H31 3022  11.810  15.294  13.576
  392PROX   H32 3023  11.763  15.420  13.450
  392PROX   H33 3024  11.874  15.458  13.582
  393PROX    O1 3025  11.546  15.395  13.628
  393PROX    C1 3026  11.464  15.379  13.745
  393PROX   H11 3027  11.481  15.283  13.799
  393PROX   H13 3028  11.479  15.465  13.813
  393PROX    C2 3029  11.316  15.370  13.705
  393PROX   H21 3030  11.309  15.455  13.634
  393PROX    C3 3031  11.227  15.376  13.823
  393PROX   H31 3032  11.144  15.441  13.787
  393PROX   H32 3033  11.198  15.275  13.859
  393PROX   H33 3034  11.284  15.417  13.909
  394PROX    O1 3035  11.289  15.245  13.642
  394PROX    C1 3036  11.201  15.247  13.524
  394PROX   H11 3037  11.149  15.343  13.507
  394PROX   H13 3038  11.266  15.229  13.435
  394PROX    C2 3039  11.095  15.137  13.512
  394PROX   H21 3040  11.031  15.147  13.601
  394PROX    C3 3041  11.162  14.994  13.502
  394PROX   H31 3042  11.093  14.910  13.523
  394PROX   H32 3043  11.226  14.987  13.411
  394PROX   H33 3044  11.232  14.999  13.589
  395PROX    O1 3045  11.017  15.156  13.393
  395PROX    C1 3046  10.880  15.118  13.407
  395PROX   H11 3047  10.840  15.075  13.312
  395PROX   H13 3048  10.873  15.035  13.481
  395PROX    C2 3049  10.804  15.246  13.456
  395PROX   H21 3050  10.868  15.305  13.525
  395PROX    C3 3051  10.674  15.224  13.535
  395PROX   H31 3052  10.592  15.188  13.469
  395PROX   H32 3053  10.693  15.144  13.610
  395PROX   H33 3054  10.630  15.318  13.574
  396PROX    O1 3055  10.764  15.327  13.351
  396PROX    C1 3056  10.865  15.407  13.288
  396PROX   H11 3057  10.951  15.406  13.358
  396PROX   H13 3058  10.885  15.353  13.193
  396PROX    C2 3059  10.815  15.549  13.269
  396PROX   H21 3060  10.711  15.542  13.232
  396PROX    C3 3061  10.879  15.622  13.154
  396PROX   H31 3062  10.826  15.720  13.151
  396PROX   H32 3063  10.987  15.640  13.172
  396PROX   H33 3064  10.868  15.561  13.063
  397PROX    O1 3065  10.821  15.618  13.392
  397PROX    C1 3066  10.693  15.634  13.456
  397PROX   H11 3067  10.638  15.705  13.390
  397PROX   H13 3068  10.638  15.540  13.476
  397PROX    C2 3069  10.708  15.682  13.602
  397PROX   H21 3070  10.603  15.681  13.638
  397PROX    C3 3071  10.761  15.827  13.626
  397PROX   H31 3072  10.726  15.865  13.724
  397PROX   H32 3073  10.869  15.809  13.642
  397PROX   H33 3074  10.734  15.896  13.543
  398PROX    O1 3075  10.785  15.588  13.677
  398PROX    C1 3076  10.706  15.549  13.795
  398PROX   H11 3077  10.656  15.631  13.851
  398PROX   H13 3078  10.617  15.485  13.777
  398PROX    C2 3079  10.801  15.487  13.903
  398PROX   H21 3080  10.909  15.505  13.886
  398PROX    C3 3081  10.778  15.329  13.916
  398PROX   H31 3082  10.676  15.298  13.947
  398PROX   H32 3083  10.799  15.274  13.822
  398PROX   H33 3084  10.855  15.292  13.986
  399PROX    O1 3085  10.770  15.527  14.028
  399PROX    C1 3086  10.854  15.636  14.076
  399PROX   H11 3087  10.853  15.720  14.003
  399PROX   H13 3088  10.814  15.681  14.169
  399PROX    C2 3089  11.001  15.600  14.110
  399PROX   H21 3090  11.052  15.523  14.047
  399PROX    C3 3091  11.013  15.523  14.242
  399PROX   H31 3092  10.961  15.584  14.319
  399PROX   H32 3093  10.967  15.422  14.245
  399PROX   H33 3094  11.121  15.522  14.267
  400PROX    O1 3095  11.088  15.711  14.126
  400PROX    C1 3096  11.110  15.783  14.006
  400PROX   H11 3097  11.100  15.711  13.922
  400PROX   H13 3098  11.033  15.862  14.002
  400PROX    C2 3099  11.248  15.843  14.008
  400PROX   H21 3100  11.321  15.763  14.035
  400PROX    C3 3101  11.267  15.960  14.108
  400PROX   H31 3102  11.244  15.912  14.205
  400PROX   H32 3103  11.366  16.010  14.106
  400PROX   H33 3104  11.189  16.039  14.094
  401PROX    O1 3105  11.273  15.904  13.881
  401PROX    C1 3106  11.317  15.820  13.779
  401PROX   H11 3107  11.381  15.743  13.828
  401PROX   H13 3108  11.219  15.781  13.744
  401PROX    C2 3109  11.385  15.894  13.660
  401PROX   H21 3110  11.477  15.941  13.702
  401PROX    C3 3111  11.294  16.004  13.598
  401PROX   H31 3112  11.346  16.055  13.514
  401PROX   H32 3113  11.187  15.976  13.584
  401PROX   H33 3114  11.290  16.087  13.671
  402PROX    O1 3115  11.426  15.800  13.560
  402PROX    C1 3116  11.324  15.718  13.506
  402PROX   H11 3117  11.289  15.640  13.577
  402PROX   H13 3118  11.238  15.772  13.459
  402PROX    C2 3119  11.390  15.654  13.386
  402PROX   H21 3120  11.484  15.608  13.423
  402PROX    C3 3121  11.439  15.761  13.280
  402PROX   H31 3122  11.478  15.712  13.188
  402PROX   H32 3123  11.357  15.832  13.260
  402PROX   H33 3124  11.529  15.816  13.314
  403PROX    O1 3125  11.301  15.555  13.320
  403PROX    C1 3126  11.374  15.445  13.257
  403PROX   H11 3127  11.477  15.478  13.230
  403PROX   H13 3128  11.380  15.355  13.322
  403PROX    C2 3129  11.319  15.406  13.109
  403PROX   H21 3130  11.211  15.386  13.127
  403PROX    C3 3131  11.380  15.282  13.044
  403PROX   H31 3132  11.359  15.269  12.936
  403PROX   H32 3133  11.490  15.292  13.057
  403PROX   H33 3134  11.351  15.187  13.093
  404PROX    O1 3135  11.337  15.516  13.021
  404PROX    C1 3136  11.232  15.611  13.027
  404PROX   H11 3137  11.139  15.552  13.011
  404PROX   H13 3138  11.220  15.652  13.129
  404PROX    C2 3139  11.247  15.723  12.926
  404PROX   H21 3140  11.231  15.663  12.834
  404PROX    C3 3141  11.391  15.798  12.920
  404PROX   H31 3142  11.412  15.825  13.026
  404PROX   H32 3143  11.463  15.718  12.891
  404PROX   H33 3144  11.393  15.874  12.840
  405PROX    O1 3145  11.143  15.820  12.933
  405PROX    C1 3146  11.126  15.888  12.814
  405PROX   H11 3147  11.160  15.991  12.839
  405PROX   H13 3148  11.187  15.848  12.731
  405PROX    C2 3149  10.979  15.889  12.770
  405PROX   H21 3150  10.921  15.926  12.857
  405PROX    C3 3151  10.938  15.743  12.728
  405PROX   H31 3152  10.942  15.670  12.811
  405PROX   H32 3153  10.838  15.733  12.681
  405PROX   H33 3154  11.020  15.721  12.656
  406PROX    O1 3155  10.960  15.977  12.659
  406PROX    C1 3156  10.921  16.103  12.709
  406PROX   H11 3157  10.967  16.129  12.807
  406PROX   H13 3158  10.951  16.181  12.637
  406PROX    C2 3159  10.767  16.125  12.734
  406PROX   H21 3160  10.738  16.025  12.771
  406PROX    C3 3161  10.700  16.162  12.594
  406PROX   H31 3162  10.738  16.263  12.567
  406PROX   H32 3163  10.711  16.089  12.512
  406PROX   H33 3164  10.592  16.169  12.620
  407PROX    O1 3165  10.745  16.228  12.828
  407PROX    C1 3166  10.624  16.207  12.900
  407PROX   H11 3167  10.594  16.304  12.944
  407PROX   H13 3168  10.550  16.180  12.822
  407PROX    C2 3169  10.639  16.102  13.020
  407PROX   H21 3170  10.649  15.999  12.979
  407PROX    C3 3171  10.523  16.098  13.115
  407PROX   H31 3172  10.430  16.079  13.057
  407PROX   H32 3173  10.538  16.017  13.190
  407PROX   H33 3174  10.514  16.197  13.165
  408PROX    O1 3175  10.752  16.140  13.098
  408PROX    C1 3176  10.823  16.027  13.150
  408PROX   H11 3177  10.744  15.956  13.185
  408PROX   H13 3178  10.870  15.978  13.061
  408PROX    C2 3179  10.918  16.064  13.262
  408PROX   H21 3180  10.998  16.132  13.226
  408PROX    C3 3181  10.978  15.938  13.321
  408PROX   H31 3182  11.043  15.969  13.406
  408PROX   H32 3183  10.896  15.877  13.365
  408PROX   H33 3184  11.042  15.880  13.251
  409PROX    O1 3185  10.849  16.124  13.367
  409PROX    C1 3186  10.876  16.262  13.373
  409PROX   H11 3187  10.884  16.300  13.268
  409PROX   H13 3188  10.795  16.313  13.430
  409PROX    C2 3189  11.000  16.289  13.466
  409PROX   H21 3190  11.090  16.241  13.421
  409PROX    C3 3191  10.981  16.220  13.604
  409PROX   H31 3192  10.889  16.255  13.654
  409PROX   H32 3193  10.978  16.109  13.591
  409PROX   H33 3194  11.075  16.244  13.659
  410PROX    O1 3195  11.024  16.426  13.472
  410PROX    C1 3196  11.094  16.473  13.357
  410PROX   H11 3197  11.175  16.399  13.341
  410PROX   H13 3198  11.019  16.470  13.275
  410PROX    C2 3199  11.155  16.615  13.372
  410PROX   H21 3200  11.243  16.610  13.439
  410PROX    C3 3201  11.051  16.712  13.424
  410PROX   H31 3202  11.081  16.818  13.411
  410PROX   H32 3203  10.957  16.700  13.366
  410PROX   H33 3204  11.029  16.686  13.530
  411PROX    O1 3205  11.200  16.657  13.241
  411PROX    C1 3206  11.287  16.769  13.246
  411PROX   H11 3207  11.230  16.861  13.271
  411PROX   H13 3208  11.372  16.763  13.317
  411PROX    C2 3209  11.361  16.797  13.104
  411PROX   H21 3210  11.453  16.855  13.124
  411PROX    C3 3211  11.276  16.884  13.008
  411PROX   H31 3212  11.208  16.955  13.060
  411PROX   H32 3213  11.338  16.939  12.934
  411PROX   H33 3214  11.210  16.824  12.943
  412PROX    O1 3215  11.387  16.674  13.038
  412PROX    C1 3216  11.512  16.621  13.078
  412PROX   H11 3217  11.586  16.704  13.074
  412PROX   H13 3218  11.506  16.591  13.184
  412PROX    C2 3219  11.550  16.517  12.976
  412PROX   H21 3220  11.461  16.456  12.950
  412PROX    C3 3221  11.666  16.430  13.029
  412PROX   H31 3222  11.629  16.369  13.114
  412PROX   H32 3223  11.691  16.361  12.946
  412PROX   H33 3224  11.751  16.498  13.049
  413PROX    O1 3225  11.601  16.579  12.856
  413PROX    C1 3226  11.498  16.597  12.758
  413PROX   H11 3227  11.439  16.504  12.741
  413PROX   H13 3228  11.437  16.684  12.788
  413PROX    C2 3229  11.583  16.626  12.628
  413PROX   H21 3230  11.646  16.537  12.604
  413PROX    C3 3231  11.665  16.754  12.645
  413PROX   H31 3232  11.691  16.797  12.546
  413PROX   H32 3233  11.594  16.822  12.697
  413PROX   H33 3234  11.755  16.730  12.705
  414PROX    O1 3235  11.503  16.661  12.509
  414PROX    C1 3236  11.448  16.552  12.427
  414PROX   H11 3237  11.507  16.458  12.433
  414PROX   H13 3238  11.351  16.538  12.479
  414PROX    C2 3239  11.432  16.602  12.285
  414PROX   H21 3240  11.518  16.656  12.240
  414PROX    C3 3241  11.305  16.699  12.275
  414PROX   H31 3242  11.326  16.785  12.342
  414PROX   H32 3243  11.278  16.734  12.173
  414PROX   H33 3244  11.217  16.643  12.312
  415PROX    O1 3245  11.397  16.498  12.202
  415PROX    C1 3246  11.514  16.427  12.159
  415PROX   H11 3247  11.591  16.497  12.120
  415PROX   H13 3248  11.553  16.378  12.250
  415PROX    C2 3249  11.481  16.317  12.063
  415PROX   H21 3250  11.458  16.365  11.965
  415PROX    C3 3251  11.361  16.237  12.108
  415PROX   H31 3252  11.349  16.148  12.043
  415PROX   H32 3253  11.372  16.212  12.216
  415PROX   H33 3254  11.267  16.293  12.088
  416PROX    O1 3255  11.591  16.226  12.067
  416PROX    C1 3256  11.630  16.173  11.941
  416PROX   H11 3257  11.543  16.148  11.877
  416PROX   H13 3258  11.692  16.248  11.886
  416PROX    C2 3259  11.714  16.045  11.964
  416PROX   H21 3260  11.786  16.064  12.047
  416PROX    C3 3261  11.804  16.011  11.842
  416PROX   H31 3262  11.745  15.998  11.748
  416PROX   H32 3263  11.874  16.097  11.828
  416PROX   H33 3264  11.858  15.915  11.856
  417PROX    O1 3265  11.623  15.933  11.983
  417PROX    C1 3266  11.566  15.927  12.116
  417PROX   H11 3267  11.644  15.946  12.193
  417PROX   H13 3268  11.483  15.999  12.131
  417PROX    C2 3269  11.494  15.797  12.145
  417PROX   H21 3270  11.570  15.719  12.122
  417PROX    C3 3271  11.365  15.774  12.056
  417PROX   H31 3272  11.290  15.849  12.090
  417PROX   H32 3273  11.387  15.777  11.947
  417PROX   H33 3274  11.334  15.669  12.076
  418PROX    O1 3275  11.447  15.792  12.276
  418PROX    C1 3276  11.546  15.750  12.367
  418PROX   H11 3277  11.508  15.660  12.421
  418PROX   H13 3278  11.644  15.721  12.323
  418PROX    C2 3279  11.559  15.852  12.483
  418PROX   H21 3280  11.593  15.948  12.439
  418PROX    C3 3281  11.657  15.805  12.597
  418PROX   H31 3282  11.606  15.718  12.644
  418PROX   H32 3283  11.749  15.764  12.550
  418PROX   H33 3284  11.674  15.889  12.667
  419PROX    O1 3285  11.428  15.874  12.547
  419PROX    C1 3286  11.360  15.992  12.518
  419PROX   H11 3287  11.350  16.010  12.409
  419PROX   H13 3288  11.253  15.987  12.550
  419PROX    C2 3289  11.409  16.120  12.600
  419PROX   H21 3290  11.404  16.090  12.707
  419PROX    C3 3291  11.316  16.244  12.579
  419PROX   H31 3292  11.212  16.210  12.599
  419PROX   H32 3293  11.340  16.319  12.658
  419PROX   H33 3294  11.316  16.286  12.476
  420PROX    O1 3295  11.539  16.156  12.559
  420PROX    C1 3296  11.609  16.260  12.635
  420PROX   H11 3297  11.545  16.350  12.624
  420PROX   H13 3298  11.599  16.234  12.743
  420PROX    C2 3299  11.755  16.275  12.599
  420PROX   H21 3300  11.801  16.178  12.574
  420PROX    C3 3301  11.837  16.353  12.709
  420PROX   H31 3302  11.932  16.393  12.668
  420PROX   H32 3303  11.764  16.431  12.740
  420PROX   H33 3304  11.852  16.293  12.801
  421PROX    O1 3305  11.759  16.362  12.483
  421PROX    C1 3306  11.846  16.314  12.378
  421PROX   H11 3307  11.928  16.249  12.415
  421PROX   H13 3308  11.792  16.270  12.291
  421PROX    C2 3309  11.919  16.434  12.310
  421PROX   H21 3310  11.847  16.510  12.271
  421PROX    C3 3311  12.012  16.387  12.188
  421PROX   H31 3312  12.074  16.303  12.227
  421PROX   H32 3313  11.951  16.350  12.104
  421PROX   H33 3314  12.071  16.474  12.151
  422PROX    O1 3315  12.012  16.488  12.394
  422PROX    C1 3316  11.964  16.589  12.479
  422PROX   H11 3317  11.909  16.659  12.412
  422PROX   H13 3318  11.891  16.547  12.551
  422PROX    C2 3319  12.075  16.660  12.555
  422PROX   H21 3320  12.030  16.747  12.606
  422PROX    C3 3321  12.191  16.708  12.475
  422PROX   H31 3322  12.263  16.769  12.534
  422PROX   H32 3323  12.250  16.620  12.442
  422PROX   H33 3324  12.155  16.758  12.383
  423PROX    O1 3325  12.115  16.569  12.659
  423PROX    C1 3326  12.177  16.632  12.770
  423PROX   H11 3327  12.284  16.614  12.748
  423PROX   H13 3328  12.170  16.743  12.774
  423PROX    C2 3329  12.142  16.566  12.899
  423PROX   H21 3330  12.156  16.456  12.890
  423PROX    C3 3331  11.993  16.587  12.941
  423PROX   H31 3332  11.920  16.573  12.858
  423PROX   H32 3333  11.973  16.519  13.027
  423PROX   H33 3334  11.964  16.689  12.974
  424PROX    O1 3335  12.230  16.619  13.001
  424PROX    C1 3336  12.253  16.516  13.099
  424PROX   H11 3337  12.158  16.486  13.149
  424PROX   H13 3338  12.292  16.427  13.046
  424PROX    C2 3339  12.355  16.566  13.207
  424PROX   H21 3340  12.421  16.648  13.172
  424PROX    C3 3341  12.436  16.442  13.249
  424PROX   H31 3342  12.368  16.359  13.278
  424PROX   H32 3343  12.509  16.407  13.173
  424PROX   H33 3344  12.481  16.468  13.346
  425PROX    O1 3345  12.279  16.599  13.327
  425PROX    C1 3346  12.208  16.722  13.317
  425PROX   H11 3347  12.275  16.805  13.285
  425PROX   H13 3348  12.119  16.710  13.251
  425PROX    C2 3349  12.147  16.756  13.452
  425PROX   H21 3350  12.106  16.857  13.429
  425PROX    C3 3351  12.247  16.766  13.567
  425PROX   H31 3352  12.198  16.804  13.660
  425PROX   H32 3353  12.284  16.663  13.586
  425PROX   H33 3354  12.325  16.840  13.542
  426PROX    O1 3355  12.046  16.661  13.488
  426PROX    C1 3356  11.917  16.699  13.439
  426PROX   H11 3357  11.884  16.779  13.508
  426PROX   H13 3358  11.927  16.731  13.333
  426PROX    C2 3359  11.817  16.581  13.461
  426PROX   H21 3360  11.816  16.564  13.571
  426PROX    C3 3361  11.848  16.447  13.386
  426PROX   H31 3362  11.771  16.368  13.399
  426PROX   H32 3363  11.842  16.456  13.275
  426PROX   H33 3364  11.945  16.398  13.408
  427PROX    O1 3365  11.686  16.626  13.416
  427PROX    C1 3366  11.585  16.622  13.526
  427PROX   H11 3367  11.620  16.686  13.610
  427PROX   H13 3368  11.493  16.672  13.490
  427PROX    C2 3369  11.551  16.480  13.572
  427PROX   H21 3370  11.649  16.430  13.589
  427PROX    C3 3371  11.479  16.405  13.460
  427PROX   H31 3372  11.456  16.301  13.490
  427PROX   H32 3373  11.378  16.450  13.451
  427PROX   H33 3374  11.542  16.407  13.368
  428PROX    O1 3375  11.476  16.487  13.687
  428PROX    C1 3376  11.448  16.357  13.734
  428PROX   H11 3377  11.376  16.304  13.668
  428PROX   H13 3378  11.544  16.301  13.739
  428PROX    C2 3379  11.394  16.358  13.880
  428PROX   H21 3380  11.434  16.441  13.942
  428PROX    C3 3381  11.421  16.218  13.937
  428PROX   H31 3382  11.527  16.187  13.921
  428PROX   H32 3383  11.406  16.213  14.047
  428PROX   H33 3384  11.351  16.146  13.890
  429PROX    O1 3385  11.251  16.379  13.875
  429PROX    C1 3386  11.209  16.503  13.811
  429PROX   H11 3387  11.248  16.520  13.708
  429PROX   H13 3388  11.100  16.497  13.789
  429PROX    C2 3389  11.227  16.628  13.895
  429PROX   H21 3390  11.331  16.627  13.934
  429PROX    C3 3391  11.130  16.630  14.012
  429PROX   H31 3392  11.038  16.574  13.985
  429PROX   H32 3393  11.176  16.581  14.100
  429PROX   H33 3394  11.117  16.739  14.030
  430PROX    O1 3395  11.210  16.742  13.816
  430PROX    C1 3396  11.276  16.860  13.856
  430PROX   H11 3397  11.219  16.914  13.935
  430PROX   H13 3398  11.378  16.836  13.893
  430PROX    C2 3399  11.296  16.961  13.741
  430PROX   H21 3400  11.202  16.979  13.684
  430PROX    C3 3401  11.396  16.910  13.641
  430PROX   H31 3402  11.414  16.979  13.556
  430PROX   H32 3403  11.494  16.900  13.693
  430PROX   H33 3404  11.358  16.815  13.599
  431ETHO    O1 3405  11.346  17.079  13.796
  431ETHO    C1 3406  11.333  17.196  13.717
  431ETHO   H11 3407  11.231  17.237  13.726
  431ETHO   H13 3408  11.360  17.177  13.610
  431ETHO    C2 3409  11.433  17.307  13.748
  431ETHO   H21 3410  11.408  17.323  13.855
  431ETHO   H23 3411  11.407  17.407  13.707
  432ETHO    O1 3412  11.566  17.279  13.739
  432ETHO    C1 3413  11.647  17.381  13.784
  432ETHO   H11 3414  11.616  17.437  13.874
  432ETHO   H13 3415  11.741  17.330  13.817
  432ETHO    C2 3416  11.696  17.476  13.672
  432ETHO   H21 3417  11.750  17.427  13.589
  432ETHO   H23 3418  11.775  17.542  13.716
  433ETHO    O1 3419  11.582  17.564  13.625
  433ETHO    C1 3420  11.601  17.620  13.501
  433ETHO   H11 3421  11.615  17.546  13.420
  433ETHO   H13 3422  11.687  17.690  13.496
  433ETHO    C2 3423  11.479  17.695  13.442
  433ETHO   H21 3424  11.391  17.630  13.462
  433ETHO   H23 3425  11.485  17.697  13.331
  434ETHO    O1 3426  11.490  17.833  13.501
  434ETHO    C1 3427  11.366  17.898  13.484
  434ETHO   H11 3428  11.389  18.005  13.502
  434ETHO   H13 3429  11.349  17.879  13.376
  434ETHO    C2 3430  11.258  17.842  13.577
  434ETHO   H21 3431  11.257  17.731  13.584
  434ETHO   H23 3432  11.165  17.880  13.529
  435ETHO    O1 3433  11.265  17.891  13.710
  435ETHO    C1 3434  11.160  17.838  13.781
  435ETHO   H11 3435  11.179  17.729  13.793
  435ETHO   H13 3436  11.063  17.845  13.729
  435ETHO    C2 3437  11.154  17.904  13.919
  435ETHO   H21 3438  11.260  17.899  13.951
  435ETHO   H23 3439  11.086  17.846  13.985
  436ETHO    O1 3440  11.098  18.042  13.928
  436ETHO    C1 3441  11.132  18.106  14.052
  436ETHO   H11 3442  11.117  18.032  14.133
  436ETHO   H13 3443  11.243  18.116  14.044
  436ETHO    C2 3444  11.067  18.239  14.071
  436ETHO   H21 3445  11.089  18.307  13.985
  436ETHO   H23 3446  11.115  18.280  14.163
  437ETHO    O1 3447  10.929  18.240  14.098
  437ETHO    C1 3448  10.841  18.280  13.998
  437ETHO   H11 3449  10.744  18.242  14.035
  437ETHO   H13 3450  10.869  18.221  13.908
  437ETHO    C2 3451  10.843  18.429  13.961
  437ETHO   H21 3452  10.780  18.435  13.869
  437ETHO   H23 3453  10.950  18.453  13.944
  438ETHO    O1 3454  10.791  18.518  14.056
  438ETHO    C1 3455  10.797  18.657  14.016
  438ETHO   H11 3456  10.904  18.678  13.993
  438ETHO   H13 3457  10.743  18.674  13.921
  438ETHO    C2 3458  10.750  18.756  14.118
  438ETHO   H21 3459  10.773  18.719  14.220
  438ETHO   H23 3460  10.823  18.840  14.116
  439ETHO    O1 3461  10.616  18.797  14.113
  439ETHO    C1 3462  10.524  18.692  14.138
  439ETHO   H11 3463  10.518  18.619  14.053
  439ETHO   H13 3464  10.549  18.630  14.227
  439ETHO    C2 3465  10.378  18.747  14.151
  439ETHO   H21 3466  10.370  18.834  14.220
  439ETHO   H23 3467  10.306  18.669  14.182
  440ETHO    O1 3468  10.333  18.790  14.020
  440ETHO    C1 3469  10.209  18.861  14.030
  440ETHO   H11 3470  10.149  18.782  14.079
  440ETHO   H13 3471  10.223  18.958  14.082
  440ETHO    C2 3472  10.132  18.892  13.903
  440ETHO   H21 3473  10.042  18.946  13.937
  440ETHO   H23 3474  10.102  18.795  13.858
  441ETHO    O1 3475  10.196  18.971  13.806
  441ETHO    C1 3476  10.103  19.050  13.739
  441ETHO   H11 3477  10.021  18.984  13.704
  441ETHO   H13 3478  10.063  19.130  13.805
  441ETHO    C2 3479  10.167  19.116  13.623
  441ETHO   H21 3480  10.189  19.044  13.541
  441ETHO   H23 3481  10.262  19.166  13.654
  442ETHO    O1 3482  10.076  19.210  13.566
  442ETHO    C1 3483  10.127  19.242  13.436
  442ETHO   H11 3484  10.122  19.149  13.376
  442ETHO   H13 3485  10.232  19.279  13.437
  442ETHO    C2 3486  10.025  19.335  13.370
  442ETHO   H21 3487  10.065  19.355  13.269
  442ETHO   H23 3488  10.016  19.433  13.421
  443ETHO    O1 3489   9.895  19.271  13.360
  443ETHO    C1 3490   9.794  19.368  13.353
  443ETHO   H11 3491   9.796  19.408  13.457
  443ETHO   H13 3492   9.813  19.449  13.279
  443ETHO    C2 3493   9.657  19.306  13.330
  443ETHO   H21 3494   9.569  19.365  13.365
  443ETHO   H23 3495   9.649  19.211  13.387
  444ETHO    O1 3496   9.634  19.264  13.192
  444ETHO    C1 3497   9.605  19.374  13.098
  444ETHO   H11 3498   9.690  19.443  13.081
  444ETHO   H13 3499   9.516  19.431  13.134
  444ETHO    C2 3500   9.563  19.325  12.955
  444ETHO   H21 3501   9.643  19.257  12.919
  444ETHO   H23 3502   9.541  19.415  12.893
  445ETHO    O1 3503   9.439  19.253  12.961
  445ETHO    C1 3504   9.421  19.172  12.842
  445ETHO   H11 3505   9.432  19.235  12.751
  445ETHO   H13 3506   9.504  19.098  12.840
  445ETHO    C2 3507   9.277  19.111  12.828
  445ETHO   H21 3508   9.236  19.079  12.926
  445ETHO   H23 3509   9.288  19.019  12.766
  446ETHO    O1 3510   9.195  19.189  12.750
  446ETHO    C1 3511   9.140  19.304  12.817
  446ETHO   H11 3512   9.220  19.381  12.820
  446ETHO   H13 3513   9.108  19.278  12.921
  446ETHO    C2 3514   9.022  19.354  12.736
  446ETHO   H21 3515   8.982  19.448  12.781
  446ETHO   H23 3516   8.940  19.278  12.736
  447ETHO    O1 3517   9.057  19.383  12.605
  447ETHO    C1 3518   8.950  19.434  12.529
  447ETHO   H11 3519   8.864  19.363  12.529
  447ETHO   H13 3520   8.914  19.517  12.593
  447ETHO    C2 3521   8.981  19.510  12.400
  447ETHO   H21 3522   9.041  19.602  12.418
  447ETHO   H23 3523   8.882  19.541  12.359
  448ETHO    O1 3524   9.042  19.433  12.300
  448ETHO    C1 3525   9.062  19.517  12.184
  448ETHO   H11 3526   9.092  19.618  12.217
  448ETHO   H13 3527   8.960  19.518  12.140
  448ETHO    C2 3528   9.140  19.439  12.081
  448ETHO   H21 3529   9.121  19.483  11.981
  448ETHO   H23 3530   9.092  19.339  12.071
  449ETHO    O1 3531   9.282  19.422  12.088
  449ETHO    C1 3532   9.335  19.365  11.967
  449ETHO   H11 3533   9.286  19.267  11.946
  449ETHO   H13 3534   9.295  19.418  11.877
  449ETHO    C2 3535   9.489  19.347  11.948
  449ETHO   H21 3536   9.498  19.291  11.852
  449ETHO   H23 3537   9.532  19.296  12.037
  450ETHO    O1 3538   9.547  19.479  11.914
  450ETHO    C1 3539   9.689  19.476  11.899
  450ETHO   H11 3540   9.721  19.419  11.989
  450ETHO   H13 3541   9.718  19.407  11.817
  450ETHO    C2 3542   9.752  19.616  11.885
  450ETHO   H21 3543   9.725  19.646  11.781
  450ETHO   H23 3544   9.862  19.624  11.888
  451ETHO    O1 3545   9.682  19.698  11.979
  451ETHO    C1 3546   9.750  19.825  11.981
  451ETHO   H11 3547   9.856  19.813  12.012
  451ETHO   H13 3548   9.736  19.869  11.881
  451ETHO    C2 3549   9.687  19.926  12.085
  451ETHO   H21 3550   9.759  20.003  12.120
  451ETHO   H23 3551   9.676  19.866  12.178
  452ETHO    O1 3552   9.570  19.990  12.038
  452ETHO    C1 3553   9.459  19.906  12.070
  452ETHO   H11 3554   9.479  19.799  12.050
  452ETHO   H13 3555   9.436  19.929  12.177
  452ETHO    C2 3556   9.330  19.947  11.995
  452ETHO   H21 3557   9.303  20.052  12.016
  452ETHO   H23 3558   9.245  19.887  12.033
  453ETHO    O1 3559   9.340  19.938  11.851
  453ETHO    C1 3560   9.208  19.917  11.805
  453ETHO   H11 3561   9.142  19.993  11.852
  453ETHO   H13 3562   9.180  19.815  11.839
  453ETHO    C2 3563   9.190  19.936  11.654
  453ETHO   H21 3564   9.096  19.879  11.635
  453ETHO   H23 3565   9.270  19.878  11.603
  454ETHO    O1 3566   9.168  20.071  11.609
  454ETHO    C1 3567   9.292  20.131  11.576
  454ETHO   H11 3568   9.357  20.136  11.666
  454ETHO   H13 3569   9.329  20.071  11.490
  454ETHO    C2 3570   9.282  20.285  11.531
  454ETHO   H21 3571   9.217  20.279  11.441
  454ETHO   H23 3572   9.385  20.320  11.509
  455ETHO    O1 3573   9.213  20.367  11.626
  455ETHO    C1 3574   9.230  20.504  11.594
  455ETHO   H11 3575   9.209  20.511  11.486
  455ETHO   H13 3576   9.337  20.526  11.616
  455ETHO    C2 3577   9.145  20.590  11.687
  455ETHO   H21 3578   9.042  20.551  11.676
  455ETHO   H23 3579   9.140  20.694  11.648
  456ETHO    O1 3580   9.188  20.594  11.825
  456ETHO    C1 3581   9.145  20.707  11.892
  456ETHO   H11 3582   9.186  20.800  11.847
  456ETHO   H13 3583   9.034  20.707  11.886
  456ETHO    C2 3584   9.190  20.708  12.034
  456ETHO   H21 3585   9.118  20.645  12.091
  456ETHO   H23 3586   9.178  20.807  12.082
  457ETHO    O1 3587   9.327  20.668  12.061
  457ETHO    C1 3588   9.381  20.729  12.173
  457ETHO   H11 3589   9.328  20.709  12.268
  457ETHO   H13 3590   9.386  20.839  12.163
  457ETHO    C2 3591   9.521  20.677  12.197
  457ETHO   H21 3592   9.513  20.571  12.231
  457ETHO   H23 3593   9.566  20.729  12.285
  458ETHO    O1 3594   9.598  20.697  12.076
  458ETHO    C1 3595   9.734  20.705  12.100
  458ETHO   H11 3596   9.742  20.809  12.138
  458ETHO   H13 3597   9.762  20.649  12.192
  458ETHO    C2 3598   9.823  20.680  11.973
  458ETHO   H21 3599   9.925  20.721  11.984
  458ETHO   H23 3600   9.775  20.711  11.878
  459ETHO    O1 3601   9.829  20.536  11.964
  459ETHO    C1 3602   9.930  20.491  11.874
  459ETHO   H11 3603  10.027  20.536  11.902
  459ETHO   H13 3604   9.900  20.543  11.781
  459ETHO    C2 3605   9.943  20.341  11.853
  459ETHO   H21 3606   9.990  20.323  11.754
  459ETHO   H23 3607   9.846  20.287  11.842
  460ETHO    O1 3608  10.018  20.272  11.953
  460ETHO    C1 3609  10.030  20.132  11.934
  460ETHO   H11 3610   9.932  20.085  11.954
  460ETHO   H13 3611  10.074  20.115  11.834
  460ETHO    C2 3612  10.119  20.080  12.051
  460ETHO   H21 3613  10.207  20.148  12.053
  460ETHO   H23 3614  10.141  19.973  12.030
  461ETHO    O1 3615  10.060  20.084  12.179
  461ETHO    C1 3616  10.153  20.039  12.278
  461ETHO   H11 3617  10.252  20.064  12.234
  461ETHO   H13 3618  10.144  20.113  12.361
  461ETHO    C2 3619  10.130  19.895  12.309
  461ETHO   H21 3620  10.223  19.850  12.350
  461ETHO   H23 3621  10.110  19.844  12.212
  462ETHO    O1 3622  10.031  19.871  12.400
  462ETHO    C1 3623   9.903  19.910  12.352
  462ETHO   H11 3624   9.910  20.020  12.352
  462ETHO   H13 3625   9.893  19.874  12.248
  462ETHO    C2 3626   9.798  19.852  12.440
  462ETHO   H21 3627   9.698  19.886  12.406
  462ETHO   H23 3628   9.818  19.878  12.546
  463ETHO    O1 3629   9.798  19.713  12.427
  463ETHO    C1 3630   9.702  19.656  12.511
  463ETHO   H11 3631   9.699  19.699  12.613
  463ETHO   H13 3632   9.600  19.683  12.476
  463ETHO    C2 3633   9.704  19.502  12.517
  463ETHO   H21 3634   9.709  19.463  12.413
  463ETHO   H23 3635   9.616  19.460  12.571
  464ETHO    O1 3636   9.820  19.457  12.582
  464ETHO    C1 3637   9.786  19.383  12.694
  464ETHO   H11 3638   9.728  19.293  12.666
  464ETHO   H13 3639   9.720  19.446  12.758
  464ETHO    C2 3640   9.908  19.344  12.783
  464ETHO   H21 3641   9.877  19.341  12.890
  464ETHO   H23 3642   9.981  19.425  12.762
  465ETHO    O1 3643   9.958  19.222  12.729
  465ETHO    C1 3644  10.073  19.167  12.794
  465ETHO   H11 3645  10.166  19.203  12.745
  465ETHO   H13 3646  10.069  19.179  12.904
  465ETHO    C2 3647  10.082  19.012  12.797
  465ETHO   H21 3648   9.994  18.985  12.859
  465ETHO   H23 3649  10.172  18.975  12.850
  466ETHO    O1 3650  10.080  18.941  12.668
  466ETHO    C1 3651  10.010  18.821  12.673
  466ETHO   H11 3652   9.912  18.837  12.722
  466ETHO   H13 3653  10.073  18.767  12.747
  466ETHO    C2 3654  10.010  18.750  12.533
  466ETHO   H21 3655   9.986  18.834  12.464
  466ETHO   H23 3656   9.940  18.664  12.520
  467ETHO    O1 3657  10.133  18.703  12.478
  467ETHO    C1 3658  10.120  18.643  12.346
  467ETHO   H11 3659  10.049  18.559  12.359
  467ETHO   H13 3660  10.084  18.728  12.284
  467ETHO    C2 3661  10.258  18.588  12.300
  467ETHO   H21 3662  10.250  18.532  12.204
  467ETHO   H23 3663  10.297  18.516  12.375
  468ETHO    O1 3664  10.354  18.698  12.286
  468ETHO    C1 3665  10.473  18.643  12.234
  468ETHO   H11 3666  10.448  18.566  12.158
  468ETHO   H13 3667  10.526  18.589  12.315
  468ETHO    C2 3668  10.571  18.752  12.190
  468ETHO   H21 3669  10.531  18.831  12.123
  468ETHO   H23 3670  10.659  18.702  12.144
  469ETHO    O1 3671  10.634  18.804  12.302
  469ETHO    C1 3672  10.711  18.917  12.257
  469ETHO   H11 3673  10.794  18.873  12.197
  469ETHO   H13 3674  10.655  18.993  12.200
  469ETHO    C2 3675  10.757  18.994  12.384
  469ETHO   H21 3676  10.661  19.020  12.434
  469ETHO   H23 3677  10.812  19.082  12.345
  470ETHO    O1 3678  10.839  18.922  12.474
  470ETHO    C1 3679  10.840  18.979  12.600
  470ETHO   H11 3680  10.813  19.085  12.581
  470ETHO   H13 3681  10.937  18.965  12.651
  470ETHO    C2 3682  10.725  18.913  12.682
  470ETHO   H21 3683  10.632  18.901  12.621
  470ETHO   H23 3684  10.717  18.981  12.769
  471ETHO    O1 3685  10.763  18.789  12.733
  471ETHO    C1 3686  10.656  18.719  12.803
  471ETHO   H11 3687  10.616  18.794  12.873
  471ETHO   H13 3688  10.578  18.696  12.727
  471ETHO    C2 3689  10.716  18.608  12.886
  471ETHO   H21 3690  10.803  18.653  12.938
  471ETHO   H23 3691  10.638  18.577  12.959
  472ETHO    O1 3692  10.751  18.497  12.806
  472ETHO    C1 3693  10.763  18.380  12.885
  472ETHO   H11 3694  10.771  18.287  12.825
  472ETHO   H13 3695  10.676  18.360  12.951
  472ETHO    C2 3696  10.883  18.364  12.970
  472ETHO   H21 3697  10.870  18.445  13.045
  472ETHO   H23 3698  10.979  18.367  12.914
  473ETHO    O1 3699  10.866  18.238  13.032
  473ETHO    C1 3700  10.933  18.226  13.158
  473ETHO   H11 3701  11.042  18.209  13.151
  473ETHO   H13 3702  10.922  18.317  13.221
  473ETHO    C2 3703  10.855  18.118  13.239
  473ETHO   H21 3704  10.747  18.141  13.239
  473ETHO   H23 3705  10.890  18.124  13.344
  474ETHO    O1 3706  10.872  17.990  13.180
  474ETHO    C1 3707  10.819  17.888  13.265
  474ETHO   H11 3708  10.806  17.798  13.201
  474ETHO   H13 3709  10.715  17.919  13.288
  474ETHO    C2 3710  10.912  17.867  13.385
  474ETHO   H21 3711  10.848  17.804  13.450
  474ETHO   H23 3712  10.943  17.957  13.442
  475ETHO    O1 3713  11.021  17.783  13.358
  475ETHO    C1 3714  10.988  17.641  13.364
  475ETHO   H11 3715  10.949  17.617  13.466
  475ETHO   H13 3716  10.901  17.620  13.298
  475ETHO    C2 3717  11.101  17.544  13.325
  475ETHO   H21 3718  11.185  17.594  13.376
  475ETHO   H23 3719  11.111  17.562  13.216
  476ETHO    O1 3720  11.063  17.411  13.369
  476ETHO    C1 3721  11.157  17.321  13.314
  476ETHO   H11 3722  11.187  17.347  13.210
  476ETHO   H13 3723  11.243  17.339  13.383
  476ETHO    C2 3724  11.105  17.175  13.321
  476ETHO   H21 3725  11.069  17.142  13.421
  476ETHO   H23 3726  11.186  17.103  13.295
  477ETHO    O1 3727  11.008  17.152  13.223
  477ETHO    C1 3728  10.941  17.022  13.245
  477ETHO   H11 3729  11.010  16.935  13.241
  477ETHO   H13 3730  10.893  17.012  13.345
  477ETHO    C2 3731  10.839  16.995  13.138
  477ETHO   H21 3732  10.875  17.004  13.033
  477ETHO   H23 3733  10.759  17.073  13.140
  478ETHO    O1 3734  10.791  16.866  13.164
  478ETHO    C1 3735  10.680  16.841  13.075
  478ETHO   H11 3736  10.591  16.844  13.141
  478ETHO   H13 3737  10.674  16.903  12.982
  478ETHO    C2 3738  10.690  16.687  13.033
  478ETHO   H21 3739  10.585  16.666  13.004
  478ETHO   H23 3740  10.715  16.621  13.119
  479ETHO    O1 3741  10.765  16.668  12.918
  479ETHO    C1 3742  10.908  16.679  12.931
  479ETHO   H11 3743  10.920  16.764  13.001
  479ETHO   H13 3744  10.944  16.701  12.828
  479ETHO    C2 3745  10.993  16.554  12.985
  479ETHO   H21 3746  10.944  16.499  13.069
  479ETHO   H23 3747  11.093  16.588  13.019
  480ETHO    O1 3748  11.009  16.464  12.875
  480ETHO    C1 3749  11.129  16.390  12.888
  480ETHO   H11 3750  11.140  16.335  12.792
  480ETHO   H13 3751  11.218  16.456  12.876
  480ETHO    C2 3752  11.133  16.289  12.999
  480ETHO   H21 3753  11.047  16.218  12.988
  480ETHO   H23 3754  11.117  16.340  13.097
  481ETHO    O1 3755  11.261  16.218  13.003
  481ETHO    C1 3756  11.279  16.130  13.107
  481ETHO   H11 3757  11.283  16.025  13.070
  481ETHO   H13 3758  11.193  16.147  13.176
  481ETHO    C2 3759  11.412  16.171  13.167
  481ETHO   H21 3760  11.424  16.277  13.196
  481ETHO   H23 3761  11.499  16.145  13.104
  482ETHO    O1 3762  11.442  16.096  13.290
  482ETHO    C1 3763  11.578  16.099  13.312
  482ETHO   H11 3764  11.619  16.028  13.237
  482ETHO   H13 3765  11.624  16.197  13.287
  482ETHO    C2 3766  11.626  16.055  13.455
  482ETHO   H21 3767  11.610  15.945  13.460
  482ETHO   H23 3768  11.574  16.097  13.544
  483ETHO    O1 3769  11.760  16.086  13.463
  483ETHO    C1 3770  11.829  16.015  13.570
  483ETHO   H11 3771  11.841  15.908  13.542
  483ETHO   H13 3772  11.759  16.007  13.656
  483ETHO    C2 3773  11.957  16.076  13.622
  483ETHO   H21 3774  12.008  16.148  13.555
  483ETHO   H23 3775  12.030  15.996  13.651
  484ETHO    O1 3776  11.921  16.160  13.726
  484ETHO    C1 3777  12.036  16.184  13.804
  484ETHO   H11 3778  12.073  16.091  13.851
  484ETHO   H13 3779  12.122  16.224  13.746
  484ETHO    C2 3780  12.019  16.293  13.910
  484ETHO   H21 3781  11.990  16.379  13.846
  484ETHO   H23 3782  12.108  16.326  13.967
  485ETHO    O1 3783  11.928  16.250  14.008
  485ETHO    C1 3784  11.896  16.352  14.093
  485ETHO   H11 3785  11.981  16.407  14.138
  485ETHO   H13 3786  11.847  16.302  14.180
  485ETHO    C2 3787  11.796  16.457  14.027
  485ETHO   H21 3788  11.760  16.513  14.116
  485ETHO   H23 3789  11.704  16.411  13.987
  486ETHO    O1 3790  11.848  16.552  13.933
  486ETHO    C1 3791  11.750  16.633  13.876
  486ETHO   H11 3792  11.689  16.574  13.803
  486ETHO   H13 3793  11.680  16.676  13.951
  486ETHO    C2 3794  11.820  16.754  13.810
  486ETHO   H21 3795  11.741  16.804  13.749
  486ETHO   H23 3796  11.905  16.724  13.745
  487ETHO    O1 3797  11.864  16.836  13.918
  487ETHO    C1 3798  11.946  16.943  13.871
  487ETHO   H11 3799  11.979  17.014  13.949
  487ETHO   H13 3800  12.039  16.913  13.818
  487ETHO    C2 3801  11.868  17.031  13.770
  487ETHO   H21 3802  11.896  17.138  13.771
  487ETHO   H23 3803  11.760  17.037  13.798
  488ETHO    O1 3804  11.876  16.982  13.640
  488ETHO    C1 3805  11.760  17.018  13.563
  488ETHO   H11 3806  11.692  16.931  13.576
  488ETHO   H13 3807  11.725  17.113  13.608
  488ETHO    C2 3808  11.786  17.034  13.416
  488ETHO   H21 3809  11.852  16.955  13.375
  488ETHO   H23 3810  11.854  17.121  13.409
  489ETHO    O1 3811  11.677  17.053  13.327
  489ETHO    C1 3812  11.636  17.187  13.319
  489ETHO   H11 3813  11.640  17.253  13.408
  489ETHO   H13 3814  11.696  17.234  13.239
  489ETHO    C2 3815  11.490  17.187  13.265
  489ETHO   H21 3816  11.417  17.179  13.347
  489ETHO   H23 3817  11.474  17.097  13.202
  490ETHO    O1 3818  11.457  17.313  13.195
  490ETHO    C1 3819  11.518  17.321  13.065
  490ETHO   H11 3820  11.495  17.226  13.014
  490ETHO   H13 3821  11.628  17.334  13.056
  490ETHO    C2 3822  11.453  17.429  12.980
  490ETHO   H21 3823  11.353  17.443  13.025
  490ETHO   H23 3824  11.439  17.404  12.872
  491ETHO    O1 3825  11.519  17.551  12.990
  491ETHO    C1 3826  11.438  17.653  12.938
  491ETHO   H11 3827  11.412  17.615  12.837
  491ETHO   H13 3828  11.339  17.646  12.987
  491ETHO    C2 3829  11.507  17.792  12.927
  491ETHO   H21 3830  11.535  17.815  13.032
  491ETHO   H23 3831  11.434  17.872  12.902
  492ETHO    O1 3832  11.607  17.777  12.827
  492ETHO    C1 3833  11.561  17.816  12.693
  492ETHO   H11 3834  11.451  17.804  12.683
  492ETHO   H13 3835  11.599  17.751  12.611
  492ETHO    C2 3836  11.602  17.955  12.646
  492ETHO   H21 3837  11.571  17.953  12.540
  492ETHO   H23 3838  11.712  17.958  12.659
  493ETHO    O1 3839  11.531  18.052  12.729
  493ETHO    C1 3840  11.567  18.188  12.701
  493ETHO   H11 3841  11.486  18.244  12.753
  493ETHO   H13 3842  11.661  18.220  12.752
  493ETHO    C2 3843  11.553  18.238  12.554
  493ETHO   H21 3844  11.611  18.170  12.488
  493ETHO   H23 3845  11.603  18.336  12.536
  494ETHO    O1 3846  11.416  18.236  12.512
  494ETHO    C1 3847  11.393  18.247  12.368
  494ETHO   H11 3848  11.285  18.266  12.350
  494ETHO   H13 3849  11.411  18.153  12.312
  494ETHO    C2 3850  11.461  18.361  12.304
  494ETHO   H21 3851  11.436  18.350  12.196
  494ETHO   H23 3852  11.571  18.349  12.300
  495ETHO    O1 3853  11.424  18.490  12.345
  495ETHO    C1 3854  11.477  18.589  12.277
  495ETHO   H11 3855  11.494  18.577  12.168
  495ETHO   H13 3856  11.402  18.671  12.288
  495ETHO    C2 3857  11.602  18.647  12.352
  495ETHO   H21 3858  11.577  18.672  12.457
  495ETHO   H23 3859  11.627  18.746  12.308
  496ETHO    O1 3860  11.713  18.567  12.350
  496ETHO    C1 3861  11.826  18.621  12.417
  496ETHO   H11 3862  11.807  18.633  12.525
  496ETHO   H13 3863  11.848  18.724  12.382
  496ETHO    C2 3864  11.953  18.546  12.392
  496ETHO   H21 3865  12.019  18.588  12.471
  496ETHO   H23 3866  11.981  18.555  12.285
  497ETHO    O1 3867  11.946  18.406  12.411
  497ETHO    C1 3868  12.038  18.336  12.332
  497ETHO   H11 3869  12.014  18.342  12.223
  497ETHO   H13 3870  12.138  18.377  12.359
  497ETHO    C2 3871  12.070  18.191  12.367
  497ETHO   H21 3872  12.142  18.162  12.287
  497ETHO   H23 3873  11.977  18.131  12.357
  498ETHO    O1 3874  12.122  18.176  12.499
  498ETHO    C1 3875  12.178  18.047  12.514
  498ETHO   H11 3876  12.135  17.971  12.446
  498ETHO   H13 3877  12.288  18.045  12.506
  498ETHO    C2 3878  12.146  17.995  12.659
  498ETHO   H21 3879  12.188  18.070  12.730
  498ETHO   H23 3880  12.194  17.896  12.672
  499ETHO    O1 3881  12.008  17.976  12.681
  499ETHO    C1 3882  11.977  17.913  12.801
  499ETHO   H11 3883  11.885  17.858  12.773
  499ETHO   H13 3884  12.046  17.838  12.845
  499ETHO    C2 3885  11.940  18.025  12.899
  499ETHO   H21 3886  11.869  17.978  12.969
  499ETHO   H23 3887  11.898  18.112  12.843
  500ETHO    O1 3888  12.060  18.063  12.953
  500ETHO    C1 3889  12.041  18.170  13.048
  500ETHO   H11 3890  11.967  18.238  12.999
  500ETHO   H13 3891  11.989  18.112  13.127
  500ETHO    C2 3892  12.164  18.236  13.105
  500ETHO   H21 3893  12.242  18.163  13.136
  500ETHO   H23 3894  12.157  18.301  13.194
  501ETHO    O1 3895  12.211  18.315  12.998
  501ETHO    C1 3896  12.337  18.371  13.029
  501ETHO   H11 3897  12.409  18.291  13.054
  501ETHO   H13 3898  12.331  18.437  13.118
  501ETHO    C2 3899  12.403  18.423  12.898
  501ETHO   H21 3900  12.375  18.349  12.820
  501ETHO   H23 3901  12.514  18.421  12.898
  502ETHO    O1 3902  12.341  18.547  12.879
  502ETHO    C1 3903  12.407  18.655  12.945
  502ETHO   H11 3904  12.364  18.668  13.046
  502ETHO   H13 3905  12.515  18.636  12.965
  502ETHO    C2 3906  12.396  18.783  12.859
  502ETHO   H21 3907  12.394  18.877  12.919
  502ETHO   H23 3908  12.296  18.776  12.812
  503ETHO    O1 3909  12.493  18.792  12.757
  503ETHO    C1 3910  12.618  18.826  12.807
  503ETHO   H11 3911  12.666  18.756  12.878
  503ETHO   H13 3912  12.595  18.922  12.859
  503ETHO    C2 3913  12.706  18.861  12.684
  503ETHO   H21 3914  12.762  18.955  12.704
  503ETHO   H23 3915  12.645  18.871  12.592
  504ETHO    O1 3916  12.807  18.759  12.659
  504ETHO    C1 3917  12.901  18.801  12.556
  504ETHO   H11 3918  12.938  18.902  12.581
  504ETHO   H13 3919  12.988  18.737  12.581
  504ETHO    C2 3920  12.850  18.796  12.408
  504ETHO   H21 3921  12.935  18.779  12.339
  504ETHO   H23 3922  12.782  18.708  12.399
  505ETHO    O1 3923  12.780  18.912  12.378
  505ETHO    C1 3924  12.761  18.926  12.233
  505ETHO   H11 3925  12.705  18.834  12.210
  505ETHO   H13 3926  12.860  18.925  12.183
  505ETHO    C2 3927  12.679  19.053  12.193
  505ETHO   H21 3928  12.704  19.074  12.087
  505ETHO   H23 3929  12.709  19.138  12.257
  506ETHO    O1 3930  12.541  19.027  12.200
  506ETHO    C1 3931  12.499  18.994  12.336
  506ETHO   H11 3932  12.522  18.889  12.362
  506ETHO   H13 3933  12.571  19.044  12.404
  506ETHO    C2 3934  12.363  19.058  12.374
  506ETHO   H21 3935  12.333  18.998  12.463
  506ETHO   H23 3936  12.292  19.035  12.292
  507ETHO    O1 3937  12.376  19.195  12.399
  507ETHO    C1 3938  12.255  19.266  12.411
  507ETHO   H11 3939  12.185  19.241  12.329
  507ETHO   H13 3940  12.279  19.375  12.403
  507ETHO    C2 3941  12.189  19.248  12.547
  507ETHO   H21 3942  12.250  19.292  12.628
  507ETHO   H23 3943  12.184  19.140  12.570
  508ETHO    O1 3944  12.065  19.308  12.542
  508ETHO    C1 3945  12.024  19.343  12.673
  508ETHO   H11 3946  12.009  19.248  12.728
  508ETHO   H13 3947  12.093  19.414  12.722
  508ETHO    C2 3948  11.888  19.409  12.674
  508ETHO   H21 3949  11.885  19.498  12.608
  508ETHO   H23 3950  11.851  19.443  12.773
  509ETHO    O1 3951  11.788  19.322  12.625
  509ETHO    C1 3952  11.662  19.379  12.602
  509ETHO   H11 3953  11.613  19.320  12.522
  509ETHO   H13 3954  11.674  19.485  12.570
  509ETHO    C2 3955  11.577  19.369  12.727
  509ETHO   H21 3956  11.606  19.273  12.774
  509ETHO   H23 3957  11.470  19.361  12.698
  510ETHO    O1 3958  11.597  19.472  12.823
  510ETHO    C1 3959  11.541  19.432  12.946
  510ETHO   H11 3960  11.442  19.386  12.925
  510ETHO   H13 3961  11.598  19.352  12.999
  510ETHO    C2 3962  11.523  19.541  13.049
  510ETHO   H21 3963  11.457  19.503  13.129
  510ETHO   H23 3964  11.493  19.635  12.998
  511ETHO    O1 3965  11.644  19.590  13.120
  511ETHO    C1 3966  11.679  19.512  13.236
  511ETHO   H11 3967  11.727  19.417  13.205
  511ETHO   H13 3968  11.603  19.484  13.313
  511ETHO    C2 3969  11.796  19.586  13.302
  511ETHO   H21 3970  11.869  19.612  13.222
  511ETHO   H23 3971  11.838  19.514  13.375
  512ETHO    O1 3972  11.750  19.701  13.371
  512ETHO    C1 3973  11.854  19.773  13.447
  512ETHO   H11 3974  11.955  19.770  13.401
  512ETHO   H13 3975  11.832  19.882  13.452
  512ETHO    C2 3976  11.852  19.719  13.595
  512ETHO   H21 3977  11.899  19.618  13.603
  512ETHO   H23 3978  11.900  19.793  13.661
  513ETHO    O1 3979  11.711  19.708  13.647
  513ETHO    C1 3980  11.690  19.759  13.773
  513ETHO   H11 3981  11.752  19.693  13.838
  513ETHO   H13 3982  11.734  19.860  13.787
  513ETHO    C2 3983  11.549  19.732  13.820
  513ETHO   H21 3984  11.523  19.786  13.913
  513ETHO   H23 3985  11.536  19.622  13.822
  514ETHO    O1 3986  11.450  19.784  13.731
  514ETHO    C1 3987  11.330  19.724  13.752
  514ETHO   H11 3988  11.351  19.615  13.745
  514ETHO   H13 3989  11.291  19.748  13.853
  514ETHO    C2 3990  11.246  19.779  13.647
  514ETHO   H21 3991  11.144  19.737  13.662
  514ETHO   H23 3992  11.258  19.742  13.543
  515ETHO    O1 3993  11.232  19.923  13.648
  515ETHO    C1 3994  11.146  19.957  13.543
  515ETHO   H11 3995  11.188  19.936  13.442
  515ETHO   H13 3996  11.040  19.927  13.553
  515ETHO    C2 3997  11.140  20.106  13.518
  515ETHO   H21 3998  11.065  20.100  13.436
  515ETHO   H23 3999  11.234  20.160  13.493
  516ETHO    O1 4000  11.061  20.164  13.622
  516ETHO    C1 4001  11.030  20.302  13.607
  516ETHO   H11 4002  11.028  20.323  13.498
  516ETHO   H13 4003  11.109  20.372  13.639
  516ETHO    C2 4004  10.897  20.345  13.672
  516ETHO   H21 4005  10.885  20.455  13.660
  516ETHO   H23 4006  10.905  20.309  13.777
  517ETHO    O1 4007  10.793  20.277  13.600
  517ETHO    C1 4008  10.666  20.328  13.644
  517ETHO   H11 4009  10.653  20.316  13.754
  517ETHO   H13 4010  10.657  20.436  13.622
  517ETHO    C2 4011  10.555  20.242  13.575
  517ETHO   H21 4012  10.455  20.284  13.597
  517ETHO   H23 4013  10.555  20.137  13.613
  518ETHO    O1 4014  10.560  20.253  13.435
  518ETHO    C1 4015  10.471  20.158  13.376
  518ETHO   H11 4016  10.368  20.183  13.409
  518ETHO   H13 4017  10.510  20.058  13.407
  518ETHO    C2 4018  10.483  20.169  13.226
  518ETHO   H21 4019  10.437  20.082  13.175
  518ETHO   H23 4020  10.591  20.179  13.200
  519ETHO    O1 4021  10.434  20.289  13.179
  519ETHO    C1 4022  10.376  20.284  13.049
  519ETHO   H11 4023  10.418  20.201  12.988
  519ETHO   H13 4024  10.267  20.278  13.069
  519ETHO    C2 4025  10.386  20.420  12.973
  519ETHO   H21 4026  10.370  20.495  13.053
  519ETHO   H23 4027  10.318  20.409  12.886
  520ETHO    O1 4028  10.521  20.429  12.921
  520ETHO    C1 4029  10.524  20.504  12.801
  520ETHO   H11 4030  10.488  20.603  12.838
  520ETHO   H13 4031  10.451  20.455  12.734
  520ETHO    C2 4032  10.664  20.518  12.743
  520ETHO   H21 4033  10.724  20.591  12.801
  520ETHO   H23 4034  10.657  20.565  12.643
  521ETHO    O1 4035  10.735  20.390  12.730
  521ETHO    C1 4036  10.859  20.409  12.665
  521ETHO   H11 4037  10.855  20.477  12.578
  521ETHO   H13 4038  10.936  20.465  12.723
  521ETHO    C2 4039  10.923  20.276  12.635
  521ETHO   H21 4040  11.021  20.294  12.585
  521ETHO   H23 4041  10.854  20.218  12.570
  522ETHO    O1 4042  10.956  20.207  12.762
  522ETHO    C1 4043  11.021  20.086  12.748
  522ETHO   H11 4044  11.108  20.105  12.681
  522ETHO   H13 4045  10.950  20.011  12.707
  522ETHO    C2 4046  11.075  20.042  12.878
  522ETHO   H21 4047  10.995  20.046  12.954
  522ETHO   H23 4048  11.157  20.112  12.906
  523ETHO    O1 4049  11.131  19.916  12.882
  523ETHO    C1 4050  11.202  19.896  13.005
  523ETHO   H11 4051  11.278  19.977  13.007
  523ETHO   H13 4052  11.140  19.920  13.094
  523ETHO    C2 4053  11.262  19.760  13.027
  523ETHO   H21 4054  11.334  19.758  13.111
  523ETHO   H23 4055  11.319  19.735  12.935
  524ETHO    O1 4056  11.180  19.647  13.040
  524ETHO    C1 4057  11.106  19.658  13.157
  524ETHO   H11 4058  11.114  19.561  13.210
  524ETHO   H13 4059  11.151  19.733  13.226
  524ETHO    C2 4060  10.959  19.675  13.111
  524ETHO   H21 4061  10.962  19.758  13.036
  524ETHO   H23 4062  10.894  19.713  13.193
  525ETHO    O1 4063  10.901  19.554  13.052
  525ETHO    C1 4064  10.767  19.575  13.008
  525ETHO   H11 4065  10.707  19.624  13.088
  525ETHO   H13 4066  10.768  19.638  12.916
  525ETHO    C2 4067  10.705  19.439  12.973
  525ETHO   H21 4068  10.774  19.376  12.913
  525ETHO   H23 4069  10.614  19.450  12.910
  526ETHO    O1 4070  10.653  19.359  13.078
  526ETHO    C1 4071  10.746  19.321  13.175
  526ETHO   H11 4072  10.764  19.413  13.235
  526ETHO   H13 4073  10.681  19.257  13.239
  526ETHO    C2 4074  10.880  19.252  13.150
  526ETHO   H21 4075  10.956  19.283  13.224
  526ETHO   H23 4076  10.932  19.293  13.060
  527ETHO    O1 4077  10.861  19.111  13.135
  527ETHO    C1 4078  10.944  19.035  13.060
  527ETHO   H11 4079  11.044  19.052  13.106
  527ETHO   H13 4080  10.941  19.080  12.959
  527ETHO    C2 4081  10.914  18.886  13.052
  527ETHO   H21 4082  10.985  18.852  12.973
  527ETHO   H23 4083  10.810  18.873  13.014
  528ETHO    O1 4084  10.939  18.825  13.172
  528ETHO    C1 4085  10.897  18.695  13.195
  528ETHO   H11 4086  10.937  18.612  13.133
  528ETHO   H13 4087  10.787  18.693  13.186
  528ETHO    C2 4088  10.924  18.666  13.339
  528ETHO   H21 4089  10.866  18.581  13.381
  528ETHO   H23 4090  10.903  18.756  13.400
  529ETHO    O1 4091  11.060  18.634  13.342
  529ETHO    C1 4092  11.114  18.642  13.469
  529ETHO   H11 4093  11.067  18.578  13.547
  529ETHO   H13 4094  11.114  18.747  13.507
  529ETHO    C2 4095  11.263  18.619  13.458
  529ETHO   H21 4096  11.292  18.523  13.409
  529ETHO   H23 4097  11.314  18.605  13.556
  530ETHO    O1 4098  11.329  18.723  13.381
  530ETHO    C1 4099  11.463  18.682  13.369
  530ETHO   H11 4100  11.500  18.683  13.473
  530ETHO   H13 4101  11.467  18.585  13.315
  530ETHO    C2 4102  11.531  18.792  13.292
  530ETHO   H21 4103  11.640  18.777  13.307
  530ETHO   H23 4104  11.499  18.896  13.317
  530ETHO    OZ 4105  11.506  18.770  13.156
  530ETHO   HZ1 4106  11.574  18.800  13.096
  531ETHO    O1 4107  15.584  19.720   8.855
  531ETHO   HO1 4108  15.607  19.745   8.945
  531ETHO    C1 4109  15.455  19.660   8.875
  531ETHO   H11 4110  15.383  19.735   8.915
  531ETHO   H13 4111  15.468  19.585   8.956
  531ETHO    C2 4112  15.383  19.605   8.747
  531ETHO   H21 4113  15.293  19.544   8.773
  531ETHO   H23 4114  15.458  19.545   8.692
  532ETHO    O1 4115  15.347  19.713   8.661
  532ETHO    C1 4116  15.294  19.659   8.541
  532ETHO   H11 4117  15.350  19.573   8.498
  532ETHO   H13 4118  15.201  19.609   8.577
  532ETHO    C2 4119  15.263  19.760   8.437
  532ETHO   H21 4120  15.215  19.714   8.349
  532ETHO   H23 4121  15.356  19.818   8.417
  533ETHO    O1 4122  15.163  19.856   8.469
  533ETHO    C1 4123  15.133  19.950   8.365
  533ETHO   H11 4124  15.098  19.899   8.273
  533ETHO   H13 4125  15.219  20.007   8.324
  533ETHO    C2 4126  15.020  20.048   8.412
  533ETHO   H21 4127  15.020  20.136   8.345
  533ETHO   H23 4128  15.045  20.069   8.519
  534ETHO    O1 4129  14.892  19.984   8.424
  534ETHO    C1 4130  14.790  20.083   8.414
  534ETHO   H11 4131  14.809  20.148   8.502
  534ETHO   H13 4132  14.800  20.133   8.316
  534ETHO    C2 4133  14.647  20.023   8.420
  534ETHO   H21 4134  14.579  20.098   8.466
  534ETHO   H23 4135  14.644  19.936   8.489
  535ETHO    O1 4136  14.601  19.998   8.289
  535ETHO    C1 4137  14.648  19.876   8.236
  535ETHO   H11 4138  14.758  19.869   8.249
  535ETHO   H13 4139  14.609  19.787   8.290
  535ETHO    C2 4140  14.602  19.858   8.092
  535ETHO   H21 4141  14.665  19.786   8.036
  535ETHO   H23 4142  14.602  19.956   8.041
  536ETHO    O1 4143  14.467  19.803   8.095
  536ETHO    C1 4144  14.409  19.759   7.967
  536ETHO   H11 4145  14.347  19.836   7.917
  536ETHO   H13 4146  14.495  19.739   7.900
  536ETHO    C2 4147  14.327  19.628   7.985
  536ETHO   H21 4148  14.389  19.558   8.045
  536ETHO   H23 4149  14.300  19.569   7.894
  537ETHO    O1 4150  14.209  19.652   8.054
  537ETHO    C1 4151  14.155  19.529   8.109
  537ETHO   H11 4152  14.136  19.471   8.016
  537ETHO   H13 4153  14.223  19.470   8.174
  537ETHO    C2 4154  14.027  19.543   8.190
  537ETHO   H21 4155  13.975  19.446   8.203
  537ETHO   H23 4156  13.951  19.597   8.130
  538ETHO    O1 4157  14.042  19.615   8.310
  538ETHO    C1 4158  13.924  19.640   8.384
  538ETHO   H11 4159  13.844  19.695   8.332
  538ETHO   H13 4160  13.963  19.699   8.470
  538ETHO    C2 4161  13.864  19.509   8.441
  538ETHO   H21 4162  13.804  19.528   8.533
  538ETHO   H23 4163  13.949  19.444   8.470
  539ETHO    O1 4164  13.782  19.445   8.343
  539ETHO    C1 4165  13.717  19.325   8.390
  539ETHO   H11 4166  13.794  19.255   8.429
  539ETHO   H13 4167  13.653  19.360   8.473
  539ETHO    C2 4168  13.632  19.246   8.283
  539ETHO   H21 4169  13.584  19.160   8.336
  539ETHO   H23 4170  13.696  19.211   8.199
  540ETHO    O1 4171  13.535  19.328   8.224
  540ETHO    C1 4172  13.442  19.258   8.151
  540ETHO   H11 4173  13.368  19.199   8.209
  540ETHO   H13 4174  13.484  19.193   8.071
  540ETHO    C2 4175  13.355  19.377   8.092
  540ETHO   H21 4176  13.271  19.329   8.038
  540ETHO   H23 4177  13.425  19.413   8.013
  541ETHO    O1 4178  13.306  19.482   8.178
  541ETHO    C1 4179  13.286  19.609   8.112
  541ETHO   H11 4180  13.224  19.674   8.177
  541ETHO   H13 4181  13.389  19.649   8.097
  541ETHO    C2 4182  13.210  19.602   7.981
  541ETHO   H21 4183  13.196  19.705   7.942
  541ETHO   H23 4184  13.260  19.538   7.904
  542ETHO    O1 4185  13.085  19.537   7.983
  542ETHO    C1 4186  13.015  19.563   7.865
  542ETHO   H11 4187  13.063  19.513   7.778
  542ETHO   H13 4188  12.994  19.670   7.843
  542ETHO    C2 4189  12.887  19.481   7.878
  542ETHO   H21 4190  12.813  19.536   7.817
  542ETHO   H23 4191  12.848  19.465   7.981
  543ETHO    O1 4192  12.903  19.349   7.821
  543ETHO    C1 4193  13.016  19.279   7.877
  543ETHO   H11 4194  13.111  19.312   7.831
  543ETHO   H13 4195  13.013  19.305   7.985
  543ETHO    C2 4196  13.000  19.127   7.852
  543ETHO   H21 4197  13.094  19.078   7.885
  543ETHO   H23 4198  13.005  19.120   7.741
  544ETHO    O1 4199  12.886  19.074   7.917
  544ETHO    C1 4200  12.897  18.936   7.905
  544ETHO   H11 4201  12.998  18.894   7.923
  544ETHO   H13 4202  12.881  18.925   7.796
  544ETHO    C2 4203  12.786  18.864   7.989
  544ETHO   H21 4204  12.775  18.759   7.952
  544ETHO   H23 4205  12.689  18.914   7.968
  545ETHO    O1 4206  12.814  18.851   8.120
  545ETHO    C1 4207  12.780  18.976   8.194
  545ETHO   H11 4208  12.836  19.060   8.149
  545ETHO   H13 4209  12.672  18.997   8.176
  545ETHO    C2 4210  12.798  18.961   8.342
  545ETHO   H21 4211  12.902  18.930   8.366
  545ETHO   H23 4212  12.786  19.058   8.396
  546ETHO    O1 4213  12.700  18.870   8.398
  546ETHO    C1 4214  12.748  18.818   8.526
  546ETHO   H11 4215  12.837  18.754   8.507
  546ETHO   H13 4216  12.760  18.900   8.599
  546ETHO    C2 4217  12.638  18.726   8.576
  546ETHO   H21 4218  12.541  18.781   8.570
  546ETHO   H23 4219  12.646  18.697   8.683
  547ETHO    O1 4220  12.631  18.603   8.503
  547ETHO    C1 4221  12.532  18.516   8.549
  547ETHO   H11 4222  12.571  18.412   8.542
  547ETHO   H13 4223  12.512  18.539   8.655
  547ETHO    C2 4224  12.404  18.520   8.465
  547ETHO   H21 4225  12.343  18.433   8.495
  547ETHO   H23 4226  12.432  18.526   8.358
  548ETHO    O1 4227  12.331  18.638   8.497
  548ETHO    C1 4228  12.224  18.657   8.403
  548ETHO   H11 4229  12.175  18.561   8.374
  548ETHO   H13 4230  12.145  18.700   8.469
  548ETHO    C2 4231  12.259  18.744   8.285
  548ETHO   H21 4232  12.199  18.726   8.194
  548ETHO   H23 4233  12.360  18.717   8.247
  549ETHO    O1 4234  12.240  18.884   8.309
  549ETHO    C1 4235  12.369  18.945   8.340
  549ETHO   H11 4236  12.448  18.926   8.265
  549ETHO   H13 4237  12.408  18.913   8.440
  549ETHO    C2 4238  12.348  19.100   8.351
  549ETHO   H21 4239  12.434  19.168   8.364
  549ETHO   H23 4240  12.269  19.138   8.420
  550ETHO    O1 4241  12.303  19.123   8.218
  550ETHO    C1 4242  12.312  19.262   8.182
  550ETHO   H11 4243  12.414  19.304   8.182
  550ETHO   H13 4244  12.280  19.268   8.076
  550ETHO    C2 4245  12.213  19.360   8.260
  550ETHO   H21 4246  12.118  19.304   8.277
  550ETHO   H23 4247  12.206  19.452   8.199
  551ETHO    O1 4248  12.266  19.402   8.390
  551ETHO    C1 4249  12.275  19.540   8.402
  551ETHO   H11 4250  12.178  19.587   8.377
  551ETHO   H13 4251  12.349  19.585   8.332
  551ETHO    C2 4252  12.302  19.581   8.546
  551ETHO   H21 4253  12.321  19.690   8.540
  551ETHO   H23 4254  12.382  19.513   8.581
  552ETHO    O1 4255  12.193  19.561   8.637
  552ETHO    C1 4256  12.229  19.606   8.772
  552ETHO   H11 4257  12.165  19.551   8.845
  552ETHO   H13 4258  12.336  19.584   8.792
  552ETHO    C2 4259  12.209  19.756   8.796
  552ETHO   H21 4260  12.122  19.793   8.737
  552ETHO   H23 4261  12.185  19.772   8.903
  553ETHO    O1 4262  12.324  19.832   8.768
  553ETHO    C1 4263  12.306  19.974   8.803
  553ETHO   H11 4264  12.199  20.001   8.817
  553ETHO   H13 4265  12.339  20.038   8.717
  553ETHO    C2 4266  12.367  20.004   8.944
  553ETHO   H21 4267  12.363  19.912   9.005
  553ETHO   H23 4268  12.316  20.091   8.991
  554ETHO    O1 4269  12.497  20.059   8.932
  554ETHO    C1 4270  12.563  20.068   9.055
  554ETHO   H11 4271  12.500  20.117   9.133
  554ETHO   H13 4272  12.581  19.966   9.095
  554ETHO    C2 4273  12.698  20.133   9.033
  554ETHO   H21 4274  12.750  20.104   8.939
  554ETHO   H23 4275  12.757  20.104   9.124
  555ETHO    O1 4276  12.681  20.278   9.031
  555ETHO    C1 4277  12.706  20.334   9.160
  555ETHO   H11 4278  12.811  20.306   9.185
  555ETHO   H13 4279  12.634  20.290   9.232
  555ETHO    C2 4280  12.701  20.485   9.186
  555ETHO   H21 4281  12.700  20.490   9.297
  555ETHO   H23 4282  12.606  20.522   9.141
  556ETHO    O1 4283  12.804  20.565   9.123
  556ETHO    C1 4284  12.785  20.699   9.153
  556ETHO   H11 4285  12.691  20.737   9.108
  556ETHO   H13 4286  12.770  20.720   9.261
  556ETHO    C2 4287  12.909  20.779   9.102
  556ETHO   H21 4288  12.896  20.889   9.104
  556ETHO   H23 4289  12.930  20.753   8.996
  557ETHO    O1 4290  13.020  20.750   9.189
  557ETHO    C1 4291  13.145  20.803   9.141
  557ETHO   H11 4292  13.159  20.913   9.146
  557ETHO   H13 4293  13.150  20.769   9.036
  557ETHO    C2 4294  13.263  20.755   9.235
  557ETHO   H21 4295  13.254  20.800   9.336
  557ETHO   H23 4296  13.361  20.786   9.193
  558ETHO    O1 4297  13.270  20.616   9.232
  558ETHO    C1 4298  13.376  20.565   9.310
  558ETHO   H11 4299  13.471  20.618   9.288
  558ETHO   H13 4300  13.354  20.577   9.418
  558ETHO    C2 4301  13.396  20.410   9.277
  558ETHO   H21 4302  13.488  20.377   9.329
  558ETHO   H23 4303  13.400  20.392   9.167
  559ETHO    O1 4304  13.288  20.332   9.325
  559ETHO    C1 4305  13.320  20.197   9.304
  559ETHO   H11 4306  13.429  20.175   9.298
  559ETHO   H13 4307  13.269  20.167   9.210
  559ETHO    C2 4308  13.267  20.109   9.421
  559ETHO   H21 4309  13.300  20.151   9.519
  559ETHO   H23 4310  13.328  20.016   9.414
  560ETHO    O1 4311  13.131  20.070   9.420
  560ETHO    C1 4312  13.055  20.133   9.525
  560ETHO   H11 4313  13.083  20.238   9.548
  560ETHO   H13 4314  12.947  20.124   9.501
  560ETHO    C2 4315  13.063  20.045   9.655
  560ETHO   H21 4316  13.043  19.938   9.636
  560ETHO   H23 4317  12.982  20.085   9.720
  561ETHO    O1 4318  13.195  20.054   9.718
  561ETHO    C1 4319  13.183  20.068   9.860
  561ETHO   H11 4320  13.134  20.166   9.871
  561ETHO   H13 4321  13.115  19.990   9.901
  561ETHO    C2 4322  13.323  20.072   9.931
  561ETHO   H21 4323  13.384  19.987   9.893
  561ETHO   H23 4324  13.300  20.057  10.038
  562ETHO    O1 4325  13.378  20.205   9.920
  562ETHO    C1 4326  13.450  20.236   9.806
  562ETHO   H11 4327  13.554  20.259   9.837
  562ETHO   H13 4328  13.469  20.148   9.741
  562ETHO    C2 4329  13.396  20.359   9.724
  562ETHO   H21 4330  13.285  20.360   9.714
  562ETHO   H23 4331  13.446  20.358   9.625
  563ETHO    O1 4332  13.443  20.480   9.782
  563ETHO    C1 4333  13.384  20.593   9.717
  563ETHO   H11 4334  13.430  20.683   9.763
  563ETHO   H13 4335  13.412  20.604   9.610
  563ETHO    C2 4336  13.230  20.623   9.722
  563ETHO   H21 4337  13.194  20.642   9.825
  563ETHO   H23 4338  13.187  20.528   9.683
  564ETHO    O1 4339  13.190  20.733   9.634
  564ETHO    C1 4340  13.055  20.780   9.648
  564ETHO   H11 4341  13.038  20.816   9.752
  564ETHO   H13 4342  12.989  20.694   9.624
  564ETHO    C2 4343  13.008  20.879   9.534
  564ETHO   H21 4344  12.898  20.883   9.546
  564ETHO   H23 4345  13.036  20.850   9.431
  565ETHO    O1 4346  13.072  21.003   9.563
  565ETHO    C1 4347  13.026  21.114   9.491
  565ETHO   H11 4348  13.021  21.086   9.384
  565ETHO   H13 4349  12.919  21.123   9.520
  565ETHO    C2 4350  13.093  21.244   9.529
  565ETHO   H21 4351  13.078  21.263   9.637
  565ETHO   H23 4352  13.042  21.325   9.474
  566ETHO    O1 4353  13.235  21.243   9.496
  566ETHO    C1 4354  13.314  21.307   9.592
  566ETHO   H11 4355  13.304  21.235   9.676
  566ETHO   H13 4356  13.284  21.408   9.627
  566ETHO    C2 4357  13.463  21.308   9.544
  566ETHO   H21 4358  13.492  21.202   9.532
  566ETHO   H23 4359  13.532  21.354   9.618
  567ETHO    O1 4360  13.481  21.364   9.416
  567ETHO    C1 4361  13.617  21.356   9.382
  567ETHO   H11 4362  13.644  21.441   9.315
  567ETHO   H13 4363  13.678  21.381   9.472
  567ETHO    C2 4364  13.662  21.238   9.305
  567ETHO   H21 4365  13.649  21.149   9.371
  567ETHO   H23 4366  13.768  21.255   9.275
  568ETHO    O1 4367  13.577  21.232   9.190
  568ETHO    C1 4368  13.596  21.105   9.117
  568ETHO   H11 4369  13.604  21.024   9.192
  568ETHO   H13 4370  13.689  21.101   9.056
  568ETHO    C2 4371  13.483  21.076   9.024
  568ETHO   H21 4372  13.388  21.044   9.072
  568ETHO   H23 4373  13.509  20.988   8.961
  569ETHO    O1 4374  13.462  21.179   8.934
  569ETHO    C1 4375  13.368  21.145   8.834
  569ETHO   H11 4376  13.397  21.068   8.759
  569ETHO   H13 4377  13.283  21.109   8.895
  569ETHO    C2 4378  13.310  21.267   8.759
  569ETHO   H21 4379  13.253  21.236   8.669
  569ETHO   H23 4380  13.400  21.324   8.727
  570ETHO    O1 4381  13.230  21.338   8.851
  570ETHO    C1 4382  13.154  21.432   8.784
  570ETHO   H11 4383  13.103  21.387   8.696
  570ETHO   H13 4384  13.226  21.507   8.746
  570ETHO    C2 4385  13.050  21.517   8.867
  570ETHO   H21 4386  13.016  21.602   8.804
  570ETHO   H23 4387  13.100  21.565   8.953
  571ETHO    O1 4388  12.935  21.441   8.901
  571ETHO    C1 4389  12.826  21.513   8.961
  571ETHO   H11 4390  12.868  21.562   9.052
  571ETHO   H13 4391  12.799  21.601   8.900
  571ETHO    C2 4392  12.695  21.439   8.999
  571ETHO   H21 4393  12.628  21.516   9.043
  571ETHO   H23 4394  12.718  21.361   9.074
  572ETHO    O1 4395  12.637  21.383   8.884
  572ETHO    C1 4396  12.514  21.327   8.923
  572ETHO   H11 4397  12.527  21.260   9.010
  572ETHO   H13 4398  12.451  21.411   8.960
  572ETHO    C2 4399  12.455  21.240   8.813
  572ETHO   H21 4400  12.364  21.185   8.847
  572ETHO   H23 4401  12.527  21.159   8.791
  573ETHO    O1 4402  12.432  21.323   8.697
  573ETHO    C1 4403  12.292  21.340   8.674
  573ETHO   H11 4404  12.266  21.383   8.774
  573ETHO   H13 4405  12.280  21.417   8.595
  573ETHO    C2 4406  12.230  21.208   8.628
  573ETHO   H21 4407  12.203  21.143   8.715
  573ETHO   H23 4408  12.299  21.155   8.558
  574ETHO    O1 4409  12.111  21.241   8.555
  574ETHO    C1 4410  12.068  21.153   8.452
  574ETHO   H11 4411  11.987  21.211   8.402
  574ETHO   H13 4412  12.149  21.135   8.378
  574ETHO    C2 4413  12.016  21.020   8.508
  574ETHO   H21 4414  12.088  20.969   8.576
  574ETHO   H23 4415  11.991  20.961   8.418
  575ETHO    O1 4416  11.896  21.042   8.575
  575ETHO    C1 4417  11.896  20.986   8.710
  575ETHO   H11 4418  11.795  21.022   8.740
  575ETHO   H13 4419  11.975  21.037   8.770
  575ETHO    C2 4420  11.904  20.831   8.733
  575ETHO   H21 4421  11.831  20.784   8.664
  575ETHO   H23 4422  11.880  20.819   8.841
  576ETHO    O1 4423  12.029  20.768   8.688
  576ETHO    C1 4424  12.131  20.775   8.780
  576ETHO   H11 4425  12.164  20.881   8.777
  576ETHO   H13 4426  12.090  20.747   8.880
  576ETHO    C2 4427  12.234  20.676   8.734
  576ETHO   H21 4428  12.195  20.572   8.727
  576ETHO   H23 4429  12.314  20.673   8.811
  577ETHO    O1 4430  12.290  20.718   8.614
  577ETHO    C1 4431  12.370  20.622   8.548
  577ETHO   H11 4432  12.403  20.666   8.451
  577ETHO   H13 4433  12.304  20.534   8.529
  577ETHO    C2 4434  12.492  20.575   8.625
  577ETHO   H21 4435  12.533  20.489   8.567
  577ETHO   H23 4436  12.457  20.525   8.719
  578ETHO    O1 4437  12.589  20.669   8.645
  578ETHO    C1 4438  12.704  20.615   8.707
  578ETHO   H11 4439  12.679  20.588   8.812
  578ETHO   H13 4440  12.731  20.518   8.660
  578ETHO    C2 4441  12.836  20.693   8.699
  578ETHO   H21 4442  12.912  20.646   8.765
  578ETHO   H23 4443  12.877  20.685   8.596
  579ETHO    O1 4444  12.813  20.832   8.742
  579ETHO    C1 4445  12.927  20.917   8.727
  579ETHO   H11 4446  13.005  20.877   8.659
  579ETHO   H13 4447  12.974  20.929   8.827
  579ETHO    C2 4448  12.881  21.054   8.658
  579ETHO   H21 4449  12.958  21.127   8.692
  579ETHO   H23 4450  12.787  21.086   8.709
  580ETHO    O1 4451  12.875  21.037   8.515
  580ETHO    C1 4452  12.831  21.161   8.454
  580ETHO   H11 4453  12.868  21.243   8.519
  580ETHO   H13 4454  12.876  21.173   8.354
  580ETHO    C2 4455  12.680  21.168   8.446
  580ETHO   H21 4456  12.648  21.267   8.406
  580ETHO   H23 4457  12.643  21.144   8.548
  581ETHO    O1 4458  12.633  21.078   8.349
  581ETHO    C1 4459  12.626  21.126   8.211
  581ETHO   H11 4460  12.730  21.140   8.174
  581ETHO   H13 4461  12.581  21.227   8.218
  581ETHO    C2 4462  12.558  21.026   8.113
  581ETHO   H21 4463  12.548  21.062   8.008
  581ETHO   H23 4464  12.466  20.995   8.165
  582ETHO    O1 4465  12.637  20.913   8.124
  582ETHO    C1 4466  12.631  20.824   8.018
  582ETHO   H11 4467  12.672  20.725   8.047
  582ETHO   H13 4468  12.522  20.807   8.002
  582ETHO    C2 4469  12.716  20.868   7.900
  582ETHO   H21 4470  12.740  20.778   7.840
  582ETHO   H23 4471  12.817  20.901   7.932
  583ETHO    O1 4472  12.654  20.970   7.819
  583ETHO    C1 4473  12.725  21.092   7.837
  583ETHO   H11 4474  12.729  21.119   7.945
  583ETHO   H13 4475  12.830  21.087   7.802
  583ETHO    C2 4476  12.645  21.197   7.752
  583ETHO   H21 4477  12.665  21.302   7.782
  583ETHO   H23 4478  12.538  21.185   7.777
  584ETHO    O1 4479  12.659  21.187   7.612
  584ETHO    C1 4480  12.784  21.241   7.569
  584ETHO   H11 4481  12.764  21.345   7.601
  584ETHO   H13 4482  12.875  21.194   7.611
  584ETHO    C2 4483  12.804  21.256   7.418
  584ETHO   H21 4484  12.888  21.325   7.396
  584ETHO   H23 4485  12.712  21.305   7.379
  585ETHO    O1 4486  12.835  21.137   7.349
  585ETHO    C1 4487  12.963  21.083   7.395
  585ETHO   H11 4488  13.041  21.161   7.408
  585ETHO   H13 4489  12.939  21.026   7.488
  585ETHO    C2 4490  12.999  20.968   7.293
  585ETHO   H21 4491  13.076  20.894   7.322
  585ETHO   H23 4492  12.911  20.901   7.286
  586ETHO    O1 4493  13.042  21.025   7.170
  586ETHO    C1 4494  13.162  21.095   7.164
  586ETHO   H11 4495  13.165  21.168   7.247
  586ETHO   H13 4496  13.152  21.132   7.059
  586ETHO    C2 4497  13.291  21.007   7.171
  586ETHO   H21 4498  13.377  21.061   7.127
  586ETHO   H23 4499  13.267  20.916   7.112
  587ETHO    O1 4500  13.313  20.975   7.312
  587ETHO    C1 4501  13.422  20.891   7.346
  587ETHO   H11 4502  13.507  20.932   7.287
  587ETHO   H13 4503  13.440  20.903   7.456
  587ETHO    C2 4504  13.404  20.745   7.307
  587ETHO   H21 4505  13.501  20.712   7.263
  587ETHO   H23 4506  13.334  20.732   7.221
  588ETHO    O1 4507  13.369  20.652   7.410
  588ETHO    C1 4508  13.482  20.643   7.508
  588ETHO   H11 4509  13.499  20.741   7.557
  588ETHO   H13 4510  13.579  20.604   7.470
  588ETHO    C2 4511  13.444  20.554   7.629
  588ETHO   H21 4512  13.534  20.506   7.674
  588ETHO   H23 4513  13.373  20.473   7.601
  589ETHO    O1 4514  13.385  20.634   7.721
  589ETHO    C1 4515  13.352  20.565   7.837
  589ETHO   H11 4516  13.273  20.490   7.815
  589ETHO   H13 4517  13.441  20.509   7.872
  589ETHO    C2 4518  13.298  20.657   7.949
  589ETHO   H21 4519  13.265  20.596   8.036
  589ETHO   H23 4520  13.206  20.703   7.906
  590ETHO    O1 4521  13.387  20.757   7.997
  590ETHO    C1 4522  13.322  20.848   8.085
  590ETHO   H11 4523  13.267  20.793   8.164
  590ETHO   H13 4524  13.238  20.895   8.029
  590ETHO    C2 4525  13.418  20.961   8.132
  590ETHO   H21 4526  13.510  20.917   8.174
  590ETHO   H23 4527  13.362  21.022   8.206
  591ETHO    O1 4528  13.445  21.049   8.019
  591ETHO    C1 4529  13.533  21.159   8.055
  591ETHO   H11 4530  13.510  21.195   8.157
  591ETHO   H13 4531  13.640  21.130   8.061
  591ETHO    C2 4532  13.523  21.275   7.957
  591ETHO   H21 4533  13.561  21.369   8.004
  591ETHO   H23 4534  13.417  21.289   7.927
  592ETHO    O1 4535  13.572  21.250   7.826
  592ETHO    C1 4536  13.581  21.378   7.761
  592ETHO   H11 4537  13.661  21.432   7.816
  592ETHO   H13 4538  13.485  21.433   7.774
  592ETHO    C2 4539  13.603  21.375   7.613
  592ETHO   H21 4540  13.685  21.302   7.590
  592ETHO   H23 4541  13.630  21.474   7.571
  593ETHO    O1 4542  13.484  21.354   7.530
  593ETHO    C1 4543  13.506  21.352   7.392
  593ETHO   H11 4544  13.538  21.451   7.353
  593ETHO   H13 4545  13.593  21.286   7.368
  593ETHO    C2 4546  13.386  21.313   7.308
  593ETHO   H21 4547  13.344  21.218   7.348
  593ETHO   H23 4548  13.431  21.283   7.211
  594ETHO    O1 4549  13.285  21.410   7.294
  594ETHO    C1 4550  13.329  21.512   7.211
  594ETHO   H11 4551  13.383  21.475   7.121
  594ETHO   H13 4552  13.396  21.575   7.273
  594ETHO    C2 4553  13.200  21.593   7.172
  594ETHO   H21 4554  13.123  21.513   7.162
  594ETHO   H23 4555  13.214  21.664   7.087
  595ETHO    O1 4556  13.170  21.668   7.290
  595ETHO    C1 4557  13.058  21.764   7.266
  595ETHO   H11 4558  13.098  21.855   7.216
  595ETHO   H13 4559  12.988  21.711   7.199
  595ETHO    C2 4560  12.997  21.818   7.388
  595ETHO   H21 4561  12.943  21.908   7.353
  595ETHO   H23 4562  13.075  21.848   7.462
  596ETHO    O1 4563  12.912  21.721   7.444
  596ETHO    C1 4564  12.830  21.769   7.553
  596ETHO   H11 4565  12.777  21.861   7.519
  596ETHO   H13 4566  12.897  21.793   7.638
  596ETHO    C2 4567  12.731  21.657   7.577
  596ETHO   H21 4568  12.668  21.674   7.667
  596ETHO   H23 4569  12.784  21.562   7.595
  597ETHO    O1 4570  12.647  21.647   7.460
  597ETHO    C1 4571  12.544  21.545   7.488
  597ETHO   H11 4572  12.584  21.445   7.515
  597ETHO   H13 4573  12.492  21.569   7.584
  597ETHO    C2 4574  12.448  21.529   7.375
  597ETHO   H21 4575  12.381  21.617   7.368
  597ETHO   H23 4576  12.392  21.435   7.391
  598ETHO    O1 4577  12.512  21.516   7.249
  598ETHO    C1 4578  12.418  21.515   7.143
  598ETHO   H11 4579  12.377  21.413   7.126
  598ETHO   H13 4580  12.330  21.577   7.172
  598ETHO    C2 4581  12.482  21.574   7.017
  598ETHO   H21 4582  12.423  21.542   6.928
  598ETHO   H23 4583  12.585  21.533   7.006
  599ETHO    O1 4584  12.474  21.717   7.025
  599ETHO    C1 4585  12.575  21.771   6.948
  599ETHO   H11 4586  12.662  21.765   7.016
  599ETHO   H13 4587  12.591  21.709   6.858
  599ETHO    C2 4588  12.572  21.918   6.924
  599ETHO   H21 4589  12.488  21.930   6.852
  599ETHO   H23 4590  12.656  21.954   6.861
  600ETHO    O1 4591  12.549  22.005   7.038
  600ETHO    C1 4592  12.512  22.132   6.989
  600ETHO   H11 4593  12.466  22.132   6.888
  600ETHO   H13 4594  12.426  22.162   7.051
  600ETHO    C2 4595  12.635  22.231   6.986
  600ETHO   H21 4596  12.704  22.200   6.905
  600ETHO   H23 4597  12.680  22.225   7.088
  601ETHO    O1 4598  12.589  22.364   6.967
  601ETHO    C1 4599  12.518  22.390   6.839
  601ETHO   H11 4600  12.409  22.383   6.858
  601ETHO   H13 4601  12.537  22.311   6.763
  601ETHO    C2 4602  12.566  22.519   6.767
  601ETHO   H21 4603  12.562  22.605   6.837
  601ETHO   H23 4604  12.488  22.547   6.693
  602ETHO    O1 4605  12.689  22.514   6.695
  602ETHO    C1 4606  12.799  22.530   6.779
  602ETHO   H11 4607  12.767  22.538   6.885
  602ETHO   H13 4608  12.863  22.440   6.767
  602ETHO    C2 4609  12.884  22.652   6.747
  602ETHO   H21 4610  12.929  22.646   6.646
  602ETHO   H23 4611  12.969  22.662   6.818
  603ETHO    O1 4612  12.814  22.773   6.762
  603ETHO    C1 4613  12.899  22.875   6.715
  603ETHO   H11 4614  12.876  22.885   6.607
  603ETHO   H13 4615  13.008  22.855   6.726
  603ETHO    C2 4616  12.861  23.009   6.782
  603ETHO   H21 4617  12.759  23.043   6.754
  603ETHO   H23 4618  12.929  23.078   6.728
  604ETHO    O1 4619  12.900  23.027   6.919
  604ETHO    C1 4620  12.830  22.943   7.008
  604ETHO   H11 4621  12.725  22.933   6.973
  604ETHO   H13 4622  12.891  22.850   7.013
  604ETHO    C2 4623  12.825  23.004   7.149
  604ETHO   H21 4624  12.743  22.951   7.202
  604ETHO   H23 4625  12.812  23.113   7.130
  605ETHO    O1 4626  12.942  22.981   7.215
  605ETHO    C1 4627  12.936  23.049   7.338
  605ETHO   H11 4628  12.860  23.013   7.411
  605ETHO   H13 4629  12.951  23.158   7.321
  605ETHO    C2 4630  13.069  23.004   7.409
  605ETHO   H21 4631  13.090  23.078   7.490
  605ETHO   H23 4632  13.151  23.017   7.336
  606ETHO    O1 4633  13.050  22.866   7.446
  606ETHO    C1 4634  13.163  22.815   7.521
  606ETHO   H11 4635  13.261  22.847   7.481
  606ETHO   H13 4636  13.150  22.857   7.623
  606ETHO    C2 4637  13.150  22.669   7.555
  606ETHO   H21 4638  13.047  22.637   7.581
  606ETHO   H23 4639  13.212  22.656   7.646
  607ETHO    O1 4640  13.196  22.591   7.443
  607ETHO    C1 4641  13.201  22.450   7.467
  607ETHO   H11 4642  13.104  22.418   7.510
  607ETHO   H13 4643  13.285  22.419   7.532
  607ETHO    C2 4644  13.234  22.396   7.328
  607ETHO   H21 4645  13.337  22.433   7.303
  607ETHO   H23 4646  13.171  22.427   7.242
  608ETHO    O1 4647  13.248  22.258   7.346
  608ETHO    C1 4648  13.310  22.194   7.235
  608ETHO   H11 4649  13.233  22.190   7.155
  608ETHO   H13 4650  13.402  22.247   7.203
  608ETHO    C2 4651  13.354  22.046   7.269
  608ETHO   H21 4652  13.381  21.997   7.174
  608ETHO   H23 4653  13.269  21.988   7.310
  609ETHO    O1 4654  13.458  22.019   7.372
  609ETHO    C1 4655  13.518  21.889   7.357
  609ETHO   H11 4656  13.442  21.819   7.317
  609ETHO   H13 4657  13.591  21.895   7.273
  609ETHO    C2 4658  13.574  21.831   7.490
  609ETHO   H21 4659  13.664  21.888   7.518
  609ETHO   H23 4660  13.598  21.727   7.458
  610ETHO    O1 4661  13.482  21.839   7.597
  610ETHO    C1 4662  13.422  21.713   7.634
  610ETHO   H11 4663  13.402  21.651   7.544
  610ETHO   H13 4664  13.497  21.649   7.685
  610ETHO    C2 4665  13.290  21.731   7.710
  610ETHO   H21 4666  13.239  21.633   7.726
  610ETHO   H23 4667  13.228  21.805   7.655
  611ETHO    O1 4668  13.316  21.797   7.837
  611ETHO    C1 4669  13.201  21.814   7.918
  611ETHO   H11 4670  13.138  21.889   7.865
  611ETHO   H13 4671  13.135  21.725   7.920
  611ETHO    C2 4672  13.212  21.854   8.067
  611ETHO   H21 4673  13.261  21.953   8.074
  611ETHO   H23 4674  13.118  21.863   8.125
  612ETHO    O1 4675  13.282  21.749   8.133
  612ETHO    C1 4676  13.282  21.757   8.281
  612ETHO   H11 4677  13.174  21.762   8.308
  612ETHO   H13 4678  13.326  21.855   8.309
  612ETHO    C2 4679  13.356  21.635   8.336
  612ETHO   H21 4680  13.362  21.657   8.445
  612ETHO   H23 4681  13.459  21.641   8.294
  613ETHO    O1 4682  13.277  21.518   8.309
  613ETHO    C1 4683  13.327  21.406   8.381
  613ETHO   H11 4684  13.424  21.385   8.332
  613ETHO   H13 4685  13.353  21.436   8.484
  613ETHO    C2 4686  13.234  21.289   8.379
  613ETHO   H21 4687  13.204  21.267   8.274
  613ETHO   H23 4688  13.143  21.310   8.439
  614ETHO    O1 4689  13.304  21.180   8.443
  614ETHO    C1 4690  13.224  21.061   8.457
  614ETHO   H11 4691  13.178  21.040   8.358
  614ETHO   H13 4692  13.143  21.069   8.532
  614ETHO    C2 4693  13.312  20.940   8.488
  614ETHO   H21 4694  13.420  20.962   8.496
  614ETHO   H23 4695  13.300  20.874   8.399
  615ETHO    O1 4696  13.275  20.864   8.601
  615ETHO    C1 4697  13.314  20.727   8.596
  615ETHO   H11 4698  13.234  20.680   8.534
  615ETHO   H13 4699  13.416  20.702   8.559
  615ETHO    C2 4700  13.304  20.657   8.742
  615ETHO   H21 4701  13.281  20.734   8.819
  615ETHO   H23 4702  13.404  20.611   8.759
  616ETHO    O1 4703  13.205  20.559   8.759
  616ETHO    C1 4704  13.231  20.492   8.884
  616ETHO   H11 4705  13.245  20.568   8.964
  616ETHO   H13 4706  13.319  20.424   8.883
  616ETHO    C2 4707  13.112  20.407   8.939
  616ETHO   H21 4708  13.013  20.458   8.939
  616ETHO   H23 4709  13.148  20.363   9.034
  617ETHO    O1 4710  13.085  20.292   8.856
  617ETHO    C1 4711  13.153  20.172   8.904
  617ETHO   H11 4712  13.263  20.189   8.902
  617ETHO   H13 4713  13.116  20.170   9.009
  617ETHO    C2 4714  13.120  20.041   8.824
  617ETHO   H21 4715  13.190  19.967   8.867
  617ETHO   H23 4716  13.126  20.056   8.714
  618ETHO    O1 4717  12.989  19.989   8.843
  618ETHO    C1 4718  12.971  19.900   8.955
  618ETHO   H11 4719  12.960  19.969   9.041
  618ETHO   H13 4720  13.057  19.831   8.967
  618ETHO    C2 4721  12.849  19.812   8.948
  618ETHO   H21 4722  12.760  19.871   8.918
  618ETHO   H23 4723  12.832  19.766   9.048
  619ETHO    O1 4724  12.881  19.710   8.849
  619ETHO    C1 4725  12.769  19.681   8.771
  619ETHO   H11 4726  12.670  19.700   8.818
  619ETHO   H13 4727  12.771  19.762   8.695
  619ETHO    C2 4728  12.768  19.545   8.702
  619ETHO   H21 4729  12.847  19.543   8.624
  619ETHO   H23 4730  12.672  19.514   8.654
  620ETHO    O1 4731  12.787  19.439   8.789
  620ETHO    C1 4732  12.769  19.312   8.719
  620ETHO   H11 4733  12.666  19.310   8.678
  620ETHO   H13 4734  12.838  19.322   8.632
  620ETHO    C2 4735  12.807  19.189   8.802
  620ETHO   H21 4736  12.897  19.207   8.865
  620ETHO   H23 4737  12.823  19.107   8.729
  621ETHO    O1 4738  12.693  19.155   8.886
  621ETHO    C1 4739  12.734  19.082   9.004
  621ETHO   H11 4740  12.800  18.995   8.981
  621ETHO   H13 4741  12.788  19.159   9.064
  621ETHO    C2 4742  12.617  19.014   9.080
  621ETHO   H21 4743  12.533  19.083   9.100
  621ETHO   H23 4744  12.643  18.981   9.183
  622ETHO    O1 4745  12.581  18.898   9.003
  622ETHO    C1 4746  12.483  18.820   9.079
  622ETHO   H11 4747  12.414  18.887   9.137
  622ETHO   H13 4748  12.427  18.759   9.005
  622ETHO    C2 4749  12.535  18.708   9.175
  622ETHO   H21 4750  12.446  18.664   9.225
  622ETHO   H23 4751  12.601  18.746   9.256
  623ETHO    O1 4752  12.601  18.592   9.122
  623ETHO    C1 4753  12.585  18.472   9.201
  623ETHO   H11 4754  12.480  18.437   9.197
  623ETHO   H13 4755  12.622  18.497   9.303
  623ETHO    C2 4756  12.672  18.350   9.149
  623ETHO   H21 4757  12.717  18.312   9.244
  623ETHO   H23 4758  12.754  18.386   9.083
  624ETHO    O1 4759  12.593  18.250   9.090
  624ETHO    C1 4760  12.679  18.162   9.008
  624ETHO   H11 4761  12.614  18.126   8.925
  624ETHO   H13 4762  12.761  18.228   8.970
  624ETHO    C2 4763  12.737  18.040   9.076
  624ETHO   H21 4764  12.779  18.062   9.177
  624ETHO   H23 4765  12.825  18.008   9.017
  625ETHO    O1 4766  12.649  17.922   9.073
  625ETHO    C1 4767  12.614  17.879   9.206
  625ETHO   H11 4768  12.509  17.843   9.209
  625ETHO   H13 4769  12.599  17.965   9.274
  625ETHO    C2 4770  12.722  17.772   9.257
  625ETHO   H21 4771  12.691  17.737   9.357
  625ETHO   H23 4772  12.818  17.827   9.264
  626ETHO    O1 4773  12.720  17.671   9.157
  626ETHO    C1 4774  12.761  17.546   9.215
  626ETHO   H11 4775  12.859  17.564   9.263
  626ETHO   H13 4776  12.688  17.518   9.294
  626ETHO    C2 4777  12.760  17.433   9.118
  626ETHO   H21 4778  12.865  17.418   9.085
  626ETHO   H23 4779  12.700  17.444   9.025
  627ETHO    O1 4780  12.709  17.309   9.172
  627ETHO    C1 4781  12.741  17.203   9.077
  627ETHO   H11 4782  12.850  17.181   9.071
  627ETHO   H13 4783  12.709  17.226   8.973
  627ETHO    C2 4784  12.674  17.068   9.128
  627ETHO   H21 4785  12.712  17.041   9.229
  627ETHO   H23 4786  12.711  16.989   9.060
  628ETHO    O1 4787  12.536  17.068   9.130
  628ETHO    C1 4788  12.494  16.948   9.190
  628ETHO   H11 4789  12.429  16.893   9.119
  628ETHO   H13 4790  12.578  16.880   9.214
  628ETHO    C2 4791  12.414  16.957   9.322
  628ETHO   H21 4792  12.361  16.860   9.328
  628ETHO   H23 4793  12.341  17.040   9.313
  629ETHO    O1 4794  12.486  16.978   9.447
  629ETHO    C1 4795  12.395  16.982   9.550
  629ETHO   H11 4796  12.328  16.893   9.555
  629ETHO   H13 4797  12.321  17.061   9.526
  629ETHO    C2 4798  12.466  17.030   9.682
  629ETHO   H21 4799  12.383  17.080   9.735
  629ETHO   H23 4800  12.539  17.107   9.649
  630ETHO    O1 4801  12.522  16.914   9.742
  630ETHO    C1 4802  12.643  16.938   9.823
  630ETHO   H11 4803  12.708  17.015   9.776
  630ETHO   H13 4804  12.616  16.975   9.925
  630ETHO    C2 4805  12.734  16.809   9.838
  630ETHO   H21 4806  12.823  16.858   9.884
  630ETHO   H23 4807  12.761  16.749   9.749
  631PROX    O1 4808  12.683  16.720   9.944
  631PROX    C1 4809  12.773  16.617   9.988
  631PROX   H11 4810  12.808  16.564   9.897
  631PROX   H13 4811  12.860  16.648  10.049
  631PROX    C2 4812  12.684  16.514  10.076
  631PROX   H21 4813  12.743  16.420  10.074
  631PROX    C3 4814  12.549  16.475  10.009
  631PROX   H31 4815  12.555  16.440   9.904
  631PROX   H32 4816  12.505  16.393  10.070
  631PROX   H33 4817  12.485  16.565  10.023
  632PROX    O1 4818  12.669  16.556  10.209
  632PROX    C1 4819  12.773  16.506  10.291
  632PROX   H11 4820  12.862  16.494  10.225
  632PROX   H13 4821  12.807  16.576  10.370
  632PROX    C2 4822  12.734  16.377  10.366
  632PROX   H21 4823  12.666  16.321  10.298
  632PROX    C3 4824  12.670  16.394  10.508
  632PROX   H31 4825  12.754  16.408  10.579
  632PROX   H32 4826  12.585  16.466  10.512
  632PROX   H33 4827  12.633  16.292  10.531
  633PROX    O1 4828  12.853  16.305  10.368
  633PROX    C1 4829  12.836  16.168  10.376
  633PROX   H11 4830  12.873  16.138  10.477
  633PROX   H13 4831  12.730  16.143  10.354
  633PROX    C2 4832  12.916  16.105  10.261
  633PROX   H21 4833  13.022  16.136  10.267
  633PROX    C3 4834  12.869  16.146  10.122
  633PROX   H31 4835  12.915  16.082  10.044
  633PROX   H32 4836  12.762  16.124  10.106
  633PROX   H33 4837  12.892  16.254  10.110
  634PROX    O1 4838  12.898  15.964  10.263
  634PROX    C1 4839  12.997  15.899  10.351
  634PROX   H11 4840  13.088  15.872  10.293
  634PROX   H13 4841  13.026  15.979  10.423
  634PROX    C2 4842  12.949  15.777  10.428
  634PROX   H21 4843  12.947  15.691  10.357
  634PROX    C3 4844  12.803  15.810  10.471
  634PROX   H31 4845  12.786  15.911  10.516
  634PROX   H32 4846  12.741  15.805  10.379
  634PROX   H33 4847  12.769  15.741  10.551
  635PROX    O1 4848  13.036  15.756  10.536
  635PROX    C1 4849  13.005  15.656  10.631
  635PROX   H11 4850  12.913  15.689  10.685
  635PROX   H13 4851  12.977  15.561  10.581
  635PROX    C2 4852  13.128  15.631  10.719
  635PROX   H21 4853  13.222  15.619  10.661
  635PROX    C3 4854  13.132  15.497  10.801
  635PROX   H31 4855  13.214  15.495  10.875
  635PROX   H32 4856  13.035  15.500  10.856
  635PROX   H33 4857  13.142  15.408  10.735
  636PROX    O1 4858  13.145  15.736  10.813
  636PROX    C1 4859  13.251  15.829  10.764
  636PROX   H11 4860  13.355  15.819  10.802
  636PROX   H13 4861  13.250  15.827  10.653
  636PROX    C2 4862  13.208  15.980  10.802
  636PROX   H21 4863  13.105  16.001  10.765
  636PROX    C3 4864  13.310  16.084  10.759
  636PROX   H31 4865  13.312  16.110  10.651
  636PROX   H32 4866  13.283  16.176  10.815
  636PROX   H33 4867  13.412  16.056  10.792
  637PROX    O1 4868  13.205  15.983  10.947
  637PROX    C1 4869  13.128  16.085  11.008
  637PROX   H11 4870  13.159  16.183  10.966
  637PROX   H13 4871  13.023  16.065  10.978
  637PROX    C2 4872  13.146  16.080  11.160
  637PROX   H21 4873  13.201  15.993  11.200
  637PROX    C3 4874  13.003  16.072  11.218
  637PROX   H31 4875  12.969  15.970  11.191
  637PROX   H32 4876  13.013  16.077  11.329
  637PROX   H33 4877  12.931  16.152  11.191
  638PROX    O1 4878  13.213  16.204  11.212
  638PROX    C1 4879  13.357  16.203  11.201
  638PROX   H11 4880  13.397  16.099  11.210
  638PROX   H13 4881  13.384  16.239  11.100
  638PROX    C2 4882  13.437  16.291  11.304
  638PROX   H21 4883  13.409  16.269  11.409
  638PROX    C3 4884  13.416  16.442  11.286
  638PROX   H31 4885  13.446  16.473  11.183
  638PROX   H32 4886  13.308  16.469  11.293
  638PROX   H33 4887  13.475  16.505  11.355
  639PROX    O1 4888  13.576  16.261  11.290
  639PROX    C1 4889  13.647  16.265  11.414
  639PROX   H11 4890  13.642  16.368  11.455
  639PROX   H13 4891  13.603  16.190  11.482
  639PROX    C2 4892  13.795  16.222  11.394
  639PROX   H21 4893  13.789  16.134  11.327
  639PROX    C3 4894  13.871  16.165  11.514
  639PROX   H31 4895  13.952  16.093  11.492
  639PROX   H32 4896  13.906  16.244  11.584
  639PROX   H33 4897  13.794  16.111  11.573
  640PROX    O1 4898  13.866  16.330  11.333
  640PROX    C1 4899  13.991  16.292  11.269
  640PROX   H11 4900  14.044  16.389  11.260
  640PROX   H13 4901  14.054  16.231  11.338
  640PROX    C2 4902  13.976  16.213  11.135
  640PROX   H21 4903  13.920  16.117  11.144
  640PROX    C3 4904  14.111  16.182  11.057
  640PROX   H31 4905  14.092  16.145  10.954
  640PROX   H32 4906  14.175  16.271  11.043
  640PROX   H33 4907  14.168  16.102  11.109
  641PROX    O1 4908  13.923  16.305  11.033
  641PROX    C1 4909  13.780  16.315  11.034
  641PROX   H11 4910  13.733  16.218  11.059
  641PROX   H13 4911  13.746  16.390  11.109
  641PROX    C2 4912  13.721  16.354  10.894
  641PROX   H21 4913  13.758  16.455  10.868
  641PROX    C3 4914  13.569  16.370  10.900
  641PROX   H31 4915  13.520  16.273  10.876
  641PROX   H32 4916  13.537  16.399  11.003
  641PROX   H33 4917  13.531  16.446  10.829
  642PROX    O1 4918  13.759  16.272  10.787
  642PROX    C1 4919  13.873  16.318  10.711
  642PROX   H11 4920  13.842  16.404  10.649
  642PROX   H13 4921  13.964  16.340  10.772
  642PROX    C2 4922  13.908  16.197  10.615
  642PROX   H21 4923  13.886  16.105  10.674
  642PROX    C3 4924  14.056  16.189  10.578
  642PROX   H31 4925  14.082  16.091  10.532
  642PROX   H32 4926  14.073  16.265  10.498
  642PROX   H33 4927  14.121  16.201  10.667
  643PROX    O1 4928  13.834  16.210  10.494
  643PROX    C1 4929  13.734  16.109  10.472
  643PROX   H11 4930  13.666  16.109  10.560
  643PROX   H13 4931  13.678  16.147  10.384
  643PROX    C2 4932  13.797  15.971  10.425
  643PROX   H21 4933  13.883  15.948  10.492
  643PROX    C3 4934  13.856  15.980  10.288
  643PROX   H31 4935  13.777  16.004  10.214
  643PROX   H32 4936  13.934  16.059  10.287
  643PROX   H33 4937  13.902  15.882  10.260
  644PROX    O1 4938  13.703  15.872  10.438
  644PROX    C1 4939  13.660  15.858  10.574
  644PROX   H11 4940  13.741  15.878  10.648
  644PROX   H13 4941  13.578  15.929  10.598
  644PROX    C2 4942  13.620  15.709  10.591
  644PROX   H21 4943  13.703  15.645  10.552
  644PROX    C3 4944  13.495  15.670  10.511
  644PROX   H31 4945  13.498  15.682  10.401
  644PROX   H32 4946  13.459  15.566  10.529
  644PROX   H33 4947  13.413  15.742  10.533
  645PROX    O1 4948  13.603  15.681  10.732
  645PROX    C1 4949  13.542  15.560  10.768
  645PROX   H11 4950  13.433  15.579  10.764
  645PROX   H13 4951  13.558  15.472  10.701
  645PROX    C2 4952  13.586  15.515  10.914
  645PROX   H21 4953  13.615  15.599  10.980
  645PROX    C3 4954  13.707  15.419  10.894
  645PROX   H31 4955  13.789  15.481  10.852
  645PROX   H32 4956  13.748  15.383  10.991
  645PROX   H33 4957  13.684  15.340  10.819
  646PROX    O1 4958  13.489  15.431  10.971
  646PROX    C1 4959  13.503  15.419  11.113
  646PROX   H11 4960  13.578  15.341  11.138
  646PROX   H13 4961  13.538  15.522  11.137
  646PROX    C2 4962  13.378  15.363  11.187
  646PROX   H21 4963  13.287  15.409  11.141
  646PROX    C3 4964  13.398  15.388  11.340
  646PROX   H31 4965  13.306  15.358  11.393
  646PROX   H32 4966  13.474  15.317  11.379
  646PROX   H33 4967  13.411  15.496  11.360
  647PROX    O1 4968  13.362  15.227  11.166
  647PROX    C1 4969  13.362  15.184  11.027
  647PROX   H11 4970  13.280  15.238  10.976
  647PROX   H13 4971  13.457  15.205  10.972
  647PROX    C2 4972  13.346  15.024  11.022
  647PROX   H21 4973  13.412  14.986  11.104
  647PROX    C3 4974  13.394  14.949  10.904
  647PROX   H31 4975  13.388  14.838  10.911
  647PROX   H32 4976  13.329  14.968  10.815
  647PROX   H33 4977  13.498  14.966  10.870
  648PROX    O1 4978  13.216  14.991  11.062
  648PROX    C1 4979  13.107  15.026  10.977
  648PROX   H11 4980  13.077  15.132  10.994
  648PROX   H13 4981  13.143  15.017  10.873
  648PROX    C2 4982  12.992  14.933  11.021
  648PROX   H21 4983  12.974  14.948  11.129
  648PROX    C3 4984  13.010  14.778  10.985
  648PROX   H31 4985  13.116  14.748  10.997
  648PROX   H32 4986  12.956  14.713  11.057
  648PROX   H33 4987  12.978  14.755  10.881
  649PROX    O1 4988  12.871  14.983  10.967
  649PROX    C1 4989  12.754  14.948  11.033
  649PROX   H11 4990  12.775  14.868  11.107
  649PROX   H13 4991  12.707  15.038  11.079
  649PROX    C2 4992  12.652  14.868  10.952
  649PROX   H21 4993  12.700  14.779  10.906
  649PROX    C3 4994  12.588  14.948  10.845
  649PROX   H31 4995  12.529  14.887  10.773
  649PROX   H32 4996  12.521  15.025  10.888
  649PROX   H33 4997  12.662  14.998  10.779
  650PROX    O1 4998  12.555  14.813  11.043
  650PROX    C1 4999  12.463  14.906  11.102
  650PROX   H11 5000  12.509  15.007  11.109
  650PROX   H13 5001  12.382  14.903  11.026
  650PROX    C2 5002  12.410  14.846  11.230
  650PROX   H21 5003  12.360  14.748  11.214
  650PROX    C3 5004  12.313  14.952  11.293
  650PROX   H31 5005  12.252  15.001  11.214
  650PROX   H32 5006  12.245  14.905  11.368
  650PROX   H33 5007  12.366  15.035  11.345
  651PROX    O1 5008  12.517  14.823  11.316
  651PROX    C1 5009  12.493  14.773  11.443
  651PROX   H11 5010  12.419  14.825  11.507
  651PROX   H13 5011  12.458  14.668  11.429
  651PROX    C2 5012  12.638  14.774  11.502
  651PROX   H21 5013  12.679  14.877  11.517
  651PROX    C3 5014  12.743  14.701  11.420
  651PROX   H31 5015  12.842  14.718  11.468
  651PROX   H32 5016  12.722  14.592  11.407
  651PROX   H33 5017  12.736  14.757  11.324
  652PROX    O1 5018  12.639  14.709  11.627
  652PROX    C1 5019  12.669  14.794  11.737
  652PROX   H11 5020  12.631  14.897  11.723
  652PROX   H13 5021  12.615  14.746  11.821
  652PROX    C2 5022  12.822  14.788  11.778
  652PROX   H21 5023  12.862  14.685  11.769
  652PROX    C3 5024  12.830  14.814  11.933
  652PROX   H31 5025  12.936  14.811  11.966
  652PROX   H32 5026  12.777  14.902  11.974
  652PROX   H33 5027  12.772  14.733  11.981
  653PROX    O1 5028  12.910  14.867  11.694
  653PROX    C1 5029  12.878  15.007  11.697
  653PROX   H11 5030  12.813  15.027  11.609
  653PROX   H13 5031  12.816  15.047  11.780
  653PROX    C2 5032  12.991  15.103  11.675
  653PROX   H21 5033  13.052  15.076  11.586
  653PROX    C3 5034  13.086  15.093  11.795
  653PROX   H31 5035  13.045  15.107  11.897
  653PROX   H32 5036  13.129  14.990  11.797
  653PROX   H33 5037  13.169  15.162  11.769
  654PROX    O1 5038  12.939  15.235  11.653
  654PROX    C1 5039  13.039  15.323  11.598
  654PROX   H11 5040  13.033  15.415  11.660
  654PROX   H13 5041  13.140  15.276  11.602
  654PROX    C2 5042  13.008  15.353  11.444
  654PROX   H21 5043  12.899  15.367  11.431
  654PROX    C3 5044  13.041  15.244  11.333
  654PROX   H31 5045  13.150  15.222  11.323
  654PROX   H32 5046  12.993  15.148  11.362
  654PROX   H33 5047  13.004  15.267  11.231
  655PROX    O1 5048  13.081  15.471  11.403
  655PROX    C1 5049  13.011  15.590  11.428
  655PROX   H11 5050  12.908  15.585  11.386
  655PROX   H13 5051  13.001  15.607  11.537
  655PROX    C2 5052  13.081  15.711  11.365
  655PROX   H21 5053  13.038  15.811  11.385
  655PROX    C3 5054  13.094  15.696  11.212
  655PROX   H31 5055  13.131  15.594  11.191
  655PROX   H32 5056  12.996  15.710  11.162
  655PROX   H33 5057  13.171  15.763  11.168
  656PROX    O1 5058  13.215  15.714  11.405
  656PROX    C1 5059  13.236  15.782  11.532
  656PROX   H11 5060  13.138  15.775  11.585
  656PROX   H13 5061  13.317  15.742  11.597
  656PROX    C2 5062  13.265  15.931  11.507
  656PROX   H21 5063  13.200  15.966  11.423
  656PROX    C3 5064  13.407  15.943  11.444
  656PROX   H31 5065  13.489  15.885  11.492
  656PROX   H32 5066  13.405  15.903  11.340
  656PROX   H33 5067  13.423  16.053  11.448
  657PROX    O1 5068  13.249  16.011  11.626
  657PROX    C1 5069  13.132  16.093  11.612
  657PROX   H11 5070  13.048  16.055  11.549
  657PROX   H13 5071  13.104  16.109  11.718
  657PROX    C2 5072  13.154  16.238  11.562
  657PROX   H21 5073  13.196  16.230  11.460
  657PROX    C3 5074  13.252  16.320  11.649
  657PROX   H31 5075  13.358  16.288  11.638
  657PROX   H32 5076  13.246  16.425  11.612
  657PROX   H33 5077  13.229  16.316  11.758
  658PROX    O1 5078  13.024  16.304  11.560
  658PROX    C1 5079  13.000  16.364  11.435
  658PROX   H11 5080  13.097  16.389  11.387
  658PROX   H13 5081  12.951  16.297  11.362
  658PROX    C2 5082  12.923  16.497  11.439
  658PROX   H21 5083  12.834  16.491  11.505
  658PROX    C3 5084  12.862  16.521  11.298
  658PROX   H31 5085  12.786  16.602  11.302
  658PROX   H32 5086  12.934  16.545  11.217
  658PROX   H33 5087  12.809  16.432  11.260
  659PROX    O1 5088  13.005  16.610  11.479
  659PROX    C1 5089  13.015  16.618  11.621
  659PROX   H11 5090  12.996  16.517  11.664
  659PROX   H13 5091  13.117  16.654  11.646
  659PROX    C2 5092  12.911  16.713  11.686
  659PROX   H21 5093  12.822  16.705  11.620
  659PROX    C3 5094  12.965  16.853  11.671
  659PROX   H31 5095  12.896  16.932  11.710
  659PROX   H32 5096  13.056  16.858  11.734
  659PROX   H33 5097  12.991  16.886  11.568
  660PROX    O1 5098  12.882  16.670  11.823
  660PROX    C1 5099  12.769  16.582  11.826
  660PROX   H11 5100  12.679  16.646  11.838
  660PROX   H13 5101  12.760  16.524  11.732
  660PROX    C2 5102  12.783  16.490  11.950
  660PROX   H21 5103  12.689  16.435  11.970
  660PROX    C3 5104  12.814  16.568  12.067
  660PROX   H31 5105  12.915  16.615  12.065
  660PROX   H32 5106  12.737  16.648  12.067
  660PROX   H33 5107  12.804  16.512  12.162
  661PROX    O1 5108  12.890  16.391  11.932
  661PROX    C1 5109  12.844  16.279  11.854
  661PROX   H11 5110  12.777  16.310  11.772
  661PROX   H13 5111  12.934  16.241  11.801
  661PROX    C2 5112  12.793  16.163  11.944
  661PROX   H21 5113  12.719  16.207  12.014
  661PROX    C3 5114  12.899  16.093  12.020
  661PROX   H31 5115  12.848  16.012  12.076
  661PROX   H32 5116  12.976  16.045  11.957
  661PROX   H33 5117  12.950  16.159  12.094
  662PROX    O1 5118  12.743  16.069  11.854
  662PROX    C1 5119  12.605  16.069  11.857
  662PROX   H11 5120  12.576  15.992  11.932
  662PROX   H13 5121  12.559  16.165  11.889
  662PROX    C2 5122  12.567  16.026  11.717
  662PROX   H21 5123  12.604  15.922  11.707
  662PROX    C3 5124  12.622  16.117  11.601
  662PROX   H31 5125  12.733  16.119  11.613
  662PROX   H32 5126  12.592  16.071  11.505
  662PROX   H33 5127  12.583  16.220  11.615
  663PROX    O1 5128  12.426  16.032  11.709
  663PROX    C1 5129  12.364  15.918  11.758
  663PROX   H11 5130  12.403  15.827  11.708
  663PROX   H13 5131  12.374  15.918  11.868
  663PROX    C2 5132  12.218  15.917  11.722
  663PROX   H21 5133  12.162  16.011  11.746
  663PROX    C3 5134  12.133  15.806  11.795
  663PROX   H31 5135  12.032  15.811  11.751
  663PROX   H32 5136  12.162  15.706  11.756
  663PROX   H33 5137  12.137  15.803  11.906
  664PROX    O1 5138  12.209  15.892  11.577
  664PROX    C1 5139  12.226  16.008  11.497
  664PROX   H11 5140  12.317  16.065  11.524
  664PROX   H13 5141  12.243  15.964  11.396
  664PROX    C2 5142  12.096  16.077  11.474
  664PROX   H21 5143  12.062  16.135  11.562
  664PROX    C3 5144  11.994  15.972  11.446
  664PROX   H31 5145  11.993  15.904  11.534
  664PROX   H32 5146  11.896  16.021  11.425
  664PROX   H33 5147  12.021  15.908  11.359
  665PROX    O1 5148  12.102  16.161  11.361
  665PROX    C1 5149  12.024  16.278  11.358
  665PROX   H11 5150  12.014  16.313  11.253
  665PROX   H13 5151  11.927  16.253  11.406
  665PROX    C2 5152  12.095  16.393  11.444
  665PROX   H21 5153  12.160  16.354  11.526
  665PROX    C3 5154  11.984  16.471  11.518
  665PROX   H31 5155  11.919  16.528  11.448
  665PROX   H32 5156  11.918  16.409  11.582
  665PROX   H33 5157  12.031  16.551  11.579
  666PROX    O1 5158  12.163  16.488  11.361
  666PROX    C1 5159  12.270  16.543  11.435
  666PROX   H11 5160  12.294  16.643  11.392
  666PROX   H13 5161  12.231  16.570  11.535
  666PROX    C2 5162  12.398  16.447  11.444
  666PROX   H21 5163  12.356  16.344  11.442
  666PROX    C3 5164  12.480  16.476  11.572
  666PROX   H31 5165  12.447  16.442  11.673
  666PROX   H32 5166  12.579  16.426  11.567
  666PROX   H33 5167  12.487  16.587  11.577
  667PROX    O1 5168  12.500  16.481  11.345
  667PROX    C1 5169  12.470  16.451  11.209
  667PROX   H11 5170  12.374  16.502  11.185
  667PROX   H13 5171  12.547  16.496  11.143
  667PROX    C2 5172  12.456  16.304  11.184
  667PROX   H21 5173  12.371  16.255  11.236
  667PROX    C3 5174  12.582  16.222  11.213
  667PROX   H31 5175  12.564  16.112  11.205
  667PROX   H32 5176  12.670  16.249  11.151
  667PROX   H33 5177  12.614  16.237  11.318
  668PROX    O1 5178  12.446  16.287  11.040
  668PROX    C1 5179  12.315  16.292  10.994
  668PROX   H11 5180  12.250  16.211  11.032
  668PROX   H13 5181  12.271  16.390  11.022
  668PROX    C2 5182  12.305  16.284  10.837
  668PROX   H21 5183  12.342  16.186  10.799
  668PROX    C3 5184  12.404  16.396  10.786
  668PROX   H31 5185  12.405  16.404  10.675
  668PROX   H32 5186  12.381  16.491  10.839
  668PROX   H33 5187  12.509  16.368  10.811
  669PROX    O1 5188  12.179  16.306  10.788
  669PROX    C1 5189  12.071  16.226  10.834
  669PROX   H11 5190  12.082  16.219  10.944
  669PROX   H13 5191  11.972  16.271  10.815
  669PROX    C2 5192  12.072  16.084  10.779
  669PROX   H21 5193  12.158  16.034  10.827
  669PROX    C3 5194  12.070  16.089  10.624
  669PROX   H31 5195  12.104  16.001  10.565
  669PROX   H32 5196  11.969  16.114  10.583
  669PROX   H33 5197  12.135  16.171  10.589
  670PROX    O1 5198  11.950  16.020  10.820
  670PROX    C1 5199  11.955  15.880  10.844
  670PROX   H11 5200  11.856  15.830  10.839
  670PROX   H13 5201  12.017  15.830  10.766
  670PROX    C2 5202  11.998  15.857  10.992
  670PROX   H21 5203  11.989  15.747  11.007
  670PROX    C3 5204  11.909  15.922  11.095
  670PROX   H31 5205  11.936  16.030  11.106
  670PROX   H32 5206  11.803  15.927  11.062
  670PROX   H33 5207  11.913  15.872  11.194
  671PROX    O1 5208  12.136  15.888  11.005
  671PROX    C1 5209  12.199  15.855  11.126
  671PROX   H11 5210  12.168  15.929  11.203
  671PROX   H13 5211  12.164  15.753  11.154
  671PROX    C2 5212  12.351  15.857  11.104
  671PROX   H21 5213  12.394  15.959  11.088
  671PROX    C3 5214  12.390  15.763  10.987
  671PROX   H31 5215  12.353  15.660  11.008
  671PROX   H32 5216  12.339  15.799  10.895
  671PROX   H33 5217  12.500  15.770  10.978
  672PROX    O1 5218  12.401  15.803  11.228
  672PROX    C1 5219  12.542  15.801  11.240
  672PROX   H11 5220  12.587  15.716  11.184
  672PROX   H13 5221  12.575  15.899  11.199
  672PROX    C2 5222  12.591  15.789  11.384
  672PROX   H21 5223  12.525  15.855  11.443
  672PROX    C3 5224  12.738  15.831  11.398
  672PROX   H31 5225  12.767  15.833  11.505
  672PROX   H32 5226  12.803  15.765  11.336
  672PROX   H33 5227  12.760  15.927  11.348
  673PROX    O1 5228  12.577  15.656  11.434
  673PROX    C1 5229  12.441  15.609  11.440
  673PROX   H11 5230  12.427  15.558  11.538
  673PROX   H13 5231  12.366  15.690  11.439
  673PROX    C2 5232  12.409  15.511  11.324
  673PROX   H21 5233  12.448  15.550  11.227
  673PROX    C3 5234  12.266  15.486  11.291
  673PROX   H31 5235  12.209  15.579  11.269
  673PROX   H32 5236  12.257  15.419  11.203
  673PROX   H33 5237  12.200  15.443  11.368
  674PROX    O1 5238  12.460  15.385  11.349
  674PROX    C1 5239  12.602  15.376  11.327
  674PROX   H11 5240  12.624  15.463  11.262
  674PROX   H13 5241  12.657  15.392  11.422
  674PROX    C2 5242  12.638  15.241  11.256
  674PROX   H21 5243  12.543  15.205  11.213
  674PROX    C3 5244  12.693  15.135  11.353
  674PROX   H31 5245  12.722  15.040  11.303
  674PROX   H32 5246  12.778  15.165  11.417
  674PROX   H33 5247  12.621  15.103  11.432
  675PROX    O1 5248  12.732  15.255  11.151
  675PROX    C1 5249  12.670  15.320  11.046
  675PROX   H11 5250  12.628  15.242  10.979
  675PROX   H13 5251  12.585  15.386  11.071
  675PROX    C2 5252  12.777  15.404  10.968
  675PROX   H21 5253  12.854  15.326  10.947
  675PROX    C3 5254  12.833  15.523  11.046
  675PROX   H31 5255  12.886  15.484  11.136
  675PROX   H32 5256  12.910  15.575  10.985
  675PROX   H33 5257  12.760  15.599  11.083
  676PROX    O1 5258  12.724  15.459  10.851
  676PROX    C1 5259  12.714  15.362  10.742
  676PROX   H11 5260  12.817  15.366  10.701
  676PROX   H13 5261  12.690  15.259  10.777
  676PROX    C2 5262  12.603  15.401  10.641
  676PROX   H21 5263  12.609  15.323  10.562
  676PROX    C3 5264  12.624  15.539  10.585
  676PROX   H31 5265  12.714  15.537  10.520
  676PROX   H32 5266  12.535  15.551  10.519
  676PROX   H33 5267  12.633  15.620  10.659
  677PROX    O1 5268  12.476  15.397  10.709
  677PROX    C1 5269  12.410  15.277  10.703
  677PROX   H11 5270  12.406  15.245  10.597
  677PROX   H13 5271  12.476  15.204  10.755
  677PROX    C2 5272  12.268  15.282  10.768
  677PROX   H21 5273  12.212  15.361  10.713
  677PROX    C3 5274  12.266  15.305  10.924
  677PROX   H31 5275  12.296  15.207  10.966
  677PROX   H32 5276  12.332  15.390  10.952
  677PROX   H33 5277  12.167  15.337  10.964
  678PROX    O1 5278  12.204  15.155  10.749
  678PROX    C1 5279  12.091  15.164  10.658
  678PROX   H11 5280  12.045  15.066  10.682
  678PROX   H13 5281  12.025  15.251  10.677
  678PROX    C2 5282  12.127  15.159  10.508
  678PROX   H21 5283  12.175  15.256  10.485
  678PROX    C3 5284  12.005  15.132  10.415
  678PROX   H31 5285  11.954  15.035  10.435
  678PROX   H32 5286  11.920  15.201  10.436
  678PROX   H33 5287  12.036  15.138  10.309
  679PROX    O1 5288  12.226  15.058  10.492
  679PROX    C1 5289  12.306  15.071  10.374
  679PROX   H11 5290  12.236  15.034  10.297
  679PROX   H13 5291  12.346  15.173  10.356
  679PROX    C2 5292  12.422  14.963  10.375
  679PROX   H21 5293  12.369  14.866  10.376
  679PROX    C3 5294  12.512  14.959  10.499
  679PROX   H31 5295  12.576  14.868  10.502
  679PROX   H32 5296  12.580  15.047  10.508
  679PROX   H33 5297  12.456  14.943  10.593
  680PROX    O1 5298  12.505  14.982  10.263
  680PROX    C1 5299  12.557  14.857  10.228
  680PROX   H11 5300  12.516  14.767  10.280
  680PROX   H13 5301  12.524  14.841  10.123
  680PROX    C2 5302  12.710  14.856  10.215
  680PROX   H21 5303  12.756  14.958  10.206
  680PROX    C3 5304  12.769  14.783  10.089
  680PROX   H31 5305  12.879  14.777  10.107
  680PROX   H32 5306  12.720  14.684  10.089
  680PROX   H33 5307  12.748  14.829   9.990
  681PROX    O1 5308  12.764  14.779  10.320
  681PROX    C1 5309  12.856  14.862  10.394
  681PROX   H11 5310  12.934  14.911  10.332
  681PROX   H13 5311  12.795  14.936  10.450
  681PROX    C2 5312  12.948  14.775  10.484
  681PROX   H21 5313  13.025  14.714  10.433
  681PROX    C3 5314  12.866  14.678  10.562
  681PROX   H31 5315  12.796  14.734  10.627
  681PROX   H32 5316  12.802  14.616  10.495
  681PROX   H33 5317  12.915  14.599  10.622
  682PROX    O1 5318  13.022  14.860  10.572
  682PROX    C1 5319  13.135  14.801  10.633
  682PROX   H11 5320  13.151  14.839  10.736
  682PROX   H13 5321  13.111  14.694  10.651
  682PROX    C2 5322  13.273  14.809  10.554
  682PROX   H21 5323  13.260  14.762  10.454
  682PROX    C3 5324  13.384  14.708  10.614
  682PROX   H31 5325  13.399  14.736  10.721
  682PROX   H32 5326  13.363  14.601  10.594
  682PROX   H33 5327  13.484  14.727  10.570
  683PROX    O1 5328  13.334  14.937  10.550
  683PROX    C1 5329  13.256  15.032  10.486
  683PROX   H11 5330  13.252  15.004  10.379
  683PROX   H13 5331  13.153  15.048  10.525
  683PROX    C2 5332  13.317  15.174  10.502
  683PROX   H21 5333  13.421  15.180  10.462
  683PROX    C3 5334  13.336  15.209  10.655
  683PROX   H31 5335  13.246  15.169  10.706
  683PROX   H32 5336  13.425  15.147  10.681
  683PROX   H33 5337  13.351  15.318  10.669
  684PROX    O1 5338  13.222  15.266  10.439
  684PROX    C1 5339  13.279  15.394  10.401
  684PROX   H11 5340  13.269  15.462  10.487
  684PROX   H13 5341  13.382  15.371  10.364
  684PROX    C2 5342  13.200  15.449  10.281
  684PROX   H21 5343  13.197  15.377  10.196
  684PROX    C3 5344  13.235  15.586  10.237
  684PROX   H31 5345  13.338  15.610  10.202
  684PROX   H32 5346  13.174  15.611  10.148
  684PROX   H33 5347  13.208  15.656  10.319
  685PROX    O1 5348  13.066  15.461  10.329
  685PROX    C1 5349  12.992  15.343  10.319
  685PROX   H11 5350  13.012  15.267  10.241
  685PROX   H13 5351  12.981  15.298  10.420
  685PROX    C2 5352  12.844  15.379  10.283
  685PROX   H21 5353  12.817  15.450  10.364
  685PROX    C3 5354  12.747  15.258  10.284
  685PROX   H31 5355  12.640  15.282  10.264
  685PROX   H32 5356  12.792  15.184  10.214
  685PROX   H33 5357  12.756  15.208  10.382
  686PROX    O1 5358  12.842  15.445  10.156
  686PROX    C1 5359  12.726  15.522  10.137
  686PROX   H11 5360  12.634  15.460  10.136
  686PROX   H13 5361  12.719  15.586  10.228
  686PROX    C2 5362  12.752  15.614  10.013
  686PROX   H21 5363  12.756  15.546   9.926
  686PROX    C3 5364  12.889  15.681  10.016
  686PROX   H31 5365  12.963  15.603   9.989
  686PROX   H32 5366  12.885  15.764   9.943
  686PROX   H33 5367  12.915  15.718  10.117
  687PROX    O1 5368  12.642  15.698   9.994
  687PROX    C1 5369  12.652  15.815  10.065
  687PROX   H11 5370  12.704  15.809  10.163
  687PROX   H13 5371  12.696  15.887   9.993
  687PROX    C2 5372  12.510  15.853  10.110
  687PROX   H21 5373  12.444  15.862  10.020
  687PROX    C3 5374  12.513  15.996  10.171
  687PROX   H31 5375  12.420  16.022  10.226
  687PROX   H32 5376  12.600  16.009  10.238
  687PROX   H33 5377  12.528  16.076  10.095
  688PROX    O1 5378  12.454  15.771  10.209
  688PROX    C1 5379  12.381  15.660  10.153
  688PROX   H11 5380  12.316  15.701  10.072
  688PROX   H13 5381  12.447  15.583  10.108
  688PROX    C2 5382  12.296  15.574  10.255
  688PROX   H21 5383  12.363  15.554  10.341
  688PROX    C3 5384  12.260  15.438  10.197
  688PROX   H31 5385  12.190  15.377  10.257
  688PROX   H32 5386  12.215  15.461  10.098
  688PROX   H33 5387  12.349  15.375  10.174
  689PROX    O1 5388  12.176  15.636  10.298
  689PROX    C1 5389  12.189  15.739  10.394
  689PROX   H11 5390  12.274  15.802  10.361
  689PROX   H13 5391  12.101  15.807  10.391
  689PROX    C2 5392  12.210  15.684  10.540
  689PROX   H21 5393  12.292  15.611  10.522
  689PROX    C3 5394  12.091  15.616  10.596
  689PROX   H31 5395  12.006  15.685  10.577
  689PROX   H32 5396  12.065  15.520  10.546
  689PROX   H33 5397  12.103  15.590  10.703
  690PROX    O1 5398  12.260  15.792  10.625
  690PROX    C1 5399  12.399  15.806  10.608
  690PROX   H11 5400  12.457  15.739  10.675
  690PROX   H13 5401  12.432  15.789  10.503
  690PROX    C2 5402  12.438  15.952  10.658
  690PROX   H21 5403  12.371  15.976  10.743
  690PROX    C3 5404  12.416  16.053  10.541
  690PROX   H31 5405  12.314  16.048  10.497
  690PROX   H32 5406  12.443  16.154  10.579
  690PROX   H33 5407  12.478  16.029  10.452
  691PROX    O1 5408  12.573  15.947  10.704
  691PROX    C1 5409  12.604  16.046  10.803
  691PROX   H11 5410  12.587  16.146  10.759
  691PROX   H13 5411  12.530  16.039  10.885
  691PROX    C2 5412  12.743  16.030  10.856
  691PROX   H21 5413  12.810  16.006  10.771
  691PROX    C3 5414  12.773  15.910  10.957
  691PROX   H31 5415  12.748  15.814  10.907
  691PROX   H32 5416  12.883  15.902  10.972
  691PROX   H33 5417  12.724  15.918  11.057
  692PROX    O1 5418  12.781  16.154  10.922
  692PROX    C1 5419  12.839  16.244  10.826
  692PROX   H11 5420  12.925  16.198  10.773
  692PROX   H13 5421  12.771  16.272  10.742
  692PROX    C2 5422  12.871  16.382  10.894
  692PROX   H21 5423  12.901  16.351  10.997
  692PROX    C3 5424  12.765  16.490  10.905
  692PROX   H31 5425  12.712  16.511  10.809
  692PROX   H32 5426  12.697  16.440  10.977
  692PROX   H33 5427  12.798  16.579  10.962
  693PROX    O1 5428  12.985  16.440  10.825
  693PROX    C1 5429  13.059  16.519  10.919
  693PROX   H11 5430  13.026  16.622  10.893
  693PROX   H13 5431  13.043  16.521  11.029
  693PROX    C2 5432  13.210  16.512  10.883
  693PROX   H21 5433  13.257  16.415  10.912
  693PROX    C3 5434  13.285  16.625  10.948
  693PROX   H31 5435  13.388  16.628  10.907
  693PROX   H32 5436  13.235  16.718  10.912
  693PROX   H33 5437  13.269  16.640  11.057
  694PROX    O1 5438  13.235  16.537  10.742
  694PROX    C1 5439  13.254  16.407  10.679
  694PROX   H11 5440  13.350  16.357  10.706
  694PROX   H13 5441  13.164  16.349  10.708
  694PROX    C2 5442  13.246  16.415  10.524
  694PROX   H21 5443  13.333  16.479  10.497
  694PROX    C3 5444  13.110  16.463  10.476
  694PROX   H31 5445  13.090  16.552  10.540
  694PROX   H32 5446  13.110  16.499  10.371
  694PROX   H33 5447  13.033  16.383  10.477
  695PROX    O1 5448  13.258  16.286  10.472
  695PROX    C1 5449  13.382  16.261  10.403
  695PROX   H11 5450  13.407  16.344  10.334
  695PROX   H13 5451  13.468  16.249  10.472
  695PROX    C2 5452  13.370  16.136  10.309
  695PROX   H21 5453  13.266  16.148  10.272
  695PROX    C3 5454  13.378  16.003  10.379
  695PROX   H31 5455  13.349  15.915  10.318
  695PROX   H32 5456  13.481  15.997  10.420
  695PROX   H33 5457  13.302  16.010  10.460
  696ETHO    O1 5458  13.473  16.132  10.206
  696ETHO    C1 5459  13.429  16.065  10.089
  696ETHO   H11 5460  13.374  15.970  10.109
  696ETHO   H13 5461  13.522  16.033  10.038
  696ETHO    C2 5462  13.356  16.160   9.989
  696ETHO   H21 5463  13.347  16.111   9.890
  696ETHO   H23 5464  13.415  16.253   9.974
  697ETHO    O1 5465  13.228  16.201  10.040
  697ETHO    C1 5466  13.165  16.297   9.956
  697ETHO   H11 5467  13.202  16.282   9.852
  697ETHO   H13 5468  13.056  16.276   9.956
  697ETHO    C2 5469  13.183  16.437  10.000
  697ETHO   H21 5470  13.290  16.463   9.986
  697ETHO   H23 5471  13.146  16.443  10.104
  698ETHO    O1 5472  13.102  16.531   9.930
  698ETHO    C1 5473  13.165  16.593   9.822
  698ETHO   H11 5474  13.176  16.512   9.747
  698ETHO   H13 5475  13.264  16.635   9.848
  698ETHO    C2 5476  13.086  16.712   9.755
  698ETHO   H21 5477  12.978  16.689   9.739
  698ETHO   H23 5478  13.132  16.726   9.655
  699ETHO    O1 5479  13.112  16.832   9.834
  699ETHO    C1 5480  13.057  16.943   9.757
  699ETHO   H11 5481  13.132  16.963   9.678
  699ETHO   H13 5482  12.953  16.931   9.719
  699ETHO    C2 5483  13.056  17.078   9.839
  699ETHO   H21 5484  13.087  17.166   9.778
  699ETHO   H23 5485  13.127  17.072   9.924
  700ETHO    O1 5486  12.931  17.109   9.902
  700ETHO    C1 5487  12.930  17.240   9.954
  700ETHO   H11 5488  12.985  17.314   9.893
  700ETHO   H13 5489  12.987  17.224  10.049
  700ETHO    C2 5490  12.784  17.275   9.967
  700ETHO   H21 5491  12.766  17.336  10.058
  700ETHO   H23 5492  12.714  17.190   9.983
  701ETHO    O1 5493  12.737  17.348   9.854
  701ETHO    C1 5494  12.613  17.409   9.876
  701ETHO   H11 5495  12.550  17.320   9.898
  701ETHO   H13 5496  12.602  17.465   9.971
  701ETHO    C2 5497  12.559  17.491   9.762
  701ETHO   H21 5498  12.451  17.510   9.782
  701ETHO   H23 5499  12.550  17.423   9.675
  702ETHO    O1 5500  12.634  17.609   9.741
  702ETHO    C1 5501  12.558  17.688   9.654
  702ETHO   H11 5502  12.460  17.714   9.699
  702ETHO   H13 5503  12.543  17.650   9.551
  702ETHO    C2 5504  12.630  17.820   9.649
  702ETHO   H21 5505  12.628  17.844   9.758
  702ETHO   H23 5506  12.577  17.902   9.597
  703ETHO    O1 5507  12.768  17.810   9.605
  703ETHO    C1 5508  12.833  17.936   9.624
  703ETHO   H11 5509  12.787  18.002   9.547
  703ETHO   H13 5510  12.812  17.980   9.723
  703ETHO    C2 5511  12.980  17.927   9.592
  703ETHO   H21 5512  13.026  17.852   9.660
  703ETHO   H23 5513  13.013  17.901   9.489
  704ETHO    O1 5514  13.020  18.063   9.605
  704ETHO    C1 5515  13.158  18.075   9.559
  704ETHO   H11 5516  13.225  18.002   9.610
  704ETHO   H13 5517  13.161  18.047   9.451
  704ETHO    C2 5518  13.201  18.224   9.570
  704ETHO   H21 5519  13.128  18.284   9.511
  704ETHO   H23 5520  13.297  18.259   9.526
  705ETHO    O1 5521  13.201  18.269   9.703
  705ETHO    C1 5522  13.187  18.409   9.714
  705ETHO   H11 5523  13.282  18.447   9.670
  705ETHO   H13 5524  13.099  18.442   9.654
  705ETHO    C2 5525  13.152  18.454   9.858
  705ETHO   H21 5526  13.212  18.389   9.924
  705ETHO   H23 5527  13.045  18.433   9.879
  706ETHO    O1 5528  13.170  18.595   9.883
  706ETHO    C1 5529  13.145  18.622  10.020
  706ETHO   H11 5530  13.035  18.608  10.030
  706ETHO   H13 5531  13.211  18.563  10.087
  706ETHO    C2 5532  13.195  18.772  10.043
  706ETHO   H21 5533  13.293  18.782   9.991
  706ETHO   H23 5534  13.198  18.808  10.148
  707ETHO    O1 5535  13.091  18.839   9.976
  707ETHO    C1 5536  13.134  18.977   9.954
  707ETHO   H11 5537  13.224  18.972   9.889
  707ETHO   H13 5538  13.161  19.031  10.047
  707ETHO    C2 5539  13.020  19.063   9.890
  707ETHO   H21 5540  12.974  19.007   9.805
  707ETHO   H23 5541  13.070  19.153   9.848
  708ETHO    O1 5542  12.929  19.110   9.991
  708ETHO    C1 5543  12.816  19.172   9.934
  708ETHO   H11 5544  12.787  19.104   9.851
  708ETHO   H13 5545  12.733  19.162  10.007
  708ETHO    C2 5546  12.835  19.322   9.894
  708ETHO   H21 5547  12.742  19.358   9.845
  708ETHO   H23 5548  12.908  19.321   9.809
  709ETHO    O1 5549  12.871  19.405   9.997
  709ETHO    C1 5550  12.912  19.525   9.941
  709ETHO   H11 5551  12.928  19.592  10.028
  709ETHO   H13 5552  12.833  19.559   9.872
  709ETHO    C2 5553  13.047  19.520   9.860
  709ETHO   H21 5554  13.107  19.430   9.885
  709ETHO   H23 5555  13.104  19.612   9.886
  710ETHO    O1 5556  13.030  19.522   9.720
  710ETHO    C1 5557  13.160  19.547   9.657
  710ETHO   H11 5558  13.185  19.655   9.669
  710ETHO   H13 5559  13.229  19.471   9.700
  710ETHO    C2 5560  13.145  19.528   9.506
  710ETHO   H21 5561  13.227  19.584   9.456
  710ETHO   H23 5562  13.040  19.564   9.501
  711ETHO    O1 5563  13.140  19.383   9.493
  711ETHO    C1 5564  13.130  19.339   9.361
  711ETHO   H11 5565  13.233  19.348   9.321
  711ETHO   H13 5566  13.066  19.404   9.299
  711ETHO    C2 5567  13.091  19.198   9.359
  711ETHO   H21 5568  13.151  19.139   9.433
  711ETHO   H23 5569  13.112  19.159   9.257
  712ETHO    O1 5570  12.958  19.178   9.396
  712ETHO    C1 5571  12.930  19.038   9.393
  712ETHO   H11 5572  12.899  19.004   9.292
  712ETHO   H13 5573  13.022  18.987   9.428
  712ETHO    C2 5574  12.814  18.994   9.488
  712ETHO   H21 5575  12.818  19.045   9.587
  712ETHO   H23 5576  12.831  18.886   9.508
  713ETHO    O1 5577  12.686  19.014   9.423
  713ETHO    C1 5578  12.598  19.078   9.514
  713ETHO   H11 5579  12.644  19.174   9.548
  713ETHO   H13 5580  12.591  19.015   9.605
  713ETHO    C2 5581  12.460  19.082   9.461
  713ETHO   H21 5582  12.402  19.137   9.538
  713ETHO   H23 5583  12.420  18.979   9.449
  714ETHO    O1 5584  12.453  19.153   9.337
  714ETHO    C1 5585  12.319  19.181   9.307
  714ETHO   H11 5586  12.273  19.081   9.291
  714ETHO   H13 5587  12.259  19.216   9.393
  714ETHO    C2 5588  12.310  19.281   9.189
  714ETHO   H21 5589  12.358  19.379   9.212
  714ETHO   H23 5590  12.200  19.298   9.180
  715ETHO    O1 5591  12.350  19.227   9.060
  715ETHO    C1 5592  12.308  19.310   8.952
  715ETHO   H11 5593  12.200  19.305   8.928
  715ETHO   H13 5594  12.331  19.416   8.976
  715ETHO    C2 5595  12.374  19.269   8.823
  715ETHO   H21 5596  12.485  19.263   8.823
  715ETHO   H23 5597  12.363  19.354   8.752
  716ETHO    O1 5598  12.317  19.159   8.753
  716ETHO    C1 5599  12.356  19.033   8.796
  716ETHO   H11 5600  12.458  19.018   8.754
  716ETHO   H13 5601  12.357  19.019   8.906
  716ETHO    C2 5602  12.272  18.913   8.735
  716ETHO   H21 5603  12.331  18.819   8.732
  716ETHO   H23 5604  12.258  18.936   8.627
  717ETHO    O1 5605  12.154  18.889   8.791
  717ETHO    C1 5606  12.066  18.801   8.718
  717ETHO   H11 5607  12.058  18.828   8.610
  717ETHO   H13 5608  12.107  18.698   8.722
  717ETHO    C2 5609  11.919  18.794   8.772
  717ETHO   H21 5610  11.936  18.762   8.877
  717ETHO   H23 5611  11.882  18.713   8.707
  718ETHO    O1 5612  11.826  18.899   8.751
  718ETHO    C1 5613  11.857  19.017   8.817
  718ETHO   H11 5614  11.894  18.991   8.919
  718ETHO   H13 5615  11.765  19.079   8.826
  718ETHO    C2 5616  11.959  19.121   8.748
  718ETHO   H21 5617  12.047  19.082   8.693
  718ETHO   H23 5618  12.004  19.186   8.826
  719ETHO    O1 5619  11.885  19.211   8.666
  719ETHO    C1 5620  11.953  19.242   8.544
  719ETHO   H11 5621  12.063  19.230   8.547
  719ETHO   H13 5622  11.923  19.164   8.471
  719ETHO    C2 5623  11.915  19.384   8.501
  719ETHO   H21 5624  11.972  19.412   8.410
  719ETHO   H23 5625  11.940  19.452   8.586
  720ETHO    O1 5626  11.787  19.403   8.457
  720ETHO    C1 5627  11.757  19.542   8.437
  720ETHO   H11 5628  11.821  19.592   8.361
  720ETHO   H13 5629  11.769  19.598   8.532
  720ETHO    C2 5630  11.614  19.565   8.389
  720ETHO   H21 5631  11.587  19.673   8.389
  720ETHO   H23 5632  11.550  19.527   8.470
  721ETHO    O1 5633  11.599  19.507   8.264
  721ETHO    C1 5634  11.512  19.576   8.177
  721ETHO   H11 5635  11.484  19.503   8.097
  721ETHO   H13 5636  11.429  19.612   8.241
  721ETHO    C2 5637  11.572  19.687   8.083
  721ETHO   H21 5638  11.606  19.768   8.152
  721ETHO   H23 5639  11.491  19.735   8.023
  722ETHO    O1 5640  11.684  19.633   8.013
  722ETHO    C1 5641  11.763  19.742   7.974
  722ETHO   H11 5642  11.812  19.774   8.068
  722ETHO   H13 5643  11.698  19.819   7.927
  722ETHO    C2 5644  11.873  19.700   7.868
  722ETHO   H21 5645  11.928  19.784   7.820
  722ETHO   H23 5646  11.818  19.648   7.786
  723ETHO    O1 5647  11.970  19.611   7.931
  723ETHO    C1 5648  12.082  19.578   7.848
  723ETHO   H11 5649  12.048  19.590   7.743
  723ETHO   H13 5650  12.165  19.649   7.870
  723ETHO    C2 5651  12.121  19.427   7.861
  723ETHO   H21 5652  12.167  19.398   7.958
  723ETHO   H23 5653  12.205  19.399   7.793
  724ETHO    O1 5654  12.008  19.352   7.811
  724ETHO    C1 5655  12.016  19.218   7.859
  724ETHO   H11 5656  12.002  19.239   7.967
  724ETHO   H13 5657  12.115  19.169   7.845
  724ETHO    C2 5658  11.898  19.133   7.808
  724ETHO   H21 5659  11.805  19.193   7.803
  724ETHO   H23 5660  11.877  19.047   7.876
  725ETHO    O1 5661  11.937  19.075   7.690
  725ETHO    C1 5662  11.838  18.984   7.644
  725ETHO   H11 5663  11.747  18.990   7.707
  725ETHO   H13 5664  11.811  19.025   7.544
  725ETHO    C2 5665  11.868  18.839   7.634
  725ETHO   H21 5666  11.946  18.816   7.559
  725ETHO   H23 5667  11.781  18.792   7.583
  726ETHO    O1 5668  11.884  18.787   7.763
  726ETHO    C1 5669  11.815  18.668   7.779
  726ETHO   H11 5670  11.709  18.697   7.763
  726ETHO   H13 5671  11.842  18.585   7.710
  726ETHO    C2 5672  11.847  18.602   7.909
  726ETHO   H21 5673  11.949  18.558   7.907
  726ETHO   H23 5674  11.771  18.521   7.912
  727ETHO    O1 5675  11.834  18.676   8.033
  727ETHO    C1 5676  11.917  18.624   8.134
  727ETHO   H11 5677  11.918  18.513   8.140
  727ETHO   H13 5678  12.024  18.645   8.112
  727ETHO    C2 5679  11.866  18.673   8.267
  727ETHO   H21 5680  11.926  18.615   8.341
  727ETHO   H23 5681  11.760  18.641   8.281
  728ETHO    O1 5682  11.885  18.809   8.289
  728ETHO    C1 5683  11.842  18.847   8.418
  728ETHO   H11 5684  11.865  18.766   8.491
  728ETHO   H13 5685  11.893  18.942   8.444
  728ETHO    C2 5686  11.690  18.873   8.417
  728ETHO   H21 5687  11.658  18.907   8.316
  728ETHO   H23 5688  11.667  18.940   8.502
  729ETHO    O1 5689  11.619  18.754   8.437
  729ETHO    C1 5690  11.473  18.776   8.444
  729ETHO   H11 5691  11.446  18.821   8.346
  729ETHO   H13 5692  11.457  18.846   8.529
  729ETHO    C2 5693  11.406  18.638   8.451
  729ETHO   H21 5694  11.420  18.577   8.359
  729ETHO   H23 5695  11.297  18.658   8.445
  730ETHO    O1 5696  11.430  18.563   8.568
  730ETHO    C1 5697  11.363  18.438   8.563
  730ETHO   H11 5698  11.257  18.464   8.582
  730ETHO   H13 5699  11.365  18.387   8.464
  730ETHO    C2 5700  11.408  18.339   8.673
  730ETHO   H21 5701  11.338  18.254   8.663
  730ETHO   H23 5702  11.391  18.383   8.774
  731ETHO    O1 5703  11.541  18.288   8.663
  731ETHO    C1 5704  11.570  18.206   8.777
  731ETHO   H11 5705  11.515  18.110   8.769
  731ETHO   H13 5706  11.543  18.269   8.864
  731ETHO    C2 5707  11.725  18.176   8.815
  731ETHO   H21 5708  11.777  18.273   8.829
  731ETHO   H23 5709  11.776  18.116   8.737
  732ETHO    O1 5710  11.737  18.110   8.935
  732ETHO    C1 5711  11.871  18.112   8.976
  732ETHO   H11 5712  11.941  18.096   8.892
  732ETHO   H13 5713  11.900  18.213   9.012
  732ETHO    C2 5714  11.899  18.011   9.086
  732ETHO   H21 5715  11.814  18.012   9.158
  732ETHO   H23 5716  11.981  18.051   9.149
  733ETHO    O1 5717  11.921  17.879   9.042
  733ETHO    C1 5718  11.951  17.792   9.150
  733ETHO   H11 5719  11.873  17.812   9.227
  733ETHO   H13 5720  12.050  17.812   9.195
  733ETHO    C2 5721  11.967  17.645   9.101
  733ETHO   H21 5722  11.895  17.622   9.020
  733ETHO   H23 5723  11.942  17.574   9.183
  734ETHO    O1 5724  12.091  17.623   9.051
  734ETHO    C1 5725  12.118  17.484   9.046
  734ETHO   H11 5726  12.095  17.442   9.147
  734ETHO   H13 5727  12.050  17.440   8.969
  734ETHO    C2 5728  12.267  17.449   9.025
  734ETHO   H21 5729  12.316  17.439   9.124
  734ETHO   H23 5730  12.320  17.522   8.960
  735ETHO    O1 5731  12.273  17.329   8.951
  735ETHO    C1 5732  12.406  17.290   8.939
  735ETHO   H11 5733  12.454  17.277   9.038
  735ETHO   H13 5734  12.458  17.368   8.878
  735ETHO    C2 5735  12.413  17.158   8.868
  735ETHO   H21 5736  12.328  17.097   8.905
  735ETHO   H23 5737  12.502  17.094   8.881
  736ETHO    O1 5738  12.394  17.182   8.731
  736ETHO    C1 5739  12.359  17.066   8.658
  736ETHO   H11 5740  12.450  17.003   8.651
  736ETHO   H13 5741  12.281  17.002   8.706
  736ETHO    C2 5742  12.302  17.097   8.519
  736ETHO   H21 5743  12.375  17.173   8.483
  736ETHO   H23 5744  12.300  17.009   8.451
  737ETHO    O1 5745  12.172  17.148   8.519
  737ETHO    C1 5746  12.112  17.135   8.398
  737ETHO   H11 5747  12.178  17.162   8.313
  737ETHO   H13 5748  12.032  17.212   8.402
  737ETHO    C2 5749  12.042  16.996   8.368
  737ETHO   H21 5750  11.968  17.021   8.289
  737ETHO   H23 5751  12.000  16.955   8.463
  738ETHO    O1 5752  12.134  16.906   8.317
  738ETHO    C1 5753  12.083  16.775   8.278
  738ETHO   H11 5754  12.002  16.796   8.204
  738ETHO   H13 5755  12.159  16.719   8.219
  738ETHO    C2 5756  12.016  16.681   8.386
  738ETHO   H21 5757  12.087  16.675   8.470
  738ETHO   H23 5758  12.003  16.581   8.340
  739ETHO    O1 5759  11.889  16.720   8.424
  739ETHO    C1 5760  11.859  16.703   8.561
  739ETHO   H11 5761  11.766  16.762   8.579
  739ETHO   H13 5762  11.942  16.745   8.621
  739ETHO    C2 5763  11.847  16.552   8.598
  739ETHO   H21 5764  11.943  16.497   8.583
  739ETHO   H23 5765  11.769  16.503   8.536
  740ETHO    O1 5766  11.794  16.542   8.732
  740ETHO    C1 5767  11.892  16.563   8.836
  740ETHO   H11 5768  11.990  16.589   8.792
  740ETHO   H13 5769  11.862  16.648   8.901
  740ETHO    C2 5770  11.912  16.440   8.922
  740ETHO   H21 5771  11.815  16.395   8.952
  740ETHO   H23 5772  11.953  16.476   9.019
  741ETHO    O1 5773  12.006  16.339   8.879
  741ETHO    C1 5774  11.996  16.224   8.968
  741ETHO   H11 5775  12.009  16.258   9.073
  741ETHO   H13 5776  11.896  16.177   8.955
  741ETHO    C2 5777  12.093  16.106   8.940
  741ETHO   H21 5778  12.082  16.016   9.005
  741ETHO   H23 5779  12.189  16.159   8.957
  742ETHO    O1 5780  12.067  16.062   8.809
  742ETHO    C1 5781  12.188  16.017   8.745
  742ETHO   H11 5782  12.238  15.938   8.806
  742ETHO   H13 5783  12.149  15.978   8.648
  742ETHO    C2 5784  12.284  16.135   8.708
  742ETHO   H21 5785  12.228  16.225   8.674
  742ETHO   H23 5786  12.351  16.102   8.625
  743ETHO    O1 5787  12.361  16.176   8.816
  743ETHO    C1 5788  12.469  16.095   8.831
  743ETHO   H11 5789  12.463  16.005   8.766
  743ETHO   H13 5790  12.557  16.159   8.811
  743ETHO    C2 5791  12.472  16.036   8.967
  743ETHO   H21 5792  12.395  15.959   8.985
  743ETHO   H23 5793  12.450  16.124   9.032
  744ETHO    O1 5794  12.603  15.985   9.004
  744ETHO    C1 5795  12.622  15.984   9.140
  744ETHO   H11 5796  12.680  15.891   9.153
  744ETHO   H13 5797  12.526  15.950   9.185
  744ETHO    C2 5798  12.693  16.102   9.207
  744ETHO   H21 5799  12.653  16.089   9.311
  744ETHO   H23 5800  12.657  16.191   9.152
  745ETHO    O1 5801  12.827  16.096   9.212
  745ETHO    C1 5802  12.889  16.221   9.244
  745ETHO   H11 5803  12.872  16.299   9.167
  745ETHO   H13 5804  12.840  16.258   9.336
  745ETHO    C2 5805  13.040  16.204   9.259
  745ETHO   H21 5806  13.060  16.134   9.343
  745ETHO   H23 5807  13.091  16.300   9.283
  746ETHO    O1 5808  13.100  16.157   9.143
  746ETHO    C1 5809  13.164  16.247   9.063
  746ETHO   H11 5810  13.086  16.325   9.057
  746ETHO   H13 5811  13.174  16.211   8.958
  746ETHO    C2 5812  13.292  16.313   9.114
  746ETHO   H21 5813  13.276  16.342   9.220
  746ETHO   H23 5814  13.316  16.408   9.062
  747ETHO    O1 5815  13.391  16.210   9.104
  747ETHO    C1 5816  13.504  16.228   9.190
  747ETHO   H11 5817  13.466  16.239   9.293
  747ETHO   H13 5818  13.562  16.133   9.190
  747ETHO    C2 5819  13.606  16.325   9.140
  747ETHO   H21 5820  13.685  16.341   9.216
  747ETHO   H23 5821  13.551  16.422   9.131
  748ETHO    O1 5822  13.667  16.285   9.022
  748ETHO    C1 5823  13.795  16.340   9.017
  748ETHO   H11 5824  13.860  16.281   9.084
  748ETHO   H13 5825  13.793  16.446   9.051
  748ETHO    C2 5826  13.865  16.335   8.879
  748ETHO   H21 5827  13.961  16.390   8.882
  748ETHO   H23 5828  13.800  16.377   8.800
  749ETHO    O1 5829  13.902  16.202   8.843
  749ETHO    C1 5830  13.803  16.145   8.769
  749ETHO   H11 5831  13.706  16.189   8.800
  749ETHO   H13 5832  13.817  16.170   8.662
  749ETHO    C2 5833  13.789  15.990   8.773
  749ETHO   H21 5834  13.879  15.947   8.724
  749ETHO   H23 5835  13.703  15.953   8.714
  750ETHO    O1 5836  13.791  15.931   8.906
  750ETHO    C1 5837  13.669  15.958   8.974
  750ETHO   H11 5838  13.579  15.949   8.909
  750ETHO   H13 5839  13.679  16.056   9.025
  750ETHO    C2 5840  13.652  15.843   9.071
  750ETHO   H21 5841  13.648  15.740   9.031
  750ETHO   H23 5842  13.550  15.841   9.115
  751ETHO    O1 5843  13.745  15.847   9.182
  751ETHO    C1 5844  13.721  15.747   9.282
  751ETHO   H11 5845  13.623  15.773   9.328
  751ETHO   H13 5846  13.718  15.647   9.232
  751ETHO    C2 5847  13.831  15.738   9.392
  751ETHO   H21 5848  13.871  15.841   9.410
  751ETHO   H23 5849  13.926  15.686   9.365
  752ETHO    O1 5850  13.765  15.688   9.506
  752ETHO    C1 5851  13.855  15.700   9.613
  752ETHO   H11 5852  13.936  15.627   9.591
  752ETHO   H13 5853  13.884  15.807   9.623
  752ETHO    C2 5854  13.787  15.646   9.734
  752ETHO   H21 5855  13.859  15.607   9.810
  752ETHO   H23 5856  13.736  15.550   9.711
  753ETHO    O1 5857  13.710  15.744   9.800
  753ETHO    C1 5858  13.645  15.699   9.914
  753ETHO   H11 5859  13.704  15.623   9.969
  753ETHO   H13 5860  13.625  15.789   9.976
  753ETHO    C2 5861  13.501  15.648   9.867
  753ETHO   H21 5862  13.451  15.614   9.960
  753ETHO   H23 5863  13.508  15.568   9.791
  754ETHO    O1 5864  13.418  15.752   9.818
  754ETHO    C1 5865  13.277  15.710   9.806
  754ETHO   H11 5866  13.273  15.640   9.720
  754ETHO   H13 5867  13.250  15.658   9.901
  754ETHO    C2 5868  13.184  15.833   9.786
  754ETHO   H21 5869  13.209  15.901   9.870
  754ETHO   H23 5870  13.080  15.793   9.790
  755ETHO    O1 5871  13.191  15.911   9.665
  755ETHO    C1 5872  13.105  16.029   9.667
  755ETHO   H11 5873  13.142  16.104   9.594
  755ETHO   H13 5874  13.106  16.077   9.767
  755ETHO    C2 5875  12.966  16.000   9.607
  755ETHO   H21 5876  12.930  15.901   9.642
  755ETHO   H23 5877  12.967  15.990   9.496
  756ETHO    O1 5878  12.862  16.094   9.648
  756ETHO    C1 5879  12.731  16.045   9.613
  756ETHO   H11 5880  12.712  16.025   9.505
  756ETHO   H13 5881  12.717  15.948   9.664
  756ETHO    C2 5882  12.622  16.148   9.658
  756ETHO   H21 5883  12.650  16.180   9.760
  756ETHO   H23 5884  12.531  16.085   9.653
  757ETHO    O1 5885  12.605  16.258   9.573
  757ETHO    C1 5886  12.675  16.378   9.617
  757ETHO   H11 5887  12.783  16.353   9.607
  757ETHO   H13 5888  12.643  16.409   9.718
  757ETHO    C2 5889  12.653  16.489   9.511
  757ETHO   H21 5890  12.550  16.525   9.533
  757ETHO   H23 5891  12.654  16.433   9.415
  758ETHO    O1 5892  12.742  16.597   9.521
  758ETHO    C1 5893  12.679  16.720   9.465
  758ETHO   H11 5894  12.629  16.709   9.367
  758ETHO   H13 5895  12.602  16.758   9.535
  758ETHO    C2 5896  12.782  16.836   9.453
  758ETHO   H21 5897  12.845  16.845   9.544
  758ETHO   H23 5898  12.730  16.933   9.436
  759ETHO    O1 5899  12.873  16.800   9.350
  759ETHO    C1 5900  12.990  16.881   9.343
  759ETHO   H11 5901  13.052  16.852   9.430
  759ETHO   H13 5902  12.955  16.985   9.358
  759ETHO    C2 5903  13.082  16.867   9.222
  759ETHO   H21 5904  13.088  16.760   9.191
  759ETHO   H23 5905  13.177  16.906   9.265
  760ETHO    O1 5906  13.035  16.944   9.115
  760ETHO    C1 5907  13.134  16.952   9.013
  760ETHO   H11 5908  13.227  17.002   9.047
  760ETHO   H13 5909  13.151  16.848   8.975
  760ETHO    C2 5910  13.081  17.030   8.883
  760ETHO   H21 5911  12.981  16.993   8.855
  760ETHO   H23 5912  13.154  17.015   8.801
  761ETHO    O1 5913  13.094  17.174   8.882
  761ETHO    C1 5914  13.056  17.220   8.749
  761ETHO   H11 5915  12.965  17.160   8.726
  761ETHO   H13 5916  13.121  17.177   8.671
  761ETHO    C2 5917  13.057  17.373   8.737
  761ETHO   H21 5918  13.063  17.398   8.629
  761ETHO   H23 5919  13.146  17.416   8.788
  762ETHO    O1 5920  12.940  17.425   8.786
  762ETHO    C1 5921  12.961  17.561   8.816
  762ETHO   H11 5922  13.020  17.576   8.909
  762ETHO   H13 5923  13.021  17.603   8.732
  762ETHO    C2 5924  12.828  17.636   8.816
  762ETHO   H21 5925  12.835  17.739   8.857
  762ETHO   H23 5926  12.750  17.571   8.862
  763ETHO    O1 5927  12.806  17.661   8.684
  763ETHO    C1 5928  12.669  17.697   8.664
  763ETHO   H11 5929  12.637  17.671   8.560
  763ETHO   H13 5930  12.604  17.635   8.730
  763ETHO    C2 5931  12.646  17.843   8.682
  763ETHO   H21 5932  12.680  17.875   8.783
  763ETHO   H23 5933  12.537  17.864   8.677
  764ETHO    O1 5934  12.719  17.927   8.581
  764ETHO    C1 5935  12.728  18.067   8.623
  764ETHO   H11 5936  12.627  18.112   8.636
  764ETHO   H13 5937  12.782  18.083   8.719
  764ETHO    C2 5938  12.802  18.147   8.515
  764ETHO   H21 5939  12.754  18.129   8.416
  764ETHO   H23 5940  12.907  18.111   8.513
  765ETHO    O1 5941  12.818  18.288   8.554
  765ETHO    C1 5942  12.876  18.362   8.451
  765ETHO   H11 5943  12.941  18.301   8.385
  765ETHO   H13 5944  12.789  18.398   8.391
  765ETHO    C2 5945  12.966  18.479   8.508
  765ETHO   H21 5946  12.911  18.549   8.574
  765ETHO   H23 5947  12.980  18.542   8.417
  766ETHO    O1 5948  13.094  18.432   8.556
  766ETHO    C1 5949  13.179  18.548   8.566
  766ETHO   H11 5950  13.119  18.641   8.554
  766ETHO   H13 5951  13.253  18.539   8.483
  766ETHO    C2 5952  13.259  18.541   8.695
  766ETHO   H21 5953  13.340  18.617   8.694
  766ETHO   H23 5954  13.309  18.442   8.691
  767ETHO    O1 5955  13.169  18.538   8.809
  767ETHO    C1 5956  13.232  18.526   8.938
  767ETHO   H11 5957  13.150  18.526   9.013
  767ETHO   H13 5958  13.263  18.419   8.946
  767ETHO    C2 5959  13.336  18.632   8.975
  767ETHO   H21 5960  13.341  18.652   9.084
  767ETHO   H23 5961  13.301  18.730   8.934
  768ETHO    O1 5962  13.472  18.597   8.943
  768ETHO    C1 5963  13.569  18.666   9.014
  768ETHO   H11 5964  13.664  18.616   8.984
  768ETHO   H13 5965  13.555  18.664   9.124
  768ETHO    C2 5966  13.584  18.804   8.943
  768ETHO   H21 5967  13.559  18.791   8.836
  768ETHO   H23 5968  13.693  18.824   8.956
  769ETHO    O1 5969  13.518  18.899   9.020
  769ETHO    C1 5970  13.558  19.032   8.990
  769ETHO   H11 5971  13.668  19.052   8.996
  769ETHO   H13 5972  13.532  19.054   8.884
  769ETHO    C2 5973  13.483  19.125   9.089
  769ETHO   H21 5974  13.481  19.230   9.051
  769ETHO   H23 5975  13.381  19.084   9.100
  770ETHO    O1 5976  13.549  19.120   9.211
  770ETHO    C1 5977  13.496  19.222   9.301
  770ETHO   H11 5978  13.526  19.181   9.400
  770ETHO   H13 5979  13.386  19.207   9.315
  770ETHO    C2 5980  13.530  19.374   9.273
  770ETHO   H21 5981  13.500  19.436   9.360
  770ETHO   H23 5982  13.479  19.424   9.188
  771ETHO    O1 5983  13.668  19.394   9.250
  771ETHO    C1 5984  13.703  19.529   9.238
  771ETHO   H11 5985  13.660  19.555   9.139
  771ETHO   H13 5986  13.653  19.587   9.318
  771ETHO    C2 5987  13.855  19.553   9.222
  771ETHO   H21 5988  13.917  19.478   9.167
  771ETHO   H23 5989  13.908  19.549   9.319
  772ETHO    O1 5990  13.857  19.681   9.166
  772ETHO    C1 5991  13.980  19.745   9.187
  772ETHO   H11 5992  14.065  19.712   9.124
  772ETHO   H13 5993  14.015  19.737   9.292
  772ETHO    C2 5994  13.979  19.894   9.159
  772ETHO   H21 5995  14.075  19.937   9.193
  772ETHO   H23 5996  13.891  19.949   9.200
  773ETHO    O1 5997  13.990  19.924   9.022
  773ETHO    C1 5998  13.867  19.910   8.952
  773ETHO   H11 5999  13.808  19.818   8.972
  773ETHO   H13 6000  13.795  19.993   8.967
  773ETHO    C2 6001  13.894  19.901   8.801
  773ETHO   H21 6002  13.836  19.816   8.758
  773ETHO   H23 6003  14.001  19.871   8.794
  774ETHO    O1 6004  13.865  20.023   8.730
  774ETHO    C1 6005  13.934  20.027   8.605
  774ETHO   H11 6006  13.941  19.927   8.558
  774ETHO   H13 6007  14.038  20.063   8.617
  774ETHO    C2 6008  13.865  20.123   8.510
  774ETHO   H21 6009  13.932  20.146   8.425
  774ETHO   H23 6010  13.848  20.221   8.560
  775ETHO    O1 6011  13.748  20.067   8.454
  775ETHO    C1 6012  13.684  20.158   8.370
  775ETHO   H11 6013  13.653  20.246   8.431
  775ETHO   H13 6014  13.762  20.194   8.300
  775ETHO    C2 6015  13.574  20.086   8.285
  775ETHO   H21 6016  13.527  20.159   8.216
  775ETHO   H23 6017  13.498  20.041   8.352
  776ETHO    O1 6018  13.641  19.990   8.207
  776ETHO    C1 6019  13.552  19.918   8.114
  776ETHO   H11 6020  13.472  19.978   8.064
  776ETHO   H13 6021  13.497  19.853   8.185
  776ETHO    C2 6022  13.640  19.837   8.012
  776ETHO   H21 6023  13.567  19.758   7.982
  776ETHO   H23 6024  13.729  19.796   8.064
  777ETHO    O1 6025  13.681  19.917   7.897
  777ETHO    C1 6026  13.712  19.828   7.788
  777ETHO   H11 6027  13.778  19.743   7.814
  777ETHO   H13 6028  13.615  19.795   7.744
  777ETHO    C2 6029  13.786  19.896   7.666
  777ETHO   H21 6030  13.877  19.943   7.709
  777ETHO   H23 6031  13.823  19.816   7.598
  778ETHO    O1 6032  13.721  19.989   7.583
  778ETHO    C1 6033  13.667  20.102   7.651
  778ETHO   H11 6034  13.586  20.076   7.723
  778ETHO   H13 6035  13.751  20.149   7.706
  778ETHO    C2 6036  13.598  20.187   7.534
  778ETHO   H21 6037  13.671  20.205   7.452
  778ETHO   H23 6038  13.558  20.286   7.567
  779ETHO    O1 6039  13.491  20.112   7.476
  779ETHO    C1 6040  13.361  20.109   7.546
  779ETHO   H11 6041  13.382  20.045   7.635
  779ETHO   H13 6042  13.344  20.206   7.598
  779ETHO    C2 6043  13.260  20.054   7.453
  779ETHO   H21 6044  13.161  20.041   7.503
  779ETHO   H23 6045  13.288  19.950   7.426
  780ETHO    O1 6046  13.269  20.126   7.329
  780ETHO    C1 6047  13.181  20.238   7.327
  780ETHO   H11 6048  13.141  20.252   7.430
  780ETHO   H13 6049  13.224  20.337   7.298
  780ETHO    C2 6050  13.054  20.202   7.240
  780ETHO   H21 6051  13.075  20.141   7.149
  780ETHO   H23 6052  13.013  20.299   7.203
  781ETHO    O1 6053  12.943  20.138   7.311
  781ETHO    C1 6054  12.828  20.133   7.231
  781ETHO   H11 6055  12.859  20.074   7.141
  781ETHO   H13 6056  12.806  20.238   7.204
  781ETHO    C2 6057  12.709  20.065   7.296
  781ETHO   H21 6058  12.737  19.974   7.352
  781ETHO   H23 6059  12.637  20.031   7.217
  782ETHO    O1 6060  12.638  20.156   7.374
  782ETHO    C1 6061  12.554  20.242   7.298
  782ETHO   H11 6062  12.608  20.318   7.237
  782ETHO   H13 6063  12.477  20.200   7.229
  782ETHO    C2 6064  12.469  20.322   7.399
  782ETHO   H21 6065  12.452  20.418   7.345
  782ETHO   H23 6066  12.529  20.353   7.487
  783ETHO    O1 6067  12.349  20.258   7.437
  783ETHO    C1 6068  12.280  20.348   7.519
  783ETHO   H11 6069  12.246  20.430   7.453
  783ETHO   H13 6070  12.352  20.391   7.592
  783ETHO    C2 6071  12.172  20.268   7.599
  783ETHO   H21 6072  12.102  20.202   7.544
  783ETHO   H23 6073  12.106  20.345   7.647
  784ETHO    O1 6074  12.235  20.194   7.701
  784ETHO    C1 6075  12.135  20.122   7.785
  784ETHO   H11 6076  12.045  20.094   7.726
  784ETHO   H13 6077  12.179  20.025   7.815
  784ETHO    C2 6078  12.090  20.202   7.908
  784ETHO   H21 6079  11.997  20.161   7.952
  784ETHO   H23 6080  12.067  20.306   7.876
  785ETHO    O1 6081  12.191  20.198   8.003
  785ETHO    C1 6082  12.156  20.296   8.098
  785ETHO   H11 6083  12.057  20.263   8.137
  785ETHO   H13 6084  12.143  20.400   8.060
  785ETHO    C2 6085  12.246  20.309   8.222
  785ETHO   H21 6086  12.262  20.211   8.271
  785ETHO   H23 6087  12.197  20.384   8.289
  786ETHO    O1 6088  12.371  20.354   8.182
  786ETHO    C1 6089  12.464  20.341   8.293
  786ETHO   H11 6090  12.436  20.405   8.381
  786ETHO   H13 6091  12.470  20.233   8.315
  786ETHO    C2 6092  12.601  20.396   8.245
  786ETHO   H21 6093  12.665  20.405   8.336
  786ETHO   H23 6094  12.596  20.501   8.210
  787ETHO    O1 6095  12.669  20.307   8.152
  787ETHO    C1 6096  12.753  20.380   8.066
  787ETHO   H11 6097  12.821  20.443   8.127
  787ETHO   H13 6098  12.688  20.448   8.008
  787ETHO    C2 6099  12.844  20.290   7.979
  787ETHO   H21 6100  12.868  20.349   7.888
  787ETHO   H23 6101  12.785  20.199   7.954
  788ETHO    O1 6102  12.964  20.249   8.042
  788ETHO    C1 6103  13.080  20.287   7.966
  788ETHO   H11 6104  13.085  20.226   7.874
  788ETHO   H13 6105  13.069  20.394   7.939
  788ETHO    C2 6106  13.205  20.280   8.054
  788ETHO   H21 6107  13.298  20.283   7.993
  788ETHO   H23 6108  13.202  20.183   8.108
  789ETHO    O1 6109  13.195  20.392   8.145
  789ETHO    C1 6110  13.287  20.379   8.251
  789ETHO   H11 6111  13.249  20.451   8.328
  789ETHO   H13 6112  13.280  20.286   8.310
  789ETHO    C2 6113  13.424  20.425   8.210
  789ETHO   H21 6114  13.414  20.523   8.161
  789ETHO   H23 6115  13.472  20.351   8.142
  790ETHO    O1 6116  13.520  20.439   8.316
  790ETHO    C1 6117  13.643  20.486   8.253
  790ETHO   H11 6118  13.685  20.410   8.184
  790ETHO   H13 6119  13.616  20.572   8.187
  790ETHO    C2 6120  13.746  20.526   8.350
  790ETHO   H21 6121  13.834  20.578   8.308
  790ETHO   H23 6122  13.799  20.442   8.400
  791ETHO    O1 6123  13.693  20.605   8.456
  791ETHO    C1 6124  13.797  20.635   8.552
  791ETHO   H11 6125  13.847  20.537   8.570
  791ETHO   H13 6126  13.861  20.714   8.508
  791ETHO    C2 6127  13.741  20.681   8.689
  791ETHO   H21 6128  13.825  20.667   8.761
  791ETHO   H23 6129  13.657  20.611   8.712
  792ETHO    O1 6130  13.684  20.806   8.690
  792ETHO    C1 6131  13.786  20.902   8.689
  792ETHO   H11 6132  13.858  20.887   8.606
  792ETHO   H13 6133  13.839  20.899   8.786
  792ETHO    C2 6134  13.734  21.047   8.674
  792ETHO   H21 6135  13.810  21.123   8.703
  792ETHO   H23 6136  13.643  21.073   8.731
  793ETHO    O1 6137  13.684  21.060   8.538
  793ETHO    C1 6138  13.660  21.190   8.495
  793ETHO   H11 6139  13.670  21.257   8.584
  793ETHO   H13 6140  13.557  21.206   8.458
  793ETHO    C2 6141  13.750  21.218   8.373
  793ETHO   H21 6142  13.707  21.286   8.297
  793ETHO   H23 6143  13.749  21.121   8.319
  794ETHO    O1 6144  13.883  21.262   8.397
  794ETHO    C1 6145  13.966  21.211   8.293
  794ETHO   H11 6146  14.054  21.278   8.279
  794ETHO   H13 6147  13.910  21.196   8.198
  794ETHO    C2 6148  14.023  21.077   8.334
  794ETHO   H21 6149  14.094  21.038   8.258
  794ETHO   H23 6150  13.933  21.014   8.348
  795ETHO    O1 6151  14.092  21.083   8.457
  795ETHO    C1 6152  14.179  20.974   8.470
  795ETHO   H11 6153  14.142  20.883   8.418
  795ETHO   H13 6154  14.267  21.005   8.410
  795ETHO    C2 6155  14.223  20.940   8.617
  795ETHO   H21 6156  14.238  21.034   8.674
  795ETHO   H23 6157  14.320  20.886   8.609
  795ETHO    OZ 6158  14.131  20.855   8.685
  795ETHO   HZ1 6159  14.134  20.764   8.654
  796ETHO    O1 6160  15.671  19.273  14.895
  796ETHO   HO1 6161  15.749  19.327  14.879
  796ETHO    C1 6162  15.564  19.358  14.850
  796ETHO   H11 6163  15.496  19.294  14.790
  796ETHO   H13 6164  15.602  19.439  14.784
  796ETHO    C2 6165  15.488  19.423  14.974
  796ETHO   H21 6166  15.453  19.342  15.042
  796ETHO   H23 6167  15.403  19.478  14.927
  797ETHO    O1 6168  15.573  19.513  15.054
  797ETHO    C1 6169  15.494  19.598  15.133
  797ETHO   H11 6170  15.430  19.655  15.062
  797ETHO   H13 6171  15.417  19.538  15.187
  797ETHO    C2 6172  15.580  19.679  15.219
  797ETHO   H21 6173  15.656  19.626  15.280
  797ETHO   H23 6174  15.512  19.735  15.287
  798ETHO    O1 6175  15.633  19.786  15.140
  798ETHO    C1 6176  15.712  19.867  15.223
  798ETHO   H11 6177  15.775  19.804  15.290
  798ETHO   H13 6178  15.641  19.920  15.290
  798ETHO    C2 6179  15.795  19.976  15.153
  798ETHO   H21 6180  15.851  19.929  15.070
  798ETHO   H23 6181  15.876  20.012  15.220
  799ETHO    O1 6182  15.721  20.088  15.103
  799ETHO    C1 6183  15.760  20.110  14.967
  799ETHO   H11 6184  15.865  20.146  14.974
  799ETHO   H13 6185  15.767  20.011  14.918
  799ETHO    C2 6186  15.668  20.199  14.885
  799ETHO   H21 6187  15.576  20.139  14.871
  799ETHO   H23 6188  15.723  20.203  14.788
  800ETHO    O1 6189  15.647  20.332  14.927
  800ETHO    C1 6190  15.566  20.397  14.831
  800ETHO   H11 6191  15.601  20.352  14.736
  800ETHO   H13 6192  15.459  20.370  14.838
  800ETHO    C2 6193  15.595  20.551  14.820
  800ETHO   H21 6194  15.584  20.594  14.718
  800ETHO   H23 6195  15.698  20.570  14.857
  801ETHO    O1 6196  15.509  20.628  14.910
  801ETHO    C1 6197  15.537  20.774  14.891
  801ETHO   H11 6198  15.647  20.784  14.901
  801ETHO   H13 6199  15.510  20.804  14.787
  801ETHO    C2 6200  15.451  20.851  15.003
  801ETHO   H21 6201  15.493  20.950  15.032
  801ETHO   H23 6202  15.437  20.794  15.096
  802ETHO    O1 6203  15.325  20.884  14.965
  802ETHO    C1 6204  15.252  20.940  15.072
  802ETHO   H11 6205  15.265  20.875  15.161
  802ETHO   H13 6206  15.295  21.039  15.098
  802ETHO    C2 6207  15.101  20.950  15.054
  802ETHO   H21 6208  15.080  20.999  14.956
  802ETHO   H23 6209  15.067  21.011  15.141
  803ETHO    O1 6210  15.036  20.823  15.052
  803ETHO    C1 6211  14.914  20.830  15.119
  803ETHO   H11 6212  14.844  20.903  15.073
  803ETHO   H13 6213  14.946  20.861  15.221
  803ETHO    C2 6214  14.851  20.692  15.108
  803ETHO   H21 6215  14.825  20.668  15.003
  803ETHO   H23 6216  14.755  20.702  15.164
  804ETHO    O1 6217  14.924  20.579  15.168
  804ETHO    C1 6218  14.836  20.466  15.173
  804ETHO   H11 6219  14.738  20.483  15.223
  804ETHO   H13 6220  14.831  20.423  15.071
  804ETHO    C2 6221  14.890  20.358  15.269
  804ETHO   H21 6222  14.808  20.285  15.282
  804ETHO   H23 6223  14.908  20.413  15.363
  805ETHO    O1 6224  15.016  20.305  15.228
  805ETHO    C1 6225  15.064  20.210  15.325
  805ETHO   H11 6226  14.993  20.127  15.345
  805ETHO   H13 6227  15.071  20.263  15.422
  805ETHO    C2 6228  15.199  20.146  15.274
  805ETHO   H21 6229  15.225  20.078  15.359
  805ETHO   H23 6230  15.276  20.221  15.250
  806ETHO    O1 6231  15.178  20.067  15.165
  806ETHO    C1 6232  15.296  19.989  15.144
  806ETHO   H11 6233  15.382  20.053  15.116
  806ETHO   H13 6234  15.338  19.933  15.230
  806ETHO    C2 6235  15.273  19.887  15.040
  806ETHO   H21 6236  15.197  19.926  14.970
  806ETHO   H23 6237  15.366  19.862  14.985
  807ETHO    O1 6238  15.220  19.772  15.103
  807ETHO    C1 6239  15.154  19.684  15.013
  807ETHO   H11 6240  15.227  19.645  14.938
  807ETHO   H13 6241  15.077  19.745  14.961
  807ETHO    C2 6242  15.081  19.581  15.098
  807ETHO   H21 6243  15.148  19.540  15.177
  807ETHO   H23 6244  15.049  19.499  15.030
  808ETHO    O1 6245  14.963  19.635  15.167
  808ETHO    C1 6246  14.894  19.542  15.250
  808ETHO   H11 6247  14.970  19.470  15.288
  808ETHO   H13 6248  14.835  19.594  15.329
  808ETHO    C2 6249  14.796  19.449  15.182
  808ETHO   H21 6250  14.751  19.385  15.261
  808ETHO   H23 6251  14.836  19.380  15.106
  809ETHO    O1 6252  14.684  19.516  15.128
  809ETHO    C1 6253  14.581  19.428  15.100
  809ETHO   H11 6254  14.551  19.372  15.192
  809ETHO   H13 6255  14.623  19.350  15.032
  809ETHO    C2 6256  14.444  19.482  15.047
  809ETHO   H21 6257  14.392  19.405  14.987
  809ETHO   H23 6258  14.462  19.557  14.967
  810ETHO    O1 6259  14.363  19.530  15.155
  810ETHO    C1 6260  14.272  19.436  15.207
  810ETHO   H11 6261  14.190  19.420  15.134
  810ETHO   H13 6262  14.322  19.336  15.211
  810ETHO    C2 6263  14.207  19.473  15.337
  810ETHO   H21 6264  14.155  19.570  15.324
  810ETHO   H23 6265  14.120  19.406  15.358
  811ETHO    O1 6266  14.296  19.476  15.454
  811ETHO    C1 6267  14.267  19.590  15.542
  811ETHO   H11 6268  14.158  19.608  15.550
  811ETHO   H13 6269  14.301  19.566  15.645
  811ETHO    C2 6270  14.353  19.707  15.504
  811ETHO   H21 6271  14.283  19.788  15.475
  811ETHO   H23 6272  14.421  19.676  15.422
  812ETHO    O1 6273  14.430  19.747  15.610
  812ETHO    C1 6274  14.527  19.846  15.578
  812ETHO   H11 6275  14.605  19.811  15.507
  812ETHO   H13 6276  14.491  19.944  15.539
  812ETHO    C2 6277  14.601  19.891  15.705
  812ETHO   H21 6278  14.696  19.936  15.670
  812ETHO   H23 6279  14.628  19.800  15.763
  813ETHO    O1 6280  14.525  19.986  15.789
  813ETHO    C1 6281  14.583  20.007  15.914
  813ETHO   H11 6282  14.597  19.911  15.967
  813ETHO   H13 6283  14.682  20.050  15.887
  813ETHO    C2 6284  14.504  20.115  15.987
  813ETHO   H21 6285  14.487  20.196  15.913
  813ETHO   H23 6286  14.568  20.159  16.067
  814ETHO    O1 6287  14.371  20.088  16.045
  814ETHO    C1 6288  14.323  20.212  16.090
  814ETHO   H11 6289  14.325  20.286  16.007
  814ETHO   H13 6290  14.380  20.244  16.180
  814ETHO    C2 6291  14.171  20.205  16.135
  814ETHO   H21 6292  14.171  20.152  16.232
  814ETHO   H23 6293  14.119  20.149  16.054
  815ETHO    O1 6294  14.128  20.342  16.154
  815ETHO    C1 6295  14.007  20.339  16.226
  815ETHO   H11 6296  13.930  20.306  16.154
  815ETHO   H13 6297  14.017  20.273  16.315
  815ETHO    C2 6298  13.961  20.480  16.259
  815ETHO   H21 6299  13.856  20.471  16.294
  815ETHO   H23 6300  13.954  20.532  16.161
  816ETHO    O1 6301  14.039  20.549  16.355
  816ETHO    C1 6302  14.015  20.684  16.355
  816ETHO   H11 6303  13.908  20.703  16.334
  816ETHO   H13 6304  14.065  20.729  16.267
  816ETHO    C2 6305  14.075  20.760  16.472
  816ETHO   H21 6306  14.080  20.868  16.446
  816ETHO   H23 6307  14.183  20.737  16.483
  817ETHO    O1 6308  14.012  20.739  16.596
  817ETHO    C1 6309  14.086  20.787  16.706
  817ETHO   H11 6310  14.038  20.754  16.800
  817ETHO   H13 6311  14.196  20.767  16.705
  817ETHO    C2 6312  14.073  20.940  16.724
  817ETHO   H21 6313  14.144  20.973  16.803
  817ETHO   H23 6314  14.099  20.994  16.630
  818ETHO    O1 6315  13.938  20.958  16.748
  818ETHO    C1 6316  13.908  21.082  16.806
  818ETHO   H11 6317  13.998  21.122  16.858
  818ETHO   H13 6318  13.824  21.076  16.879
  818ETHO    C2 6319  13.866  21.198  16.714
  818ETHO   H21 6320  13.938  21.192  16.630
  818ETHO   H23 6321  13.870  21.298  16.763
  819ETHO    O1 6322  13.740  21.175  16.652
  819ETHO    C1 6323  13.701  21.292  16.584
  819ETHO   H11 6324  13.790  21.352  16.556
  819ETHO   H13 6325  13.670  21.250  16.485
  819ETHO    C2 6326  13.579  21.371  16.631
  819ETHO   H21 6327  13.493  21.305  16.656
  819ETHO   H23 6328  13.526  21.436  16.558
  820ETHO    O1 6329  13.616  21.447  16.751
  820ETHO    C1 6330  13.676  21.573  16.713
  820ETHO   H11 6331  13.591  21.631  16.673
  820ETHO   H13 6332  13.753  21.547  16.638
  820ETHO    C2 6333  13.743  21.658  16.827
  820ETHO   H21 6334  13.786  21.751  16.783
  820ETHO   H23 6335  13.821  21.591  16.868
  821ETHO    O1 6336  13.656  21.682  16.931
  821ETHO    C1 6337  13.734  21.723  17.048
  821ETHO   H11 6338  13.667  21.719  17.136
  821ETHO   H13 6339  13.811  21.648  17.075
  821ETHO    C2 6340  13.796  21.868  17.048
  821ETHO   H21 6341  13.728  21.936  16.994
  821ETHO   H23 6342  13.896  21.861  16.999
  822ETHO    O1 6343  13.815  21.921  17.180
  822ETHO    C1 6344  13.951  21.880  17.225
  822ETHO   H11 6345  14.044  21.902  17.168
  822ETHO   H13 6346  13.940  21.770  17.236
  822ETHO    C2 6347  13.964  21.951  17.362
  822ETHO   H21 6348  13.929  22.056  17.350
  822ETHO   H23 6349  14.069  21.951  17.399
  823ETHO    O1 6350  13.884  21.902  17.475
  823ETHO    C1 6351  13.947  21.779  17.525
  823ETHO   H11 6352  14.020  21.735  17.453
  823ETHO   H13 6353  14.000  21.807  17.619
  823ETHO    C2 6354  13.845  21.675  17.567
  823ETHO   H21 6355  13.783  21.712  17.651
  823ETHO   H23 6356  13.911  21.597  17.609
  824ETHO    O1 6357  13.757  21.623  17.469
  824ETHO    C1 6358  13.814  21.547  17.372
  824ETHO   H11 6359  13.900  21.482  17.398
  824ETHO   H13 6360  13.840  21.610  17.285
  824ETHO    C2 6361  13.711  21.446  17.322
  824ETHO   H21 6362  13.609  21.486  17.307
  824ETHO   H23 6363  13.701  21.364  17.396
  825ETHO    O1 6364  13.751  21.379  17.206
  825ETHO    C1 6365  13.660  21.284  17.153
  825ETHO   H11 6366  13.558  21.311  17.186
  825ETHO   H13 6367  13.663  21.295  17.043
  825ETHO    C2 6368  13.685  21.141  17.195
  825ETHO   H21 6369  13.604  21.073  17.163
  825ETHO   H23 6370  13.691  21.148  17.306
  826ETHO    O1 6371  13.816  21.108  17.148
  826ETHO    C1 6372  13.868  20.997  17.215
  826ETHO   H11 6373  13.871  21.029  17.321
  826ETHO   H13 6374  13.806  20.905  17.207
  826ETHO    C2 6375  14.005  20.970  17.160
  826ETHO   H21 6376  13.991  20.952  17.051
  826ETHO   H23 6377  14.037  20.867  17.188
  827ETHO    O1 6378  14.107  21.062  17.194
  827ETHO    C1 6379  14.226  21.049  17.114
  827ETHO   H11 6380  14.250  20.941  17.109
  827ETHO   H13 6381  14.202  21.075  17.009
  827ETHO    C2 6382  14.355  21.123  17.164
  827ETHO   H21 6383  14.329  21.231  17.166
  827ETHO   H23 6384  14.437  21.120  17.089
  828ETHO    O1 6385  14.393  21.080  17.288
  828ETHO    C1 6386  14.484  21.167  17.350
  828ETHO   H11 6387  14.581  21.150  17.300
  828ETHO   H13 6388  14.466  21.277  17.359
  828ETHO    C2 6389  14.505  21.129  17.501
  828ETHO   H21 6390  14.599  21.163  17.550
  828ETHO   H23 6391  14.514  21.019  17.509
  829ETHO    O1 6392  14.392  21.174  17.571
  829ETHO    C1 6393  14.377  21.107  17.694
  829ETHO   H11 6394  14.478  21.074  17.727
  829ETHO   H13 6395  14.332  21.009  17.669
  829ETHO    C2 6396  14.302  21.176  17.812
  829ETHO   H21 6397  14.276  21.093  17.882
  829ETHO   H23 6398  14.205  21.211  17.772
  830ETHO    O1 6399  14.375  21.278  17.875
  830ETHO    C1 6400  14.292  21.361  17.951
  830ETHO   H11 6401  14.207  21.394  17.887
  830ETHO   H13 6402  14.249  21.292  18.026
  830ETHO    C2 6403  14.372  21.476  18.012
  830ETHO   H21 6404  14.305  21.550  18.061
  830ETHO   H23 6405  14.420  21.529  17.928
  831ETHO    O1 6406  14.480  21.431  18.095
  831ETHO    C1 6407  14.547  21.544  18.141
  831ETHO   H11 6408  14.489  21.587  18.225
  831ETHO   H13 6409  14.559  21.615  18.056
  831ETHO    C2 6410  14.695  21.505  18.184
  831ETHO   H21 6411  14.686  21.435  18.271
  831ETHO   H23 6412  14.748  21.591  18.229
  832ETHO    O1 6413  14.774  21.470  18.074
  832ETHO    C1 6414  14.897  21.406  18.110
  832ETHO   H11 6415  14.962  21.477  18.167
  832ETHO   H13 6416  14.877  21.314  18.169
  832ETHO    C2 6417  14.971  21.373  17.981
  832ETHO   H21 6418  15.067  21.325  18.008
  832ETHO   H23 6419  14.989  21.473  17.936
  833ETHO    O1 6420  14.894  21.285  17.895
  833ETHO    C1 6421  14.975  21.245  17.788
  833ETHO   H11 6422  15.051  21.170  17.820
  833ETHO   H13 6423  15.033  21.331  17.749
  833ETHO    C2 6424  14.883  21.187  17.677
  833ETHO   H21 6425  14.800  21.260  17.672
  833ETHO   H23 6426  14.846  21.089  17.715
  834ETHO    O1 6427  14.957  21.179  17.553
  834ETHO    C1 6428  14.873  21.167  17.441
  834ETHO   H11 6429  14.812  21.076  17.458
  834ETHO   H13 6430  14.803  21.253  17.453
  834ETHO    C2 6431  14.941  21.154  17.305
  834ETHO   H21 6432  14.858  21.129  17.236
  834ETHO   H23 6433  15.015  21.071  17.305
  835ETHO    O1 6434  14.994  21.279  17.257
  835ETHO    C1 6435  15.068  21.243  17.141
  835ETHO   H11 6436  14.995  21.203  17.068
  835ETHO   H13 6437  15.136  21.157  17.159
  835ETHO    C2 6438  15.156  21.359  17.090
  835ETHO   H21 6439  15.207  21.314  17.002
  835ETHO   H23 6440  15.234  21.385  17.165
  836ETHO    O1 6441  15.097  21.473  17.024
  836ETHO    C1 6442  15.196  21.570  16.978
  836ETHO   H11 6443  15.262  21.582  17.067
  836ETHO   H13 6444  15.245  21.530  16.887
  836ETHO    C2 6445  15.119  21.702  16.940
  836ETHO   H21 6446  15.180  21.782  16.892
  836ETHO   H23 6447  15.073  21.737  17.034
  837ETHO    O1 6448  15.020  21.671  16.850
  837ETHO    C1 6449  14.933  21.780  16.828
  837ETHO   H11 6450  14.881  21.796  16.925
  837ETHO   H13 6451  14.992  21.872  16.814
  837ETHO    C2 6452  14.828  21.756  16.727
  837ETHO   H21 6453  14.761  21.843  16.709
  837ETHO   H23 6454  14.762  21.678  16.770
  838ETHO    O1 6455  14.873  21.706  16.603
  838ETHO    C1 6456  14.763  21.667  16.517
  838ETHO   H11 6457  14.713  21.581  16.566
  838ETHO   H13 6458  14.697  21.756  16.506
  838ETHO    C2 6459  14.796  21.626  16.373
  838ETHO   H21 6460  14.809  21.719  16.314
  838ETHO   H23 6461  14.700  21.575  16.348
  839ETHO    O1 6462  14.913  21.544  16.374
  839ETHO    C1 6463  14.927  21.492  16.246
  839ETHO   H11 6464  14.845  21.418  16.234
  839ETHO   H13 6465  14.914  21.562  16.161
  839ETHO    C2 6466  15.064  21.417  16.248
  839ETHO   H21 6467  15.054  21.333  16.320
  839ETHO   H23 6468  15.148  21.487  16.267
  840ETHO    O1 6469  15.081  21.340  16.125
  840ETHO    C1 6470  15.161  21.226  16.136
  840ETHO   H11 6471  15.131  21.165  16.224
  840ETHO   H13 6472  15.269  21.249  16.144
  840ETHO    C2 6473  15.140  21.142  16.007
  840ETHO   H21 6474  15.244  21.126  15.971
  840ETHO   H23 6475  15.081  21.200  15.933
  841ETHO    O1 6476  15.077  21.023  16.051
  841ETHO    C1 6477  15.052  20.937  15.946
  841ETHO   H11 6478  14.983  20.982  15.871
  841ETHO   H13 6479  15.153  20.919  15.903
  841ETHO    C2 6480  14.996  20.798  15.980
  841ETHO   H21 6481  15.072  20.739  16.035
  841ETHO   H23 6482  14.966  20.743  15.888
  842ETHO    O1 6483  14.878  20.814  16.061
  842ETHO    C1 6484  14.819  20.688  16.086
  842ETHO   H11 6485  14.881  20.632  16.160
  842ETHO   H13 6486  14.807  20.632  15.991
  842ETHO    C2 6487  14.679  20.699  16.152
  842ETHO   H21 6488  14.673  20.788  16.219
  842ETHO   H23 6489  14.650  20.606  16.206
  843ETHO    O1 6490  14.568  20.717  16.055
  843ETHO    C1 6491  14.445  20.705  16.128
  843ETHO   H11 6492  14.368  20.691  16.049
  843ETHO   H13 6493  14.449  20.621  16.201
  843ETHO    C2 6494  14.406  20.832  16.197
  843ETHO   H21 6495  14.418  20.910  16.119
  843ETHO   H23 6496  14.300  20.822  16.230
  844ETHO    O1 6497  14.473  20.860  16.322
  844ETHO    C1 6498  14.416  20.968  16.387
  844ETHO   H11 6499  14.313  20.931  16.410
  844ETHO   H13 6500  14.396  21.052  16.318
  844ETHO    C2 6501  14.472  21.008  16.523
  844ETHO   H21 6502  14.406  21.091  16.555
  844ETHO   H23 6503  14.576  21.047  16.520
  845ETHO    O1 6504  14.463  20.905  16.619
  845ETHO    C1 6505  14.449  20.951  16.754
  845ETHO   H11 6506  14.524  21.030  16.772
  845ETHO   H13 6507  14.340  20.974  16.761
  845ETHO    C2 6508  14.481  20.846  16.861
  845ETHO   H21 6509  14.492  20.891  16.963
  845ETHO   H23 6510  14.570  20.788  16.829
  846ETHO    O1 6511  14.374  20.748  16.869
  846ETHO    C1 6512  14.421  20.624  16.925
  846ETHO   H11 6513  14.426  20.634  17.035
  846ETHO   H13 6514  14.523  20.601  16.887
  846ETHO    C2 6515  14.324  20.514  16.888
  846ETHO   H21 6516  14.324  20.497  16.778
  846ETHO   H23 6517  14.220  20.537  16.922
  847ETHO    O1 6518  14.374  20.399  16.960
  847ETHO    C1 6519  14.324  20.275  16.907
  847ETHO   H11 6520  14.214  20.286  16.895
  847ETHO   H13 6521  14.365  20.270  16.804
  847ETHO    C2 6522  14.365  20.150  16.981
  847ETHO   H21 6523  14.305  20.070  16.933
  847ETHO   H23 6524  14.342  20.162  17.089
  848ETHO    O1 6525  14.506  20.124  16.962
  848ETHO    C1 6526  14.549  20.020  17.047
  848ETHO   H11 6527  14.560  20.061  17.149
  848ETHO   H13 6528  14.480  19.932  17.051
  848ETHO    C2 6529  14.688  19.984  16.998
  848ETHO   H21 6530  14.680  19.969  16.888
  848ETHO   H23 6531  14.704  19.886  17.049
  849ETHO    O1 6532  14.787  20.076  17.034
  849ETHO    C1 6533  14.923  20.034  16.993
  849ETHO   H11 6534  14.952  19.946  17.056
  849ETHO   H13 6535  14.927  20.007  16.886
  849ETHO    C2 6536  15.026  20.147  17.002
  849ETHO   H21 6537  14.978  20.241  16.969
  849ETHO   H23 6538  15.108  20.117  16.932
  850ETHO    O1 6539  15.071  20.156  17.133
  850ETHO    C1 6540  15.156  20.272  17.145
  850ETHO   H11 6541  15.109  20.360  17.096
  850ETHO   H13 6542  15.164  20.297  17.253
  850ETHO    C2 6543  15.298  20.257  17.091
  850ETHO   H21 6544  15.290  20.203  16.994
  850ETHO   H23 6545  15.341  20.353  17.056
  851ETHO    O1 6546  15.386  20.194  17.193
  851ETHO    C1 6547  15.494  20.122  17.128
  851ETHO   H11 6548  15.538  20.195  17.057
  851ETHO   H13 6549  15.468  20.031  17.071
  851ETHO    C2 6550  15.608  20.091  17.224
  851ETHO   H21 6551  15.648  20.181  17.275
  851ETHO   H23 6552  15.695  20.047  17.170
  852ETHO    O1 6553  15.564  19.995  17.318
  852ETHO    C1 6554  15.661  19.970  17.416
  852ETHO   H11 6555  15.714  19.875  17.394
  852ETHO   H13 6556  15.740  20.048  17.409
  852ETHO    C2 6557  15.598  19.978  17.555
  852ETHO   H21 6558  15.562  20.083  17.547
  852ETHO   H23 6559  15.670  19.975  17.639
  853ETHO    O1 6560  15.488  19.880  17.579
  853ETHO    C1 6561  15.455  19.873  17.718
  853ETHO   H11 6562  15.350  19.838  17.719
  853ETHO   H13 6563  15.468  19.967  17.776
  853ETHO    C2 6564  15.525  19.755  17.788
  853ETHO   H21 6565  15.509  19.656  17.740
  853ETHO   H23 6566  15.480  19.754  17.889
  854ETHO    O1 6567  15.653  19.790  17.809
  854ETHO    C1 6568  15.735  19.686  17.867
  854ETHO   H11 6569  15.702  19.658  17.969
  854ETHO   H13 6570  15.711  19.593  17.812
  854ETHO    C2 6571  15.888  19.712  17.866
  854ETHO   H21 6572  15.919  19.762  17.771
  854ETHO   H23 6573  15.944  19.617  17.879
  855ETHO    O1 6574  15.921  19.799  17.971
  855ETHO    C1 6575  16.064  19.822  17.971
  855ETHO   H11 6576  16.102  19.855  17.872
  855ETHO   H13 6577  16.121  19.728  17.993
  855ETHO    C2 6578  16.093  19.928  18.083
  855ETHO   H21 6579  16.199  19.949  18.109
  855ETHO   H23 6580  16.049  19.888  18.177
  856ETHO    O1 6581  16.036  20.053  18.049
  856ETHO    C1 6582  16.046  20.147  18.150
  856ETHO   H11 6583  16.003  20.109  18.245
  856ETHO   H13 6584  16.152  20.179  18.154
  856ETHO    C2 6585  15.967  20.273  18.108
  856ETHO   H21 6586  15.973  20.350  18.188
  856ETHO   H23 6587  15.863  20.242  18.083
  857ETHO    O1 6588  16.030  20.332  17.992
  857ETHO    C1 6589  15.993  20.471  17.972
  857ETHO   H11 6590  16.033  20.530  18.057
  857ETHO   H13 6591  15.882  20.479  17.973
  857ETHO    C2 6592  16.052  20.533  17.843
  857ETHO   H21 6593  16.152  20.496  17.811
  857ETHO   H23 6594  16.063  20.643  17.850
  858ETHO    O1 6595  15.966  20.519  17.734
  858ETHO    C1 6596  16.000  20.601  17.628
  858ETHO   H11 6597  15.951  20.699  17.646
  858ETHO   H13 6598  16.110  20.614  17.625
  858ETHO    C2 6599  15.940  20.547  17.503
  858ETHO   H21 6600  15.971  20.442  17.490
  858ETHO   H23 6601  15.968  20.619  17.423
  859ETHO    O1 6602  15.799  20.546  17.498
  859ETHO    C1 6603  15.750  20.508  17.367
  859ETHO   H11 6604  15.737  20.398  17.366
  859ETHO   H13 6605  15.832  20.539  17.299
  859ETHO    C2 6606  15.618  20.565  17.316
  859ETHO   H21 6607  15.533  20.555  17.387
  859ETHO   H23 6608  15.613  20.504  17.223
  860ETHO    O1 6609  15.635  20.701  17.284
  860ETHO    C1 6610  15.518  20.748  17.228
  860ETHO   H11 6611  15.440  20.669  17.239
  860ETHO   H13 6612  15.478  20.840  17.276
  860ETHO    C2 6613  15.537  20.769  17.078
  860ETHO   H21 6614  15.431  20.770  17.045
  860ETHO   H23 6615  15.573  20.673  17.035
  861ETHO    O1 6616  15.619  20.883  17.039
  861ETHO    C1 6617  15.654  20.874  16.902
  861ETHO   H11 6618  15.562  20.875  16.840
  861ETHO   H13 6619  15.718  20.784  16.889
  861ETHO    C2 6620  15.737  20.998  16.865
  861ETHO   H21 6621  15.797  20.968  16.776
  861ETHO   H23 6622  15.804  21.032  16.947
  862ETHO    O1 6623  15.650  21.111  16.831
  862ETHO    C1 6624  15.734  21.216  16.792
  862ETHO   H11 6625  15.799  21.250  16.875
  862ETHO   H13 6626  15.794  21.188  16.703
  862ETHO    C2 6627  15.638  21.335  16.767
  862ETHO   H21 6628  15.566  21.350  16.851
  862ETHO   H23 6629  15.586  21.324  16.669
  863ETHO    O1 6630  15.714  21.455  16.765
  863ETHO    C1 6631  15.631  21.563  16.729
  863ETHO   H11 6632  15.603  21.557  16.621
  863ETHO   H13 6633  15.539  21.571  16.790
  863ETHO    C2 6634  15.722  21.685  16.751
  863ETHO   H21 6635  15.661  21.773  16.719
  863ETHO   H23 6636  15.811  21.698  16.686
  864ETHO    O1 6637  15.739  21.694  16.893
  864ETHO    C1 6638  15.851  21.779  16.934
  864ETHO   H11 6639  15.945  21.756  16.880
  864ETHO   H13 6640  15.823  21.879  16.894
  864ETHO    C2 6641  15.870  21.779  17.085
  864ETHO   H21 6642  15.768  21.784  17.129
  864ETHO   H23 6643  15.941  21.859  17.116
  865ETHO    O1 6644  15.912  21.647  17.130
  865ETHO    C1 6645  15.942  21.639  17.268
  865ETHO   H11 6646  15.986  21.735  17.303
  865ETHO   H13 6647  15.847  21.632  17.325
  865ETHO    C2 6648  16.021  21.514  17.306
  865ETHO   H21 6649  15.972  21.422  17.267
  865ETHO   H23 6650  16.026  21.510  17.416
  866ETHO    O1 6651  16.157  21.515  17.263
  866ETHO    C1 6652  16.218  21.390  17.275
  866ETHO   H11 6653  16.276  21.365  17.184
  866ETHO   H13 6654  16.141  21.311  17.282
  866ETHO    C2 6655  16.314  21.388  17.397
  866ETHO   H21 6656  16.403  21.440  17.355
  866ETHO   H23 6657  16.341  21.282  17.418
  867ETHO    O1 6658  16.261  21.442  17.518
  867ETHO    C1 6659  16.176  21.347  17.583
  867ETHO   H11 6660  16.116  21.290  17.509
  867ETHO   H13 6661  16.249  21.275  17.625
  867ETHO    C2 6662  16.096  21.410  17.695
  867ETHO   H21 6663  16.168  21.470  17.757
  867ETHO   H23 6664  16.054  21.332  17.762
  868ETHO    O1 6665  15.983  21.489  17.655
  868ETHO    C1 6666  15.940  21.572  17.753
  868ETHO   H11 6667  16.033  21.627  17.779
  868ETHO   H13 6668  15.903  21.514  17.840
  868ETHO    C2 6669  15.828  21.672  17.704
  868ETHO   H21 6670  15.756  21.708  17.780
  868ETHO   H23 6671  15.762  21.605  17.646
  869ETHO    O1 6672  15.873  21.785  17.626
  869ETHO    C1 6673  15.763  21.851  17.551
  869ETHO   H11 6674  15.719  21.782  17.477
  869ETHO   H13 6675  15.689  21.880  17.629
  869ETHO    C2 6676  15.822  21.978  17.496
  869ETHO   H21 6677  15.892  22.022  17.570
  869ETHO   H23 6678  15.740  22.053  17.488
  870ETHO    O1 6679  15.897  21.981  17.377
  870ETHO    C1 6680  15.923  22.115  17.330
  870ETHO   H11 6681  15.946  22.181  17.417
  870ETHO   H13 6682  15.839  22.155  17.270
  870ETHO    C2 6683  16.047  22.135  17.242
  870ETHO   H21 6684  16.142  22.096  17.286
  870ETHO   H23 6685  16.068  22.244  17.242
  871ETHO    O1 6686  16.036  22.091  17.103
  871ETHO    C1 6687  16.157  22.124  17.038
  871ETHO   H11 6688  16.164  22.235  17.029
  871ETHO   H13 6689  16.246  22.078  17.086
  871ETHO    C2 6690  16.166  22.048  16.906
  871ETHO   H21 6691  16.149  21.939  16.918
  871ETHO   H23 6692  16.266  22.068  16.864
  872ETHO    O1 6693  16.066  22.092  16.808
  872ETHO    C1 6694  16.096  22.027  16.679
  872ETHO   H11 6695  16.091  21.916  16.682
  872ETHO   H13 6696  16.198  22.057  16.649
  872ETHO    C2 6697  15.996  22.067  16.568
  872ETHO   H21 6698  16.051  22.052  16.472
  872ETHO   H23 6699  15.986  22.176  16.582
  873ETHO    O1 6700  15.875  21.987  16.572
  873ETHO    C1 6701  15.768  22.056  16.504
  873ETHO   H11 6702  15.756  22.151  16.561
  873ETHO   H13 6703  15.798  22.090  16.403
  873ETHO    C2 6704  15.627  21.992  16.511
  873ETHO   H21 6705  15.549  22.067  16.483
  873ETHO   H23 6706  15.597  21.958  16.612
  874ETHO    O1 6707  15.626  21.887  16.420
  874ETHO    C1 6708  15.505  21.812  16.443
  874ETHO   H11 6709  15.492  21.764  16.543
  874ETHO   H13 6710  15.413  21.873  16.429
  874ETHO    C2 6711  15.505  21.683  16.347
  874ETHO   H21 6712  15.525  21.722  16.245
  874ETHO   H23 6713  15.403  21.644  16.367
  875ETHO    O1 6714  15.597  21.579  16.377
  875ETHO    C1 6715  15.588  21.469  16.287
  875ETHO   H11 6716  15.626  21.495  16.186
  875ETHO   H13 6717  15.665  21.398  16.326
  875ETHO    C2 6718  15.452  21.393  16.268
  875ETHO   H21 6719  15.458  21.329  16.178
  875ETHO   H23 6720  15.370  21.465  16.248
  876ETHO    O1 6721  15.414  21.314  16.378
  876ETHO    C1 6722  15.463  21.179  16.365
  876ETHO   H11 6723  15.450  21.131  16.266
  876ETHO   H13 6724  15.571  21.173  16.391
  876ETHO    C2 6725  15.379  21.088  16.453
  876ETHO   H21 6726  15.436  20.996  16.476
  876ETHO   H23 6727  15.373  21.141  16.550
  877ETHO    O1 6728  15.253  21.050  16.390
  877ETHO    C1 6729  15.189  20.946  16.458
  877ETHO   H11 6730  15.213  20.962  16.565
  877ETHO   H13 6731  15.227  20.848  16.423
  877ETHO    C2 6732  15.041  20.922  16.420
  877ETHO   H21 6733  15.029  20.905  16.311
  877ETHO   H23 6734  14.997  21.021  16.446
  878ETHO    O1 6735  14.989  20.822  16.501
  878ETHO    C1 6736  14.858  20.799  16.462
  878ETHO   H11 6737  14.799  20.890  16.439
  878ETHO   H13 6738  14.862  20.753  16.361
  878ETHO    C2 6739  14.787  20.704  16.567
  878ETHO   H21 6740  14.677  20.699  16.549
  878ETHO   H23 6741  14.811  20.749  16.665
  879ETHO    O1 6742  14.838  20.569  16.578
  879ETHO    C1 6743  14.755  20.491  16.661
  879ETHO   H11 6744  14.662  20.477  16.602
  879ETHO   H13 6745  14.739  20.544  16.757
  879ETHO    C2 6746  14.795  20.346  16.689
  879ETHO   H21 6747  14.733  20.326  16.779
  879ETHO   H23 6748  14.900  20.341  16.725
  880ETHO    O1 6749  14.757  20.247  16.591
  880ETHO    C1 6750  14.788  20.118  16.644
  880ETHO   H11 6751  14.886  20.113  16.695
  880ETHO   H13 6752  14.708  20.089  16.716
  880ETHO    C2 6753  14.783  20.012  16.533
  880ETHO   H21 6754  14.688  20.023  16.477
  880ETHO   H23 6755  14.771  19.908  16.571
  881ETHO    O1 6756  14.899  20.013  16.446
  881ETHO    C1 6757  15.001  19.922  16.492
  881ETHO   H11 6758  15.013  19.918  16.602
  881ETHO   H13 6759  15.098  19.946  16.445
  881ETHO    C2 6760  14.971  19.775  16.448
  881ETHO   H21 6761  14.869  19.740  16.475
  881ETHO   H23 6762  15.040  19.702  16.495
  882ETHO    O1 6763  15.003  19.758  16.310
  882ETHO    C1 6764  14.994  19.621  16.275
  882ETHO   H11 6765  15.061  19.559  16.338
  882ETHO   H13 6766  14.887  19.595  16.291
  882ETHO    C2 6767  15.040  19.594  16.127
  882ETHO   H21 6768  15.066  19.486  16.137
  882ETHO   H23 6769  15.133  19.650  16.106
  883ETHO    O1 6770  14.942  19.620  16.025
  883ETHO    C1 6771  15.003  19.595  15.896
  883ETHO   H11 6772  15.032  19.487  15.899
  883ETHO   H13 6773  15.099  19.650  15.886
  883ETHO    C2 6774  14.917  19.624  15.774
  883ETHO   H21 6775  14.991  19.646  15.694
  883ETHO   H23 6776  14.867  19.721  15.795
  884ETHO    O1 6777  14.819  19.524  15.741
  884ETHO    C1 6778  14.762  19.550  15.605
  884ETHO   H11 6779  14.729  19.656  15.605
  884ETHO   H13 6780  14.844  19.542  15.530
  884ETHO    C2 6781  14.644  19.456  15.576
  884ETHO   H21 6782  14.597  19.497  15.485
  884ETHO   H23 6783  14.572  19.459  15.660
  885ETHO    O1 6784  14.682  19.325  15.546
  885ETHO    C1 6785  14.568  19.245  15.514
  885ETHO   H11 6786  14.496  19.249  15.598
  885ETHO   H13 6787  14.517  19.297  15.430
  885ETHO    C2 6788  14.615  19.116  15.455
  885ETHO   H21 6789  14.665  19.057  15.534
  885ETHO   H23 6790  14.688  19.136  15.374
  886ETHO    O1 6791  14.509  19.034  15.408
  886ETHO    C1 6792  14.559  18.898  15.388
  886ETHO   H11 6793  14.577  18.880  15.280
  886ETHO   H13 6794  14.646  18.876  15.454
  886ETHO    C2 6795  14.432  18.812  15.435
  886ETHO   H21 6796  14.334  18.861  15.416
  886ETHO   H23 6797  14.435  18.801  15.545
  887ETHO    O1 6798  14.429  18.676  15.375
  887ETHO    C1 6799  14.497  18.589  15.462
  887ETHO   H11 6800  14.598  18.633  15.480
  887ETHO   H13 6801  14.442  18.575  15.557
  887ETHO    C2 6802  14.504  18.442  15.415
  887ETHO   H21 6803  14.589  18.397  15.471
  887ETHO   H23 6804  14.518  18.438  15.305
  888ETHO    O1 6805  14.395  18.361  15.445
  888ETHO    C1 6806  14.398  18.227  15.386
  888ETHO   H11 6807  14.487  18.172  15.424
  888ETHO   H13 6808  14.410  18.237  15.276
  888ETHO    C2 6809  14.271  18.147  15.422
  888ETHO   H21 6810  14.180  18.186  15.372
  888ETHO   H23 6811  14.248  18.141  15.531
  889ETHO    O1 6812  14.295  18.009  15.384
  889ETHO    C1 6813  14.183  17.919  15.403
  889ETHO   H11 6814  14.182  17.890  15.510
  889ETHO   H13 6815  14.092  17.978  15.379
  889ETHO    C2 6816  14.195  17.789  15.321
  889ETHO   H21 6817  14.129  17.710  15.362
  889ETHO   H23 6818  14.295  17.743  15.330
  890ETHO    O1 6819  14.173  17.807  15.183
  890ETHO    C1 6820  14.037  17.828  15.152
  890ETHO   H11 6821  14.022  17.937  15.136
  890ETHO   H13 6822  13.971  17.792  15.234
  890ETHO    C2 6823  13.993  17.763  15.020
  890ETHO   H21 6824  14.065  17.786  14.939
  890ETHO   H23 6825  13.890  17.783  14.982
  891ETHO    O1 6826  14.012  17.625  15.033
  891ETHO    C1 6827  13.948  17.551  14.920
  891ETHO   H11 6828  13.842  17.583  14.910
  891ETHO   H13 6829  14.000  17.575  14.825
  891ETHO    C2 6830  13.957  17.386  14.925
  891ETHO   H21 6831  14.048  17.364  14.985
  891ETHO   H23 6832  13.973  17.350  14.822
  892ETHO    O1 6833  13.841  17.332  14.993
  892ETHO    C1 6834  13.747  17.273  14.902
  892ETHO   H11 6835  13.798  17.189  14.850
  892ETHO   H13 6836  13.728  17.348  14.823
  892ETHO    C2 6837  13.627  17.215  14.965
  892ETHO   H21 6838  13.554  17.195  14.884
  892ETHO   H23 6839  13.584  17.287  15.037
  893ETHO    O1 6840  13.642  17.090  15.026
  893ETHO    C1 6841  13.510  17.043  15.075
  893ETHO   H11 6842  13.513  17.037  15.186
  893ETHO   H13 6843  13.423  17.109  15.053
  893ETHO    C2 6844  13.487  16.895  15.038
  893ETHO   H21 6845  13.408  16.860  15.107
  893ETHO   H23 6846  13.579  16.834  15.054
  894ETHO    O1 6847  13.437  16.898  14.908
  894ETHO    C1 6848  13.439  16.758  14.862
  894ETHO   H11 6849  13.363  16.701  14.919
  894ETHO   H13 6850  13.541  16.720  14.884
  894ETHO    C2 6851  13.412  16.748  14.708
  894ETHO   H21 6852  13.473  16.834  14.672
  894ETHO   H23 6853  13.308  16.761  14.674
  895ETHO    O1 6854  13.456  16.625  14.657
  895ETHO    C1 6855  13.483  16.628  14.518
  895ETHO   H11 6856  13.386  16.647  14.468
  895ETHO   H13 6857  13.550  16.714  14.497
  895ETHO    C2 6858  13.539  16.495  14.463
  895ETHO   H21 6859  13.504  16.502  14.357
  895ETHO   H23 6860  13.483  16.408  14.505
  896PROX    O1 6861  13.686  16.482  14.457
  896PROX    C1 6862  13.725  16.358  14.411
  896PROX   H11 6863  13.715  16.290  14.499
  896PROX   H13 6864  13.673  16.329  14.318
  896PROX    C2 6865  13.878  16.364  14.373
  896PROX   H21 6866  13.927  16.374  14.471
  896PROX    C3 6867  13.918  16.488  14.289
  896PROX   H31 6868  14.029  16.497  14.292
  896PROX   H32 6869  13.890  16.499  14.183
  896PROX   H33 6870  13.862  16.573  14.333
  897PROX    O1 6871  13.918  16.244  14.297
  897PROX    C1 6872  14.061  16.234  14.291
  897PROX   H11 6873  14.092  16.306  14.213
  897PROX   H13 6874  14.106  16.243  14.393
  897PROX    C2 6875  14.101  16.096  14.244
  897PROX   H21 6876  14.057  16.072  14.146
  897PROX    C3 6877  14.046  15.985  14.339
  897PROX   H31 6878  14.071  15.885  14.298
  897PROX   H32 6879  14.086  15.987  14.442
  897PROX   H33 6880  13.937  15.997  14.355
  898PROX    O1 6881  14.244  16.104  14.246
  898PROX    C1 6882  14.307  15.995  14.183
  898PROX   H11 6883  14.297  15.905  14.248
  898PROX   H13 6884  14.264  15.965  14.085
  898PROX    C2 6885  14.465  16.016  14.166
  898PROX   H21 6886  14.501  16.051  14.265
  898PROX    C3 6887  14.493  16.130  14.065
  898PROX   H31 6888  14.469  16.106  13.959
  898PROX   H32 6889  14.439  16.226  14.081
  898PROX   H33 6890  14.602  16.150  14.076
  899PROX    O1 6891  14.524  15.888  14.129
  899PROX    C1 6892  14.669  15.883  14.119
  899PROX   H11 6893  14.694  15.799  14.050
  899PROX   H13 6894  14.714  15.975  14.077
  899PROX    C2 6895  14.740  15.848  14.255
  899PROX   H21 6896  14.725  15.928  14.330
  899PROX    C3 6897  14.889  15.827  14.236
  899PROX   H31 6898  14.903  15.777  14.138
  899PROX   H32 6899  14.947  15.921  14.246
  899PROX   H33 6900  14.933  15.758  14.311
  900PROX    O1 6901  14.687  15.727  14.293
  900PROX    C1 6902  14.670  15.722  14.436
  900PROX   H11 6903  14.769  15.754  14.476
  900PROX   H13 6904  14.591  15.794  14.467
  900PROX    C2 6905  14.651  15.586  14.500
  900PROX   H21 6906  14.635  15.603  14.608
  900PROX    C3 6907  14.777  15.507  14.494
  900PROX   H31 6908  14.808  15.504  14.387
  900PROX   H32 6909  14.858  15.551  14.555
  900PROX   H33 6910  14.762  15.405  14.535
  901PROX    O1 6911  14.546  15.514  14.441
  901PROX    C1 6912  14.421  15.562  14.480
  901PROX   H11 6913  14.383  15.498  14.563
  901PROX   H13 6914  14.421  15.660  14.533
  901PROX    C2 6915  14.321  15.562  14.365
  901PROX   H21 6916  14.356  15.636  14.290
  901PROX    C3 6917  14.183  15.612  14.416
  901PROX   H31 6918  14.181  15.709  14.470
  901PROX   H32 6919  14.111  15.632  14.334
  901PROX   H33 6920  14.138  15.538  14.486
  902PROX    O1 6921  14.303  15.433  14.302
  902PROX    C1 6922  14.256  15.324  14.384
  902PROX   H11 6923  14.302  15.325  14.485
  902PROX   H13 6924  14.151  15.352  14.403
  902PROX    C2 6925  14.282  15.186  14.317
  902PROX   H21 6926  14.260  15.192  14.208
  902PROX    C3 6927  14.195  15.078  14.389
  902PROX   H31 6928  14.235  14.975  14.380
  902PROX   H32 6929  14.177  15.113  14.493
  902PROX   H33 6930  14.093  15.073  14.346
  903PROX    O1 6931  14.417  15.137  14.338
  903PROX    C1 6932  14.519  15.207  14.266
  903PROX   H11 6933  14.499  15.226  14.158
  903PROX   H13 6934  14.530  15.305  14.317
  903PROX    C2 6935  14.650  15.134  14.266
  903PROX   H21 6936  14.672  15.105  14.371
  903PROX    C3 6937  14.770  15.222  14.207
  903PROX   H31 6938  14.768  15.235  14.097
  903PROX   H32 6939  14.774  15.324  14.251
  903PROX   H33 6940  14.859  15.163  14.238
  904PROX    O1 6941  14.659  15.014  14.187
  904PROX    C1 6942  14.624  14.898  14.262
  904PROX   H11 6943  14.533  14.910  14.326
  904PROX   H13 6944  14.603  14.810  14.198
  904PROX    C2 6945  14.747  14.848  14.353
  904PROX   H21 6946  14.771  14.934  14.420
  904PROX    C3 6947  14.868  14.821  14.263
  904PROX   H31 6948  14.902  14.918  14.221
  904PROX   H32 6949  14.949  14.775  14.324
  904PROX   H33 6950  14.839  14.749  14.184
  905PROX    O1 6951  14.705  14.739  14.425
  905PROX    C1 6952  14.794  14.722  14.533
  905PROX   H11 6953  14.873  14.653  14.497
  905PROX   H13 6954  14.836  14.816  14.574
  905PROX    C2 6955  14.713  14.645  14.653
  905PROX   H21 6956  14.776  14.645  14.744
  905PROX    C3 6957  14.682  14.499  14.618
  905PROX   H31 6958  14.602  14.470  14.689
  905PROX   H32 6959  14.633  14.498  14.518
  905PROX   H33 6960  14.775  14.438  14.615
  906PROX    O1 6961  14.583  14.700  14.673
  906PROX    C1 6962  14.591  14.832  14.723
  906PROX   H11 6963  14.657  14.838  14.813
  906PROX   H13 6964  14.622  14.904  14.645
  906PROX    C2 6965  14.451  14.874  14.758
  906PROX   H21 6966  14.397  14.803  14.824
  906PROX    C3 6967  14.368  14.886  14.625
  906PROX   H31 6968  14.363  14.784  14.583
  906PROX   H32 6969  14.274  14.939  14.652
  906PROX   H33 6970  14.415  14.943  14.542
  907PROX    O1 6971  14.452  15.008  14.823
  907PROX    C1 6972  14.364  15.008  14.936
  907PROX   H11 6973  14.260  14.989  14.901
  907PROX   H13 6974  14.383  14.923  15.005
  907PROX    C2 6975  14.376  15.146  15.009
  907PROX   H21 6976  14.477  15.149  15.057
  907PROX    C3 6977  14.268  15.159  15.126
  907PROX   H31 6978  14.168  15.126  15.092
  907PROX   H32 6979  14.303  15.080  15.197
  907PROX   H33 6980  14.268  15.259  15.172
  908PROX    O1 6981  14.358  15.256  14.915
  908PROX    C1 6982  14.374  15.389  14.964
  908PROX   H11 6983  14.296  15.420  15.037
  908PROX   H13 6984  14.471  15.400  15.016
  908PROX    C2 6985  14.388  15.499  14.855
  908PROX   H21 6986  14.439  15.447  14.771
  908PROX    C3 6987  14.473  15.620  14.896
  908PROX   H31 6988  14.578  15.596  14.923
  908PROX   H32 6989  14.468  15.687  14.807
  908PROX   H33 6990  14.433  15.681  14.980
  909PROX    O1 6991  14.258  15.530  14.797
  909PROX    C1 6992  14.202  15.647  14.857
  909PROX   H11 6993  14.210  15.643  14.968
  909PROX   H13 6994  14.260  15.737  14.827
  909PROX    C2 6995  14.048  15.655  14.828
  909PROX   H21 6996  14.034  15.585  14.742
  909PROX    C3 6997  13.995  15.796  14.805
  909PROX   H31 6998  14.044  15.861  14.880
  909PROX   H32 6999  14.033  15.826  14.705
  909PROX   H33 7000  13.885  15.801  14.818
  910PROX    O1 7001  13.980  15.624  14.949
  910PROX    C1 7002  13.937  15.493  14.952
  910PROX   H11 7003  13.853  15.488  14.880
  910PROX   H13 7004  14.012  15.415  14.925
  910PROX    C2 7005  13.867  15.458  15.090
  910PROX   H21 7006  13.801  15.540  15.127
  910PROX    C3 7007  13.957  15.427  15.201
  910PROX   H31 7008  13.895  15.410  15.292
  910PROX   H32 7009  14.016  15.335  15.181
  910PROX   H33 7010  14.033  15.505  15.224
  911PROX    O1 7011  13.796  15.330  15.063
  911PROX    C1 7012  13.709  15.289  15.168
  911PROX   H11 7013  13.754  15.286  15.270
  911PROX   H13 7014  13.634  15.371  15.171
  911PROX    C2 7015  13.646  15.163  15.134
  911PROX   H21 7016  13.626  15.164  15.025
  911PROX    C3 7017  13.514  15.142  15.210
  911PROX   H31 7018  13.442  15.217  15.173
  911PROX   H32 7019  13.476  15.039  15.192
  911PROX   H33 7020  13.525  15.164  15.319
  912PROX    O1 7021  13.729  15.056  15.173
  912PROX    C1 7022  13.836  15.032  15.081
  912PROX   H11 7023  13.800  15.050  14.978
  912PROX   H13 7024  13.919  15.104  15.096
  912PROX    C2 7025  13.904  14.892  15.094
  912PROX   H21 7026  13.827  14.812  15.088
  912PROX    C3 7027  13.970  14.863  15.225
  912PROX   H31 7028  14.044  14.942  15.249
  912PROX   H32 7029  13.909  14.864  15.318
  912PROX   H33 7030  14.017  14.763  15.216
  913PROX    O1 7031  13.994  14.876  14.986
  913PROX    C1 7032  13.929  14.816  14.873
  913PROX   H11 7033  13.920  14.706  14.879
  913PROX   H13 7034  13.823  14.848  14.877
  913PROX    C2 7035  13.991  14.874  14.747
  913PROX   H21 7036  14.095  14.835  14.740
  913PROX    C3 7037  13.986  15.028  14.737
  913PROX   H31 7038  13.879  15.057  14.725
  913PROX   H32 7039  14.027  15.065  14.833
  913PROX   H33 7040  14.051  15.059  14.653
  914PROX    O1 7041  13.919  14.819  14.638
  914PROX    C1 7042  13.983  14.830  14.510
  914PROX   H11 7043  13.987  14.940  14.491
  914PROX   H13 7044  14.089  14.797  14.508
  914PROX    C2 7045  13.901  14.760  14.404
  914PROX   H21 7046  13.796  14.763  14.439
  914PROX    C3 7047  13.913  14.606  14.392
  914PROX   H31 7048  14.017  14.579  14.363
  914PROX   H32 7049  13.885  14.553  14.486
  914PROX   H33 7050  13.855  14.576  14.303
  915PROX    O1 7051  13.910  14.819  14.278
  915PROX    C1 7052  14.035  14.797  14.216
  915PROX   H11 7053  14.119  14.791  14.289
  915PROX   H13 7054  14.024  14.697  14.169
  915PROX    C2 7055  14.052  14.904  14.114
  915PROX   H21 7056  14.068  15.002  14.163
  915PROX    C3 7057  13.938  14.911  14.006
  915PROX   H31 7058  13.843  14.930  14.059
  915PROX   H32 7059  13.955  14.982  13.923
  915PROX   H33 7060  13.909  14.811  13.968
  916PROX    O1 7061  14.179  14.897  14.050
  916PROX    C1 7062  14.193  14.809  13.944
  916PROX   H11 7063  14.159  14.710  13.982
  916PROX   H13 7064  14.126  14.834  13.859
  916PROX    C2 7065  14.345  14.804  13.901
  916PROX   H21 7066  14.402  14.749  13.980
  916PROX    C3 7067  14.399  14.948  13.886
  916PROX   H31 7068  14.395  14.998  13.985
  916PROX   H32 7069  14.505  14.961  13.856
  916PROX   H33 7070  14.339  15.013  13.818
  917PROX    O1 7071  14.356  14.733  13.778
  917PROX    C1 7072  14.286  14.616  13.769
  917PROX   H11 7073  14.284  14.565  13.868
  917PROX   H13 7074  14.183  14.629  13.729
  917PROX    C2 7075  14.361  14.524  13.669
  917PROX   H21 7076  14.470  14.536  13.684
  917PROX    C3 7077  14.327  14.566  13.522
  917PROX   H31 7078  14.374  14.662  13.492
  917PROX   H32 7079  14.374  14.495  13.450
  917PROX   H33 7080  14.216  14.573  13.518
  918PROX    O1 7081  14.337  14.387  13.698
  918PROX    C1 7082  14.210  14.344  13.650
  918PROX   H11 7083  14.130  14.419  13.668
  918PROX   H13 7084  14.226  14.316  13.543
  918PROX    C2 7085  14.175  14.212  13.723
  918PROX   H21 7086  14.165  14.225  13.833
  918PROX    C3 7087  14.285  14.108  13.715
  918PROX   H31 7088  14.382  14.139  13.759
  918PROX   H32 7089  14.245  14.018  13.767
  918PROX   H33 7090  14.313  14.093  13.609
  919PROX    O1 7091  14.068  14.153  13.659
  919PROX    C1 7092  13.943  14.216  13.703
  919PROX   H11 7093  13.922  14.181  13.806
  919PROX   H13 7094  13.946  14.327  13.700
  919PROX    C2 7095  13.834  14.174  13.602
  919PROX   H21 7096  13.835  14.063  13.611
  919PROX    C3 7097  13.854  14.224  13.462
  919PROX   H31 7098  13.940  14.172  13.414
  919PROX   H32 7099  13.757  14.221  13.407
  919PROX   H33 7100  13.888  14.329  13.473
  920PROX    O1 7101  13.714  14.240  13.643
  920PROX    C1 7102  13.658  14.189  13.763
  920PROX   H11 7103  13.663  14.078  13.761
  920PROX   H13 7104  13.692  14.237  13.857
  920PROX    C2 7105  13.501  14.231  13.762
  920PROX   H21 7106  13.461  14.177  13.673
  920PROX    C3 7107  13.474  14.380  13.748
  920PROX   H31 7108  13.486  14.427  13.848
  920PROX   H32 7109  13.545  14.427  13.676
  920PROX   H33 7110  13.378  14.404  13.696
  921PROX    O1 7111  13.440  14.187  13.881
  921PROX    C1 7112  13.301  14.170  13.863
  921PROX   H11 7113  13.256  14.271  13.854
  921PROX   H13 7114  13.286  14.118  13.766
  921PROX    C2 7115  13.243  14.085  13.977
  921PROX   H21 7116  13.308  14.098  14.066
  921PROX    C3 7117  13.238  13.933  13.934
  921PROX   H31 7118  13.232  13.867  14.023
  921PROX   H32 7119  13.146  13.919  13.873
  921PROX   H33 7120  13.332  13.907  13.881
  922PROX    O1 7121  13.108  14.114  13.999
  922PROX    C1 7122  13.085  14.215  14.095
  922PROX   H11 7123  13.123  14.314  14.063
  922PROX   H13 7124  12.974  14.215  14.101
  922PROX    C2 7125  13.114  14.179  14.244
  922PROX   H21 7126  13.219  14.156  14.269
  922PROX    C3 7127  13.030  14.061  14.304
  922PROX   H31 7128  13.024  14.073  14.414
  922PROX   H32 7129  12.930  14.065  14.257
  922PROX   H33 7130  13.070  13.959  14.283
  923PROX    O1 7131  13.074  14.283  14.335
  923PROX    C1 7132  13.163  14.388  14.330
  923PROX   H11 7133  13.261  14.355  14.370
  923PROX   H13 7134  13.178  14.427  14.227
  923PROX    C2 7135  13.125  14.505  14.428
  923PROX   H21 7136  13.211  14.576  14.427
  923PROX    C3 7137  13.120  14.475  14.579
  923PROX   H31 7138  13.194  14.393  14.592
  923PROX   H32 7139  13.138  14.560  14.648
  923PROX   H33 7140  13.025  14.426  14.610
  924PROX    O1 7141  13.009  14.575  14.382
  924PROX    C1 7142  13.024  14.651  14.268
  924PROX   H11 7143  13.098  14.732  14.288
  924PROX   H13 7144  13.064  14.599  14.178
  924PROX    C2 7145  12.883  14.714  14.230
  924PROX   H21 7146  12.828  14.746  14.321
  924PROX    C3 7147  12.795  14.615  14.159
  924PROX   H31 7148  12.691  14.652  14.141
  924PROX   H32 7149  12.848  14.581  14.068
  924PROX   H33 7150  12.780  14.521  14.217
  925PROX    O1 7151  12.895  14.819  14.135
  925PROX    C1 7152  12.972  14.931  14.183
  925PROX   H11 7153  12.972  14.941  14.294
  925PROX   H13 7154  13.078  14.907  14.159
  925PROX    C2 7155  12.938  15.051  14.102
  925PROX   H21 7156  12.829  15.054  14.083
  925PROX    C3 7157  13.024  15.053  13.978
  925PROX   H31 7158  12.994  14.961  13.926
  925PROX   H32 7159  13.016  15.143  13.913
  925PROX   H33 7160  13.132  15.038  14.001
  926PROX    O1 7161  12.974  15.171  14.177
  926PROX    C1 7162  12.882  15.198  14.285
  926PROX   H11 7163  12.775  15.193  14.253
  926PROX   H13 7164  12.907  15.129  14.368
  926PROX    C2 7165  12.907  15.335  14.348
  926PROX   H21 7166  13.018  15.343  14.355
  926PROX    C3 7167  12.845  15.345  14.483
  926PROX   H31 7168  12.737  15.324  14.470
  926PROX   H32 7169  12.894  15.272  14.551
  926PROX   H33 7170  12.863  15.449  14.518
  927PROX    O1 7171  12.855  15.440  14.270
  927PROX    C1 7172  12.945  15.486  14.164
  927PROX   H11 7173  13.040  15.531  14.198
  927PROX   H13 7174  12.983  15.400  14.104
  927PROX    C2 7175  12.895  15.578  14.052
  927PROX   H21 7176  12.875  15.673  14.105
  927PROX    C3 7177  12.760  15.551  13.995
  927PROX   H31 7178  12.747  15.449  13.952
  927PROX   H32 7179  12.686  15.567  14.077
  927PROX   H33 7180  12.722  15.619  13.916
  928PROX    O1 7181  12.997  15.591  13.954
  928PROX    C1 7182  12.992  15.483  13.860
  928PROX   H11 7183  12.933  15.393  13.887
  928PROX   H13 7184  12.934  15.518  13.771
  928PROX    C2 7185  13.129  15.430  13.819
  928PROX   H21 7186  13.193  15.519  13.798
  928PROX    C3 7187  13.129  15.349  13.692
  928PROX   H31 7188  13.231  15.312  13.668
  928PROX   H32 7189  13.063  15.259  13.691
  928PROX   H33 7190  13.112  15.411  13.602
  929PROX    O1 7191  13.188  15.362  13.928
  929PROX    C1 7192  13.326  15.329  13.907
  929PROX   H11 7193  13.322  15.228  13.860
  929PROX   H13 7194  13.374  15.400  13.836
  929PROX    C2 7195  13.406  15.321  14.038
  929PROX   H21 7196  13.509  15.297  14.004
  929PROX    C3 7197  13.348  15.216  14.134
  929PROX   H31 7198  13.403  15.236  14.229
  929PROX   H32 7199  13.238  15.225  14.150
  929PROX   H33 7200  13.375  15.110  14.115
  930PROX    O1 7201  13.428  15.447  14.101
  930PROX    C1 7202  13.321  15.503  14.181
  930PROX   H11 7203  13.237  15.508  14.107
  930PROX   H13 7204  13.279  15.447  14.267
  930PROX    C2 7205  13.353  15.646  14.225
  930PROX   H21 7206  13.389  15.699  14.134
  930PROX    C3 7207  13.466  15.638  14.328
  930PROX   H31 7208  13.556  15.585  14.291
  930PROX   H32 7209  13.496  15.742  14.353
  930PROX   H33 7210  13.422  15.595  14.421
  931PROX    O1 7211  13.237  15.735  14.265
  931PROX    C1 7212  13.189  15.700  14.401
  931PROX   H11 7213  13.167  15.591  14.402
  931PROX   H13 7214  13.264  15.720  14.480
  931PROX    C2 7215  13.052  15.765  14.440
  931PROX   H21 7216  12.976  15.739  14.364
  931PROX    C3 7217  13.061  15.918  14.460
  931PROX   H31 7218  13.151  15.938  14.522
  931PROX   H32 7219  13.067  15.967  14.360
  931PROX   H33 7220  12.969  15.951  14.513
  932PROX    O1 7221  13.006  15.693  14.549
  932PROX    C1 7222  13.078  15.708  14.668
  932PROX   H11 7223  13.174  15.762  14.652
  932PROX   H13 7224  13.013  15.772  14.732
  932PROX    C2 7225  13.106  15.572  14.716
  932PROX   H21 7226  13.013  15.512  14.707
  932PROX    C3 7227  13.153  15.578  14.866
  932PROX   H31 7228  13.156  15.475  14.907
  932PROX   H32 7229  13.257  15.615  14.874
  932PROX   H33 7230  13.095  15.645  14.932
  933PROX    O1 7231  13.220  15.513  14.647
  933PROX    C1 7232  13.193  15.386  14.585
  933PROX   H11 7233  13.086  15.360  14.600
  933PROX   H13 7234  13.225  15.408  14.481
  933PROX    C2 7235  13.278  15.271  14.655
  933PROX   H21 7236  13.251  15.281  14.762
  933PROX    C3 7237  13.429  15.296  14.630
  933PROX   H31 7238  13.463  15.284  14.524
  933PROX   H32 7239  13.444  15.405  14.648
  933PROX   H33 7240  13.499  15.239  14.693
  934PROX    O1 7241  13.237  15.139  14.618
  934PROX    C1 7242  13.292  15.080  14.503
  934PROX   H11 7243  13.265  15.142  14.415
  934PROX   H13 7244  13.402  15.062  14.508
  934PROX    C2 7245  13.215  14.941  14.475
  934PROX   H21 7246  13.106  14.953  14.459
  934PROX    C3 7247  13.223  14.839  14.587
  934PROX   H31 7248  13.190  14.891  14.680
  934PROX   H32 7249  13.154  14.756  14.560
  934PROX   H33 7250  13.321  14.800  14.621
  935PROX    O1 7251  13.256  14.883  14.356
  935PROX    C1 7252  13.398  14.860  14.349
  935PROX   H11 7253  13.441  14.937  14.281
  935PROX   H13 7254  13.454  14.878  14.443
  935PROX    C2 7255  13.428  14.713  14.297
  935PROX   H21 7256  13.412  14.645  14.383
  935PROX    C3 7257  13.578  14.714  14.259
  935PROX   H31 7258  13.616  14.614  14.230
  935PROX   H32 7259  13.607  14.796  14.190
  935PROX   H33 7260  13.627  14.730  14.358
  936PROX    O1 7261  13.341  14.672  14.191
  936PROX    C1 7262  13.360  14.741  14.071
  936PROX   H11 7263  13.373  14.851  14.073
  936PROX   H13 7264  13.455  14.723  14.016
  936PROX    C2 7265  13.248  14.721  13.963
  936PROX   H21 7266  13.154  14.764  14.004
  936PROX    C3 7267  13.208  14.580  13.930
  936PROX   H31 7268  13.298  14.516  13.914
  936PROX   H32 7269  13.149  14.539  14.015
  936PROX   H33 7270  13.144  14.580  13.839
  937PROX    O1 7271  13.289  14.783  13.842
  937PROX    C1 7272  13.369  14.701  13.759
  937PROX   H11 7273  13.444  14.641  13.816
  937PROX   H13 7274  13.312  14.630  13.697
  937PROX    C2 7275  13.452  14.793  13.665
  937PROX   H21 7276  13.394  14.867  13.605
  937PROX    C3 7277  13.542  14.702  13.575
  937PROX   H31 7278  13.615  14.762  13.516
  937PROX   H32 7279  13.604  14.633  13.636
  937PROX   H33 7280  13.481  14.637  13.508
  938PROX    O1 7281  13.555  14.860  13.742
  938PROX    C1 7282  13.553  15.004  13.718
  938PROX   H11 7283  13.579  15.020  13.611
  938PROX   H13 7284  13.449  15.038  13.735
  938PROX    C2 7285  13.642  15.065  13.821
  938PROX   H21 7286  13.747  15.032  13.821
  938PROX    C3 7287  13.588  15.026  13.960
  938PROX   H31 7288  13.486  15.070  13.958
  938PROX   H32 7289  13.587  14.916  13.976
  938PROX   H33 7290  13.646  15.074  14.041
  939PROX    O1 7291  13.629  15.209  13.806
  939PROX    C1 7292  13.704  15.256  13.689
  939PROX   H11 7293  13.806  15.286  13.719
  939PROX   H13 7294  13.723  15.173  13.617
  939PROX    C2 7295  13.638  15.379  13.625
  939PROX   H21 7296  13.599  15.435  13.713
  939PROX    C3 7297  13.516  15.349  13.532
  939PROX   H31 7298  13.557  15.314  13.435
  939PROX   H32 7299  13.436  15.292  13.584
  939PROX   H33 7300  13.462  15.443  13.511
  940PROX    O1 7301  13.739  15.454  13.563
  940PROX    C1 7302  13.762  15.581  13.627
  940PROX   H11 7303  13.682  15.655  13.605
  940PROX   H13 7304  13.762  15.566  13.738
  940PROX    C2 7305  13.894  15.634  13.576
  940PROX   H21 7306  13.880  15.669  13.472
  940PROX    C3 7307  14.011  15.532  13.606
  940PROX   H31 7308  14.101  15.597  13.610
  940PROX   H32 7309  14.001  15.486  13.707
  940PROX   H33 7310  14.028  15.461  13.523
  941PROX    O1 7311  13.922  15.745  13.660
  941PROX    C1 7312  13.906  15.872  13.616
  941PROX   H11 7313  13.931  15.939  13.701
  941PROX   H13 7314  13.969  15.890  13.526
  941PROX    C2 7315  13.752  15.905  13.576
  941PROX   H21 7316  13.729  15.845  13.486
  941PROX    C3 7317  13.729  16.052  13.536
  941PROX   H31 7318  13.792  16.069  13.446
  941PROX   H32 7319  13.622  16.078  13.528
  941PROX   H33 7320  13.769  16.119  13.615
  942PROX    O1 7321  13.670  15.880  13.688
  942PROX    C1 7322  13.530  15.859  13.660
  942PROX   H11 7323  13.495  15.956  13.618
  942PROX   H13 7324  13.511  15.776  13.589
  942PROX    C2 7325  13.448  15.835  13.783
  942PROX   H21 7326  13.500  15.884  13.868
  942PROX    C3 7327  13.426  15.684  13.818
  942PROX   H31 7328  13.339  15.672  13.886
  942PROX   H32 7329  13.396  15.625  13.730
  942PROX   H33 7330  13.514  15.637  13.867
  943PROX    O1 7331  13.313  15.873  13.763
  943PROX    C1 7332  13.278  15.987  13.835
  943PROX   H11 7333  13.367  16.054  13.834
  943PROX   H13 7334  13.199  16.049  13.787
  943PROX    C2 7335  13.250  15.953  13.984
  943PROX   H21 7336  13.330  15.887  14.024
  943PROX    C3 7337  13.112  15.888  13.998
  943PROX   H31 7338  13.101  15.799  13.933
  943PROX   H32 7339  13.105  15.855  14.103
  943PROX   H33 7340  13.028  15.957  13.977
  944PROX    O1 7341  13.242  16.079  14.055
  944PROX    C1 7342  13.292  16.067  14.188
  944PROX   H11 7343  13.249  16.148  14.252
  944PROX   H13 7344  13.257  15.968  14.225
  944PROX    C2 7345  13.447  16.085  14.208
  944PROX   H21 7346  13.492  16.010  14.139
  944PROX    C3 7347  13.496  16.035  14.346
  944PROX   H31 7348  13.607  16.038  14.344
  944PROX   H32 7349  13.455  16.103  14.424
  944PROX   H33 7350  13.462  15.931  14.367
  945PROX    O1 7351  13.491  16.221  14.177
  945PROX    C1 7352  13.537  16.238  14.044
  945PROX   H11 7353  13.456  16.201  13.977
  945PROX   H13 7354  13.536  16.349  14.033
  945PROX    C2 7355  13.680  16.174  14.031
  945PROX   H21 7356  13.740  16.209  14.117
  945PROX    C3 7357  13.749  16.225  13.905
  945PROX   H31 7358  13.762  16.335  13.912
  945PROX   H32 7359  13.848  16.177  13.889
  945PROX   H33 7360  13.679  16.202  13.821
  946PROX    O1 7361  13.672  16.031  14.009
  946PROX    C1 7362  13.795  15.965  14.034
  946PROX   H11 7363  13.879  16.016  13.982
  946PROX   H13 7364  13.812  15.978  14.143
  946PROX    C2 7365  13.800  15.813  14.003
  946PROX   H21 7366  13.773  15.806  13.896
  946PROX    C3 7367  13.693  15.733  14.079
  946PROX   H31 7368  13.701  15.630  14.040
  946PROX   H32 7369  13.716  15.728  14.188
  946PROX   H33 7370  13.593  15.777  14.062
  947PROX    O1 7371  13.916  15.750  14.044
  947PROX    C1 7372  14.029  15.790  13.964
  947PROX   H11 7373  13.991  15.837  13.871
  947PROX   H13 7374  14.091  15.867  14.016
  947PROX    C2 7375  14.105  15.659  13.927
  947PROX   H21 7376  14.031  15.588  13.883
  947PROX    C3 7377  14.166  15.614  14.057
  947PROX   H31 7378  14.225  15.521  14.048
  947PROX   H32 7379  14.240  15.688  14.095
  947PROX   H33 7380  14.085  15.596  14.131
  948PROX    O1 7381  14.201  15.686  13.828
  948PROX    C1 7382  14.318  15.753  13.870
  948PROX   H11 7383  14.293  15.845  13.928
  948PROX   H13 7384  14.386  15.691  13.933
  948PROX    C2 7385  14.406  15.792  13.747
  948PROX   H21 7386  14.378  15.727  13.661
  948PROX    C3 7387  14.560  15.776  13.761
  948PROX   H31 7388  14.599  15.674  13.782
  948PROX   H32 7389  14.626  15.823  13.685
  948PROX   H33 7390  14.582  15.836  13.852
  949PROX    O1 7391  14.390  15.930  13.707
  949PROX    C1 7392  14.261  15.952  13.658
  949PROX   H11 7393  14.241  15.896  13.564
  949PROX   H13 7394  14.178  15.916  13.722
  949PROX    C2 7395  14.228  16.108  13.635
  949PROX   H21 7396  14.316  16.155  13.586
  949PROX    C3 7397  14.195  16.179  13.763
  949PROX   H31 7398  14.261  16.141  13.844
  949PROX   H32 7399  14.215  16.287  13.746
  949PROX   H33 7400  14.093  16.163  13.806
  950PROX    O1 7401  14.115  16.118  13.544
  950PROX    C1 7402  14.091  16.251  13.496
  950PROX   H11 7403  13.982  16.263  13.483
  950PROX   H13 7404  14.110  16.330  13.572
  950PROX    C2 7405  14.163  16.279  13.372
  950PROX   H21 7406  14.267  16.240  13.375
  950PROX    C3 7407  14.177  16.433  13.368
  950PROX   H31 7408  14.237  16.460  13.278
  950PROX   H32 7409  14.074  16.473  13.365
  950PROX   H33 7410  14.239  16.465  13.455
  951PROX    O1 7411  14.089  16.231  13.258
  951PROX    C1 7412  14.109  16.091  13.227
  951PROX   H11 7413  14.117  16.036  13.323
  951PROX   H13 7414  14.019  16.050  13.176
  951PROX    C2 7415  14.229  16.059  13.139
  951PROX   H21 7416  14.325  16.099  13.180
  951PROX    C3 7417  14.210  16.116  12.998
  951PROX   H31 7418  14.193  16.225  13.003
  951PROX   H32 7419  14.285  16.085  12.922
  951PROX   H33 7420  14.122  16.065  12.953
  952PROX    O1 7421  14.241  15.919  13.140
  952PROX    C1 7422  14.318  15.880  13.252
  952PROX   H11 7423  14.424  15.885  13.221
  952PROX   H13 7424  14.310  15.943  13.343
  952PROX    C2 7425  14.288  15.734  13.277
  952PROX   H21 7426  14.314  15.677  13.185
  952PROX    C3 7427  14.135  15.724  13.309
  952PROX   H31 7428  14.075  15.765  13.225
  952PROX   H32 7429  14.119  15.614  13.316
  952PROX   H33 7430  14.123  15.774  13.408
  953PROX    O1 7431  14.373  15.687  13.379
  953PROX    C1 7432  14.362  15.546  13.402
  953PROX   H11 7433  14.270  15.538  13.464
  953PROX   H13 7434  14.357  15.484  13.310
  953PROX    C2 7435  14.482  15.490  13.487
  953PROX   H21 7436  14.478  15.536  13.588
  953PROX    C3 7437  14.618  15.536  13.431
  953PROX   H31 7438  14.612  15.647  13.434
  953PROX   H32 7439  14.712  15.498  13.476
  953PROX   H33 7440  14.616  15.507  13.324
  954PROX    O1 7441  14.469  15.352  13.514
  954PROX    C1 7442  14.538  15.306  13.628
  954PROX   H11 7443  14.565  15.198  13.621
  954PROX   H13 7444  14.642  15.344  13.626
  954PROX    C2 7445  14.461  15.335  13.765
  954PROX   H21 7446  14.433  15.443  13.761
  954PROX    C3 7447  14.535  15.300  13.883
  954PROX   H31 7448  14.486  15.337  13.976
  954PROX   H32 7449  14.569  15.194  13.885
  954PROX   H33 7450  14.631  15.355  13.879
  955PROX    O1 7451  14.348  15.257  13.757
  955PROX    C1 7452  14.244  15.298  13.841
  955PROX   H11 7453  14.286  15.322  13.941
  955PROX   H13 7454  14.191  15.388  13.803
  955PROX    C2 7455  14.126  15.196  13.841
  955PROX   H21 7456  14.148  15.098  13.887
  955PROX    C3 7457  14.079  15.173  13.696
  955PROX   H31 7458  14.162  15.120  13.644
  955PROX   H32 7459  13.992  15.105  13.691
  955PROX   H33 7460  14.048  15.265  13.643
  956PROX    O1 7461  14.019  15.254  13.904
  956PROX    C1 7462  14.040  15.260  14.044
  956PROX   H11 7463  14.114  15.183  14.075
  956PROX   H13 7464  14.090  15.356  14.069
  956PROX    C2 7465  13.904  15.252  14.122
  956PROX   H21 7466  13.851  15.166  14.075
  956PROX    C3 7467  13.810  15.375  14.091
  956PROX   H31 7468  13.708  15.347  14.124
  956PROX   H32 7469  13.843  15.469  14.139
  956PROX   H33 7470  13.801  15.393  13.982
  957PROX    O1 7471  13.931  15.229  14.261
  957PROX    C1 7472  13.819  15.163  14.320
  957PROX   H11 7473  13.724  15.175  14.262
  957PROX   H13 7474  13.841  15.055  14.303
  957PROX    C2 7475  13.795  15.195  14.463
  957PROX   H21 7476  13.888  15.185  14.523
  957PROX    C3 7477  13.689  15.090  14.518
  957PROX   H31 7478  13.658  15.102  14.624
  957PROX   H32 7479  13.593  15.096  14.462
  957PROX   H33 7480  13.736  14.990  14.506
  958PROX    O1 7481  13.745  15.327  14.482
  958PROX    C1 7482  13.764  15.382  14.611
  958PROX   H11 7483  13.709  15.316  14.682
  958PROX   H13 7484  13.872  15.387  14.636
  958PROX    C2 7485  13.697  15.525  14.608
  958PROX   H21 7486  13.597  15.512  14.562
  958PROX    C3 7487  13.781  15.625  14.521
  958PROX   H31 7488  13.715  15.707  14.488
  958PROX   H32 7489  13.874  15.658  14.571
  958PROX   H33 7490  13.803  15.568  14.428
  959PROX    O1 7491  13.678  15.566  14.747
  959PROX    C1 7492  13.574  15.663  14.756
  959PROX   H11 7493  13.592  15.748  14.687
  959PROX   H13 7494  13.474  15.623  14.728
  959PROX    C2 7495  13.574  15.715  14.907
  959PROX   H21 7496  13.677  15.749  14.932
  959PROX    C3 7497  13.526  15.615  15.014
  959PROX   H31 7498  13.545  15.652  15.117
  959PROX   H32 7499  13.421  15.580  15.004
  959PROX   H33 7500  13.585  15.522  14.997
  960PROX    O1 7501  13.482  15.820  14.915
  960PROX    C1 7502  13.528  15.942  14.862
  960PROX   H11 7503  13.618  15.985  14.910
  960PROX   H13 7504  13.550  15.938  14.753
  960PROX    C2 7505  13.411  16.045  14.867
  960PROX   H21 7506  13.390  16.065  14.974
  960PROX    C3 7507  13.290  15.989  14.792
  960PROX   H31 7508  13.202  16.055  14.804
  960PROX   H32 7509  13.318  15.996  14.685
  960PROX   H33 7510  13.272  15.887  14.831
  961ETHO    O1 7511  13.452  16.161  14.797
  961ETHO    C1 7512  13.357  16.271  14.819
  961ETHO   H11 7513  13.261  16.244  14.867
  961ETHO   H13 7514  13.348  16.317  14.718
  961ETHO    C2 7515  13.417  16.385  14.899
  961ETHO   H21 7516  13.341  16.461  14.929
  961ETHO   H23 7517  13.482  16.448  14.835
  962ETHO    O1 7518  13.485  16.341  15.014
  962ETHO    C1 7519  13.582  16.439  15.051
  962ETHO   H11 7520  13.679  16.426  14.997
  962ETHO   H13 7521  13.548  16.543  15.032
  962ETHO    C2 7522  13.620  16.428  15.200
  962ETHO   H21 7523  13.711  16.492  15.205
  962ETHO   H23 7524  13.646  16.323  15.228
  963ETHO    O1 7525  13.517  16.467  15.286
  963ETHO    C1 7526  13.553  16.474  15.423
  963ETHO   H11 7527  13.650  16.422  15.437
  963ETHO   H13 7528  13.480  16.419  15.487
  963ETHO    C2 7529  13.568  16.616  15.481
  963ETHO   H21 7530  13.618  16.604  15.580
  963ETHO   H23 7531  13.470  16.668  15.475
  964ETHO    O1 7532  13.667  16.685  15.399
  964ETHO    C1 7533  13.678  16.821  15.422
  964ETHO   H11 7534  13.578  16.867  15.408
  964ETHO   H13 7535  13.693  16.835  15.531
  964ETHO    C2 7536  13.791  16.881  15.340
  964ETHO   H21 7537  13.765  16.889  15.233
  964ETHO   H23 7538  13.882  16.818  15.336
  965ETHO    O1 7539  13.826  17.002  15.405
  965ETHO    C1 7540  13.876  17.099  15.319
  965ETHO   H11 7541  13.793  17.136  15.255
  965ETHO   H13 7542  13.929  17.039  15.241
  965ETHO    C2 7543  13.966  17.202  15.385
  965ETHO   H21 7544  13.913  17.242  15.473
  965ETHO   H23 7545  13.991  17.281  15.311
  966ETHO    O1 7546  14.088  17.143  15.426
  966ETHO    C1 7547  14.188  17.238  15.439
  966ETHO   H11 7548  14.204  17.295  15.345
  966ETHO   H13 7549  14.157  17.314  15.514
  966ETHO    C2 7550  14.314  17.169  15.477
  966ETHO   H21 7551  14.348  17.106  15.392
  966ETHO   H23 7552  14.309  17.100  15.564
  967ETHO    O1 7553  14.417  17.271  15.503
  967ETHO    C1 7554  14.512  17.241  15.601
  967ETHO   H11 7555  14.533  17.133  15.586
  967ETHO   H13 7556  14.464  17.243  15.701
  967ETHO    C2 7557  14.630  17.334  15.605
  967ETHO   H21 7558  14.708  17.301  15.677
  967ETHO   H23 7559  14.591  17.429  15.648
  968ETHO    O1 7560  14.689  17.375  15.479
  968ETHO    C1 7561  14.805  17.455  15.497
  968ETHO   H11 7562  14.803  17.521  15.587
  968ETHO   H13 7563  14.888  17.390  15.529
  968ETHO    C2 7564  14.845  17.529  15.374
  968ETHO   H21 7565  14.939  17.585  15.392
  968ETHO   H23 7566  14.842  17.449  15.297
  969ETHO    O1 7567  14.759  17.634  15.343
  969ETHO    C1 7568  14.743  17.662  15.204
  969ETHO   H11 7569  14.837  17.694  15.156
  969ETHO   H13 7570  14.702  17.568  15.160
  969ETHO    C2 7571  14.648  17.789  15.198
  969ETHO   H21 7572  14.580  17.784  15.285
  969ETHO   H23 7573  14.583  17.770  15.109
  970ETHO    O1 7574  14.724  17.916  15.195
  970ETHO    C1 7575  14.630  18.021  15.202
  970ETHO   H11 7576  14.556  18.011  15.120
  970ETHO   H13 7577  14.574  18.014  15.297
  970ETHO    C2 7578  14.712  18.152  15.199
  970ETHO   H21 7579  14.653  18.236  15.155
  970ETHO   H23 7580  14.810  18.141  15.149
  971ETHO    O1 7581  14.742  18.197  15.334
  971ETHO    C1 7582  14.835  18.304  15.330
  971ETHO   H11 7583  14.923  18.275  15.269
  971ETHO   H13 7584  14.792  18.393  15.279
  971ETHO    C2 7585  14.899  18.327  15.468
  971ETHO   H21 7586  14.992  18.381  15.440
  971ETHO   H23 7587  14.915  18.228  15.516
  972ETHO    O1 7588  14.828  18.426  15.539
  972ETHO    C1 7589  14.868  18.432  15.678
  972ETHO   H11 7590  14.965  18.381  15.689
  972ETHO   H13 7591  14.792  18.389  15.747
  972ETHO    C2 7592  14.889  18.578  15.731
  972ETHO   H21 7593  14.945  18.636  15.655
  972ETHO   H23 7594  14.946  18.577  15.826
  973ETHO    O1 7595  14.772  18.648  15.745
  973ETHO    C1 7596  14.793  18.771  15.805
  973ETHO   H11 7597  14.817  18.756  15.912
  973ETHO   H13 7598  14.874  18.826  15.752
  973ETHO    C2 7599  14.677  18.868  15.809
  973ETHO   H21 7600  14.614  18.840  15.896
  973ETHO   H23 7601  14.610  18.850  15.723
  974ETHO    O1 7602  14.712  19.000  15.822
  974ETHO    C1 7603  14.752  19.031  15.958
  974ETHO   H11 7604  14.859  19.002  15.959
  974ETHO   H13 7605  14.709  18.965  16.036
  974ETHO    C2 7606  14.732  19.178  16.009
  974ETHO   H21 7607  14.778  19.248  15.936
  974ETHO   H23 7608  14.784  19.198  16.105
  975ETHO    O1 7609  14.593  19.211  16.022
  975ETHO    C1 7610  14.560  19.333  15.950
  975ETHO   H11 7611  14.606  19.319  15.850
  975ETHO   H13 7612  14.449  19.344  15.947
  975ETHO    C2 7613  14.636  19.453  16.016
  975ETHO   H21 7614  14.605  19.532  15.944
  975ETHO   H23 7615  14.747  19.448  16.007
  976ETHO    O1 7616  14.579  19.483  16.143
  976ETHO    C1 7617  14.602  19.614  16.174
  976ETHO   H11 7618  14.535  19.673  16.107
  976ETHO   H13 7619  14.706  19.639  16.143
  976ETHO    C2 7620  14.578  19.655  16.327
  976ETHO   H21 7621  14.622  19.756  16.334
  976ETHO   H23 7622  14.638  19.581  16.383
  977ETHO    O1 7623  14.441  19.656  16.364
  977ETHO    C1 7624  14.388  19.534  16.419
  977ETHO   H11 7625  14.404  19.462  16.336
  977ETHO   H13 7626  14.451  19.503  16.505
  977ETHO    C2 7627  14.240  19.541  16.461
  977ETHO   H21 7628  14.207  19.436  16.475
  977ETHO   H23 7629  14.184  19.587  16.378
  978ETHO    O1 7630  14.223  19.610  16.585
  978ETHO    C1 7631  14.087  19.590  16.615
  978ETHO   H11 7632  14.066  19.486  16.647
  978ETHO   H13 7633  14.017  19.631  16.538
  978ETHO    C2 7634  14.054  19.676  16.742
  978ETHO   H21 7635  14.119  19.636  16.823
  978ETHO   H23 7636  13.949  19.650  16.763
  979ETHO    O1 7637  14.073  19.816  16.723
  979ETHO    C1 7638  14.050  19.878  16.848
  979ETHO   H11 7639  13.974  19.825  16.909
  979ETHO   H13 7640  14.148  19.890  16.898
  979ETHO    C2 7641  13.981  20.009  16.828
  979ETHO   H21 7642  13.870  20.011  16.824
  979ETHO   H23 7643  14.012  20.059  16.734
  980ETHO    O1 7644  14.026  20.105  16.925
  980ETHO    C1 7645  13.963  20.092  17.056
  980ETHO   H11 7646  13.865  20.038  17.054
  980ETHO   H13 7647  14.026  20.025  17.117
  980ETHO    C2 7648  13.953  20.228  17.121
  980ETHO   H21 7649  14.058  20.263  17.125
  980ETHO   H23 7650  13.912  20.209  17.223
  981ETHO    O1 7651  13.885  20.329  17.046
  981ETHO    C1 7652  13.865  20.442  17.134
  981ETHO   H11 7653  13.856  20.424  17.243
  981ETHO   H13 7654  13.943  20.521  17.135
  981ETHO    C2 7655  13.726  20.511  17.098
  981ETHO   H21 7656  13.700  20.589  17.172
  981ETHO   H23 7657  13.645  20.435  17.094
  982ETHO    O1 7658  13.739  20.584  16.978
  982ETHO    C1 7659  13.624  20.670  16.949
  982ETHO   H11 7660  13.529  20.612  16.960
  982ETHO   H13 7661  13.628  20.733  17.041
  982ETHO    C2 7662  13.637  20.745  16.816
  982ETHO   H21 7663  13.629  20.668  16.736
  982ETHO   H23 7664  13.730  20.806  16.810
  983ETHO    O1 7665  13.529  20.828  16.774
  983ETHO    C1 7666  13.535  20.961  16.822
  983ETHO   H11 7667  13.606  21.008  16.751
  983ETHO   H13 7668  13.573  20.966  16.926
  983ETHO    C2 7669  13.403  21.041  16.815
  983ETHO   H21 7670  13.417  21.129  16.881
  983ETHO   H23 7671  13.317  20.987  16.860
  984ETHO    O1 7672  13.377  21.073  16.679
  984ETHO    C1 7673  13.257  21.154  16.662
  984ETHO   H11 7674  13.169  21.116  16.719
  984ETHO   H13 7675  13.278  21.248  16.717
  984ETHO    C2 7676  13.238  21.193  16.517
  984ETHO   H21 7677  13.336  21.207  16.468
  984ETHO   H23 7678  13.180  21.288  16.511
  985ETHO    O1 7679  13.171  21.089  16.453
  985ETHO    C1 7680  13.191  21.087  16.312
  985ETHO   H11 7681  13.135  20.997  16.278
  985ETHO   H13 7682  13.299  21.070  16.289
  985ETHO    C2 7683  13.147  21.218  16.247
  985ETHO   H21 7684  13.063  21.260  16.306
  985ETHO   H23 7685  13.124  21.204  16.139
  986ETHO    O1 7686  13.253  21.317  16.235
  986ETHO    C1 7687  13.197  21.436  16.186
  986ETHO   H11 7688  13.147  21.396  16.096
  986ETHO   H13 7689  13.113  21.473  16.248
  986ETHO    C2 7690  13.285  21.552  16.144
  986ETHO   H21 7691  13.362  21.572  16.222
  986ETHO   H23 7692  13.215  21.638  16.138
  987ETHO    O1 7693  13.343  21.534  16.012
  987ETHO    C1 7694  13.437  21.634  15.976
  987ETHO   H11 7695  13.445  21.630  15.865
  987ETHO   H13 7696  13.535  21.612  16.022
  987ETHO    C2 7697  13.397  21.782  16.003
  987ETHO   H21 7698  13.291  21.811  15.990
  987ETHO   H23 7699  13.445  21.838  15.920
  988ETHO    O1 7700  13.444  21.849  16.122
  988ETHO    C1 7701  13.347  21.928  16.189
  988ETHO   H11 7702  13.327  22.016  16.123
  988ETHO   H13 7703  13.256  21.864  16.196
  988ETHO    C2 7704  13.397  21.976  16.322
  988ETHO   H21 7705  13.321  22.049  16.358
  988ETHO   H23 7706  13.488  22.037  16.303
  989ETHO    O1 7707  13.428  21.866  16.408
  989ETHO    C1 7708  13.311  21.817  16.470
  989ETHO   H11 7709  13.232  21.780  16.401
  989ETHO   H13 7710  13.266  21.903  16.524
  989ETHO    C2 7711  13.337  21.709  16.575
  989ETHO   H21 7712  13.401  21.765  16.647
  989ETHO   H23 7713  13.374  21.619  16.522
  990ETHO    O1 7714  13.215  21.682  16.645
  990ETHO    C1 7715  13.237  21.592  16.756
  990ETHO   H11 7716  13.258  21.491  16.717
  990ETHO   H13 7717  13.313  21.638  16.822
  990ETHO    C2 7718  13.122  21.584  16.861
  990ETHO   H21 7719  13.090  21.687  16.886
  990ETHO   H23 7720  13.162  21.539  16.954
  991ETHO    O1 7721  13.018  21.503  16.800
  991ETHO    C1 7722  12.914  21.471  16.890
  991ETHO   H11 7723  12.965  21.454  16.987
  991ETHO   H13 7724  12.846  21.558  16.897
  991ETHO    C2 7725  12.834  21.346  16.851
  991ETHO   H21 7726  12.784  21.370  16.755
  991ETHO   H23 7727  12.755  21.329  16.928
  992ETHO    O1 7728  12.909  21.231  16.825
  992ETHO    C1 7729  12.828  21.115  16.826
  992ETHO   H11 7730  12.786  21.107  16.929
  992ETHO   H13 7731  12.749  21.141  16.754
  992ETHO    C2 7732  12.881  20.973  16.800
  992ETHO   H21 7733  12.933  20.971  16.702
  992ETHO   H23 7734  12.800  20.898  16.801
  993ETHO    O1 7735  12.971  20.934  16.909
  993ETHO    C1 7736  13.044  20.814  16.896
  993ETHO   H11 7737  12.994  20.754  16.817
  993ETHO   H13 7738  13.142  20.841  16.852
  993ETHO    C2 7739  13.077  20.734  17.023
  993ETHO   H21 7740  13.111  20.798  17.107
  993ETHO   H23 7741  13.168  20.675  16.999
  994ETHO    O1 7742  12.969  20.652  17.072
  994ETHO    C1 7743  12.963  20.639  17.214
  994ETHO   H11 7744  12.917  20.732  17.254
  994ETHO   H13 7745  13.065  20.624  17.256
  994ETHO    C2 7746  12.864  20.527  17.247
  994ETHO   H21 7747  12.781  20.538  17.174
  994ETHO   H23 7748  12.822  20.551  17.347
  995ETHO    O1 7749  12.935  20.404  17.236
  995ETHO    C1 7750  12.850  20.294  17.240
  995ETHO   H11 7751  12.786  20.293  17.331
  995ETHO   H13 7752  12.774  20.299  17.159
  995ETHO    C2 7753  12.926  20.165  17.229
  995ETHO   H21 7754  12.877  20.085  17.288
  995ETHO   H23 7755  13.028  20.193  17.263
  996ETHO    O1 7756  12.935  20.126  17.086
  996ETHO    C1 7757  13.020  20.207  17.009
  996ETHO   H11 7758  13.113  20.212  17.068
  996ETHO   H13 7759  12.968  20.303  16.986
  996ETHO    C2 7760  13.068  20.136  16.876
  996ETHO   H21 7761  13.121  20.203  16.805
  996ETHO   H23 7762  12.983  20.102  16.813
  997ETHO    O1 7763  13.162  20.027  16.897
  997ETHO    C1 7764  13.218  19.975  16.775
  997ETHO   H11 7765  13.149  19.895  16.744
  997ETHO   H13 7766  13.217  20.049  16.693
  997ETHO    C2 7767  13.357  19.916  16.799
  997ETHO   H21 7768  13.356  19.816  16.848
  997ETHO   H23 7769  13.420  19.985  16.859
  998ETHO    O1 7770  13.420  19.888  16.670
  998ETHO    C1 7771  13.551  19.833  16.685
  998ETHO   H11 7772  13.550  19.736  16.738
  998ETHO   H13 7773  13.612  19.898  16.751
  998ETHO    C2 7774  13.641  19.801  16.561
  998ETHO   H21 7775  13.583  19.741  16.488
  998ETHO   H23 7776  13.728  19.738  16.591
  999ETHO    O1 7777  13.698  19.909  16.503
  999ETHO    C1 7778  13.777  19.878  16.392
  999ETHO   H11 7779  13.826  19.782  16.417
  999ETHO   H13 7780  13.717  19.856  16.300
  999ETHO    C2 7781  13.882  19.983  16.360
  999ETHO   H21 7782  13.946  20.002  16.449
  999ETHO   H23 7783  13.832  20.078  16.332
 1000ETHO    O1 7784  13.959  19.937  16.256
 1000ETHO    C1 7785  14.075  19.876  16.305
 1000ETHO   H11 7786  14.041  19.801  16.380
 1000ETHO   H13 7787  14.130  19.951  16.366
 1000ETHO    C2 7788  14.158  19.812  16.196
 1000ETHO   H21 7789  14.251  19.786  16.252
 1000ETHO   H23 7790  14.185  19.879  16.111
 1001ETHO    O1 7791  14.093  19.690  16.158
 1001ETHO    C1 7792  14.175  19.611  16.071
 1001ETHO   H11 7793  14.179  19.662  15.973
 1001ETHO   H13 7794  14.276  19.612  16.116
 1001ETHO    C2 7795  14.130  19.469  16.037
 1001ETHO   H21 7796  14.193  19.405  16.102
 1001ETHO   H23 7797  14.025  19.441  16.058
 1002ETHO    O1 7798  14.161  19.429  15.905
 1002ETHO    C1 7799  14.111  19.301  15.873
 1002ETHO   H11 7800  14.000  19.303  15.885
 1002ETHO   H13 7801  14.151  19.224  15.942
 1002ETHO    C2 7802  14.150  19.255  15.729
 1002ETHO   H21 7803  14.260  19.236  15.729
 1002ETHO   H23 7804  14.136  19.347  15.669
 1003ETHO    O1 7805  14.067  19.144  15.690
 1003ETHO    C1 7806  14.075  19.121  15.548
 1003ETHO   H11 7807  14.042  19.219  15.507
 1003ETHO   H13 7808  14.180  19.098  15.519
 1003ETHO    C2 7809  13.985  19.006  15.506
 1003ETHO   H21 7810  13.947  19.028  15.404
 1003ETHO   H23 7811  13.901  19.016  15.578
 1004ETHO    O1 7812  14.028  18.871  15.515
 1004ETHO    C1 7813  13.933  18.769  15.482
 1004ETHO   H11 7814  13.887  18.790  15.384
 1004ETHO   H13 7815  13.847  18.774  15.553
 1004ETHO    C2 7816  14.011  18.633  15.477
 1004ETHO   H21 7817  14.097  18.649  15.407
 1004ETHO   H23 7818  13.955  18.550  15.429
 1005ETHO    O1 7819  14.062  18.583  15.602
 1005ETHO    C1 7820  14.139  18.462  15.590
 1005ETHO   H11 7821  14.073  18.383  15.550
 1005ETHO   H13 7822  14.211  18.456  15.506
 1005ETHO    C2 7823  14.219  18.412  15.711
 1005ETHO   H21 7824  14.276  18.321  15.682
 1005ETHO   H23 7825  14.162  18.380  15.801
 1006ETHO    O1 7826  14.315  18.518  15.754
 1006ETHO    C1 7827  14.403  18.475  15.861
 1006ETHO   H11 7828  14.454  18.563  15.906
 1006ETHO   H13 7829  14.342  18.421  15.937
 1006ETHO    C2 7830  14.516  18.372  15.813
 1006ETHO   H21 7831  14.588  18.385  15.896
 1006ETHO   H23 7832  14.559  18.408  15.717
 1007ETHO    O1 7833  14.473  18.242  15.800
 1007ETHO    C1 7834  14.592  18.171  15.757
 1007ETHO   H11 7835  14.639  18.213  15.665
 1007ETHO   H13 7836  14.666  18.170  15.840
 1007ETHO    C2 7837  14.561  18.030  15.698
 1007ETHO   H21 7838  14.665  17.997  15.677
 1007ETHO   H23 7839  14.508  18.039  15.601
 1008ETHO    O1 7840  14.483  17.951  15.787
 1008ETHO    C1 7841  14.410  17.850  15.714
 1008ETHO   H11 7842  14.393  17.881  15.609
 1008ETHO   H13 7843  14.473  17.758  15.706
 1008ETHO    C2 7844  14.285  17.794  15.787
 1008ETHO   H21 7845  14.315  17.781  15.893
 1008ETHO   H23 7846  14.271  17.691  15.749
 1009ETHO    O1 7847  14.172  17.875  15.753
 1009ETHO    C1 7848  14.056  17.795  15.775
 1009ETHO   H11 7849  14.050  17.787  15.886
 1009ETHO   H13 7850  14.060  17.706  15.709
 1009ETHO    C2 7851  13.937  17.875  15.731
 1009ETHO   H21 7852  13.953  17.981  15.760
 1009ETHO   H23 7853  13.847  17.840  15.787
 1010ETHO    O1 7854  13.915  17.865  15.592
 1010ETHO    C1 7855  13.787  17.921  15.554
 1010ETHO   H11 7856  13.718  17.834  15.569
 1010ETHO   H13 7857  13.759  18.007  15.619
 1010ETHO    C2 7858  13.793  17.978  15.410
 1010ETHO   H21 7859  13.687  17.997  15.383
 1010ETHO   H23 7860  13.833  17.898  15.344
 1011ETHO    O1 7861  13.868  18.102  15.405
 1011ETHO    C1 7862  13.828  18.177  15.290
 1011ETHO   H11 7863  13.721  18.207  15.287
 1011ETHO   H13 7864  13.823  18.116  15.198
 1011ETHO    C2 7865  13.918  18.300  15.254
 1011ETHO   H21 7866  13.939  18.368  15.340
 1011ETHO   H23 7867  13.851  18.361  15.190
 1012ETHO    O1 7868  14.037  18.270  15.176
 1012ETHO    C1 7869  14.122  18.379  15.170
 1012ETHO   H11 7870  14.063  18.465  15.130
 1012ETHO   H13 7871  14.164  18.418  15.265
 1012ETHO    C2 7872  14.241  18.367  15.066
 1012ETHO   H21 7873  14.291  18.267  15.065
 1012ETHO   H23 7874  14.300  18.458  15.090
 1013ETHO    O1 7875  14.190  18.393  14.937
 1013ETHO    C1 7876  14.281  18.374  14.837
 1013ETHO   H11 7877  14.301  18.265  14.840
 1013ETHO   H13 7878  14.378  18.419  14.867
 1013ETHO    C2 7879  14.257  18.426  14.693
 1013ETHO   H21 7880  14.162  18.389  14.650
 1013ETHO   H23 7881  14.339  18.380  14.633
 1014ETHO    O1 7882  14.268  18.573  14.674
 1014ETHO    C1 7883  14.236  18.604  14.542
 1014ETHO   H11 7884  14.308  18.554  14.473
 1014ETHO   H13 7885  14.135  18.566  14.517
 1014ETHO    C2 7886  14.248  18.757  14.507
 1014ETHO   H21 7887  14.248  18.760  14.396
 1014ETHO   H23 7888  14.342  18.804  14.543
 1015ETHO    O1 7889  14.142  18.838  14.548
 1015ETHO    C1 7890  14.137  18.867  14.685
 1015ETHO   H11 7891  14.238  18.880  14.730
 1015ETHO   H13 7892  14.088  18.784  14.740
 1015ETHO    C2 7893  14.063  19.001  14.714
 1015ETHO   H21 7894  14.115  19.090  14.672
 1015ETHO   H23 7895  14.058  19.003  14.825
 1016ETHO    O1 7896  13.928  18.997  14.675
 1016ETHO    C1 7897  13.856  19.119  14.689
 1016ETHO   H11 7898  13.929  19.202  14.679
 1016ETHO   H13 7899  13.780  19.123  14.608
 1016ETHO    C2 7900  13.785  19.121  14.825
 1016ETHO   H21 7901  13.781  19.228  14.854
 1016ETHO   H23 7902  13.845  19.064  14.899
 1017ETHO    O1 7903  13.650  19.074  14.817
 1017ETHO    C1 7904  13.589  19.092  14.948
 1017ETHO   H11 7905  13.643  19.046  15.033
 1017ETHO   H13 7906  13.576  19.199  14.976
 1017ETHO    C2 7907  13.449  19.024  14.940
 1017ETHO   H21 7908  13.380  19.093  14.887
 1017ETHO   H23 7909  13.405  19.030  15.042
 1018ETHO    O1 7910  13.451  18.893  14.889
 1018ETHO    C1 7911  13.324  18.814  14.912
 1018ETHO   H11 7912  13.341  18.717  14.965
 1018ETHO   H13 7913  13.244  18.867  14.967
 1018ETHO    C2 7914  13.261  18.779  14.775
 1018ETHO   H21 7915  13.302  18.864  14.717
 1018ETHO   H23 7916  13.151  18.777  14.789
 1019ETHO    O1 7917  13.308  18.657  14.733
 1019ETHO    C1 7918  13.276  18.635  14.594
 1019ETHO   H11 7919  13.167  18.615  14.581
 1019ETHO   H13 7920  13.295  18.725  14.532
 1019ETHO    C2 7921  13.348  18.508  14.551
 1019ETHO   H21 7922  13.323  18.479  14.446
 1019ETHO   H23 7923  13.303  18.431  14.617
 1020ETHO    O1 7924  13.493  18.508  14.563
 1020ETHO    C1 7925  13.549  18.383  14.545
 1020ETHO   H11 7926  13.519  18.338  14.447
 1020ETHO   H13 7927  13.513  18.313  14.624
 1020ETHO    C2 7928  13.692  18.403  14.555
 1020ETHO   H21 7929  13.723  18.492  14.495
 1020ETHO   H23 7930  13.753  18.323  14.507
 1021ETHO    O1 7931  13.741  18.409  14.684
 1021ETHO    C1 7932  13.867  18.488  14.685
 1021ETHO   H11 7933  13.943  18.445  14.617
 1021ETHO   H13 7934  13.856  18.593  14.651
 1021ETHO    C2 7935  13.918  18.483  14.826
 1021ETHO   H21 7936  14.012  18.541  14.833
 1021ETHO   H23 7937  13.940  18.375  14.845
 1022ETHO    O1 7938  13.818  18.531  14.915
 1022ETHO    C1 7939  13.788  18.668  14.901
 1022ETHO   H11 7940  13.684  18.663  14.863
 1022ETHO   H13 7941  13.848  18.730  14.831
 1022ETHO    C2 7942  13.789  18.729  15.043
 1022ETHO   H21 7943  13.734  18.660  15.110
 1022ETHO   H23 7944  13.750  18.833  15.043
 1023ETHO    O1 7945  13.918  18.724  15.107
 1023ETHO    C1 7946  13.998  18.829  15.065
 1023ETHO   H11 7947  14.009  18.818  14.955
 1023ETHO   H13 7948  13.942  18.925  15.073
 1023ETHO    C2 7949  14.143  18.846  15.120
 1023ETHO   H21 7950  14.179  18.745  15.149
 1023ETHO   H23 7951  14.150  18.911  15.210
 1024ETHO    O1 7952  14.234  18.890  15.016
 1024ETHO    C1 7953  14.367  18.903  15.067
 1024ETHO   H11 7954  14.371  18.886  15.177
 1024ETHO   H13 7955  14.397  19.009  15.051
 1024ETHO    C2 7956  14.469  18.813  14.983
 1024ETHO   H21 7957  14.413  18.720  14.959
 1024ETHO   H23 7958  14.554  18.797  15.053
 1025ETHO    O1 7959  14.515  18.867  14.863
 1025ETHO    C1 7960  14.551  18.765  14.769
 1025ETHO   H11 7961  14.576  18.667  14.815
 1025ETHO   H13 7962  14.463  18.749  14.704
 1025ETHO    C2 7963  14.661  18.828  14.682
 1025ETHO   H21 7964  14.628  18.932  14.661
 1025ETHO   H23 7965  14.681  18.761  14.595
 1026ETHO    O1 7966  14.775  18.826  14.761
 1026ETHO    C1 7967  14.857  18.713  14.740
 1026ETHO   H11 7968  14.882  18.709  14.632
 1026ETHO   H13 7969  14.798  18.621  14.755
 1026ETHO    C2 7970  14.977  18.698  14.826
 1026ETHO   H21 7971  15.029  18.796  14.826
 1026ETHO   H23 7972  15.041  18.622  14.776
 1027ETHO    O1 7973  14.949  18.651  14.955
 1027ETHO    C1 7974  14.850  18.731  15.031
 1027ETHO   H11 7975  14.868  18.839  15.019
 1027ETHO   H13 7976  14.751  18.699  14.994
 1027ETHO    C2 7977  14.853  18.688  15.175
 1027ETHO   H21 7978  14.869  18.579  15.182
 1027ETHO   H23 7979  14.754  18.706  15.221
 1028ETHO    O1 7980  14.958  18.756  15.239
 1028ETHO    C1 7981  14.962  18.731  15.381
 1028ETHO   H11 7982  14.856  18.729  15.413
 1028ETHO   H13 7983  15.006  18.632  15.404
 1028ETHO    C2 7984  15.030  18.843  15.463
 1028ETHO   H21 7985  15.126  18.875  15.416
 1028ETHO   H23 7986  15.044  18.809  15.568
 1029ETHO    O1 7987  14.948  18.953  15.455
 1029ETHO    C1 7988  14.968  19.036  15.573
 1029ETHO   H11 7989  14.900  19.002  15.653
 1029ETHO   H13 7990  15.071  19.018  15.611
 1029ETHO    C2 7991  14.951  19.188  15.546
 1029ETHO   H21 7992  14.884  19.222  15.627
 1029ETHO   H23 7993  14.899  19.208  15.450
 1030ETHO    O1 7994  15.074  19.268  15.551
 1030ETHO    C1 7995  15.153  19.235  15.441
 1030ETHO   H11 7996  15.190  19.133  15.460
 1030ETHO   H13 7997  15.100  19.248  15.344
 1030ETHO    C2 7998  15.270  19.331  15.448
 1030ETHO   H21 7999  15.350  19.288  15.384
 1030ETHO   H23 8000  15.310  19.342  15.551
 1031ETHO    O1 8001  15.235  19.455  15.389
 1031ETHO    C1 8002  15.189  19.558  15.486
 1031ETHO   H11 8003  15.177  19.517  15.588
 1031ETHO   H13 8004  15.098  19.592  15.434
 1031ETHO    C2 8005  15.271  19.684  15.493
 1031ETHO   H21 8006  15.205  19.758  15.544
 1031ETHO   H23 8007  15.287  19.723  15.391
 1032ETHO    O1 8008  15.393  19.670  15.570
 1032ETHO    C1 8009  15.468  19.789  15.577
 1032ETHO   H11 8010  15.473  19.846  15.481
 1032ETHO   H13 8011  15.417  19.852  15.653
 1032ETHO    C2 8012  15.605  19.749  15.616
 1032ETHO   H21 8013  15.634  19.658  15.560
 1032ETHO   H23 8014  15.611  19.727  15.725
 1033ETHO    O1 8015  15.676  19.866  15.579
 1033ETHO    C1 8016  15.816  19.855  15.592
 1033ETHO   H11 8017  15.848  19.773  15.524
 1033ETHO   H13 8018  15.839  19.820  15.694
 1033ETHO    C2 8019  15.884  19.985  15.542
 1033ETHO   H21 8020  15.857  20.011  15.437
 1033ETHO   H23 8021  15.992  19.958  15.553
 1034ETHO    O1 8022  15.853  20.081  15.630
 1034ETHO    C1 8023  15.944  20.192  15.624
 1034ETHO   H11 8024  15.934  20.242  15.722
 1034ETHO   H13 8025  16.049  20.156  15.626
 1034ETHO    C2 8026  15.925  20.286  15.505
 1034ETHO   H21 8027  15.820  20.318  15.486
 1034ETHO   H23 8028  15.980  20.380  15.525
 1035ETHO    O1 8029  15.973  20.231  15.382
 1035ETHO    C1 8030  15.960  20.320  15.267
 1035ETHO   H11 8031  15.856  20.358  15.275
 1035ETHO   H13 8032  15.957  20.260  15.174
 1035ETHO    C2 8033  16.078  20.420  15.246
 1035ETHO   H21 8034  16.114  20.451  15.347
 1035ETHO   H23 8035  16.040  20.506  15.188
 1036ETHO    O1 8036  16.178  20.352  15.175
 1036ETHO    C1 8037  16.293  20.434  15.135
 1036ETHO   H11 8038  16.340  20.486  15.221
 1036ETHO   H13 8039  16.361  20.359  15.088
 1036ETHO    C2 8040  16.262  20.519  15.014
 1036ETHO   H21 8041  16.184  20.461  14.960
 1036ETHO   H23 8042  16.354  20.526  14.952
 1037ETHO    O1 8043  16.208  20.649  15.044
 1037ETHO    C1 8044  16.202  20.731  14.931
 1037ETHO   H11 8045  16.128  20.697  14.854
 1037ETHO   H13 8046  16.302  20.738  14.884
 1037ETHO    C2 8047  16.171  20.874  14.960
 1037ETHO   H21 8048  16.079  20.896  15.018
 1037ETHO   H23 8049  16.153  20.932  14.867
 1038ETHO    O1 8050  16.272  20.934  15.043
 1038ETHO    C1 8051  16.283  21.071  15.009
 1038ETHO   H11 8052  16.344  21.063  14.916
 1038ETHO   H13 8053  16.182  21.115  14.995
 1038ETHO    C2 8054  16.355  21.159  15.124
 1038ETHO   H21 8055  16.325  21.119  15.223
 1038ETHO   H23 8056  16.333  21.267  15.108
 1039ETHO    O1 8057  16.499  21.139  15.114
 1039ETHO    C1 8058  16.570  21.213  15.213
 1039ETHO   H11 8059  16.559  21.142  15.298
 1039ETHO   H13 8060  16.504  21.299  15.239
 1039ETHO    C2 8061  16.718  21.248  15.173
 1039ETHO   H21 8062  16.766  21.159  15.127
 1039ETHO   H23 8063  16.763  21.267  15.273
 1040ETHO    O1 8064  16.750  21.359  15.096
 1040ETHO    C1 8065  16.892  21.385  15.099
 1040ETHO   H11 8066  16.899  21.496  15.096
 1040ETHO   H13 8067  16.936  21.344  15.193
 1040ETHO    C2 8068  16.964  21.318  14.977
 1040ETHO   H21 8069  17.062  21.369  14.964
 1040ETHO   H23 8070  16.907  21.353  14.888
 1041ETHO    O1 8071  16.970  21.177  14.982
 1041ETHO    C1 8072  17.101  21.132  15.031
 1041ETHO   H11 8073  17.125  21.170  15.133
 1041ETHO   H13 8074  17.176  21.173  14.960
 1041ETHO    C2 8075  17.114  20.976  15.040
 1041ETHO   H21 8076  17.221  20.948  15.029
 1041ETHO   H23 8077  17.059  20.930  14.955
 1042ETHO    O1 8078  17.062  20.926  15.159
 1042ETHO    C1 8079  17.090  20.791  15.184
 1042ETHO   H11 8080  17.060  20.742  15.089
 1042ETHO   H13 8081  17.198  20.771  15.198
 1042ETHO    C2 8082  17.017  20.744  15.303
 1042ETHO   H21 8083  17.052  20.640  15.320
 1042ETHO   H23 8084  17.036  20.809  15.391
 1043ETHO    O1 8085  16.872  20.736  15.289
 1043ETHO    C1 8086  16.825  20.660  15.393
 1043ETHO   H11 8087  16.858  20.554  15.382
 1043ETHO   H13 8088  16.876  20.699  15.483
 1043ETHO    C2 8089  16.676  20.659  15.399
 1043ETHO   H21 8090  16.637  20.560  15.431
 1043ETHO   H23 8091  16.647  20.686  15.296
 1044ETHO    O1 8092  16.616  20.765  15.477
 1044ETHO    C1 8093  16.468  20.766  15.467
 1044ETHO   H11 8094  16.446  20.760  15.358
 1044ETHO   H13 8095  16.426  20.674  15.515
 1044ETHO    C2 8096  16.416  20.894  15.540
 1044ETHO   H21 8097  16.305  20.890  15.551
 1044ETHO   H23 8098  16.445  20.988  15.487
 1045ETHO    O1 8099  16.462  20.900  15.672
 1045ETHO    C1 8100  16.429  21.016  15.734
 1045ETHO   H11 8101  16.498  21.012  15.821
 1045ETHO   H13 8102  16.464  21.100  15.670
 1045ETHO    C2 8103  16.277  21.009  15.774
 1045ETHO   H21 8104  16.277  21.052  15.876
 1045ETHO   H23 8105  16.250  20.902  15.785
 1046ETHO    O1 8106  16.190  21.083  15.683
 1046ETHO    C1 8107  16.058  21.074  15.743
 1046ETHO   H11 8108  16.049  21.142  15.831
 1046ETHO   H13 8109  16.043  20.968  15.772
 1046ETHO    C2 8110  15.944  21.118  15.643
 1046ETHO   H21 8111  15.961  21.219  15.601
 1046ETHO   H23 8112  15.841  21.107  15.684
 1047ETHO    O1 8113  15.939  21.030  15.532
 1047ETHO    C1 8114  15.828  21.052  15.437
 1047ETHO   H11 8115  15.740  21.093  15.491
 1047ETHO   H13 8116  15.849  21.128  15.359
 1047ETHO    C2 8117  15.772  20.933  15.357
 1047ETHO   H21 8118  15.854  20.874  15.313
 1047ETHO   H23 8119  15.711  20.966  15.270
 1048ETHO    O1 8120  15.699  20.848  15.445
 1048ETHO    C1 8121  15.626  20.736  15.383
 1048ETHO   H11 8122  15.680  20.675  15.307
 1048ETHO   H13 8123  15.545  20.786  15.324
 1048ETHO    C2 8124  15.559  20.651  15.485
 1048ETHO   H21 8125  15.481  20.592  15.432
 1048ETHO   H23 8126  15.504  20.723  15.549
 1049ETHO    O1 8127  15.657  20.587  15.569
 1049ETHO    C1 8128  15.585  20.498  15.655
 1049ETHO   H11 8129  15.511  20.560  15.709
 1049ETHO   H13 8130  15.529  20.421  15.598
 1049ETHO    C2 8131  15.681  20.440  15.760
 1049ETHO   H21 8132  15.775  20.498  15.770
 1049ETHO   H23 8133  15.713  20.336  15.738
 1050ETHO    O1 8134  15.616  20.433  15.889
 1050ETHO    C1 8135  15.499  20.345  15.893
 1050ETHO   H11 8136  15.465  20.307  15.794
 1050ETHO   H13 8137  15.409  20.396  15.932
 1050ETHO    C2 8138  15.517  20.229  15.989
 1050ETHO   H21 8139  15.431  20.159  15.983
 1050ETHO   H23 8140  15.527  20.259  16.095
 1051ETHO    O1 8141  15.628  20.140  15.951
 1051ETHO    C1 8142  15.621  20.019  16.025
 1051ETHO   H11 8143  15.627  20.051  16.131
 1051ETHO   H13 8144  15.529  19.961  16.001
 1051ETHO    C2 8145  15.740  19.921  15.991
 1051ETHO   H21 8146  15.729  19.897  15.883
 1051ETHO   H23 8147  15.727  19.826  16.047
 1052ETHO    O1 8148  15.870  19.965  16.027
 1052ETHO    C1 8149  15.930  20.051  15.930
 1052ETHO   H11 8150  15.844  20.110  15.893
 1052ETHO   H13 8151  15.956  19.978  15.850
 1052ETHO    C2 8152  16.055  20.121  15.979
 1052ETHO   H21 8153  16.030  20.169  16.076
 1052ETHO   H23 8154  16.075  20.198  15.902
 1053ETHO    O1 8155  16.157  20.020  15.992
 1053ETHO    C1 8156  16.278  20.084  16.022
 1053ETHO   H11 8157  16.317  20.134  15.931
 1053ETHO   H13 8158  16.254  20.161  16.098
 1053ETHO    C2 8159  16.382  19.980  16.072
 1053ETHO   H21 8160  16.381  19.899  15.996
 1053ETHO   H23 8161  16.340  19.951  16.171
 1054ETHO    O1 8162  16.504  20.037  16.093
 1054ETHO    C1 8163  16.607  19.949  16.050
 1054ETHO   H11 8164  16.606  19.929  15.941
 1054ETHO   H13 8165  16.694  20.019  16.051
 1054ETHO    C2 8166  16.642  19.828  16.138
 1054ETHO   H21 8167  16.727  19.771  16.095
 1054ETHO   H23 8168  16.556  19.757  16.138
 1055ETHO    O1 8169  16.670  19.866  16.270
 1055ETHO    C1 8170  16.704  19.752  16.346
 1055ETHO   H11 8171  16.621  19.678  16.344
 1055ETHO   H13 8172  16.797  19.718  16.296
 1055ETHO    C2 8173  16.736  19.802  16.491
 1055ETHO   H21 8174  16.763  19.710  16.547
 1055ETHO   H23 8175  16.646  19.850  16.537
 1056ETHO    O1 8176  16.839  19.904  16.482
 1056ETHO    C1 8177  16.898  19.933  16.608
 1056ETHO   H11 8178  16.813  19.940  16.679
 1056ETHO   H13 8179  16.951  19.848  16.657
 1056ETHO    C2 8180  16.966  20.066  16.601
 1056ETHO   H21 8181  17.007  20.111  16.694
 1056ETHO   H23 8182  16.899  20.141  16.555
 1057ETHO    O1 8183  17.085  20.045  16.523
 1057ETHO    C1 8184  17.191  19.995  16.601
 1057ETHO   H11 8185  17.161  19.909  16.665
 1057ETHO   H13 8186  17.218  20.082  16.664
 1057ETHO    C2 8187  17.311  19.946  16.521
 1057ETHO   H21 8188  17.392  19.933  16.595
 1057ETHO   H23 8189  17.355  20.024  16.456
 1058ETHO    O1 8190  17.294  19.811  16.476
 1058ETHO    C1 8191  17.196  19.806  16.372
 1058ETHO   H11 8192  17.192  19.902  16.315
 1058ETHO   H13 8193  17.095  19.787  16.416
 1058ETHO    C2 8194  17.217  19.693  16.273
 1058ETHO   H21 8195  17.125  19.678  16.212
 1058ETHO   H23 8196  17.234  19.597  16.327
 1059ETHO    O1 8197  17.324  19.719  16.179
 1059ETHO    C1 8198  17.326  19.610  16.088
 1059ETHO   H11 8199  17.257  19.642  16.006
 1059ETHO   H13 8200  17.289  19.520  16.141
 1059ETHO    C2 8201  17.460  19.574  16.026
 1059ETHO   H21 8202  17.451  19.491  15.952
 1059ETHO   H23 8203  17.525  19.532  16.106
 1060ETHO    O1 8204  17.526  19.682  15.964
 1060ETHO    C1 8205  17.474  19.723  15.833
 1060ETHO   H11 8206  17.530  19.654  15.765
 1060ETHO   H13 8207  17.369  19.691  15.815
 1060ETHO    C2 8208  17.499  19.870  15.790
 1060ETHO   H21 8209  17.505  19.873  15.679
 1060ETHO   H23 8210  17.594  19.899  15.839
 1060ETHO    OZ 8211  17.401  19.963  15.838
 1060ETHO   HZ1 8212  17.412  20.046  15.791
 1061ETHO    O1 8213   6.684  16.638  13.248
 1061ETHO   HO1 8214   6.769  16.628  13.204
 1061ETHO    C1 8215   6.589  16.598  13.154
 1061ETHO   H11 8216   6.593  16.638  13.051
 1061ETHO   H13 8217   6.489  16.633  13.187
 1061ETHO    C2 8218   6.595  16.443  13.138
 1061ETHO   H21 8219   6.509  16.402  13.082
 1061ETHO   H23 8220   6.585  16.395  13.238
 1062ETHO    O1 8221   6.714  16.392  13.077
 1062ETHO    C1 8222   6.735  16.250  13.101
 1062ETHO   H11 8223   6.643  16.198  13.136
 1062ETHO   H13 8224   6.780  16.195  13.015
 1062ETHO    C2 8225   6.832  16.217  13.218
 1062ETHO   H21 8226   6.826  16.107  13.225
 1062ETHO   H23 8227   6.791  16.258  13.313
 1063ETHO    O1 8228   6.967  16.258  13.188
 1063ETHO    C1 8229   7.049  16.228  13.300
 1063ETHO   H11 8230   7.108  16.137  13.276
 1063ETHO   H13 8231   6.988  16.202  13.388
 1063ETHO    C2 8232   7.151  16.340  13.335
 1063ETHO   H21 8233   7.166  16.353  13.444
 1063ETHO   H23 8234   7.110  16.433  13.290
 1064ETHO    O1 8235   7.271  16.316  13.272
 1064ETHO    C1 8236   7.379  16.387  13.333
 1064ETHO   H11 8237   7.349  16.494  13.348
 1064ETHO   H13 8238   7.410  16.334  13.425
 1064ETHO    C2 8239   7.497  16.381  13.235
 1064ETHO   H21 8240   7.505  16.279  13.191
 1064ETHO   H23 8241   7.591  16.416  13.282
 1065ETHO    O1 8242   7.470  16.468  13.130
 1065ETHO    C1 8243   7.573  16.480  13.031
 1065ETHO   H11 8244   7.622  16.576  13.060
 1065ETHO   H13 8245   7.645  16.396  13.042
 1065ETHO    C2 8246   7.524  16.500  12.886
 1065ETHO   H21 8247   7.458  16.415  12.862
 1065ETHO   H23 8248   7.604  16.498  12.809
 1066ETHO    O1 8249   7.457  16.618  12.885
 1066ETHO    C1 8250   7.405  16.643  12.757
 1066ETHO   H11 8251   7.491  16.654  12.688
 1066ETHO   H13 8252   7.333  16.560  12.739
 1066ETHO    C2 8253   7.314  16.767  12.754
 1066ETHO   H21 8254   7.223  16.737  12.811
 1066ETHO   H23 8255   7.292  16.787  12.647
 1067ETHO    O1 8256   7.384  16.870  12.815
 1067ETHO    C1 8257   7.300  16.983  12.824
 1067ETHO   H11 8258   7.259  16.997  12.722
 1067ETHO   H13 8259   7.220  16.966  12.899
 1067ETHO    C2 8260   7.374  17.115  12.859
 1067ETHO   H21 8261   7.432  17.087  12.949
 1067ETHO   H23 8262   7.296  17.184  12.900
 1068ETHO    O1 8263   7.455  17.163  12.755
 1068ETHO    C1 8264   7.538  17.264  12.806
 1068ETHO   H11 8265   7.480  17.321  12.882
 1068ETHO   H13 8266   7.573  17.329  12.723
 1068ETHO    C2 8267   7.666  17.215  12.866
 1068ETHO   H21 8268   7.754  17.243  12.803
 1068ETHO   H23 8269   7.664  17.105  12.872
 1069ETHO    O1 8270   7.691  17.264  13.003
 1069ETHO    C1 8271   7.824  17.234  13.050
 1069ETHO   H11 8272   7.899  17.216  12.970
 1069ETHO   H13 8273   7.859  17.326  13.102
 1069ETHO    C2 8274   7.823  17.116  13.145
 1069ETHO   H21 8275   7.929  17.126  13.176
 1069ETHO   H23 8276   7.791  17.016  13.109
 1070ETHO    O1 8277   7.732  17.150  13.245
 1070ETHO    C1 8278   7.734  17.056  13.352
 1070ETHO   H11 8279   7.713  17.111  13.447
 1070ETHO   H13 8280   7.837  17.017  13.367
 1070ETHO    C2 8281   7.645  16.929  13.350
 1070ETHO   H21 8282   7.670  16.867  13.438
 1070ETHO   H23 8283   7.675  16.871  13.261
 1071ETHO    O1 8284   7.504  16.957  13.341
 1071ETHO    C1 8285   7.438  16.843  13.282
 1071ETHO   H11 8286   7.479  16.831  13.180
 1071ETHO   H13 8287   7.464  16.749  13.336
 1071ETHO    C2 8288   7.285  16.846  13.274
 1071ETHO   H21 8289   7.255  16.946  13.237
 1071ETHO   H23 8290   7.252  16.771  13.198
 1072ETHO    O1 8291   7.210  16.823  13.399
 1072ETHO    C1 8292   7.071  16.844  13.372
 1072ETHO   H11 8293   7.047  16.812  13.269
 1072ETHO   H13 8294   7.054  16.953  13.383
 1072ETHO    C2 8295   6.985  16.762  13.473
 1072ETHO   H21 8296   7.016  16.659  13.444
 1072ETHO   H23 8297   6.876  16.782  13.459
 1073ETHO    O1 8298   7.015  16.782  13.615
 1073ETHO    C1 8299   6.930  16.712  13.705
 1073ETHO   H11 8300   6.826  16.741  13.677
 1073ETHO   H13 8301   6.939  16.603  13.687
 1073ETHO    C2 8302   6.967  16.751  13.844
 1073ETHO   H21 8303   6.972  16.862  13.848
 1073ETHO   H23 8304   7.074  16.723  13.856
 1074ETHO    O1 8305   6.873  16.699  13.943
 1074ETHO    C1 8306   6.941  16.683  14.068
 1074ETHO   H11 8307   7.001  16.772  14.095
 1074ETHO   H13 8308   7.003  16.591  14.079
 1074ETHO    C2 8309   6.833  16.686  14.176
 1074ETHO   H21 8310   6.892  16.649  14.263
 1074ETHO   H23 8311   6.756  16.617  14.136
 1075ETHO    O1 8312   6.769  16.806  14.196
 1075ETHO    C1 8313   6.677  16.812  14.300
 1075ETHO   H11 8314   6.597  16.737  14.276
 1075ETHO   H13 8315   6.726  16.780  14.394
 1075ETHO    C2 8316   6.619  16.951  14.310
 1075ETHO   H21 8317   6.589  16.981  14.207
 1075ETHO   H23 8318   6.530  16.947  14.377
 1076ETHO    O1 8319   6.706  17.046  14.365
 1076ETHO    C1 8320   6.643  17.170  14.380
 1076ETHO   H11 8321   6.623  17.206  14.277
 1076ETHO   H13 8322   6.542  17.148  14.421
 1076ETHO    C2 8323   6.708  17.279  14.463
 1076ETHO   H21 8324   6.734  17.237  14.563
 1076ETHO   H23 8325   6.644  17.362  14.498
 1077ETHO    O1 8326   6.820  17.351  14.412
 1077ETHO    C1 8327   6.925  17.260  14.382
 1077ETHO   H11 8328   6.936  17.179  14.457
 1077ETHO   H13 8329   6.903  17.221  14.281
 1077ETHO    C2 8330   7.057  17.331  14.374
 1077ETHO   H21 8331   7.087  17.351  14.479
 1077ETHO   H23 8332   7.052  17.426  14.318
 1078ETHO    O1 8333   7.161  17.246  14.327
 1078ETHO    C1 8334   7.276  17.322  14.299
 1078ETHO   H11 8335   7.278  17.419  14.353
 1078ETHO   H13 8336   7.346  17.241  14.326
 1078ETHO    C2 8337   7.274  17.335  14.146
 1078ETHO   H21 8338   7.245  17.239  14.097
 1078ETHO   H23 8339   7.375  17.368  14.114
 1079ETHO    O1 8340   7.187  17.439  14.100
 1079ETHO    C1 8341   7.241  17.489  13.973
 1079ETHO   H11 8342   7.151  17.514  13.913
 1079ETHO   H13 8343   7.303  17.419  13.913
 1079ETHO    C2 8344   7.314  17.625  13.990
 1079ETHO   H21 8345   7.252  17.687  14.058
 1079ETHO   H23 8346   7.330  17.669  13.889
 1080ETHO    O1 8347   7.445  17.608  14.039
 1080ETHO    C1 8348   7.505  17.737  14.055
 1080ETHO   H11 8349   7.612  17.713  14.039
 1080ETHO   H13 8350   7.460  17.807  13.982
 1080ETHO    C2 8351   7.490  17.793  14.198
 1080ETHO   H21 8352   7.555  17.880  14.222
 1080ETHO   H23 8353   7.518  17.711  14.268
 1081ETHO    O1 8354   7.355  17.832  14.238
 1081ETHO    C1 8355   7.300  17.733  14.321
 1081ETHO   H11 8356   7.366  17.708  14.407
 1081ETHO   H13 8357   7.296  17.637  14.267
 1081ETHO    C2 8358   7.157  17.772  14.364
 1081ETHO   H21 8359   7.101  17.794  14.271
 1081ETHO   H23 8360   7.165  17.860  14.431
 1082ETHO    O1 8361   7.087  17.665  14.425
 1082ETHO    C1 8362   6.945  17.696  14.433
 1082ETHO   H11 8363   6.916  17.619  14.508
 1082ETHO   H13 8364   6.920  17.794  14.478
 1082ETHO    C2 8365   6.853  17.679  14.307
 1082ETHO   H21 8366   6.877  17.577  14.270
 1082ETHO   H23 8367   6.748  17.700  14.333
 1083ETHO    O1 8368   6.882  17.772  14.196
 1083ETHO    C1 8369   6.841  17.721  14.075
 1083ETHO   H11 8370   6.731  17.707  14.069
 1083ETHO   H13 8371   6.884  17.620  14.054
 1083ETHO    C2 8372   6.895  17.800  13.955
 1083ETHO   H21 8373   6.876  17.737  13.865
 1083ETHO   H23 8374   7.006  17.800  13.966
 1084ETHO    O1 8375   6.838  17.927  13.936
 1084ETHO    C1 8376   6.928  18.015  13.869
 1084ETHO   H11 8377   7.009  18.045  13.938
 1084ETHO   H13 8378   6.965  17.967  13.775
 1084ETHO    C2 8379   6.865  18.147  13.819
 1084ETHO   H21 8380   6.793  18.193  13.890
 1084ETHO   H23 8381   6.808  18.124  13.727
 1085ETHO    O1 8382   6.970  18.237  13.778
 1085ETHO    C1 8383   6.922  18.364  13.753
 1085ETHO   H11 8384   6.915  18.399  13.859
 1085ETHO   H13 8385   6.824  18.360  13.703
 1085ETHO    C2 8386   7.020  18.457  13.682
 1085ETHO   H21 8387   7.122  18.445  13.724
 1085ETHO   H23 8388   6.998  18.561  13.713
 1086ETHO    O1 8389   7.009  18.433  13.545
 1086ETHO    C1 8390   7.129  18.463  13.475
 1086ETHO   H11 8391   7.177  18.555  13.515
 1086ETHO   H13 8392   7.202  18.380  13.488
 1086ETHO    C2 8393   7.095  18.474  13.322
 1086ETHO   H21 8394   7.030  18.385  13.307
 1086ETHO   H23 8395   7.184  18.483  13.257
 1087ETHO    O1 8396   7.006  18.588  13.305
 1087ETHO    C1 8397   7.004  18.635  13.168
 1087ETHO   H11 8398   7.105  18.629  13.123
 1087ETHO   H13 8399   6.964  18.738  13.169
 1087ETHO    C2 8400   6.898  18.562  13.076
 1087ETHO   H21 8401   6.894  18.454  13.102
 1087ETHO   H23 8402   6.929  18.561  12.970
 1088ETHO    O1 8403   6.771  18.624  13.098
 1088ETHO    C1 8404   6.662  18.527  13.083
 1088ETHO   H11 8405   6.667  18.481  12.982
 1088ETHO   H13 8406   6.674  18.454  13.165
 1088ETHO    C2 8407   6.519  18.593  13.079
 1088ETHO   H21 8408   6.453  18.515  13.036
 1088ETHO   H23 8409   6.516  18.681  13.011
 1089ETHO    O1 8410   6.475  18.628  13.212
 1089ETHO    C1 8411   6.347  18.683  13.216
 1089ETHO   H11 8412   6.280  18.622  13.281
 1089ETHO   H13 8413   6.308  18.679  13.112
 1089ETHO    C2 8414   6.338  18.833  13.256
 1089ETHO   H21 8415   6.241  18.875  13.222
 1089ETHO   H23 8416   6.417  18.889  13.201
 1090ETHO    O1 8417   6.366  18.859  13.391
 1090ETHO    C1 8418   6.329  18.993  13.421
 1090ETHO   H11 8419   6.378  19.064  13.351
 1090ETHO   H13 8420   6.221  19.010  13.400
 1090ETHO    C2 8421   6.344  19.027  13.566
 1090ETHO   H21 8422   6.331  19.137  13.557
 1090ETHO   H23 8423   6.442  18.993  13.605
 1091ETHO    O1 8424   6.231  18.970  13.630
 1091ETHO    C1 8425   6.209  19.026  13.762
 1091ETHO   H11 8426   6.275  18.977  13.836
 1091ETHO   H13 8427   6.221  19.136  13.768
 1091ETHO    C2 8428   6.063  19.013  13.822
 1091ETHO   H21 8429   6.078  19.033  13.931
 1091ETHO   H23 8430   6.026  18.908  13.820
 1092ETHO    O1 8431   5.968  19.100  13.765
 1092ETHO    C1 8432   5.839  19.063  13.805
 1092ETHO   H11 8433   5.824  18.959  13.770
 1092ETHO   H13 8434   5.818  19.060  13.914
 1092ETHO    C2 8435   5.742  19.155  13.741
 1092ETHO   H21 8436   5.642  19.110  13.759
 1092ETHO   H23 8437   5.755  19.174  13.632
 1093ETHO    O1 8438   5.754  19.277  13.816
 1093ETHO    C1 8439   5.636  19.356  13.795
 1093ETHO   H11 8440   5.659  19.464  13.782
 1093ETHO   H13 8441   5.590  19.331  13.697
 1093ETHO    C2 8442   5.529  19.337  13.903
 1093ETHO   H21 8443   5.555  19.244  13.958
 1093ETHO   H23 8444   5.429  19.312  13.864
 1094ETHO    O1 8445   5.517  19.440  14.006
 1094ETHO    C1 8446   5.383  19.476  14.035
 1094ETHO   H11 8447   5.336  19.389  14.085
 1094ETHO   H13 8448   5.322  19.480  13.942
 1094ETHO    C2 8449   5.355  19.601  14.114
 1094ETHO   H21 8450   5.405  19.587  14.213
 1094ETHO   H23 8451   5.251  19.630  14.140
 1095ETHO    O1 8452   5.397  19.712  14.041
 1095ETHO    C1 8453   5.533  19.733  14.054
 1095ETHO   H11 8454   5.543  19.741  14.165
 1095ETHO   H13 8455   5.585  19.641  14.021
 1095ETHO    C2 8456   5.580  19.870  13.983
 1095ETHO   H21 8457   5.492  19.937  13.984
 1095ETHO   H23 8458   5.595  19.835  13.879
 1096ETHO    O1 8459   5.697  19.938  14.027
 1096ETHO    C1 8460   5.771  19.989  13.923
 1096ETHO   H11 8461   5.811  19.906  13.861
 1096ETHO   H13 8462   5.862  20.038  13.964
 1096ETHO    C2 8463   5.706  20.096  13.831
 1096ETHO   H21 8464   5.784  20.147  13.770
 1096ETHO   H23 8465   5.667  20.177  13.897
 1097ETHO    O1 8466   5.608  20.048  13.744
 1097ETHO    C1 8467   5.489  20.122  13.761
 1097ETHO   H11 8468   5.461  20.116  13.868
 1097ETHO   H13 8469   5.504  20.230  13.740
 1097ETHO    C2 8470   5.383  20.067  13.670
 1097ETHO   H21 8471   5.293  20.117  13.712
 1097ETHO   H23 8472   5.385  19.957  13.689
 1098ETHO    O1 8473   5.406  20.105  13.538
 1098ETHO    C1 8474   5.323  20.026  13.442
 1098ETHO   H11 8475   5.217  20.053  13.456
 1098ETHO   H13 8476   5.326  19.919  13.472
 1098ETHO    C2 8477   5.358  20.038  13.297
 1098ETHO   H21 8478   5.305  19.971  13.226
 1098ETHO   H23 8479   5.466  20.016  13.284
 1099ETHO    O1 8480   5.337  20.173  13.251
 1099ETHO    C1 8481   5.234  20.186  13.153
 1099ETHO   H11 8482   5.266  20.135  13.060
 1099ETHO   H13 8483   5.143  20.136  13.194
 1099ETHO    C2 8484   5.212  20.340  13.128
 1099ETHO   H21 8485   5.170  20.349  13.025
 1099ETHO   H23 8486   5.315  20.381  13.120
 1100ETHO    O1 8487   5.139  20.394  13.235
 1100ETHO    C1 8488   5.133  20.537  13.230
 1100ETHO   H11 8489   5.029  20.565  13.259
 1100ETHO   H13 8490   5.151  20.587  13.133
 1100ETHO    C2 8491   5.238  20.607  13.314
 1100ETHO   H21 8492   5.248  20.564  13.416
 1100ETHO   H23 8493   5.196  20.708  13.336
 1101ETHO    O1 8494   5.361  20.607  13.239
 1101ETHO    C1 8495   5.461  20.676  13.315
 1101ETHO   H11 8496   5.417  20.765  13.364
 1101ETHO   H13 8497   5.499  20.615  13.400
 1101ETHO    C2 8498   5.579  20.712  13.236
 1101ETHO   H21 8499   5.659  20.742  13.306
 1101ETHO   H23 8500   5.556  20.795  13.167
 1102ETHO    O1 8501   5.638  20.603  13.169
 1102ETHO    C1 8502   5.730  20.642  13.072
 1102ETHO   H11 8503   5.673  20.681  12.985
 1102ETHO   H13 8504   5.802  20.719  13.108
 1102ETHO    C2 8505   5.823  20.529  13.020
 1102ETHO   H21 8506   5.883  20.498  13.109
 1102ETHO   H23 8507   5.894  20.572  12.947
 1103ETHO    O1 8508   5.768  20.408  12.966
 1103ETHO    C1 8509   5.862  20.301  12.937
 1103ETHO   H11 8510   5.946  20.343  12.877
 1103ETHO   H13 8511   5.902  20.257  13.031
 1103ETHO    C2 8512   5.782  20.198  12.860
 1103ETHO   H21 8513   5.838  20.143  12.781
 1103ETHO   H23 8514   5.698  20.249  12.808
 1104ETHO    O1 8515   5.723  20.106  12.952
 1104ETHO    C1 8516   5.637  20.014  12.883
 1104ETHO   H11 8517   5.554  20.076  12.842
 1104ETHO   H13 8518   5.695  19.970  12.799
 1104ETHO    C2 8519   5.567  19.896  12.961
 1104ETHO   H21 8520   5.495  19.845  12.893
 1104ETHO   H23 8521   5.502  19.934  13.043
 1105ETHO    O1 8522   5.648  19.800  13.028
 1105ETHO    C1 8523   5.704  19.715  12.928
 1105ETHO   H11 8524   5.774  19.772  12.863
 1105ETHO   H13 8525   5.626  19.665  12.866
 1105ETHO    C2 8526   5.787  19.607  13.003
 1105ETHO   H21 8527   5.826  19.658  13.093
 1105ETHO   H23 8528   5.862  19.551  12.944
 1106ETHO    O1 8529   5.691  19.511  13.044
 1106ETHO    C1 8530   5.745  19.387  13.091
 1106ETHO   H11 8531   5.801  19.325  13.018
 1106ETHO   H13 8532   5.807  19.409  13.181
 1106ETHO    C2 8533   5.622  19.307  13.123
 1106ETHO   H21 8534   5.637  19.198  13.138
 1106ETHO   H23 8535   5.543  19.300  13.046
 1107ETHO    O1 8536   5.549  19.359  13.232
 1107ETHO    C1 8537   5.605  19.333  13.365
 1107ETHO   H11 8538   5.705  19.284  13.370
 1107ETHO   H13 8539   5.534  19.273  13.425
 1107ETHO    C2 8540   5.612  19.467  13.441
 1107ETHO   H21 8541   5.638  19.553  13.375
 1107ETHO   H23 8542   5.694  19.449  13.514
 1108ETHO    O1 8543   5.496  19.492  13.522
 1108ETHO    C1 8544   5.473  19.633  13.531
 1108ETHO   H11 8545   5.477  19.684  13.432
 1108ETHO   H13 8546   5.374  19.644  13.581
 1108ETHO    C2 8547   5.568  19.698  13.632
 1108ETHO   H21 8548   5.517  19.788  13.674
 1108ETHO   H23 8549   5.566  19.629  13.719
 1109ETHO    O1 8550   5.691  19.737  13.588
 1109ETHO    C1 8551   5.685  19.854  13.508
 1109ETHO   H11 8552   5.605  19.925  13.540
 1109ETHO   H13 8553   5.655  19.826  13.404
 1109ETHO    C2 8554   5.816  19.936  13.503
 1109ETHO   H21 8555   5.846  19.945  13.610
 1109ETHO   H23 8556   5.810  20.037  13.457
 1110ETHO    O1 8557   5.917  19.872  13.431
 1110ETHO    C1 8558   6.033  19.952  13.434
 1110ETHO   H11 8559   6.026  20.030  13.356
 1110ETHO   H13 8560   6.035  20.013  13.527
 1110ETHO    C2 8561   6.162  19.874  13.415
 1110ETHO   H21 8562   6.245  19.948  13.409
 1110ETHO   H23 8563   6.168  19.803  13.330
 1111ETHO    O1 8564   6.187  19.787  13.526
 1111ETHO    C1 8565   6.316  19.725  13.522
 1111ETHO   H11 8566   6.389  19.805  13.546
 1111ETHO   H13 8567   6.356  19.684  13.426
 1111ETHO    C2 8568   6.339  19.616  13.627
 1111ETHO   H21 8569   6.321  19.652  13.731
 1111ETHO   H23 8570   6.449  19.598  13.631
 1112ETHO    O1 8571   6.274  19.491  13.607
 1112ETHO    C1 8572   6.136  19.498  13.642
 1112ETHO   H11 8573   6.128  19.521  13.750
 1112ETHO   H13 8574   6.086  19.576  13.580
 1112ETHO    C2 8575   6.071  19.360  13.610
 1112ETHO   H21 8576   5.966  19.368  13.644
 1112ETHO   H23 8577   6.109  19.275  13.670
 1113ETHO    O1 8578   6.077  19.344  13.464
 1113ETHO    C1 8579   6.030  19.222  13.416
 1113ETHO   H11 8580   6.089  19.152  13.478
 1113ETHO   H13 8581   5.922  19.208  13.436
 1113ETHO    C2 8582   6.053  19.212  13.262
 1113ETHO   H21 8583   6.001  19.296  13.211
 1113ETHO   H23 8584   6.004  19.119  13.225
 1114ETHO    O1 8585   6.193  19.217  13.231
 1114ETHO    C1 8586   6.207  19.202  13.087
 1114ETHO   H11 8587   6.179  19.099  13.056
 1114ETHO   H13 8588   6.140  19.276  13.039
 1114ETHO    C2 8589   6.350  19.235  13.049
 1114ETHO   H21 8590   6.385  19.316  13.118
 1114ETHO   H23 8591   6.347  19.284  12.949
 1115ETHO    O1 8592   6.432  19.120  13.055
 1115ETHO    C1 8593   6.572  19.157  13.072
 1115ETHO   H11 8594   6.597  19.232  12.994
 1115ETHO   H13 8595   6.594  19.188  13.177
 1115ETHO    C2 8596   6.647  19.027  13.060
 1115ETHO   H21 8597   6.754  19.040  13.088
 1115ETHO   H23 8598   6.598  18.936  13.102
 1116ETHO    O1 8599   6.651  19.019  12.917
 1116ETHO    C1 8600   6.703  18.897  12.872
 1116ETHO   H11 8601   6.644  18.824  12.931
 1116ETHO   H13 8602   6.804  18.884  12.915
 1116ETHO    C2 8603   6.696  18.872  12.721
 1116ETHO   H21 8604   6.741  18.956  12.664
 1116ETHO   H23 8605   6.587  18.864  12.700
 1117ETHO    O1 8606   6.767  18.754  12.681
 1117ETHO    C1 8607   6.698  18.640  12.719
 1117ETHO   H11 8608   6.702  18.624  12.829
 1117ETHO   H13 8609   6.597  18.652  12.675
 1117ETHO    C2 8610   6.769  18.526  12.645
 1117ETHO   H21 8611   6.798  18.569  12.546
 1117ETHO   H23 8612   6.693  18.450  12.622
 1118ETHO    O1 8613   6.870  18.463  12.722
 1118ETHO    C1 8614   6.997  18.499  12.666
 1118ETHO   H11 8615   7.010  18.609  12.675
 1118ETHO   H13 8616   6.987  18.478  12.558
 1118ETHO    C2 8617   7.110  18.432  12.739
 1118ETHO   H21 8618   7.206  18.436  12.684
 1118ETHO   H23 8619   7.089  18.330  12.778
 1119ETHO    O1 8620   7.125  18.511  12.857
 1119ETHO    C1 8621   7.258  18.491  12.914
 1119ETHO   H11 8622   7.243  18.485  13.024
 1119ETHO   H13 8623   7.309  18.400  12.878
 1119ETHO    C2 8624   7.352  18.609  12.893
 1119ETHO   H21 8625   7.366  18.625  12.784
 1119ETHO   H23 8626   7.447  18.583  12.943
 1120ETHO    O1 8627   7.319  18.727  12.964
 1120ETHO    C1 8628   7.209  18.799  12.903
 1120ETHO   H11 8629   7.106  18.764  12.927
 1120ETHO   H13 8630   7.204  18.799  12.792
 1120ETHO    C2 8631   7.196  18.948  12.952
 1120ETHO   H21 8632   7.286  19.009  12.932
 1120ETHO   H23 8633   7.175  18.951  13.061
 1121ETHO    O1 8634   7.091  18.997  12.865
 1121ETHO    C1 8635   7.058  19.133  12.893
 1121ETHO   H11 8636   6.998  19.126  12.986
 1121ETHO   H13 8637   7.145  19.199  12.913
 1121ETHO    C2 8638   6.959  19.192  12.787
 1121ETHO   H21 8639   6.928  19.290  12.830
 1121ETHO   H23 8640   6.870  19.127  12.788
 1122ETHO    O1 8641   7.009  19.197  12.653
 1122ETHO    C1 8642   6.922  19.272  12.565
 1122ETHO   H11 8643   6.911  19.378  12.595
 1122ETHO   H13 8644   6.818  19.233  12.569
 1122ETHO    C2 8645   6.967  19.265  12.419
 1122ETHO   H21 8646   6.991  19.165  12.378
 1122ETHO   H23 8647   7.051  19.337  12.409
 1123ETHO    O1 8648   6.848  19.321  12.362
 1123ETHO    C1 8649   6.869  19.354  12.226
 1123ETHO   H11 8650   6.958  19.417  12.204
 1123ETHO   H13 8651   6.863  19.262  12.165
 1123ETHO    C2 8652   6.755  19.446  12.181
 1123ETHO   H21 8653   6.666  19.383  12.204
 1123ETHO   H23 8654   6.775  19.465  12.074
 1124ETHO    O1 8655   6.735  19.563  12.257
 1124ETHO    C1 8656   6.648  19.663  12.193
 1124ETHO   H11 8657   6.556  19.602  12.175
 1124ETHO   H13 8658   6.690  19.696  12.095
 1124ETHO    C2 8659   6.612  19.773  12.293
 1124ETHO   H21 8660   6.581  19.865  12.239
 1124ETHO   H23 8661   6.700  19.790  12.359
 1125ETHO    O1 8662   6.497  19.733  12.372
 1125ETHO    C1 8663   6.435  19.833  12.452
 1125ETHO   H11 8664   6.498  19.847  12.543
 1125ETHO   H13 8665   6.413  19.924  12.393
 1125ETHO    C2 8666   6.288  19.794  12.513
 1125ETHO   H21 8667   6.211  19.767  12.438
 1125ETHO   H23 8668   6.248  19.871  12.582
 1126ETHO    O1 8669   6.288  19.677  12.598
 1126ETHO    C1 8670   6.283  19.557  12.523
 1126ETHO   H11 8671   6.365  19.560  12.447
 1126ETHO   H13 8672   6.187  19.553  12.468
 1126ETHO    C2 8673   6.288  19.432  12.613
 1126ETHO   H21 8674   6.356  19.456  12.697
 1126ETHO   H23 8675   6.326  19.345  12.556
 1127ETHO    O1 8676   6.161  19.403  12.668
 1127ETHO    C1 8677   6.136  19.267  12.693
 1127ETHO   H11 8678   6.228  19.236  12.748
 1127ETHO   H13 8679   6.061  19.257  12.773
 1127ETHO    C2 8680   6.110  19.184  12.559
 1127ETHO   H21 8681   6.118  19.076  12.583
 1127ETHO   H23 8682   6.190  19.214  12.488
 1128ETHO    O1 8683   5.979  19.198  12.500
 1128ETHO    C1 8684   5.949  19.079  12.426
 1128ETHO   H11 8685   6.025  19.066  12.346
 1128ETHO   H13 8686   5.957  18.986  12.487
 1128ETHO    C2 8687   5.807  19.087  12.363
 1128ETHO   H21 8688   5.795  19.012  12.283
 1128ETHO   H23 8689   5.792  19.187  12.318
 1129ETHO    O1 8690   5.725  19.069  12.476
 1129ETHO    C1 8691   5.596  19.102  12.438
 1129ETHO   H11 8692   5.599  19.204  12.393
 1129ETHO   H13 8693   5.552  19.023  12.374
 1129ETHO    C2 8694   5.504  19.116  12.563
 1129ETHO   H21 8695   5.514  19.025  12.627
 1129ETHO   H23 8696   5.399  19.125  12.529
 1130ETHO    O1 8697   5.534  19.243  12.625
 1130ETHO    C1 8698   5.451  19.269  12.733
 1130ETHO   H11 8699   5.346  19.246  12.705
 1130ETHO   H13 8700   5.495  19.212  12.817
 1130ETHO    C2 8701   5.476  19.413  12.777
 1130ETHO   H21 8702   5.585  19.420  12.801
 1130ETHO   H23 8703   5.414  19.443  12.864
 1131ETHO    O1 8704   5.457  19.516  12.680
 1131ETHO    C1 8705   5.325  19.553  12.665
 1131ETHO   H11 8706   5.270  19.542  12.761
 1131ETHO   H13 8707   5.291  19.469  12.601
 1131ETHO    C2 8708   5.289  19.680  12.590
 1131ETHO   H21 8709   5.182  19.665  12.564
 1131ETHO   H23 8710   5.344  19.692  12.495
 1132ETHO    O1 8711   5.295  19.787  12.684
 1132ETHO    C1 8712   5.307  19.910  12.610
 1132ETHO   H11 8713   5.334  19.992  12.680
 1132ETHO   H13 8714   5.391  19.898  12.538
 1132ETHO    C2 8715   5.179  19.950  12.536
 1132ETHO   H21 8716   5.138  19.863  12.481
 1132ETHO   H23 8717   5.219  20.025  12.464
 1133ETHO    O1 8718   5.075  20.007  12.622
 1133ETHO    C1 8719   5.094  20.146  12.645
 1133ETHO   H11 8720   5.095  20.200  12.548
 1133ETHO   H13 8721   5.198  20.167  12.679
 1133ETHO    C2 8722   5.010  20.204  12.756
 1133ETHO   H21 8723   5.004  20.135  12.843
 1133ETHO   H23 8724   4.902  20.213  12.730
 1134ETHO    O1 8725   5.064  20.330  12.795
 1134ETHO    C1 8726   4.965  20.413  12.854
 1134ETHO   H11 8727   4.870  20.411  12.797
 1134ETHO   H13 8728   4.943  20.377  12.957
 1134ETHO    C2 8729   5.010  20.555  12.877
 1134ETHO   H21 8730   5.119  20.560  12.898
 1134ETHO   H23 8731   4.958  20.605  12.961
 1135ETHO    O1 8732   4.975  20.636  12.766
 1135ETHO    C1 8733   5.055  20.753  12.751
 1135ETHO   H11 8734   5.084  20.793  12.851
 1135ETHO   H13 8735   4.992  20.826  12.695
 1135ETHO    C2 8736   5.184  20.712  12.671
 1135ETHO   H21 8737   5.232  20.622  12.715
 1135ETHO   H23 8738   5.252  20.800  12.671
 1136ETHO    O1 8739   5.162  20.705  12.530
 1136ETHO    C1 8740   5.268  20.636  12.461
 1136ETHO   H11 8741   5.359  20.698  12.478
 1136ETHO   H13 8742   5.291  20.539  12.509
 1136ETHO    C2 8743   5.243  20.613  12.311
 1136ETHO   H21 8744   5.342  20.579  12.275
 1136ETHO   H23 8745   5.199  20.699  12.256
 1137ETHO    O1 8746   5.149  20.508  12.293
 1137ETHO    C1 8747   5.132  20.484  12.158
 1137ETHO   H11 8748   5.235  20.464  12.124
 1137ETHO   H13 8749   5.089  20.567  12.099
 1137ETHO    C2 8750   5.050  20.358  12.142
 1137ETHO   H21 8751   5.021  20.349  12.035
 1137ETHO   H23 8752   4.962  20.388  12.204
 1138ETHO    O1 8753   5.104  20.233  12.175
 1138ETHO    C1 8754   5.178  20.168  12.070
 1138ETHO   H11 8755   5.121  20.172  11.975
 1138ETHO   H13 8756   5.273  20.220  12.048
 1138ETHO    C2 8757   5.216  20.020  12.107
 1138ETHO   H21 8758   5.243  19.962  12.016
 1138ETHO   H23 8759   5.124  19.972  12.146
 1139ETHO    O1 8760   5.323  20.004  12.202
 1139ETHO    C1 8761   5.360  19.866  12.207
 1139ETHO   H11 8762   5.286  19.823  12.278
 1139ETHO   H13 8763   5.359  19.814  12.109
 1139ETHO    C2 8764   5.498  19.853  12.272
 1139ETHO   H21 8765   5.511  19.755  12.323
 1139ETHO   H23 8766   5.503  19.930  12.353
 1140ETHO    O1 8767   5.592  19.869  12.166
 1140ETHO    C1 8768   5.726  19.875  12.212
 1140ETHO   H11 8769   5.734  19.960  12.283
 1140ETHO   H13 8770   5.744  19.786  12.276
 1140ETHO    C2 8771   5.824  19.885  12.088
 1140ETHO   H21 8772   5.902  19.959  12.117
 1140ETHO   H23 8773   5.767  19.930  12.004
 1141ETHO    O1 8774   5.880  19.760  12.044
 1141ETHO    C1 8775   5.966  19.690  12.131
 1141ETHO   H11 8776   6.065  19.708  12.083
 1141ETHO   H13 8777   5.960  19.741  12.229
 1141ETHO    C2 8778   5.935  19.541  12.153
 1141ETHO   H21 8779   5.895  19.513  12.253
 1141ETHO   H23 8780   5.863  19.516  12.072
 1142ETHO    O1 8781   6.066  19.471  12.124
 1142ETHO    C1 8782   6.056  19.324  12.152
 1142ETHO   H11 8783   5.960  19.281  12.114
 1142ETHO   H13 8784   6.055  19.302  12.260
 1142ETHO    C2 8785   6.170  19.235  12.099
 1142ETHO   H21 8786   6.197  19.269  11.997
 1142ETHO   H23 8787   6.132  19.131  12.105
 1143ETHO    O1 8788   6.286  19.249  12.180
 1143ETHO    C1 8789   6.391  19.175  12.135
 1143ETHO   H11 8790   6.360  19.088  12.074
 1143ETHO   H13 8791   6.447  19.246  12.070
 1143ETHO    C2 8792   6.470  19.122  12.257
 1143ETHO   H21 8793   6.418  19.042  12.313
 1143ETHO   H23 8794   6.472  19.213  12.321
 1144ETHO    O1 8795   6.603  19.095  12.211
 1144ETHO    C1 8796   6.695  19.048  12.310
 1144ETHO   H11 8797   6.691  19.127  12.388
 1144ETHO   H13 8798   6.794  19.061  12.262
 1144ETHO    C2 8799   6.665  18.915  12.372
 1144ETHO   H21 8800   6.571  18.930  12.429
 1144ETHO   H23 8801   6.751  18.897  12.441
 1145ETHO    O1 8802   6.652  18.811  12.276
 1145ETHO    C1 8803   6.579  18.703  12.329
 1145ETHO   H11 8804   6.601  18.695  12.437
 1145ETHO   H13 8805   6.474  18.738  12.323
 1145ETHO    C2 8806   6.613  18.568  12.256
 1145ETHO   H21 8807   6.645  18.593  12.152
 1145ETHO   H23 8808   6.519  18.507  12.254
 1146ETHO    O1 8809   6.718  18.495  12.326
 1146ETHO    C1 8810   6.744  18.370  12.263
 1146ETHO   H11 8811   6.758  18.392  12.155
 1146ETHO   H13 8812   6.654  18.313  12.294
 1146ETHO    C2 8813   6.875  18.292  12.307
 1146ETHO   H21 8814   6.869  18.185  12.279
 1146ETHO   H23 8815   6.878  18.294  12.419
 1147ETHO    O1 8816   6.998  18.347  12.265
 1147ETHO    C1 8817   7.102  18.255  12.295
 1147ETHO   H11 8818   7.105  18.236  12.405
 1147ETHO   H13 8819   7.065  18.157  12.259
 1147ETHO    C2 8820   7.243  18.287  12.238
 1147ETHO   H21 8821   7.289  18.387  12.254
 1147ETHO   H23 8822   7.229  18.269  12.129
 1148ETHO    O1 8823   7.331  18.183  12.282
 1148ETHO    C1 8824   7.454  18.191  12.216
 1148ETHO   H11 8825   7.497  18.282  12.261
 1148ETHO   H13 8826   7.444  18.221  12.109
 1148ETHO    C2 8827   7.545  18.073  12.247
 1148ETHO   H21 8828   7.519  18.011  12.336
 1148ETHO   H23 8829   7.649  18.108  12.264
 1149ETHO    O1 8830   7.542  17.998  12.126
 1149ETHO    C1 8831   7.622  17.884  12.137
 1149ETHO   H11 8832   7.723  17.919  12.165
 1149ETHO   H13 8833   7.586  17.823  12.222
 1149ETHO    C2 8834   7.625  17.794  12.013
 1149ETHO   H21 8835   7.646  17.847  11.918
 1149ETHO   H23 8836   7.530  17.740  11.995
 1150ETHO    O1 8837   7.738  17.711  12.024
 1150ETHO    C1 8838   7.740  17.612  11.922
 1150ETHO   H11 8839   7.670  17.532  11.957
 1150ETHO   H13 8840   7.695  17.660  11.832
 1150ETHO    C2 8841   7.880  17.562  11.870
 1150ETHO   H21 8842   7.951  17.640  11.835
 1150ETHO   H23 8843   7.868  17.491  11.786
 1151ETHO    O1 8844   7.962  17.488  11.969
 1151ETHO    C1 8845   7.920  17.351  11.980
 1151ETHO   H11 8846   7.815  17.326  12.006
 1151ETHO   H13 8847   7.946  17.314  11.878
 1151ETHO    C2 8848   8.005  17.270  12.080
 1151ETHO   H21 8849   7.988  17.163  12.054
 1151ETHO   H23 8850   7.954  17.296  12.174
 1152ETHO    O1 8851   8.144  17.291  12.078
 1152ETHO    C1 8852   8.205  17.204  12.166
 1152ETHO   H11 8853   8.160  17.213  12.267
 1152ETHO   H13 8854   8.190  17.099  12.133
 1152ETHO    C2 8855   8.355  17.231  12.191
 1152ETHO   H21 8856   8.377  17.168  12.280
 1152ETHO   H23 8857   8.363  17.339  12.216
 1153ETHO    O1 8858   8.452  17.205  12.080
 1153ETHO    C1 8859   8.494  17.069  12.059
 1153ETHO   H11 8860   8.413  17.008  12.013
 1153ETHO   H13 8861   8.516  17.028  12.160
 1153ETHO    C2 8862   8.616  17.072  11.962
 1153ETHO   H21 8863   8.601  17.125  11.866
 1153ETHO   H23 8864   8.630  16.964  11.938
 1154ETHO    O1 8865   8.738  17.128  12.022
 1154ETHO    C1 8866   8.855  17.097  11.949
 1154ETHO   H11 8867   8.852  16.987  11.938
 1154ETHO   H13 8868   8.848  17.148  11.850
 1154ETHO    C2 8869   8.974  17.137  12.043
 1154ETHO   H21 8870   8.945  17.216  12.115
 1154ETHO   H23 8871   9.065  17.171  11.989
 1155ETHO    O1 8872   9.024  17.032  12.123
 1155ETHO    C1 8873   8.941  17.009  12.232
 1155ETHO   H11 8874   8.843  16.966  12.199
 1155ETHO   H13 8875   8.924  17.105  12.284
 1155ETHO    C2 8876   9.008  16.910  12.336
 1155ETHO   H21 8877   8.983  16.944  12.439
 1155ETHO   H23 8878   9.116  16.933  12.352
 1156ETHO    O1 8879   8.998  16.769  12.315
 1156ETHO    C1 8880   9.060  16.728  12.193
 1156ETHO   H11 8881   8.999  16.777  12.114
 1156ETHO   H13 8882   9.163  16.768  12.190
 1156ETHO    C2 8883   9.044  16.574  12.180
 1156ETHO   H21 8884   9.068  16.569  12.071
 1156ETHO   H23 8885   8.940  16.538  12.198
 1157ETHO    O1 8886   9.139  16.492  12.248
 1157ETHO    C1 8887   9.106  16.498  12.387
 1157ETHO   H11 8888   8.997  16.483  12.405
 1157ETHO   H13 8889   9.135  16.600  12.419
 1157ETHO    C2 8890   9.172  16.399  12.484
 1157ETHO   H21 8891   9.124  16.422  12.582
 1157ETHO   H23 8892   9.280  16.423  12.485
 1158ETHO    O1 8893   9.132  16.269  12.457
 1158ETHO    C1 8894   9.229  16.207  12.366
 1158ETHO   H11 8895   9.190  16.129  12.298
 1158ETHO   H13 8896   9.274  16.283  12.299
 1158ETHO    C2 8897   9.349  16.145  12.435
 1158ETHO   H21 8898   9.392  16.202  12.520
 1158ETHO   H23 8899   9.426  16.122  12.358
 1159ETHO    O1 8900   9.310  16.020  12.500
 1159ETHO    C1 8901   9.402  15.982  12.595
 1159ETHO   H11 8902   9.379  16.059  12.672
 1159ETHO   H13 8903   9.500  16.004  12.548
 1159ETHO    C2 8904   9.377  15.850  12.663
 1159ETHO   H21 8905   9.268  15.859  12.681
 1159ETHO   H23 8906   9.443  15.842  12.752
 1160ETHO    O1 8907   9.406  15.754  12.565
 1160ETHO    C1 8908   9.360  15.630  12.605
 1160ETHO   H11 8909   9.392  15.613  12.710
 1160ETHO   H13 8910   9.250  15.619  12.604
 1160ETHO    C2 8911   9.425  15.510  12.534
 1160ETHO   H21 8912   9.389  15.414  12.577
 1160ETHO   H23 8913   9.535  15.510  12.547
 1161PROX    O1 8914   9.397  15.498  12.394
 1161PROX    C1 8915   9.482  15.403  12.325
 1161PROX   H11 8916   9.577  15.454  12.300
 1161PROX   H13 8917   9.508  15.316  12.390
 1161PROX    C2 8918   9.411  15.356  12.201
 1161PROX   H21 8919   9.366  15.445  12.153
 1161PROX    C3 8920   9.310  15.241  12.227
 1161PROX   H31 8921   9.285  15.188  12.132
 1161PROX   H32 8922   9.349  15.159  12.291
 1161PROX   H33 8923   9.218  15.285  12.271
 1162PROX    O1 8924   9.515  15.309  12.120
 1162PROX    C1 8925   9.500  15.368  11.987
 1162PROX   H11 8926   9.395  15.352  11.955
 1162PROX   H13 8927   9.529  15.475  11.985
 1162PROX    C2 8928   9.590  15.293  11.875
 1162PROX   H21 8929   9.576  15.188  11.908
 1162PROX    C3 8930   9.732  15.336  11.888
 1162PROX   H31 8931   9.763  15.305  11.990
 1162PROX   H32 8932   9.797  15.288  11.812
 1162PROX   H33 8933   9.734  15.446  11.874
 1163PROX    O1 8934   9.544  15.336  11.748
 1163PROX    C1 8935   9.435  15.259  11.701
 1163PROX   H11 8936   9.362  15.238  11.782
 1163PROX   H13 8937   9.397  15.324  11.620
 1163PROX    C2 8938   9.472  15.124  11.650
 1163PROX   H21 8939   9.506  15.060  11.735
 1163PROX    C3 8940   9.587  15.122  11.543
 1163PROX   H31 8941   9.680  15.166  11.585
 1163PROX   H32 8942   9.603  15.013  11.527
 1163PROX   H33 8943   9.559  15.181  11.453
 1164PROX    O1 8944   9.353  15.066  11.589
 1164PROX    C1 8945   9.266  14.990  11.670
 1164PROX   H11 8946   9.291  15.026  11.772
 1164PROX   H13 8947   9.163  15.019  11.642
 1164PROX    C2 8948   9.298  14.841  11.674
 1164PROX   H21 8949   9.400  14.823  11.715
 1164PROX    C3 8950   9.297  14.773  11.536
 1164PROX   H31 8951   9.198  14.791  11.489
 1164PROX   H32 8952   9.381  14.823  11.481
 1164PROX   H33 8953   9.316  14.665  11.555
 1165PROX    O1 8954   9.199  14.784  11.759
 1165PROX    C1 8955   9.246  14.677  11.840
 1165PROX   H11 8956   9.224  14.580  11.790
 1165PROX   H13 8957   9.357  14.683  11.848
 1165PROX    C2 8958   9.173  14.691  11.981
 1165PROX   H21 8959   9.064  14.674  11.963
 1165PROX    C3 8960   9.198  14.820  12.055
 1165PROX   H31 8961   9.124  14.829  12.137
 1165PROX   H32 8962   9.300  14.820  12.099
 1165PROX   H33 8963   9.183  14.909  11.989
 1166PROX    O1 8964   9.223  14.573  12.055
 1166PROX    C1 8965   9.164  14.566  12.188
 1166PROX   H11 8966   9.221  14.647  12.237
 1166PROX   H13 8967   9.056  14.592  12.186
 1166PROX    C2 8968   9.194  14.433  12.265
 1166PROX   H21 8969   9.206  14.356  12.186
 1166PROX    C3 8970   9.078  14.394  12.357
 1166PROX   H31 8971   9.078  14.461  12.445
 1166PROX   H32 8972   8.987  14.412  12.297
 1166PROX   H33 8973   9.079  14.284  12.374
 1167PROX    O1 8974   9.319  14.445  12.337
 1167PROX    C1 8975   9.396  14.325  12.310
 1167PROX   H11 8976   9.469  14.304  12.392
 1167PROX   H13 8977   9.327  14.239  12.295
 1167PROX    C2 8978   9.473  14.322  12.175
 1167PROX   H21 8979   9.398  14.331  12.094
 1167PROX    C3 8980   9.540  14.193  12.159
 1167PROX   H31 8981   9.466  14.111  12.147
 1167PROX   H32 8982   9.606  14.211  12.071
 1167PROX   H33 8983   9.599  14.174  12.251
 1168PROX    O1 8984   9.557  14.435  12.167
 1168PROX    C1 8985   9.550  14.487  12.038
 1168PROX   H11 8986   9.591  14.422  11.957
 1168PROX   H13 8987   9.447  14.511  12.005
 1168PROX    C2 8988   9.642  14.612  12.035
 1168PROX   H21 8989   9.743  14.575  12.064
 1168PROX    C3 8990   9.608  14.710  12.148
 1168PROX   H31 8991   9.498  14.728  12.157
 1168PROX   H32 8992   9.626  14.655  12.243
 1168PROX   H33 8993   9.674  14.799  12.148
 1169PROX    O1 8994   9.631  14.669  11.908
 1169PROX    C1 8995   9.761  14.715  11.860
 1169PROX   H11 8996   9.831  14.629  11.856
 1169PROX   H13 8997   9.733  14.734  11.754
 1169PROX    C2 8998   9.818  14.841  11.922
 1169PROX   H21 8999   9.725  14.897  11.948
 1169PROX    C3 9000   9.897  14.931  11.827
 1169PROX   H31 9001   9.976  14.867  11.781
 1169PROX   H32 9002   9.832  14.963  11.743
 1169PROX   H33 9003   9.946  15.017  11.876
 1170PROX    O1 9004   9.888  14.807  12.040
 1170PROX    C1 9005  10.025  14.766  12.012
 1170PROX   H11 9006  10.041  14.687  11.936
 1170PROX   H13 9007  10.089  14.855  11.994
 1170PROX    C2 9008  10.090  14.712  12.149
 1170PROX   H21 9009  10.047  14.612  12.168
 1170PROX    C3 9010  10.059  14.812  12.266
 1170PROX   H31 9011  10.049  14.770  12.368
 1170PROX   H32 9012  10.137  14.891  12.270
 1170PROX   H33 9013   9.961  14.862  12.249
 1171PROX    O1 9014  10.230  14.704  12.145
 1171PROX    C1 9015  10.279  14.623  12.252
 1171PROX   H11 9016  10.242  14.645  12.355
 1171PROX   H13 9017  10.256  14.517  12.228
 1171PROX    C2 9018  10.428  14.636  12.259
 1171PROX   H21 9019  10.477  14.624  12.159
 1171PROX    C3 9020  10.477  14.529  12.361
 1171PROX   H31 9021  10.502  14.443  12.296
 1171PROX   H32 9022  10.571  14.572  12.403
 1171PROX   H33 9023  10.409  14.519  12.449
 1172PROX    O1 9024  10.473  14.754  12.326
 1172PROX    C1 9025  10.470  14.865  12.236
 1172PROX   H11 9026  10.517  14.836  12.139
 1172PROX   H13 9027  10.365  14.891  12.208
 1172PROX    C2 9028  10.537  14.990  12.296
 1172PROX   H21 9029  10.627  14.956  12.351
 1172PROX    C3 9030  10.450  15.077  12.388
 1172PROX   H31 9031  10.494  15.175  12.414
 1172PROX   H32 9032  10.361  15.101  12.325
 1172PROX   H33 9033  10.410  15.026  12.478
 1173PROX    O1 9034  10.593  15.066  12.192
 1173PROX    C1 9035  10.698  15.156  12.230
 1173PROX   H11 9036  10.715  15.159  12.339
 1173PROX   H13 9037  10.787  15.104  12.189
 1173PROX    C2 9038  10.696  15.304  12.174
 1173PROX   H21 9039  10.686  15.301  12.064
 1173PROX    C3 9040  10.828  15.381  12.200
 1173PROX   H31 9041  10.920  15.329  12.165
 1173PROX   H32 9042  10.825  15.477  12.145
 1173PROX   H33 9043  10.831  15.412  12.307
 1174PROX    O1 9044  10.588  15.375  12.237
 1174PROX    C1 9045  10.537  15.481  12.168
 1174PROX   H11 9046  10.479  15.541  12.242
 1174PROX   H13 9047  10.625  15.539  12.134
 1174PROX    C2 9048  10.447  15.450  12.044
 1174PROX   H21 9049  10.489  15.361  11.992
 1174PROX    C3 9050  10.434  15.571  11.943
 1174PROX   H31 9051  10.366  15.547  11.858
 1174PROX   H32 9052  10.388  15.655  11.999
 1174PROX   H33 9053  10.537  15.590  11.905
 1175PROX    O1 9054  10.320  15.424  12.097
 1175PROX    C1 9055  10.288  15.284  12.095
 1175PROX   H11 9056  10.365  15.221  12.144
 1175PROX   H13 9057  10.201  15.260  12.160
 1175PROX    C2 9058  10.257  15.224  11.949
 1175PROX   H21 9059  10.329  15.261  11.872
 1175PROX    C3 9060  10.107  15.251  11.899
 1175PROX   H31 9061  10.097  15.362  11.895
 1175PROX   H32 9062  10.098  15.193  11.805
 1175PROX   H33 9063  10.041  15.204  11.974
 1176PROX    O1 9064  10.274  15.082  11.955
 1176PROX    C1 9065  10.269  15.013  11.833
 1176PROX   H11 9066  10.160  14.996  11.822
 1176PROX   H13 9067  10.309  15.074  11.749
 1176PROX    C2 9068  10.337  14.875  11.843
 1176PROX   H21 9069  10.309  14.836  11.943
 1176PROX    C3 9070  10.490  14.894  11.831
 1176PROX   H31 9071  10.542  14.796  11.835
 1176PROX   H32 9072  10.514  14.947  11.736
 1176PROX   H33 9073  10.522  14.949  11.922
 1177PROX    O1 9074  10.283  14.791  11.743
 1177PROX    C1 9075  10.311  14.656  11.766
 1177PROX   H11 9076  10.420  14.636  11.768
 1177PROX   H13 9077  10.267  14.642  11.867
 1177PROX    C2 9078  10.236  14.577  11.658
 1177PROX   H21 9079  10.264  14.614  11.557
 1177PROX    C3 9080  10.082  14.594  11.676
 1177PROX   H31 9081  10.033  14.531  11.598
 1177PROX   H32 9082  10.055  14.560  11.778
 1177PROX   H33 9083  10.053  14.700  11.661
 1178PROX    O1 9084  10.262  14.441  11.679
 1178PROX    C1 9085  10.379  14.402  11.596
 1178PROX   H11 9086  10.358  14.424  11.489
 1178PROX   H13 9087  10.469  14.450  11.638
 1178PROX    C2 9088  10.418  14.248  11.603
 1178PROX   H21 9089  10.418  14.230  11.713
 1178PROX    C3 9090  10.552  14.212  11.538
 1178PROX   H31 9091  10.628  14.287  11.569
 1178PROX   H32 9092  10.601  14.114  11.560
 1178PROX   H33 9093  10.550  14.219  11.427
 1179PROX    O1 9094  10.327  14.162  11.535
 1179PROX    C1 9095  10.204  14.139  11.612
 1179PROX   H11 9096  10.226  14.054  11.680
 1179PROX   H13 9097  10.186  14.229  11.674
 1179PROX    C2 9098  10.080  14.100  11.536
 1179PROX   H21 9099  10.089  13.992  11.510
 1179PROX    C3 9100  10.040  14.186  11.416
 1179PROX   H31 9101   9.944  14.147  11.375
 1179PROX   H32 9102  10.014  14.288  11.450
 1179PROX   H33 9103  10.122  14.188  11.340
 1180PROX    O1 9104   9.963  14.102  11.614
 1180PROX    C1 9105   9.973  14.037  11.741
 1180PROX   H11 9106  10.022  13.939  11.721
 1180PROX   H13 9107  10.028  14.105  11.810
 1180PROX    C2 9108   9.843  14.028  11.813
 1180PROX   H21 9109   9.770  13.982  11.742
 1180PROX    C3 9110   9.780  14.160  11.866
 1180PROX   H31 9111   9.810  14.163  11.973
 1180PROX   H32 9112   9.814  14.255  11.820
 1180PROX   H33 9113   9.670  14.156  11.855
 1181PROX    O1 9114   9.874  13.927  11.910
 1181PROX    C1 9115   9.765  13.912  12.002
 1181PROX   H11 9116   9.751  14.000  12.069
 1181PROX   H13 9117   9.671  13.890  11.949
 1181PROX    C2 9118   9.791  13.785  12.088
 1181PROX   H21 9119   9.889  13.783  12.140
 1181PROX    C3 9120   9.777  13.655  11.989
 1181PROX   H31 9121   9.670  13.633  11.968
 1181PROX   H32 9122   9.853  13.673  11.910
 1181PROX   H33 9123   9.812  13.566  12.046
 1182PROX    O1 9124   9.683  13.780  12.179
 1182PROX    C1 9125   9.711  13.685  12.283
 1182PROX   H11 9126   9.710  13.589  12.228
 1182PROX   H13 9127   9.811  13.712  12.324
 1182PROX    C2 9128   9.591  13.687  12.382
 1182PROX   H21 9129   9.580  13.787  12.429
 1182PROX    C3 9130   9.618  13.588  12.498
 1182PROX   H31 9131   9.649  13.490  12.455
 1182PROX   H32 9132   9.709  13.623  12.553
 1182PROX   H33 9133   9.527  13.585  12.562
 1183PROX    O1 9134   9.475  13.633  12.321
 1183PROX    C1 9135   9.410  13.734  12.232
 1183PROX   H11 9136   9.438  13.838  12.260
 1183PROX   H13 9137   9.460  13.735  12.133
 1183PROX    C2 9138   9.261  13.706  12.228
 1183PROX   H21 9139   9.212  13.730  12.324
 1183PROX    C3 9140   9.223  13.559  12.201
 1183PROX   H31 9141   9.284  13.528  12.113
 1183PROX   H32 9142   9.250  13.496  12.289
 1183PROX   H33 9143   9.112  13.556  12.193
 1184PROX    O1 9144   9.201  13.771  12.115
 1184PROX    C1 9145   9.220  13.906  12.105
 1184PROX   H11 9146   9.169  13.946  12.195
 1184PROX   H13 9147   9.324  13.944  12.096
 1184PROX    C2 9148   9.145  13.951  11.975
 1184PROX   H21 9149   9.042  13.912  11.990
 1184PROX    C3 9150   9.202  13.886  11.852
 1184PROX   H31 9151   9.138  13.909  11.764
 1184PROX   H32 9152   9.305  13.922  11.830
 1184PROX   H33 9153   9.211  13.775  11.854
 1185PROX    O1 9154   9.150  14.091  11.964
 1185PROX    C1 9155   9.032  14.146  11.907
 1185PROX   H11 9156   9.015  14.090  11.813
 1185PROX   H13 9157   8.944  14.136  11.974
 1185PROX    C2 9158   9.067  14.286  11.878
 1185PROX   H21 9159   9.124  14.342  11.955
 1185PROX    C3 9160   8.940  14.362  11.849
 1185PROX   H31 9161   8.902  14.315  11.756
 1185PROX   H32 9162   8.865  14.341  11.929
 1185PROX   H33 9163   8.953  14.471  11.836
 1186PROX    O1 9164   9.125  14.308  11.764
 1186PROX    C1 9165   9.271  14.286  11.750
 1186PROX   H11 9166   9.317  14.373  11.801
 1186PROX   H13 9167   9.303  14.197  11.809
 1186PROX    C2 9168   9.320  14.271  11.604
 1186PROX   H21 9169   9.259  14.328  11.530
 1186PROX    C3 9170   9.296  14.127  11.548
 1186PROX   H31 9171   9.313  14.130  11.438
 1186PROX   H32 9172   9.365  14.050  11.589
 1186PROX   H33 9173   9.195  14.091  11.579
 1187PROX    O1 9174   9.463  14.300  11.596
 1187PROX    C1 9175   9.489  14.439  11.604
 1187PROX   H11 9176   9.412  14.493  11.545
 1187PROX   H13 9177   9.485  14.488  11.704
 1187PROX    C2 9178   9.622  14.473  11.532
 1187PROX   H21 9179   9.623  14.419  11.435
 1187PROX    C3 9180   9.736  14.408  11.610
 1187PROX   H31 9181   9.721  14.433  11.717
 1187PROX   H32 9182   9.727  14.299  11.593
 1187PROX   H33 9183   9.836  14.448  11.581
 1188PROX    O1 9184   9.624  14.613  11.501
 1188PROX    C1 9185   9.731  14.649  11.420
 1188PROX   H11 9186   9.824  14.620  11.473
 1188PROX   H13 9187   9.751  14.593  11.326
 1188PROX    C2 9188   9.729  14.804  11.393
 1188PROX   H21 9189   9.706  14.855  11.489
 1188PROX    C3 9190   9.626  14.846  11.292
 1188PROX   H31 9191   9.630  14.956  11.272
 1188PROX   H32 9192   9.626  14.787  11.198
 1188PROX   H33 9193   9.527  14.827  11.339
 1189PROX    O1 9194   9.859  14.838  11.348
 1189PROX    C1 9195   9.902  14.973  11.381
 1189PROX   H11 9196   9.860  15.043  11.305
 1189PROX   H13 9197   9.869  15.000  11.483
 1189PROX    C2 9198  10.057  14.985  11.378
 1189PROX   H21 9199  10.093  14.965  11.275
 1189PROX    C3 9200  10.127  14.887  11.473
 1189PROX   H31 9201  10.129  14.780  11.446
 1189PROX   H32 9202  10.232  14.916  11.494
 1189PROX   H33 9203  10.088  14.889  11.577
 1190PROX    O1 9204  10.084  15.112  11.426
 1190PROX    C1 9205  10.199  15.168  11.368
 1190PROX   H11 9206  10.260  15.086  11.325
 1190PROX   H13 9207  10.181  15.239  11.284
 1190PROX    C2 9208  10.278  15.240  11.482
 1190PROX   H21 9209  10.309  15.164  11.557
 1190PROX    C3 9210  10.194  15.350  11.549
 1190PROX   H31 9211  10.102  15.310  11.597
 1190PROX   H32 9212  10.262  15.408  11.615
 1190PROX   H33 9213  10.157  15.419  11.470
 1191PROX    O1 9214  10.392  15.311  11.437
 1191PROX    C1 9215  10.489  15.222  11.386
 1191PROX   H11 9216  10.480  15.120  11.429
 1191PROX   H13 9217  10.476  15.205  11.277
 1191PROX    C2 9218  10.636  15.269  11.404
 1191PROX   H21 9219  10.639  15.371  11.359
 1191PROX    C3 9220  10.740  15.179  11.330
 1191PROX   H31 9221  10.734  15.075  11.369
 1191PROX   H32 9222  10.709  15.177  11.224
 1191PROX   H33 9223  10.843  15.221  11.333
 1192PROX    O1 9224  10.672  15.271  11.543
 1192PROX    C1 9225  10.758  15.384  11.576
 1192PROX   H11 9226  10.853  15.353  11.624
 1192PROX   H13 9227  10.792  15.440  11.485
 1192PROX    C2 9228  10.686  15.481  11.668
 1192PROX   H21 9229  10.657  15.432  11.763
 1192PROX    C3 9230  10.554  15.536  11.612
 1192PROX   H31 9231  10.499  15.598  11.686
 1192PROX   H32 9232  10.556  15.598  11.520
 1192PROX   H33 9233  10.488  15.449  11.592
 1193PROX    O1 9234  10.774  15.585  11.702
 1193PROX    C1 9235  10.886  15.552  11.789
 1193PROX   H11 9236  10.863  15.463  11.851
 1193PROX   H13 9237  10.975  15.538  11.723
 1193PROX    C2 9238  10.903  15.663  11.894
 1193PROX   H21 9239  10.920  15.752  11.829
 1193PROX    C3 9240  11.033  15.624  11.982
 1193PROX   H31 9241  11.126  15.620  11.923
 1193PROX   H32 9242  11.065  15.696  12.060
 1193PROX   H33 9243  11.022  15.518  12.014
 1194PROX    O1 9244  10.786  15.671  11.969
 1194PROX    C1 9245  10.808  15.757  12.083
 1194PROX   H11 9246  10.850  15.711  12.175
 1194PROX   H13 9247  10.878  15.840  12.057
 1194PROX    C2 9248  10.680  15.833  12.125
 1194PROX   H21 9249  10.589  15.771  12.137
 1194PROX    C3 9250  10.638  15.935  12.010
 1194PROX   H31 9251  10.551  15.999  12.037
 1194PROX   H32 9252  10.729  15.995  11.989
 1194PROX   H33 9253  10.605  15.887  11.916
 1195PROX    O1 9254  10.703  15.914  12.243
 1195PROX    C1 9255  10.709  15.828  12.356
 1195PROX   H11 9256  10.741  15.725  12.330
 1195PROX   H13 9257  10.777  15.869  12.433
 1195PROX    C2 9258  10.573  15.826  12.428
 1195PROX   H21 9259  10.536  15.930  12.424
 1195PROX    C3 9260  10.587  15.785  12.578
 1195PROX   H31 9261  10.628  15.683  12.596
 1195PROX   H32 9262  10.655  15.861  12.622
 1195PROX   H33 9263  10.492  15.796  12.635
 1196PROX    O1 9264  10.480  15.735  12.358
 1196PROX    C1 9265  10.354  15.730  12.425
 1196PROX   H11 9266  10.346  15.636  12.483
 1196PROX   H13 9267  10.325  15.805  12.503
 1196PROX    C2 9268  10.245  15.735  12.311
 1196PROX   H21 9269  10.277  15.666  12.230
 1196PROX    C3 9270  10.224  15.879  12.261
 1196PROX   H31 9271  10.131  15.883  12.201
 1196PROX   H32 9272  10.220  15.961  12.336
 1196PROX   H33 9273  10.311  15.906  12.197
 1197PROX    O1 9274  10.119  15.692  12.360
 1197PROX    C1 9275  10.106  15.545  12.362
 1197PROX   H11 9276  10.197  15.491  12.327
 1197PROX   H13 9277  10.082  15.510  12.464
 1197PROX    C2 9278   9.992  15.490  12.271
 1197PROX   H21 9279  10.008  15.526  12.167
 1197PROX    C3 9280   9.851  15.554  12.301
 1197PROX   H31 9281   9.778  15.516  12.226
 1197PROX   H32 9282   9.817  15.517  12.400
 1197PROX   H33 9283   9.857  15.664  12.291
 1198PROX    O1 9284   9.980  15.349  12.259
 1198PROX    C1 9285   9.988  15.279  12.378
 1198PROX   H11 9286  10.091  15.285  12.419
 1198PROX   H13 9287   9.908  15.321  12.442
 1198PROX    C2 9288   9.948  15.137  12.362
 1198PROX   H21 9289  10.004  15.081  12.284
 1198PROX    C3 9290   9.800  15.123  12.322
 1198PROX   H31 9291   9.729  15.160  12.399
 1198PROX   H32 9292   9.776  15.193  12.240
 1198PROX   H33 9293   9.775  15.017  12.300
 1199PROX    O1 9294   9.961  15.087  12.495
 1199PROX    C1 9295  10.100  15.054  12.521
 1199PROX   H11 9296  10.140  15.013  12.426
 1199PROX   H13 9297  10.159  15.141  12.557
 1199PROX    C2 9298  10.110  14.925  12.618
 1199PROX   H21 9299  10.068  14.837  12.565
 1199PROX    C3 9300  10.036  14.949  12.747
 1199PROX   H31 9301  10.034  14.857  12.810
 1199PROX   H32 9302  10.081  15.025  12.813
 1199PROX   H33 9303   9.929  14.971  12.728
 1200PROX    O1 9304  10.244  14.899  12.655
 1200PROX    C1 9305  10.301  14.791  12.582
 1200PROX   H11 9306  10.239  14.699  12.574
 1200PROX   H13 9307  10.322  14.820  12.476
 1200PROX    C2 9308  10.437  14.755  12.637
 1200PROX   H21 9309  10.489  14.677  12.577
 1200PROX    C3 9310  10.417  14.700  12.782
 1200PROX   H31 9311  10.341  14.762  12.833
 1200PROX   H32 9312  10.388  14.593  12.776
 1200PROX   H33 9313  10.513  14.703  12.838
 1201PROX    O1 9314  10.508  14.874  12.642
 1201PROX    C1 9315  10.649  14.860  12.638
 1201PROX   H11 9316  10.688  14.806  12.727
 1201PROX   H13 9317  10.673  14.803  12.546
 1201PROX    C2 9318  10.707  15.003  12.648
 1201PROX   H21 9319  10.650  15.085  12.600
 1201PROX    C3 9320  10.838  15.005  12.586
 1201PROX   H31 9321  10.900  15.097  12.597
 1201PROX   H32 9322  10.915  14.935  12.625
 1201PROX   H33 9323  10.850  14.974  12.480
 1202PROX    O1 9324  10.728  15.028  12.787
 1202PROX    C1 9325  10.603  15.042  12.854
 1202PROX   H11 9326  10.528  15.090  12.787
 1202PROX   H13 9327  10.558  14.944  12.880
 1202PROX    C2 9328  10.623  15.127  12.981
 1202PROX   H21 9329  10.642  15.233  12.952
 1202PROX    C3 9330  10.737  15.063  13.056
 1202PROX   H31 9331  10.829  15.045  12.995
 1202PROX   H32 9332  10.760  15.130  13.142
 1202PROX   H33 9333  10.702  14.967  13.100
 1203PROX    O1 9334  10.502  15.116  13.062
 1203PROX    C1 9335  10.509  15.194  13.181
 1203PROX   H11 9336  10.556  15.151  13.272
 1203PROX   H13 9337  10.561  15.289  13.157
 1203PROX    C2 9338  10.371  15.231  13.225
 1203PROX   H21 9339  10.310  15.260  13.137
 1203PROX    C3 9340  10.365  15.349  13.329
 1203PROX   H31 9341  10.397  15.311  13.428
 1203PROX   H32 9342  10.423  15.436  13.292
 1203PROX   H33 9343  10.256  15.371  13.331
 1204PROX    O1 9344  10.325  15.122  13.288
 1204PROX    C1 9345  10.183  15.105  13.275
 1204PROX   H11 9346  10.146  15.019  13.334
 1204PROX   H13 9347  10.124  15.193  13.308
 1204PROX    C2 9348  10.141  15.070  13.124
 1204PROX   H21 9349  10.230  15.089  13.060
 1204PROX    C3 9350  10.029  15.171  13.084
 1204PROX   H31 9351  10.010  15.157  12.976
 1204PROX   H32 9352   9.932  15.156  13.137
 1204PROX   H33 9353  10.064  15.276  13.082
 1205PROX    O1 9354  10.096  14.936  13.123
 1205PROX    C1 9355  10.205  14.843  13.099
 1205PROX   H11 9356  10.276  14.875  13.019
 1205PROX   H13 9357  10.279  14.851  13.181
 1205PROX    C2 9358  10.165  14.700  13.064
 1205PROX   H21 9359  10.112  14.707  12.966
 1205PROX    C3 9360  10.072  14.661  13.177
 1205PROX   H31 9361  10.037  14.557  13.159
 1205PROX   H32 9362  10.125  14.663  13.274
 1205PROX   H33 9363   9.981  14.724  13.184
 1206PROX    O1 9364  10.276  14.621  13.047
 1206PROX    C1 9365  10.261  14.485  13.073
 1206PROX   H11 9366  10.275  14.469  13.182
 1206PROX   H13 9367  10.161  14.455  13.037
 1206PROX    C2 9368  10.366  14.397  13.000
 1206PROX   H21 9369  10.357  14.406  12.890
 1206PROX    C3 9370  10.332  14.250  13.024
 1206PROX   H31 9371  10.379  14.216  13.118
 1206PROX   H32 9372  10.225  14.219  13.023
 1206PROX   H33 9373  10.376  14.194  12.939
 1207PROX    O1 9374  10.503  14.433  13.040
 1207PROX    C1 9375  10.599  14.411  12.940
 1207PROX   H11 9376  10.599  14.304  12.910
 1207PROX   H13 9377  10.562  14.456  12.845
 1207PROX    C2 9378  10.742  14.458  12.981
 1207PROX   H21 9379  10.749  14.451  13.091
 1207PROX    C3 9380  10.759  14.610  12.945
 1207PROX   H31 9381  10.668  14.660  12.986
 1207PROX   H32 9382  10.856  14.642  12.990
 1207PROX   H33 9383  10.755  14.626  12.835
 1208PROX    O1 9384  10.849  14.399  12.911
 1208PROX    C1 9385  10.881  14.272  12.951
 1208PROX   H11 9386  10.932  14.269  13.049
 1208PROX   H13 9387  10.787  14.214  12.967
 1208PROX    C2 9388  10.976  14.195  12.854
 1208PROX   H21 9389  10.972  14.087  12.879
 1208PROX    C3 9390  11.122  14.243  12.855
 1208PROX   H31 9391  11.133  14.354  12.859
 1208PROX   H32 9392  11.169  14.207  12.948
 1208PROX   H33 9393  11.174  14.200  12.767
 1209PROX    O1 9394  10.932  14.222  12.721
 1209PROX    C1 9395  10.815  14.147  12.687
 1209PROX   H11 9396  10.839  14.041  12.665
 1209PROX   H13 9397  10.744  14.150  12.773
 1209PROX    C2 9398  10.749  14.211  12.560
 1209PROX   H21 9399  10.819  14.198  12.474
 1209PROX    C3 9400  10.720  14.366  12.576
 1209PROX   H31 9401  10.695  14.400  12.473
 1209PROX   H32 9402  10.638  14.390  12.646
 1209PROX   H33 9403  10.807  14.420  12.617
 1210PROX    O1 9404  10.634  14.125  12.539
 1210PROX    C1 9405  10.567  14.148  12.414
 1210PROX   H11 9406  10.544  14.257  12.410
 1210PROX   H13 9407  10.638  14.132  12.330
 1210PROX    C2 9408  10.435  14.078  12.386
 1210PROX   H21 9409  10.469  13.972  12.379
 1210PROX    C3 9410  10.366  14.126  12.262
 1210PROX   H31 9411  10.425  14.107  12.170
 1210PROX   H32 9412  10.269  14.074  12.248
 1210PROX   H33 9413  10.355  14.237  12.262
 1211PROX    O1 9414  10.359  14.087  12.503
 1211PROX    C1 9415  10.262  13.978  12.509
 1211PROX   H11 9416  10.230  13.936  12.412
 1211PROX   H13 9417  10.318  13.892  12.553
 1211PROX    C2 9418  10.137  14.025  12.595
 1211PROX   H21 9419  10.098  14.112  12.540
 1211PROX    C3 9420  10.179  14.073  12.727
 1211PROX   H31 9421  10.093  14.093  12.794
 1211PROX   H32 9422  10.242  13.993  12.773
 1211PROX   H33 9423  10.244  14.163  12.732
 1212PROX    O1 9424  10.039  13.918  12.596
 1212PROX    C1 9425   9.901  13.965  12.622
 1212PROX   H11 9426   9.848  13.903  12.697
 1212PROX   H13 9427   9.912  14.071  12.654
 1212PROX    C2 9428   9.816  13.968  12.490
 1212PROX   H21 9429   9.829  13.869  12.441
 1212PROX    C3 9430   9.849  14.072  12.377
 1212PROX   H31 9431   9.849  14.179  12.407
 1212PROX   H32 9432   9.951  14.050  12.339
 1212PROX   H33 9433   9.779  14.068  12.292
 1213PROX    O1 9434   9.681  13.978  12.522
 1213PROX    C1 9435   9.645  14.106  12.586
 1213PROX   H11 9436   9.723  14.130  12.661
 1213PROX   H13 9437   9.635  14.187  12.511
 1213PROX    C2 9438   9.504  14.095  12.649
 1213PROX   H21 9439   9.517  14.006  12.715
 1213PROX    C3 9440   9.394  14.064  12.546
 1213PROX   H31 9441   9.350  14.159  12.509
 1213PROX   H32 9442   9.435  14.003  12.462
 1213PROX   H33 9443   9.312  14.009  12.598
 1214PROX    O1 9444   9.481  14.207  12.727
 1214PROX    C1 9445   9.375  14.191  12.819
 1214PROX   H11 9446   9.279  14.176  12.765
 1214PROX   H13 9447   9.398  14.099  12.876
 1214PROX    C2 9448   9.373  14.305  12.921
 1214PROX   H21 9449   9.362  14.399  12.863
 1214PROX    C3 9450   9.503  14.315  13.002
 1214PROX   H31 9451   9.489  14.388  13.085
 1214PROX   H32 9452   9.534  14.221  13.054
 1214PROX   H33 9453   9.584  14.352  12.937
 1215PROX    O1 9454   9.255  14.281  12.999
 1215PROX    C1 9455   9.202  14.392  13.062
 1215PROX   H11 9456   9.127  14.348  13.132
 1215PROX   H13 9457   9.278  14.433  13.132
 1215PROX    C2 9458   9.139  14.504  12.968
 1215PROX   H21 9459   9.063  14.564  13.022
 1215PROX    C3 9460   9.051  14.426  12.859
 1215PROX   H31 9461   8.991  14.495  12.797
 1215PROX   H32 9462   9.117  14.368  12.790
 1215PROX   H33 9463   8.986  14.350  12.907
 1216PROX    O1 9464   9.239  14.586  12.913
 1216PROX    C1 9465   9.259  14.704  12.987
 1216PROX   H11 9466   9.160  14.750  13.007
 1216PROX   H13 9467   9.305  14.684  13.085
 1216PROX    C2 9468   9.338  14.811  12.905
 1216PROX   H21 9469   9.393  14.882  12.969
 1216PROX    C3 9470   9.240  14.885  12.815
 1216PROX   H31 9471   9.170  14.819  12.760
 1216PROX   H32 9472   9.166  14.934  12.883
 1216PROX   H33 9473   9.288  14.951  12.740
 1217PROX    O1 9474   9.432  14.749  12.815
 1217PROX    C1 9475   9.538  14.690  12.883
 1217PROX   H11 9476   9.497  14.639  12.973
 1217PROX   H13 9477   9.590  14.611  12.824
 1217PROX    C2 9478   9.651  14.786  12.936
 1217PROX   H21 9479   9.657  14.863  12.856
 1217PROX    C3 9480   9.791  14.722  12.926
 1217PROX   H31 9481   9.777  14.616  12.956
 1217PROX   H32 9482   9.840  14.734  12.827
 1217PROX   H33 9483   9.856  14.778  12.997
 1218PROX    O1 9484   9.623  14.844  13.064
 1218PROX    C1 9485   9.704  14.957  13.098
 1218PROX   H11 9486   9.808  14.930  13.127
 1218PROX   H13 9487   9.709  15.035  13.018
 1218PROX    C2 9488   9.643  15.011  13.227
 1218PROX   H21 9489   9.636  14.938  13.310
 1218PROX    C3 9490   9.506  15.071  13.204
 1218PROX   H31 9491   9.514  15.157  13.135
 1218PROX   H32 9492   9.426  15.006  13.161
 1218PROX   H33 9493   9.459  15.108  13.298
 1219PROX    O1 9494   9.732  15.115  13.264
 1219PROX    C1 9495   9.728  15.151  13.406
 1219PROX   H11 9496   9.620  15.173  13.419
 1219PROX   H13 9497   9.760  15.066  13.470
 1219PROX    C2 9498   9.826  15.270  13.440
 1219PROX   H21 9499   9.922  15.234  13.397
 1219PROX    C3 9500   9.840  15.295  13.592
 1219PROX   H31 9501   9.891  15.205  13.632
 1219PROX   H32 9502   9.891  15.385  13.632
 1219PROX   H33 9503   9.739  15.290  13.637
 1220PROX    O1 9504   9.783  15.388  13.377
 1220PROX    C1 9505   9.875  15.482  13.362
 1220PROX   H11 9506   9.905  15.522  13.461
 1220PROX   H13 9507   9.962  15.428  13.320
 1220PROX    C2 9508   9.848  15.591  13.260
 1220PROX   H21 9509   9.760  15.646  13.298
 1220PROX    C3 9510   9.802  15.530  13.123
 1220PROX   H31 9511   9.891  15.512  13.058
 1220PROX   H32 9512   9.754  15.432  13.145
 1220PROX   H33 9513   9.744  15.607  13.068
 1221PROX    O1 9514   9.951  15.691  13.262
 1221PROX    C1 9515  10.078  15.639  13.215
 1221PROX   H11 9516  10.116  15.549  13.268
 1221PROX   H13 9517  10.059  15.616  13.108
 1221PROX    C2 9518  10.197  15.745  13.211
 1221PROX   H21 9519  10.223  15.792  13.309
 1221PROX    C3 9520  10.161  15.871  13.132
 1221PROX   H31 9521  10.108  15.860  13.035
 1221PROX   H32 9522  10.097  15.933  13.198
 1221PROX   H33 9523  10.252  15.931  13.110
 1222PROX    O1 9524  10.319  15.688  13.161
 1222PROX    C1 9525  10.304  15.621  13.035
 1222PROX   H11 9526  10.242  15.529  13.042
 1222PROX   H13 9527  10.266  15.686  12.953
 1222PROX    C2 9528  10.441  15.569  12.982
 1222PROX   H21 9529  10.470  15.487  13.052
 1222PROX    C3 9530  10.553  15.671  12.982
 1222PROX   H31 9531  10.523  15.776  12.963
 1222PROX   H32 9532  10.592  15.684  13.086
 1222PROX   H33 9533  10.643  15.636  12.927
 1223PROX    O1 9534  10.424  15.526  12.851
 1223PROX    C1 9535  10.388  15.380  12.837
 1223PROX   H11 9536  10.482  15.322  12.838
 1223PROX   H13 9537  10.337  15.350  12.931
 1223PROX    C2 9538  10.302  15.342  12.713
 1223PROX   H21 9539  10.270  15.236  12.720
 1223PROX    C3 9540  10.375  15.378  12.586
 1223PROX   H31 9541  10.305  15.373  12.499
 1223PROX   H32 9542  10.409  15.484  12.588
 1223PROX   H33 9543  10.466  15.317  12.570
 1224PROX    O1 9544  10.185  15.427  12.716
 1224PROX    C1 9545  10.074  15.376  12.788
 1224PROX   H11 9546  10.067  15.268  12.764
 1224PROX   H13 9547  10.097  15.383  12.897
 1224PROX    C2 9548   9.935  15.428  12.750
 1224PROX   H21 9549   9.931  15.404  12.641
 1224PROX    C3 9550   9.932  15.578  12.769
 1224PROX   H31 9551   9.937  15.593  12.879
 1224PROX   H32 9552  10.023  15.623  12.723
 1224PROX   H33 9553   9.839  15.629  12.734
 1225PROX    O1 9554   9.834  15.344  12.802
 1225PROX    C1 9555   9.707  15.389  12.769
 1225PROX   H11 9556   9.680  15.478  12.830
 1225PROX   H13 9557   9.699  15.413  12.661
 1225PROX    C2 9558   9.593  15.289  12.800
 1225PROX   H21 9559   9.614  15.244  12.900
 1225PROX    C3 9560   9.582  15.167  12.709
 1225PROX   H31 9561   9.685  15.126  12.700
 1225PROX   H32 9562   9.508  15.094  12.749
 1225PROX   H33 9563   9.546  15.203  12.609
 1226ETHO    O1 9564   9.469  15.360  12.806
 1226ETHO    C1 9565   9.363  15.288  12.869
 1226ETHO   H11 9566   9.394  15.241  12.965
 1226ETHO   H13 9567   9.329  15.213  12.794
 1226ETHO    C2 9568   9.250  15.381  12.905
 1226ETHO   H21 9569   9.153  15.331  12.923
 1226ETHO   H23 9570   9.223  15.449  12.821
 1227ETHO    O1 9571   9.275  15.448  13.027
 1227ETHO    C1 9572   9.396  15.528  13.033
 1227ETHO   H11 9573   9.494  15.476  13.034
 1227ETHO   H13 9574   9.387  15.599  12.948
 1227ETHO    C2 9575   9.403  15.604  13.164
 1227ETHO   H21 9576   9.494  15.666  13.153
 1227ETHO   H23 9577   9.424  15.536  13.249
 1228ETHO    O1 9578   9.296  15.702  13.178
 1228ETHO    C1 9579   9.323  15.784  13.285
 1228ETHO   H11 9580   9.420  15.838  13.279
 1228ETHO   H13 9581   9.330  15.709  13.367
 1228ETHO    C2 9582   9.212  15.881  13.311
 1228ETHO   H21 9583   9.218  15.927  13.412
 1228ETHO   H23 9584   9.115  15.827  13.309
 1229ETHO    O1 9585   9.213  15.985  13.209
 1229ETHO    C1 9586   9.093  16.062  13.225
 1229ETHO   H11 9587   9.049  16.096  13.129
 1229ETHO   H13 9588   9.015  16.001  13.275
 1229ETHO    C2 9589   9.123  16.185  13.304
 1229ETHO   H21 9590   9.175  16.164  13.400
 1229ETHO   H23 9591   9.028  16.237  13.330
 1230ETHO    O1 9592   9.206  16.261  13.219
 1230ETHO    C1 9593   9.276  16.381  13.270
 1230ETHO   H11 9594   9.343  16.350  13.353
 1230ETHO   H13 9595   9.195  16.449  13.304
 1230ETHO    C2 9596   9.362  16.440  13.154
 1230ETHO   H21 9597   9.412  16.363  13.091
 1230ETHO   H23 9598   9.434  16.509  13.201
 1231ETHO    O1 9599   9.279  16.508  13.067
 1231ETHO    C1 9600   9.318  16.648  13.060
 1231ETHO   H11 9601   9.324  16.682  13.166
 1231ETHO   H13 9602   9.416  16.658  13.009
 1231ETHO    C2 9603   9.209  16.734  12.996
 1231ETHO   H21 9604   9.219  16.841  13.023
 1231ETHO   H23 9605   9.106  16.713  13.031
 1232ETHO    O1 9606   9.200  16.709  12.858
 1232ETHO    C1 9607   9.096  16.794  12.802
 1232ETHO   H11 9608   9.141  16.874  12.740
 1232ETHO   H13 9609   9.026  16.838  12.876
 1232ETHO    C2 9610   9.003  16.729  12.700
 1232ETHO   H21 9611   9.048  16.652  12.635
 1232ETHO   H23 9612   8.969  16.813  12.635
 1233ETHO    O1 9613   8.888  16.665  12.764
 1233ETHO    C1 9614   8.781  16.641  12.675
 1233ETHO   H11 9615   8.832  16.636  12.577
 1233ETHO   H13 9616   8.751  16.537  12.698
 1233ETHO    C2 9617   8.657  16.725  12.693
 1233ETHO   H21 9618   8.580  16.691  12.621
 1233ETHO   H23 9619   8.604  16.716  12.790
 1234ETHO    O1 9620   8.688  16.863  12.670
 1234ETHO    C1 9621   8.680  16.908  12.538
 1234ETHO   H11 9622   8.780  16.901  12.490
 1234ETHO   H13 9623   8.608  16.849  12.479
 1234ETHO    C2 9624   8.632  17.052  12.528
 1234ETHO   H21 9625   8.628  17.081  12.421
 1234ETHO   H23 9626   8.691  17.115  12.597
 1235ETHO    O1 9627   8.498  17.060  12.578
 1235ETHO    C1 9628   8.464  17.190  12.628
 1235ETHO   H11 9629   8.529  17.214  12.715
 1235ETHO   H13 9630   8.485  17.260  12.544
 1235ETHO    C2 9631   8.310  17.194  12.651
 1235ETHO   H21 9632   8.288  17.286  12.709
 1235ETHO   H23 9633   8.271  17.112  12.714
 1236ETHO    O1 9634   8.235  17.203  12.531
 1236ETHO    C1 9635   8.096  17.220  12.549
 1236ETHO   H11 9636   8.078  17.309  12.613
 1236ETHO   H13 9637   8.055  17.235  12.447
 1236ETHO    C2 9638   8.015  17.111  12.624
 1236ETHO   H21 9639   8.044  17.005  12.611
 1236ETHO   H23 9640   7.906  17.101  12.608
 1237ETHO    O1 9641   8.034  17.130  12.768
 1237ETHO    C1 9642   8.022  17.009  12.842
 1237ETHO   H11 9643   7.939  16.948  12.801
 1237ETHO   H13 9644   8.007  17.035  12.949
 1237ETHO    C2 9645   8.143  16.913  12.847
 1237ETHO   H21 9646   8.188  16.912  12.745
 1237ETHO   H23 9647   8.111  16.810  12.873
 1238ETHO    O1 9648   8.247  16.961  12.928
 1238ETHO    C1 9649   8.374  16.890  12.912
 1238ETHO   H11 9650   8.352  16.781  12.919
 1238ETHO   H13 9651   8.422  16.909  12.814
 1238ETHO    C2 9652   8.457  16.939  13.030
 1238ETHO   H21 9653   8.513  16.851  13.068
 1238ETHO   H23 9654   8.391  16.967  13.115
 1239ETHO    O1 9655   8.542  17.050  12.999
 1239ETHO    C1 9656   8.471  17.175  13.015
 1239ETHO   H11 9657   8.416  17.187  13.110
 1239ETHO   H13 9658   8.403  17.175  12.928
 1239ETHO    C2 9659   8.566  17.296  13.002
 1239ETHO   H21 9660   8.505  17.389  12.998
 1239ETHO   H23 9661   8.620  17.285  12.905
 1240ETHO    O1 9662   8.657  17.319  13.114
 1240ETHO    C1 9663   8.716  17.448  13.129
 1240ETHO   H11 9664   8.791  17.456  13.047
 1240ETHO   H13 9665   8.634  17.523  13.130
 1240ETHO    C2 9666   8.795  17.455  13.257
 1240ETHO   H21 9667   8.865  17.541  13.248
 1240ETHO   H23 9668   8.844  17.357  13.274
 1241ETHO    O1 9669   8.711  17.489  13.365
 1241ETHO    C1 9670   8.769  17.518  13.488
 1241ETHO   H11 9671   8.856  17.588  13.482
 1241ETHO   H13 9672   8.806  17.416  13.511
 1241ETHO    C2 9673   8.664  17.566  13.583
 1241ETHO   H21 9674   8.572  17.505  13.569
 1241ETHO   H23 9675   8.639  17.673  13.563
 1242ETHO    O1 9676   8.704  17.565  13.718
 1242ETHO    C1 9677   8.645  17.449  13.779
 1242ETHO   H11 9678   8.661  17.457  13.889
 1242ETHO   H13 9679   8.535  17.441  13.767
 1242ETHO    C2 9680   8.693  17.303  13.718
 1242ETHO   H21 9681   8.801  17.301  13.742
 1242ETHO   H23 9682   8.679  17.313  13.608
 1243ETHO    O1 9683   8.605  17.205  13.771
 1243ETHO    C1 9684   8.676  17.078  13.769
 1243ETHO   H11 9685   8.775  17.096  13.818
 1243ETHO   H13 9686   8.706  17.036  13.671
 1243ETHO    C2 9687   8.595  16.968  13.836
 1243ETHO   H21 9688   8.522  16.918  13.768
 1243ETHO   H23 9689   8.539  17.019  13.917
 1244ETHO    O1 9690   8.674  16.853  13.895
 1244ETHO    C1 9691   8.576  16.752  13.935
 1244ETHO   H11 9692   8.515  16.789  14.020
 1244ETHO   H13 9693   8.501  16.733  13.856
 1244ETHO    C2 9694   8.656  16.640  13.990
 1244ETHO   H21 9695   8.709  16.595  13.903
 1244ETHO   H23 9696   8.573  16.576  14.028
 1245ETHO    O1 9697   8.744  16.667  14.101
 1245ETHO    C1 9698   8.788  16.547  14.161
 1245ETHO   H11 9699   8.708  16.480  14.197
 1245ETHO   H13 9700   8.848  16.489  14.088
 1245ETHO    C2 9701   8.881  16.592  14.275
 1245ETHO   H21 9702   8.961  16.658  14.237
 1245ETHO   H23 9703   8.932  16.503  14.318
 1246ETHO    O1 9704   8.810  16.652  14.387
 1246ETHO    C1 9705   8.901  16.727  14.477
 1246ETHO   H11 9706   8.983  16.771  14.417
 1246ETHO   H13 9707   8.850  16.814  14.524
 1246ETHO    C2 9708   8.941  16.630  14.588
 1246ETHO   H21 9709   9.040  16.671  14.618
 1246ETHO   H23 9710   8.940  16.527  14.548
 1247ETHO    O1 9711   8.843  16.645  14.693
 1247ETHO    C1 9712   8.726  16.563  14.675
 1247ETHO   H11 9713   8.669  16.595  14.585
 1247ETHO   H13 9714   8.740  16.453  14.672
 1247ETHO    C2 9715   8.634  16.588  14.793
 1247ETHO   H21 9716   8.527  16.587  14.763
 1247ETHO   H23 9717   8.660  16.686  14.838
 1248ETHO    O1 9718   8.652  16.492  14.893
 1248ETHO    C1 9719   8.559  16.522  15.002
 1248ETHO   H11 9720   8.543  16.422  15.046
 1248ETHO   H13 9721   8.465  16.555  14.951
 1248ETHO    C2 9722   8.592  16.624  15.107
 1248ETHO   H21 9723   8.498  16.672  15.141
 1248ETHO   H23 9724   8.661  16.697  15.060
 1249ETHO    O1 9725   8.661  16.564  15.218
 1249ETHO    C1 9726   8.707  16.660  15.315
 1249ETHO   H11 9727   8.764  16.743  15.268
 1249ETHO   H13 9728   8.617  16.696  15.368
 1249ETHO    C2 9729   8.797  16.604  15.427
 1249ETHO   H21 9730   8.819  16.691  15.493
 1249ETHO   H23 9731   8.886  16.554  15.382
 1250ETHO    O1 9732   8.719  16.510  15.496
 1250ETHO    C1 9733   8.784  16.441  15.608
 1250ETHO   H11 9734   8.882  16.414  15.564
 1250ETHO   H13 9735   8.740  16.343  15.638
 1250ETHO    C2 9736   8.783  16.526  15.739
 1250ETHO   H21 9737   8.674  16.540  15.753
 1250ETHO   H23 9738   8.824  16.625  15.713
 1251ETHO    O1 9739   8.849  16.455  15.843
 1251ETHO    C1 9740   8.755  16.405  15.943
 1251ETHO   H11 9741   8.802  16.400  16.044
 1251ETHO   H13 9742   8.666  16.470  15.950
 1251ETHO    C2 9743   8.703  16.261  15.920
 1251ETHO   H21 9744   8.676  16.249  15.812
 1251ETHO   H23 9745   8.609  16.243  15.976
 1252ETHO    O1 9746   8.803  16.159  15.953
 1252ETHO    C1 9747   8.772  16.034  15.890
 1252ETHO   H11 9748   8.768  16.037  15.779
 1252ETHO   H13 9749   8.675  15.988  15.920
 1252ETHO    C2 9750   8.878  15.937  15.930
 1252ETHO   H21 9751   8.842  15.833  15.912
 1252ETHO   H23 9752   8.907  15.950  16.036
 1253ETHO    O1 9753   8.997  15.960  15.850
 1253ETHO    C1 9754   9.091  15.854  15.845
 1253ETHO   H11 9755   9.118  15.821  15.948
 1253ETHO   H13 9756   9.044  15.763  15.804
 1253ETHO    C2 9757   9.206  15.884  15.747
 1253ETHO   H21 9758   9.170  15.946  15.662
 1253ETHO   H23 9759   9.250  15.794  15.699
 1254ETHO    O1 9760   9.305  15.967  15.802
 1254ETHO    C1 9761   9.425  15.955  15.733
 1254ETHO   H11 9762   9.399  15.973  15.627
 1254ETHO   H13 9763   9.458  15.849  15.745
 1254ETHO    C2 9764   9.531  16.057  15.779
 1254ETHO   H21 9765   9.618  16.036  15.714
 1254ETHO   H23 9766   9.554  16.051  15.887
 1255ETHO    O1 9767   9.493  16.189  15.746
 1255ETHO    C1 9768   9.602  16.278  15.771
 1255ETHO   H11 9769   9.567  16.375  15.813
 1255ETHO   H13 9770   9.677  16.235  15.840
 1255ETHO    C2 9771   9.659  16.327  15.635
 1255ETHO   H21 9772   9.711  16.244  15.583
 1255ETHO   H23 9773   9.739  16.403  15.650
 1256ETHO    O1 9774   9.564  16.393  15.547
 1256ETHO    C1 9775   9.622  16.405  15.413
 1256ETHO   H11 9776   9.733  16.407  15.417
 1256ETHO   H13 9777   9.583  16.315  15.360
 1256ETHO    C2 9778   9.579  16.528  15.331
 1256ETHO   H21 9779   9.468  16.537  15.334
 1256ETHO   H23 9780   9.607  16.533  15.224
 1257ETHO    O1 9781   9.627  16.646  15.402
 1257ETHO    C1 9782   9.570  16.756  15.339
 1257ETHO   H11 9783   9.553  16.739  15.231
 1257ETHO   H13 9784   9.475  16.789  15.387
 1257ETHO    C2 9785   9.664  16.885  15.331
 1257ETHO   H21 9786   9.715  16.896  15.429
 1257ETHO   H23 9787   9.598  16.974  15.330
 1258ETHO    O1 9788   9.753  16.869  15.222
 1258ETHO    C1 9789   9.856  16.968  15.234
 1258ETHO   H11 9790   9.813  17.069  15.250
 1258ETHO   H13 9791   9.937  16.933  15.301
 1258ETHO    C2 9792   9.932  16.973  15.099
 1258ETHO   H21 9793   9.991  16.879  15.089
 1258ETHO   H23 9794  10.012  17.046  15.123
 1259ETHO    O1 9795   9.853  16.995  14.980
 1259ETHO    C1 9796   9.941  16.996  14.863
 1259ETHO   H11 9797  10.004  16.905  14.866
 1259ETHO   H13 9798  10.006  17.085  14.878
 1259ETHO    C2 9799   9.876  17.006  14.731
 1259ETHO   H21 9800   9.951  17.045  14.658
 1259ETHO   H23 9801   9.789  17.075  14.736
 1260ETHO    O1 9802   9.825  16.878  14.697
 1260ETHO    C1 9803   9.737  16.878  14.590
 1260ETHO   H11 9804   9.642  16.920  14.630
 1260ETHO   H13 9805   9.776  16.937  14.505
 1260ETHO    C2 9806   9.709  16.735  14.539
 1260ETHO   H21 9807   9.632  16.748  14.460
 1260ETHO   H23 9808   9.673  16.668  14.620
 1261ETHO    O1 9809   9.832  16.704  14.474
 1261ETHO    C1 9810   9.834  16.565  14.434
 1261ETHO   H11 9811   9.766  16.551  14.347
 1261ETHO   H13 9812   9.795  16.502  14.518
 1261ETHO    C2 9813   9.972  16.501  14.404
 1261ETHO   H21 9814   9.976  16.397  14.442
 1261ETHO   H23 9815  10.040  16.570  14.458
 1262ETHO    O1 9816  10.003  16.505  14.261
 1262ETHO    C1 9817  10.032  16.641  14.209
 1262ETHO   H11 9818   9.977  16.722  14.262
 1262ETHO   H13 9819  10.139  16.661  14.232
 1262ETHO    C2 9820   9.985  16.651  14.066
 1262ETHO   H21 9821  10.023  16.746  14.021
 1262ETHO   H23 9822   9.875  16.661  14.053
 1263ETHO    O1 9823  10.037  16.544  13.986
 1263ETHO    C1 9824   9.965  16.536  13.860
 1263ETHO   H11 9825   9.993  16.630  13.809
 1263ETHO   H13 9826   9.856  16.516  13.864
 1263ETHO    C2 9827  10.008  16.425  13.759
 1263ETHO   H21 9828   9.951  16.443  13.665
 1263ETHO   H23 9829   9.981  16.327  13.804
 1264ETHO    O1 9830  10.154  16.444  13.740
 1264ETHO    C1 9831  10.208  16.347  13.650
 1264ETHO   H11 9832  10.190  16.243  13.683
 1264ETHO   H13 9833  10.137  16.353  13.565
 1264ETHO    C2 9834  10.352  16.405  13.619
 1264ETHO   H21 9835  10.434  16.333  13.600
 1264ETHO   H23 9836  10.383  16.462  13.709
 1265ETHO    O1 9837  10.340  16.503  13.521
 1265ETHO    C1 9838  10.446  16.484  13.422
 1265ETHO   H11 9839  10.457  16.376  13.400
 1265ETHO   H13 9840  10.542  16.509  13.472
 1265ETHO    C2 9841  10.421  16.571  13.298
 1265ETHO   H21 9842  10.506  16.544  13.231
 1265ETHO   H23 9843  10.425  16.681  13.312
 1266ETHO    O1 9844  10.290  16.535  13.240
 1266ETHO    C1 9845  10.282  16.588  13.106
 1266ETHO   H11 9846  10.322  16.691  13.097
 1266ETHO   H13 9847  10.342  16.518  13.044
 1266ETHO    C2 9848  10.132  16.579  13.066
 1266ETHO   H21 9849  10.130  16.594  12.956
 1266ETHO   H23 9850  10.088  16.477  13.078
 1267ETHO    O1 9851  10.061  16.680  13.132
 1267ETHO    C1 9852   9.921  16.658  13.104
 1267ETHO   H11 9853   9.878  16.666  13.207
 1267ETHO   H13 9854   9.889  16.556  13.074
 1267ETHO    C2 9855   9.844  16.767  13.025
 1267ETHO   H21 9856   9.895  16.865  13.038
 1267ETHO   H23 9857   9.736  16.780  13.047
 1268ETHO    O1 9858   9.852  16.748  12.883
 1268ETHO    C1 9859   9.749  16.669  12.817
 1268ETHO   H11 9860   9.700  16.593  12.881
 1268ETHO   H13 9861   9.669  16.739  12.784
 1268ETHO    C2 9862   9.810  16.592  12.702
 1268ETHO   H21 9863   9.738  16.509  12.683
 1268ETHO   H23 9864   9.906  16.545  12.734
 1269ETHO    O1 9865   9.835  16.675  12.590
 1269ETHO    C1 9866   9.859  16.614  12.462
 1269ETHO   H11 9867   9.944  16.543  12.470
 1269ETHO   H13 9868   9.887  16.697  12.393
 1269ETHO    C2 9869   9.733  16.543  12.404
 1269ETHO   H21 9870   9.692  16.480  12.486
 1269ETHO   H23 9871   9.768  16.462  12.337
 1270ETHO    O1 9872   9.639  16.625  12.337
 1270ETHO    C1 9873   9.528  16.555  12.289
 1270ETHO   H11 9874   9.561  16.463  12.237
 1270ETHO   H13 9875   9.478  16.517  12.380
 1270ETHO    C2 9876   9.439  16.627  12.187
 1270ETHO   H21 9877   9.446  16.738  12.188
 1270ETHO   H23 9878   9.337  16.593  12.215
 1271ETHO    O1 9879   9.468  16.591  12.050
 1271ETHO    C1 9880   9.411  16.672  11.955
 1271ETHO   H11 9881   9.302  16.679  11.973
 1271ETHO   H13 9882   9.454  16.775  11.947
 1271ETHO    C2 9883   9.436  16.615  11.806
 1271ETHO   H21 9884   9.384  16.694  11.748
 1271ETHO   H23 9885   9.409  16.509  11.790
 1272ETHO    O1 9886   9.578  16.614  11.791
 1272ETHO    C1 9887   9.617  16.567  11.666
 1272ETHO   H11 9888   9.588  16.461  11.649
 1272ETHO   H13 9889   9.577  16.633  11.586
 1272ETHO    C2 9890   9.769  16.569  11.649
 1272ETHO   H21 9891   9.812  16.522  11.740
 1272ETHO   H23 9892   9.802  16.675  11.644
 1273ETHO    O1 9893   9.829  16.508  11.531
 1273ETHO    C1 9894   9.948  16.568  11.483
 1273ETHO   H11 9895   9.923  16.635  11.398
 1273ETHO   H13 9896  10.007  16.614  11.565
 1273ETHO    C2 9897  10.024  16.452  11.416
 1273ETHO   H21 9898  10.116  16.502  11.379
 1273ETHO   H23 9899   9.968  16.413  11.328
 1274ETHO    O1 9900  10.065  16.339  11.490
 1274ETHO    C1 9901  10.123  16.241  11.413
 1274ETHO   H11 9902  10.164  16.162  11.480
 1274ETHO   H13 9903  10.207  16.284  11.354
 1274ETHO    C2 9904  10.033  16.171  11.303
 1274ETHO   H21 9905  10.007  16.243  11.223
 1274ETHO   H23 9906   9.941  16.123  11.343
 1275ETHO    O1 9907  10.115  16.080  11.234
 1275ETHO    C1 9908  10.036  16.013  11.135
 1275ETHO   H11 9909   9.952  15.955  11.181
 1275ETHO   H13 9910   9.997  16.094  11.071
 1275ETHO    C2 9911  10.105  15.909  11.050
 1275ETHO   H21 9912  10.202  15.960  11.028
 1275ETHO   H23 9913  10.045  15.880  10.962
 1276ETHO    O1 9914  10.134  15.786  11.116
 1276ETHO    C1 9915  10.239  15.791  11.218
 1276ETHO   H11 9916  10.196  15.831  11.312
 1276ETHO   H13 9917  10.317  15.860  11.180
 1276ETHO    C2 9918  10.304  15.650  11.242
 1276ETHO   H21 9919  10.213  15.593  11.268
 1276ETHO   H23 9920  10.364  15.657  11.336
 1277ETHO    O1 9921  10.358  15.588  11.125
 1277ETHO    C1 9922  10.486  15.547  11.142
 1277ETHO   H11 9923  10.553  15.635  11.136
 1277ETHO   H13 9924  10.491  15.492  11.238
 1277ETHO    C2 9925  10.544  15.470  11.022
 1277ETHO   H21 9926  10.647  15.450  11.060
 1277ETHO   H23 9927  10.534  15.520  10.923
 1278ETHO    O1 9928  10.484  15.339  11.012
 1278ETHO    C1 9929  10.580  15.252  10.950
 1278ETHO   H11 9930  10.680  15.259  10.997
 1278ETHO   H13 9931  10.592  15.287  10.845
 1278ETHO    C2 9932  10.538  15.104  10.941
 1278ETHO   H21 9933  10.553  15.068  11.046
 1278ETHO   H23 9934  10.607  15.044  10.878
 1279ETHO    O1 9935  10.416  15.078  10.878
 1279ETHO    C1 9936  10.316  15.040  10.972
 1279ETHO   H11 9937  10.303  15.128  11.040
 1279ETHO   H13 9938  10.223  15.028  10.912
 1279ETHO    C2 9939  10.339  14.918  11.064
 1279ETHO   H21 9940  10.387  14.843  10.998
 1279ETHO   H23 9941  10.239  14.874  11.086
 1280ETHO    O1 9942  10.405  14.945  11.185
 1280ETHO    C1 9943  10.428  14.822  11.246
 1280ETHO   H11 9944  10.480  14.747  11.182
 1280ETHO   H13 9945  10.330  14.789  11.286
 1280ETHO    C2 9946  10.524  14.850  11.365
 1280ETHO   H21 9947  10.477  14.912  11.444
 1280ETHO   H23 9948  10.615  14.909  11.341
 1281ETHO    O1 9949  10.568  14.725  11.424
 1281ETHO    C1 9950  10.680  14.744  11.516
 1281ETHO   H11 9951  10.774  14.774  11.465
 1281ETHO   H13 9952  10.666  14.818  11.598
 1281ETHO    C2 9953  10.726  14.618  11.586
 1281ETHO   H21 9954  10.827  14.632  11.630
 1281ETHO   H23 9955  10.715  14.526  11.526
 1282ETHO    O1 9956  10.656  14.587  11.704
 1282ETHO    C1 9957  10.717  14.495  11.796
 1282ETHO   H11 9958  10.735  14.398  11.744
 1282ETHO   H13 9959  10.820  14.525  11.826
 1282ETHO    C2 9960  10.633  14.471  11.928
 1282ETHO   H21 9961  10.611  14.569  11.976
 1282ETHO   H23 9962  10.696  14.407  11.994
 1283ETHO    O1 9963  10.508  14.404  11.898
 1283ETHO    C1 9964  10.424  14.422  12.002
 1283ETHO   H11 9965  10.476  14.408  12.099
 1283ETHO   H13 9966  10.378  14.523  12.009
 1283ETHO    C2 9967  10.300  14.335  11.982
 1283ETHO   H21 9968  10.341  14.233  11.996
 1283ETHO   H23 9969  10.244  14.363  11.891
 1284ETHO    O1 9970  10.211  14.348  12.092
 1284ETHO    C1 9971  10.091  14.280  12.070
 1284ETHO   H11 9972  10.074  14.256  11.962
 1284ETHO   H13 9973  10.102  14.181  12.119
 1284ETHO    C2 9974   9.968  14.355  12.124
 1284ETHO   H21 9975   9.888  14.279  12.112
 1284ETHO   H23 9976   9.940  14.440  12.058
 1285ETHO    O1 9977   9.977  14.387  12.263
 1285ETHO    C1 9978   9.871  14.468  12.298
 1285ETHO   H11 9979   9.774  14.414  12.287
 1285ETHO   H13 9980   9.868  14.565  12.245
 1285ETHO    C2 9981   9.865  14.507  12.448
 1285ETHO   H21 9982   9.963  14.547  12.484
 1285ETHO   H23 9983   9.851  14.407  12.494
 1286ETHO    O1 9984   9.758  14.590  12.494
 1286ETHO    C1 9985   9.799  14.726  12.495
 1286ETHO   H11 9986   9.877  14.742  12.572
 1286ETHO   H13 9987   9.838  14.754  12.395
 1286ETHO    C2 9988   9.689  14.826  12.531
 1286ETHO   H21 9989   9.726  14.931  12.537
 1286ETHO   H23 9990   9.655  14.805  12.635
 1287ETHO    O1 9991   9.583  14.823  12.440
 1287ETHO    C1 9992   9.478  14.912  12.489
 1287ETHO   H11 9993   9.510  15.017  12.472
 1287ETHO   H13 9994   9.463  14.895  12.598
 1287ETHO    C2 9995   9.350  14.887  12.418
 1287ETHO   H21 9996   9.317  14.782  12.434
 1287ETHO   H23 9997   9.366  14.900  12.309
 1288ETHO    O1 9998   9.249  14.978  12.458
 1288ETHO    C1 9999   9.125  14.946  12.389
 1288ETHO   H1110000   9.137  14.992  12.289
 1288ETHO   H1310001   9.103  14.837  12.393
 1288ETHO    C210002   9.011  15.018  12.465
 1288ETHO   H2110003   9.021  14.982  12.570
 1288ETHO   H2310004   8.916  14.972  12.432
 1289ETHO    O110005   9.002  15.155  12.467
 1289ETHO    C110006   9.084  15.222  12.568
 1289ETHO   H1110007   9.189  15.188  12.568
 1289ETHO   H1310008   9.052  15.193  12.671
 1289ETHO    C210009   9.085  15.367  12.555
 1289ETHO   H2110010   9.125  15.400  12.457
 1289ETHO   H2310011   9.159  15.401  12.630
 1290ETHO    O110012   8.954  15.426  12.572
 1290ETHO    C110013   8.953  15.565  12.541
 1290ETHO   H1110014   8.996  15.619  12.627
 1290ETHO   H1310015   9.015  15.579  12.450
 1290ETHO    C210016   8.811  15.615  12.506
 1290ETHO   H2110017   8.767  15.559  12.421
 1290ETHO   H2310018   8.822  15.720  12.472
 1291ETHO    O110019   8.727  15.612  12.618
 1291ETHO    C110020   8.581  15.629  12.593
 1291ETHO   H1110021   8.524  15.544  12.637
 1291ETHO   H1310022   8.571  15.647  12.484
 1291ETHO    C210023   8.547  15.758  12.669
 1291ETHO   H2110024   8.584  15.757  12.774
 1291ETHO   H2310025   8.436  15.759  12.659
 1292ETHO    O110026   8.608  15.871  12.614
 1292ETHO    C110027   8.581  15.999  12.681
 1292ETHO   H1110028   8.475  16.020  12.653
 1292ETHO   H1310029   8.589  15.978  12.790
 1292ETHO    C210030   8.673  16.115  12.637
 1292ETHO   H2110031   8.782  16.095  12.638
 1292ETHO   H2310032   8.661  16.192  12.716
 1293ETHO    O110033   8.640  16.184  12.517
 1293ETHO    C110034   8.717  16.302  12.499
 1293ETHO   H1110035   8.707  16.380  12.578
 1293ETHO   H1310036   8.825  16.277  12.489
 1293ETHO    C210037   8.671  16.372  12.377
 1293ETHO   H2110038   8.624  16.300  12.307
 1293ETHO   H2310039   8.758  16.417  12.323
 1294ETHO    O110040   8.588  16.482  12.406
 1294ETHO    C110041   8.477  16.495  12.314
 1294ETHO   H1110042   8.523  16.519  12.216
 1294ETHO   H1310043   8.425  16.397  12.303
 1294ETHO    C210044   8.387  16.609  12.356
 1294ETHO   H2110045   8.353  16.587  12.459
 1294ETHO   H2310046   8.299  16.607  12.288
 1295ETHO    O110047   8.453  16.737  12.333
 1295ETHO    C110048   8.380  16.852  12.389
 1295ETHO   H1110049   8.375  16.847  12.500
 1295ETHO   H1310050   8.443  16.940  12.367
 1295ETHO    C210051   8.244  16.873  12.323
 1295ETHO   H2110052   8.247  16.870  12.212
 1295ETHO   H2310053   8.216  16.976  12.355
 1296ETHO    O110054   8.132  16.790  12.370
 1296ETHO    C110055   8.011  16.802  12.287
 1296ETHO   H1110056   7.964  16.701  12.288
 1296ETHO   H1310057   8.020  16.837  12.182
 1296ETHO    C210058   7.903  16.887  12.359
 1296ETHO   H2110059   7.813  16.895  12.294
 1296ETHO   H2310060   7.941  16.991  12.365
 1297ETHO    O110061   7.868  16.840  12.487
 1297ETHO    C110062   7.730  16.838  12.523
 1297ETHO   H1110063   7.728  16.799  12.627
 1297ETHO   H1310064   7.694  16.943  12.535
 1297ETHO    C210065   7.628  16.768  12.437
 1297ETHO   H2110066   7.628  16.804  12.332
 1297ETHO   H2310067   7.526  16.790  12.474
 1298ETHO    O110068   7.648  16.625  12.453
 1298ETHO    C110069   7.606  16.554  12.336
 1298ETHO   H1110070   7.634  16.448  12.350
 1298ETHO   H1310071   7.663  16.603  12.253
 1298ETHO    C210072   7.452  16.569  12.315
 1298ETHO   H2110073   7.428  16.540  12.210
 1298ETHO   H2310074   7.416  16.674  12.322
 1299ETHO    O110075   7.374  16.495  12.406
 1299ETHO    C110076   7.240  16.507  12.380
 1299ETHO   H1110077   7.203  16.609  12.407
 1299ETHO   H1310078   7.226  16.500  12.270
 1299ETHO    C210079   7.144  16.412  12.457
 1299ETHO   H2110080   7.045  16.397  12.410
 1299ETHO   H2310081   7.195  16.315  12.476
 1300ETHO    O110082   7.111  16.464  12.587
 1300ETHO    C110083   6.977  16.488  12.600
 1300ETHO   H1110084   6.934  16.390  12.573
 1300ETHO   H1310085   6.949  16.560  12.520
 1300ETHO    C210086   6.936  16.556  12.731
 1300ETHO   H2110087   6.983  16.503  12.817
 1300ETHO   H2310088   6.828  16.530  12.741
 1301ETHO    O110089   6.951  16.696  12.742
 1301ETHO    C110090   6.929  16.725  12.874
 1301ETHO   H1110091   6.835  16.673  12.902
 1301ETHO   H1310092   7.009  16.676  12.934
 1301ETHO    C210093   6.903  16.877  12.895
 1301ETHO   H2110094   6.985  16.947  12.868
 1301ETHO   H2310095   6.884  16.895  13.003
 1302ETHO    O110096   6.783  16.922  12.822
 1302ETHO    C110097   6.766  17.059  12.833
 1302ETHO   H1110098   6.860  17.097  12.786
 1302ETHO   H1310099   6.771  17.089  12.939
 1302ETHO    C210100   6.651  17.108  12.748
 1302ETHO   H2110101   6.647  17.040  12.660
 1302ETHO   H2310102   6.658  17.216  12.719
 1303ETHO    O110103   6.528  17.081  12.808
 1303ETHO    C110104   6.424  17.124  12.726
 1303ETHO   H1110105   6.451  17.098  12.621
 1303ETHO   H1310106   6.347  17.050  12.758
 1303ETHO    C210107   6.378  17.268  12.747
 1303ETHO   H2110108   6.381  17.275  12.858
 1303ETHO   H2310109   6.272  17.269  12.713
 1304ETHO    O110110   6.459  17.361  12.677
 1304ETHO    C110111   6.428  17.493  12.714
 1304ETHO   H1110112   6.445  17.501  12.823
 1304ETHO   H1310113   6.327  17.534  12.693
 1304ETHO    C210114   6.533  17.594  12.664
 1304ETHO   H2110115   6.507  17.687  12.718
 1304ETHO   H2310116   6.549  17.614  12.556
 1305ETHO    O110117   6.661  17.560  12.706
 1305ETHO    C110118   6.751  17.668  12.693
 1305ETHO   H1110119   6.755  17.719  12.594
 1305ETHO   H1310120   6.719  17.743  12.768
 1305ETHO    C210121   6.897  17.620  12.715
 1305ETHO   H2110122   6.889  17.543  12.795
 1305ETHO   H2310123   6.950  17.704  12.764
 1306ETHO    O110124   6.969  17.580  12.601
 1306ETHO    C110125   7.099  17.534  12.631
 1306ETHO   H1110126   7.094  17.472  12.723
 1306ETHO   H1310127   7.153  17.626  12.662
 1306ETHO    C210128   7.166  17.468  12.514
 1306ETHO   H2110129   7.099  17.416  12.443
 1306ETHO   H2310130   7.250  17.413  12.560
 1307ETHO    O110131   7.221  17.577  12.441
 1307ETHO    C110132   7.288  17.539  12.326
 1307ETHO   H1110133   7.380  17.488  12.363
 1307ETHO   H1310134   7.228  17.466  12.269
 1307ETHO    C210135   7.335  17.664  12.252
 1307ETHO   H2110136   7.359  17.748  12.321
 1307ETHO   H2310137   7.414  17.640  12.178
 1308ETHO    O110138   7.225  17.713  12.179
 1308ETHO    C110139   7.233  17.853  12.157
 1308ETHO   H1110140   7.229  17.908  12.253
 1308ETHO   H1310141   7.337  17.863  12.119
 1308ETHO    C210142   7.133  17.915  12.055
 1308ETHO   H2110143   7.137  17.867  11.955
 1308ETHO   H2310144   7.170  18.015  12.028
 1309ETHO    O110145   7.001  17.926  12.120
 1309ETHO    C110146   6.896  17.943  12.029
 1309ETHO   H1110147   6.900  18.048  11.994
 1309ETHO   H1310148   6.907  17.879  11.938
 1309ETHO    C210149   6.763  17.904  12.089
 1309ETHO   H2110150   6.786  17.801  12.122
 1309ETHO   H2310151   6.678  17.914  12.018
 1310ETHO    O110152   6.725  17.988  12.195
 1310ETHO    C110153   6.618  17.935  12.273
 1310ETHO   H1110154   6.533  17.920  12.204
 1310ETHO   H1310155   6.650  17.838  12.316
 1310ETHO    C210156   6.577  18.018  12.392
 1310ETHO   H2110157   6.491  17.972  12.446
 1310ETHO   H2310158   6.558  18.116  12.344
 1311ETHO    O110159   6.687  18.038  12.481
 1311ETHO    C110160   6.651  18.105  12.599
 1311ETHO   H1110161   6.570  18.041  12.641
 1311ETHO   H1310162   6.633  18.214  12.585
 1311ETHO    C210163   6.767  18.109  12.693
 1311ETHO   H2110164   6.855  18.136  12.631
 1311ETHO   H2310165   6.784  18.011  12.742
 1312ETHO    O110166   6.731  18.196  12.800
 1312ETHO    C110167   6.841  18.208  12.890
 1312ETHO   H1110168   6.939  18.182  12.844
 1312ETHO   H1310169   6.838  18.316  12.915
 1312ETHO    C210170   6.826  18.136  13.025
 1312ETHO   H2110171   6.819  18.027  13.005
 1312ETHO   H2310172   6.733  18.165  13.078
 1313ETHO    O110173   6.947  18.158  13.091
 1313ETHO    C110174   6.952  18.073  13.204
 1313ETHO   H1110175   6.929  17.970  13.170
 1313ETHO   H1310176   6.874  18.100  13.278
 1313ETHO    C210177   7.089  18.080  13.282
 1313ETHO   H2110178   7.088  18.020  13.376
 1313ETHO   H2310179   7.132  18.183  13.283
 1314ETHO    O110180   7.171  17.991  13.199
 1314ETHO    C110181   7.252  18.057  13.107
 1314ETHO   H1110182   7.212  18.056  13.003
 1314ETHO   H1310183   7.273  18.161  13.140
 1314ETHO    C210184   7.374  17.977  13.129
 1314ETHO   H2110185   7.392  17.925  13.226
 1314ETHO   H2310186   7.459  18.038  13.094
 1315ETHO    O110187   7.357  17.868  13.030
 1315ETHO    C110188   7.473  17.799  13.000
 1315ETHO   H1110189   7.500  17.751  13.097
 1315ETHO   H1310190   7.552  17.874  12.978
 1315ETHO    C210191   7.467  17.692  12.893
 1315ETHO   H2110192   7.389  17.620  12.924
 1315ETHO   H2310193   7.562  17.635  12.895
 1316ETHO    O110194   7.456  17.762  12.769
 1316ETHO    C110195   7.470  17.673  12.654
 1316ETHO   H1110196   7.428  17.576  12.689
 1316ETHO   H1310197   7.417  17.704  12.561
 1316ETHO    C210198   7.617  17.661  12.623
 1316ETHO   H2110199   7.667  17.629  12.716
 1316ETHO   H2310200   7.655  17.762  12.598
 1317ETHO    O110201   7.622  17.584  12.508
 1317ETHO    C110202   7.760  17.567  12.472
 1317ETHO   H1110203   7.820  17.527  12.556
 1317ETHO   H1310204   7.812  17.661  12.441
 1317ETHO    C210205   7.785  17.457  12.365
 1317ETHO   H2110206   7.886  17.471  12.321
 1317ETHO   H2310207   7.707  17.461  12.287
 1318ETHO    O110208   7.795  17.325  12.416
 1318ETHO    C110209   7.719  17.221  12.355
 1318ETHO   H1110210   7.690  17.249  12.251
 1318ETHO   H1310211   7.772  17.124  12.367
 1318ETHO    C210212   7.584  17.185  12.432
 1318ETHO   H2110213   7.522  17.275  12.454
 1318ETHO   H2310214   7.612  17.145  12.532
 1319ETHO    O110215   7.509  17.087  12.361
 1319ETHO    C110216   7.378  17.074  12.411
 1319ETHO   H1110217   7.356  16.967  12.394
 1319ETHO   H1310218   7.370  17.085  12.521
 1319ETHO    C210219   7.277  17.154  12.339
 1319ETHO   H2110220   7.306  17.260  12.325
 1319ETHO   H2310221   7.189  17.150  12.407
 1320ETHO    O110222   7.229  17.093  12.222
 1320ETHO    C110223   7.137  17.172  12.147
 1320ETHO   H1110224   7.063  17.219  12.215
 1320ETHO   H1310225   7.202  17.252  12.106
 1320ETHO    C210226   7.069  17.078  12.047
 1320ETHO   H2110227   7.143  17.008  12.002
 1320ETHO   H2310228   7.032  17.148  11.969
 1321ETHO    O110229   6.963  16.994  12.096
 1321ETHO    C110230   6.927  16.886  12.012
 1321ETHO   H1110231   7.006  16.808  12.009
 1321ETHO   H1310232   6.838  16.837  12.057
 1321ETHO    C210233   6.879  16.947  11.877
 1321ETHO   H2110234   6.805  17.028  11.893
 1321ETHO   H2310235   6.817  16.870  11.826
 1322ETHO    O110236   6.983  16.969  11.785
 1322ETHO    C110237   6.929  16.993  11.652
 1322ETHO   H1110238   6.855  17.076  11.663
 1322ETHO   H1310239   6.887  16.900  11.608
 1322ETHO    C210240   7.033  17.055  11.554
 1322ETHO   H2110241   7.058  17.155  11.595
 1322ETHO   H2310242   6.983  17.060  11.455
 1323ETHO    O110243   7.153  16.979  11.532
 1323ETHO    C110244   7.241  17.056  11.443
 1323ETHO   H1110245   7.341  17.009  11.454
 1323ETHO   H1310246   7.247  17.158  11.488
 1323ETHO    C210247   7.207  17.063  11.297
 1323ETHO   H2110248   7.160  16.968  11.262
 1323ETHO   H2310249   7.296  17.075  11.233
 1324ETHO    O110250   7.121  17.174  11.282
 1324ETHO    C110251   7.076  17.188  11.150
 1324ETHO   H1110252   7.025  17.094  11.118
 1324ETHO   H1310253   7.166  17.208  11.089
 1324ETHO    C210254   6.985  17.316  11.141
 1324ETHO   H2110255   6.970  17.337  11.033
 1324ETHO   H2310256   7.046  17.398  11.184
 1325ETHO    O110257   6.870  17.300  11.224
 1325ETHO    C110258   6.788  17.416  11.220
 1325ETHO   H1110259   6.834  17.503  11.271
 1325ETHO   H1310260   6.774  17.451  11.115
 1325ETHO    C210261   6.656  17.392  11.290
 1325ETHO   H2110262   6.622  17.485  11.340
 1325ETHO   H2310263   6.673  17.325  11.377
 1325ETHO    OZ10264   6.547  17.346  11.208
 1325ETHO   HZ110265   6.476  17.410  11.219
 1326ETHO    O110266  16.964  17.942   6.987
 1326ETHO   HO110267  16.967  18.038   6.990
 1326ETHO    C110268  17.095  17.897   7.001
 1326ETHO   H1110269  17.121  17.885   7.109
 1326ETHO   H1310270  17.173  17.964   6.959
 1326ETHO    C210271  17.119  17.759   6.927
 1326ETHO   H2110272  17.194  17.777   6.847
 1326ETHO   H2310273  17.031  17.725   6.869
 1327ETHO    O110274  17.153  17.661   7.027
 1327ETHO    C110275  17.152  17.528   6.973
 1327ETHO   H1110276  17.231  17.540   6.896
 1327ETHO   H1310277  17.197  17.469   7.056
 1327ETHO    C210278  17.016  17.473   6.925
 1327ETHO   H2110279  17.034  17.365   6.905
 1327ETHO   H2310280  16.976  17.523   6.835
 1328ETHO    O110281  16.916  17.481   7.021
 1328ETHO    C110282  16.788  17.436   6.967
 1328ETHO   H1110283  16.819  17.338   6.923
 1328ETHO   H1310284  16.746  17.497   6.885
 1328ETHO    C210285  16.694  17.402   7.086
 1328ETHO   H2110286  16.761  17.379   7.171
 1328ETHO   H2310287  16.638  17.308   7.067
 1329ETHO    O110288  16.609  17.512   7.103
 1329ETHO    C110289  16.527  17.505   7.221
 1329ETHO   H1110290  16.452  17.586   7.212
 1329ETHO   H1310291  16.467  17.411   7.214
 1329ETHO    C210292  16.595  17.536   7.356
 1329ETHO   H2110293  16.512  17.543   7.430
 1329ETHO   H2310294  16.646  17.634   7.351
 1330ETHO    O110295  16.675  17.428   7.410
 1330ETHO    C110296  16.716  17.444   7.549
 1330ETHO   H1110297  16.752  17.549   7.558
 1330ETHO   H1310298  16.627  17.420   7.610
 1330ETHO    C210299  16.832  17.353   7.582
 1330ETHO   H2110300  16.868  17.370   7.686
 1330ETHO   H2310301  16.916  17.381   7.515
 1331ETHO    O110302  16.789  17.220   7.561
 1331ETHO    C110303  16.703  17.171   7.662
 1331ETHO   H1110304  16.707  17.242   7.748
 1331ETHO   H1310305  16.599  17.191   7.629
 1331ETHO    C210306  16.723  17.022   7.691
 1331ETHO   H2110307  16.711  16.966   7.596
 1331ETHO   H2310308  16.648  16.991   7.766
 1332ETHO    O110309  16.851  17.010   7.759
 1332ETHO    C110310  16.884  16.873   7.790
 1332ETHO   H1110311  16.790  16.826   7.827
 1332ETHO   H1310312  16.912  16.815   7.699
 1332ETHO    C210313  17.004  16.871   7.893
 1332ETHO   H2110314  17.067  16.960   7.874
 1332ETHO   H2310315  17.069  16.787   7.861
 1333ETHO    O110316  16.955  16.844   8.025
 1333ETHO    C110317  16.868  16.949   8.078
 1333ETHO   H1110318  16.782  16.976   8.014
 1333ETHO   H1310319  16.918  17.048   8.089
 1333ETHO    C210320  16.810  16.909   8.213
 1333ETHO   H2110321  16.742  16.824   8.191
 1333ETHO   H2310322  16.755  16.994   8.258
 1334ETHO    O110323  16.921  16.865   8.297
 1334ETHO    C110324  16.873  16.818   8.426
 1334ETHO   H1110325  16.947  16.849   8.502
 1334ETHO   H1310326  16.771  16.855   8.449
 1334ETHO    C210327  16.870  16.663   8.448
 1334ETHO   H2110328  16.857  16.642   8.556
 1334ETHO   H2310329  16.972  16.623   8.431
 1335ETHO    O110330  16.777  16.590   8.365
 1335ETHO    C110331  16.635  16.618   8.404
 1335ETHO   H1110332  16.618  16.726   8.383
 1335ETHO   H1310333  16.619  16.597   8.512
 1335ETHO    C210334  16.534  16.537   8.318
 1335ETHO   H2110335  16.432  16.565   8.351
 1335ETHO   H2310336  16.553  16.429   8.336
 1336ETHO    O110337  16.559  16.573   8.184
 1336ETHO    C110338  16.481  16.498   8.089
 1336ETHO   H1110339  16.507  16.390   8.085
 1336ETHO   H1310340  16.378  16.495   8.129
 1336ETHO    C210341  16.505  16.556   7.950
 1336ETHO   H2110342  16.614  16.579   7.949
 1336ETHO   H2310343  16.486  16.476   7.875
 1337ETHO    O110344  16.421  16.671   7.931
 1337ETHO    C110345  16.432  16.721   7.799
 1337ETHO   H1110346  16.389  16.641   7.734
 1337ETHO   H1310347  16.539  16.741   7.777
 1337ETHO    C210348  16.350  16.850   7.775
 1337ETHO   H2110349  16.244  16.825   7.799
 1337ETHO   H2310350  16.368  16.864   7.667
 1338ETHO    O110351  16.404  16.945   7.862
 1338ETHO    C110352  16.327  17.068   7.840
 1338ETHO   H1110353  16.391  17.156   7.864
 1338ETHO   H1310354  16.311  17.070   7.730
 1338ETHO    C210355  16.187  17.064   7.907
 1338ETHO   H2110356  16.125  16.978   7.873
 1338ETHO   H2310357  16.126  17.151   7.875
 1339ETHO    O110358  16.202  17.059   8.045
 1339ETHO    C110359  16.070  17.055   8.104
 1339ETHO   H1110360  16.043  16.949   8.122
 1339ETHO   H1310361  15.995  17.103   8.037
 1339ETHO    C210362  16.067  17.134   8.230
 1339ETHO   H2110363  15.961  17.133   8.264
 1339ETHO   H2310364  16.105  17.236   8.209
 1340ETHO    O110365  16.130  17.079   8.343
 1340ETHO    C110366  16.131  17.168   8.457
 1340ETHO   H1110367  16.212  17.241   8.437
 1340ETHO   H1310368  16.030  17.210   8.476
 1340ETHO    C210369  16.171  17.089   8.574
 1340ETHO   H2110370  16.087  17.020   8.598
 1340ETHO   H2310371  16.264  17.027   8.567
 1341ETHO    O110372  16.186  17.172   8.691
 1341ETHO    C110373  16.318  17.216   8.717
 1341ETHO   H1110374  16.381  17.140   8.768
 1341ETHO   H1310375  16.372  17.218   8.619
 1341ETHO    C210376  16.324  17.348   8.795
 1341ETHO   H2110377  16.282  17.425   8.727
 1341ETHO   H2310378  16.432  17.368   8.812
 1342ETHO    O110379  16.241  17.350   8.913
 1342ETHO    C110380  16.243  17.479   8.974
 1342ETHO   H1110381  16.352  17.497   8.987
 1342ETHO   H1310382  16.200  17.562   8.915
 1342ETHO    C210383  16.177  17.481   9.109
 1342ETHO   H2110384  16.203  17.577   9.158
 1342ETHO   H2310385  16.221  17.403   9.175
 1343ETHO    O110386  16.029  17.477   9.102
 1343ETHO    C110387  15.973  17.493   9.235
 1343ETHO   H1110388  15.866  17.468   9.223
 1343ETHO   H1310389  16.011  17.422   9.311
 1343ETHO    C210390  15.972  17.630   9.308
 1343ETHO   H2110391  15.886  17.615   9.377
 1343ETHO   H2310392  15.950  17.710   9.234
 1344ETHO    O110393  16.086  17.659   9.385
 1344ETHO    C110394  16.072  17.774   9.474
 1344ETHO   H1110395  16.111  17.727   9.567
 1344ETHO   H1310396  15.965  17.804   9.476
 1344ETHO    C210397  16.151  17.897   9.429
 1344ETHO   H2110398  16.259  17.869   9.427
 1344ETHO   H2310399  16.151  17.980   9.502
 1345ETHO    O110400  16.111  17.949   9.298
 1345ETHO    C110401  15.979  18.015   9.301
 1345ETHO   H1110402  15.904  17.943   9.341
 1345ETHO   H1310403  15.983  18.109   9.361
 1345ETHO    C210404  15.944  18.050   9.163
 1345ETHO   H2110405  15.968  17.969   9.091
 1345ETHO   H2310406  16.022  18.127   9.144
 1346ETHO    O110407  15.813  18.101   9.146
 1346ETHO    C110408  15.783  18.151   9.018
 1346ETHO   H1110409  15.807  18.069   8.947
 1346ETHO   H1310410  15.845  18.237   8.985
 1346ETHO    C210411  15.632  18.202   9.000
 1346ETHO   H2110412  15.579  18.117   9.050
 1346ETHO   H2310413  15.595  18.211   8.896
 1347ETHO    O110414  15.615  18.325   9.063
 1347ETHO    C110415  15.481  18.365   9.074
 1347ETHO   H1110416  15.427  18.347   8.979
 1347ETHO   H1310417  15.439  18.300   9.154
 1347ETHO    C210418  15.443  18.502   9.111
 1347ETHO   H2110419  15.492  18.571   9.039
 1347ETHO   H2310420  15.334  18.517   9.096
 1348ETHO    O110421  15.484  18.542   9.245
 1348ETHO    C110422  15.624  18.569   9.265
 1348ETHO   H1110423  15.657  18.657   9.206
 1348ETHO   H1310424  15.666  18.472   9.231
 1348ETHO    C210425  15.645  18.598   9.416
 1348ETHO   H2110426  15.582  18.688   9.435
 1348ETHO   H2310427  15.752  18.622   9.435
 1349ETHO    O110428  15.599  18.487   9.492
 1349ETHO    C110429  15.624  18.493   9.634
 1349ETHO   H1110430  15.729  18.461   9.643
 1349ETHO   H1310431  15.624  18.598   9.670
 1349ETHO    C210432  15.517  18.398   9.699
 1349ETHO   H2110433  15.525  18.383   9.808
 1349ETHO   H2310434  15.528  18.297   9.652
 1350ETHO    O110435  15.384  18.438   9.684
 1350ETHO    C110436  15.283  18.346   9.740
 1350ETHO   H1110437  15.293  18.338   9.850
 1350ETHO   H1310438  15.298  18.243   9.700
 1350ETHO    C210439  15.135  18.396   9.720
 1350ETHO   H2110440  15.108  18.493   9.767
 1350ETHO   H2310441  15.058  18.329   9.764
 1351ETHO    O110442  15.101  18.398   9.578
 1351ETHO    C110443  14.978  18.474   9.557
 1351ETHO   H1110444  14.896  18.405   9.527
 1351ETHO   H1310445  14.956  18.527   9.651
 1351ETHO    C210446  14.979  18.563   9.444
 1351ETHO   H2110447  14.881  18.616   9.445
 1351ETHO   H2310448  14.993  18.518   9.344
 1352ETHO    O110449  15.068  18.666   9.485
 1352ETHO    C110450  15.183  18.664   9.404
 1352ETHO   H1110451  15.217  18.561   9.379
 1352ETHO   H1310452  15.270  18.710   9.455
 1352ETHO    C210453  15.148  18.744   9.281
 1352ETHO   H2110454  15.051  18.711   9.239
 1352ETHO   H2310455  15.221  18.716   9.202
 1353ETHO    O110456  15.147  18.882   9.304
 1353ETHO    C110457  15.102  18.953   9.193
 1353ETHO   H1110458  15.000  18.924   9.160
 1353ETHO   H1310459  15.106  19.058   9.229
 1353ETHO    C210460  15.195  18.941   9.062
 1353ETHO   H2110461  15.147  19.008   8.987
 1353ETHO   H2310462  15.201  18.838   9.021
 1354ETHO    O110463  15.320  19.002   9.087
 1354ETHO    C110464  15.416  18.952   8.993
 1354ETHO   H1110465  15.405  18.975   8.885
 1354ETHO   H1310466  15.423  18.843   9.011
 1354ETHO    C210467  15.551  19.017   9.032
 1354ETHO   H2110468  15.641  18.969   8.988
 1354ETHO   H2310469  15.572  19.004   9.141
 1355ETHO    O110470  15.561  19.157   9.001
 1355ETHO    C110471  15.664  19.171   8.902
 1355ETHO   H1110472  15.763  19.134   8.936
 1355ETHO   H1310473  15.626  19.115   8.814
 1355ETHO    C210474  15.671  19.311   8.845
 1355ETHO   H2110475  15.577  19.344   8.795
 1355ETHO   H2310476  15.740  19.306   8.758
 1356ETHO    O110477  15.709  19.413   8.943
 1356ETHO    C110478  15.842  19.418   8.974
 1356ETHO   H1110479  15.862  19.358   9.065
 1356ETHO   H1310480  15.900  19.376   8.889
 1356ETHO    C210481  15.886  19.562   8.975
 1356ETHO   H2110482  15.842  19.602   8.882
 1356ETHO   H2310483  15.997  19.566   8.970
 1357ETHO    O110484  15.837  19.629   9.088
 1357ETHO    C110485  15.941  19.636   9.191
 1357ETHO   H1110486  15.968  19.531   9.217
 1357ETHO   H1310487  16.030  19.683   9.144
 1357ETHO    C210488  15.891  19.729   9.304
 1357ETHO   H2110489  15.982  19.737   9.366
 1357ETHO   H2310490  15.801  19.683   9.351
 1358ETHO    O110491  15.852  19.859   9.250
 1358ETHO    C110492  15.823  19.948   9.355
 1358ETHO   H1110493  15.723  19.916   9.393
 1358ETHO   H1310494  15.888  19.938   9.444
 1358ETHO    C210495  15.831  20.093   9.314
 1358ETHO   H2110496  15.770  20.161   9.378
 1358ETHO   H2310497  15.789  20.110   9.213
 1359ETHO    O110498  15.964  20.139   9.312
 1359ETHO    C110499  15.975  20.270   9.263
 1359ETHO   H1110500  15.962  20.341   9.347
 1359ETHO   H1310501  15.909  20.300   9.178
 1359ETHO    C210502  16.125  20.305   9.218
 1359ETHO   H2110503  16.195  20.302   9.305
 1359ETHO   H2310504  16.142  20.411   9.192
 1360ETHO    O110505  16.179  20.230   9.109
 1360ETHO    C110506  16.319  20.232   9.121
 1360ETHO   H1110507  16.341  20.341   9.119
 1360ETHO   H1310508  16.357  20.180   9.212
 1360ETHO    C210509  16.388  20.160   8.998
 1360ETHO   H2110510  16.486  20.212   9.001
 1360ETHO   H2310511  16.341  20.187   8.902
 1361ETHO    O110512  16.397  20.020   9.020
 1361ETHO    C110513  16.478  19.960   8.924
 1361ETHO   H1110514  16.500  19.861   8.970
 1361ETHO   H1310515  16.571  20.022   8.918
 1361ETHO    C210516  16.407  19.947   8.793
 1361ETHO   H2110517  16.403  20.038   8.730
 1361ETHO   H2310518  16.300  19.921   8.813
 1362ETHO    O110519  16.458  19.832   8.720
 1362ETHO    C110520  16.591  19.851   8.672
 1362ETHO   H1110521  16.620  19.955   8.645
 1362ETHO   H1310522  16.656  19.823   8.758
 1362ETHO    C210523  16.626  19.770   8.553
 1362ETHO   H2110524  16.616  19.661   8.573
 1362ETHO   H2310525  16.732  19.782   8.521
 1363ETHO    O110526  16.545  19.806   8.442
 1363ETHO    C110527  16.567  19.702   8.344
 1363ETHO   H1110528  16.533  19.605   8.388
 1363ETHO   H1310529  16.676  19.691   8.326
 1363ETHO    C210530  16.487  19.714   8.217
 1363ETHO   H2110531  16.547  19.656   8.143
 1363ETHO   H2310532  16.494  19.820   8.184
 1364ETHO    O110533  16.349  19.677   8.230
 1364ETHO    C110534  16.257  19.769   8.170
 1364ETHO   H1110535  16.266  19.863   8.228
 1364ETHO   H1310536  16.275  19.779   8.061
 1364ETHO    C210537  16.106  19.723   8.192
 1364ETHO   H2110538  16.041  19.812   8.178
 1364ETHO   H2310539  16.097  19.703   8.301
 1365ETHO    O110540  16.054  19.616   8.115
 1365ETHO    C110541  16.022  19.648   7.982
 1365ETHO   H1110542  16.117  19.639   7.926
 1365ETHO   H1310543  15.978  19.749   7.969
 1365ETHO    C210544  15.912  19.558   7.914
 1365ETHO   H2110545  15.944  19.452   7.908
 1365ETHO   H2310546  15.909  19.595   7.809
 1366ETHO    O110547  15.781  19.574   7.975
 1366ETHO    C110548  15.718  19.451   8.004
 1366ETHO   H1110549  15.692  19.400   7.909
 1366ETHO   H1310550  15.794  19.384   8.050
 1366ETHO    C210551  15.597  19.464   8.097
 1366ETHO   H2110552  15.552  19.364   8.114
 1366ETHO   H2310553  15.522  19.522   8.041
 1367ETHO    O110554  15.634  19.525   8.220
 1367ETHO    C110555  15.584  19.450   8.334
 1367ETHO   H1110556  15.473  19.442   8.327
 1367ETHO   H1310557  15.626  19.347   8.339
 1367ETHO    C210558  15.640  19.534   8.455
 1367ETHO   H2110559  15.604  19.485   8.548
 1367ETHO   H2310560  15.599  19.637   8.448
 1368ETHO    O110561  15.777  19.530   8.469
 1368ETHO    C110562  15.828  19.614   8.569
 1368ETHO   H1110563  15.824  19.713   8.519
 1368ETHO   H1310564  15.766  19.619   8.661
 1368ETHO    C210565  15.968  19.579   8.621
 1368ETHO   H2110566  15.970  19.486   8.681
 1368ETHO   H2310567  16.001  19.669   8.677
 1369ETHO    O110568  16.048  19.573   8.502
 1369ETHO    C110569  16.171  19.506   8.526
 1369ETHO   H1110570  16.161  19.399   8.554
 1369ETHO   H1310571  16.229  19.520   8.432
 1369ETHO    C210572  16.251  19.575   8.641
 1369ETHO   H2110573  16.219  19.678   8.668
 1369ETHO   H2310574  16.361  19.570   8.623
 1370ETHO    O110575  16.218  19.497   8.762
 1370ETHO    C110576  16.291  19.536   8.881
 1370ETHO   H1110577  16.230  19.607   8.941
 1370ETHO   H1310578  16.388  19.588   8.863
 1370ETHO    C210579  16.297  19.417   8.979
 1370ETHO   H2110580  16.361  19.452   9.063
 1370ETHO   H2310581  16.345  19.341   8.913
 1371ETHO    O110582  16.168  19.371   9.027
 1371ETHO    C110583  16.191  19.234   9.072
 1371ETHO   H1110584  16.182  19.161   8.988
 1371ETHO   H1310585  16.289  19.227   9.124
 1371ETHO    C210586  16.077  19.191   9.165
 1371ETHO   H2110587  16.097  19.089   9.202
 1371ETHO   H2310588  15.982  19.192   9.107
 1372ETHO    O110589  16.052  19.272   9.271
 1372ETHO    C110590  15.943  19.223   9.358
 1372ETHO   H1110591  15.963  19.124   9.403
 1372ETHO   H1310592  15.858  19.209   9.289
 1372ETHO    C210593  15.921  19.320   9.471
 1372ETHO   H2110594  15.929  19.424   9.430
 1372ETHO   H2310595  16.005  19.308   9.542
 1373ETHO    O110596  15.797  19.294   9.536
 1373ETHO    C110597  15.708  19.401   9.528
 1373ETHO   H1110598  15.746  19.480   9.595
 1373ETHO   H1310599  15.716  19.443   9.425
 1373ETHO    C210600  15.561  19.362   9.564
 1373ETHO   H2110601  15.518  19.295   9.486
 1373ETHO   H2310602  15.565  19.303   9.658
 1374ETHO    O110603  15.475  19.472   9.565
 1374ETHO    C110604  15.357  19.444   9.639
 1374ETHO   H1110605  15.362  19.337   9.669
 1374ETHO   H1310606  15.275  19.481   9.574
 1374ETHO    C210607  15.362  19.531   9.767
 1374ETHO   H2110608  15.267  19.510   9.820
 1374ETHO   H2310609  15.368  19.634   9.726
 1375ETHO    O110610  15.460  19.497   9.861
 1375ETHO    C110611  15.454  19.590   9.969
 1375ETHO   H1110612  15.405  19.686   9.943
 1375ETHO   H1310613  15.386  19.547  10.047
 1375ETHO    C210614  15.591  19.612  10.025
 1375ETHO   H2110615  15.579  19.688  10.105
 1375ETHO   H2310616  15.667  19.641   9.950
 1376ETHO    O110617  15.643  19.491  10.086
 1376ETHO    C110618  15.764  19.533  10.145
 1376ETHO   H1110619  15.746  19.622  10.209
 1376ETHO   H1310620  15.835  19.562  10.064
 1376ETHO    C210621  15.832  19.438  10.241
 1376ETHO   H2110622  15.912  19.506  10.278
 1376ETHO   H2310623  15.883  19.354  10.190
 1377ETHO    O110624  15.754  19.386  10.354
 1377ETHO    C110625  15.833  19.304  10.444
 1377ETHO   H1110626  15.894  19.230  10.388
 1377ETHO   H1310627  15.914  19.370  10.482
 1377ETHO    C210628  15.760  19.236  10.564
 1377ETHO   H2110629  15.670  19.177  10.539
 1377ETHO   H2310630  15.734  19.321  10.631
 1378ETHO    O110631  15.858  19.154  10.631
 1378ETHO    C110632  15.914  19.228  10.739
 1378ETHO   H1110633  15.983  19.310  10.707
 1378ETHO   H1310634  15.825  19.262  10.796
 1378ETHO    C210635  15.989  19.126  10.819
 1378ETHO   H2110636  15.945  19.025  10.808
 1378ETHO   H2310637  15.995  19.144  10.928
 1379ETHO    O110638  16.120  19.122  10.776
 1379ETHO    C110639  16.197  19.016  10.832
 1379ETHO   H1110640  16.244  19.044  10.929
 1379ETHO   H1310641  16.130  18.932  10.860
 1379ETHO    C210642  16.320  18.959  10.752
 1379ETHO   H2110643  16.363  18.879  10.816
 1379ETHO   H2310644  16.394  19.041  10.738
 1380ETHO    O110645  16.296  18.910  10.618
 1380ETHO    C110646  16.401  18.830  10.577
 1380ETHO   H1110647  16.491  18.895  10.577
 1380ETHO   H1310648  16.417  18.743  10.643
 1380ETHO    C210649  16.394  18.766  10.436
 1380ETHO   H2110650  16.370  18.835  10.352
 1380ETHO   H2310651  16.494  18.721  10.423
 1381ETHO    O110652  16.304  18.656  10.440
 1381ETHO    C110653  16.213  18.661  10.323
 1381ETHO   H1110654  16.261  18.665  10.224
 1381ETHO   H1310655  16.153  18.755  10.320
 1381ETHO    C210656  16.114  18.548  10.331
 1381ETHO   H2110657  16.022  18.572  10.272
 1381ETHO   H2310658  16.089  18.531  10.438
 1382ETHO    O110659  16.180  18.437  10.282
 1382ETHO    C110660  16.096  18.321  10.280
 1382ETHO   H1110661  16.055  18.313  10.383
 1382ETHO   H1310662  16.016  18.324  10.203
 1382ETHO    C210663  16.173  18.192  10.247
 1382ETHO   H2110664  16.114  18.103  10.279
 1382ETHO   H2310665  16.266  18.204  10.307
 1383ETHO    O110666  16.212  18.180  10.108
 1383ETHO    C110667  16.300  18.063  10.107
 1383ETHO   H1110668  16.270  17.978  10.171
 1383ETHO   H1310669  16.400  18.094  10.146
 1383ETHO    C210670  16.309  18.021   9.963
 1383ETHO   H2110671  16.205  18.028   9.925
 1383ETHO   H2310672  16.340  17.915   9.960
 1384ETHO    O110673  16.396  18.088   9.867
 1384ETHO    C110674  16.341  18.084   9.737
 1384ETHO   H1110675  16.346  17.976   9.714
 1384ETHO   H1310676  16.239  18.128   9.735
 1384ETHO    C210677  16.444  18.144   9.636
 1384ETHO   H2110678  16.400  18.118   9.537
 1384ETHO   H2310679  16.539  18.087   9.644
 1385ETHO    O110680  16.468  18.285   9.638
 1385ETHO    C110681  16.356  18.370   9.642
 1385ETHO   H1110682  16.269  18.324   9.693
 1385ETHO   H1310683  16.330  18.393   9.536
 1385ETHO    C210684  16.397  18.505   9.714
 1385ETHO   H2110685  16.331  18.589   9.683
 1385ETHO   H2310686  16.495  18.523   9.665
 1386ETHO    O110687  16.404  18.486   9.855
 1386ETHO    C110688  16.459  18.595   9.925
 1386ETHO   H1110689  16.545  18.636   9.868
 1386ETHO   H1310690  16.381  18.672   9.942
 1386ETHO    C210691  16.497  18.555  10.063
 1386ETHO   H2110692  16.412  18.527  10.128
 1386ETHO   H2310693  16.541  18.648  10.104
 1387ETHO    O110694  16.592  18.455  10.080
 1387ETHO    C110695  16.626  18.414  10.216
 1387ETHO   H1110696  16.539  18.406  10.285
 1387ETHO   H1310697  16.673  18.504  10.261
 1387ETHO    C210698  16.706  18.283  10.227
 1387ETHO   H2110699  16.675  18.215  10.146
 1387ETHO   H2310700  16.687  18.229  10.322
 1388ETHO    O110701  16.849  18.290  10.214
 1388ETHO    C110702  16.901  18.207  10.113
 1388ETHO   H1110703  16.867  18.102  10.129
 1388ETHO   H1310704  16.870  18.247  10.014
 1388ETHO    C210705  17.055  18.203  10.124
 1388ETHO   H2110706  17.081  18.102  10.084
 1388ETHO   H2310707  17.105  18.206  10.223
 1389ETHO    O110708  17.108  18.309  10.049
 1389ETHO    C110709  17.249  18.319  10.053
 1389ETHO   H1110710  17.297  18.221  10.032
 1389ETHO   H1310711  17.275  18.346  10.158
 1389ETHO    C210712  17.303  18.428   9.959
 1389ETHO   H2110713  17.402  18.464   9.994
 1389ETHO   H2310714  17.238  18.518   9.960
 1390ETHO    O110715  17.309  18.374   9.824
 1390ETHO    C110716  17.324  18.484   9.731
 1390ETHO   H1110717  17.278  18.458   9.633
 1390ETHO   H1310718  17.293  18.584   9.766
 1390ETHO    C210719  17.479  18.496   9.703
 1390ETHO   H2110720  17.543  18.483   9.793
 1390ETHO   H2310721  17.495  18.592   9.649
 1391ETHO    O110722  17.512  18.384   9.621
 1391ETHO    C110723  17.581  18.417   9.497
 1391ETHO   H1110724  17.670  18.480   9.519
 1391ETHO   H1310725  17.510  18.488   9.450
 1391ETHO    C210726  17.615  18.295   9.412
 1391ETHO   H2110727  17.521  18.256   9.369
 1391ETHO   H2310728  17.661  18.207   9.463
 1392ETHO    O110729  17.711  18.330   9.311
 1392ETHO    C110730  17.754  18.218   9.230
 1392ETHO   H1110731  17.830  18.160   9.286
 1392ETHO   H1310732  17.662  18.158   9.210
 1392ETHO    C210733  17.830  18.246   9.098
 1392ETHO   H2110734  17.838  18.146   9.050
 1392ETHO   H2310735  17.929  18.277   9.136
 1393ETHO    O110736  17.778  18.346   9.009
 1393ETHO    C110737  17.849  18.358   8.886
 1393ETHO   H1110738  17.838  18.463   8.853
 1393ETHO   H1310739  17.954  18.330   8.908
 1393ETHO    C210740  17.794  18.256   8.781
 1393ETHO   H2110741  17.819  18.154   8.818
 1393ETHO   H2310742  17.844  18.262   8.682
 1394ETHO    O110743  17.652  18.268   8.778
 1394ETHO    C110744  17.593  18.169   8.693
 1394ETHO   H1110745  17.500  18.220   8.660
 1394ETHO   H1310746  17.651  18.152   8.600
 1394ETHO    C210747  17.555  18.033   8.767
 1394ETHO   H2110748  17.641  17.987   8.819
 1394ETHO   H2310749  17.512  17.969   8.688
 1395ETHO    O110750  17.458  18.046   8.869
 1395ETHO    C110751  17.502  18.082   9.002
 1395ETHO   H1110752  17.585  18.154   8.990
 1395ETHO   H1310753  17.420  18.141   9.048
 1395ETHO    C210754  17.556  17.957   9.080
 1395ETHO   H2110755  17.477  17.881   9.065
 1395ETHO   H2310756  17.553  17.980   9.189
 1396ETHO    O110757  17.687  17.919   9.036
 1396ETHO    C110758  17.741  17.845   9.142
 1396ETHO   H1110759  17.666  17.778   9.188
 1396ETHO   H1310760  17.768  17.922   9.217
 1396ETHO    C210761  17.860  17.765   9.104
 1396ETHO   H2110762  17.839  17.711   9.009
 1396ETHO   H2310763  17.879  17.687   9.180
 1397ETHO    O110764  17.981  17.830   9.093
 1397ETHO    C110765  17.996  17.894   8.966
 1397ETHO   H1110766  18.027  17.822   8.888
 1397ETHO   H1310767  17.900  17.945   8.944
 1397ETHO    C210768  18.117  17.994   8.957
 1397ETHO   H2110769  18.127  18.030   8.852
 1397ETHO   H2310770  18.204  17.937   8.997
 1398ETHO    O110771  18.092  18.109   9.029
 1398ETHO    C110772  18.184  18.218   9.010
 1398ETHO   H1110773  18.136  18.317   9.020
 1398ETHO   H1310774  18.239  18.214   8.913
 1398ETHO    C210775  18.287  18.194   9.114
 1398ETHO   H2110776  18.337  18.097   9.096
 1398ETHO   H2310777  18.243  18.179   9.216
 1399ETHO    O110778  18.387  18.300   9.124
 1399ETHO    C110779  18.487  18.255   9.215
 1399ETHO   H1110780  18.436  18.208   9.302
 1399ETHO   H1310781  18.560  18.187   9.167
 1399ETHO    C210782  18.562  18.375   9.280
 1399ETHO   H2110783  18.614  18.436   9.203
 1399ETHO   H2310784  18.633  18.326   9.350
 1400ETHO    O110785  18.482  18.459   9.364
 1400ETHO    C110786  18.565  18.548   9.451
 1400ETHO   H1110787  18.619  18.614   9.380
 1400ETHO   H1310788  18.640  18.487   9.505
 1400ETHO    C210789  18.475  18.629   9.544
 1400ETHO   H2110790  18.543  18.684   9.614
 1400ETHO   H2310791  18.412  18.563   9.607
 1401ETHO    O110792  18.393  18.727   9.475
 1401ETHO    C110793  18.334  18.820   9.564
 1401ETHO   H1110794  18.285  18.760   9.644
 1401ETHO   H1310795  18.421  18.861   9.622
 1401ETHO    C210796  18.244  18.917   9.493
 1401ETHO   H2110797  18.298  18.942   9.399
 1401ETHO   H2310798  18.224  19.005   9.558
 1402ETHO    O110799  18.112  18.856   9.476
 1402ETHO    C110800  18.045  18.917   9.367
 1402ETHO   H1110801  18.113  18.895   9.282
 1402ETHO   H1310802  18.031  19.026   9.381
 1402ETHO    C210803  17.904  18.860   9.332
 1402ETHO   H2110804  17.895  18.750   9.349
 1402ETHO   H2310805  17.867  18.881   9.229
 1403ETHO    O110806  17.811  18.913   9.429
 1403ETHO    C110807  17.680  18.867   9.403
 1403ETHO   H1110808  17.656  18.880   9.295
 1403ETHO   H1310809  17.671  18.758   9.423
 1403ETHO    C210810  17.581  18.949   9.485
 1403ETHO   H2110811  17.488  18.901   9.447
 1403ETHO   H2310812  17.599  19.056   9.463
 1404ETHO    O110813  17.575  18.920   9.623
 1404ETHO    C110814  17.449  18.963   9.681
 1404ETHO   H1110815  17.441  19.073   9.673
 1404ETHO   H1310816  17.373  18.900   9.630
 1404ETHO    C210817  17.422  18.938   9.837
 1404ETHO   H2110818  17.462  19.029   9.886
 1404ETHO   H2310819  17.470  18.843   9.870
 1405ETHO    O110820  17.283  18.909   9.860
 1405ETHO    C110821  17.266  18.853   9.989
 1405ETHO   H1110822  17.340  18.771  10.000
 1405ETHO   H1310823  17.298  18.932  10.061
 1405ETHO    C210824  17.115  18.810  10.016
 1405ETHO   H2110825  17.045  18.896  10.004
 1405ETHO   H2310826  17.109  18.783  10.124
 1406ETHO    O110827  17.073  18.701   9.937
 1406ETHO    C110828  16.934  18.679   9.933
 1406ETHO   H1110829  16.895  18.647  10.032
 1406ETHO   H1310830  16.884  18.776   9.909
 1406ETHO    C210831  16.881  18.572   9.835
 1406ETHO   H2110832  16.954  18.489   9.825
 1406ETHO   H2310833  16.793  18.517   9.874
 1407ETHO    O110834  16.855  18.619   9.703
 1407ETHO    C110835  16.801  18.521   9.614
 1407ETHO   H1110836  16.738  18.576   9.540
 1407ETHO   H1310837  16.743  18.443   9.666
 1407ETHO    C210838  16.914  18.473   9.517
 1407ETHO   H2110839  16.979  18.562   9.501
 1407ETHO   H2310840  16.882  18.426   9.422
 1408ETHO    O110841  17.011  18.386   9.568
 1408ETHO    C110842  16.965  18.260   9.604
 1408ETHO   H1110843  16.903  18.269   9.696
 1408ETHO   H1310844  16.898  18.221   9.525
 1408ETHO    C210845  17.066  18.149   9.641
 1408ETHO   H2110846  17.126  18.190   9.725
 1408ETHO   H2310847  17.138  18.124   9.560
 1409ETHO    O110848  16.992  18.036   9.695
 1409ETHO    C110849  17.075  17.951   9.764
 1409ETHO   H1110850  17.136  18.010   9.837
 1409ETHO   H1310851  17.146  17.897   9.698
 1409ETHO    C210852  16.995  17.837   9.838
 1409ETHO   H2110853  16.897  17.877   9.869
 1409ETHO   H2310854  17.063  17.805   9.920
 1410ETHO    O110855  16.966  17.730   9.745
 1410ETHO    C110856  16.856  17.647   9.783
 1410ETHO   H1110857  16.778  17.725   9.792
 1410ETHO   H1310858  16.846  17.575   9.699
 1410ETHO    C210859  16.886  17.564   9.910
 1410ETHO   H2110860  16.992  17.585   9.937
 1410ETHO   H2310861  16.879  17.457   9.882
 1411ETHO    O110862  16.792  17.595  10.015
 1411ETHO    C110863  16.683  17.504  10.013
 1411ETHO   H1110864  16.706  17.424  10.087
 1411ETHO   H1310865  16.674  17.450   9.917
 1411ETHO    C210866  16.559  17.577  10.053
 1411ETHO   H2110867  16.472  17.509  10.051
 1411ETHO   H2310868  16.552  17.667   9.987
 1412ETHO    O110869  16.573  17.624  10.187
 1412ETHO    C110870  16.462  17.697  10.240
 1412ETHO   H1110871  16.502  17.728  10.339
 1412ETHO   H1310872  16.433  17.789  10.184
 1412ETHO    C210873  16.335  17.610  10.265
 1412ETHO   H2110874  16.295  17.566  10.171
 1412ETHO   H2310875  16.255  17.682  10.291
 1413ETHO    O110876  16.335  17.509  10.363
 1413ETHO    C110877  16.343  17.560  10.493
 1413ETHO   H1110878  16.274  17.645  10.511
 1413ETHO   H1310879  16.447  17.600  10.502
 1413ETHO    C210880  16.327  17.464  10.614
 1413ETHO   H2110881  16.373  17.515  10.702
 1413ETHO   H2310882  16.382  17.371  10.587
 1414ETHO    O110883  16.193  17.433  10.640
 1414ETHO    C110884  16.177  17.337  10.748
 1414ETHO   H1110885  16.220  17.238  10.718
 1414ETHO   H1310886  16.250  17.360  10.829
 1414ETHO    C210887  16.040  17.337  10.804
 1414ETHO   H2110888  16.024  17.246  10.867
 1414ETHO   H2310889  15.969  17.352  10.721
 1415ETHO    O110890  16.026  17.442  10.896
 1415ETHO    C110891  15.894  17.428  10.965
 1415ETHO   H1110892  15.852  17.326  10.962
 1415ETHO   H1310893  15.924  17.466  11.065
 1415ETHO    C210894  15.784  17.508  10.884
 1415ETHO   H2110895  15.828  17.557  10.794
 1415ETHO   H2310896  15.738  17.593  10.938
 1416ETHO    O110897  15.681  17.416  10.851
 1416ETHO    C110898  15.575  17.481  10.779
 1416ETHO   H1110899  15.519  17.566  10.823
 1416ETHO   H1310900  15.626  17.526  10.690
 1416ETHO    C210901  15.484  17.378  10.718
 1416ETHO   H2110902  15.538  17.287  10.681
 1416ETHO   H2310903  15.446  17.420  10.622
 1417ETHO    O110904  15.376  17.320  10.788
 1417ETHO    C110905  15.270  17.407  10.803
 1417ETHO   H1110906  15.199  17.357  10.872
 1417ETHO   H1310907  15.291  17.505  10.851
 1417ETHO    C210908  15.182  17.429  10.683
 1417ETHO   H2110909  15.239  17.466  10.595
 1417ETHO   H2310910  15.098  17.499  10.702
 1418ETHO    O110911  15.119  17.307  10.660
 1418ETHO    C110912  15.028  17.312  10.550
 1418ETHO   H1110913  15.090  17.347  10.464
 1418ETHO   H1310914  14.952  17.388  10.579
 1418ETHO    C210915  14.960  17.174  10.518
 1418ETHO   H2110916  15.040  17.097  10.513
 1418ETHO   H2310917  14.910  17.187  10.420
 1419ETHO    O110918  14.872  17.133  10.629
 1419ETHO    C110919  14.782  17.032  10.578
 1419ETHO   H1110920  14.706  17.072  10.507
 1419ETHO   H1310921  14.835  16.944  10.538
 1419ETHO    C210922  14.695  16.983  10.698
 1419ETHO   H2110923  14.644  16.887  10.676
 1419ETHO   H2310924  14.620  17.059  10.728
 1420ETHO    O110925  14.793  16.960  10.803
 1420ETHO    C110926  14.732  16.955  10.933
 1420ETHO   H1110927  14.661  17.039  10.952
 1420ETHO   H1310928  14.805  16.960  11.017
 1420ETHO    C210929  14.658  16.826  10.946
 1420ETHO   H2110930  14.566  16.843  10.886
 1420ETHO   H2310931  14.635  16.815  11.054
 1421ETHO    O110932  14.725  16.707  10.904
 1421ETHO    C110933  14.671  16.598  10.971
 1421ETHO   H1110934  14.665  16.619  11.080
 1421ETHO   H1310935  14.567  16.603  10.933
 1421ETHO    C210936  14.750  16.473  10.938
 1421ETHO   H2110937  14.856  16.479  10.971
 1421ETHO   H2310938  14.766  16.454  10.830
 1422ETHO    O110939  14.679  16.362  11.009
 1422ETHO    C110940  14.749  16.238  11.014
 1422ETHO   H1110941  14.857  16.261  11.025
 1422ETHO   H1310942  14.749  16.193  10.913
 1422ETHO    C210943  14.687  16.146  11.121
 1422ETHO   H2110944  14.744  16.055  11.090
 1422ETHO   H2310945  14.580  16.122  11.104
 1423ETHO    O110946  14.703  16.194  11.249
 1423ETHO    C110947  14.787  16.112  11.332
 1423ETHO   H1110948  14.751  16.146  11.432
 1423ETHO   H1310949  14.759  16.005  11.326
 1423ETHO    C210950  14.932  16.140  11.297
 1423ETHO   H2110951  15.003  16.117  11.379
 1423ETHO   H2310952  14.939  16.249  11.283
 1424ETHO    O110953  14.973  16.052  11.193
 1424ETHO    C110954  15.115  16.082  11.164
 1424ETHO   H1110955  15.178  16.061  11.252
 1424ETHO   H1310956  15.141  16.187  11.138
 1424ETHO    C210957  15.161  15.998  11.036
 1424ETHO   H2110958  15.115  16.043  10.945
 1424ETHO   H2310959  15.133  15.891  11.046
 1425ETHO    O110960  15.308  16.012  11.033
 1425ETHO    C110961  15.371  15.930  10.934
 1425ETHO   H1110962  15.297  15.921  10.851
 1425ETHO   H1310963  15.458  15.987  10.895
 1425ETHO    C210964  15.405  15.790  10.984
 1425ETHO   H2110965  15.407  15.802  11.094
 1425ETHO   H2310966  15.509  15.760  10.959
 1426PROX    O110967  15.313  15.681  10.939
 1426PROX    C110968  15.335  15.563  11.009
 1426PROX   H1110969  15.421  15.513  10.959
 1426PROX   H1310970  15.375  15.589  11.110
 1426PROX    C210971  15.213  15.491  11.035
 1426PROX   H2110972  15.174  15.461  10.935
 1426PROX    C310973  15.099  15.563  11.109
 1426PROX   H3110974  15.016  15.490  11.120
 1426PROX   H3210975  15.126  15.592  11.213
 1426PROX   H3310976  15.059  15.654  11.059
 1427PROX    O110977  15.243  15.376  11.114
 1427PROX    C110978  15.314  15.279  11.034
 1427PROX   H1110979  15.241  15.250  10.956
 1427PROX   H1310980  15.412  15.310  10.993
 1427PROX    C210981  15.340  15.155  11.119
 1427PROX   H2110982  15.250  15.117  11.172
 1427PROX    C310983  15.442  15.196  11.223
 1427PROX   H3110984  15.541  15.216  11.178
 1427PROX   H3210985  15.407  15.287  11.277
 1427PROX   H3310986  15.472  15.115  11.293
 1428PROX    O110987  15.391  15.050  11.035
 1428PROX    C110988  15.349  14.922  11.078
 1428PROX   H1110989  15.379  14.905  11.184
 1428PROX   H1310990  15.238  14.920  11.074
 1428PROX    C210991  15.415  14.808  10.987
 1428PROX   H2110992  15.526  14.807  11.002
 1428PROX    C310993  15.378  14.797  10.835
 1428PROX   H3110994  15.438  14.871  10.777
 1428PROX   H3210995  15.407  14.701  10.788
 1428PROX   H3310996  15.270  14.821  10.825
 1429PROX    O110997  15.377  14.682  11.044
 1429PROX    C110998  15.241  14.642  11.016
 1429PROX   H1110999  15.165  14.723  11.017
 1429PROX   H1311000  15.223  14.598  10.915
 1429PROX    C211001  15.202  14.528  11.115
 1429PROX   H2111002  15.210  14.575  11.216
 1429PROX    C311003  15.300  14.409  11.098
 1429PROX   H3111004  15.299  14.362  10.998
 1429PROX   H3211005  15.401  14.450  11.121
 1429PROX   H3311006  15.275  14.337  11.179
 1430PROX    O111007  15.065  14.490  11.085
 1430PROX    C111008  15.005  14.405  11.185
 1430PROX   H1111009  15.042  14.301  11.172
 1430PROX   H1311010  15.028  14.426  11.292
 1430PROX    C211011  14.852  14.420  11.168
 1430PROX   H2111012  14.835  14.528  11.152
 1430PROX    C311013  14.786  14.368  11.295
 1430PROX   H3111014  14.832  14.272  11.327
 1430PROX   H3211015  14.812  14.442  11.373
 1430PROX   H3311016  14.675  14.375  11.287
 1431PROX    O111017  14.801  14.344  11.061
 1431PROX    C111018  14.803  14.418  10.938
 1431PROX   H1111019  14.724  14.497  10.937
 1431PROX   H1311020  14.900  14.472  10.943
 1431PROX    C211021  14.808  14.331  10.810
 1431PROX   H2111022  14.882  14.256  10.845
 1431PROX    C311023  14.865  14.399  10.684
 1431PROX   H3111024  14.908  14.319  10.621
 1431PROX   H3211025  14.788  14.458  10.629
 1431PROX   H3311026  14.941  14.473  10.716
 1432PROX    O111027  14.677  14.289  10.775
 1432PROX    C111028  14.596  14.228  10.877
 1432PROX   H1111029  14.660  14.157  10.934
 1432PROX   H1311030  14.563  14.308  10.946
 1432PROX    C211031  14.472  14.158  10.813
 1432PROX   H2111032  14.518  14.084  10.745
 1432PROX    C311033  14.384  14.264  10.743
 1432PROX   H3111034  14.292  14.281  10.803
 1432PROX   H3211035  14.427  14.366  10.743
 1432PROX   H3311036  14.347  14.236  10.642
 1433PROX    O111037  14.415  14.083  10.911
 1433PROX    C111038  14.324  13.983  10.861
 1433PROX   H1111039  14.239  14.032  10.810
 1433PROX   H1311040  14.380  13.923  10.786
 1433PROX    C211041  14.269  13.898  10.978
 1433PROX   H2111042  14.199  13.963  11.035
 1433PROX    C311043  14.379  13.836  11.061
 1433PROX   H3111044  14.347  13.744  11.113
 1433PROX   H3211045  14.465  13.816  10.993
 1433PROX   H3311046  14.404  13.914  11.137
 1434PROX    O111047  14.201  13.790  10.924
 1434PROX    C111048  14.130  13.706  11.012
 1434PROX   H1111049  14.191  13.615  11.032
 1434PROX   H1311050  14.119  13.758  11.109
 1434PROX    C211051  13.999  13.653  10.951
 1434PROX   H2111052  13.952  13.573  11.013
 1434PROX    C311053  14.015  13.606  10.804
 1434PROX   H3111054  14.072  13.679  10.743
 1434PROX   H3211055  14.076  13.514  10.796
 1434PROX   H3311056  13.919  13.582  10.752
 1435PROX    O111057  13.903  13.759  10.934
 1435PROX    C111058  13.822  13.779  11.047
 1435PROX   H1111059  13.735  13.711  11.051
 1435PROX   H1311060  13.883  13.755  11.137
 1435PROX    C211061  13.773  13.925  11.054
 1435PROX   H2111062  13.739  13.940  11.159
 1435PROX    C311063  13.671  13.970  10.941
 1435PROX   H3111064  13.593  13.894  10.919
 1435PROX   H3211065  13.619  14.062  10.977
 1435PROX   H3311066  13.721  13.989  10.844
 1436PROX    O111067  13.888  14.012  11.040
 1436PROX    C111068  13.872  14.144  11.092
 1436PROX   H1111069  13.780  14.190  11.050
 1436PROX   H1311070  13.868  14.130  11.202
 1436PROX    C211071  14.000  14.239  11.066
 1436PROX   H2111072  13.993  14.340  11.113
 1436PROX    C311073  14.015  14.276  10.916
 1436PROX   H3111074  14.058  14.188  10.864
 1436PROX   H3211075  13.914  14.290  10.873
 1436PROX   H3311076  14.088  14.357  10.893
 1437PROX    O111077  14.122  14.174  11.111
 1437PROX    C111078  14.150  14.179  11.250
 1437PROX   H1111079  14.053  14.201  11.298
 1437PROX   H1311080  14.204  14.090  11.290
 1437PROX    C211081  14.255  14.297  11.272
 1437PROX   H2111082  14.202  14.390  11.241
 1437PROX    C311083  14.388  14.270  11.199
 1437PROX   H3111084  14.365  14.234  11.097
 1437PROX   H3211085  14.466  14.349  11.204
 1437PROX   H3311086  14.431  14.188  11.261
 1438PROX    O111087  14.279  14.305  11.409
 1438PROX    C111088  14.179  14.375  11.485
 1438PROX   H1111089  14.211  14.480  11.503
 1438PROX   H1311090  14.083  14.363  11.431
 1438PROX    C211091  14.171  14.298  11.624
 1438PROX   H2111092  14.260  14.330  11.682
 1438PROX    C311093  14.186  14.151  11.588
 1438PROX   H3111094  14.283  14.127  11.540
 1438PROX   H3211095  14.189  14.093  11.683
 1438PROX   H3311096  14.102  14.109  11.530
 1439PROX    O111097  14.061  14.335  11.705
 1439PROX    C111098  13.933  14.282  11.665
 1439PROX   H1111099  13.911  14.312  11.561
 1439PROX   H1311100  13.939  14.171  11.677
 1439PROX    C211101  13.824  14.333  11.765
 1439PROX   H2111102  13.813  14.441  11.746
 1439PROX    C311103  13.853  14.293  11.905
 1439PROX   H3111104  13.768  14.311  11.975
 1439PROX   H3211105  13.867  14.184  11.890
 1439PROX   H3311106  13.946  14.336  11.947
 1440PROX    O111107  13.697  14.263  11.746
 1440PROX    C111108  13.644  14.278  11.618
 1440PROX   H1111109  13.716  14.255  11.536
 1440PROX   H1311110  13.553  14.218  11.599
 1440PROX    C211111  13.588  14.423  11.601
 1440PROX   H2111112  13.676  14.488  11.621
 1440PROX    C311113  13.484  14.471  11.703
 1440PROX   H3111114  13.461  14.577  11.679
 1440PROX   H3211115  13.383  14.428  11.688
 1440PROX   H3311116  13.517  14.466  11.809
 1441PROX    O111117  13.549  14.447  11.463
 1441PROX    C111118  13.667  14.464  11.378
 1441PROX   H1111119  13.736  14.538  11.424
 1441PROX   H1311120  13.711  14.364  11.361
 1441PROX    C211121  13.618  14.520  11.242
 1441PROX   H2111122  13.550  14.604  11.270
 1441PROX    C311123  13.550  14.417  11.159
 1441PROX   H3111124  13.476  14.459  11.087
 1441PROX   H3211125  13.620  14.363  11.093
 1441PROX   H3311126  13.496  14.342  11.220
 1442PROX    O111127  13.731  14.572  11.165
 1442PROX    C111128  13.693  14.668  11.073
 1442PROX   H1111129  13.593  14.655  11.028
 1442PROX   H1311130  13.694  14.764  11.128
 1442PROX    C211131  13.792  14.667  10.955
 1442PROX   H2111132  13.894  14.656  10.997
 1442PROX    C311133  13.792  14.790  10.869
 1442PROX   H3111134  13.840  14.783  10.769
 1442PROX   H3211135  13.689  14.829  10.854
 1442PROX   H3311136  13.850  14.865  10.927
 1443PROX    O111137  13.781  14.542  10.882
 1443PROX    C111138  13.659  14.533  10.803
 1443PROX   H1111139  13.572  14.564  10.866
 1443PROX   H1311140  13.661  14.600  10.714
 1443PROX    C211141  13.630  14.387  10.757
 1443PROX   H2111142  13.666  14.327  10.844
 1443PROX    C311143  13.706  14.356  10.627
 1443PROX   H3111144  13.814  14.349  10.653
 1443PROX   H3211145  13.683  14.257  10.581
 1443PROX   H3311146  13.691  14.440  10.556
 1444PROX    O111147  13.489  14.372  10.752
 1444PROX    C111148  13.449  14.236  10.732
 1444PROX   H1111149  13.442  14.226  10.622
 1444PROX   H1311150  13.521  14.165  10.776
 1444PROX    C211151  13.314  14.206  10.775
 1444PROX   H2111152  13.244  14.277  10.726
 1444PROX    C311153  13.311  14.208  10.934
 1444PROX   H3111154  13.360  14.113  10.966
 1444PROX   H3211155  13.372  14.294  10.970
 1444PROX   H3311156  13.208  14.207  10.973
 1445PROX    O111157  13.284  14.069  10.735
 1445PROX    C111158  13.146  14.028  10.750
 1445PROX   H1111159  13.093  14.084  10.830
 1445PROX   H1311160  13.088  14.035  10.655
 1445PROX    C211161  13.147  13.883  10.804
 1445PROX   H2111162  13.184  13.820  10.721
 1445PROX    C311163  12.999  13.852  10.833
 1445PROX   H3111164  12.946  13.845  10.736
 1445PROX   H3211165  12.990  13.754  10.884
 1445PROX   H3311166  12.958  13.933  10.896
 1446PROX    O111167  13.231  13.869  10.926
 1446PROX    C111168  13.249  13.738  10.972
 1446PROX   H1111169  13.162  13.689  11.020
 1446PROX   H1311170  13.267  13.689  10.874
 1446PROX    C211171  13.376  13.718  11.054
 1446PROX   H2111172  13.458  13.727  10.980
 1446PROX    C311173  13.377  13.581  11.115
 1446PROX   H3111174  13.339  13.497  11.053
 1446PROX   H3211175  13.472  13.545  11.162
 1446PROX   H3311176  13.303  13.577  11.198
 1447PROX    O111177  13.370  13.813  11.165
 1447PROX    C111178  13.493  13.802  11.249
 1447PROX   H1111179  13.485  13.712  11.313
 1447PROX   H1311180  13.582  13.789  11.184
 1447PROX    C211181  13.492  13.923  11.338
 1447PROX   H2111182  13.417  13.914  11.419
 1447PROX    C311183  13.470  14.052  11.255
 1447PROX   H3111184  13.486  14.135  11.327
 1447PROX   H3211185  13.534  14.076  11.168
 1447PROX   H3311186  13.367  14.059  11.213
 1448PROX    O111187  13.617  13.946  11.400
 1448PROX    C111188  13.663  13.838  11.481
 1448PROX   H1111189  13.586  13.813  11.556
 1448PROX   H1311190  13.682  13.749  11.418
 1448PROX    C211191  13.797  13.888  11.541
 1448PROX   H2111192  13.782  13.980  11.602
 1448PROX    C311193  13.895  13.913  11.419
 1448PROX   H3111194  13.852  13.993  11.355
 1448PROX   H3211195  14.002  13.931  11.443
 1448PROX   H3311196  13.894  13.826  11.350
 1449PROX    O111197  13.860  13.790  11.618
 1449PROX    C111198  13.921  13.835  11.746
 1449PROX   H1111199  13.973  13.932  11.733
 1449PROX   H1311200  13.842  13.856  11.821
 1449PROX    C211201  14.012  13.727  11.793
 1449PROX   H2111202  13.979  13.627  11.758
 1449PROX    C311203  14.026  13.726  11.943
 1449PROX   H3111204  13.924  13.734  11.987
 1449PROX   H3211205  14.061  13.625  11.975
 1449PROX   H3311206  14.104  13.799  11.975
 1450PROX    O111207  14.137  13.756  11.738
 1450PROX    C111208  14.171  13.680  11.615
 1450PROX   H1111209  14.201  13.576  11.643
 1450PROX   H1311210  14.081  13.663  11.552
 1450PROX    C211211  14.279  13.749  11.532
 1450PROX   H2111212  14.256  13.858  11.538
 1450PROX    C311213  14.280  13.714  11.379
 1450PROX   H3111214  14.190  13.764  11.338
 1450PROX   H3211215  14.379  13.745  11.337
 1450PROX   H3311216  14.270  13.604  11.375
 1451PROX    O111217  14.414  13.711  11.582
 1451PROX    C111218  14.510  13.819  11.586
 1451PROX   H1111219  14.606  13.773  11.620
 1451PROX   H1311220  14.511  13.864  11.484
 1451PROX    C211221  14.478  13.930  11.687
 1451PROX   H2111222  14.373  13.958  11.708
 1451PROX    C311223  14.546  14.067  11.637
 1451PROX   H3111224  14.653  14.042  11.621
 1451PROX   H3211225  14.505  14.104  11.541
 1451PROX   H3311226  14.536  14.150  11.711
 1452PROX    O111227  14.540  13.896  11.810
 1452PROX    C111228  14.491  13.778  11.877
 1452PROX   H1111229  14.396  13.745  11.830
 1452PROX   H1311230  14.555  13.689  11.861
 1452PROX    C211231  14.445  13.789  12.027
 1452PROX   H2111232  14.536  13.803  12.089
 1452PROX    C311233  14.391  13.662  12.097
 1452PROX   H3111234  14.456  13.574  12.074
 1452PROX   H3211235  14.387  13.660  12.208
 1452PROX   H3311236  14.289  13.640  12.061
 1453PROX    O111237  14.345  13.887  12.045
 1453PROX    C111238  14.403  14.011  12.094
 1453PROX   H1111239  14.427  14.010  12.203
 1453PROX   H1311240  14.499  14.046  12.052
 1453PROX    C211241  14.304  14.128  12.088
 1453PROX   H2111242  14.208  14.082  12.121
 1453PROX    C311243  14.298  14.166  11.937
 1453PROX   H3111244  14.396  14.212  11.912
 1453PROX   H3211245  14.281  14.071  11.883
 1453PROX   H3311246  14.228  14.247  11.906
 1454PROX    O111247  14.341  14.235  12.176
 1454PROX    C111248  14.256  14.352  12.163
 1454PROX   H1111249  14.308  14.422  12.095
 1454PROX   H1311250  14.158  14.331  12.114
 1454PROX    C211251  14.228  14.417  12.299
 1454PROX   H2111252  14.325  14.438  12.350
 1454PROX    C311253  14.147  14.319  12.381
 1454PROX   H3111254  14.211  14.233  12.411
 1454PROX   H3211255  14.102  14.370  12.469
 1454PROX   H3311256  14.064  14.283  12.316
 1455PROX    O111257  14.142  14.526  12.282
 1455PROX    C111258  14.201  14.643  12.229
 1455PROX   H1111259  14.290  14.676  12.288
 1455PROX   H1311260  14.230  14.612  12.126
 1455PROX    C211261  14.102  14.756  12.227
 1455PROX   H2111262  14.160  14.847  12.203
 1455PROX    C311263  14.033  14.784  12.361
 1455PROX   H3111264  13.946  14.717  12.377
 1455PROX   H3211265  14.112  14.763  12.436
 1455PROX   H3311266  13.994  14.888  12.368
 1456PROX    O111267  14.007  14.745  12.123
 1456PROX    C111268  13.928  14.855  12.102
 1456PROX   H1111269  13.879  14.902  12.190
 1456PROX   H1311270  13.989  14.941  12.067
 1456PROX    C211271  13.821  14.816  11.998
 1456PROX   H2111272  13.761  14.909  11.988
 1456PROX    C311273  13.714  14.716  12.051
 1456PROX   H3111274  13.661  14.755  12.140
 1456PROX   H3211275  13.634  14.706  11.975
 1456PROX   H3311276  13.748  14.613  12.076
 1457PROX    O111277  13.874  14.788  11.870
 1457PROX    C111278  13.774  14.753  11.767
 1457PROX   H1111279  13.767  14.642  11.767
 1457PROX   H1311280  13.679  14.806  11.789
 1457PROX    C211281  13.813  14.804  11.626
 1457PROX   H2111282  13.865  14.898  11.651
 1457PROX    C311283  13.680  14.838  11.553
 1457PROX   H3111284  13.615  14.749  11.563
 1457PROX   H3211285  13.616  14.921  11.590
 1457PROX   H3311286  13.697  14.869  11.447
 1458PROX    O111287  13.896  14.715  11.551
 1458PROX    C111288  14.008  14.668  11.621
 1458PROX   H1111289  13.976  14.622  11.717
 1458PROX   H1311290  14.049  14.587  11.558
 1458PROX    C211291  14.122  14.768  11.649
 1458PROX   H2111292  14.083  14.838  11.726
 1458PROX    C311293  14.151  14.851  11.523
 1458PROX   H3111294  14.066  14.906  11.478
 1458PROX   H3211295  14.231  14.922  11.554
 1458PROX   H3311296  14.192  14.780  11.449
 1459PROX    O111297  14.234  14.691  11.698
 1459PROX    C111298  14.319  14.754  11.791
 1459PROX   H1111299  14.383  14.835  11.750
 1459PROX   H1311300  14.253  14.795  11.870
 1459PROX    C211301  14.416  14.652  11.861
 1459PROX   H2111302  14.365  14.558  11.891
 1459PROX    C311303  14.465  14.711  12.001
 1459PROX   H3111304  14.376  14.752  12.054
 1459PROX   H3211305  14.512  14.636  12.068
 1459PROX   H3311306  14.530  14.797  11.975
 1460PROX    O111307  14.528  14.622  11.779
 1460PROX    C111308  14.610  14.512  11.820
 1460PROX   H1111309  14.677  14.546  11.902
 1460PROX   H1311310  14.541  14.428  11.843
 1460PROX    C211311  14.695  14.464  11.699
 1460PROX   H2111312  14.752  14.544  11.646
 1460PROX    C311313  14.588  14.403  11.602
 1460PROX   H3111314  14.489  14.383  11.647
 1460PROX   H3211315  14.568  14.466  11.513
 1460PROX   H3311316  14.629  14.308  11.561
 1461PROX    O111317  14.776  14.350  11.725
 1461PROX    C111318  14.886  14.381  11.808
 1461PROX   H1111319  14.860  14.453  11.889
 1461PROX   H1311320  14.925  14.290  11.859
 1461PROX    C211321  15.009  14.422  11.719
 1461PROX   H2111322  14.979  14.522  11.681
 1461PROX    C311323  15.034  14.331  11.598
 1461PROX   H3111324  15.139  14.351  11.566
 1461PROX   H3211325  15.035  14.227  11.636
 1461PROX   H3311326  14.963  14.340  11.513
 1462PROX    O111327  15.124  14.413  11.796
 1462PROX    C111328  15.127  14.510  11.898
 1462PROX   H1111329  15.051  14.588  11.877
 1462PROX   H1311330  15.094  14.467  11.995
 1462PROX    C211331  15.261  14.575  11.917
 1462PROX   H2111332  15.290  14.619  11.819
 1462PROX    C311333  15.364  14.471  11.970
 1462PROX   H3111334  15.369  14.459  12.080
 1462PROX   H3211335  15.340  14.370  11.931
 1462PROX   H3311336  15.467  14.493  11.936
 1463PROX    O111337  15.244  14.678  12.016
 1463PROX    C111338  15.196  14.800  11.958
 1463PROX   H1111339  15.149  14.768  11.862
 1463PROX   H1311340  15.104  14.844  12.001
 1463PROX    C211341  15.302  14.907  11.943
 1463PROX   H2111342  15.375  14.901  12.026
 1463PROX    C311343  15.237  15.049  11.939
 1463PROX   H3111344  15.144  15.045  11.999
 1463PROX   H3211345  15.308  15.123  11.982
 1463PROX   H3311346  15.205  15.079  11.837
 1464PROX    O111347  15.366  14.888  11.821
 1464PROX    C111348  15.507  14.920  11.824
 1464PROX   H1111349  15.511  15.028  11.798
 1464PROX   H1311350  15.554  14.918  11.925
 1464PROX    C211351  15.577  14.848  11.708
 1464PROX   H2111352  15.563  14.737  11.706
 1464PROX    C311353  15.725  14.885  11.693
 1464PROX   H3111354  15.752  14.856  11.590
 1464PROX   H3211355  15.743  14.995  11.701
 1464PROX   H3311356  15.792  14.829  11.762
 1465PROX    O111357  15.517  14.892  11.586
 1465PROX    C111358  15.509  14.805  11.480
 1465PROX   H1111359  15.472  14.855  11.387
 1465PROX   H1311360  15.607  14.762  11.453
 1465PROX    C211361  15.398  14.696  11.506
 1465PROX   H2111362  15.372  14.681  11.613
 1465PROX    C311363  15.452  14.567  11.453
 1465PROX   H3111364  15.558  14.546  11.480
 1465PROX   H3211365  15.387  14.482  11.484
 1465PROX   H3311366  15.437  14.576  11.344
 1466PROX    O111367  15.279  14.718  11.431
 1466PROX    C111368  15.218  14.837  11.477
 1466PROX   H1111369  15.222  14.864  11.585
 1466PROX   H1311370  15.256  14.926  11.423
 1466PROX    C211371  15.063  14.811  11.474
 1466PROX   H2111372  15.038  14.720  11.532
 1466PROX    C311373  15.014  14.763  11.339
 1466PROX   H3111374  15.031  14.837  11.258
 1466PROX   H3211375  15.059  14.666  11.307
 1466PROX   H3311376  14.907  14.732  11.334
 1467PROX    O111377  14.994  14.922  11.520
 1467PROX    C111378  14.852  14.898  11.532
 1467PROX   H1111379  14.808  14.977  11.468
 1467PROX   H1311380  14.822  14.795  11.503
 1467PROX    C211381  14.808  14.927  11.677
 1467PROX   H2111382  14.857  15.024  11.700
 1467PROX    C311383  14.851  14.819  11.771
 1467PROX   H3111384  14.962  14.817  11.777
 1467PROX   H3211385  14.800  14.843  11.867
 1467PROX   H3311386  14.811  14.719  11.740
 1468PROX    O111387  14.662  14.950  11.687
 1468PROX    C111388  14.621  15.064  11.622
 1468PROX   H1111389  14.703  15.140  11.620
 1468PROX   H1311390  14.608  15.043  11.514
 1468PROX    C211391  14.495  15.138  11.676
 1468PROX   H2111392  14.401  15.081  11.660
 1468PROX    C311393  14.470  15.268  11.599
 1468PROX   H3111394  14.378  15.304  11.649
 1468PROX   H3211395  14.551  15.342  11.617
 1468PROX   H3311396  14.443  15.254  11.492
 1469PROX    O111397  14.508  15.192  11.807
 1469PROX    C111398  14.466  15.095  11.900
 1469PROX   H1111399  14.470  14.993  11.856
 1469PROX   H1311400  14.542  15.092  11.981
 1469PROX    C211401  14.321  15.124  11.950
 1469PROX   H2111402  14.312  15.232  11.975
 1469PROX    C311403  14.286  15.049  12.081
 1469PROX   H3111404  14.316  14.943  12.072
 1469PROX   H3211405  14.350  15.082  12.166
 1469PROX   H3311406  14.181  15.068  12.112
 1470PROX    O111407  14.232  15.095  11.848
 1470PROX    C111408  14.115  15.175  11.848
 1470PROX   H1111409  14.065  15.153  11.945
 1470PROX   H1311410  14.141  15.284  11.847
 1470PROX    C211411  14.018  15.154  11.729
 1470PROX   H2111412  13.986  15.048  11.732
 1470PROX    C311413  14.077  15.184  11.592
 1470PROX   H3111414  14.071  15.294  11.587
 1470PROX   H3211415  14.185  15.157  11.588
 1470PROX   H3311416  14.022  15.129  11.512
 1471PROX    O111417  13.898  15.234  11.744
 1471PROX    C111418  13.780  15.167  11.696
 1471PROX   H1111419  13.789  15.107  11.603
 1471PROX   H1311420  13.747  15.090  11.769
 1471PROX    C211421  13.655  15.258  11.664
 1471PROX   H2111422  13.636  15.343  11.734
 1471PROX    C311423  13.524  15.173  11.667
 1471PROX   H3111424  13.434  15.237  11.669
 1471PROX   H3211425  13.529  15.104  11.579
 1471PROX   H3311426  13.521  15.110  11.759
 1472PROX    O111427  13.668  15.310  11.532
 1472PROX    C111428  13.741  15.434  11.531
 1472PROX   H1111429  13.692  15.511  11.595
 1472PROX   H1311430  13.839  15.426  11.582
 1472PROX    C211431  13.755  15.491  11.390
 1472PROX   H2111432  13.656  15.487  11.339
 1472PROX    C311433  13.845  15.409  11.294
 1472PROX   H3111434  13.816  15.303  11.307
 1472PROX   H3211435  13.839  15.430  11.185
 1472PROX   H3311436  13.950  15.421  11.328
 1473PROX    O111437  13.800  15.623  11.398
 1473PROX    C111438  13.761  15.686  11.271
 1473PROX   H1111439  13.803  15.637  11.181
 1473PROX   H1311440  13.650  15.687  11.274
 1473PROX    C211441  13.796  15.837  11.254
 1473PROX   H2111442  13.769  15.879  11.353
 1473PROX    C311443  13.717  15.899  11.136
 1473PROX   H3111444  13.751  15.845  11.045
 1473PROX   H3211445  13.606  15.892  11.145
 1473PROX   H3311446  13.754  16.003  11.124
 1474PROX    O111447  13.933  15.858  11.224
 1474PROX    C111448  14.023  15.808  11.325
 1474PROX   H1111449  14.099  15.886  11.349
 1474PROX   H1311450  13.967  15.783  11.418
 1474PROX    C211451  14.100  15.682  11.268
 1474PROX   H2111452  14.029  15.606  11.229
 1474PROX    C311453  14.182  15.608  11.382
 1474PROX   H3111454  14.197  15.506  11.341
 1474PROX   H3211455  14.280  15.659  11.397
 1474PROX   H3311456  14.128  15.603  11.479
 1475PROX    O111457  14.195  15.719  11.174
 1475PROX    C111458  14.146  15.765  11.044
 1475PROX   H1111459  14.054  15.706  11.024
 1475PROX   H1311460  14.121  15.873  11.052
 1475PROX    C211461  14.258  15.735  10.935
 1475PROX   H2111462  14.265  15.625  10.916
 1475PROX    C311463  14.398  15.774  10.975
 1475PROX   H3111464  14.425  15.880  10.957
 1475PROX   H3211465  14.415  15.757  11.084
 1475PROX   H3311466  14.484  15.712  10.940
 1476PROX    O111467  14.230  15.799  10.819
 1476PROX    C111468  14.112  15.753  10.757
 1476PROX   H1111469  14.061  15.660  10.789
 1476PROX   H1311470  14.046  15.839  10.782
 1476PROX    C211471  14.129  15.736  10.602
 1476PROX   H2111472  14.160  15.831  10.554
 1476PROX    C311473  13.992  15.696  10.545
 1476PROX   H3111474  13.909  15.752  10.591
 1476PROX   H3211475  13.995  15.721  10.436
 1476PROX   H3311476  13.979  15.586  10.550
 1477PROX    O111477  14.243  15.650  10.572
 1477PROX    C111478  14.263  15.634  10.433
 1477PROX   H1111479  14.177  15.577  10.392
 1477PROX   H1311480  14.261  15.734  10.386
 1477PROX    C211481  14.396  15.564  10.401
 1477PROX   H2111482  14.393  15.470  10.461
 1477PROX    C311483  14.509  15.639  10.465
 1477PROX   H3111484  14.529  15.724  10.396
 1477PROX   H3211485  14.491  15.656  10.574
 1477PROX   H3311486  14.607  15.588  10.459
 1478PROX    O111487  14.414  15.545  10.266
 1478PROX    C111488  14.329  15.461  10.200
 1478PROX   H1111489  14.237  15.440  10.259
 1478PROX   H1311490  14.288  15.502  10.106
 1478PROX    C211491  14.391  15.320  10.164
 1478PROX   H2111492  14.461  15.339  10.080
 1478PROX    C311493  14.294  15.233  10.093
 1478PROX   H3111494  14.198  15.213  10.144
 1478PROX   H3211495  14.269  15.287   9.999
 1478PROX   H3311496  14.338  15.137  10.059
 1479PROX    O111497  14.448  15.262  10.276
 1479PROX    C111498  14.518  15.139  10.245
 1479PROX   H1111499  14.435  15.064  10.241
 1479PROX   H1311500  14.565  15.146  10.145
 1479PROX    C211501  14.625  15.105  10.352
 1479PROX   H2111502  14.583  15.093  10.454
 1479PROX    C311503  14.726  15.220  10.357
 1479PROX   H3111504  14.783  15.212  10.453
 1479PROX   H3211505  14.798  15.214  10.273
 1479PROX   H3311506  14.673  15.317  10.352
 1480PROX    O111507  14.700  14.988  10.312
 1480PROX    C111508  14.612  14.875  10.303
 1480PROX   H1111509  14.534  14.885  10.382
 1480PROX   H1311510  14.570  14.861  10.201
 1480PROX    C211511  14.690  14.747  10.333
 1480PROX   H2111512  14.734  14.752  10.435
 1480PROX    C311513  14.793  14.715  10.224
 1480PROX   H3111514  14.754  14.719  10.120
 1480PROX   H3211515  14.851  14.810  10.224
 1480PROX   H3311516  14.856  14.628  10.251
 1481PROX    O111517  14.604  14.632  10.331
 1481PROX    C111518  14.539  14.607  10.456
 1481PROX   H1111519  14.591  14.528  10.514
 1481PROX   H1311520  14.538  14.700  10.516
 1481PROX    C211521  14.389  14.564  10.431
 1481PROX   H2111522  14.380  14.474  10.366
 1481PROX    C311523  14.292  14.661  10.368
 1481PROX   H3111524  14.187  14.627  10.372
 1481PROX   H3211525  14.312  14.758  10.419
 1481PROX   H3311526  14.304  14.674  10.258
 1482PROX    O111527  14.326  14.512  10.546
 1482PROX    C111528  14.337  14.603  10.657
 1482PROX   H1111529  14.430  14.572  10.709
 1482PROX   H1311530  14.350  14.711  10.636
 1482PROX    C211531  14.214  14.578  10.747
 1482PROX   H2111532  14.199  14.469  10.758
 1482PROX    C311533  14.081  14.621  10.701
 1482PROX   H3111534  14.080  14.729  10.674
 1482PROX   H3211535  14.063  14.572  10.603
 1482PROX   H3311536  13.999  14.586  10.767
 1483PROX    O111537  14.237  14.645  10.875
 1483PROX    C111538  14.302  14.560  10.962
 1483PROX   H1111539  14.229  14.487  11.003
 1483PROX   H1311540  14.379  14.500  10.908
 1483PROX    C211541  14.371  14.638  11.073
 1483PROX   H2111542  14.442  14.571  11.125
 1483PROX    C311543  14.272  14.691  11.182
 1483PROX   H3111544  14.317  14.712  11.281
 1483PROX   H3211545  14.197  14.767  11.153
 1483PROX   H3311546  14.219  14.595  11.198
 1484PROX    O111547  14.437  14.751  11.016
 1484PROX    C111548  14.567  14.728  10.960
 1484PROX   H1111549  14.641  14.737  11.043
 1484PROX   H1311550  14.564  14.624  10.923
 1484PROX    C211551  14.601  14.819  10.836
 1484PROX   H2111552  14.547  14.794  10.742
 1484PROX    C311553  14.757  14.818  10.812
 1484PROX   H3111554  14.768  14.725  10.752
 1484PROX   H3211555  14.809  14.891  10.746
 1484PROX   H3311556  14.815  14.811  10.906
 1485PROX    O111557  14.561  14.954  10.867
 1485PROX    C111558  14.591  15.046  10.756
 1485PROX   H1111559  14.700  15.068  10.768
 1485PROX   H1311560  14.581  15.006  10.653
 1485PROX    C211561  14.498  15.170  10.772
 1485PROX   H2111562  14.401  15.124  10.798
 1485PROX    C311563  14.470  15.257  10.652
 1485PROX   H3111564  14.571  15.286  10.615
 1485PROX   H3211565  14.436  15.195  10.566
 1485PROX   H3311566  14.410  15.347  10.676
 1486PROX    O111567  14.557  15.242  10.871
 1486PROX    C111568  14.454  15.300  10.949
 1486PROX   H1111569  14.411  15.388  10.896
 1486PROX   H1311570  14.380  15.224  10.979
 1486PROX    C211571  14.507  15.361  11.080
 1486PROX   H2111572  14.553  15.273  11.130
 1486PROX    C311573  14.385  15.411  11.169
 1486PROX   H3111574  14.349  15.509  11.131
 1486PROX   H3211575  14.299  15.341  11.172
 1486PROX   H3311576  14.419  15.421  11.274
 1487PROX    O111577  14.589  15.478  11.057
 1487PROX    C111578  14.709  15.471  11.128
 1487PROX   H1111579  14.764  15.379  11.100
 1487PROX   H1311580  14.772  15.555  11.091
 1487PROX    C211581  14.702  15.472  11.282
 1487PROX   H2111582  14.627  15.398  11.318
 1487PROX    C311583  14.663  15.605  11.346
 1487PROX   H3111584  14.642  15.598  11.455
 1487PROX   H3211585  14.743  15.681  11.333
 1487PROX   H3311586  14.572  15.645  11.298
 1488PROX    O111587  14.832  15.438  11.326
 1488PROX    C111588  14.833  15.371  11.456
 1488PROX   H1111589  14.794  15.447  11.527
 1488PROX   H1311590  14.775  15.277  11.453
 1488PROX    C211591  14.976  15.346  11.500
 1488PROX   H2111592  15.016  15.448  11.519
 1488PROX    C311593  15.064  15.274  11.396
 1488PROX   H3111594  15.054  15.326  11.299
 1488PROX   H3211595  15.170  15.270  11.430
 1488PROX   H3311596  15.025  15.174  11.368
 1489PROX    O111597  14.981  15.268  11.618
 1489PROX    C111598  14.925  15.331  11.739
 1489PROX   H1111599  14.814  15.334  11.747
 1489PROX   H1311600  14.951  15.263  11.823
 1489PROX    C211601  14.995  15.468  11.771
 1489PROX   H2111602  15.099  15.461  11.734
 1489PROX    C311603  14.986  15.512  11.918
 1489PROX   H3111604  15.026  15.424  11.971
 1489PROX   H3211605  15.055  15.596  11.938
 1489PROX   H3311606  14.880  15.529  11.947
 1490PROX    O111607  14.920  15.572  11.706
 1490PROX    C111608  14.974  15.703  11.712
 1490PROX   H1111609  14.939  15.752  11.804
 1490PROX   H1311610  15.085  15.708  11.705
 1490PROX    C211611  14.922  15.788  11.593
 1490PROX   H2111612  14.811  15.793  11.593
 1490PROX    C311613  14.966  15.733  11.459
 1490PROX   H3111614  14.935  15.628  11.444
 1490PROX   H3211615  14.924  15.776  11.366
 1490PROX   H3311616  15.076  15.727  11.452
 1491ETHO    O111617  14.980  15.921  11.602
 1491ETHO    C111618  14.899  16.004  11.687
 1491ETHO   H1111619  14.869  15.943  11.776
 1491ETHO   H1311620  14.809  16.026  11.626
 1491ETHO    C211621  14.973  16.131  11.743
 1491ETHO   H2111622  15.076  16.099  11.767
 1491ETHO   H2311623  14.917  16.165  11.833
 1492ETHO    O111624  14.972  16.230  11.642
 1492ETHO    C111625  14.988  16.361  11.688
 1492ETHO   H1111626  14.886  16.404  11.699
 1492ETHO   H1311627  15.041  16.371  11.785
 1492ETHO    C211628  15.058  16.459  11.593
 1492ETHO   H2111629  15.048  16.566  11.620
 1492ETHO   H2311630  15.010  16.467  11.494
 1493ETHO    O111631  15.190  16.421  11.569
 1493ETHO    C111632  15.261  16.522  11.490
 1493ETHO   H1111633  15.245  16.625  11.531
 1493ETHO   H1311634  15.219  16.529  11.388
 1493ETHO    C211635  15.414  16.501  11.474
 1493ETHO   H2111636  15.460  16.567  11.397
 1493ETHO   H2311637  15.428  16.393  11.452
 1494ETHO    O111638  15.478  16.530  11.593
 1494ETHO    C111639  15.616  16.487  11.584
 1494ETHO   H1111640  15.622  16.376  11.593
 1494ETHO   H1311641  15.665  16.522  11.491
 1494ETHO    C211642  15.691  16.547  11.698
 1494ETHO   H2111643  15.782  16.497  11.738
 1494ETHO   H2311644  15.621  16.545  11.785
 1495ETHO    O111645  15.715  16.689  11.671
 1495ETHO    C111646  15.827  16.714  11.591
 1495ETHO   H1111647  15.826  16.654  11.497
 1495ETHO   H1311648  15.917  16.681  11.647
 1495ETHO    C211649  15.836  16.865  11.546
 1495ETHO   H2111650  15.940  16.881  11.510
 1495ETHO   H2311651  15.809  16.937  11.626
 1496ETHO    O111652  15.760  16.884  11.430
 1496ETHO    C111653  15.623  16.909  11.462
 1496ETHO   H1111654  15.575  16.814  11.493
 1496ETHO   H1311655  15.605  16.989  11.537
 1496ETHO    C211656  15.536  16.956  11.341
 1496ETHO   H2111657  15.432  16.930  11.371
 1496ETHO   H2311658  15.572  16.901  11.251
 1497ETHO    O111659  15.557  17.099  11.316
 1497ETHO    C111660  15.464  17.149  11.220
 1497ETHO   H1111661  15.364  17.151  11.267
 1497ETHO   H1311662  15.465  17.080  11.134
 1497ETHO    C211663  15.511  17.286  11.162
 1497ETHO   H2111664  15.469  17.307  11.062
 1497ETHO   H2311665  15.621  17.274  11.154
 1498ETHO    O111666  15.477  17.396  11.244
 1498ETHO    C111667  15.544  17.385  11.374
 1498ETHO   H1111668  15.481  17.317  11.437
 1498ETHO   H1311669  15.643  17.342  11.348
 1498ETHO    C211670  15.557  17.523  11.444
 1498ETHO   H2111671  15.457  17.571  11.434
 1498ETHO   H2311672  15.571  17.504  11.553
 1499ETHO    O111673  15.655  17.616  11.402
 1499ETHO    C111674  15.626  17.675  11.273
 1499ETHO   H1111675  15.626  17.590  11.201
 1499ETHO   H1311676  15.533  17.734  11.280
 1499ETHO    C211677  15.745  17.754  11.207
 1499ETHO   H2111678  15.765  17.840  11.275
 1499ETHO   H2311679  15.711  17.800  11.111
 1500ETHO    O111680  15.862  17.683  11.177
 1500ETHO    C111681  15.968  17.771  11.158
 1500ETHO   H1111682  15.953  17.851  11.233
 1500ETHO   H1311683  16.065  17.719  11.171
 1500ETHO    C211684  15.986  17.818  11.006
 1500ETHO   H2111685  15.974  17.728  10.942
 1500ETHO   H2311686  16.093  17.846  10.995
 1501ETHO    O111687  15.910  17.933  10.966
 1501ETHO    C111688  15.907  17.943  10.824
 1501ETHO   H1111689  15.887  17.841  10.783
 1501ETHO   H1311690  15.817  18.006  10.803
 1501ETHO    C211691  16.034  17.999  10.760
 1501ETHO   H2111692  16.037  17.989  10.649
 1501ETHO   H2311693  16.125  17.953  10.804
 1502ETHO    O111694  16.042  18.141  10.782
 1502ETHO    C111695  15.985  18.205  10.671
 1502ETHO   H1111696  15.892  18.153  10.639
 1502ETHO   H1311697  16.063  18.189  10.593
 1502ETHO    C211698  15.964  18.356  10.685
 1502ETHO   H2111699  15.921  18.379  10.785
 1502ETHO   H2311700  15.895  18.403  10.611
 1503ETHO    O111701  16.092  18.425  10.674
 1503ETHO    C111702  16.096  18.550  10.742
 1503ETHO   H1111703  16.043  18.535  10.839
 1503ETHO   H1311704  16.200  18.579  10.768
 1503ETHO    C211705  16.020  18.666  10.669
 1503ETHO   H2111706  16.059  18.695  10.569
 1503ETHO   H2311707  16.038  18.755  10.732
 1504ETHO    O111708  15.878  18.647  10.648
 1504ETHO    C111709  15.790  18.714  10.736
 1504ETHO   H1111710  15.811  18.822  10.724
 1504ETHO   H1311711  15.816  18.677  10.838
 1504ETHO    C211712  15.642  18.704  10.689
 1504ETHO   H2111713  15.561  18.742  10.755
 1504ETHO   H2311714  15.631  18.595  10.678
 1505ETHO    O111715  15.622  18.776  10.563
 1505ETHO    C111716  15.496  18.750  10.500
 1505ETHO   H1111717  15.489  18.643  10.470
 1505ETHO   H1311718  15.422  18.772  10.579
 1505ETHO    C211719  15.484  18.842  10.380
 1505ETHO   H2111720  15.547  18.815  10.293
 1505ETHO   H2311721  15.506  18.943  10.420
 1506ETHO    O111722  15.355  18.858  10.321
 1506ETHO    C111723  15.370  18.898  10.186
 1506ETHO   H1111724  15.454  18.971  10.174
 1506ETHO   H1311725  15.273  18.945  10.158
 1506ETHO    C211726  15.376  18.784  10.081
 1506ETHO   H2111727  15.338  18.826   9.986
 1506ETHO   H2311728  15.310  18.698  10.106
 1507ETHO    O111729  15.511  18.739  10.070
 1507ETHO    C111730  15.539  18.647   9.969
 1507ETHO   H1111731  15.467  18.563   9.961
 1507ETHO   H1311732  15.549  18.699   9.871
 1507ETHO    C211733  15.672  18.584   9.994
 1507ETHO   H2111734  15.751  18.661  10.005
 1507ETHO   H2311735  15.702  18.518   9.910
 1508ETHO    O111736  15.695  18.496  10.106
 1508ETHO    C111737  15.715  18.563  10.221
 1508ETHO   H1111738  15.635  18.639  10.231
 1508ETHO   H1311739  15.809  18.618  10.198
 1508ETHO    C211740  15.726  18.469  10.345
 1508ETHO   H2111741  15.775  18.528  10.425
 1508ETHO   H2311742  15.798  18.385  10.339
 1509ETHO    O111743  15.593  18.430  10.393
 1509ETHO    C111744  15.593  18.339  10.506
 1509ETHO   H1111745  15.635  18.248  10.458
 1509ETHO   H1311746  15.652  18.387  10.588
 1509ETHO    C211747  15.455  18.299  10.570
 1509ETHO   H2111748  15.477  18.215  10.638
 1509ETHO   H2311749  15.375  18.266  10.500
 1510ETHO    O111750  15.404  18.399  10.663
 1510ETHO    C111751  15.278  18.363  10.718
 1510ETHO   H1111752  15.240  18.269  10.673
 1510ETHO   H1311753  15.290  18.353  10.828
 1510ETHO    C211754  15.173  18.469  10.684
 1510ETHO   H2111755  15.210  18.574  10.684
 1510ETHO   H2311756  15.089  18.459  10.756
 1511ETHO    O111757  15.117  18.444  10.556
 1511ETHO    C111758  15.004  18.532  10.530
 1511ETHO   H1111759  15.001  18.623  10.595
 1511ETHO   H1311760  15.012  18.575  10.428
 1511ETHO    C211761  14.865  18.472  10.561
 1511ETHO   H2111762  14.854  18.372  10.513
 1511ETHO   H2311763  14.795  18.530  10.496
 1512ETHO    O111764  14.822  18.491  10.699
 1512ETHO    C111765  14.685  18.455  10.715
 1512ETHO   H1111766  14.669  18.476  10.823
 1512ETHO   H1311767  14.618  18.520  10.655
 1512ETHO    C211768  14.664  18.294  10.706
 1512ETHO   H2111769  14.766  18.254  10.726
 1512ETHO   H2311770  14.651  18.256  10.602
 1513ETHO    O111771  14.574  18.240  10.794
 1513ETHO    C111772  14.581  18.096  10.786
 1513ETHO   H1111773  14.685  18.057  10.796
 1513ETHO   H1311774  14.548  18.070  10.684
 1513ETHO    C211775  14.505  18.033  10.907
 1513ETHO   H2111776  14.507  17.929  10.868
 1513ETHO   H2311777  14.400  18.068  10.921
 1514ETHO    O111778  14.554  18.045  11.039
 1514ETHO    C111779  14.645  17.934  11.072
 1514ETHO   H1111780  14.588  17.841  11.094
 1514ETHO   H1311781  14.722  17.929  10.993
 1514ETHO    C211782  14.712  17.967  11.212
 1514ETHO   H2111783  14.755  17.873  11.250
 1514ETHO   H2311784  14.624  17.992  11.275
 1515ETHO    O111785  14.805  18.083  11.219
 1515ETHO    C111786  14.862  18.093  11.344
 1515ETHO   H1111787  14.876  17.992  11.388
 1515ETHO   H1311788  14.793  18.148  11.411
 1515ETHO    C211789  14.995  18.171  11.364
 1515ETHO   H2111790  15.068  18.119  11.299
 1515ETHO   H2311791  15.024  18.168  11.472
 1516ETHO    O111792  14.991  18.311  11.330
 1516ETHO    C111793  14.993  18.401  11.444
 1516ETHO   H1111794  14.899  18.387  11.501
 1516ETHO   H1311795  15.078  18.383  11.514
 1516ETHO    C211796  15.007  18.548  11.409
 1516ETHO   H2111797  15.008  18.613  11.499
 1516ETHO   H2311798  14.919  18.566  11.343
 1517ETHO    O111799  15.125  18.580  11.336
 1517ETHO    C111800  15.120  18.724  11.321
 1517ETHO   H1111801  15.111  18.772  11.421
 1517ETHO   H1311802  15.030  18.751  11.261
 1517ETHO    C211803  15.242  18.786  11.249
 1517ETHO   H2111804  15.213  18.892  11.231
 1517ETHO   H2311805  15.276  18.743  11.152
 1518ETHO    O111806  15.361  18.788  11.330
 1518ETHO    C111807  15.452  18.889  11.285
 1518ETHO   H1111808  15.424  18.925  11.184
 1518ETHO   H1311809  15.449  18.981  11.348
 1518ETHO    C211810  15.594  18.838  11.273
 1518ETHO   H2111811  15.616  18.794  11.372
 1518ETHO   H2311812  15.658  18.920  11.234
 1519ETHO    O111813  15.581  18.734  11.177
 1519ETHO    C111814  15.690  18.645  11.180
 1519ETHO   H1111815  15.679  18.591  11.276
 1519ETHO   H1311816  15.787  18.697  11.193
 1519ETHO    C211817  15.695  18.535  11.077
 1519ETHO   H2111818  15.785  18.471  11.093
 1519ETHO   H2311819  15.698  18.586  10.979
 1520ETHO    O111820  15.582  18.455  11.084
 1520ETHO    C111821  15.596  18.349  10.988
 1520ETHO   H1111822  15.586  18.386  10.884
 1520ETHO   H1311823  15.690  18.290  10.996
 1520ETHO    C211824  15.493  18.240  11.005
 1520ETHO   H2111825  15.486  18.177  10.914
 1520ETHO   H2311826  15.393  18.287  11.006
 1521ETHO    O111827  15.525  18.160  11.115
 1521ETHO    C111828  15.465  18.025  11.105
 1521ETHO   H1111829  15.517  17.979  11.019
 1521ETHO   H1311830  15.499  17.964  11.192
 1521ETHO    C211831  15.313  18.034  11.084
 1521ETHO   H2111832  15.272  18.097  11.166
 1521ETHO   H2311833  15.276  17.930  11.097
 1522ETHO    O111834  15.254  18.077  10.956
 1522ETHO    C111835  15.110  18.061  10.973
 1522ETHO   H1111836  15.099  17.951  10.975
 1522ETHO   H1311837  15.067  18.108  11.064
 1522ETHO    C211838  15.024  18.108  10.843
 1522ETHO   H2111839  15.035  18.218  10.839
 1522ETHO   H2311840  14.917  18.089  10.864
 1523ETHO    O111841  15.069  18.047  10.724
 1523ETHO    C111842  15.007  18.102  10.605
 1523ETHO   H1111843  14.906  18.062  10.582
 1523ETHO   H1311844  15.005  18.212  10.622
 1523ETHO    C211845  15.105  18.070  10.487
 1523ETHO   H2111846  15.211  18.095  10.507
 1523ETHO   H2311847  15.080  18.133  10.399
 1524ETHO    O111848  15.089  17.933  10.446
 1524ETHO    C111849  15.166  17.889  10.335
 1524ETHO   H1111850  15.271  17.916  10.360
 1524ETHO   H1311851  15.136  17.924  10.233
 1524ETHO    C211852  15.155  17.736  10.333
 1524ETHO   H2111853  15.142  17.703  10.438
 1524ETHO   H2311854  15.237  17.692  10.272
 1525ETHO    O111855  15.040  17.696  10.267
 1525ETHO    C111856  15.032  17.559  10.260
 1525ETHO   H1111857  15.085  17.513  10.174
 1525ETHO   H1311858  15.064  17.517  10.357
 1525ETHO    C211859  14.881  17.526  10.240
 1525ETHO   H2111860  14.824  17.569  10.325
 1525ETHO   H2311861  14.864  17.416  10.237
 1526ETHO    O111862  14.829  17.586  10.125
 1526ETHO    C111863  14.737  17.694  10.156
 1526ETHO   H1111864  14.790  17.771  10.218
 1526ETHO   H1311865  14.643  17.665  10.207
 1526ETHO    C211866  14.683  17.751  10.017
 1526ETHO   H2111867  14.772  17.775   9.955
 1526ETHO   H2311868  14.635  17.850  10.038
 1527ETHO    O111869  14.582  17.674   9.953
 1527ETHO    C111870  14.524  17.754   9.848
 1527ETHO   H1111871  14.428  17.712   9.812
 1527ETHO   H1311872  14.506  17.861   9.871
 1527ETHO    C211873  14.609  17.740   9.722
 1527ETHO   H2111874  14.716  17.758   9.741
 1527ETHO   H2311875  14.581  17.807   9.638
 1528ETHO    O111876  14.585  17.616   9.655
 1528ETHO    C111877  14.666  17.593   9.539
 1528ETHO   H1111878  14.767  17.622   9.573
 1528ETHO   H1311879  14.621  17.644   9.451
 1528ETHO    C211880  14.667  17.440   9.507
 1528ETHO   H2111881  14.691  17.374   9.593
 1528ETHO   H2311882  14.761  17.432   9.447
 1529ETHO    O111883  14.550  17.377   9.445
 1529ETHO    C111884  14.433  17.394   9.522
 1529ETHO   H1111885  14.450  17.336   9.615
 1529ETHO   H1311886  14.409  17.502   9.536
 1529ETHO    C211887  14.317  17.321   9.446
 1529ETHO   H2111888  14.238  17.307   9.523
 1529ETHO   H2311889  14.325  17.217   9.406
 1530ETHO    O111890  14.264  17.409   9.349
 1530ETHO    C111891  14.117  17.411   9.345
 1530ETHO   H1111892  14.077  17.477   9.425
 1530ETHO   H1311893  14.074  17.311   9.363
 1530ETHO    C211894  14.061  17.475   9.215
 1530ETHO   H2111895  14.107  17.574   9.196
 1530ETHO   H2311896  13.951  17.487   9.230
 1531ETHO    O111897  14.102  17.397   9.099
 1531ETHO    C111898  14.075  17.458   8.976
 1531ETHO   H1111899  13.983  17.518   8.988
 1531ETHO   H1311900  14.153  17.531   8.944
 1531ETHO    C211901  14.040  17.369   8.863
 1531ETHO   H2111902  14.127  17.326   8.809
 1531ETHO   H2311903  13.983  17.285   8.907
 1532ETHO    O111904  13.950  17.434   8.768
 1532ETHO    C111905  13.916  17.354   8.658
 1532ETHO   H1111906  13.879  17.254   8.689
 1532ETHO   H1311907  14.001  17.341   8.587
 1532ETHO    C211908  13.792  17.410   8.574
 1532ETHO   H2111909  13.749  17.327   8.514
 1532ETHO   H2311910  13.835  17.491   8.512
 1533ETHO    O111911  13.687  17.459   8.655
 1533ETHO    C111912  13.611  17.352   8.698
 1533ETHO   H1111913  13.569  17.296   8.612
 1533ETHO   H1311914  13.675  17.276   8.749
 1533ETHO    C211915  13.491  17.380   8.794
 1533ETHO   H2111916  13.432  17.286   8.801
 1533ETHO   H2311917  13.424  17.457   8.749
 1534ETHO    O111918  13.536  17.422   8.917
 1534ETHO    C111919  13.429  17.427   9.010
 1534ETHO   H1111920  13.361  17.339   9.006
 1534ETHO   H1311921  13.373  17.520   8.982
 1534ETHO    C211922  13.485  17.442   9.154
 1534ETHO   H2111923  13.408  17.477   9.227
 1534ETHO   H2311924  13.568  17.514   9.140
 1535ETHO    O111925  13.541  17.334   9.216
 1535ETHO    C111926  13.448  17.244   9.276
 1535ETHO   H1111927  13.394  17.289   9.362
 1535ETHO   H1311928  13.360  17.235   9.209
 1535ETHO    C211929  13.513  17.107   9.329
 1535ETHO   H2111930  13.569  17.057   9.248
 1535ETHO   H2311931  13.434  17.038   9.366
 1536ETHO    O111932  13.598  17.140   9.444
 1536ETHO    C111933  13.671  17.026   9.480
 1536ETHO   H1111934  13.597  16.944   9.491
 1536ETHO   H1311935  13.740  17.007   9.395
 1536ETHO    C211936  13.754  17.040   9.607
 1536ETHO   H2111937  13.689  17.042   9.697
 1536ETHO   H2311938  13.821  17.128   9.613
 1537ETHO    O111939  13.817  16.912   9.619
 1537ETHO    C111940  13.929  16.911   9.713
 1537ETHO   H1111941  13.996  16.999   9.704
 1537ETHO   H1311942  13.882  16.915   9.814
 1537ETHO    C211943  14.010  16.784   9.698
 1537ETHO   H2111944  14.083  16.789   9.781
 1537ETHO   H2311945  14.062  16.787   9.600
 1538ETHO    O111946  13.938  16.663   9.726
 1538ETHO    C111947  14.024  16.548   9.729
 1538ETHO   H1111948  14.096  16.553   9.645
 1538ETHO   H1311949  14.079  16.545   9.826
 1538ETHO    C211950  13.947  16.419   9.721
 1538ETHO   H2111951  13.861  16.428   9.790
 1538ETHO   H2311952  14.008  16.331   9.749
 1539ETHO    O111953  13.919  16.408   9.578
 1539ETHO    C111954  13.834  16.298   9.555
 1539ETHO   H1111955  13.728  16.330   9.557
 1539ETHO   H1311956  13.851  16.227   9.639
 1539ETHO    C211957  13.865  16.224   9.426
 1539ETHO   H2111958  13.882  16.291   9.339
 1539ETHO   H2311959  13.781  16.153   9.414
 1540ETHO    O111960  13.986  16.151   9.434
 1540ETHO    C111961  14.012  16.073   9.318
 1540ETHO   H1111962  13.918  16.019   9.292
 1540ETHO   H1311963  14.015  16.144   9.233
 1540ETHO    C211964  14.126  15.971   9.325
 1540ETHO   H2111965  14.217  16.028   9.353
 1540ETHO   H2311966  14.145  15.928   9.224
 1541ETHO    O111967  14.125  15.868   9.417
 1541ETHO    C111968  14.261  15.814   9.427
 1541ETHO   H1111969  14.336  15.895   9.443
 1541ETHO   H1311970  14.280  15.762   9.332
 1541ETHO    C211971  14.256  15.710   9.540
 1541ETHO   H2111972  14.358  15.668   9.550
 1541ETHO   H2311973  14.185  15.630   9.511
 1542ETHO    O111974  14.220  15.753   9.669
 1542ETHO    C111975  14.200  15.642   9.756
 1542ETHO   H1111976  14.125  15.574   9.709
 1542ETHO   H1311977  14.294  15.588   9.777
 1542ETHO    C211978  14.143  15.706   9.883
 1542ETHO   H2111979  14.059  15.768   9.845
 1542ETHO   H2311980  14.218  15.773   9.930
 1543ETHO    O111981  14.092  15.607   9.981
 1543ETHO    C111982  14.002  15.666  10.068
 1543ETHO   H1111983  13.924  15.724  10.013
 1543ETHO   H1311984  14.053  15.738  10.136
 1543ETHO    C211985  13.940  15.574  10.170
 1543ETHO   H2111986  13.895  15.616  10.262
 1543ETHO   H2311987  14.014  15.502  10.211
 1544ETHO    O111988  13.842  15.496  10.106
 1544ETHO    C111989  13.767  15.425  10.202
 1544ETHO   H1111990  13.720  15.494  10.275
 1544ETHO   H1311991  13.686  15.374  10.145
 1544ETHO    C211992  13.849  15.312  10.279
 1544ETHO   H2111993  13.865  15.229  10.207
 1544ETHO   H2311994  13.783  15.279  10.362
 1545ETHO    O111995  13.957  15.347  10.369
 1545ETHO    C111996  14.035  15.239  10.423
 1545ETHO   H1111997  14.090  15.205  10.333
 1545ETHO   H1311998  13.978  15.149  10.454
 1545ETHO    C211999  14.112  15.292  10.546
 1545ETHO   H2112000  14.107  15.403  10.545
 1545ETHO   H2312001  14.217  15.256  10.536
 1546ETHO    O112002  14.065  15.248  10.672
 1546ETHO    C112003  14.116  15.327  10.781
 1546ETHO   H1112004  14.227  15.326  10.785
 1546ETHO   H1312005  14.076  15.430  10.769
 1546ETHO    C212006  14.051  15.287  10.919
 1546ETHO   H2112007  13.943  15.270  10.896
 1546ETHO   H2312008  14.046  15.386  10.970
 1547ETHO    O112009  14.124  15.186  10.986
 1547ETHO    C112010  14.054  15.169  11.111
 1547ETHO   H1112011  14.077  15.260  11.172
 1547ETHO   H1312012  13.947  15.173  11.081
 1547ETHO    C212013  14.094  15.036  11.178
 1547ETHO   H2112014  14.113  14.957  11.103
 1547ETHO   H2312015  14.001  15.007  11.232
 1548ETHO    O112016  14.203  15.043  11.273
 1548ETHO    C112017  14.325  15.043  11.215
 1548ETHO   H1112018  14.338  14.974  11.130
 1548ETHO   H1312019  14.354  15.144  11.177
 1548ETHO    C212020  14.425  14.996  11.318
 1548ETHO   H2112021  14.436  14.886  11.306
 1548ETHO   H2312022  14.388  15.022  11.419
 1549ETHO    O112023  14.543  15.062  11.289
 1549ETHO    C112024  14.624  15.006  11.190
 1549ETHO   H1112025  14.666  14.912  11.231
 1549ETHO   H1312026  14.563  14.966  11.106
 1549ETHO    C212027  14.742  15.093  11.160
 1549ETHO   H2112028  14.769  15.157  11.246
 1549ETHO   H2312029  14.715  15.158  11.074
 1550ETHO    O112030  14.855  15.018  11.135
 1550ETHO    C112031  14.957  15.105  11.080
 1550ETHO   H1112032  15.049  15.076  11.135
 1550ETHO   H1312033  14.931  15.211  11.100
 1550ETHO    C212034  14.973  15.095  10.928
 1550ETHO   H2112035  14.875  15.066  10.885
 1550ETHO   H2312036  15.041  15.017  10.890
 1551ETHO    O112037  15.005  15.221  10.872
 1551ETHO    C112038  14.968  15.215  10.732
 1551ETHO   H1112039  15.044  15.154  10.679
 1551ETHO   H1312040  14.869  15.169  10.711
 1551ETHO    C212041  14.978  15.361  10.662
 1551ETHO   H2112042  15.000  15.341  10.555
 1551ETHO   H2312043  15.064  15.414  10.707
 1552ETHO    O112044  14.857  15.445  10.667
 1552ETHO    C112045  14.847  15.503  10.790
 1552ETHO   H1112046  14.937  15.565  10.812
 1552ETHO   H1312047  14.840  15.430  10.874
 1552ETHO    C212048  14.714  15.594  10.790
 1552ETHO   H2112049  14.683  15.614  10.894
 1552ETHO   H2312050  14.638  15.525  10.748
 1553ETHO    O112051  14.725  15.719  10.716
 1553ETHO    C112052  14.781  15.826  10.793
 1553ETHO   H1112053  14.733  15.848  10.891
 1553ETHO   H1312054  14.886  15.791  10.808
 1553ETHO    C212055  14.776  15.964  10.726
 1553ETHO   H2112056  14.799  15.971  10.617
 1553ETHO   H2312057  14.850  16.019  10.788
 1554ETHO    O112058  14.645  16.032  10.744
 1554ETHO    C112059  14.544  15.969  10.663
 1554ETHO   H1112060  14.515  15.877  10.719
 1554ETHO   H1312061  14.585  15.945  10.563
 1554ETHO    C212062  14.411  16.045  10.656
 1554ETHO   H2112063  14.360  16.050  10.755
 1554ETHO   H2312064  14.359  15.995  10.572
 1555ETHO    O112065  14.427  16.183  10.603
 1555ETHO    C112066  14.447  16.273  10.706
 1555ETHO   H1112067  14.352  16.302  10.757
 1555ETHO   H1312068  14.520  16.234  10.780
 1555ETHO    C212069  14.520  16.400  10.649
 1555ETHO   H2112070  14.616  16.366  10.605
 1555ETHO   H2312071  14.512  16.487  10.717
 1556ETHO    O112072  14.434  16.457  10.543
 1556ETHO    C112073  14.476  16.591  10.508
 1556ETHO   H1112074  14.483  16.644  10.606
 1556ETHO   H1312075  14.406  16.638  10.435
 1556ETHO    C212076  14.614  16.599  10.443
 1556ETHO   H2112077  14.695  16.564  10.510
 1556ETHO   H2312078  14.639  16.703  10.413
 1557ETHO    O112079  14.628  16.513  10.329
 1557ETHO    C112080  14.762  16.498  10.292
 1557ETHO   H1112081  14.764  16.474  10.184
 1557ETHO   H1312082  14.808  16.596  10.316
 1557ETHO    C212083  14.819  16.378  10.360
 1557ETHO   H2112084  14.739  16.303  10.377
 1557ETHO   H2312085  14.853  16.400  10.464
 1558ETHO    O112086  14.920  16.325  10.279
 1558ETHO    C112087  14.966  16.208  10.346
 1558ETHO   H1112088  15.020  16.245  10.435
 1558ETHO   H1312089  14.879  16.146  10.375
 1558ETHO    C212090  15.065  16.130  10.257
 1558ETHO   H2112091  15.132  16.067  10.319
 1558ETHO   H2312092  15.118  16.207  10.198
 1559ETHO    O112093  14.984  16.060  10.164
 1559ETHO    C112094  15.055  16.021  10.046
 1559ETHO   H1112095  15.140  15.957  10.079
 1559ETHO   H1312096  14.993  15.954   9.984
 1559ETHO    C212097  15.107  16.138   9.958
 1559ETHO   H2112098  15.021  16.208   9.948
 1559ETHO   H2312099  15.123  16.094   9.857
 1560ETHO    O112100  15.228  16.207   9.996
 1560ETHO    C112101  15.349  16.144   9.944
 1560ETHO   H1112102  15.442  16.181   9.993
 1560ETHO   H1312103  15.331  16.038   9.970
 1560ETHO    C212104  15.380  16.172   9.792
 1560ETHO   H2112105  15.283  16.160   9.739
 1560ETHO   H2312106  15.452  16.096   9.754
 1561ETHO    O112107  15.421  16.305   9.770
 1561ETHO    C112108  15.549  16.333   9.810
 1561ETHO   H1112109  15.617  16.257   9.766
 1561ETHO   H1312110  15.563  16.317   9.919
 1561ETHO    C212111  15.596  16.478   9.777
 1561ETHO   H2112112  15.682  16.500   9.844
 1561ETHO   H2312113  15.520  16.553   9.810
 1562ETHO    O112114  15.627  16.484   9.637
 1562ETHO    C112115  15.518  16.518   9.541
 1562ETHO   H1112116  15.482  16.428   9.486
 1562ETHO   H1312117  15.436  16.572   9.594
 1562ETHO    C212118  15.559  16.638   9.446
 1562ETHO   H2112119  15.472  16.662   9.382
 1562ETHO   H2312120  15.644  16.611   9.380
 1563ETHO    O112121  15.584  16.751   9.525
 1563ETHO    C112122  15.651  16.850   9.451
 1563ETHO   H1112123  15.583  16.897   9.377
 1563ETHO   H1312124  15.739  16.809   9.396
 1563ETHO    C212125  15.701  16.974   9.525
 1563ETHO   H2112126  15.632  17.027   9.594
 1563ETHO   H2312127  15.713  17.039   9.436
 1564ETHO    O112128  15.827  16.960   9.596
 1564ETHO    C112129  15.885  17.086   9.633
 1564ETHO   H1112130  15.891  17.159   9.549
 1564ETHO   H1312131  15.804  17.134   9.692
 1564ETHO    C212132  16.014  17.073   9.714
 1564ETHO   H2112133  16.054  17.171   9.747
 1564ETHO   H2312134  16.004  17.007   9.802
 1565ETHO    O112135  16.114  17.012   9.636
 1565ETHO    C112136  16.233  16.982   9.701
 1565ETHO   H1112137  16.217  16.909   9.783
 1565ETHO   H1312138  16.272  17.074   9.751
 1565ETHO    C212139  16.328  16.916   9.605
 1565ETHO   H2112140  16.279  16.823   9.571
 1565ETHO   H2312141  16.416  16.890   9.667
 1566ETHO    O112142  16.370  16.996   9.499
 1566ETHO    C112143  16.426  16.923   9.390
 1566ETHO   H1112144  16.533  16.899   9.408
 1566ETHO   H1312145  16.385  16.820   9.394
 1566ETHO    C212146  16.406  16.988   9.254
 1566ETHO   H2112147  16.304  17.031   9.247
 1566ETHO   H2312148  16.420  16.918   9.169
 1567ETHO    O112149  16.498  17.091   9.228
 1567ETHO    C112150  16.485  17.173   9.112
 1567ETHO   H1112151  16.375  17.186   9.099
 1567ETHO   H1312152  16.525  17.110   9.030
 1567ETHO    C212153  16.568  17.303   9.110
 1567ETHO   H2112154  16.545  17.360   9.203
 1567ETHO   H2312155  16.528  17.361   9.024
 1568ETHO    O112156  16.710  17.280   9.089
 1568ETHO    C112157  16.780  17.389   9.035
 1568ETHO   H1112158  16.742  17.431   8.939
 1568ETHO   H1312159  16.779  17.475   9.106
 1568ETHO    C212160  16.928  17.352   9.018
 1568ETHO   H2112161  16.948  17.285   9.104
 1568ETHO   H2312162  16.990  17.442   9.037
 1569ETHO    O112163  16.967  17.289   8.894
 1569ETHO    C112164  16.921  17.156   8.871
 1569ETHO   H1112165  16.811  17.145   8.862
 1569ETHO   H1312166  16.969  17.084   8.940
 1569ETHO    C212167  16.966  17.130   8.726
 1569ETHO   H2112168  16.986  17.021   8.712
 1569ETHO   H2312169  17.070  17.169   8.724
 1570ETHO    O112170  16.891  17.184   8.623
 1570ETHO    C112171  16.953  17.165   8.495
 1570ETHO   H1112172  17.062  17.167   8.512
 1570ETHO   H1312173  16.910  17.066   8.468
 1570ETHO    C212174  16.912  17.275   8.392
 1570ETHO   H2112175  16.975  17.256   8.302
 1570ETHO   H2312176  16.943  17.377   8.420
 1571ETHO    O112177  16.773  17.268   8.370
 1571ETHO    C112178  16.730  17.387   8.302
 1571ETHO   H1112179  16.788  17.398   8.208
 1571ETHO   H1312180  16.747  17.474   8.370
 1571ETHO    C212181  16.582  17.383   8.274
 1571ETHO   H2112182  16.546  17.487   8.260
 1571ETHO   H2312183  16.534  17.339   8.364
 1572ETHO    O112184  16.553  17.288   8.170
 1572ETHO    C112185  16.414  17.258   8.151
 1572ETHO   H1112186  16.412  17.158   8.105
 1572ETHO   H1312187  16.356  17.246   8.246
 1572ETHO    C212188  16.339  17.364   8.075
 1572ETHO   H2112189  16.387  17.393   7.979
 1572ETHO   H2312190  16.237  17.327   8.049
 1573ETHO    O112191  16.332  17.481   8.151
 1573ETHO    C112192  16.242  17.573   8.100
 1573ETHO   H1112193  16.269  17.577   7.992
 1573ETHO   H1312194  16.136  17.548   8.120
 1573ETHO    C212195  16.258  17.712   8.162
 1573ETHO   H2112196  16.184  17.775   8.108
 1573ETHO   H2312197  16.364  17.745   8.147
 1574ETHO    O112198  16.215  17.710   8.295
 1574ETHO    C112199  16.239  17.839   8.353
 1574ETHO   H1112200  16.347  17.866   8.352
 1574ETHO   H1312201  16.188  17.923   8.300
 1574ETHO    C212202  16.194  17.837   8.501
 1574ETHO   H2112203  16.234  17.931   8.546
 1574ETHO   H2312204  16.241  17.753   8.556
 1575ETHO    O112205  16.054  17.838   8.492
 1575ETHO    C112206  15.993  17.847   8.626
 1575ETHO   H1112207  15.889  17.813   8.605
 1575ETHO   H1312208  16.033  17.772   8.697
 1575ETHO    C212209  15.992  17.995   8.679
 1575ETHO   H2112210  15.904  17.992   8.747
 1575ETHO   H2312211  15.971  18.051   8.586
 1576ETHO    O112212  16.105  18.038   8.750
 1576ETHO    C112213  16.103  18.185   8.758
 1576ETHO   H1112214  16.000  18.212   8.788
 1576ETHO   H1312215  16.108  18.232   8.657
 1576ETHO    C212216  16.219  18.239   8.833
 1576ETHO   H2112217  16.225  18.209   8.940
 1576ETHO   H2312218  16.212  18.350   8.831
 1577ETHO    O112219  16.344  18.206   8.777
 1577ETHO    C112220  16.445  18.284   8.840
 1577ETHO   H1112221  16.408  18.385   8.868
 1577ETHO   H1312222  16.460  18.236   8.938
 1577ETHO    C212223  16.564  18.294   8.746
 1577ETHO   H2112224  16.649  18.336   8.804
 1577ETHO   H2312225  16.533  18.362   8.664
 1578ETHO    O112226  16.608  18.168   8.698
 1578ETHO    C112227  16.740  18.176   8.648
 1578ETHO   H1112228  16.814  18.186   8.729
 1578ETHO   H1312229  16.742  18.259   8.575
 1578ETHO    C212230  16.773  18.046   8.564
 1578ETHO   H2112231  16.868  18.052   8.506
 1578ETHO   H2312232  16.698  18.041   8.482
 1579ETHO    O112233  16.771  17.923   8.638
 1579ETHO    C112234  16.838  17.834   8.555
 1579ETHO   H1112235  16.774  17.803   8.471
 1579ETHO   H1312236  16.936  17.862   8.510
 1579ETHO    C212237  16.874  17.704   8.633
 1579ETHO   H2112238  16.898  17.625   8.560
 1579ETHO   H2312239  16.796  17.657   8.696
 1580ETHO    O112240  16.991  17.724   8.714
 1580ETHO    C112241  17.047  17.602   8.761
 1580ETHO   H1112242  17.082  17.543   8.674
 1580ETHO   H1312243  16.962  17.555   8.815
 1580ETHO    C212244  17.161  17.625   8.860
 1580ETHO   H2112245  17.173  17.535   8.924
 1580ETHO   H2312246  17.137  17.717   8.917
 1581ETHO    O112247  17.282  17.651   8.787
 1581ETHO    C112248  17.399  17.666   8.862
 1581ETHO   H1112249  17.389  17.762   8.917
 1581ETHO   H1312250  17.413  17.579   8.930
 1581ETHO    C212251  17.529  17.666   8.771
 1581ETHO   H2112252  17.617  17.694   8.833
 1581ETHO   H2312253  17.519  17.749   8.698
 1582ETHO    O112254  17.551  17.539   8.713
 1582ETHO    C112255  17.678  17.547   8.647
 1582ETHO   H1112256  17.759  17.565   8.721
 1582ETHO   H1312257  17.674  17.632   8.575
 1582ETHO    C212258  17.711  17.415   8.583
 1582ETHO   H2112259  17.694  17.331   8.653
 1582ETHO   H2312260  17.817  17.388   8.562
 1583ETHO    O112261  17.640  17.403   8.459
 1583ETHO    C112262  17.691  17.296   8.383
 1583ETHO   H1112263  17.740  17.229   8.457
 1583ETHO   H1312264  17.608  17.243   8.333
 1583ETHO    C212265  17.800  17.333   8.286
 1583ETHO   H2112266  17.760  17.397   8.205
 1583ETHO   H2312267  17.835  17.241   8.233
 1584ETHO    O112268  17.920  17.388   8.343
 1584ETHO    C112269  17.913  17.531   8.341
 1584ETHO   H1112270  17.868  17.568   8.247
 1584ETHO   H1312271  17.859  17.569   8.431
 1584ETHO    C212272  18.062  17.591   8.335
 1584ETHO   H2112273  18.048  17.701   8.331
 1584ETHO   H2312274  18.112  17.560   8.241
 1585ETHO    O112275  18.132  17.548   8.450
 1585ETHO    C112276  18.111  17.634   8.561
 1585ETHO   H1112277  18.169  17.729   8.566
 1585ETHO   H1312278  18.003  17.658   8.566
 1585ETHO    C212279  18.130  17.547   8.685
 1585ETHO   H2112280  18.106  17.601   8.779
 1585ETHO   H2312281  18.240  17.534   8.678
 1586ETHO    O112282  18.058  17.424   8.686
 1586ETHO    C112283  18.067  17.361   8.818
 1586ETHO   H1112284  18.174  17.341   8.840
 1586ETHO   H1312285  18.026  17.430   8.895
 1586ETHO    C212286  17.992  17.226   8.814
 1586ETHO   H2112287  18.027  17.166   8.900
 1586ETHO   H2312288  18.016  17.173   8.720
 1587ETHO    O112289  17.856  17.228   8.824
 1587ETHO    C112290  17.809  17.103   8.873
 1587ETHO   H1112291  17.839  17.086   8.979
 1587ETHO   H1312292  17.830  17.023   8.798
 1587ETHO    C212293  17.648  17.094   8.882
 1587ETHO   H2112294  17.608  16.991   8.881
 1587ETHO   H2312295  17.609  17.130   8.784
 1588ETHO    O112296  17.579  17.165   8.980
 1588ETHO    C112297  17.434  17.166   8.970
 1588ETHO   H1112298  17.395  17.199   9.068
 1588ETHO   H1312299  17.404  17.060   8.956
 1588ETHO    C212300  17.381  17.255   8.865
 1588ETHO   H2112301  17.445  17.345   8.858
 1588ETHO   H2312302  17.281  17.291   8.896
 1589ETHO    O112303  17.365  17.177   8.749
 1589ETHO    C112304  17.333  17.256   8.635
 1589ETHO   H1112305  17.401  17.342   8.622
 1589ETHO   H1312306  17.225  17.285   8.633
 1589ETHO    C212307  17.363  17.175   8.498
 1589ETHO   H2112308  17.465  17.132   8.511
 1589ETHO   H2312309  17.344  17.234   8.406
 1590ETHO    O112310  17.271  17.066   8.499
 1590ETHO    C112311  17.282  16.983   8.383
 1590ETHO   H1112312  17.386  16.961   8.349
 1590ETHO   H1312313  17.245  16.880   8.398
 1590ETHO    C212314  17.201  17.044   8.261
 1590ETHO   H2112315  17.232  17.143   8.221
 1590ETHO   H2312316  17.096  17.050   8.295
 1590ETHO    OZ12317  17.204  16.955   8.148
 1590ETHO   HZ112318  17.115  16.922   8.135
 1591ETHO    O112319   8.999  18.860  18.142
 1591ETHO   HO112320   8.935  18.903  18.085
 1591ETHO    C112321   9.095  18.786  18.068
 1591ETHO   H1112322   9.128  18.838  17.976
 1591ETHO   H1312323   9.044  18.692  18.037
 1591ETHO    C212324   9.215  18.740  18.147
 1591ETHO   H2112325   9.251  18.829  18.204
 1591ETHO   H2312326   9.294  18.711  18.074
 1592ETHO    O112327   9.183  18.629  18.234
 1592ETHO    C112328   9.275  18.525  18.224
 1592ETHO   H1112329   9.287  18.494  18.118
 1592ETHO   H1312330   9.374  18.558  18.261
 1592ETHO    C212331   9.205  18.421  18.319
 1592ETHO   H2112332   9.111  18.387  18.271
 1592ETHO   H2312333   9.175  18.470  18.414
 1593ETHO    O112334   9.271  18.310  18.353
 1593ETHO    C112335   9.192  18.222  18.439
 1593ETHO   H1112336   9.085  18.213  18.408
 1593ETHO   H1312337   9.193  18.279  18.535
 1593ETHO    C212338   9.256  18.085  18.451
 1593ETHO   H2112339   9.216  18.017  18.530
 1593ETHO   H2312340   9.364  18.093  18.474
 1594ETHO    O112341   9.227  18.025  18.328
 1594ETHO    C112342   9.305  17.903  18.311
 1594ETHO   H1112343   9.415  17.918  18.302
 1594ETHO   H1312344   9.310  17.842  18.404
 1594ETHO    C212345   9.276  17.811  18.191
 1594ETHO   H2112346   9.176  17.764  18.202
 1594ETHO   H2312347   9.357  17.734  18.187
 1595ETHO    O112348   9.288  17.883  18.068
 1595ETHO    C112349   9.292  17.789  17.959
 1595ETHO   H1112350   9.387  17.733  17.965
 1595ETHO   H1312351   9.222  17.706  17.981
 1595ETHO    C212352   9.285  17.857  17.826
 1595ETHO   H2112353   9.375  17.911  17.788
 1595ETHO   H2312354   9.210  17.939  17.824
 1596ETHO    O112355   9.231  17.765  17.735
 1596ETHO    C112356   9.205  17.826  17.613
 1596ETHO   H1112357   9.129  17.906  17.628
 1596ETHO   H1312358   9.293  17.880  17.571
 1596ETHO    C212359   9.141  17.718  17.524
 1596ETHO   H2112360   9.086  17.778  17.448
 1596ETHO   H2312361   9.068  17.663  17.588
 1597ETHO    O112362   9.237  17.631  17.465
 1597ETHO    C112363   9.168  17.536  17.384
 1597ETHO   H1112364   9.096  17.596  17.323
 1597ETHO   H1312365   9.243  17.503  17.310
 1597ETHO    C212366   9.111  17.412  17.457
 1597ETHO   H2112367   9.183  17.385  17.536
 1597ETHO   H2312368   9.093  17.337  17.377
 1598ETHO    O112369   8.991  17.427  17.527
 1598ETHO    C112370   8.905  17.317  17.533
 1598ETHO   H1112371   8.966  17.238  17.582
 1598ETHO   H1312372   8.864  17.272  17.440
 1598ETHO    C212373   8.792  17.356  17.627
 1598ETHO   H2112374   8.830  17.401  17.722
 1598ETHO   H2312375   8.751  17.258  17.661
 1599ETHO    O112376   8.700  17.443  17.569
 1599ETHO    C112377   8.569  17.399  17.581
 1599ETHO   H1112378   8.552  17.329  17.497
 1599ETHO   H1312379   8.550  17.339  17.672
 1599ETHO    C212380   8.463  17.514  17.574
 1599ETHO   H2112381   8.359  17.481  17.555
 1599ETHO   H2312382   8.490  17.585  17.493
 1600ETHO    O112383   8.469  17.582  17.699
 1600ETHO    C112384   8.341  17.638  17.719
 1600ETHO   H1112385   8.259  17.563  17.713
 1600ETHO   H1312386   8.321  17.716  17.642
 1600ETHO    C212387   8.331  17.719  17.851
 1600ETHO   H2112388   8.271  17.812  17.839
 1600ETHO   H2312389   8.439  17.743  17.865
 1601ETHO    O112390   8.297  17.653  17.962
 1601ETHO    C112391   8.242  17.751  18.051
 1601ETHO   H1112392   8.316  17.833  18.042
 1601ETHO   H1312393   8.144  17.789  18.015
 1601ETHO    C212394   8.218  17.680  18.188
 1601ETHO   H2112395   8.191  17.768  18.251
 1601ETHO   H2312396   8.131  17.614  18.169
 1602ETHO    O112397   8.328  17.609  18.256
 1602ETHO    C112398   8.446  17.678  18.247
 1602ETHO   H1112399   8.430  17.783  18.281
 1602ETHO   H1312400   8.485  17.668  18.144
 1602ETHO    C212401   8.559  17.627  18.334
 1602ETHO   H2112402   8.523  17.625  18.439
 1602ETHO   H2312403   8.650  17.690  18.326
 1603ETHO    O112404   8.584  17.492  18.300
 1603ETHO    C112405   8.662  17.420  18.389
 1603ETHO   H1112406   8.704  17.345  18.318
 1603ETHO   H1312407   8.749  17.483  18.417
 1603ETHO    C212408   8.609  17.354  18.518
 1603ETHO   H2112409   8.556  17.425  18.584
 1603ETHO   H2312410   8.693  17.306  18.573
 1604ETHO    O112411   8.520  17.251  18.485
 1604ETHO    C112412   8.472  17.196  18.603
 1604ETHO   H1112413   8.430  17.272  18.673
 1604ETHO   H1312414   8.558  17.149  18.656
 1604ETHO    C212415   8.355  17.101  18.571
 1604ETHO   H2112416   8.277  17.150  18.509
 1604ETHO   H2312417   8.316  17.067  18.669
 1605ETHO    O112418   8.407  16.986  18.502
 1605ETHO    C112419   8.309  16.909  18.436
 1605ETHO   H1112420   8.234  16.870  18.509
 1605ETHO   H1312421   8.253  16.971  18.363
 1605ETHO    C212422   8.360  16.798  18.342
 1605ETHO   H2112423   8.420  16.722  18.396
 1605ETHO   H2312424   8.270  16.748  18.301
 1606ETHO    O112425   8.452  16.841  18.245
 1606ETHO    C112426   8.483  16.738  18.156
 1606ETHO   H1112427   8.545  16.662  18.208
 1606ETHO   H1312428   8.395  16.686  18.112
 1606ETHO    C212429   8.554  16.798  18.032
 1606ETHO   H2112430   8.503  16.879  17.975
 1606ETHO   H2312431   8.566  16.719  17.954
 1607ETHO    O112432   8.688  16.841  18.076
 1607ETHO    C112433   8.755  16.909  17.976
 1607ETHO   H1112434   8.732  16.851  17.883
 1607ETHO   H1312435   8.710  17.011  17.973
 1607ETHO    C212436   8.907  16.913  17.994
 1607ETHO   H2112437   8.923  16.962  18.092
 1607ETHO   H2312438   8.943  16.976  17.911
 1608ETHO    O112439   8.970  16.783  18.011
 1608ETHO    C112440   9.113  16.788  18.026
 1608ETHO   H1112441   9.169  16.833  17.941
 1608ETHO   H1312442   9.133  16.853  18.113
 1608ETHO    C212443   9.170  16.661  18.072
 1608ETHO   H2112444   9.097  16.613  18.141
 1608ETHO   H2312445   9.262  16.676  18.131
 1609ETHO    O112446   9.197  16.571  17.965
 1609ETHO    C112447   9.241  16.447  18.015
 1609ETHO   H1112448   9.177  16.417  18.100
 1609ETHO   H1312449   9.347  16.458  18.046
 1609ETHO    C212450   9.242  16.333  17.919
 1609ETHO   H2112451   9.136  16.330  17.887
 1609ETHO   H2312452   9.275  16.254  17.989
 1610ETHO    O112453   9.333  16.345  17.814
 1610ETHO    C112454   9.284  16.309  17.679
 1610ETHO   H1112455   9.240  16.208  17.690
 1610ETHO   H1312456   9.196  16.375  17.660
 1610ETHO    C212457   9.401  16.314  17.589
 1610ETHO   H2112458   9.367  16.252  17.504
 1610ETHO   H2312459   9.493  16.271  17.635
 1611ETHO    O112460   9.429  16.446  17.541
 1611ETHO    C112461   9.545  16.443  17.463
 1611ETHO   H1112462   9.525  16.380  17.374
 1611ETHO   H1312463   9.629  16.403  17.524
 1611ETHO    C212464   9.588  16.589  17.414
 1611ETHO   H2112465   9.694  16.587  17.383
 1611ETHO   H2312466   9.586  16.663  17.496
 1612ETHO    O112467   9.514  16.636  17.301
 1612ETHO    C112468   9.574  16.594  17.178
 1612ETHO   H1112469   9.600  16.487  17.192
 1612ETHO   H1312470   9.493  16.605  17.103
 1612ETHO    C212471   9.680  16.683  17.137
 1612ETHO   H2112472   9.763  16.694  17.210
 1612ETHO   H2312473   9.727  16.628  17.053
 1613ETHO    O112474   9.630  16.806  17.111
 1613ETHO    C112475   9.642  16.895  17.224
 1613ETHO   H1112476   9.739  16.895  17.278
 1613ETHO   H1312477   9.573  16.867  17.307
 1613ETHO    C212478   9.615  17.043  17.190
 1613ETHO   H2112479   9.581  17.098  17.280
 1613ETHO   H2312480   9.532  17.042  17.116
 1614ETHO    O112481   9.732  17.100  17.120
 1614ETHO    C112482   9.695  17.219  17.052
 1614ETHO   H1112483   9.629  17.197  16.965
 1614ETHO   H1312484   9.644  17.283  17.126
 1614ETHO    C212485   9.829  17.284  17.004
 1614ETHO   H2112486   9.879  17.344  17.083
 1614ETHO   H2312487   9.814  17.367  16.932
 1615ETHO    O112488   9.918  17.188  16.948
 1615ETHO    C112489  10.009  17.249  16.861
 1615ETHO   H1112490  10.054  17.343  16.899
 1615ETHO   H1312491   9.966  17.270  16.761
 1615ETHO    C212492  10.123  17.147  16.832
 1615ETHO   H2112493  10.198  17.191  16.764
 1615ETHO   H2312494  10.079  17.062  16.775
 1616ETHO    O112495  10.169  17.106  16.959
 1616ETHO    C112496  10.247  16.985  16.955
 1616ETHO   H1112497  10.269  16.942  17.055
 1616ETHO   H1312498  10.183  16.912  16.901
 1616ETHO    C212499  10.379  16.995  16.876
 1616ETHO   H2112500  10.366  17.059  16.786
 1616ETHO   H2312501  10.399  16.893  16.836
 1617ETHO    O112502  10.484  17.046  16.961
 1617ETHO    C112503  10.491  17.187  16.968
 1617ETHO   H1112504  10.400  17.226  17.019
 1617ETHO   H1312505  10.476  17.231  16.867
 1617ETHO    C212506  10.633  17.229  17.015
 1617ETHO   H2112507  10.637  17.340  17.005
 1617ETHO   H2312508  10.700  17.177  16.943
 1618ETHO    O112509  10.647  17.179  17.149
 1618ETHO    C112510  10.786  17.178  17.183
 1618ETHO   H1112511  10.831  17.113  17.104
 1618ETHO   H1312512  10.815  17.285  17.174
 1618ETHO    C212513  10.818  17.119  17.321
 1618ETHO   H2112514  10.915  17.068  17.302
 1618ETHO   H2312515  10.745  17.042  17.352
 1619ETHO    O112516  10.821  17.220  17.416
 1619ETHO    C112517  10.902  17.203  17.530
 1619ETHO   H1112518  10.997  17.259  17.520
 1619ETHO   H1312519  10.923  17.096  17.549
 1619ETHO    C212520  10.838  17.248  17.670
 1619ETHO   H2112521  10.798  17.350  17.656
 1619ETHO   H2312522  10.931  17.261  17.730
 1620ETHO    O112523  10.752  17.152  17.737
 1620ETHO    C112524  10.696  17.208  17.852
 1620ETHO   H1112525  10.770  17.272  17.906
 1620ETHO   H1312526  10.611  17.273  17.821
 1620ETHO    C212527  10.648  17.101  17.951
 1620ETHO   H2112528  10.577  17.040  17.891
 1620ETHO   H2312529  10.596  17.148  18.038
 1621ETHO    O112530  10.747  17.011  18.002
 1621ETHO    C112531  10.833  17.061  18.100
 1621ETHO   H1112532  10.925  17.094  18.048
 1621ETHO   H1312533  10.786  17.150  18.146
 1621ETHO    C212534  10.873  16.967  18.215
 1621ETHO   H2112535  10.949  17.036  18.258
 1621ETHO   H2312536  10.930  16.881  18.176
 1622ETHO    O112537  10.765  16.937  18.309
 1622ETHO    C112538  10.785  16.815  18.377
 1622ETHO   H1112539  10.814  16.739  18.302
 1622ETHO   H1312540  10.861  16.818  18.459
 1622ETHO    C212541  10.666  16.776  18.459
 1622ETHO   H2112542  10.582  16.749  18.392
 1622ETHO   H2312543  10.641  16.853  18.536
 1623ETHO    O112544  10.697  16.657  18.532
 1623ETHO    C112545  10.593  16.609  18.605
 1623ETHO   H1112546  10.598  16.646  18.709
 1623ETHO   H1312547  10.505  16.647  18.549
 1623ETHO    C212548  10.598  16.451  18.611
 1623ETHO   H2112549  10.610  16.407  18.510
 1623ETHO   H2312550  10.500  16.427  18.658
 1624ETHO    O112551  10.696  16.395  18.696
 1624ETHO    C112552  10.691  16.251  18.710
 1624ETHO   H1112553  10.717  16.199  18.615
 1624ETHO   H1312554  10.589  16.211  18.729
 1624ETHO    C212555  10.793  16.217  18.821
 1624ETHO   H2112556  10.871  16.295  18.811
 1624ETHO   H2312557  10.835  16.114  18.812
 1625ETHO    O112558  10.724  16.232  18.944
 1625ETHO    C112559  10.812  16.227  19.058
 1625ETHO   H1112560  10.867  16.131  19.059
 1625ETHO   H1312561  10.887  16.308  19.052
 1625ETHO    C212562  10.745  16.250  19.196
 1625ETHO   H2112563  10.817  16.247  19.281
 1625ETHO   H2312564  10.670  16.169  19.204
 1626ETHO    O112565  10.686  16.380  19.194
 1626ETHO    C112566  10.562  16.383  19.263
 1626ETHO   H1112567  10.579  16.395  19.373
 1626ETHO   H1312568  10.500  16.294  19.240
 1626ETHO    C212569  10.472  16.510  19.231
 1626ETHO   H2112570  10.375  16.514  19.284
 1626ETHO   H2312571  10.437  16.487  19.128
 1627ETHO    O112572  10.530  16.641  19.237
 1627ETHO    C112573  10.536  16.685  19.371
 1627ETHO   H1112574  10.435  16.693  19.417
 1627ETHO   H1312575  10.590  16.613  19.436
 1627ETHO    C212576  10.594  16.827  19.388
 1627ETHO   H2112577  10.564  16.878  19.482
 1627ETHO   H2312578  10.566  16.881  19.295
 1628ETHO    O112579  10.734  16.819  19.394
 1628ETHO    C112580  10.804  16.944  19.386
 1628ETHO   H1112581  10.747  17.008  19.457
 1628ETHO   H1312582  10.789  16.978  19.282
 1628ETHO    C212583  10.947  16.936  19.413
 1628ETHO   H2112584  10.990  17.034  19.385
 1628ETHO   H2312585  10.998  16.869  19.340
 1629ETHO    O112586  10.959  16.909  19.553
 1629ETHO    C112587  11.097  16.930  19.584
 1629ETHO   H1112588  11.123  16.853  19.659
 1629ETHO   H1312589  11.162  16.900  19.498
 1629ETHO    C212590  11.138  17.065  19.653
 1629ETHO   H2112591  11.121  17.148  19.581
 1629ETHO   H2312592  11.245  17.073  19.684
 1630ETHO    O112593  11.053  17.075  19.769
 1630ETHO    C112594  11.039  17.208  19.819
 1630ETHO   H1112595  11.067  17.288  19.747
 1630ETHO   H1312596  11.119  17.206  19.896
 1630ETHO    C212597  10.911  17.243  19.891
 1630ETHO   H2112598  10.924  17.319  19.971
 1630ETHO   H2312599  10.867  17.159  19.949
 1631ETHO    O112600  10.812  17.302  19.800
 1631ETHO    C112601  10.752  17.203  19.715
 1631ETHO   H1112602  10.832  17.149  19.660
 1631ETHO   H1312603  10.703  17.128  19.782
 1631ETHO    C212604  10.662  17.275  19.612
 1631ETHO   H2112605  10.679  17.241  19.507
 1631ETHO   H2312606  10.702  17.378  19.616
 1632ETHO    O112607  10.524  17.280  19.633
 1632ETHO    C112608  10.458  17.152  19.643
 1632ETHO   H1112609  10.523  17.080  19.588
 1632ETHO   H1312610  10.446  17.127  19.750
 1632ETHO    C212611  10.316  17.162  19.579
 1632ETHO   H2112612  10.262  17.245  19.630
 1632ETHO   H2312613  10.258  17.071  19.603
 1633ETHO    O112614  10.321  17.177  19.438
 1633ETHO    C112615  10.195  17.196  19.370
 1633ETHO   H1112616  10.120  17.123  19.406
 1633ETHO   H1312617  10.158  17.299  19.391
 1633ETHO    C212618  10.214  17.204  19.219
 1633ETHO   H2112619  10.273  17.293  19.186
 1633ETHO   H2312620  10.114  17.220  19.173
 1634ETHO    O112621  10.271  17.090  19.155
 1634ETHO    C112622  10.181  16.974  19.169
 1634ETHO   H1112623  10.171  16.946  19.277
 1634ETHO   H1312624  10.081  16.995  19.124
 1634ETHO    C212625  10.248  16.855  19.097
 1634ETHO   H2112626  10.186  16.763  19.110
 1634ETHO   H2312627  10.347  16.842  19.145
 1635ETHO    O112628  10.258  16.880  18.957
 1635ETHO    C112629  10.318  16.773  18.876
 1635ETHO   H1112630  10.271  16.676  18.904
 1635ETHO   H1312631  10.428  16.761  18.885
 1635ETHO    C212632  10.279  16.801  18.728
 1635ETHO   H2112633  10.174  16.838  18.732
 1635ETHO   H2312634  10.286  16.713  18.660
 1636ETHO    O112635  10.353  16.910  18.681
 1636ETHO    C112636  10.317  16.954  18.551
 1636ETHO   H1112637  10.409  16.992  18.502
 1636ETHO   H1312638  10.289  16.866  18.489
 1636ETHO    C212639  10.204  17.060  18.539
 1636ETHO   H2112640  10.164  17.069  18.436
 1636ETHO   H2312641  10.246  17.153  18.583
 1637ETHO    O112642  10.085  17.023  18.610
 1637ETHO    C112643   9.974  17.116  18.606
 1637ETHO   H1112644   9.950  17.135  18.499
 1637ETHO   H1312645  10.012  17.208  18.655
 1637ETHO    C212646   9.857  17.073  18.692
 1637ETHO   H2112647   9.880  17.109  18.794
 1637ETHO   H2312648   9.844  16.963  18.698
 1638ETHO    O112649   9.744  17.124  18.621
 1638ETHO    C112650   9.639  17.183  18.694
 1638ETHO   H1112651   9.606  17.116  18.776
 1638ETHO   H1312652   9.669  17.278  18.744
 1638ETHO    C212653   9.520  17.218  18.595
 1638ETHO   H2112654   9.440  17.268  18.654
 1638ETHO   H2312655   9.555  17.282  18.511
 1639ETHO    O112656   9.461  17.113  18.522
 1639ETHO    C112657   9.369  17.154  18.427
 1639ETHO   H1112658   9.417  17.236  18.369
 1639ETHO   H1312659   9.276  17.193  18.473
 1639ETHO    C212660   9.337  17.036  18.337
 1639ETHO   H2112661   9.269  17.077  18.260
 1639ETHO   H2312662   9.292  16.940  18.369
 1640ETHO    O112663   9.462  16.989  18.281
 1640ETHO    C112664   9.443  16.952  18.141
 1640ETHO   H1112665   9.370  16.868  18.130
 1640ETHO   H1312666   9.394  17.036  18.087
 1640ETHO    C212667   9.574  16.929  18.062
 1640ETHO   H2112668   9.571  16.851  17.983
 1640ETHO   H2312669   9.645  16.885  18.136
 1641ETHO    O112670   9.622  17.046  17.996
 1641ETHO    C112671   9.760  17.024  17.970
 1641ETHO   H1112672   9.764  16.938  17.899
 1641ETHO   H1312673   9.826  16.996  18.056
 1641ETHO    C212674   9.825  17.139  17.897
 1641ETHO   H2112675   9.857  17.224  17.961
 1641ETHO   H2312676   9.753  17.194  17.832
 1642ETHO    O112677   9.940  17.092  17.818
 1642ETHO    C112678  10.042  17.043  17.891
 1642ETHO   H1112679  10.095  17.131  17.934
 1642ETHO   H1312680   9.996  16.976  17.967
 1642ETHO    C212681  10.131  16.961  17.797
 1642ETHO   H2112682  10.077  16.913  17.712
 1642ETHO   H2312683  10.188  16.880  17.847
 1643ETHO    O112684  10.239  17.042  17.754
 1643ETHO    C112685  10.314  16.981  17.645
 1643ETHO   H1112686  10.418  17.021  17.651
 1643ETHO   H1312687  10.304  16.870  17.637
 1643ETHO    C212688  10.270  17.031  17.504
 1643ETHO   H2112689  10.166  17.001  17.480
 1643ETHO   H2312690  10.327  16.974  17.427
 1644ETHO    O112691  10.296  17.165  17.471
 1644ETHO    C112692  10.428  17.165  17.421
 1644ETHO   H1112693  10.498  17.128  17.499
 1644ETHO   H1312694  10.443  17.106  17.328
 1644ETHO    C212695  10.464  17.309  17.390
 1644ETHO   H2112696  10.403  17.349  17.306
 1644ETHO   H2312697  10.569  17.314  17.353
 1645ETHO    O112698  10.468  17.387  17.512
 1645ETHO    C112699  10.515  17.514  17.489
 1645ETHO   H1112700  10.604  17.514  17.422
 1645ETHO   H1312701  10.434  17.568  17.435
 1645ETHO    C212702  10.553  17.585  17.623
 1645ETHO   H2112703  10.618  17.514  17.678
 1645ETHO   H2312704  10.622  17.668  17.596
 1646ETHO    O112705  10.449  17.612  17.716
 1646ETHO    C112706  10.507  17.635  17.849
 1646ETHO   H1112707  10.544  17.739  17.839
 1646ETHO   H1312708  10.582  17.554  17.859
 1646ETHO    C212709  10.399  17.641  17.956
 1646ETHO   H2112710  10.465  17.646  18.045
 1646ETHO   H2312711  10.347  17.543  17.950
 1647ETHO    O112712  10.302  17.740  17.926
 1647ETHO    C112713  10.216  17.771  18.036
 1647ETHO   H1112714  10.186  17.676  18.086
 1647ETHO   H1312715  10.273  17.837  18.105
 1647ETHO    C212716  10.079  17.840  17.989
 1647ETHO   H2112717  10.091  17.912  17.905
 1647ETHO   H2312718  10.014  17.886  18.067
 1648ETHO    O112719  10.010  17.739  17.930
 1648ETHO    C112720   9.896  17.788  17.859
 1648ETHO   H1112721   9.930  17.846  17.770
 1648ETHO   H1312722   9.846  17.857  17.930
 1648ETHO    C212723   9.799  17.672  17.816
 1648ETHO   H2112724   9.864  17.602  17.760
 1648ETHO   H2312725   9.712  17.710  17.758
 1649ETHO    O112726   9.757  17.605  17.940
 1649ETHO    C112727   9.690  17.491  17.903
 1649ETHO   H1112728   9.607  17.526  17.838
 1649ETHO   H1312729   9.750  17.415  17.848
 1649ETHO    C212730   9.631  17.420  18.025
 1649ETHO   H2112731   9.585  17.326  17.989
 1649ETHO   H2312732   9.549  17.475  18.077
 1650ETHO    O112733   9.742  17.394  18.114
 1650ETHO    C112734   9.701  17.318  18.228
 1650ETHO   H1112735   9.711  17.208  18.212
 1650ETHO   H1312736   9.597  17.343  18.257
 1650ETHO    C212737   9.792  17.346  18.355
 1650ETHO   H2112738   9.896  17.314  18.336
 1650ETHO   H2312739   9.750  17.271  18.425
 1651ETHO    O112740   9.785  17.477  18.410
 1651ETHO    C112741   9.846  17.484  18.539
 1651ETHO   H1112742   9.793  17.410  18.603
 1651ETHO   H1312743   9.954  17.463  18.529
 1651ETHO    C212744   9.808  17.619  18.600
 1651ETHO   H2112745   9.843  17.703  18.535
 1651ETHO   H2312746   9.850  17.631  18.702
 1652ETHO    O112747   9.667  17.638  18.600
 1652ETHO    C112748   9.636  17.776  18.629
 1652ETHO   H1112749   9.632  17.835  18.536
 1652ETHO   H1312750   9.711  17.817  18.700
 1652ETHO    C212751   9.497  17.773  18.675
 1652ETHO   H2112752   9.449  17.677  18.647
 1652ETHO   H2312753   9.438  17.860  18.640
 1653ETHO    O112754   9.491  17.774  18.817
 1653ETHO    C112755   9.361  17.806  18.867
 1653ETHO   H1112756   9.336  17.912  18.849
 1653ETHO   H1312757   9.281  17.754  18.810
 1653ETHO    C212758   9.338  17.777  19.017
 1653ETHO   H2112759   9.377  17.677  19.047
 1653ETHO   H2312760   9.230  17.769  19.039
 1654ETHO    O112761   9.408  17.874  19.094
 1654ETHO    C112762   9.336  17.999  19.109
 1654ETHO   H1112763   9.261  17.979  19.188
 1654ETHO   H1312764   9.285  18.033  19.016
 1654ETHO    C212765   9.439  18.098  19.167
 1654ETHO   H2112766   9.479  18.058  19.262
 1654ETHO   H2312767   9.385  18.193  19.190
 1655ETHO    O112768   9.535  18.123  19.070
 1655ETHO    C112769   9.656  18.189  19.116
 1655ETHO   H1112770   9.614  18.266  19.184
 1655ETHO   H1312771   9.713  18.119  19.180
 1655ETHO    C212772   9.726  18.252  18.991
 1655ETHO   H2112773   9.772  18.340  19.041
 1655ETHO   H2312774   9.650  18.294  18.922
 1656ETHO    O112775   9.843  18.188  18.935
 1656ETHO    C112776   9.891  18.265  18.823
 1656ETHO   H1112777   9.905  18.368  18.864
 1656ETHO   H1312778   9.812  18.281  18.748
 1656ETHO    C212779  10.022  18.217  18.754
 1656ETHO   H2112780  10.049  18.282  18.668
 1656ETHO   H2312781  10.009  18.115  18.711
 1657ETHO    O112782  10.130  18.219  18.853
 1657ETHO    C112783  10.238  18.138  18.810
 1657ETHO   H1112784  10.206  18.035  18.784
 1657ETHO   H1312785  10.287  18.183  18.721
 1657ETHO    C212786  10.362  18.127  18.910
 1657ETHO   H2112787  10.414  18.225  18.906
 1657ETHO   H2312788  10.430  18.052  18.864
 1658ETHO    O112789  10.330  18.083  19.043
 1658ETHO    C112790  10.431  18.123  19.134
 1658ETHO   H1112791  10.531  18.085  19.103
 1658ETHO   H1312792  10.447  18.233  19.133
 1658ETHO    C212793  10.409  18.091  19.281
 1658ETHO   H2112794  10.508  18.067  19.325
 1658ETHO   H2312795  10.347  18.000  19.300
 1659ETHO    O112796  10.347  18.201  19.352
 1659ETHO    C112797  10.322  18.156  19.485
 1659ETHO   H1112798  10.255  18.067  19.482
 1659ETHO   H1312799  10.418  18.117  19.524
 1659ETHO    C212800  10.273  18.269  19.568
 1659ETHO   H2112801  10.340  18.357  19.558
 1659ETHO   H2312802  10.271  18.241  19.676
 1660ETHO    O112803  10.138  18.304  19.521
 1660ETHO    C112804  10.095  18.426  19.575
 1660ETHO   H1112805  10.115  18.433  19.684
 1660ETHO   H1312806  10.156  18.507  19.528
 1660ETHO    C212807   9.950  18.450  19.536
 1660ETHO   H2112808   9.933  18.426  19.429
 1660ETHO   H2312809   9.929  18.559  19.542
 1661ETHO    O112810   9.864  18.373  19.624
 1661ETHO    C112811   9.829  18.441  19.748
 1661ETHO   H1112812   9.828  18.552  19.744
 1661ETHO   H1312813   9.900  18.406  19.826
 1661ETHO    C212814   9.693  18.386  19.795
 1661ETHO   H2112815   9.687  18.387  19.906
 1661ETHO   H2312816   9.685  18.279  19.766
 1662ETHO    O112817   9.573  18.443  19.755
 1662ETHO    C112818   9.467  18.369  19.821
 1662ETHO   H1112819   9.473  18.259  19.807
 1662ETHO   H1312820   9.475  18.387  19.930
 1662ETHO    C212821   9.331  18.436  19.785
 1662ETHO   H2112822   9.255  18.374  19.837
 1662ETHO   H2312823   9.312  18.425  19.676
 1663ETHO    O112824   9.320  18.566  19.838
 1663ETHO    C112825   9.211  18.631  19.770
 1663ETHO   H1112826   9.114  18.583  19.793
 1663ETHO   H1312827   9.236  18.622  19.662
 1663ETHO    C212828   9.193  18.779  19.804
 1663ETHO   H2112829   9.117  18.821  19.735
 1663ETHO   H2312830   9.292  18.829  19.798
 1664ETHO    O112831   9.158  18.799  19.945
 1664ETHO    C112832   9.167  18.931  19.987
 1664ETHO   H1112833   9.262  18.981  19.957
 1664ETHO   H1312834   9.093  18.986  19.925
 1664ETHO    C212835   9.135  18.939  20.141
 1664ETHO   H2112836   9.045  18.876  20.159
 1664ETHO   H2312837   9.107  19.042  20.170
 1665ETHO    O112838   9.244  18.890  20.222
 1665ETHO    C112839   9.359  18.981  20.220
 1665ETHO   H1112840   9.335  19.066  20.288
 1665ETHO   H1312841   9.389  19.019  20.120
 1665ETHO    C212842   9.486  18.899  20.269
 1665ETHO   H2112843   9.456  18.847  20.363
 1665ETHO   H2312844   9.565  18.976  20.280
 1666ETHO    O112845   9.521  18.783  20.189
 1666ETHO    C112846   9.560  18.817  20.055
 1666ETHO   H1112847   9.471  18.833  19.990
 1666ETHO   H1312848   9.639  18.895  20.051
 1666ETHO    C212849   9.627  18.692  20.000
 1666ETHO   H2112850   9.646  18.711  19.892
 1666ETHO   H2312851   9.556  18.609  20.022
 1667ETHO    O112852   9.752  18.652  20.062
 1667ETHO    C112853   9.737  18.579  20.181
 1667ETHO   H1112854   9.657  18.503  20.182
 1667ETHO   H1312855   9.730  18.649  20.267
 1667ETHO    C212856   9.872  18.497  20.186
 1667ETHO   H2112857   9.875  18.438  20.092
 1667ETHO   H2312858   9.862  18.429  20.273
 1668ETHO    O112859   9.979  18.584  20.210
 1668ETHO    C112860  10.103  18.525  20.170
 1668ETHO   H1112861  10.116  18.421  20.206
 1668ETHO   H1312862  10.104  18.512  20.059
 1668ETHO    C212863  10.220  18.607  20.223
 1668ETHO   H2112864  10.316  18.567  20.184
 1668ETHO   H2312865  10.215  18.619  20.334
 1669ETHO    O112866  10.208  18.724  20.150
 1669ETHO    C112867  10.309  18.822  20.188
 1669ETHO   H1112868  10.309  18.850  20.296
 1669ETHO   H1312869  10.413  18.794  20.163
 1669ETHO    C212870  10.296  18.946  20.098
 1669ETHO   H2112871  10.353  19.037  20.126
 1669ETHO   H2312872  10.190  18.979  20.088
 1670ETHO    O112873  10.351  18.935  19.967
 1670ETHO    C112874  10.288  19.031  19.879
 1670ETHO   H1112875  10.182  19.000  19.887
 1670ETHO   H1312876  10.297  19.133  19.922
 1670ETHO    C212877  10.337  19.034  19.734
 1670ETHO   H2112878  10.446  19.052  19.718
 1670ETHO   H2312879  10.290  19.124  19.689
 1671ETHO    O112880  10.283  18.920  19.664
 1671ETHO    C112881  10.319  18.929  19.523
 1671ETHO   H1112882  10.296  19.027  19.477
 1671ETHO   H1312883  10.428  18.911  19.518
 1671ETHO    C212884  10.235  18.839  19.428
 1671ETHO   H2112885  10.127  18.858  19.446
 1671ETHO   H2312886  10.258  18.862  19.322
 1672ETHO    O112887  10.259  18.702  19.440
 1672ETHO    C112888  10.382  18.664  19.382
 1672ETHO   H1112889  10.411  18.575  19.441
 1672ETHO   H1312890  10.456  18.742  19.410
 1672ETHO    C212891  10.383  18.641  19.229
 1672ETHO   H2112892  10.291  18.583  19.206
 1672ETHO   H2312893  10.465  18.574  19.195
 1673ETHO    O112894  10.384  18.755  19.145
 1673ETHO    C112895  10.428  18.729  19.009
 1673ETHO   H1112896  10.445  18.833  18.974
 1673ETHO   H1312897  10.521  18.668  19.016
 1673ETHO    C212898  10.319  18.659  18.919
 1673ETHO   H2112899  10.216  18.701  18.917
 1673ETHO   H2312900  10.299  18.556  18.953
 1674ETHO    O112901  10.370  18.649  18.786
 1674ETHO    C112902  10.337  18.528  18.720
 1674ETHO   H1112903  10.241  18.490  18.760
 1674ETHO   H1312904  10.400  18.440  18.745
 1674ETHO    C212905  10.347  18.539  18.564
 1674ETHO   H2112906  10.447  18.577  18.535
 1674ETHO   H2312907  10.267  18.607  18.526
 1675ETHO    O112908  10.330  18.412  18.496
 1675ETHO    C112909  10.439  18.375  18.422
 1675ETHO   H1112910  10.473  18.453  18.350
 1675ETHO   H1312911  10.519  18.345  18.493
 1675ETHO    C212912  10.393  18.250  18.334
 1675ETHO   H2112913  10.309  18.201  18.387
 1675ETHO   H2312914  10.468  18.170  18.314
 1676ETHO    O112915  10.339  18.291  18.209
 1676ETHO    C112916  10.280  18.190  18.133
 1676ETHO   H1112917  10.180  18.177  18.180
 1676ETHO   H1312918  10.347  18.103  18.148
 1676ETHO    C212919  10.255  18.217  17.978
 1676ETHO   H2112920  10.221  18.322  17.964
 1676ETHO   H2312921  10.166  18.156  17.952
 1677ETHO    O112922  10.360  18.204  17.886
 1677ETHO    C112923  10.401  18.070  17.879
 1677ETHO   H1112924  10.454  18.056  17.975
 1677ETHO   H1312925  10.314  18.001  17.881
 1677ETHO    C212926  10.492  18.030  17.761
 1677ETHO   H2112927  10.546  17.935  17.777
 1677ETHO   H2312928  10.562  18.117  17.759
 1678ETHO    O112929  10.426  18.035  17.633
 1678ETHO    C112930  10.338  17.925  17.603
 1678ETHO   H1112931  10.240  17.956  17.647
 1678ETHO   H1312932  10.366  17.843  17.673
 1678ETHO    C212933  10.320  17.888  17.456
 1678ETHO   H2112934  10.294  17.979  17.398
 1678ETHO   H2312935  10.234  17.817  17.452
 1679ETHO    O112936  10.429  17.824  17.392
 1679ETHO    C112937  10.541  17.913  17.383
 1679ETHO   H1112938  10.502  18.016  17.371
 1679ETHO   H1312939  10.600  17.896  17.476
 1679ETHO    C212940  10.611  17.879  17.250
 1679ETHO   H2112941  10.681  17.964  17.233
 1679ETHO   H2312942  10.533  17.887  17.172
 1680ETHO    O112943  10.665  17.751  17.225
 1680ETHO    C112944  10.791  17.725  17.288
 1680ETHO   H1112945  10.859  17.812  17.298
 1680ETHO   H1312946  10.763  17.712  17.395
 1680ETHO    C212947  10.854  17.589  17.230
 1680ETHO   H2112948  10.774  17.526  17.185
 1680ETHO   H2312949  10.884  17.529  17.318
 1681ETHO    O112950  10.966  17.607  17.148
 1681ETHO    C112951  10.999  17.482  17.089
 1681ETHO   H1112952  11.025  17.416  17.174
 1681ETHO   H1312953  10.918  17.426  17.038
 1681ETHO    C212954  11.111  17.499  16.985
 1681ETHO   H2112955  11.150  17.396  16.978
 1681ETHO   H2312956  11.188  17.558  17.041
 1682ETHO    O112957  11.066  17.553  16.859
 1682ETHO    C112958  11.179  17.569  16.777
 1682ETHO   H1112959  11.248  17.634  16.835
 1682ETHO   H1312960  11.213  17.464  16.763
 1682ETHO    C212961  11.157  17.642  16.642
 1682ETHO   H2112962  11.254  17.692  16.622
 1682ETHO   H2312963  11.077  17.717  16.658
 1683ETHO    O112964  11.101  17.559  16.540
 1683ETHO    C112965  11.084  17.636  16.421
 1683ETHO   H1112966  11.178  17.687  16.392
 1683ETHO   H1312967  11.013  17.720  16.436
 1683ETHO    C212968  11.041  17.554  16.299
 1683ETHO   H2112969  11.009  17.622  16.217
 1683ETHO   H2312970  10.965  17.477  16.324
 1684ETHO    O112971  11.150  17.482  16.244
 1684ETHO    C112972  11.107  17.398  16.140
 1684ETHO   H1112973  11.058  17.308  16.180
 1684ETHO   H1312974  11.041  17.454  16.070
 1684ETHO    C212975  11.237  17.358  16.069
 1684ETHO   H2112976  11.294  17.453  16.055
 1684ETHO   H2312977  11.204  17.325  15.969
 1685ETHO    O112978  11.312  17.265  16.139
 1685ETHO    C112979  11.411  17.211  16.050
 1685ETHO   H1112980  11.469  17.299  16.016
 1685ETHO   H1312981  11.356  17.161  15.968
 1685ETHO    C212982  11.500  17.110  16.123
 1685ETHO   H2112983  11.554  17.167  16.202
 1685ETHO   H2312984  11.568  17.055  16.055
 1686ETHO    O112985  11.407  17.024  16.195
 1686ETHO    C112986  11.460  16.929  16.285
 1686ETHO   H1112987  11.542  16.962  16.352
 1686ETHO   H1312988  11.376  16.897  16.351
 1686ETHO    C212989  11.498  16.803  16.214
 1686ETHO   H2112990  11.565  16.744  16.280
 1686ETHO   H2312991  11.550  16.831  16.120
 1687ETHO    O112992  11.387  16.725  16.175
 1687ETHO    C112993  11.431  16.615  16.096
 1687ETHO   H1112994  11.514  16.559  16.146
 1687ETHO   H1312995  11.485  16.663  16.012
 1687ETHO    C212996  11.324  16.520  16.027
 1687ETHO   H2112997  11.377  16.451  15.958
 1687ETHO   H2312998  11.257  16.589  15.972
 1688ETHO    O112999  11.257  16.440  16.128
 1688ETHO    C113000  11.178  16.342  16.069
 1688ETHO   H1113001  11.094  16.399  16.024
 1688ETHO   H1313002  11.238  16.289  15.992
 1688ETHO    C213003  11.120  16.230  16.166
 1688ETHO   H2113004  11.016  16.218  16.130
 1688ETHO   H2313005  11.111  16.275  16.267
 1689ETHO    O113006  11.189  16.104  16.174
 1689ETHO    C113007  11.133  16.019  16.273
 1689ETHO   H1113008  11.027  15.995  16.249
 1689ETHO   H1313009  11.120  16.079  16.366
 1689ETHO    C213010  11.218  15.895  16.303
 1689ETHO   H2113011  11.179  15.843  16.393
 1689ETHO   H2313012  11.317  15.942  16.321
 1690ETHO    O113013  11.238  15.806  16.199
 1690ETHO    C113014  11.147  15.694  16.201
 1690ETHO   H1113015  11.186  15.623  16.276
 1690ETHO   H1313016  11.049  15.728  16.243
 1690ETHO    C213017  11.126  15.639  16.066
 1690ETHO   H2113018  11.079  15.715  15.999
 1690ETHO   H2313019  11.061  15.549  16.070
 1691PROX    O113020  11.252  15.597  16.011
 1691PROX    C113021  11.243  15.567  15.874
 1691PROX   H1113022  11.146  15.518  15.849
 1691PROX   H1313023  11.246  15.659  15.812
 1691PROX    C213024  11.360  15.469  15.840
 1691PROX   H2113025  11.334  15.372  15.889
 1691PROX    C313026  11.497  15.513  15.870
 1691PROX   H3113027  11.522  15.604  15.811
 1691PROX   H3213028  11.509  15.527  15.979
 1691PROX   H3313029  11.571  15.441  15.827
 1692PROX    O113030  11.378  15.457  15.693
 1692PROX    C113031  11.259  15.404  15.624
 1692PROX   H1113032  11.231  15.309  15.675
 1692PROX   H1313033  11.178  15.479  15.625
 1692PROX    C213034  11.305  15.366  15.477
 1692PROX   H2113035  11.383  15.436  15.440
 1692PROX    C313036  11.187  15.373  15.376
 1692PROX   H3113037  11.136  15.471  15.389
 1692PROX   H3213038  11.208  15.354  15.268
 1692PROX   H3313039  11.120  15.290  15.408
 1693PROX    O113040  11.347  15.234  15.481
 1693PROX    C113041  11.476  15.218  15.539
 1693PROX   H1113042  11.552  15.293  15.509
 1693PROX   H1313043  11.473  15.233  15.649
 1693PROX    C213044  11.534  15.070  15.523
 1693PROX   H2113045  11.451  15.011  15.568
 1693PROX    C313046  11.669  15.053  15.604
 1693PROX   H3113047  11.693  14.945  15.616
 1693PROX   H3213048  11.745  15.119  15.558
 1693PROX   H3313049  11.651  15.087  15.709
 1694PROX    O113050  11.558  15.044  15.383
 1694PROX    C113051  11.449  15.029  15.292
 1694PROX   H1113052  11.452  14.930  15.242
 1694PROX   H1313053  11.358  15.027  15.356
 1694PROX    C213054  11.418  15.140  15.185
 1694PROX   H2113055  11.400  15.234  15.242
 1694PROX    C313056  11.291  15.113  15.104
 1694PROX   H3113057  11.216  15.071  15.174
 1694PROX   H3213058  11.248  15.202  15.054
 1694PROX   H3313059  11.315  15.031  15.032
 1695PROX    O113060  11.522  15.157  15.095
 1695PROX    C113061  11.643  15.207  15.154
 1695PROX   H1113062  11.701  15.139  15.220
 1695PROX   H1313063  11.714  15.220  15.069
 1695PROX    C213064  11.647  15.356  15.217
 1695PROX   H2113065  11.585  15.360  15.308
 1695PROX    C313066  11.579  15.440  15.113
 1695PROX   H3113067  11.660  15.471  15.045
 1695PROX   H3213068  11.490  15.391  15.067
 1695PROX   H3313069  11.552  15.531  15.172
 1696PROX    O113070  11.779  15.396  15.236
 1696PROX    C113071  11.823  15.365  15.371
 1696PROX   H1113072  11.736  15.361  15.439
 1696PROX   H1313073  11.867  15.263  15.363
 1696PROX    C213074  11.920  15.460  15.434
 1696PROX   H2113075  12.002  15.491  15.365
 1696PROX    C313076  11.983  15.386  15.556
 1696PROX   H3113077  11.907  15.349  15.627
 1696PROX   H3213078  12.043  15.300  15.520
 1696PROX   H3313079  12.048  15.457  15.611
 1697PROX    O113080  11.844  15.575  15.476
 1697PROX    C113081  11.793  15.658  15.373
 1697PROX   H1113082  11.877  15.722  15.338
 1697PROX   H1313083  11.766  15.603  15.280
 1697PROX    C213084  11.678  15.742  15.437
 1697PROX   H2113085  11.714  15.824  15.503
 1697PROX    C313086  11.593  15.649  15.515
 1697PROX   H3113087  11.641  15.606  15.606
 1697PROX   H3213088  11.497  15.696  15.546
 1697PROX   H3313089  11.559  15.565  15.450
 1698PROX    O113090  11.606  15.799  15.328
 1698PROX    C113091  11.556  15.930  15.351
 1698PROX   H1113092  11.549  15.947  15.460
 1698PROX   H1313093  11.605  16.007  15.287
 1698PROX    C213094  11.406  15.940  15.303
 1698PROX   H2113095  11.408  15.914  15.195
 1698PROX    C313096  11.346  16.077  15.316
 1698PROX   H3113097  11.406  16.148  15.254
 1698PROX   H3213098  11.252  16.080  15.257
 1698PROX   H3313099  11.321  16.113  15.418
 1699PROX    O113100  11.324  15.860  15.384
 1699PROX    C113101  11.270  15.747  15.317
 1699PROX   H1113102  11.331  15.717  15.229
 1699PROX   H1313103  11.266  15.667  15.395
 1699PROX    C213104  11.121  15.770  15.269
 1699PROX   H2113105  11.115  15.872  15.227
 1699PROX    C313106  11.020  15.757  15.384
 1699PROX   H3113107  10.921  15.772  15.335
 1699PROX   H3213108  11.016  15.658  15.434
 1699PROX   H3313109  11.037  15.828  15.468
 1700PROX    O113110  11.068  15.680  15.167
 1700PROX    C113111  11.136  15.702  15.041
 1700PROX   H1113112  11.107  15.801  14.999
 1700PROX   H1313113  11.248  15.703  15.039
 1700PROX    C213114  11.087  15.596  14.920
 1700PROX   H2113115  10.978  15.611  14.908
 1700PROX    C313116  11.138  15.455  14.946
 1700PROX   H3113117  11.248  15.455  14.929
 1700PROX   H3213118  11.114  15.410  15.045
 1700PROX   H3313119  11.097  15.385  14.870
 1701PROX    O113120  11.147  15.629  14.802
 1701PROX    C113121  11.085  15.740  14.739
 1701PROX   H1113122  11.050  15.702  14.641
 1701PROX   H1313123  11.004  15.783  14.801
 1701PROX    C213124  11.191  15.846  14.710
 1701PROX   H2113125  11.139  15.940  14.679
 1701PROX    C313126  11.272  15.810  14.586
 1701PROX   H3113127  11.328  15.716  14.611
 1701PROX   H3213128  11.202  15.792  14.502
 1701PROX   H3313129  11.345  15.886  14.554
 1702PROX    O113130  11.266  15.867  14.825
 1702PROX    C113131  11.353  15.981  14.817
 1702PROX   H1113132  11.398  16.002  14.718
 1702PROX   H1313133  11.298  16.072  14.848
 1702PROX    C213134  11.472  15.967  14.913
 1702PROX   H2113135  11.431  15.921  15.005
 1702PROX    C313136  11.529  16.101  14.952
 1702PROX   H3113137  11.620  16.092  15.015
 1702PROX   H3213138  11.542  16.147  14.852
 1702PROX   H3313139  11.451  16.148  15.016
 1703PROX    O113140  11.571  15.879  14.857
 1703PROX    C113141  11.686  15.862  14.940
 1703PROX   H1113142  11.763  15.938  14.915
 1703PROX   H1313143  11.650  15.855  15.045
 1703PROX    C213144  11.757  15.728  14.888
 1703PROX   H2113145  11.689  15.640  14.894
 1703PROX    C313146  11.879  15.707  14.992
 1703PROX   H3113147  11.838  15.676  15.091
 1703PROX   H3213148  11.951  15.631  14.955
 1703PROX   H3313149  11.936  15.802  14.999
 1704PROX    O113150  11.814  15.748  14.756
 1704PROX    C113151  11.727  15.714  14.652
 1704PROX   H1113152  11.741  15.608  14.622
 1704PROX   H1313153  11.622  15.716  14.688
 1704PROX    C213154  11.750  15.808  14.532
 1704PROX   H2113155  11.853  15.796  14.490
 1704PROX    C313156  11.739  15.949  14.579
 1704PROX   H3113157  11.826  15.980  14.640
 1704PROX   H3213158  11.729  16.013  14.489
 1704PROX   H3313159  11.649  15.972  14.641
 1705PROX    O113160  11.646  15.787  14.433
 1705PROX    C113161  11.650  15.664  14.363
 1705PROX   H1113162  11.756  15.654  14.333
 1705PROX   H1313163  11.624  15.586  14.438
 1705PROX    C213164  11.558  15.647  14.243
 1705PROX   H2113165  11.587  15.717  14.162
 1705PROX    C313166  11.411  15.659  14.267
 1705PROX   H3113167  11.367  15.617  14.361
 1705PROX   H3213168  11.381  15.766  14.281
 1705PROX   H3313169  11.346  15.631  14.182
 1706PROX    O113170  11.572  15.514  14.184
 1706PROX    C113171  11.710  15.464  14.180
 1706PROX   H1113172  11.771  15.549  14.143
 1706PROX   H1313173  11.753  15.438  14.279
 1706PROX    C213174  11.740  15.345  14.091
 1706PROX   H2113175  11.700  15.370  13.991
 1706PROX    C313176  11.671  15.217  14.145
 1706PROX   H3113177  11.661  15.152  14.056
 1706PROX   H3213178  11.723  15.167  14.229
 1706PROX   H3313179  11.572  15.249  14.184
 1707PROX    O113180  11.880  15.323  14.087
 1707PROX    C113181  11.951  15.326  14.206
 1707PROX   H1113182  11.998  15.426  14.222
 1707PROX   H1313183  11.900  15.288  14.297
 1707PROX    C213184  12.077  15.234  14.206
 1707PROX   H2113185  12.143  15.260  14.121
 1707PROX    C313186  12.035  15.088  14.187
 1707PROX   H3113187  11.980  15.071  14.092
 1707PROX   H3213188  12.125  15.025  14.171
 1707PROX   H3313189  11.988  15.049  14.280
 1708PROX    O113190  12.158  15.242  14.329
 1708PROX    C113191  12.297  15.237  14.301
 1708PROX   H1113192  12.359  15.233  14.393
 1708PROX   H1313193  12.317  15.142  14.249
 1708PROX    C213194  12.355  15.355  14.207
 1708PROX   H2113195  12.281  15.434  14.182
 1708PROX    C313196  12.433  15.317  14.079
 1708PROX   H3113197  12.489  15.403  14.037
 1708PROX   H3213198  12.514  15.247  14.109
 1708PROX   H3313199  12.359  15.279  14.005
 1709PROX    O113200  12.462  15.417  14.287
 1709PROX    C113201  12.470  15.558  14.284
 1709PROX   H1113202  12.497  15.603  14.187
 1709PROX   H1313203  12.373  15.594  14.324
 1709PROX    C213204  12.577  15.605  14.384
 1709PROX   H2113205  12.679  15.582  14.347
 1709PROX    C313206  12.567  15.536  14.521
 1709PROX   H3113207  12.571  15.426  14.506
 1709PROX   H3213208  12.643  15.566  14.597
 1709PROX   H3313209  12.468  15.569  14.557
 1710PROX    O113210  12.556  15.749  14.390
 1710PROX    C113211  12.646  15.826  14.471
 1710PROX   H1113212  12.689  15.769  14.556
 1710PROX   H1313213  12.734  15.849  14.408
 1710PROX    C213214  12.595  15.960  14.534
 1710PROX   H2113215  12.566  16.032  14.454
 1710PROX    C313216  12.703  16.009  14.632
 1710PROX   H3113217  12.681  16.115  14.660
 1710PROX   H3213218  12.697  15.943  14.721
 1710PROX   H3313219  12.802  16.013  14.583
 1711PROX    O113220  12.475  15.937  14.605
 1711PROX    C113221  12.356  15.938  14.522
 1711PROX   H1113222  12.335  16.024  14.455
 1711PROX   H1313223  12.360  15.845  14.460
 1711PROX    C213224  12.237  15.929  14.614
 1711PROX   H2113225  12.252  15.839  14.677
 1711PROX    C313226  12.107  15.896  14.544
 1711PROX   H3113227  12.015  15.897  14.606
 1711PROX   H3213228  12.080  15.972  14.469
 1711PROX   H3313229  12.120  15.799  14.492
 1712PROX    O113230  12.212  16.054  14.678
 1712PROX    C113231  12.198  16.038  14.821
 1712PROX   H1113232  12.215  15.938  14.864
 1712PROX   H1313233  12.247  16.120  14.878
 1712PROX    C213234  12.044  16.067  14.845
 1712PROX   H2113235  11.990  15.988  14.789
 1712PROX    C313236  11.981  16.189  14.773
 1712PROX   H3113237  12.016  16.185  14.668
 1712PROX   H3213238  11.871  16.177  14.782
 1712PROX   H3313239  12.011  16.284  14.822
 1713PROX    O113240  12.012  16.043  14.982
 1713PROX    C113241  12.058  16.138  15.076
 1713PROX   H1113242  12.169  16.137  15.085
 1713PROX   H1313243  12.028  16.242  15.050
 1713PROX    C213244  12.005  16.095  15.211
 1713PROX   H2113245  12.017  15.985  15.204
 1713PROX    C313246  11.855  16.142  15.240
 1713PROX   H3113247  11.782  16.088  15.177
 1713PROX   H3213248  11.835  16.112  15.345
 1713PROX   H3313249  11.832  16.251  15.244
 1714PROX    O113250  12.085  16.153  15.313
 1714PROX    C113251  12.082  16.100  15.445
 1714PROX   H1113252  12.038  16.178  15.510
 1714PROX   H1313253  12.007  16.024  15.476
 1714PROX    C213254  12.221  16.070  15.489
 1714PROX   H2113255  12.212  16.024  15.590
 1714PROX    C313256  12.308  16.197  15.504
 1714PROX   H3113257  12.362  16.223  15.411
 1714PROX   H3213258  12.256  16.285  15.547
 1714PROX   H3313259  12.391  16.174  15.576
 1715PROX    O113260  12.286  15.974  15.407
 1715PROX    C113261  12.215  15.846  15.406
 1715PROX   H1113262  12.222  15.796  15.505
 1715PROX   H1313263  12.109  15.851  15.377
 1715PROX    C213264  12.276  15.751  15.298
 1715PROX   H2113265  12.386  15.752  15.317
 1715PROX    C313266  12.253  15.809  15.160
 1715PROX   H3113267  12.262  15.919  15.175
 1715PROX   H3213268  12.317  15.763  15.081
 1715PROX   H3313269  12.146  15.795  15.137
 1716PROX    O113270  12.236  15.615  15.320
 1716PROX    C113271  12.317  15.519  15.241
 1716PROX   H1113272  12.298  15.537  15.133
 1716PROX   H1313273  12.423  15.526  15.276
 1716PROX    C213274  12.271  15.375  15.283
 1716PROX   H2113275  12.160  15.377  15.295
 1716PROX    C313276  12.321  15.320  15.420
 1716PROX   H3113277  12.429  15.296  15.426
 1716PROX   H3213278  12.282  15.381  15.504
 1716PROX   H3313279  12.268  15.222  15.425
 1717PROX    O113280  12.294  15.279  15.181
 1717PROX    C113281  12.435  15.271  15.148
 1717PROX   H1113282  12.465  15.347  15.074
 1717PROX   H1313283  12.501  15.288  15.236
 1717PROX    C213284  12.477  15.136  15.089
 1717PROX   H2113285  12.418  15.119  14.996
 1717PROX    C313286  12.432  15.021  15.189
 1717PROX   H3113287  12.449  14.916  15.159
 1717PROX   H3213288  12.469  15.042  15.292
 1717PROX   H3313289  12.323  15.021  15.208
 1718PROX    O113290  12.618  15.127  15.058
 1718PROX    C113291  12.664  15.207  14.948
 1718PROX   H1113292  12.739  15.147  14.891
 1718PROX   H1313293  12.575  15.218  14.883
 1718PROX    C213294  12.733  15.334  14.975
 1718PROX   H2113295  12.680  15.413  15.033
 1718PROX    C313296  12.789  15.402  14.850
 1718PROX   H3113297  12.830  15.320  14.788
 1718PROX   H3213298  12.705  15.453  14.797
 1718PROX   H3313299  12.873  15.470  14.876
 1719PROX    O113300  12.860  15.297  15.038
 1719PROX    C113301  12.891  15.358  15.162
 1719PROX   H1113302  12.942  15.457  15.160
 1719PROX   H1313303  12.800  15.392  15.216
 1719PROX    C213304  12.979  15.289  15.269
 1719PROX   H2113305  12.967  15.339  15.368
 1719PROX    C313306  13.124  15.286  15.224
 1719PROX   H3113307  13.182  15.196  15.253
 1719PROX   H3213308  13.138  15.293  15.114
 1719PROX   H3313309  13.182  15.374  15.260
 1720PROX    O113310  12.938  15.154  15.285
 1720PROX    C113311  12.817  15.142  15.352
 1720PROX   H1113312  12.803  15.218  15.431
 1720PROX   H1313313  12.736  15.164  15.278
 1720PROX    C213314  12.795  15.014  15.422
 1720PROX   H2113315  12.880  15.011  15.493
 1720PROX    C313316  12.790  14.902  15.320
 1720PROX   H3113317  12.809  14.802  15.365
 1720PROX   H3213318  12.705  14.902  15.248
 1720PROX   H3313319  12.880  14.922  15.258
 1721PROX    O113320  12.675  15.027  15.490
 1721PROX    C113321  12.648  14.946  15.603
 1721PROX   H1113322  12.695  14.851  15.569
 1721PROX   H1313323  12.697  14.979  15.697
 1721PROX    C213324  12.496  14.933  15.617
 1721PROX   H2113325  12.448  14.902  15.522
 1721PROX    C313326  12.432  15.070  15.649
 1721PROX   H3113327  12.346  15.086  15.581
 1721PROX   H3213328  12.394  15.082  15.752
 1721PROX   H3313329  12.510  15.148  15.633
 1722PROX    O113330  12.465  14.833  15.716
 1722PROX    C113331  12.328  14.791  15.719
 1722PROX   H1113332  12.330  14.712  15.798
 1722PROX   H1313333  12.260  14.873  15.751
 1722PROX    C213334  12.272  14.733  15.580
 1722PROX   H2113335  12.265  14.817  15.508
 1722PROX    C313336  12.130  14.678  15.595
 1722PROX   H3113337  12.079  14.662  15.497
 1722PROX   H3213338  12.136  14.577  15.642
 1722PROX   H3313339  12.073  14.740  15.667
 1723PROX    O113340  12.356  14.622  15.531
 1723PROX    C113341  12.346  14.603  15.392
 1723PROX   H1113342  12.247  14.566  15.358
 1723PROX   H1313343  12.363  14.697  15.335
 1723PROX    C213344  12.434  14.492  15.339
 1723PROX   H2113345  12.397  14.396  15.382
 1723PROX    C313346  12.574  14.514  15.381
 1723PROX   H3113347  12.613  14.601  15.324
 1723PROX   H3213348  12.561  14.549  15.485
 1723PROX   H3313349  12.637  14.423  15.382
 1724PROX    O113350  12.423  14.496  15.199
 1724PROX    C113351  12.481  14.390  15.123
 1724PROX   H1113352  12.591  14.381  15.133
 1724PROX   H1313353  12.426  14.298  15.155
 1724PROX    C213354  12.461  14.424  14.978
 1724PROX   H2113355  12.362  14.469  14.957
 1724PROX    C313356  12.445  14.301  14.887
 1724PROX   H3113357  12.380  14.232  14.945
 1724PROX   H3213358  12.405  14.333  14.788
 1724PROX   H3313359  12.540  14.250  14.861
 1725PROX    O113360  12.559  14.523  14.946
 1725PROX    C113361  12.539  14.594  14.819
 1725PROX   H1113362  12.643  14.598  14.782
 1725PROX   H1313363  12.479  14.539  14.743
 1725PROX    C213364  12.495  14.742  14.851
 1725PROX   H2113365  12.579  14.789  14.905
 1725PROX    C313366  12.364  14.750  14.930
 1725PROX   H3113367  12.328  14.853  14.952
 1725PROX   H3213368  12.288  14.691  14.874
 1725PROX   H3313369  12.378  14.699  15.027
 1726PROX    O113370  12.466  14.804  14.732
 1726PROX    C113371  12.529  14.929  14.737
 1726PROX   H1113372  12.499  14.994  14.821
 1726PROX   H1313373  12.639  14.913  14.750
 1726PROX    C213374  12.511  15.004  14.603
 1726PROX   H2113375  12.575  14.941  14.536
 1726PROX    C313376  12.584  15.139  14.603
 1726PROX   H3113377  12.693  15.141  14.622
 1726PROX   H3213378  12.566  15.178  14.500
 1726PROX   H3313379  12.530  15.210  14.670
 1727PROX    O113380  12.374  14.997  14.558
 1727PROX    C113381  12.280  15.079  14.637
 1727PROX   H1113382  12.322  15.106  14.736
 1727PROX   H1313383  12.278  15.175  14.581
 1727PROX    C213384  12.140  15.014  14.655
 1727PROX   H2113385  12.163  14.925  14.717
 1727PROX    C313386  12.074  14.985  14.527
 1727PROX   H3113387  11.984  14.920  14.538
 1727PROX   H3213388  12.025  15.075  14.485
 1727PROX   H3313389  12.142  14.941  14.452
 1728PROX    O113390  12.063  15.105  14.729
 1728PROX    C113391  12.078  15.115  14.865
 1728PROX   H1113392  12.096  15.009  14.894
 1728PROX   H1313393  12.172  15.172  14.883
 1728PROX    C213394  11.965  15.190  14.951
 1728PROX   H2113395  11.870  15.193  14.894
 1728PROX    C313396  11.995  15.342  14.976
 1728PROX   H3113397  12.049  15.399  14.896
 1728PROX   H3213398  11.896  15.390  14.992
 1728PROX   H3313399  12.051  15.361  15.070
 1729PROX    O113400  11.931  15.128  15.071
 1729PROX    C113401  12.041  15.090  15.158
 1729PROX   H1113402  12.123  15.042  15.101
 1729PROX   H1313403  12.057  15.188  15.206
 1729PROX    C213404  11.982  14.986  15.252
 1729PROX   H2113405  11.876  15.009  15.280
 1729PROX    C313406  12.079  14.971  15.376
 1729PROX   H3113407  12.085  15.063  15.437
 1729PROX   H3213408  12.041  14.893  15.446
 1729PROX   H3313409  12.184  14.953  15.347
 1730PROX    O113410  11.973  14.860  15.178
 1730PROX    C113411  11.889  14.754  15.235
 1730PROX   H1113412  11.918  14.652  15.202
 1730PROX   H1313413  11.901  14.751  15.346
 1730PROX    C213414  11.738  14.762  15.189
 1730PROX   H2113415  11.701  14.859  15.230
 1730PROX    C313416  11.659  14.642  15.248
 1730PROX   H3113417  11.553  14.661  15.224
 1730PROX   H3213418  11.687  14.547  15.197
 1730PROX   H3313419  11.669  14.643  15.359
 1731PROX    O113420  11.730  14.751  15.049
 1731PROX    C113421  11.669  14.866  14.981
 1731PROX   H1113422  11.561  14.880  15.003
 1731PROX   H1313423  11.720  14.961  15.007
 1731PROX    C213424  11.684  14.857  14.820
 1731PROX   H2113425  11.790  14.833  14.798
 1731PROX    C313426  11.650  14.987  14.745
 1731PROX   H3113427  11.570  15.029  14.809
 1731PROX   H3213428  11.737  15.056  14.754
 1731PROX   H3313429  11.636  14.974  14.636
 1732PROX    O113430  11.607  14.745  14.771
 1732PROX    C113431  11.650  14.622  14.821
 1732PROX   H1113432  11.760  14.633  14.836
 1732PROX   H1313433  11.592  14.604  14.914
 1732PROX    C213434  11.622  14.503  14.724
 1732PROX   H2113435  11.679  14.519  14.630
 1732PROX    C313436  11.479  14.507  14.682
 1732PROX   H3113437  11.459  14.437  14.597
 1732PROX   H3213438  11.406  14.480  14.761
 1732PROX   H3313439  11.444  14.606  14.645
 1733PROX    O113440  11.668  14.380  14.775
 1733PROX    C113441  11.584  14.327  14.875
 1733PROX   H1113442  11.556  14.393  14.960
 1733PROX   H1313443  11.489  14.297  14.826
 1733PROX    C213444  11.645  14.198  14.942
 1733PROX   H2113445  11.693  14.141  14.860
 1733PROX    C313446  11.527  14.107  14.979
 1733PROX   H3113447  11.471  14.080  14.887
 1733PROX   H3213448  11.555  14.017  15.039
 1733PROX   H3313449  11.455  14.169  15.036
 1734PROX    O113450  11.738  14.219  15.057
 1734PROX    C113451  11.868  14.262  15.018
 1734PROX   H1113452  11.931  14.178  14.981
 1734PROX   H1313453  11.865  14.337  14.936
 1734PROX    C213454  11.944  14.331  15.139
 1734PROX   H2113455  11.885  14.422  15.166
 1734PROX    C313456  12.066  14.403  15.095
 1734PROX   H3113457  12.143  14.326  15.070
 1734PROX   H3213458  12.053  14.482  15.019
 1734PROX   H3313459  12.107  14.455  15.184
 1735PROX    O113460  11.959  14.243  15.255
 1735PROX    C113461  12.051  14.135  15.223
 1735PROX   H1113462  12.003  14.050  15.170
 1735PROX   H1313463  12.127  14.158  15.146
 1735PROX    C213464  12.138  14.093  15.350
 1735PROX   H2113465  12.207  14.176  15.374
 1735PROX    C313466  12.227  13.969  15.332
 1735PROX   H3113467  12.314  13.974  15.402
 1735PROX   H3213468  12.171  13.873  15.329
 1735PROX   H3313469  12.273  13.982  15.232
 1736PROX    O113470  12.056  14.066  15.462
 1736PROX    C113471  11.938  13.986  15.438
 1736PROX   H1113472  11.861  14.048  15.387
 1736PROX   H1313473  11.968  13.907  15.366
 1736PROX    C213474  11.884  13.930  15.578
 1736PROX   H2113475  11.871  14.011  15.652
 1736PROX    C313476  11.980  13.819  15.634
 1736PROX   H3113477  11.995  13.743  15.555
 1736PROX   H3213478  12.081  13.858  15.661
 1736PROX   H3313479  11.933  13.769  15.721
 1737PROX    O113480  11.749  13.878  15.560
 1737PROX    C113481  11.730  13.795  15.443
 1737PROX   H1113482  11.827  13.752  15.410
 1737PROX   H1313483  11.674  13.707  15.481
 1737PROX    C213484  11.649  13.856  15.323
 1737PROX   H2113485  11.708  13.944  15.289
 1737PROX    C313486  11.513  13.918  15.370
 1737PROX   H3113487  11.538  14.020  15.404
 1737PROX   H3213488  11.456  13.936  15.277
 1737PROX   H3313489  11.458  13.857  15.444
 1738PROX    O113490  11.629  13.761  15.223
 1738PROX    C113491  11.743  13.729  15.147
 1738PROX   H1113492  11.809  13.818  15.141
 1738PROX   H1313493  11.809  13.654  15.196
 1738PROX    C213494  11.705  13.679  15.007
 1738PROX   H2113495  11.620  13.742  14.975
 1738PROX    C313496  11.668  13.530  14.997
 1738PROX   H3113497  11.762  13.481  15.030
 1738PROX   H3213498  11.588  13.511  15.071
 1738PROX   H3313499  11.658  13.498  14.890
 1739PROX    O113500  11.815  13.695  14.929
 1739PROX    C113501  11.826  13.829  14.878
 1739PROX   H1113502  11.734  13.859  14.824
 1739PROX   H1313503  11.835  13.897  14.965
 1739PROX    C213504  11.965  13.848  14.790
 1739PROX   H2113505  11.956  13.796  14.693
 1739PROX    C313506  12.083  13.800  14.878
 1739PROX   H3113507  12.182  13.826  14.833
 1739PROX   H3213508  12.087  13.836  14.983
 1739PROX   H3313509  12.088  13.689  14.875
 1740PROX    O113510  11.977  13.986  14.772
 1740PROX    C113511  11.926  14.028  14.646
 1740PROX   H1113512  11.988  13.996  14.560
 1740PROX   H1313513  11.832  13.970  14.627
 1740PROX    C213514  11.904  14.182  14.637
 1740PROX   H2113515  11.860  14.218  14.732
 1740PROX    C313516  11.813  14.217  14.522
 1740PROX   H3113517  11.717  14.171  14.555
 1740PROX   H3213518  11.795  14.326  14.515
 1740PROX   H3313519  11.842  14.174  14.424
 1741PROX    O113520  12.022  14.239  14.608
 1741PROX    C113521  12.033  14.374  14.648
 1741PROX   H1113522  11.943  14.435  14.626
 1741PROX   H1313523  12.036  14.375  14.759
 1741PROX    C213524  12.166  14.435  14.593
 1741PROX   H2113525  12.251  14.368  14.618
 1741PROX    C313526  12.182  14.576  14.659
 1741PROX   H3113527  12.272  14.629  14.622
 1741PROX   H3213528  12.091  14.631  14.625
 1741PROX   H3313529  12.195  14.564  14.768
 1742PROX    O113530  12.148  14.451  14.453
 1742PROX    C113531  12.274  14.495  14.397
 1742PROX   H1113532  12.265  14.605  14.380
 1742PROX   H1313533  12.359  14.474  14.465
 1742PROX    C213534  12.306  14.420  14.265
 1742PROX   H2113535  12.284  14.314  14.290
 1742PROX    C313536  12.447  14.423  14.222
 1742PROX   H3113537  12.488  14.526  14.227
 1742PROX   H3213538  12.514  14.359  14.284
 1742PROX   H3313539  12.456  14.382  14.120
 1743PROX    O113540  12.213  14.468  14.166
 1743PROX    C113541  12.225  14.601  14.125
 1743PROX   H1113542  12.264  14.672  14.201
 1743PROX   H1313543  12.294  14.610  14.039
 1743PROX    C213544  12.084  14.652  14.079
 1743PROX   H2113545  12.037  14.566  14.026
 1743PROX    C313546  12.110  14.777  13.988
 1743PROX   H3113547  12.013  14.823  13.960
 1743PROX   H3213548  12.164  14.862  14.036
 1743PROX   H3313549  12.162  14.756  13.892
 1744PROX    O113550  12.010  14.691  14.198
 1744PROX    C113551  11.872  14.710  14.174
 1744PROX   H1113552  11.865  14.790  14.098
 1744PROX   H1313553  11.814  14.626  14.131
 1744PROX    C213554  11.810  14.759  14.304
 1744PROX   H2113555  11.871  14.843  14.343
 1744PROX    C313556  11.808  14.638  14.409
 1744PROX   H3113557  11.743  14.556  14.372
 1744PROX   H3213558  11.915  14.611  14.420
 1744PROX   H3313559  11.780  14.672  14.511
 1745PROX    O113560  11.677  14.799  14.267
 1745PROX    C113561  11.601  14.895  14.346
 1745PROX   H1113562  11.602  14.866  14.453
 1745PROX   H1313563  11.638  14.999  14.343
 1745PROX    C213564  11.461  14.914  14.292
 1745PROX   H2113565  11.461  14.920  14.181
 1745PROX    C313566  11.412  15.050  14.341
 1745PROX   H3113567  11.317  15.083  14.295
 1745PROX   H3213568  11.393  15.032  14.449
 1745PROX   H3313569  11.473  15.142  14.330
 1746PROX    O113570  11.373  14.820  14.337
 1746PROX    C113571  11.383  14.697  14.271
 1746PROX   H1113572  11.369  14.715  14.162
 1746PROX   H1313573  11.483  14.655  14.293
 1746PROX    C213574  11.275  14.612  14.339
 1746PROX   H2113575  11.315  14.592  14.441
 1746PROX    C313576  11.264  14.486  14.258
 1746PROX   H3113577  11.186  14.422  14.306
 1746PROX   H3213578  11.223  14.517  14.159
 1746PROX   H3313579  11.360  14.433  14.246
 1747PROX    O113580  11.145  14.670  14.328
 1747PROX    C113581  11.093  14.723  14.455
 1747PROX   H1113582  11.174  14.778  14.508
 1747PROX   H1313583  11.013  14.799  14.438
 1747PROX    C213584  11.040  14.618  14.551
 1747PROX   H2113585  11.115  14.538  14.565
 1747PROX    C313586  10.914  14.550  14.515
 1747PROX   H3113587  10.922  14.478  14.431
 1747PROX   H3213588  10.877  14.488  14.599
 1747PROX   H3313589  10.846  14.631  14.480
 1748PROX    O113590  11.021  14.681  14.680
 1748PROX    C113591  11.143  14.675  14.753
 1748PROX   H1113592  11.163  14.568  14.770
 1748PROX   H1313593  11.221  14.733  14.699
 1748PROX    C213594  11.123  14.745  14.888
 1748PROX   H2113595  11.065  14.839  14.884
 1748PROX    C313596  11.263  14.762  14.947
 1748PROX   H3113597  11.306  14.661  14.964
 1748PROX   H3213598  11.333  14.822  14.885
 1748PROX   H3313599  11.252  14.813  15.046
 1749PROX    O113600  11.037  14.661  14.970
 1749PROX    C113601  11.011  14.720  15.097
 1749PROX   H1113602  11.092  14.778  15.147
 1749PROX   H1313603  10.929  14.793  15.082
 1749PROX    C213604  10.960  14.602  15.192
 1749PROX   H2113605  10.985  14.509  15.138
 1749PROX    C313606  10.807  14.601  15.215
 1749PROX   H3113607  10.756  14.615  15.117
 1749PROX   H3213608  10.768  14.504  15.252
 1749PROX   H3313609  10.773  14.682  15.283
 1750PROX    O113610  11.025  14.615  15.317
 1750PROX    C113611  11.156  14.558  15.311
 1750PROX   H1113612  11.155  14.448  15.296
 1750PROX   H1313613  11.209  14.600  15.223
 1750PROX    C213614  11.241  14.595  15.436
 1750PROX   H2113615  11.202  14.557  15.532
 1750PROX    C313616  11.259  14.750  15.437
 1750PROX   H3113617  11.273  14.787  15.541
 1750PROX   H3213618  11.347  14.778  15.375
 1750PROX   H3313619  11.170  14.808  15.405
 1751PROX    O113620  11.363  14.534  15.417
 1751PROX    C113621  11.374  14.412  15.491
 1751PROX   H1113622  11.396  14.431  15.599
 1751PROX   H1313623  11.285  14.346  15.487
 1751PROX    C213624  11.499  14.334  15.442
 1751PROX   H2113625  11.576  14.410  15.422
 1751PROX    C313626  11.477  14.259  15.316
 1751PROX   H3113627  11.448  14.328  15.234
 1751PROX   H3213628  11.569  14.213  15.275
 1751PROX   H3313629  11.398  14.181  15.327
 1752PROX    O113630  11.553  14.251  15.547
 1752PROX    C113631  11.694  14.240  15.538
 1752PROX   H1113632  11.723  14.143  15.582
 1752PROX   H1313633  11.724  14.243  15.431
 1752PROX    C213634  11.780  14.342  15.619
 1752PROX   H2113635  11.766  14.437  15.563
 1752PROX    C313636  11.926  14.304  15.638
 1752PROX   H3113637  11.989  14.390  15.671
 1752PROX   H3213638  11.933  14.220  15.711
 1752PROX   H3313639  11.971  14.271  15.542
 1753PROX    O113640  11.710  14.356  15.740
 1753PROX    C113641  11.747  14.473  15.816
 1753PROX   H1113642  11.740  14.449  15.925
 1753PROX   H1313643  11.854  14.501  15.811
 1753PROX    C213644  11.670  14.599  15.776
 1753PROX   H2113645  11.646  14.597  15.667
 1753PROX    C313646  11.751  14.725  15.813
 1753PROX   H3113647  11.709  14.813  15.760
 1753PROX   H3213648  11.747  14.729  15.924
 1753PROX   H3313649  11.859  14.722  15.787
 1754PROX    O113650  11.549  14.609  15.853
 1754PROX    C113651  11.442  14.672  15.777
 1754PROX   H1113652  11.474  14.775  15.751
 1754PROX   H1313653  11.424  14.625  15.679
 1754PROX    C213654  11.307  14.688  15.852
 1754PROX   H2113655  11.343  14.695  15.956
 1754PROX    C313656  11.200  14.582  15.819
 1754PROX   H3113657  11.134  14.554  15.905
 1754PROX   H3213658  11.128  14.612  15.739
 1754PROX   H3313659  11.245  14.487  15.782
 1755PROX    O113660  11.244  14.805  15.818
 1755PROX    C113661  11.147  14.852  15.914
 1755PROX   H1113662  11.065  14.777  15.923
 1755PROX   H1313663  11.190  14.854  16.016
 1755PROX    C213664  11.087  14.983  15.863
 1755PROX   H2113665  11.054  14.963  15.759
 1755PROX    C313666  11.196  15.102  15.870
 1755PROX   H3113667  11.265  15.088  15.784
 1755PROX   H3213668  11.150  15.203  15.857
 1755PROX   H3313669  11.243  15.095  15.971
 1756ETHO    O113670  10.981  15.012  15.955
 1756ETHO    C113671  10.863  14.941  15.925
 1756ETHO   H1113672  10.866  14.837  15.964
 1756ETHO   H1313673  10.846  14.936  15.815
 1756ETHO    C213674  10.746  15.033  15.982
 1756ETHO   H2113675  10.651  14.975  15.975
 1756ETHO   H2313676  10.739  15.130  15.929
 1757ETHO    O113677  10.754  15.053  16.122
 1757ETHO    C113678  10.639  15.131  16.170
 1757ETHO   H1113679  10.634  15.221  16.105
 1757ETHO   H1313680  10.540  15.081  16.159
 1757ETHO    C213681  10.659  15.193  16.316
 1757ETHO   H2113682  10.662  15.113  16.393
 1757ETHO   H2313683  10.565  15.249  16.329
 1758ETHO    O113684  10.775  15.276  16.310
 1758ETHO    C113685  10.809  15.345  16.433
 1758ETHO   H1113686  10.833  15.264  16.506
 1758ETHO   H1313687  10.714  15.386  16.474
 1758ETHO    C213688  10.912  15.453  16.402
 1758ETHO   H2113689  10.877  15.517  16.317
 1758ETHO   H2313690  11.012  15.413  16.377
 1759ETHO    O113691  10.927  15.539  16.516
 1759ETHO    C113692  11.006  15.475  16.623
 1759ETHO   H1113693  10.957  15.383  16.661
 1759ETHO   H1313694  11.100  15.440  16.577
 1759ETHO    C213695  11.029  15.576  16.736
 1759ETHO   H2113696  11.076  15.521  16.821
 1759ETHO   H2313697  10.932  15.618  16.768
 1760ETHO    O113698  11.106  15.691  16.704
 1760ETHO    C113699  11.247  15.664  16.694
 1760ETHO   H1113700  11.285  15.659  16.589
 1760ETHO   H1313701  11.272  15.566  16.741
 1760ETHO    C213702  11.323  15.783  16.753
 1760ETHO   H2113703  11.425  15.746  16.777
 1760ETHO   H2313704  11.286  15.812  16.854
 1761ETHO    O113705  11.342  15.898  16.668
 1761ETHO    C113706  11.393  16.011  16.741
 1761ETHO   H1113707  11.315  16.031  16.817
 1761ETHO   H1313708  11.481  15.970  16.795
 1761ETHO    C213709  11.434  16.132  16.653
 1761ETHO   H2113710  11.502  16.103  16.570
 1761ETHO   H2313711  11.493  16.207  16.710
 1762ETHO    O113712  11.325  16.221  16.608
 1762ETHO    C113713  11.377  16.307  16.504
 1762ETHO   H1113714  11.386  16.247  16.411
 1762ETHO   H1313715  11.474  16.354  16.529
 1762ETHO    C213716  11.273  16.418  16.479
 1762ETHO   H2113717  11.170  16.377  16.468
 1762ETHO   H2313718  11.287  16.451  16.373
 1763ETHO    O113719  11.276  16.528  16.576
 1763ETHO    C113720  11.192  16.643  16.540
 1763ETHO   H1113721  11.216  16.671  16.436
 1763ETHO   H1313722  11.085  16.615  16.548
 1763ETHO    C213723  11.217  16.777  16.616
 1763ETHO   H2113724  11.154  16.854  16.566
 1763ETHO   H2313725  11.182  16.773  16.721
 1764ETHO    O113726  11.355  16.812  16.610
 1764ETHO    C113727  11.362  16.942  16.657
 1764ETHO   H1113728  11.313  17.021  16.595
 1764ETHO   H1313729  11.305  16.932  16.752
 1764ETHO    C213730  11.510  16.986  16.687
 1764ETHO   H2113731  11.568  17.023  16.600
 1764ETHO   H2313732  11.564  16.893  16.714
 1765ETHO    O113733  11.520  17.077  16.793
 1765ETHO    C113734  11.657  17.095  16.826
 1765ETHO   H1113735  11.721  17.030  16.762
 1765ETHO   H1313736  11.682  17.203  16.826
 1765ETHO    C213737  11.657  17.041  16.972
 1765ETHO   H2113738  11.750  17.003  17.019
 1765ETHO   H2313739  11.597  16.947  16.976
 1766ETHO    O113740  11.611  17.142  17.068
 1766ETHO    C113741  11.610  17.097  17.204
 1766ETHO   H1113742  11.518  17.038  17.225
 1766ETHO   H1313743  11.693  17.027  17.227
 1766ETHO    C213744  11.638  17.199  17.315
 1766ETHO   H2113745  11.733  17.246  17.281
 1766ETHO   H2313746  11.665  17.134  17.401
 1767ETHO    O113747  11.534  17.289  17.329
 1767ETHO    C113748  11.583  17.410  17.383
 1767ETHO   H1113749  11.653  17.386  17.466
 1767ETHO   H1313750  11.505  17.458  17.446
 1767ETHO    C213751  11.634  17.514  17.285
 1767ETHO   H2113752  11.696  17.476  17.201
 1767ETHO   H2313753  11.697  17.588  17.338
 1768ETHO    O113754  11.528  17.589  17.226
 1768ETHO    C113755  11.582  17.694  17.141
 1768ETHO   H1113756  11.628  17.770  17.208
 1768ETHO   H1313757  11.655  17.642  17.076
 1768ETHO    C213758  11.476  17.774  17.055
 1768ETHO   H2113759  11.423  17.693  17.000
 1768ETHO   H2313760  11.530  17.849  16.993
 1769ETHO    O113761  11.378  17.842  17.140
 1769ETHO    C113762  11.258  17.881  17.073
 1769ETHO   H1113763  11.216  17.781  17.047
 1769ETHO   H1313764  11.297  17.925  16.979
 1769ETHO    C213765  11.166  17.986  17.140
 1769ETHO   H2113766  11.089  18.020  17.067
 1769ETHO   H2313767  11.226  18.074  17.169
 1770ETHO    O113768  11.113  17.935  17.260
 1770ETHO    C113769  11.049  18.042  17.340
 1770ETHO   H1113770  11.127  18.120  17.356
 1770ETHO   H1313771  10.963  18.085  17.284
 1770ETHO    C213772  11.008  17.988  17.476
 1770ETHO   H2113773  10.956  17.890  17.465
 1770ETHO   H2313774  10.930  18.050  17.526
 1771ETHO    O113775  11.114  17.971  17.574
 1771ETHO    C113776  11.064  17.913  17.694
 1771ETHO   H1113777  11.000  17.823  17.685
 1771ETHO   H1313778  10.988  17.980  17.739
 1771ETHO    C213779  11.173  17.903  17.799
 1771ETHO   H2113780  11.132  17.905  17.902
 1771ETHO   H2313781  11.239  17.993  17.802
 1772ETHO    O113782  11.250  17.781  17.774
 1772ETHO    C113783  11.335  17.756  17.886
 1772ETHO   H1113784  11.366  17.854  17.928
 1772ETHO   H1313785  11.274  17.704  17.962
 1772ETHO    C213786  11.467  17.678  17.854
 1772ETHO   H2113787  11.433  17.580  17.813
 1772ETHO   H2313788  11.534  17.682  17.942
 1773ETHO    O113789  11.545  17.744  17.763
 1773ETHO    C113790  11.649  17.666  17.732
 1773ETHO   H1113791  11.612  17.573  17.683
 1773ETHO   H1313792  11.702  17.628  17.822
 1773ETHO    C213793  11.756  17.742  17.660
 1773ETHO   H2113794  11.853  17.687  17.668
 1773ETHO   H2313795  11.770  17.843  17.705
 1774ETHO    O113796  11.710  17.749  17.527
 1774ETHO    C113797  11.796  17.842  17.458
 1774ETHO   H1113798  11.731  17.870  17.372
 1774ETHO   H1313799  11.810  17.938  17.511
 1774ETHO    C213800  11.940  17.793  17.415
 1774ETHO   H2113801  12.014  17.781  17.496
 1774ETHO   H2313802  11.981  17.878  17.356
 1775ETHO    O113803  11.932  17.677  17.334
 1775ETHO    C113804  12.051  17.646  17.276
 1775ETHO   H1113805  12.085  17.720  17.201
 1775ETHO   H1313806  12.122  17.637  17.361
 1775ETHO    C213807  12.046  17.511  17.199
 1775ETHO   H2113808  12.152  17.484  17.178
 1775ETHO   H2313809  11.991  17.525  17.103
 1776ETHO    O113810  11.995  17.408  17.278
 1776ETHO    C113811  11.969  17.293  17.196
 1776ETHO   H1113812  11.928  17.210  17.258
 1776ETHO   H1313813  11.902  17.326  17.113
 1776ETHO    C213814  12.090  17.220  17.138
 1776ETHO   H2113815  12.127  17.156  17.221
 1776ETHO   H2313816  12.168  17.285  17.093
 1777ETHO    O113817  12.048  17.124  17.044
 1777ETHO    C113818  12.153  17.055  16.982
 1777ETHO   H1113819  12.188  17.128  16.906
 1777ETHO   H1313820  12.236  17.056  17.056
 1777ETHO    C213821  12.109  16.923  16.911
 1777ETHO   H2113822  12.042  16.881  16.990
 1777ETHO   H2313823  12.190  16.849  16.896
 1778ETHO    O113824  12.018  16.943  16.790
 1778ETHO    C113825  12.102  16.979  16.680
 1778ETHO   H1113826  12.165  16.894  16.649
 1778ETHO   H1313827  12.169  17.068  16.691
 1778ETHO    C213828  12.006  17.005  16.566
 1778ETHO   H2113829  12.059  17.045  16.477
 1778ETHO   H2313830  11.935  17.090  16.582
 1779ETHO    O113831  11.930  16.892  16.516
 1779ETHO    C113832  11.876  16.921  16.388
 1779ETHO   H1113833  11.803  17.005  16.391
 1779ETHO   H1313834  11.961  16.937  16.319
 1779ETHO    C213835  11.821  16.794  16.325
 1779ETHO   H2113836  11.758  16.821  16.237
 1779ETHO   H2313837  11.758  16.748  16.404
 1780ETHO    O113838  11.916  16.695  16.287
 1780ETHO    C113839  11.994  16.633  16.390
 1780ETHO   H1113840  11.926  16.591  16.467
 1780ETHO   H1313841  12.057  16.705  16.446
 1780ETHO    C213842  12.080  16.526  16.339
 1780ETHO   H2113843  12.033  16.478  16.250
 1780ETHO   H2313844  12.103  16.443  16.409
 1781ETHO    O113845  12.203  16.589  16.303
 1781ETHO    C113846  12.269  16.512  16.207
 1781ETHO   H1113847  12.284  16.408  16.245
 1781ETHO   H1313848  12.202  16.512  16.118
 1781ETHO    C213849  12.404  16.568  16.156
 1781ETHO   H2113850  12.464  16.491  16.103
 1781ETHO   H2313851  12.466  16.606  16.240
 1782ETHO    O113852  12.369  16.680  16.071
 1782ETHO    C113853  12.479  16.734  15.989
 1782ETHO   H1113854  12.557  16.765  16.062
 1782ETHO   H1313855  12.442  16.829  15.945
 1782ETHO    C213856  12.511  16.642  15.877
 1782ETHO   H2113857  12.547  16.541  15.908
 1782ETHO   H2313858  12.594  16.687  15.819
 1783ETHO    O113859  12.400  16.622  15.788
 1783ETHO    C113860  12.448  16.565  15.671
 1783ETHO   H1113861  12.522  16.635  15.626
 1783ETHO   H1313862  12.500  16.468  15.690
 1783ETHO    C213863  12.332  16.557  15.560
 1783ETHO   H2113864  12.240  16.502  15.590
 1783ETHO   H2313865  12.370  16.497  15.475
 1784ETHO    O113866  12.292  16.682  15.501
 1784ETHO    C113867  12.229  16.771  15.591
 1784ETHO   H1113868  12.198  16.846  15.515
 1784ETHO   H1313869  12.297  16.819  15.664
 1784ETHO    C213870  12.106  16.712  15.667
 1784ETHO   H2113871  12.138  16.669  15.764
 1784ETHO   H2313872  12.053  16.633  15.609
 1785ETHO    O113873  12.007  16.807  15.705
 1785ETHO    C113874  11.928  16.789  15.821
 1785ETHO   H1113875  11.872  16.693  15.820
 1785ETHO   H1313876  11.991  16.784  15.912
 1785ETHO    C213877  11.826  16.904  15.838
 1785ETHO   H2113878  11.877  17.001  15.856
 1785ETHO   H2313879  11.765  16.877  15.927
 1786ETHO    O113880  11.741  16.923  15.725
 1786ETHO    C113881  11.615  16.845  15.729
 1786ETHO   H1113882  11.556  16.870  15.819
 1786ETHO   H1313883  11.558  16.880  15.640
 1786ETHO    C213884  11.623  16.689  15.706
 1786ETHO   H2113885  11.689  16.655  15.624
 1786ETHO   H2313886  11.521  16.657  15.678
 1787ETHO    O113887  11.661  16.619  15.822
 1787ETHO    C113888  11.661  16.475  15.807
 1787ETHO   H1113889  11.555  16.441  15.807
 1787ETHO   H1313890  11.689  16.455  15.702
 1787ETHO    C213891  11.747  16.387  15.902
 1787ETHO   H2113892  11.721  16.282  15.880
 1787ETHO   H2313893  11.726  16.405  16.009
 1788ETHO    O113894  11.879  16.392  15.865
 1788ETHO    C113895  11.953  16.294  15.934
 1788ETHO   H1113896  11.952  16.301  16.045
 1788ETHO   H1313897  11.917  16.195  15.898
 1788ETHO    C213898  12.106  16.294  15.891
 1788ETHO   H2113899  12.132  16.401  15.904
 1788ETHO   H2313900  12.118  16.259  15.786
 1789ETHO    O113901  12.190  16.219  15.981
 1789ETHO    C113902  12.322  16.227  15.941
 1789ETHO   H1113903  12.346  16.330  15.909
 1789ETHO   H1313904  12.334  16.160  15.853
 1789ETHO    C213905  12.432  16.175  16.041
 1789ETHO   H2113906  12.527  16.183  15.985
 1789ETHO   H2313907  12.402  16.072  16.071
 1790ETHO    O113908  12.432  16.256  16.158
 1790ETHO    C113909  12.511  16.208  16.257
 1790ETHO   H1113910  12.543  16.105  16.231
 1790ETHO   H1313911  12.605  16.263  16.278
 1790ETHO    C213912  12.425  16.188  16.387
 1790ETHO   H2113913  12.374  16.283  16.411
 1790ETHO   H2313914  12.502  16.170  16.465
 1791ETHO    O113915  12.340  16.069  16.395
 1791ETHO    C113916  12.215  16.092  16.337
 1791ETHO   H1113917  12.224  16.122  16.231
 1791ETHO   H1313918  12.164  16.171  16.397
 1791ETHO    C213919  12.131  15.965  16.338
 1791ETHO   H2113920  12.183  15.884  16.282
 1791ETHO   H2313921  12.035  15.990  16.288
 1792ETHO    O113922  12.088  15.918  16.460
 1792ETHO    C113923  12.027  15.789  16.448
 1792ETHO   H1113924  12.094  15.723  16.388
 1792ETHO   H1313925  12.037  15.741  16.547
 1792ETHO    C213926  11.885  15.790  16.387
 1792ETHO   H2113927  11.812  15.851  16.442
 1792ETHO   H2313928  11.839  15.690  16.405
 1793ETHO    O113929  11.878  15.815  16.250
 1793ETHO    C113930  11.746  15.822  16.201
 1793ETHO   H1113931  11.692  15.905  16.253
 1793ETHO   H1313932  11.683  15.731  16.208
 1793ETHO    C213933  11.742  15.867  16.054
 1793ETHO   H2113934  11.806  15.797  15.996
 1793ETHO   H2313935  11.796  15.964  16.050
 1794ETHO    O113936  11.611  15.875  16.001
 1794ETHO    C113937  11.522  15.966  16.066
 1794ETHO   H1113938  11.426  15.937  16.018
 1794ETHO   H1313939  11.495  15.947  16.172
 1794ETHO    C213940  11.555  16.109  16.034
 1794ETHO   H2113941  11.461  16.158  16.066
 1794ETHO   H2313942  11.568  16.117  15.924
 1795ETHO    O113943  11.670  16.176  16.092
 1795ETHO    C113944  11.637  16.217  16.225
 1795ETHO   H1113945  11.579  16.135  16.273
 1795ETHO   H1313946  11.570  16.306  16.221
 1795ETHO    C213947  11.764  16.252  16.310
 1795ETHO   H2113948  11.791  16.356  16.281
 1795ETHO   H2313949  11.847  16.183  16.283
 1796ETHO    O113950  11.745  16.245  16.450
 1796ETHO    C113951  11.870  16.255  16.520
 1796ETHO   H1113952  11.957  16.207  16.471
 1796ETHO   H1313953  11.894  16.363  16.530
 1796ETHO    C213954  11.859  16.214  16.674
 1796ETHO   H2113955  11.935  16.279  16.723
 1796ETHO   H2313956  11.757  16.242  16.707
 1797ETHO    O113957  11.880  16.081  16.719
 1797ETHO    C113958  11.774  15.992  16.693
 1797ETHO   H1113959  11.747  15.985  16.585
 1797ETHO   H1313960  11.682  16.032  16.741
 1797ETHO    C213961  11.797  15.848  16.747
 1797ETHO   H2113962  11.765  15.854  16.853
 1797ETHO   H2313963  11.904  15.819  16.738
 1798ETHO    O113964  11.717  15.758  16.667
 1798ETHO    C113965  11.718  15.635  16.731
 1798ETHO   H1113966  11.823  15.608  16.752
 1798ETHO   H1313967  11.669  15.647  16.830
 1798ETHO    C213968  11.659  15.536  16.630
 1798ETHO   H2113969  11.714  15.541  16.534
 1798ETHO   H2313970  11.554  15.567  16.608
 1799ETHO    O113971  11.645  15.400  16.669
 1799ETHO    C113972  11.772  15.337  16.663
 1799ETHO   H1113973  11.845  15.387  16.730
 1799ETHO   H1313974  11.806  15.342  16.558
 1799ETHO    C213975  11.758  15.191  16.708
 1799ETHO   H2113976  11.699  15.197  16.802
 1799ETHO   H2313977  11.851  15.132  16.726
 1800ETHO    O113978  11.694  15.123  16.598
 1800ETHO    C113979  11.683  14.980  16.614
 1800ETHO   H1113980  11.783  14.932  16.602
 1800ETHO   H1313981  11.641  14.959  16.715
 1800ETHO    C213982  11.591  14.931  16.505
 1800ETHO   H2113983  11.508  15.003  16.487
 1800ETHO   H2313984  11.546  14.833  16.531
 1801ETHO    O113985  11.671  14.906  16.383
 1801ETHO    C113986  11.604  14.869  16.264
 1801ETHO   H1113987  11.670  14.810  16.197
 1801ETHO   H1313988  11.519  14.803  16.290
 1801ETHO    C213989  11.545  14.990  16.185
 1801ETHO   H2113990  11.485  15.052  16.254
 1801ETHO   H2313991  11.476  14.956  16.104
 1802ETHO    O113992  11.657  15.071  16.134
 1802ETHO    C113993  11.620  15.197  16.089
 1802ETHO   H1113994  11.644  15.201  15.981
 1802ETHO   H1313995  11.510  15.212  16.094
 1802ETHO    C213996  11.684  15.297  16.174
 1802ETHO   H2113997  11.654  15.278  16.279
 1802ETHO   H2313998  11.658  15.401  16.142
 1803ETHO    O113999  11.828  15.309  16.165
 1803ETHO    C114000  11.877  15.405  16.264
 1803ETHO   H1114001  11.846  15.507  16.231
 1803ETHO   H1314002  11.828  15.399  16.364
 1803ETHO    C214003  12.034  15.410  16.278
 1803ETHO   H2114004  12.075  15.307  16.281
 1803ETHO   H2314005  12.057  15.464  16.373
 1804ETHO    O114006  12.097  15.459  16.158
 1804ETHO    C114007  12.223  15.518  16.179
 1804ETHO   H1114008  12.279  15.452  16.248
 1804ETHO   H1314009  12.201  15.619  16.219
 1804ETHO    C214010  12.296  15.531  16.054
 1804ETHO   H2114011  12.389  15.591  16.057
 1804ETHO   H2314012  12.228  15.582  15.983
 1805ETHO    O114013  12.332  15.403  15.999
 1805ETHO    C114014  12.447  15.340  16.040
 1805ETHO   H1114015  12.435  15.342  16.151
 1805ETHO   H1314016  12.442  15.234  16.007
 1805ETHO    C214017  12.577  15.414  16.002
 1805ETHO   H2114018  12.662  15.365  16.054
 1805ETHO   H2314019  12.582  15.524  16.017
 1806ETHO    O114020  12.602  15.384  15.864
 1806ETHO    C114021  12.735  15.424  15.828
 1806ETHO   H1114022  12.817  15.375  15.885
 1806ETHO   H1314023  12.738  15.529  15.862
 1806ETHO    C214024  12.770  15.402  15.681
 1806ETHO   H2114025  12.737  15.304  15.642
 1806ETHO   H2314026  12.881  15.406  15.675
 1807ETHO    O114027  12.704  15.508  15.605
 1807ETHO    C114028  12.718  15.498  15.468
 1807ETHO   H1114029  12.825  15.479  15.446
 1807ETHO   H1314030  12.652  15.415  15.434
 1807ETHO    C214031  12.677  15.627  15.397
 1807ETHO   H2114032  12.739  15.711  15.433
 1807ETHO   H2314033  12.569  15.625  15.420
 1808ETHO    O114034  12.684  15.614  15.258
 1808ETHO    C114035  12.708  15.742  15.197
 1808ETHO   H1114036  12.804  15.784  15.233
 1808ETHO   H1314037  12.620  15.804  15.224
 1808ETHO    C214038  12.723  15.726  15.046
 1808ETHO   H2114039  12.811  15.661  15.023
 1808ETHO   H2314040  12.740  15.824  14.998
 1809ETHO    O114041  12.607  15.656  15.001
 1809ETHO    C114042  12.583  15.694  14.868
 1809ETHO   H1114043  12.592  15.804  14.859
 1809ETHO   H1314044  12.663  15.647  14.807
 1809ETHO    C214045  12.446  15.651  14.818
 1809ETHO   H2114046  12.435  15.695  14.716
 1809ETHO   H2314047  12.362  15.681  14.884
 1810ETHO    O114048  12.439  15.510  14.789
 1810ETHO    C114049  12.310  15.458  14.788
 1810ETHO   H1114050  12.258  15.476  14.884
 1810ETHO   H1314051  12.328  15.349  14.778
 1810ETHO    C214052  12.217  15.499  14.671
 1810ETHO   H2114053  12.273  15.494  14.575
 1810ETHO   H2314054  12.182  15.602  14.692
 1811ETHO    O114055  12.107  15.411  14.673
 1811ETHO    C114056  11.997  15.461  14.600
 1811ETHO   H1114057  11.987  15.570  14.620
 1811ETHO   H1314058  12.028  15.444  14.495
 1811ETHO    C214059  11.870  15.385  14.633
 1811ETHO   H2114060  11.839  15.412  14.736
 1811ETHO   H2314061  11.889  15.278  14.657
 1812ETHO    O114062  11.775  15.403  14.529
 1812ETHO    C114063  11.671  15.311  14.541
 1812ETHO   H1114064  11.607  15.306  14.451
 1812ETHO   H1314065  11.708  15.208  14.563
 1812ETHO    C214066  11.572  15.342  14.656
 1812ETHO   H2114067  11.526  15.443  14.653
 1812ETHO   H2314068  11.616  15.337  14.758
 1813ETHO    O114069  11.473  15.238  14.659
 1813ETHO    C114070  11.369  15.263  14.756
 1813ETHO   H1114071  11.420  15.264  14.855
 1813ETHO   H1314072  11.323  15.362  14.736
 1813ETHO    C214073  11.265  15.150  14.759
 1813ETHO   H2114074  11.196  15.165  14.845
 1813ETHO   H2314075  11.331  15.062  14.767
 1814ETHO    O114076  11.187  15.140  14.641
 1814ETHO    C114077  11.102  15.022  14.642
 1814ETHO   H1114078  11.093  14.989  14.536
 1814ETHO   H1314079  11.148  14.934  14.692
 1814ETHO    C214080  10.962  15.047  14.693
 1814ETHO   H2114081  10.898  14.957  14.685
 1814ETHO   H2314082  10.908  15.128  14.639
 1815ETHO    O114083  10.959  15.079  14.832
 1815ETHO    C114084  10.836  15.072  14.888
 1815ETHO   H1114085  10.825  14.962  14.897
 1815ETHO   H1314086  10.768  15.128  14.821
 1815ETHO    C214087  10.821  15.126  15.023
 1815ETHO   H2114088  10.710  15.128  15.034
 1815ETHO   H2314089  10.862  15.229  15.033
 1816ETHO    O114090  10.882  15.038  15.111
 1816ETHO    C114091  10.829  15.054  15.246
 1816ETHO   H1114092  10.802  15.152  15.290
 1816ETHO   H1314093  10.729  15.005  15.251
 1816ETHO    C214094  10.914  14.975  15.351
 1816ETHO   H2114095  11.020  15.003  15.332
 1816ETHO   H2314096  10.899  14.866  15.333
 1817ETHO    O114097  10.883  15.007  15.491
 1817ETHO    C114098  10.936  15.134  15.524
 1817ETHO   H1114099  10.934  15.210  15.443
 1817ETHO   H1314100  11.046  15.139  15.539
 1817ETHO    C214101  10.852  15.199  15.642
 1817ETHO   H2114102  10.880  15.132  15.727
 1817ETHO   H2314103  10.743  15.177  15.630
 1818ETHO    O114104  10.869  15.338  15.667
 1818ETHO    C114105  10.803  15.379  15.785
 1818ETHO   H1114106  10.708  15.322  15.792
 1818ETHO   H1314107  10.875  15.354  15.866
 1818ETHO    C214108  10.785  15.530  15.807
 1818ETHO   H2114109  10.724  15.587  15.734
 1818ETHO   H2314110  10.886  15.576  15.797
 1819ETHO    O114111  10.747  15.559  15.940
 1819ETHO    C114112  10.719  15.697  15.957
 1819ETHO   H1114113  10.691  15.744  15.860
 1819ETHO   H1314114  10.813  15.756  15.966
 1819ETHO    C214115  10.616  15.729  16.066
 1819ETHO   H2114116  10.518  15.678  16.072
 1819ETHO   H2314117  10.585  15.832  16.039
 1820ETHO    O114118  10.692  15.741  16.185
 1820ETHO    C114119  10.611  15.791  16.299
 1820ETHO   H1114120  10.590  15.896  16.268
 1820ETHO   H1314121  10.514  15.737  16.305
 1820ETHO    C214122  10.674  15.776  16.434
 1820ETHO   H2114123  10.737  15.685  16.441
 1820ETHO   H2314124  10.592  15.759  16.507
 1821ETHO    O114125  10.763  15.886  16.465
 1821ETHO    C114126  10.795  15.875  16.602
 1821ETHO   H1114127  10.845  15.776  16.613
 1821ETHO   H1314128  10.701  15.864  16.662
 1821ETHO    C214129  10.881  15.988  16.658
 1821ETHO   H2114130  10.973  15.993  16.597
 1821ETHO   H2314131  10.911  15.967  16.763
 1822ETHO    O114132  10.811  16.113  16.649
 1822ETHO    C114133  10.896  16.228  16.695
 1822ETHO   H1114134  10.901  16.220  16.806
 1822ETHO   H1314135  11.001  16.225  16.659
 1822ETHO    C214136  10.828  16.356  16.663
 1822ETHO   H2114137  10.731  16.330  16.614
 1822ETHO   H2314138  10.881  16.404  16.578
 1823ETHO    O114139  10.807  16.441  16.775
 1823ETHO    C114140  10.926  16.503  16.823
 1823ETHO   H1114141  10.950  16.440  16.912
 1823ETHO   H1314142  11.005  16.508  16.746
 1823ETHO    C214143  10.898  16.647  16.886
 1823ETHO   H2114144  10.968  16.656  16.972
 1823ETHO   H2314145  10.791  16.657  16.913
 1824ETHO    O114146  10.916  16.756  16.795
 1824ETHO    C114147  10.879  16.878  16.862
 1824ETHO   H1114148  10.769  16.887  16.869
 1824ETHO   H1314149  10.924  16.887  16.963
 1824ETHO    C214150  10.935  16.997  16.782
 1824ETHO   H2114151  11.044  16.984  16.765
 1824ETHO   H2314152  10.917  17.087  16.844
 1825ETHO    O114153  10.860  17.010  16.666
 1825ETHO    C114154  10.914  17.110  16.580
 1825ETHO   H1114155  11.024  17.094  16.568
 1825ETHO   H1314156  10.863  17.107  16.482
 1825ETHO    C214157  10.898  17.257  16.623
 1825ETHO   H2114158  10.958  17.316  16.551
 1825ETHO   H2314159  10.946  17.279  16.721
 1826ETHO    O114160  10.766  17.304  16.617
 1826ETHO    C114161  10.751  17.434  16.672
 1826ETHO   H1114162  10.835  17.502  16.645
 1826ETHO   H1314163  10.764  17.417  16.781
 1826ETHO    C214164  10.622  17.504  16.631
 1826ETHO   H2114165  10.616  17.494  16.521
 1826ETHO   H2314166  10.635  17.608  16.667
 1827ETHO    O114167  10.499  17.446  16.691
 1827ETHO    C114168  10.373  17.517  16.661
 1827ETHO   H1114169  10.391  17.626  16.676
 1827ETHO   H1314170  10.343  17.494  16.557
 1827ETHO    C214171  10.252  17.470  16.741
 1827ETHO   H2114172  10.262  17.365  16.777
 1827ETHO   H2314173  10.163  17.491  16.678
 1828ETHO    O114174  10.227  17.547  16.857
 1828ETHO    C114175  10.332  17.549  16.954
 1828ETHO   H1114176  10.417  17.613  16.921
 1828ETHO   H1314177  10.379  17.450  16.969
 1828ETHO    C214178  10.283  17.603  17.085
 1828ETHO   H2114179  10.248  17.706  17.064
 1828ETHO   H2314180  10.378  17.626  17.137
 1829ETHO    O114181  10.200  17.507  17.144
 1829ETHO    C114182  10.162  17.549  17.273
 1829ETHO   H1114183  10.234  17.518  17.352
 1829ETHO   H1314184  10.162  17.660  17.262
 1829ETHO    C214185  10.027  17.489  17.309
 1829ETHO   H2114186  10.010  17.383  17.282
 1829ETHO   H2314187  10.022  17.486  17.420
 1830ETHO    O114188   9.924  17.577  17.268
 1830ETHO    C114189   9.791  17.528  17.295
 1830ETHO   H1114190   9.777  17.418  17.288
 1830ETHO   H1314191   9.728  17.574  17.216
 1830ETHO    C214192   9.753  17.572  17.434
 1830ETHO   H2114193   9.833  17.549  17.508
 1830ETHO   H2314194   9.668  17.506  17.459
 1831ETHO    O114195   9.707  17.708  17.446
 1831ETHO    C114196   9.569  17.740  17.456
 1831ETHO   H1114197   9.512  17.668  17.393
 1831ETHO   H1314198   9.535  17.734  17.561
 1831ETHO    C214199   9.540  17.884  17.402
 1831ETHO   H2114200   9.429  17.889  17.401
 1831ETHO   H2314201   9.585  17.903  17.302
 1832ETHO    O114202   9.584  17.986  17.491
 1832ETHO    C114203   9.720  17.983  17.527
 1832ETHO   H1114204   9.785  17.952  17.442
 1832ETHO   H1314205   9.739  17.909  17.607
 1832ETHO    C214206   9.768  18.113  17.591
 1832ETHO   H2114207   9.695  18.142  17.669
 1832ETHO   H2314208   9.771  18.195  17.515
 1833ETHO    O114209   9.894  18.096  17.652
 1833ETHO    C114210   9.935  18.209  17.731
 1833ETHO   H1114211  10.043  18.198  17.757
 1833ETHO   H1314212   9.930  18.302  17.671
 1833ETHO    C214213   9.855  18.234  17.860
 1833ETHO   H2114214   9.914  18.302  17.925
 1833ETHO   H2314215   9.835  18.140  17.916
 1834ETHO    O114216   9.732  18.300  17.837
 1834ETHO    C114217   9.654  18.296  17.956
 1834ETHO   H1114218   9.715  18.310  18.048
 1834ETHO   H1314219   9.604  18.198  17.964
 1834ETHO    C214220   9.547  18.411  17.946
 1834ETHO   H2114221   9.490  18.397  18.041
 1834ETHO   H2314222   9.484  18.412  17.854
 1835ETHO    O114223   9.600  18.543  17.949
 1835ETHO    C114224   9.661  18.583  18.079
 1835ETHO   H1114225   9.584  18.559  18.155
 1835ETHO   H1314226   9.743  18.511  18.098
 1835ETHO    C214227   9.705  18.739  18.079
 1835ETHO   H2114228   9.710  18.776  17.974
 1835ETHO   H2314229   9.806  18.751  18.121
 1836ETHO    O114230   9.600  18.815  18.141
 1836ETHO    C114231   9.603  18.808  18.284
 1836ETHO   H1114232   9.664  18.720  18.315
 1836ETHO   H1314233   9.497  18.801  18.316
 1836ETHO    C214234   9.678  18.916  18.362
 1836ETHO   H2114235   9.786  18.914  18.336
 1836ETHO   H2314236   9.679  18.884  18.468
 1837ETHO    O114237   9.619  19.042  18.345
 1837ETHO    C114238   9.650  19.130  18.452
 1837ETHO   H1114239   9.644  19.074  18.548
 1837ETHO   H1314240   9.759  19.152  18.451
 1837ETHO    C214241   9.567  19.264  18.444
 1837ETHO   H2114242   9.593  19.335  18.525
 1837ETHO   H2314243   9.578  19.302  18.340
 1838ETHO    O114244   9.435  19.211  18.461
 1838ETHO    C114245   9.336  19.310  18.478
 1838ETHO   H1114246   9.313  19.378  18.393
 1838ETHO   H1314247   9.247  19.245  18.482
 1838ETHO    C214248   9.340  19.390  18.611
 1838ETHO   H2114249   9.325  19.322  18.697
 1838ETHO   H2314250   9.253  19.460  18.619
 1839ETHO    O114251   9.451  19.475  18.630
 1839ETHO    C114252   9.441  19.546  18.759
 1839ETHO   H1114253   9.345  19.599  18.775
 1839ETHO   H1314254   9.469  19.467  18.832
 1839ETHO    C214255   9.565  19.634  18.761
 1839ETHO   H2114256   9.532  19.733  18.723
 1839ETHO   H2314257   9.639  19.591  18.691
 1840ETHO    O114258   9.633  19.657  18.883
 1840ETHO    C114259   9.554  19.741  18.974
 1840ETHO   H1114260   9.566  19.851  18.968
 1840ETHO   H1314261   9.450  19.717  18.945
 1840ETHO    C214262   9.577  19.698  19.120
 1840ETHO   H2114263   9.520  19.770  19.181
 1840ETHO   H2314264   9.687  19.703  19.140
 1841ETHO    O114265   9.522  19.575  19.144
 1841ETHO    C114266   9.558  19.521  19.274
 1841ETHO   H1114267   9.498  19.593  19.335
 1841ETHO   H1314268   9.663  19.545  19.300
 1841ETHO    C214269   9.524  19.377  19.304
 1841ETHO   H2114270   9.568  19.352  19.403
 1841ETHO   H2314271   9.565  19.304  19.230
 1842ETHO    O114272   9.388  19.362  19.314
 1842ETHO    C114273   9.358  19.230  19.355
 1842ETHO   H1114274   9.444  19.164  19.329
 1842ETHO   H1314275   9.351  19.225  19.466
 1842ETHO    C214276   9.238  19.175  19.286
 1842ETHO   H2114277   9.149  19.240  19.294
 1842ETHO   H2314278   9.204  19.077  19.326
 1843ETHO    O114279   9.267  19.156  19.150
 1843ETHO    C114280   9.158  19.118  19.078
 1843ETHO   H1114281   9.073  19.190  19.071
 1843ETHO   H1314282   9.114  19.023  19.116
 1843ETHO    C214283   9.190  19.097  18.922
 1843ETHO   H2114284   9.223  19.196  18.885
 1843ETHO   H2314285   9.092  19.060  18.884
 1844ETHO    O114286   9.289  18.995  18.898
 1844ETHO    C114287   9.309  18.968  18.761
 1844ETHO   H1114288   9.223  18.910  18.723
 1844ETHO   H1314289   9.317  19.067  18.711
 1844ETHO    C214290   9.445  18.903  18.734
 1844ETHO   H2114291   9.512  18.943  18.813
 1844ETHO   H2314292   9.476  18.933  18.632
 1845ETHO    O114293   9.445  18.764  18.749
 1845ETHO    C114294   9.377  18.697  18.649
 1845ETHO   H1114295   9.395  18.757  18.557
 1845ETHO   H1314296   9.266  18.693  18.663
 1845ETHO    C214297   9.429  18.551  18.628
 1845ETHO   H2114298   9.367  18.491  18.558
 1845ETHO   H2314299   9.447  18.493  18.721
 1846ETHO    O114300   9.552  18.566  18.563
 1846ETHO    C114301   9.617  18.444  18.532
 1846ETHO   H1114302   9.626  18.376  18.619
 1846ETHO   H1314303   9.553  18.383  18.464
 1846ETHO    C214304   9.742  18.462  18.459
 1846ETHO   H2114305   9.722  18.524  18.370
 1846ETHO   H2314306   9.780  18.363  18.428
 1847ETHO    O114307   9.842  18.517  18.543
 1847ETHO    C114308   9.978  18.520  18.502
 1847ETHO   H1114309  10.010  18.413  18.494
 1847ETHO   H1314310  10.039  18.568  18.582
 1847ETHO    C214311   9.997  18.596  18.368
 1847ETHO   H2114312  10.108  18.605  18.363
 1847ETHO   H2314313   9.936  18.689  18.368
 1848ETHO    O114314   9.950  18.506  18.262
 1848ETHO    C114315  10.046  18.482  18.158
 1848ETHO   H1114316  10.136  18.433  18.200
 1848ETHO   H1314317   9.992  18.404  18.100
 1848ETHO    C214318  10.095  18.600  18.069
 1848ETHO   H2114319  10.010  18.668  18.047
 1848ETHO   H2314320  10.134  18.562  17.972
 1849ETHO    O114321  10.200  18.663  18.139
 1849ETHO    C114322  10.222  18.795  18.082
 1849ETHO   H1114323  10.215  18.791  17.971
 1849ETHO   H1314324  10.146  18.867  18.121
 1849ETHO    C214325  10.356  18.846  18.129
 1849ETHO   H2114326  10.392  18.932  18.070
 1849ETHO   H2314327  10.427  18.761  18.122
 1850ETHO    O114328  10.355  18.886  18.267
 1850ETHO    C114329  10.482  18.932  18.300
 1850ETHO   H1114330  10.557  18.850  18.308
 1850ETHO   H1314331  10.501  19.020  18.235
 1850ETHO    C214332  10.478  18.989  18.446
 1850ETHO   H2114333  10.573  19.040  18.473
 1850ETHO   H2314334  10.460  18.908  18.519
 1851ETHO    O114335  10.382  19.092  18.460
 1851ETHO    C114336  10.372  19.111  18.604
 1851ETHO   H1114337  10.474  19.116  18.646
 1851ETHO   H1314338  10.320  19.207  18.628
 1851ETHO    C214339  10.294  18.997  18.679
 1851ETHO   H2114340  10.320  19.015  18.785
 1851ETHO   H2314341  10.320  18.893  18.648
 1852ETHO    O114342  10.159  19.018  18.649
 1852ETHO    C114343  10.076  18.953  18.747
 1852ETHO   H1114344  10.128  18.969  18.844
 1852ETHO   H1314345  10.079  18.845  18.720
 1852ETHO    C214346   9.931  19.013  18.755
 1852ETHO   H2114347   9.872  18.958  18.831
 1852ETHO   H2314348   9.887  18.999  18.654
 1853ETHO    O114349   9.929  19.144  18.814
 1853ETHO    C114350   9.801  19.174  18.870
 1853ETHO   H1114351   9.804  19.119  18.966
 1853ETHO   H1314352   9.711  19.125  18.826
 1853ETHO    C214353   9.783  19.325  18.893
 1853ETHO   H2114354   9.675  19.335  18.915
 1853ETHO   H2314355   9.803  19.392  18.806
 1854ETHO    O114356   9.876  19.362  18.996
 1854ETHO    C114357   9.878  19.498  19.025
 1854ETHO   H1114358   9.777  19.539  19.045
 1854ETHO   H1314359   9.919  19.559  18.942
 1854ETHO    C214360   9.965  19.528  19.148
 1854ETHO   H2114361  10.073  19.512  19.127
 1854ETHO   H2314362   9.933  19.454  19.225
 1855ETHO    O114363   9.939  19.663  19.191
 1855ETHO    C114364   9.965  19.676  19.333
 1855ETHO   H1114365   9.864  19.682  19.379
 1855ETHO   H1314366  10.017  19.582  19.363
 1855ETHO    C214367  10.041  19.805  19.376
 1855ETHO   H2114368  10.143  19.788  19.336
 1855ETHO   H2314369  10.043  19.806  19.487
 1855ETHO    OZ14370   9.980  19.928  19.336
 1855ETHO   HZ114371  10.054  19.987  19.350
 1856ETHO    O114372   9.509  15.155   6.117
 1856ETHO   HO114373   9.472  15.243   6.119
 1856ETHO    C114374   9.565  15.140   6.250
 1856ETHO   H1114375   9.660  15.197   6.262
 1856ETHO   H1314376   9.574  15.030   6.265
 1856ETHO    C214377   9.471  15.189   6.365
 1856ETHO   H2114378   9.499  15.155   6.468
 1856ETHO   H2314379   9.372  15.143   6.345
 1857ETHO    O114380   9.458  15.333   6.371
 1857ETHO    C114381   9.413  15.382   6.497
 1857ETHO   H1114382   9.322  15.328   6.532
 1857ETHO   H1314383   9.491  15.372   6.575
 1857ETHO    C214384   9.374  15.533   6.490
 1857ETHO   H2114385   9.313  15.563   6.578
 1857ETHO   H2314386   9.319  15.557   6.396
 1858ETHO    O114387   9.498  15.606   6.490
 1858ETHO    C114388   9.557  15.626   6.361
 1858ETHO   H1114389   9.493  15.698   6.308
 1858ETHO   H1314390   9.558  15.526   6.311
 1858ETHO    C214391   9.689  15.697   6.388
 1858ETHO   H2114392   9.748  15.688   6.294
 1858ETHO   H2314393   9.752  15.645   6.463
 1859ETHO    O114394   9.672  15.839   6.404
 1859ETHO    C114395   9.681  15.875   6.540
 1859ETHO   H1114396   9.615  15.812   6.603
 1859ETHO   H1314397   9.787  15.864   6.571
 1859ETHO    C214398   9.630  16.019   6.568
 1859ETHO   H2114399   9.520  16.020   6.552
 1859ETHO   H2314400   9.692  16.097   6.520
 1860ETHO    O114401   9.654  16.039   6.711
 1860ETHO    C114402   9.597  16.149   6.777
 1860ETHO   H1114403   9.592  16.244   6.719
 1860ETHO   H1314404   9.493  16.111   6.778
 1860ETHO    C214405   9.669  16.185   6.902
 1860ETHO   H2114406   9.685  16.095   6.965
 1860ETHO   H2314407   9.611  16.253   6.968
 1861ETHO    O114408   9.792  16.261   6.887
 1861ETHO    C114409   9.888  16.204   6.791
 1861ETHO   H1114410   9.901  16.095   6.811
 1861ETHO   H1314411   9.842  16.209   6.690
 1861ETHO    C214412  10.015  16.285   6.802
 1861ETHO   H2114413  10.081  16.235   6.728
 1861ETHO   H2314414  10.059  16.299   6.903
 1862ETHO    O114415   9.993  16.414   6.743
 1862ETHO    C114416  10.094  16.452   6.659
 1862ETHO   H1114417  10.192  16.431   6.706
 1862ETHO   H1314418  10.084  16.380   6.575
 1862ETHO    C214419  10.069  16.596   6.621
 1862ETHO   H2114420  10.166  16.644   6.594
 1862ETHO   H2314421  10.029  16.657   6.705
 1863ETHO    O114422   9.980  16.590   6.510
 1863ETHO    C114423   9.959  16.713   6.448
 1863ETHO   H1114424  10.054  16.770   6.439
 1863ETHO   H1314425   9.896  16.771   6.519
 1863ETHO    C214426   9.886  16.696   6.311
 1863ETHO   H2114427   9.946  16.613   6.269
 1863ETHO   H2314428   9.895  16.785   6.245
 1864ETHO    O114429   9.754  16.652   6.313
 1864ETHO    C114430   9.708  16.584   6.195
 1864ETHO   H1114431   9.618  16.631   6.151
 1864ETHO   H1314432   9.787  16.610   6.122
 1864ETHO    C214433   9.693  16.430   6.198
 1864ETHO   H2114434   9.785  16.383   6.239
 1864ETHO   H2314435   9.682  16.406   6.091
 1865ETHO    O114436   9.575  16.381   6.264
 1865ETHO    C114437   9.563  16.237   6.245
 1865ETHO   H1114438   9.553  16.184   6.342
 1865ETHO   H1314439   9.661  16.211   6.201
 1865ETHO    C214440   9.439  16.210   6.153
 1865ETHO   H2114441   9.449  16.102   6.129
 1865ETHO   H2314442   9.444  16.272   6.060
 1866ETHO    O114443   9.316  16.246   6.206
 1866ETHO    C114444   9.207  16.186   6.137
 1866ETHO   H1114445   9.218  16.183   6.027
 1866ETHO   H1314446   9.203  16.076   6.153
 1866ETHO    C214447   9.074  16.248   6.172
 1866ETHO   H2114448   8.992  16.183   6.136
 1866ETHO   H2314449   9.061  16.244   6.283
 1867ETHO    O114450   9.054  16.381   6.123
 1867ETHO    C114451   8.922  16.428   6.153
 1867ETHO   H1114452   8.894  16.414   6.260
 1867ETHO   H1314453   8.854  16.371   6.087
 1867ETHO    C214454   8.904  16.576   6.131
 1867ETHO   H2114455   8.797  16.602   6.150
 1867ETHO   H2314456   8.916  16.601   6.024
 1868ETHO    O114457   8.979  16.656   6.217
 1868ETHO    C114458   8.932  16.788   6.214
 1868ETHO   H1114459   9.017  16.859   6.215
 1868ETHO   H1314460   8.867  16.805   6.125
 1868ETHO    C214461   8.844  16.811   6.351
 1868ETHO   H2114462   8.870  16.739   6.432
 1868ETHO   H2314463   8.735  16.794   6.338
 1869ETHO    O114464   8.859  16.936   6.412
 1869ETHO    C114465   8.771  16.951   6.524
 1869ETHO   H1114466   8.816  16.907   6.616
 1869ETHO   H1314467   8.672  16.901   6.510
 1869ETHO    C214468   8.735  17.099   6.547
 1869ETHO   H2114469   8.831  17.153   6.560
 1869ETHO   H2314470   8.671  17.107   6.637
 1870ETHO    O114471   8.657  17.149   6.444
 1870ETHO    C114472   8.609  17.280   6.474
 1870ETHO   H1114473   8.695  17.331   6.523
 1870ETHO   H1314474   8.584  17.339   6.384
 1870ETHO    C214475   8.492  17.291   6.572
 1870ETHO   H2114476   8.504  17.235   6.667
 1870ETHO   H2314477   8.467  17.397   6.594
 1871ETHO    O114478   8.382  17.235   6.499
 1871ETHO    C114479   8.258  17.258   6.562
 1871ETHO   H1114480   8.188  17.184   6.517
 1871ETHO   H1314481   8.258  17.238   6.671
 1871ETHO    C214482   8.200  17.400   6.525
 1871ETHO   H2114483   8.089  17.405   6.536
 1871ETHO   H2314484   8.213  17.416   6.416
 1872ETHO    O114485   8.260  17.512   6.592
 1872ETHO    C114486   8.231  17.514   6.737
 1872ETHO   H1114487   8.123  17.535   6.751
 1872ETHO   H1314488   8.256  17.417   6.784
 1872ETHO    C214489   8.300  17.627   6.805
 1872ETHO   H2114490   8.255  17.634   6.907
 1872ETHO   H2314491   8.273  17.727   6.766
 1873ETHO    O114492   8.429  17.600   6.805
 1873ETHO    C114493   8.513  17.680   6.886
 1873ETHO   H1114494   8.496  17.787   6.863
 1873ETHO   H1314495   8.486  17.668   6.994
 1873ETHO    C214496   8.654  17.646   6.862
 1873ETHO   H2114497   8.725  17.729   6.883
 1873ETHO   H2314498   8.660  17.631   6.752
 1874ETHO    O114499   8.694  17.533   6.931
 1874ETHO    C114500   8.755  17.569   7.056
 1874ETHO   H1114501   8.704  17.658   7.099
 1874ETHO   H1314502   8.865  17.579   7.049
 1874ETHO    C214503   8.721  17.459   7.153
 1874ETHO   H2114504   8.611  17.448   7.168
 1874ETHO   H2314505   8.763  17.469   7.255
 1875ETHO    O114506   8.775  17.337   7.100
 1875ETHO    C114507   8.749  17.233   7.193
 1875ETHO   H1114508   8.795  17.261   7.290
 1875ETHO   H1314509   8.640  17.225   7.216
 1875ETHO    C214510   8.800  17.100   7.148
 1875ETHO   H2114511   8.788  17.029   7.233
 1875ETHO   H2314512   8.908  17.095   7.121
 1876ETHO    O114513   8.718  17.045   7.047
 1876ETHO    C114514   8.741  16.905   7.042
 1876ETHO   H1114515   8.703  16.854   7.133
 1876ETHO   H1314516   8.849  16.887   7.028
 1876ETHO    C214517   8.667  16.865   6.916
 1876ETHO   H2114518   8.696  16.762   6.886
 1876ETHO   H2314519   8.708  16.932   6.839
 1877ETHO    O114520   8.524  16.873   6.927
 1877ETHO    C114521   8.472  16.755   6.997
 1877ETHO   H1114522   8.483  16.667   6.930
 1877ETHO   H1314523   8.531  16.732   7.088
 1877ETHO    C214524   8.327  16.787   7.050
 1877ETHO   H2114525   8.276  16.717   7.120
 1877ETHO   H2314526   8.341  16.885   7.100
 1878ETHO    O114527   8.236  16.803   6.942
 1878ETHO    C114528   8.131  16.905   6.962
 1878ETHO   H1114529   8.105  16.948   6.863
 1878ETHO   H1314530   8.173  16.990   7.020
 1878ETHO    C214531   8.015  16.853   7.045
 1878ETHO   H2114532   7.969  16.943   7.093
 1878ETHO   H2314533   8.064  16.793   7.124
 1879ETHO    O114534   7.927  16.776   6.965
 1879ETHO    C114535   7.807  16.750   7.035
 1879ETHO   H1114536   7.835  16.716   7.137
 1879ETHO   H1314537   7.746  16.843   7.040
 1879ETHO    C214538   7.720  16.641   6.974
 1879ETHO   H2114539   7.704  16.658   6.865
 1879ETHO   H2314540   7.618  16.648   7.018
 1880ETHO    O114541   7.772  16.515   6.993
 1880ETHO    C114542   7.712  16.408   6.915
 1880ETHO   H1114543   7.761  16.412   6.815
 1880ETHO   H1314544   7.602  16.419   6.904
 1880ETHO    C214545   7.737  16.267   6.983
 1880ETHO   H2114546   7.848  16.261   6.996
 1880ETHO   H2314547   7.707  16.190   6.910
 1881ETHO    O114548   7.681  16.248   7.116
 1881ETHO    C114549   7.543  16.216   7.100
 1881ETHO   H1114550   7.507  16.209   6.995
 1881ETHO   H1314551   7.542  16.115   7.145
 1881ETHO    C214552   7.439  16.312   7.169
 1881ETHO   H2114553   7.454  16.308   7.279
 1881ETHO   H2314554   7.334  16.277   7.154
 1882ETHO    O114555   7.455  16.445   7.141
 1882ETHO    C114556   7.373  16.491   7.035
 1882ETHO   H1114557   7.361  16.415   6.955
 1882ETHO   H1314558   7.421  16.572   6.976
 1882ETHO    C214559   7.233  16.534   7.081
 1882ETHO   H2114560   7.186  16.450   7.136
 1882ETHO   H2314561   7.169  16.563   6.996
 1883ETHO    O114562   7.251  16.647   7.163
 1883ETHO    C114563   7.129  16.706   7.209
 1883ETHO   H1114564   7.084  16.748   7.117
 1883ETHO   H1314565   7.065  16.630   7.257
 1883ETHO    C214566   7.153  16.829   7.294
 1883ETHO   H2114567   7.213  16.788   7.377
 1883ETHO   H2314568   7.067  16.893   7.326
 1884ETHO    O114569   7.239  16.927   7.231
 1884ETHO    C114570   7.168  17.042   7.193
 1884ETHO   H1114571   7.142  17.097   7.286
 1884ETHO   H1314572   7.080  17.008   7.134
 1884ETHO    C214573   7.253  17.148   7.114
 1884ETHO   H2114574   7.328  17.192   7.184
 1884ETHO   H2314575   7.189  17.238   7.098
 1885ETHO    O114576   7.319  17.093   6.995
 1885ETHO    C114577   7.450  17.137   6.985
 1885ETHO   H1114578   7.455  17.248   6.986
 1885ETHO   H1314579   7.504  17.106   7.076
 1885ETHO    C214580   7.539  17.069   6.881
 1885ETHO   H2114581   7.523  16.959   6.887
 1885ETHO   H2314582   7.643  17.079   6.917
 1886ETHO    O114583   7.533  17.102   6.748
 1886ETHO    C114584   7.580  17.229   6.717
 1886ETHO   H1114585   7.512  17.300   6.769
 1886ETHO   H1314586   7.678  17.229   6.769
 1886ETHO    C214587   7.596  17.252   6.571
 1886ETHO   H2114588   7.669  17.178   6.531
 1886ETHO   H2314589   7.638  17.354   6.560
 1887ETHO    O114590   7.474  17.233   6.501
 1887ETHO    C114591   7.498  17.227   6.357
 1887ETHO   H1114592   7.595  17.276   6.334
 1887ETHO   H1314593   7.509  17.121   6.325
 1887ETHO    C214594   7.379  17.288   6.279
 1887ETHO   H2114595   7.285  17.245   6.318
 1887ETHO   H2314596   7.398  17.260   6.173
 1888ETHO    O114597   7.395  17.428   6.287
 1888ETHO    C114598   7.290  17.505   6.233
 1888ETHO   H1114599   7.268  17.464   6.132
 1888ETHO   H1314600   7.199  17.498   6.296
 1888ETHO    C214601   7.340  17.649   6.208
 1888ETHO   H2114602   7.255  17.701   6.161
 1888ETHO   H2314603   7.421  17.663   6.133
 1889ETHO    O114604   7.368  17.731   6.329
 1889ETHO    C114605   7.391  17.869   6.307
 1889ETHO   H1114606   7.303  17.911   6.253
 1889ETHO   H1314607   7.483  17.887   6.248
 1889ETHO    C214608   7.395  17.941   6.443
 1889ETHO   H2114609   7.315  17.898   6.507
 1889ETHO   H2314610   7.355  18.043   6.426
 1890ETHO    O114611   7.524  17.943   6.500
 1890ETHO    C114612   7.516  18.022   6.623
 1890ETHO   H1114613   7.483  18.124   6.596
 1890ETHO   H1314614   7.437  17.985   6.692
 1890ETHO    C214615   7.651  18.039   6.691
 1890ETHO   H2114616   7.659  18.112   6.775
 1890ETHO   H2314617   7.726  18.066   6.613
 1891ETHO    O114618   7.681  17.915   6.747
 1891ETHO    C114619   7.791  17.928   6.832
 1891ETHO   H1114620   7.767  17.976   6.929
 1891ETHO   H1314621   7.874  17.977   6.777
 1891ETHO    C214622   7.840  17.787   6.873
 1891ETHO   H2114623   7.861  17.734   6.777
 1891ETHO   H2314624   7.767  17.726   6.930
 1892ETHO    O114625   7.965  17.799   6.942
 1892ETHO    C114626   7.953  17.778   7.078
 1892ETHO   H1114627   7.888  17.858   7.121
 1892ETHO   H1314628   7.909  17.676   7.086
 1892ETHO    C214629   8.087  17.768   7.151
 1892ETHO   H2114630   8.140  17.679   7.109
 1892ETHO   H2314631   8.064  17.736   7.255
 1893ETHO    O114632   8.170  17.880   7.156
 1893ETHO    C114633   8.289  17.843   7.222
 1893ETHO   H1114634   8.355  17.778   7.162
 1893ETHO   H1314635   8.269  17.789   7.316
 1893ETHO    C214636   8.370  17.970   7.260
 1893ETHO   H2114637   8.460  17.953   7.324
 1893ETHO   H2314638   8.297  18.030   7.317
 1894ETHO    O114639   8.414  18.042   7.144
 1894ETHO    C114640   8.469  18.169   7.180
 1894ETHO   H1114641   8.550  18.162   7.256
 1894ETHO   H1314642   8.519  18.200   7.086
 1894ETHO    C214643   8.373  18.289   7.215
 1894ETHO   H2114644   8.433  18.380   7.235
 1894ETHO   H2314645   8.320  18.265   7.310
 1895ETHO    O114646   8.281  18.326   7.120
 1895ETHO    C114647   8.198  18.436   7.165
 1895ETHO   H1114648   8.253  18.524   7.205
 1895ETHO   H1314649   8.142  18.393   7.250
 1895ETHO    C214650   8.099  18.481   7.058
 1895ETHO   H2114651   8.025  18.545   7.111
 1895ETHO   H2314652   8.053  18.389   7.016
 1896ETHO    O114653   8.163  18.542   6.949
 1896ETHO    C114654   8.244  18.453   6.869
 1896ETHO   H1114655   8.339  18.439   6.925
 1896ETHO   H1314656   8.198  18.352   6.857
 1896ETHO    C214657   8.269  18.517   6.734
 1896ETHO   H2114658   8.356  18.482   6.675
 1896ETHO   H2314659   8.273  18.627   6.745
 1897ETHO    O114660   8.159  18.486   6.653
 1897ETHO    C114661   8.161  18.556   6.526
 1897ETHO   H1114662   8.122  18.658   6.547
 1897ETHO   H1314663   8.262  18.560   6.479
 1897ETHO    C214664   8.057  18.488   6.433
 1897ETHO   H2114665   8.040  18.557   6.348
 1897ETHO   H2314666   7.960  18.476   6.485
 1898ETHO    O114667   8.115  18.369   6.376
 1898ETHO    C114668   8.096  18.359   6.239
 1898ETHO   H1114669   8.012  18.422   6.201
 1898ETHO   H1314670   8.184  18.388   6.179
 1898ETHO    C214671   8.072  18.210   6.201
 1898ETHO   H2114672   8.145  18.145   6.254
 1898ETHO   H2314673   8.086  18.198   6.092
 1899ETHO    O114674   7.951  18.160   6.241
 1899ETHO    C114675   7.925  18.020   6.198
 1899ETHO   H1114676   7.959  18.006   6.093
 1899ETHO   H1314677   8.001  17.962   6.255
 1899ETHO    C214678   7.794  17.958   6.229
 1899ETHO   H2114679   7.756  17.995   6.327
 1899ETHO   H2314680   7.795  17.847   6.223
 1900ETHO    O114681   7.691  17.988   6.128
 1900ETHO    C114682   7.627  18.115   6.152
 1900ETHO   H1114683   7.705  18.193   6.150
 1900ETHO   H1314684   7.570  18.107   6.247
 1900ETHO    C214685   7.518  18.154   6.058
 1900ETHO   H2114686   7.562  18.155   5.956
 1900ETHO   H2314687   7.485  18.255   6.091
 1901ETHO    O114688   7.411  18.068   6.060
 1901ETHO    C114689   7.307  18.113   5.963
 1901ETHO   H1114690   7.294  18.224   5.968
 1901ETHO   H1314691   7.338  18.082   5.861
 1901ETHO    C214692   7.164  18.056   5.997
 1901ETHO   H2114693   7.160  17.945   6.008
 1901ETHO   H2314694   7.094  18.090   5.918
 1902ETHO    O114695   7.129  18.113   6.124
 1902ETHO    C114696   6.984  18.100   6.133
 1902ETHO   H1114697   6.949  18.014   6.072
 1902ETHO   H1314698   6.941  18.191   6.087
 1902ETHO    C214699   6.921  18.090   6.279
 1902ETHO   H2114700   6.978  18.016   6.337
 1902ETHO   H2314701   6.811  18.073   6.278
 1903ETHO    O114702   6.937  18.215   6.341
 1903ETHO    C114703   6.916  18.205   6.484
 1903ETHO   H1114704   6.810  18.177   6.505
 1903ETHO   H1314705   6.977  18.129   6.539
 1903ETHO    C214706   6.947  18.348   6.531
 1903ETHO   H2114707   6.906  18.417   6.454
 1903ETHO   H2314708   6.898  18.379   6.626
 1904ETHO    O114709   7.095  18.350   6.541
 1904ETHO    C114710   7.142  18.478   6.583
 1904ETHO   H1114711   7.097  18.506   6.680
 1904ETHO   H1314712   7.130  18.563   6.513
 1904ETHO    C214713   7.292  18.464   6.617
 1904ETHO   H2114714   7.314  18.380   6.686
 1904ETHO   H2314715   7.333  18.553   6.668
 1905ETHO    O114716   7.371  18.451   6.493
 1905ETHO    C114717   7.504  18.426   6.535
 1905ETHO   H1114718   7.543  18.518   6.584
 1905ETHO   H1314719   7.505  18.344   6.610
 1905ETHO    C214720   7.606  18.406   6.419
 1905ETHO   H2114721   7.563  18.320   6.363
 1905ETHO   H2314722   7.699  18.361   6.460
 1906ETHO    O114723   7.620  18.519   6.336
 1906ETHO    C114724   7.737  18.515   6.256
 1906ETHO   H1114725   7.732  18.418   6.203
 1906ETHO   H1314726   7.831  18.514   6.316
 1906ETHO    C214727   7.768  18.625   6.156
 1906ETHO   H2114728   7.797  18.721   6.203
 1906ETHO   H2314729   7.679  18.639   6.091
 1907ETHO    O114730   7.877  18.577   6.076
 1907ETHO    C114731   7.908  18.676   5.979
 1907ETHO   H1114732   7.956  18.616   5.899
 1907ETHO   H1314733   7.816  18.725   5.940
 1907ETHO    C214734   8.005  18.780   6.030
 1907ETHO   H2114735   7.951  18.832   6.113
 1907ETHO   H2314736   8.027  18.863   5.959
 1908ETHO    O114737   8.128  18.728   6.071
 1908ETHO    C114738   8.208  18.678   5.971
 1908ETHO   H1114739   8.160  18.584   5.936
 1908ETHO   H1314740   8.213  18.738   5.877
 1908ETHO    C214741   8.354  18.656   6.018
 1908ETHO   H2114742   8.386  18.741   6.081
 1908ETHO   H2314743   8.424  18.639   5.933
 1909ETHO    O114744   8.354  18.539   6.103
 1909ETHO    C114745   8.463  18.549   6.195
 1909ETHO   H1114746   8.473  18.653   6.235
 1909ETHO   H1314747   8.445  18.474   6.275
 1909ETHO    C214748   8.610  18.515   6.144
 1909ETHO   H2114749   8.682  18.558   6.217
 1909ETHO   H2314750   8.624  18.574   6.051
 1910ETHO    O114751   8.642  18.378   6.110
 1910ETHO    C114752   8.728  18.321   6.213
 1910ETHO   H1114753   8.817  18.387   6.210
 1910ETHO   H1314754   8.675  18.333   6.310
 1910ETHO    C214755   8.779  18.182   6.169
 1910ETHO   H2114756   8.812  18.179   6.063
 1910ETHO   H2314757   8.877  18.162   6.216
 1911ETHO    O114758   8.688  18.077   6.214
 1911ETHO    C114759   8.683  17.972   6.118
 1911ETHO   H1114760   8.685  18.025   6.020
 1911ETHO   H1314761   8.590  17.915   6.136
 1911ETHO    C214762   8.799  17.865   6.116
 1911ETHO   H2114763   8.902  17.906   6.113
 1911ETHO   H2314764   8.774  17.805   6.026
 1912ETHO    O114765   8.791  17.773   6.231
 1912ETHO    C114766   8.897  17.686   6.228
 1912ETHO   H1114767   8.903  17.641   6.127
 1912ETHO   H1314768   8.989  17.749   6.232
 1912ETHO    C214769   8.907  17.583   6.336
 1912ETHO   H2114770   8.936  17.482   6.302
 1912ETHO   H2314771   8.803  17.574   6.373
 1913ETHO    O114772   8.992  17.621   6.446
 1913ETHO    C114773   8.975  17.525   6.556
 1913ETHO   H1114774   9.032  17.430   6.541
 1913ETHO   H1314775   8.871  17.497   6.580
 1913ETHO    C214776   9.033  17.575   6.686
 1913ETHO   H2114777   9.005  17.495   6.759
 1913ETHO   H2314778   8.995  17.674   6.719
 1914ETHO    O114779   9.176  17.583   6.689
 1914ETHO    C114780   9.227  17.605   6.819
 1914ETHO   H1114781   9.166  17.686   6.866
 1914ETHO   H1314782   9.219  17.521   6.891
 1914ETHO    C214783   9.373  17.643   6.805
 1914ETHO   H2114784   9.428  17.559   6.757
 1914ETHO   H2314785   9.416  17.650   6.908
 1915ETHO    O114786   9.395  17.760   6.721
 1915ETHO    C114787   9.530  17.814   6.732
 1915ETHO   H1114788   9.595  17.744   6.676
 1915ETHO   H1314789   9.560  17.806   6.839
 1915ETHO    C214790   9.551  17.954   6.683
 1915ETHO   H2114791   9.518  17.953   6.577
 1915ETHO   H2314792   9.655  17.991   6.671
 1916ETHO    O114793   9.479  18.050   6.760
 1916ETHO    C114794   9.437  18.164   6.688
 1916ETHO   H1114795   9.391  18.126   6.594
 1916ETHO   H1314796   9.362  18.220   6.748
 1916ETHO    C214797   9.544  18.254   6.642
 1916ETHO   H2114798   9.608  18.297   6.723
 1916ETHO   H2314799   9.492  18.343   6.601
 1917ETHO    O114800   9.624  18.201   6.542
 1917ETHO    C114801   9.728  18.296   6.507
 1917ETHO   H1114802   9.802  18.246   6.441
 1917ETHO   H1314803   9.783  18.327   6.598
 1917ETHO    C214804   9.692  18.432   6.440
 1917ETHO   H2114805   9.773  18.504   6.463
 1917ETHO   H2314806   9.594  18.469   6.478
 1918ETHO    O114807   9.683  18.417   6.300
 1918ETHO    C114808   9.651  18.541   6.242
 1918ETHO   H1114809   9.696  18.625   6.300
 1918ETHO   H1314810   9.689  18.550   6.138
 1918ETHO    C214811   9.499  18.559   6.245
 1918ETHO   H2114812   9.456  18.548   6.347
 1918ETHO   H2314813   9.456  18.478   6.183
 1919ETHO    O114814   9.475  18.684   6.191
 1919ETHO    C114815   9.342  18.699   6.162
 1919ETHO   H1114816   9.279  18.705   6.253
 1919ETHO   H1314817   9.316  18.607   6.105
 1919ETHO    C214818   9.303  18.820   6.074
 1919ETHO   H2114819   9.195  18.811   6.050
 1919ETHO   H2314820   9.353  18.813   5.974
 1920ETHO    O114821   9.326  18.949   6.121
 1920ETHO    C114822   9.283  19.048   6.032
 1920ETHO   H1114823   9.317  19.036   5.927
 1920ETHO   H1314824   9.173  19.041   6.022
 1920ETHO    C214825   9.320  19.181   6.095
 1920ETHO   H2114826   9.269  19.190   6.194
 1920ETHO   H2314827   9.281  19.258   6.026
 1921ETHO    O114828   9.458  19.206   6.125
 1921ETHO    C114829   9.555  19.215   6.020
 1921ETHO   H1114830   9.536  19.301   5.952
 1921ETHO   H1314831   9.544  19.121   5.963
 1921ETHO    C214832   9.688  19.266   6.090
 1921ETHO   H2114833   9.769  19.251   6.016
 1921ETHO   H2314834   9.718  19.198   6.172
 1922ETHO    O114835   9.685  19.402   6.133
 1922ETHO    C114836   9.815  19.444   6.189
 1922ETHO   H1114837   9.841  19.392   6.284
 1922ETHO   H1314838   9.892  19.423   6.113
 1922ETHO    C214839   9.821  19.597   6.221
 1922ETHO   H2114840   9.743  19.648   6.160
 1922ETHO   H2314841   9.916  19.638   6.181
 1923ETHO    O114842   9.813  19.628   6.358
 1923ETHO    C114843   9.826  19.769   6.393
 1923ETHO   H1114844   9.819  19.773   6.504
 1923ETHO   H1314845   9.926  19.813   6.374
 1923ETHO    C214846   9.711  19.841   6.322
 1923ETHO   H2114847   9.690  19.936   6.375
 1923ETHO   H2314848   9.611  19.796   6.336
 1924ETHO    O114849   9.746  19.884   6.190
 1924ETHO    C114850   9.629  19.887   6.103
 1924ETHO   H1114851   9.574  19.791   6.108
 1924ETHO   H1314852   9.567  19.969   6.145
 1924ETHO    C214853   9.676  19.903   5.953
 1924ETHO   H2114854   9.582  19.888   5.896
 1924ETHO   H2314855   9.755  19.828   5.934
 1925ETHO    O114856   9.721  20.041   5.932
 1925ETHO    C114857   9.732  20.084   5.798
 1925ETHO   H1114858   9.831  20.132   5.794
 1925ETHO   H1314859   9.747  19.994   5.734
 1925ETHO    C214860   9.601  20.140   5.728
 1925ETHO   H2114861   9.628  20.210   5.646
 1925ETHO   H2314862   9.549  20.197   5.807
 1926ETHO    O114863   9.512  20.038   5.682
 1926ETHO    C114864   9.402  20.095   5.615
 1926ETHO   H1114865   9.429  20.175   5.542
 1926ETHO   H1314866   9.347  20.148   5.696
 1926ETHO    C214867   9.302  19.994   5.565
 1926ETHO   H2114868   9.211  20.039   5.519
 1926ETHO   H2314869   9.283  19.932   5.655
 1927ETHO    O114870   9.367  19.919   5.463
 1927ETHO    C114871   9.271  19.837   5.396
 1927ETHO   H1114872   9.222  19.782   5.479
 1927ETHO   H1314873   9.206  19.908   5.341
 1927ETHO    C214874   9.353  19.746   5.307
 1927ETHO   H2114875   9.425  19.791   5.236
 1927ETHO   H2314876   9.279  19.691   5.245
 1928ETHO    O114877   9.407  19.641   5.381
 1928ETHO    C114878   9.456  19.536   5.307
 1928ETHO   H1114879   9.546  19.575   5.255
 1928ETHO   H1314880   9.395  19.491   5.226
 1928ETHO    C214881   9.496  19.418   5.392
 1928ETHO   H2114882   9.504  19.458   5.495
 1928ETHO   H2314883   9.592  19.374   5.357
 1929ETHO    O114884   9.397  19.314   5.387
 1929ETHO    C114885   9.424  19.208   5.477
 1929ETHO   H1114886   9.409  19.110   5.428
 1929ETHO   H1314887   9.526  19.220   5.518
 1929ETHO    C214888   9.323  19.204   5.591
 1929ETHO   H2114889   9.306  19.297   5.649
 1929ETHO   H2314890   9.357  19.130   5.666
 1930ETHO    O114891   9.188  19.166   5.542
 1930ETHO    C114892   9.099  19.177   5.653
 1930ETHO   H1114893   9.106  19.281   5.691
 1930ETHO   H1314894   9.116  19.095   5.725
 1930ETHO    C214895   8.951  19.165   5.609
 1930ETHO   H2114896   8.937  19.256   5.547
 1930ETHO   H2314897   8.882  19.185   5.693
 1931ETHO    O114898   8.912  19.043   5.537
 1931ETHO    C114899   8.777  19.040   5.498
 1931ETHO   H1114900   8.718  19.021   5.590
 1931ETHO   H1314901   8.749  19.140   5.460
 1931ETHO    C214902   8.770  18.928   5.400
 1931ETHO   H2114903   8.852  18.939   5.326
 1931ETHO   H2314904   8.674  18.915   5.346
 1932ETHO    O114905   8.809  18.803   5.458
 1932ETHO    C114906   8.892  18.724   5.372
 1932ETHO   H1114907   8.997  18.762   5.370
 1932ETHO   H1314908   8.847  18.731   5.271
 1932ETHO    C214909   8.894  18.574   5.418
 1932ETHO   H2114910   8.932  18.527   5.325
 1932ETHO   H2314911   8.787  18.550   5.438
 1933ETHO    O114912   8.973  18.558   5.532
 1933ETHO    C114913   8.908  18.477   5.628
 1933ETHO   H1114914   8.961  18.487   5.725
 1933ETHO   H1314915   8.805  18.516   5.644
 1933ETHO    C214916   8.921  18.332   5.580
 1933ETHO   H2114917   8.873  18.324   5.480
 1933ETHO   H2314918   8.858  18.276   5.652
 1934ETHO    O114919   9.042  18.264   5.586
 1934ETHO    C114920   9.138  18.306   5.482
 1934ETHO   H1114921   9.086  18.333   5.387
 1934ETHO   H1314922   9.182  18.402   5.515
 1934ETHO    C214923   9.255  18.212   5.454
 1934ETHO   H2114924   9.297  18.230   5.353
 1934ETHO   H2314925   9.205  18.113   5.452
 1935ETHO    O114926   9.359  18.223   5.553
 1935ETHO    C114927   9.455  18.115   5.544
 1935ETHO   H1114928   9.396  18.023   5.561
 1935ETHO   H1314929   9.501  18.096   5.444
 1935ETHO    C214930   9.566  18.127   5.654
 1935ETHO   H2114931   9.620  18.214   5.611
 1935ETHO   H2314932   9.633  18.039   5.659
 1936ETHO    O114933   9.524  18.142   5.789
 1936ETHO    C114934   9.625  18.203   5.869
 1936ETHO   H1114935   9.716  18.139   5.870
 1936ETHO   H1314936   9.648  18.301   5.821
 1936ETHO    C214937   9.595  18.240   6.011
 1936ETHO   H2114938   9.674  18.289   6.073
 1936ETHO   H2314939   9.507  18.307   6.014
 1937ETHO    O114940   9.575  18.114   6.076
 1937ETHO    C114941   9.539  18.129   6.211
 1937ETHO   H1114942   9.451  18.196   6.212
 1937ETHO   H1314943   9.627  18.175   6.262
 1937ETHO    C214944   9.502  18.000   6.284
 1937ETHO   H2114945   9.429  17.946   6.220
 1937ETHO   H2314946   9.454  18.025   6.381
 1938ETHO    O114947   9.620  17.921   6.311
 1938ETHO    C114948   9.594  17.796   6.363
 1938ETHO   H1114949   9.532  17.792   6.455
 1938ETHO   H1314950   9.545  17.732   6.287
 1938ETHO    C214951   9.728  17.741   6.418
 1938ETHO   H2114952   9.729  17.790   6.518
 1938ETHO   H2314953   9.809  17.780   6.353
 1939ETHO    O114954   9.713  17.595   6.424
 1939ETHO    C114955   9.802  17.536   6.512
 1939ETHO   H1114956   9.820  17.607   6.595
 1939ETHO   H1314957   9.893  17.530   6.449
 1939ETHO    C214958   9.736  17.409   6.563
 1939ETHO   H2114959   9.736  17.323   6.493
 1939ETHO   H2314960   9.627  17.433   6.568
 1940ETHO    O114961   9.778  17.358   6.692
 1940ETHO    C114962   9.702  17.248   6.736
 1940ETHO   H1114963   9.592  17.244   6.723
 1940ETHO   H1314964   9.742  17.160   6.682
 1940ETHO    C214965   9.737  17.219   6.885
 1940ETHO   H2114966   9.847  17.224   6.899
 1940ETHO   H2314967   9.709  17.113   6.902
 1941ETHO    O114968   9.677  17.298   6.982
 1941ETHO    C114969   9.733  17.280   7.107
 1941ETHO   H1114970   9.708  17.369   7.169
 1941ETHO   H1314971   9.842  17.278   7.085
 1941ETHO    C214972   9.686  17.145   7.173
 1941ETHO   H2114973   9.577  17.144   7.151
 1941ETHO   H2314974   9.712  17.141   7.281
 1942ETHO    O114975   9.742  17.032   7.108
 1942ETHO    C114976   9.866  16.998   7.165
 1942ETHO   H1114977   9.942  17.079   7.160
 1942ETHO   H1314978   9.856  16.958   7.269
 1942ETHO    C214979   9.950  16.887   7.084
 1942ETHO   H2114980  10.058  16.885   7.109
 1942ETHO   H2314981   9.949  16.908   6.975
 1943ETHO    O114982   9.888  16.762   7.108
 1943ETHO    C114983   9.953  16.656   7.035
 1943ETHO   H1114984  10.063  16.659   7.051
 1943ETHO   H1314985   9.931  16.672   6.927
 1943ETHO    C214986   9.888  16.520   7.078
 1943ETHO   H2114987   9.924  16.435   7.016
 1943ETHO   H2314988   9.777  16.521   7.088
 1944ETHO    O114989   9.931  16.475   7.205
 1944ETHO    C114990   9.879  16.354   7.247
 1944ETHO   H1114991   9.771  16.376   7.257
 1944ETHO   H1314992   9.894  16.283   7.162
 1944ETHO    C214993   9.925  16.298   7.377
 1944ETHO   H2114994   9.850  16.228   7.419
 1944ETHO   H2314995   9.933  16.381   7.450
 1945ETHO    O114996  10.056  16.241   7.354
 1945ETHO    C114997  10.100  16.186   7.474
 1945ETHO   H1114998  10.135  16.265   7.544
 1945ETHO   H1314999  10.009  16.133   7.511
 1945ETHO    C215000  10.217  16.090   7.446
 1945ETHO   H2115001  10.224  16.063   7.338
 1945ETHO   H2315002  10.201  15.999   7.509
 1946ETHO    O115003  10.345  16.161   7.481
 1946ETHO    C115004  10.455  16.075   7.452
 1946ETHO   H1115005  10.456  15.970   7.487
 1946ETHO   H1315006  10.464  16.065   7.342
 1946ETHO    C215007  10.584  16.145   7.476
 1946ETHO   H2115008  10.591  16.247   7.433
 1946ETHO   H2315009  10.669  16.088   7.434
 1947ETHO    O115010  10.599  16.143   7.616
 1947ETHO    C115011  10.724  16.200   7.658
 1947ETHO   H1115012  10.811  16.157   7.604
 1947ETHO   H1315013  10.727  16.306   7.624
 1947ETHO    C215014  10.750  16.192   7.803
 1947ETHO   H2115015  10.847  16.243   7.819
 1947ETHO   H2315016  10.769  16.090   7.841
 1948ETHO    O115017  10.645  16.261   7.887
 1948ETHO    C115018  10.685  16.398   7.914
 1948ETHO   H1115019  10.721  16.454   7.825
 1948ETHO   H1315020  10.769  16.395   7.986
 1948ETHO    C215021  10.571  16.478   7.979
 1948ETHO   H2115022  10.471  16.446   7.946
 1948ETHO   H2315023  10.585  16.586   7.957
 1949ETHO    O115024  10.585  16.459   8.116
 1949ETHO    C115025  10.488  16.521   8.194
 1949ETHO   H1115026  10.486  16.632   8.182
 1949ETHO   H1315027  10.396  16.467   8.163
 1949ETHO    C215028  10.513  16.494   8.345
 1949ETHO   H2115029  10.459  16.572   8.402
 1949ETHO   H2315030  10.623  16.501   8.363
 1950ETHO    O115031  10.458  16.370   8.388
 1950ETHO    C115032  10.485  16.348   8.531
 1950ETHO   H1115033  10.410  16.402   8.592
 1950ETHO   H1315034  10.584  16.391   8.561
 1950ETHO    C215035  10.466  16.200   8.554
 1950ETHO   H2115036  10.367  16.175   8.510
 1950ETHO   H2315037  10.465  16.191   8.664
 1951ETHO    O115038  10.577  16.121   8.494
 1951ETHO    C115039  10.556  15.979   8.493
 1951ETHO   H1115040  10.463  15.962   8.435
 1951ETHO   H1315041  10.653  15.956   8.443
 1951ETHO    C215042  10.557  15.905   8.628
 1951ETHO   H2115043  10.631  15.956   8.694
 1951ETHO   H2315044  10.579  15.797   8.616
 1952ETHO    O115045  10.433  15.902   8.698
 1952ETHO    C115046  10.445  15.844   8.830
 1952ETHO   H1115047  10.550  15.858   8.866
 1952ETHO   H1315048  10.427  15.735   8.825
 1952ETHO    C215049  10.334  15.883   8.934
 1952ETHO   H2115050  10.236  15.853   8.891
 1952ETHO   H2315051  10.323  15.993   8.938
 1953ETHO    O115052  10.365  15.824   9.055
 1953ETHO    C115053  10.273  15.714   9.082
 1953ETHO   H1115054  10.168  15.750   9.086
 1953ETHO   H1315055  10.283  15.641   8.999
 1953ETHO    C215056  10.313  15.660   9.221
 1953ETHO   H2115057  10.222  15.638   9.282
 1953ETHO   H2315058  10.364  15.739   9.281
 1954ETHO    O115059  10.381  15.532   9.205
 1954ETHO    C115060  10.280  15.432   9.187
 1954ETHO   H1115061  10.322  15.365   9.108
 1954ETHO   H1315062  10.184  15.478   9.157
 1954ETHO    C215063  10.261  15.356   9.318
 1954ETHO   H2115064  10.168  15.296   9.309
 1954ETHO   H2315065  10.240  15.438   9.390
 1955ETHO    O115066  10.366  15.267   9.348
 1955ETHO    C115067  10.480  15.338   9.391
 1955ETHO   H1115068  10.540  15.373   9.304
 1955ETHO   H1315069  10.447  15.422   9.456
 1955ETHO    C215070  10.563  15.248   9.481
 1955ETHO   H2115071  10.514  15.211   9.574
 1955ETHO   H2315072  10.634  15.316   9.533
 1956PROX    O115073  10.635  15.149   9.406
 1956PROX    C115074  10.575  15.017   9.410
 1956PROX   H1115075  10.539  14.998   9.513
 1956PROX   H1315076  10.490  15.018   9.338
 1956PROX    C215077  10.672  14.903   9.361
 1956PROX   H2115078  10.734  14.887   9.451
 1956PROX    C315079  10.774  14.948   9.249
 1956PROX   H3115080  10.739  14.956   9.144
 1956PROX   H3215081  10.826  15.036   9.292
 1956PROX   H3315082  10.855  14.873   9.233
 1957PROX    O115083  10.601  14.783   9.322
 1957PROX    C115084  10.679  14.664   9.330
 1957PROX   H1115085  10.774  14.684   9.384
 1957PROX   H1315086  10.622  14.584   9.381
 1957PROX    C215087  10.711  14.615   9.185
 1957PROX   H2115088  10.751  14.697   9.122
 1957PROX    C315089  10.597  14.552   9.130
 1957PROX   H3115090  10.517  14.628   9.113
 1957PROX   H3215091  10.603  14.498   9.034
 1957PROX   H3315092  10.549  14.479   9.198
 1958PROX    O115093  10.804  14.509   9.187
 1958PROX    C115094  10.935  14.549   9.226
 1958PROX   H1115095  10.962  14.640   9.169
 1958PROX   H1315096  10.947  14.568   9.335
 1958PROX    C215097  11.029  14.435   9.191
 1958PROX   H2115098  11.008  14.418   9.083
 1958PROX    C315099  10.993  14.310   9.258
 1958PROX   H3115100  10.970  14.314   9.367
 1958PROX   H3215101  10.901  14.264   9.215
 1958PROX   H3315102  11.078  14.240   9.247
 1959PROX    O115103  11.163  14.480   9.212
 1959PROX    C115104  11.257  14.426   9.116
 1959PROX   H1115105  11.268  14.316   9.126
 1959PROX   H1315106  11.217  14.444   9.014
 1959PROX    C215107  11.397  14.483   9.143
 1959PROX   H2115108  11.397  14.493   9.254
 1959PROX    C315109  11.403  14.625   9.084
 1959PROX   H3115110  11.510  14.650   9.066
 1959PROX   H3215111  11.356  14.624   8.983
 1959PROX   H3315112  11.368  14.705   9.151
 1960PROX    O115113  11.499  14.405   9.089
 1960PROX    C115114  11.539  14.301   9.181
 1960PROX   H1115115  11.564  14.336   9.283
 1960PROX   H1315116  11.455  14.230   9.190
 1960PROX    C215117  11.660  14.227   9.125
 1960PROX   H2115118  11.695  14.143   9.189
 1960PROX    C315119  11.779  14.306   9.093
 1960PROX   H3115120  11.751  14.385   9.019
 1960PROX   H3215121  11.822  14.351   9.184
 1960PROX   H3315122  11.861  14.246   9.049
 1961PROX    O115123  11.622  14.171   8.998
 1961PROX    C115124  11.665  14.041   8.960
 1961PROX   H1115125  11.644  14.038   8.851
 1961PROX   H1315126  11.772  14.021   8.984
 1961PROX    C215127  11.580  13.932   9.025
 1961PROX   H2115128  11.594  13.838   8.969
 1961PROX    C315129  11.431  13.966   9.014
 1961PROX   H3115130  11.378  13.894   9.081
 1961PROX   H3215131  11.413  14.068   9.055
 1961PROX   H3315132  11.385  13.968   8.913
 1962PROX    O115133  11.611  13.910   9.163
 1962PROX    C115134  11.570  13.777   9.214
 1962PROX   H1115135  11.460  13.768   9.227
 1962PROX   H1315136  11.608  13.694   9.150
 1962PROX    C215137  11.642  13.742   9.347
 1962PROX   H2115138  11.748  13.773   9.335
 1962PROX    C315139  11.633  13.593   9.390
 1962PROX   H3115140  11.688  13.529   9.318
 1962PROX   H3215141  11.678  13.592   9.492
 1962PROX   H3315142  11.527  13.562   9.405
 1963PROX    O115143  11.580  13.801   9.454
 1963PROX    C115144  11.610  13.943   9.464
 1963PROX   H1115145  11.634  13.993   9.368
 1963PROX   H1315146  11.527  13.996   9.516
 1963PROX    C215147  11.733  13.963   9.557
 1963PROX   H2115148  11.825  13.926   9.508
 1963PROX    C315149  11.710  13.896   9.693
 1963PROX   H3115150  11.702  13.786   9.684
 1963PROX   H3215151  11.768  13.916   9.785
 1963PROX   H3315152  11.605  13.923   9.717
 1964PROX    O115153  11.751  14.100   9.592
 1964PROX    C115154  11.799  14.186   9.492
 1964PROX   H1115155  11.890  14.137   9.449
 1964PROX   H1315156  11.730  14.200   9.406
 1964PROX    C215157  11.855  14.319   9.548
 1964PROX   H2115158  11.924  14.357   9.470
 1964PROX    C315159  11.945  14.293   9.672
 1964PROX   H3115160  12.033  14.231   9.643
 1964PROX   H3215161  11.974  14.383   9.731
 1964PROX   H3315162  11.890  14.223   9.738
 1965PROX    O115163  11.755  14.412   9.571
 1965PROX    C115164  11.812  14.541   9.592
 1965PROX   H1115165  11.849  14.555   9.696
 1965PROX   H1315166  11.890  14.555   9.514
 1965PROX    C215167  11.706  14.650   9.572
 1965PROX   H2115168  11.638  14.639   9.659
 1965PROX    C315169  11.634  14.632   9.432
 1965PROX   H3115170  11.583  14.534   9.422
 1965PROX   H3215171  11.546  14.700   9.439
 1965PROX   H3315172  11.698  14.660   9.345
 1966PROX    O115173  11.763  14.777   9.568
 1966PROX    C115174  11.811  14.814   9.699
 1966PROX   H1115175  11.729  14.814   9.774
 1966PROX   H1315176  11.896  14.748   9.730
 1966PROX    C215177  11.867  14.963   9.697
 1966PROX   H2115178  11.788  15.021   9.645
 1966PROX    C315179  11.994  14.985   9.603
 1966PROX   H3115180  12.074  14.916   9.634
 1966PROX   H3215181  11.968  14.959   9.498
 1966PROX   H3315182  12.025  15.092   9.612
 1967PROX    O115183  11.900  15.017   9.827
 1967PROX    C115184  11.966  14.929   9.915
 1967PROX   H1115185  11.882  14.870   9.956
 1967PROX   H1315186  12.048  14.872   9.865
 1967PROX    C215187  12.030  15.009  10.032
 1967PROX   H2115188  11.952  15.075  10.078
 1967PROX    C315189  12.135  15.098   9.978
 1967PROX   H3115190  12.184  15.166  10.051
 1967PROX   H3215191  12.208  15.023   9.941
 1967PROX   H3315192  12.098  15.157   9.891
 1968PROX    O115193  12.096  14.929  10.129
 1968PROX    C115194  12.017  14.839  10.192
 1968PROX   H1115195  11.931  14.877  10.252
 1968PROX   H1315196  11.963  14.781  10.114
 1968PROX    C215197  12.106  14.758  10.276
 1968PROX   H2115198  12.135  14.817  10.366
 1968PROX    C315199  12.223  14.686  10.212
 1968PROX   H3115200  12.188  14.625  10.127
 1968PROX   H3215201  12.290  14.767  10.177
 1968PROX   H3315202  12.282  14.617  10.277
 1969PROX    O115203  12.026  14.646  10.323
 1969PROX    C115204  11.929  14.666  10.429
 1969PROX   H1115205  11.973  14.726  10.512
 1969PROX   H1315206  11.842  14.719  10.383
 1969PROX    C215207  11.870  14.535  10.492
 1969PROX   H2115208  11.959  14.474  10.520
 1969PROX    C315209  11.793  14.441  10.398
 1969PROX   H3115210  11.731  14.503  10.330
 1969PROX   H3215211  11.871  14.381  10.346
 1969PROX   H3315212  11.732  14.366  10.452
 1970PROX    O115213  11.793  14.572  10.614
 1970PROX    C115214  11.802  14.477  10.725
 1970PROX   H1115215  11.771  14.375  10.695
 1970PROX   H1315216  11.903  14.481  10.771
 1970PROX    C215217  11.693  14.523  10.830
 1970PROX   H2115218  11.595  14.528  10.777
 1970PROX    C315219  11.719  14.662  10.895
 1970PROX   H3115220  11.804  14.671  10.965
 1970PROX   H3215221  11.735  14.738  10.815
 1970PROX   H3315222  11.633  14.688  10.960
 1971PROX    O115223  11.688  14.434  10.939
 1971PROX    C115224  11.594  14.332  10.920
 1971PROX   H1115225  11.587  14.309  10.812
 1971PROX   H1315226  11.635  14.235  10.955
 1971PROX    C215227  11.454  14.362  10.983
 1971PROX   H2115228  11.405  14.437  10.918
 1971PROX    C315229  11.466  14.412  11.128
 1971PROX   H3115230  11.499  14.518  11.136
 1971PROX   H3215231  11.365  14.413  11.173
 1971PROX   H3315232  11.531  14.349  11.192
 1972PROX    O115233  11.367  14.252  10.970
 1972PROX    C115234  11.328  14.212  10.834
 1972PROX   H1115235  11.295  14.297  10.771
 1972PROX   H1315236  11.422  14.173  10.788
 1972PROX    C215237  11.211  14.102  10.826
 1972PROX   H2115238  11.115  14.150  10.854
 1972PROX    C315239  11.223  13.986  10.922
 1972PROX   H3115240  11.203  14.028  11.023
 1972PROX   H3215241  11.150  13.902  10.910
 1972PROX   H3315242  11.327  13.947  10.926
 1973PROX    O115243  11.209  14.038  10.700
 1973PROX    C115244  11.140  14.117  10.602
 1973PROX   H1115245  11.046  14.141  10.656
 1973PROX   H1315246  11.194  14.212  10.582
 1973PROX    C215247  11.117  14.038  10.473
 1973PROX   H2115248  11.045  13.955  10.490
 1973PROX    C315249  11.254  13.992  10.410
 1973PROX   H3115250  11.285  13.893  10.451
 1973PROX   H3215251  11.236  13.985  10.300
 1973PROX   H3315252  11.325  14.069  10.447
 1974PROX    O115253  11.065  14.123  10.369
 1974PROX    C115254  10.967  14.061  10.291
 1974PROX   H1115255  11.003  13.967  10.244
 1974PROX   H1315256  10.866  14.044  10.334
 1974PROX    C215257  10.935  14.163  10.176
 1974PROX   H2115258  11.035  14.175  10.129
 1974PROX    C315259  10.867  14.296  10.219
 1974PROX   H3115260  10.936  14.342  10.292
 1974PROX   H3215261  10.835  14.348  10.126
 1974PROX   H3315262  10.779  14.274  10.284
 1975PROX    O115263  10.859  14.089  10.084
 1975PROX    C115264  10.857  14.147   9.957
 1975PROX   H1115265  10.786  14.233   9.950
 1975PROX   H1315266  10.960  14.179   9.930
 1975PROX    C215267  10.823  14.040   9.858
 1975PROX   H2115268  10.722  14.002   9.884
 1975PROX    C315269  10.913  13.920   9.866
 1975PROX   H3115270  10.926  13.895   9.973
 1975PROX   H3215271  10.859  13.836   9.816
 1975PROX   H3315272  11.011  13.931   9.815
 1976PROX    O115273  10.828  14.095   9.729
 1976PROX    C115274  10.771  14.018   9.622
 1976PROX   H1115275  10.811  13.914   9.615
 1976PROX   H1315276  10.660  14.017   9.631
 1976PROX    C215277  10.814  14.089   9.489
 1976PROX   H2115278  10.844  14.192   9.515
 1976PROX    C315279  10.702  14.103   9.394
 1976PROX   H3115280  10.685  14.006   9.342
 1976PROX   H3215281  10.604  14.114   9.445
 1976PROX   H3315282  10.720  14.188   9.325
 1977PROX    O115283  10.934  14.015   9.440
 1977PROX    C115284  11.049  14.068   9.509
 1977PROX   H1115285  11.062  14.172   9.472
 1977PROX   H1315286  11.043  14.071   9.620
 1977PROX    C215287  11.177  13.993   9.467
 1977PROX   H2115288  11.262  14.037   9.524
 1977PROX    C315289  11.222  13.999   9.324
 1977PROX   H3115290  11.138  13.955   9.267
 1977PROX   H3215291  11.227  14.107   9.297
 1977PROX   H3315292  11.319  13.950   9.305
 1978PROX    O115293  11.181  13.857   9.484
 1978PROX    C115294  11.173  13.815   9.621
 1978PROX   H1115295  11.199  13.906   9.679
 1978PROX   H1315296  11.070  13.777   9.630
 1978PROX    C215297  11.277  13.711   9.645
 1978PROX   H2115298  11.372  13.748   9.601
 1978PROX    C315299  11.238  13.578   9.580
 1978PROX   H3115300  11.313  13.501   9.610
 1978PROX   H3215301  11.137  13.545   9.610
 1978PROX   H3315302  11.235  13.583   9.469
 1979PROX    O115303  11.288  13.687   9.784
 1979PROX    C115304  11.386  13.765   9.848
 1979PROX   H1115305  11.488  13.747   9.809
 1979PROX   H1315306  11.349  13.869   9.843
 1979PROX    C215307  11.387  13.737  10.003
 1979PROX   H2115308  11.407  13.630  10.026
 1979PROX    C315309  11.246  13.764  10.072
 1979PROX   H3115310  11.165  13.697  10.037
 1979PROX   H3215311  11.231  13.736  10.178
 1979PROX   H3315312  11.225  13.873  10.064
 1980PROX    O115313  11.483  13.813  10.067
 1980PROX    C115314  11.501  13.772  10.201
 1980PROX   H1115315  11.416  13.719  10.250
 1980PROX   H1315316  11.578  13.692  10.201
 1980PROX    C215317  11.548  13.892  10.285
 1980PROX   H2115318  11.479  13.973  10.253
 1980PROX    C315319  11.691  13.946  10.261
 1980PROX   H3115320  11.708  13.990  10.161
 1980PROX   H3215321  11.721  14.025  10.333
 1980PROX   H3315322  11.759  13.860  10.276
 1981PROX    O115323  11.525  13.864  10.423
 1981PROX    C115324  11.605  13.755  10.474
 1981PROX   H1115325  11.537  13.668  10.461
 1981PROX   H1315326  11.696  13.743  10.411
 1981PROX    C215327  11.648  13.767  10.629
 1981PROX   H2115328  11.704  13.674  10.649
 1981PROX    C315329  11.519  13.790  10.715
 1981PROX   H3115330  11.488  13.897  10.707
 1981PROX   H3215331  11.436  13.720  10.698
 1981PROX   H3315332  11.553  13.758  10.816
 1982PROX    O115333  11.743  13.870  10.640
 1982PROX    C115334  11.811  13.850  10.765
 1982PROX   H1115335  11.760  13.768  10.821
 1982PROX   H1315336  11.914  13.812  10.748
 1982PROX    C215337  11.790  13.979  10.842
 1982PROX   H2115338  11.686  14.011  10.820
 1982PROX    C315339  11.889  14.090  10.792
 1982PROX   H3115340  11.994  14.082  10.828
 1982PROX   H3215341  11.887  14.088  10.681
 1982PROX   H3315342  11.858  14.189  10.832
 1983PROX    O115343  11.808  13.958  10.983
 1983PROX    C115344  11.690  13.912  11.056
 1983PROX   H1115345  11.596  13.927  11.000
 1983PROX   H1315346  11.694  13.803  11.078
 1983PROX    C215347  11.685  13.996  11.188
 1983PROX   H2115348  11.670  14.103  11.163
 1983PROX    C315349  11.820  13.988  11.267
 1983PROX   H3115350  11.796  14.014  11.373
 1983PROX   H3215351  11.870  13.891  11.248
 1983PROX   H3315352  11.883  14.074  11.238
 1984PROX    O115353  11.577  13.951  11.267
 1984PROX    C115354  11.453  14.005  11.215
 1984PROX   H1115355  11.460  14.113  11.241
 1984PROX   H1315356  11.441  13.999  11.105
 1984PROX    C215357  11.336  13.939  11.292
 1984PROX   H2115358  11.362  13.952  11.400
 1984PROX    C315359  11.330  13.787  11.258
 1984PROX   H3115360  11.413  13.753  11.323
 1984PROX   H3215361  11.235  13.751  11.302
 1984PROX   H3315362  11.345  13.766  11.150
 1985PROX    O115363  11.210  14.005  11.256
 1985PROX    C115364  11.088  13.942  11.305
 1985PROX   H1115365  11.069  13.858  11.234
 1985PROX   H1315366  11.118  13.901  11.403
 1985PROX    C215367  10.970  14.036  11.326
 1985PROX   H2115368  11.007  14.123  11.384
 1985PROX    C315369  10.857  13.956  11.393
 1985PROX   H3115370  10.786  14.036  11.423
 1985PROX   H3215371  10.804  13.901  11.312
 1985PROX   H3315372  10.877  13.914  11.493
 1986PROX    O115373  10.922  14.074  11.197
 1986PROX    C115374  10.852  14.208  11.204
 1986PROX   H1115375  10.783  14.215  11.290
 1986PROX   H1315376  10.919  14.295  11.221
 1986PROX    C215377  10.774  14.245  11.070
 1986PROX   H2115378  10.681  14.183  11.076
 1986PROX    C315379  10.856  14.205  10.953
 1986PROX   H3115380  10.894  14.101  10.956
 1986PROX   H3215381  10.800  14.230  10.860
 1986PROX   H3315382  10.943  14.275  10.944
 1987PROX    O115383  10.744  14.384  11.070
 1987PROX    C115384  10.670  14.434  10.959
 1987PROX   H1115385  10.731  14.426  10.866
 1987PROX   H1315386  10.575  14.377  10.954
 1987PROX    C215387  10.637  14.584  10.978
 1987PROX   H2115388  10.591  14.591  11.079
 1987PROX    C315389  10.540  14.611  10.865
 1987PROX   H3115390  10.549  14.712  10.819
 1987PROX   H3215391  10.552  14.544  10.777
 1987PROX   H3315392  10.437  14.606  10.906
 1988PROX    O115393  10.755  14.663  10.970
 1988PROX    C115394  10.727  14.799  11.006
 1988PROX   H1115395  10.668  14.836  10.920
 1988PROX   H1315396  10.657  14.822  11.090
 1988PROX    C215397  10.862  14.876  11.026
 1988PROX   H2115398  10.944  14.838  10.961
 1988PROX    C315399  10.902  14.854  11.169
 1988PROX   H3115400  10.926  14.748  11.193
 1988PROX   H3215401  10.999  14.908  11.174
 1988PROX   H3315402  10.833  14.890  11.248
 1989PROX    O115403  10.829  15.013  10.996
 1989PROX    C115404  10.934  15.075  10.926
 1989PROX   H1115405  10.923  15.183  10.951
 1989PROX   H1315406  11.030  15.034  10.964
 1989PROX    C215407  10.933  15.042  10.780
 1989PROX   H2115408  10.925  14.933  10.765
 1989PROX    C315409  11.061  15.091  10.712
 1989PROX   H3115410  11.048  15.072  10.603
 1989PROX   H3215411  11.081  15.199  10.724
 1989PROX   H3315412  11.143  15.034  10.762
 1990PROX    O115413  10.822  15.114  10.722
 1990PROX    C115414  10.787  15.059  10.590
 1990PROX   H1115415  10.872  15.013  10.536
 1990PROX   H1315416  10.733  14.967  10.621
 1990PROX    C215417  10.711  15.164  10.499
 1990PROX   H2115418  10.652  15.234  10.562
 1990PROX    C315419  10.618  15.106  10.394
 1990PROX   H3115420  10.546  15.178  10.349
 1990PROX   H3215421  10.674  15.057  10.312
 1990PROX   H3315422  10.554  15.030  10.444
 1991PROX    O115423  10.813  15.251  10.444
 1991PROX    C115424  10.765  15.363  10.368
 1991PROX   H1115425  10.760  15.328  10.262
 1991PROX   H1315426  10.671  15.409  10.406
 1991PROX    C215427  10.872  15.478  10.368
 1991PROX   H2115428  10.886  15.519  10.471
 1991PROX    C315429  10.828  15.590  10.274
 1991PROX   H3115430  10.802  15.545  10.175
 1991PROX   H3215431  10.735  15.639  10.311
 1991PROX   H3315432  10.908  15.665  10.258
 1992PROX    O115433  10.995  15.426  10.314
 1992PROX    C115434  11.103  15.496  10.372
 1992PROX   H1115435  11.102  15.602  10.339
 1992PROX   H1315436  11.086  15.498  10.482
 1992PROX    C215437  11.243  15.449  10.327
 1992PROX   H2115438  11.245  15.456  10.216
 1992PROX    C315439  11.259  15.305  10.372
 1992PROX   H3115440  11.198  15.234  10.312
 1992PROX   H3215441  11.363  15.270  10.358
 1992PROX   H3315442  11.226  15.307  10.479
 1993PROX    O115443  11.333  15.540  10.387
 1993PROX    C115444  11.457  15.549  10.311
 1993PROX   H1115445  11.512  15.452  10.313
 1993PROX   H1315446  11.446  15.578  10.205
 1993PROX    C215447  11.541  15.659  10.379
 1993PROX   H2115448  11.482  15.753  10.373
 1993PROX    C315449  11.671  15.693  10.301
 1993PROX   H3115450  11.654  15.745  10.204
 1993PROX   H3215451  11.737  15.765  10.354
 1993PROX   H3315452  11.731  15.601  10.281
 1994PROX    O115453  11.568  15.632  10.519
 1994PROX    C115454  11.657  15.519  10.541
 1994PROX   H1115455  11.621  15.424  10.495
 1994PROX   H1315456  11.756  15.539  10.494
 1994PROX    C215457  11.673  15.477  10.684
 1994PROX   H2115458  11.676  15.568  10.747
 1994PROX    C315459  11.802  15.400  10.706
 1994PROX   H3115460  11.807  15.306  10.647
 1994PROX   H3215461  11.879  15.467  10.663
 1994PROX   H3315462  11.817  15.383  10.815
 1995PROX    O115463  11.565  15.399  10.738
 1995PROX    C115464  11.446  15.470  10.753
 1995PROX   H1115465  11.459  15.566  10.807
 1995PROX   H1315466  11.418  15.492  10.648
 1995PROX    C215467  11.340  15.389  10.822
 1995PROX   H2115468  11.328  15.288  10.777
 1995PROX    C315469  11.197  15.452  10.815
 1995PROX   H3115470  11.168  15.476  10.710
 1995PROX   H3215471  11.116  15.386  10.852
 1995PROX   H3315472  11.188  15.546  10.874
 1996PROX    O115473  11.368  15.370  10.963
 1996PROX    C115474  11.485  15.287  10.989
 1996PROX   H1115475  11.504  15.218  10.904
 1996PROX   H1315476  11.572  15.355  10.982
 1996PROX    C215477  11.476  15.216  11.122
 1996PROX   H2115478  11.386  15.241  11.182
 1996PROX    C315479  11.591  15.256  11.222
 1996PROX   H3115480  11.575  15.202  11.318
 1996PROX   H3215481  11.689  15.238  11.175
 1996PROX   H3315482  11.603  15.367  11.229
 1997PROX    O115483  11.487  15.073  11.102
 1997PROX    C115484  11.358  15.007  11.092
 1997PROX   H1115485  11.335  14.983  11.198
 1997PROX   H1315486  11.289  15.085  11.054
 1997PROX    C215487  11.379  14.882  10.995
 1997PROX   H2115488  11.435  14.806  11.054
 1997PROX    C315489  11.470  14.916  10.877
 1997PROX   H3115490  11.474  14.834  10.801
 1997PROX   H3215491  11.437  15.010  10.828
 1997PROX   H3315492  11.573  14.925  10.917
 1998PROX    O115493  11.251  14.816  10.965
 1998PROX    C115494  11.262  14.714  10.867
 1998PROX   H1115495  11.256  14.774  10.773
 1998PROX   H1315496  11.361  14.663  10.866
 1998PROX    C215497  11.131  14.627  10.867
 1998PROX   H2115498  11.048  14.688  10.826
 1998PROX    C315499  11.096  14.566  11.004
 1998PROX   H3115500  11.075  14.650  11.074
 1998PROX   H3215501  11.006  14.504  10.986
 1998PROX   H3315502  11.179  14.503  11.044
 1999PROX    O115503  11.143  14.514  10.793
 1999PROX    C115504  11.127  14.545  10.654
 1999PROX   H1115505  11.167  14.644  10.624
 1999PROX   H1315506  11.187  14.473  10.595
 1999PROX    C215507  10.981  14.551  10.597
 1999PROX   H2115508  10.927  14.620  10.665
 1999PROX    C315509  10.911  14.413  10.600
 1999PROX   H3115510  10.972  14.338  10.545
 1999PROX   H3215511  10.920  14.377  10.705
 1999PROX   H3315512  10.805  14.415  10.567
 2000PROX    O115513  10.982  14.608  10.462
 2000PROX    C115514  10.849  14.635  10.418
 2000PROX   H1115515  10.798  14.538  10.398
 2000PROX   H1315516  10.789  14.696  10.489
 2000PROX    C215517  10.843  14.710  10.284
 2000PROX   H2115518  10.887  14.637  10.212
 2000PROX    C315519  10.926  14.838  10.290
 2000PROX   H3115520  10.865  14.915  10.344
 2000PROX   H3215521  11.017  14.821  10.351
 2000PROX   H3315522  10.949  14.871  10.187
 2001PROX    O115523  10.714  14.751  10.261
 2001PROX    C115524  10.693  14.783  10.131
 2001PROX   H1115525  10.735  14.884  10.112
 2001PROX   H1315526  10.763  14.730  10.063
 2001PROX    C215527  10.543  14.773  10.094
 2001PROX   H2115528  10.503  14.867  10.139
 2001PROX    C315529  10.480  14.645  10.159
 2001PROX   H3115530  10.448  14.656  10.265
 2001PROX   H3215531  10.389  14.599  10.113
 2001PROX   H3315532  10.550  14.559  10.148
 2002PROX    O115533  10.527  14.783   9.950
 2002PROX    C115534  10.392  14.801   9.909
 2002PROX   H1115535  10.321  14.736   9.963
 2002PROX   H1315536  10.372  14.908   9.931
 2002PROX    C215537  10.370  14.773   9.755
 2002PROX   H2115538  10.437  14.843   9.700
 2002PROX    C315539  10.226  14.816   9.713
 2002PROX   H3115540  10.199  14.920   9.739
 2002PROX   H3215541  10.194  14.808   9.607
 2002PROX   H3315542  10.163  14.739   9.763
 2003PROX    O115543  10.393  14.644   9.714
 2003PROX    C115544  10.521  14.601   9.713
 2003PROX   H1115545  10.585  14.673   9.657
 2003PROX   H1315546  10.561  14.591   9.817
 2003PROX    C215547  10.533  14.456   9.655
 2003PROX   H2115548  10.517  14.454   9.545
 2003PROX    C315549  10.437  14.345   9.710
 2003PROX   H3115550  10.405  14.369   9.814
 2003PROX   H3215551  10.342  14.344   9.653
 2003PROX   H3315552  10.481  14.244   9.699
 2004PROX    O115553  10.648  14.397   9.697
 2004PROX    C115554  10.764  14.455   9.645
 2004PROX   H1115555  10.787  14.404   9.549
 2004PROX   H1315556  10.761  14.565   9.627
 2004PROX    C215557  10.876  14.438   9.747
 2004PROX   H2115558  10.893  14.329   9.761
 2004PROX    C315559  10.846  14.512   9.874
 2004PROX   H3115560  10.917  14.502   9.958
 2004PROX   H3215561  10.849  14.621   9.855
 2004PROX   H3315562  10.746  14.492   9.919
 2005PROX    O115563  10.985  14.495   9.684
 2005PROX    C115564  11.114  14.433   9.694
 2005PROX   H1115565  11.155  14.430   9.797
 2005PROX   H1315566  11.090  14.330   9.661
 2005PROX    C215567  11.209  14.507   9.594
 2005PROX   H2115568  11.145  14.526   9.504
 2005PROX    C315569  11.337  14.423   9.570
 2005PROX   H3115570  11.388  14.416   9.669
 2005PROX   H3215571  11.313  14.315   9.555
 2005PROX   H3315572  11.407  14.460   9.492
 2006PROX    O115573  11.261  14.626   9.645
 2006PROX    C115574  11.293  14.723   9.549
 2006PROX   H1115575  11.362  14.797   9.595
 2006PROX   H1315576  11.344  14.671   9.465
 2006PROX    C215577  11.172  14.816   9.511
 2006PROX   H2115578  11.076  14.760   9.524
 2006PROX    C315579  11.190  14.878   9.367
 2006PROX   H3115580  11.100  14.933   9.333
 2006PROX   H3215581  11.279  14.943   9.373
 2006PROX   H3315582  11.212  14.799   9.292
 2007PROX    O115583  11.172  14.926   9.607
 2007PROX    C115584  11.059  15.017   9.589
 2007PROX   H1115585  11.090  15.120   9.618
 2007PROX   H1315586  11.009  15.009   9.490
 2007PROX    C215587  10.950  14.979   9.692
 2007PROX   H2115588  11.008  15.011   9.782
 2007PROX    C315589  10.907  14.835   9.708
 2007PROX   H3115590  10.992  14.765   9.723
 2007PROX   H3215591  10.845  14.822   9.800
 2007PROX   H3315592  10.850  14.805   9.618
 2008PROX    O115593  10.850  15.074   9.675
 2008PROX    C115594  10.739  15.051   9.764
 2008PROX   H1115595  10.659  15.119   9.727
 2008PROX   H1315596  10.695  14.950   9.747
 2008PROX    C215597  10.758  15.085   9.914
 2008PROX   H2115598  10.801  15.003   9.976
 2008PROX    C315599  10.618  15.119   9.972
 2008PROX   H3115600  10.543  15.038   9.963
 2008PROX   H3215601  10.626  15.144  10.080
 2008PROX   H3315602  10.584  15.214   9.925
 2009PROX    O115603  10.850  15.194   9.924
 2009PROX    C115604  10.900  15.200  10.059
 2009PROX   H1115605  10.896  15.302  10.104
 2009PROX   H1315606  10.846  15.133  10.129
 2009PROX    C215607  11.054  15.182  10.044
 2009PROX   H2115608  11.090  15.174  10.149
 2009PROX    C315609  11.118  15.302   9.972
 2009PROX   H3115610  11.050  15.387   9.992
 2009PROX   H3215611  11.218  15.316  10.019
 2009PROX   H3315612  11.120  15.281   9.863
 2010PROX    O115613  11.086  15.061   9.984
 2010PROX    C115614  11.219  15.013  10.024
 2010PROX   H1115615  11.297  15.084   9.988
 2010PROX   H1315616  11.220  14.992  10.133
 2010PROX    C215617  11.263  14.884   9.950
 2010PROX   H2115618  11.270  14.902   9.840
 2010PROX    C315619  11.166  14.772   9.980
 2010PROX   H3115620  11.193  14.686   9.914
 2010PROX   H3215621  11.180  14.739  10.086
 2010PROX   H3315622  11.063  14.800   9.948
 2011PROX    O115623  11.393  14.844   9.999
 2011PROX    C115624  11.471  14.765   9.903
 2011PROX   H1115625  11.400  14.698   9.849
 2011PROX   H1315626  11.512  14.837   9.829
 2011PROX    C215627  11.570  14.688   9.992
 2011PROX   H2115628  11.518  14.626  10.069
 2011PROX    C315629  11.656  14.787  10.073
 2011PROX   H3115630  11.684  14.868  10.002
 2011PROX   H3215631  11.584  14.826  10.149
 2011PROX   H3315632  11.737  14.738  10.131
 2012PROX    O115633  11.662  14.609   9.917
 2012PROX    C115634  11.604  14.478   9.877
 2012PROX   H1115635  11.502  14.501   9.840
 2012PROX   H1315636  11.669  14.438   9.796
 2012PROX    C215637  11.614  14.376   9.991
 2012PROX   H2115638  11.554  14.398  10.082
 2012PROX    C315639  11.755  14.361  10.033
 2012PROX   H3115640  11.762  14.271  10.097
 2012PROX   H3215641  11.823  14.359   9.945
 2012PROX   H3315642  11.796  14.448  10.089
 2013PROX    O115643  11.577  14.250   9.938
 2013PROX    C115644  11.512  14.148  10.022
 2013PROX   H1115645  11.518  14.047   9.977
 2013PROX   H1315646  11.555  14.146  10.125
 2013PROX    C215647  11.356  14.185  10.032
 2013PROX   H2115648  11.303  14.103  10.084
 2013PROX    C315649  11.289  14.190   9.897
 2013PROX   H3115650  11.325  14.260   9.818
 2013PROX   H3215651  11.281  14.093   9.844
 2013PROX   H3315652  11.188  14.236   9.907
 2014PROX    O115653  11.334  14.313  10.100
 2014PROX    C115654  11.339  14.312  10.244
 2014PROX   H1115655  11.281  14.221  10.271
 2014PROX   H1315656  11.441  14.298  10.284
 2014PROX    C215657  11.280  14.439  10.293
 2014PROX   H2115658  11.242  14.436  10.397
 2014PROX    C315659  11.179  14.499  10.199
 2014PROX   H3115660  11.128  14.588  10.241
 2014PROX   H3215661  11.235  14.533  10.110
 2014PROX   H3315662  11.104  14.430  10.156
 2015PROX    O115663  11.385  14.534  10.300
 2015PROX    C115664  11.349  14.667  10.335
 2015PROX   H1115665  11.334  14.726  10.242
 2015PROX   H1315666  11.261  14.667  10.402
 2015PROX    C215667  11.460  14.731  10.425
 2015PROX   H2115668  11.556  14.745  10.372
 2015PROX    C315669  11.484  14.629  10.537
 2015PROX   H3115670  11.402  14.645  10.611
 2015PROX   H3215671  11.496  14.526  10.498
 2015PROX   H3315672  11.573  14.655  10.598
 2016PROX    O115673  11.418  14.853  10.480
 2016PROX    C115674  11.431  14.959  10.391
 2016PROX   H1115675  11.411  14.932  10.285
 2016PROX   H1315676  11.365  15.043  10.421
 2016PROX    C215677  11.570  15.017  10.411
 2016PROX   H2115678  11.637  14.940  10.369
 2016PROX    C315679  11.613  15.042  10.560
 2016PROX   H3115680  11.632  14.948  10.616
 2016PROX   H3215681  11.710  15.096  10.568
 2016PROX   H3315682  11.534  15.107  10.605
 2017PROX    O115683  11.584  15.135  10.337
 2017PROX    C115684  11.677  15.119  10.228
 2017PROX   H1115685  11.773  15.073  10.262
 2017PROX   H1315686  11.647  15.029  10.172
 2017PROX    C215687  11.701  15.241  10.141
 2017PROX   H2115688  11.774  15.219  10.060
 2017PROX    C315689  11.775  15.355  10.215
 2017PROX   H3115690  11.779  15.440  10.144
 2017PROX   H3215691  11.715  15.381  10.304
 2017PROX   H3315692  11.879  15.328  10.244
 2018PROX    O115693  11.579  15.280  10.087
 2018PROX    C115694  11.592  15.337   9.953
 2018PROX   H1115695  11.567  15.444   9.966
 2018PROX   H1315696  11.698  15.335   9.920
 2018PROX    C215697  11.478  15.281   9.851
 2018PROX   H2115698  11.385  15.304   9.908
 2018PROX    C315699  11.498  15.135   9.812
 2018PROX   H3115700  11.433  15.100   9.729
 2018PROX   H3215701  11.602  15.137   9.773
 2018PROX   H3315702  11.493  15.070   9.902
 2019PROX    O115703  11.493  15.345   9.724
 2019PROX    C115704  11.359  15.359   9.665
 2019PROX   H1115705  11.295  15.275   9.697
 2019PROX   H1315706  11.305  15.450   9.700
 2019PROX    C215707  11.362  15.354   9.506
 2019PROX   H2115708  11.401  15.253   9.480
 2019PROX    C315709  11.455  15.459   9.442
 2019PROX   H3115710  11.431  15.565   9.463
 2019PROX   H3215711  11.555  15.443   9.489
 2019PROX   H3315712  11.456  15.450   9.332
 2020PROX    O115713  11.228  15.364   9.460
 2020PROX    C115714  11.204  15.285   9.348
 2020PROX   H1115715  11.289  15.288   9.276
 2020PROX   H1315716  11.189  15.182   9.386
 2020PROX    C215717  11.075  15.337   9.282
 2020PROX   H2115718  11.084  15.444   9.254
 2020PROX    C315719  10.950  15.329   9.384
 2020PROX   H3115720  10.962  15.223   9.415
 2020PROX   H3215721  10.980  15.402   9.462
 2020PROX   H3315722  10.848  15.345   9.343
 2021ETHO    O115723  11.048  15.258   9.167
 2021ETHO    C115724  10.968  15.333   9.073
 2021ETHO   H1115725  10.891  15.398   9.122
 2021ETHO   H1315726  10.907  15.258   9.019
 2021ETHO    C215727  11.059  15.408   8.969
 2021ETHO   H2115728  10.992  15.448   8.891
 2021ETHO   H2315729  11.131  15.330   8.934
 2022ETHO    O115730  11.121  15.521   9.024
 2022ETHO    C115731  11.193  15.587   8.922
 2022ETHO   H1115732  11.238  15.507   8.859
 2022ETHO   H1315733  11.135  15.662   8.863
 2022ETHO    C215734  11.309  15.660   8.997
 2022ETHO   H2115735  11.385  15.700   8.925
 2022ETHO   H2315736  11.359  15.580   9.056
 2023ETHO    O115737  11.265  15.761   9.080
 2023ETHO    C115738  11.361  15.814   9.166
 2023ETHO   H1115739  11.456  15.822   9.110
 2023ETHO   H1315740  11.388  15.749   9.252
 2023ETHO    C215741  11.313  15.952   9.227
 2023ETHO   H2115742  11.313  16.035   9.154
 2023ETHO   H2315743  11.380  15.989   9.307
 2024ETHO    O115744  11.177  15.926   9.268
 2024ETHO    C115745  11.115  16.029   9.347
 2024ETHO   H1115746  11.181  16.032   9.437
 2024ETHO   H1315747  11.128  16.127   9.296
 2024ETHO    C215748  10.968  15.995   9.364
 2024ETHO   H2115749  10.937  16.053   9.454
 2024ETHO   H2315750  10.947  15.890   9.392
 2025ETHO    O115751  10.883  16.034   9.251
 2025ETHO    C115752  10.745  16.008   9.272
 2025ETHO   H1115753  10.708  16.070   9.356
 2025ETHO   H1315754  10.731  15.901   9.300
 2025ETHO    C215755  10.657  16.038   9.142
 2025ETHO   H2115756  10.557  15.994   9.161
 2025ETHO   H2315757  10.693  15.986   9.051
 2026ETHO    O115758  10.640  16.179   9.118
 2026ETHO    C115759  10.606  16.191   8.980
 2026ETHO   H1115760  10.687  16.160   8.911
 2026ETHO   H1315761  10.522  16.119   8.970
 2026ETHO    C215762  10.560  16.333   8.949
 2026ETHO   H2115763  10.562  16.337   8.838
 2026ETHO   H2315764  10.632  16.397   9.004
 2027ETHO    O115765  10.428  16.375   8.986
 2027ETHO    C115766  10.390  16.500   8.937
 2027ETHO   H1115767  10.360  16.488   8.830
 2027ETHO   H1315768  10.478  16.568   8.948
 2027ETHO    C215769  10.268  16.554   9.005
 2027ETHO   H2115770  10.248  16.655   8.962
 2027ETHO   H2315771  10.284  16.574   9.113
 2028ETHO    O115772  10.155  16.475   8.978
 2028ETHO    C115773  10.033  16.526   9.023
 2028ETHO   H1115774  10.036  16.532   9.134
 2028ETHO   H1315775  10.006  16.620   8.970
 2028ETHO    C215776   9.922  16.421   8.997
 2028ETHO   H2115777   9.928  16.334   9.065
 2028ETHO   H2315778   9.832  16.480   9.027
 2029ETHO    O115779   9.919  16.379   8.858
 2029ETHO    C115780   9.810  16.289   8.842
 2029ETHO   H1115781   9.838  16.188   8.880
 2029ETHO   H1315782   9.712  16.316   8.884
 2029ETHO    C215783   9.778  16.250   8.699
 2029ETHO   H2115784   9.706  16.165   8.700
 2029ETHO   H2315785   9.869  16.219   8.645
 2030ETHO    O115786   9.725  16.362   8.633
 2030ETHO    C115787   9.691  16.324   8.501
 2030ETHO   H1115788   9.761  16.244   8.469
 2030ETHO   H1315789   9.590  16.279   8.507
 2030ETHO    C215790   9.694  16.449   8.417
 2030ETHO   H2115791   9.696  16.414   8.311
 2030ETHO   H2315792   9.794  16.496   8.430
 2031ETHO    O115793   9.582  16.528   8.435
 2031ETHO    C115794   9.585  16.645   8.350
 2031ETHO   H1115795   9.689  16.686   8.348
 2031ETHO   H1315796   9.553  16.624   8.246
 2031ETHO    C215797   9.487  16.753   8.412
 2031ETHO   H2115798   9.518  16.852   8.374
 2031ETHO   H2315799   9.503  16.753   8.522
 2032ETHO    O115800   9.350  16.733   8.385
 2032ETHO    C115801   9.270  16.837   8.430
 2032ETHO   H1115802   9.283  16.926   8.364
 2032ETHO   H1315803   9.318  16.858   8.528
 2032ETHO    C215804   9.123  16.793   8.441
 2032ETHO   H2115805   9.076  16.877   8.495
 2032ETHO   H2315806   9.111  16.696   8.495
 2033ETHO    O115807   9.058  16.785   8.317
 2033ETHO    C115808   8.916  16.772   8.335
 2033ETHO   H1115809   8.881  16.667   8.337
 2033ETHO   H1315810   8.886  16.820   8.431
 2033ETHO    C215811   8.839  16.838   8.227
 2033ETHO   H2115812   8.734  16.804   8.235
 2033ETHO   H2315813   8.878  16.821   8.124
 2034ETHO    O115814   8.844  16.982   8.238
 2034ETHO    C115815   8.835  17.044   8.106
 2034ETHO   H1115816   8.925  17.020   8.046
 2034ETHO   H1315817   8.839  17.154   8.126
 2034ETHO    C215818   8.711  17.012   8.027
 2034ETHO   H2115819   8.705  16.901   8.018
 2034ETHO   H2315820   8.720  17.036   7.919
 2035ETHO    O115821   8.600  17.073   8.085
 2035ETHO    C115822   8.472  17.003   8.061
 2035ETHO   H1115823   8.445  16.993   7.953
 2035ETHO   H1315824   8.467  16.904   8.111
 2035ETHO    C215825   8.362  17.098   8.102
 2035ETHO   H2115826   8.364  17.113   8.212
 2035ETHO   H2315827   8.267  17.053   8.064
 2036ETHO    O115828   8.373  17.225   8.035
 2036ETHO    C115829   8.266  17.305   8.074
 2036ETHO   H1115830   8.269  17.326   8.183
 2036ETHO   H1315831   8.165  17.266   8.049
 2036ETHO    C215832   8.271  17.433   7.987
 2036ETHO   H2115833   8.374  17.474   7.981
 2036ETHO   H2315834   8.220  17.517   8.040
 2037ETHO    O115835   8.205  17.435   7.858
 2037ETHO    C115836   8.242  17.542   7.776
 2037ETHO   H1115837   8.182  17.633   7.797
 2037ETHO   H1315838   8.350  17.564   7.787
 2037ETHO    C215839   8.213  17.499   7.632
 2037ETHO   H2115840   8.249  17.394   7.623
 2037ETHO   H2315841   8.249  17.553   7.542
 2038ETHO    O115842   8.076  17.486   7.615
 2038ETHO    C115843   8.044  17.425   7.493
 2038ETHO   H1115844   8.064  17.316   7.500
 2038ETHO   H1315845   8.105  17.460   7.407
 2038ETHO    C215846   7.891  17.438   7.470
 2038ETHO   H2115847   7.872  17.406   7.366
 2038ETHO   H2315848   7.869  17.547   7.473
 2039ETHO    O115849   7.817  17.363   7.570
 2039ETHO    C115850   7.714  17.278   7.515
 2039ETHO   H1115851   7.760  17.214   7.437
 2039ETHO   H1315852   7.685  17.206   7.594
 2039ETHO    C215853   7.591  17.355   7.451
 2039ETHO   H2115854   7.550  17.420   7.531
 2039ETHO   H2315855   7.508  17.286   7.424
 2040ETHO    O115856   7.634  17.435   7.341
 2040ETHO    C115857   7.524  17.466   7.261
 2040ETHO   H1115858   7.465  17.375   7.234
 2040ETHO   H1315859   7.460  17.544   7.307
 2040ETHO    C215860   7.564  17.537   7.126
 2040ETHO   H2115861   7.624  17.458   7.076
 2040ETHO   H2315862   7.615  17.630   7.157
 2041ETHO    O115863   7.458  17.563   7.035
 2041ETHO    C115864   7.496  17.673   6.946
 2041ETHO   H1115865   7.523  17.765   7.002
 2041ETHO   H1315866   7.568  17.635   6.871
 2041ETHO    C215867   7.371  17.725   6.867
 2041ETHO   H2115868   7.310  17.648   6.813
 2041ETHO   H2315869   7.398  17.805   6.795
 2042ETHO    O115870   7.277  17.768   6.960
 2042ETHO    C115871   7.175  17.858   6.911
 2042ETHO   H1115872   7.121  17.899   6.999
 2042ETHO   H1315873   7.220  17.940   6.851
 2042ETHO    C215874   7.073  17.796   6.813
 2042ETHO   H2115875   6.982  17.859   6.799
 2042ETHO   H2315876   7.035  17.698   6.850
 2043ETHO    O115877   7.126  17.764   6.685
 2043ETHO    C115878   7.038  17.683   6.600
 2043ETHO   H1115879   7.020  17.745   6.510
 2043ETHO   H1315880   6.943  17.652   6.647
 2043ETHO    C215881   7.109  17.558   6.551
 2043ETHO   H2115882   7.214  17.586   6.529
 2043ETHO   H2315883   7.063  17.510   6.462
 2044ETHO    O115884   7.111  17.464   6.655
 2044ETHO    C115885   7.199  17.356   6.631
 2044ETHO   H1115886   7.197  17.304   6.533
 2044ETHO   H1315887   7.304  17.391   6.642
 2044ETHO    C215888   7.172  17.233   6.723
 2044ETHO   H2115889   7.156  17.264   6.828
 2044ETHO   H2315890   7.259  17.165   6.713
 2045ETHO    O115891   7.057  17.165   6.676
 2045ETHO    C115892   7.055  17.041   6.741
 2045ETHO   H1115893   7.046  17.066   6.849
 2045ETHO   H1315894   7.137  16.969   6.720
 2045ETHO    C215895   6.924  16.961   6.695
 2045ETHO   H2115896   6.961  16.923   6.598
 2045ETHO   H2315897   6.839  17.033   6.684
 2046ETHO    O115898   6.882  16.851   6.784
 2046ETHO    C115899   6.837  16.744   6.704
 2046ETHO   H1115900   6.733  16.759   6.667
 2046ETHO   H1315901   6.903  16.735   6.615
 2046ETHO    C215902   6.868  16.602   6.764
 2046ETHO   H2115903   6.979  16.601   6.775
 2046ETHO   H2315904   6.847  16.517   6.696
 2047ETHO    O115905   6.811  16.563   6.891
 2047ETHO    C115906   6.866  16.443   6.937
 2047ETHO   H1115907   6.974  16.462   6.956
 2047ETHO   H1315908   6.858  16.376   6.849
 2047ETHO    C215909   6.788  16.404   7.063
 2047ETHO   H2115910   6.825  16.303   7.092
 2047ETHO   H2315911   6.679  16.395   7.044
 2048ETHO    O115912   6.805  16.504   7.168
 2048ETHO    C115913   6.754  16.453   7.288
 2048ETHO   H1115914   6.647  16.427   7.273
 2048ETHO   H1315915   6.805  16.357   7.310
 2048ETHO    C215916   6.763  16.553   7.411
 2048ETHO   H2115917   6.867  16.592   7.403
 2048ETHO   H2315918   6.735  16.486   7.495
 2049ETHO    O115919   6.662  16.653   7.388
 2049ETHO    C115920   6.652  16.720   7.510
 2049ETHO   H1115921   6.752  16.759   7.540
 2049ETHO   H1315922   6.603  16.658   7.587
 2049ETHO    C215923   6.562  16.846   7.505
 2049ETHO   H2115924   6.553  16.891   7.607
 2049ETHO   H2315925   6.461  16.808   7.478
 2050ETHO    O115926   6.623  16.928   7.414
 2050ETHO    C115927   6.545  17.040   7.374
 2050ETHO   H1115928   6.453  16.999   7.327
 2050ETHO   H1315929   6.515  17.088   7.470
 2050ETHO    C215930   6.611  17.126   7.265
 2050ETHO   H2115931   6.525  17.191   7.242
 2050ETHO   H2315932   6.636  17.079   7.168
 2051ETHO    O115933   6.710  17.208   7.329
 2051ETHO    C115934   6.819  17.250   7.243
 2051ETHO   H1115935   6.869  17.156   7.210
 2051ETHO   H1315936   6.779  17.303   7.154
 2051ETHO    C215937   6.908  17.333   7.329
 2051ETHO   H2115938   6.840  17.406   7.378
 2051ETHO   H2315939   6.979  17.380   7.258
 2052ETHO    O115940   6.987  17.251   7.418
 2052ETHO    C115941   7.077  17.325   7.496
 2052ETHO   H1115942   7.155  17.366   7.428
 2052ETHO   H1315943   7.010  17.392   7.554
 2052ETHO    C215944   7.153  17.228   7.586
 2052ETHO   H2115945   7.182  17.135   7.531
 2052ETHO   H2315946   7.095  17.202   7.677
 2053ETHO    O115947   7.281  17.287   7.606
 2053ETHO    C115948   7.346  17.224   7.715
 2053ETHO   H1115949   7.429  17.294   7.740
 2053ETHO   H1315950   7.289  17.216   7.810
 2053ETHO    C215951   7.397  17.073   7.682
 2053ETHO   H2115952   7.312  17.019   7.638
 2053ETHO   H2315953   7.425  17.027   7.779
 2054ETHO    O115954   7.509  17.063   7.602
 2054ETHO    C115955   7.550  16.931   7.570
 2054ETHO   H1115956   7.464  16.875   7.528
 2054ETHO   H1315957   7.571  16.876   7.664
 2054ETHO    C215958   7.674  16.937   7.482
 2054ETHO   H2115959   7.641  17.000   7.397
 2054ETHO   H2315960   7.685  16.834   7.443
 2055ETHO    O115961   7.787  16.991   7.545
 2055ETHO    C115962   7.909  16.983   7.463
 2055ETHO   H1115963   7.886  17.028   7.363
 2055ETHO   H1315964   7.999  17.037   7.500
 2055ETHO    C215965   7.963  16.846   7.429
 2055ETHO   H2115966   8.039  16.852   7.348
 2055ETHO   H2315967   7.887  16.779   7.383
 2056ETHO    O115968   8.017  16.761   7.534
 2056ETHO    C115969   8.091  16.650   7.487
 2056ETHO   H1115970   8.184  16.689   7.440
 2056ETHO   H1315971   8.020  16.603   7.416
 2056ETHO    C215972   8.112  16.570   7.615
 2056ETHO   H2115973   8.021  16.570   7.677
 2056ETHO   H2315974   8.200  16.612   7.668
 2057ETHO    O115975   8.153  16.433   7.583
 2057ETHO    C115976   8.177  16.348   7.694
 2057ETHO   H1115977   8.224  16.405   7.776
 2057ETHO   H1315978   8.074  16.316   7.724
 2057ETHO    C215979   8.263  16.225   7.666
 2057ETHO   H2115980   8.229  16.173   7.574
 2057ETHO   H2315981   8.269  16.160   7.756
 2058ETHO    O115982   8.401  16.256   7.633
 2058ETHO    C115983   8.471  16.131   7.606
 2058ETHO   H1115984   8.415  16.088   7.520
 2058ETHO   H1315985   8.464  16.060   7.691
 2058ETHO    C215986   8.621  16.158   7.586
 2058ETHO   H2115987   8.639  16.254   7.534
 2058ETHO   H2315988   8.659  16.076   7.521
 2059ETHO    O115989   8.701  16.155   7.709
 2059ETHO    C115990   8.842  16.159   7.683
 2059ETHO   H1115991   8.872  16.072   7.621
 2059ETHO   H1315992   8.861  16.233   7.603
 2059ETHO    C215993   8.932  16.161   7.809
 2059ETHO   H2115994   9.039  16.162   7.778
 2059ETHO   H2315995   8.918  16.070   7.871
 2060ETHO    O115996   8.909  16.273   7.890
 2060ETHO    C115997   9.032  16.334   7.932
 2060ETHO   H1115998   9.094  16.361   7.844
 2060ETHO   H1315999   9.096  16.261   7.987
 2060ETHO    C216000   8.999  16.453   8.028
 2060ETHO   H2116001   8.923  16.516   7.977
 2060ETHO   H2316002   9.078  16.530   8.044
 2061ETHO    O116003   8.939  16.432   8.156
 2061ETHO    C116004   9.030  16.412   8.258
 2061ETHO   H1116005   9.126  16.466   8.250
 2061ETHO   H1316006   8.972  16.449   8.346
 2061ETHO    C216007   9.056  16.263   8.286
 2061ETHO   H2116008   8.954  16.218   8.286
 2061ETHO   H2316009   9.135  16.225   8.218
 2062ETHO    O116010   9.089  16.258   8.424
 2062ETHO    C116011   9.230  16.270   8.445
 2062ETHO   H1116012   9.257  16.373   8.411
 2062ETHO   H1316013   9.277  16.205   8.368
 2062ETHO    C216014   9.275  16.232   8.585
 2062ETHO   H2116015   9.379  16.193   8.590
 2062ETHO   H2316016   9.208  16.147   8.608
 2063ETHO    O116017   9.251  16.339   8.683
 2063ETHO    C116018   9.366  16.419   8.697
 2063ETHO   H1116019   9.420  16.374   8.783
 2063ETHO   H1316020   9.427  16.416   8.605
 2063ETHO    C216021   9.335  16.565   8.718
 2063ETHO   H2116022   9.265  16.608   8.643
 2063ETHO   H2316023   9.424  16.631   8.712
 2064ETHO    O116024   9.269  16.571   8.847
 2064ETHO    C116025   9.276  16.696   8.913
 2064ETHO   H1116026   9.201  16.765   8.870
 2064ETHO   H1316027   9.374  16.746   8.903
 2064ETHO    C216028   9.244  16.686   9.067
 2064ETHO   H2116029   9.157  16.617   9.072
 2064ETHO   H2316030   9.220  16.789   9.102
 2065ETHO    O116031   9.348  16.641   9.149
 2065ETHO    C116032   9.416  16.526   9.105
 2065ETHO   H1116033   9.366  16.448   9.043
 2065ETHO   H1316034   9.502  16.558   9.042
 2065ETHO    C216035   9.482  16.445   9.214
 2065ETHO   H2116036   9.538  16.361   9.168
 2065ETHO   H2316037   9.400  16.396   9.271
 2066ETHO    O116038   9.574  16.519   9.294
 2066ETHO    C116039   9.509  16.593   9.398
 2066ETHO   H1116040   9.402  16.605   9.373
 2066ETHO   H1316041   9.512  16.532   9.490
 2066ETHO    C216042   9.580  16.731   9.406
 2066ETHO   H2116043   9.534  16.807   9.472
 2066ETHO   H2316044   9.568  16.782   9.308
 2067ETHO    O116045   9.720  16.710   9.436
 2067ETHO    C116046   9.779  16.810   9.519
 2067ETHO   H1116047   9.770  16.905   9.462
 2067ETHO   H1316048   9.737  16.807   9.622
 2067ETHO    C216049   9.929  16.780   9.517
 2067ETHO   H2116050   9.998  16.856   9.559
 2067ETHO   H2316051   9.950  16.758   9.410
 2068ETHO    O116052   9.948  16.653   9.584
 2068ETHO    C116053  10.080  16.631   9.631
 2068ETHO   H1116054  10.144  16.653   9.544
 2068ETHO   H1316055  10.095  16.702   9.715
 2068ETHO    C216056  10.112  16.493   9.696
 2068ETHO   H2116057  10.024  16.471   9.760
 2068ETHO   H2316058  10.207  16.501   9.753
 2069ETHO    O116059  10.120  16.381   9.606
 2069ETHO    C116060  10.141  16.260   9.670
 2069ETHO   H1116061  10.046  16.238   9.723
 2069ETHO   H1316062  10.223  16.265   9.746
 2069ETHO    C216063  10.164  16.149   9.571
 2069ETHO   H2116064  10.096  16.160   9.484
 2069ETHO   H2316065  10.163  16.053   9.627
 2070ETHO    O116066  10.295  16.152   9.517
 2070ETHO    C116067  10.335  16.043   9.441
 2070ETHO   H1116068  10.257  16.022   9.364
 2070ETHO   H1316069  10.422  16.084   9.385
 2070ETHO    C216070  10.372  15.923   9.528
 2070ETHO   H2116071  10.425  15.959   9.619
 2070ETHO   H2316072  10.446  15.860   9.474
 2071ETHO    O116073  10.262  15.840   9.568
 2071ETHO    C116074  10.285  15.733   9.667
 2071ETHO   H1116075  10.272  15.761   9.774
 2071ETHO   H1316076  10.386  15.687   9.665
 2071ETHO    C216077  10.181  15.624   9.653
 2071ETHO   H2116078  10.186  15.578   9.552
 2071ETHO   H2316079  10.084  15.677   9.655
 2072ETHO    O116080  10.172  15.518   9.755
 2072ETHO    C116081  10.271  15.423   9.747
 2072ETHO   H1116082  10.283  15.381   9.645
 2072ETHO   H1316083  10.365  15.475   9.776
 2072ETHO    C216084  10.249  15.307   9.844
 2072ETHO   H2116085  10.311  15.220   9.814
 2072ETHO   H2316086  10.141  15.282   9.843
 2073ETHO    O116087  10.278  15.346   9.975
 2073ETHO    C116088  10.233  15.255  10.079
 2073ETHO   H1116089  10.319  15.203  10.127
 2073ETHO   H1316090  10.164  15.180  10.035
 2073ETHO    C216091  10.143  15.325  10.179
 2073ETHO   H2116092  10.062  15.251  10.197
 2073ETHO   H2316093  10.111  15.421  10.132
 2074ETHO    O116094  10.211  15.333  10.302
 2074ETHO    C116095  10.147  15.418  10.399
 2074ETHO   H1116096  10.217  15.476  10.464
 2074ETHO   H1316097  10.093  15.504  10.354
 2074ETHO    C216098  10.045  15.346  10.487
 2074ETHO   H2116099   9.984  15.290  10.414
 2074ETHO   H2316100   9.983  15.418  10.546
 2075ETHO    O116101  10.105  15.254  10.584
 2075ETHO    C116102  10.065  15.117  10.558
 2075ETHO   H1116103   9.956  15.122  10.541
 2075ETHO   H1316104  10.079  15.072  10.659
 2075ETHO    C216105  10.119  15.043  10.431
 2075ETHO   H2116106  10.228  15.065  10.429
 2075ETHO   H2316107  10.061  15.071  10.340
 2076ETHO    O116108  10.109  14.903  10.452
 2076ETHO    C116109  10.159  14.824  10.343
 2076ETHO   H1116110  10.262  14.854  10.316
 2076ETHO   H1316111  10.171  14.721  10.382
 2076ETHO    C216112  10.070  14.816  10.221
 2076ETHO   H2116113  10.071  14.912  10.165
 2076ETHO   H2316114   9.973  14.792  10.268
 2077ETHO    O116115  10.122  14.707  10.145
 2077ETHO    C116116  10.021  14.659  10.058
 2077ETHO   H1116117   9.938  14.621  10.121
 2077ETHO   H1316118   9.997  14.744   9.991
 2077ETHO    C216119  10.074  14.536   9.980
 2077ETHO   H2116120  10.124  14.463  10.047
 2077ETHO   H2316121  10.142  14.569   9.898
 2078ETHO    O116122   9.964  14.467   9.928
 2078ETHO    C116123   9.958  14.499   9.781
 2078ETHO   H1116124   9.946  14.609   9.770
 2078ETHO   H1316125  10.046  14.470   9.719
 2078ETHO    C216126   9.841  14.449   9.698
 2078ETHO   H2116127   9.741  14.465   9.744
 2078ETHO   H2316128   9.835  14.340   9.678
 2079ETHO    O116129   9.841  14.505   9.568
 2079ETHO    C116130   9.731  14.456   9.489
 2079ETHO   H1116131   9.729  14.346   9.505
 2079ETHO   H1316132   9.635  14.488   9.534
 2079ETHO    C216133   9.747  14.502   9.336
 2079ETHO   H2116134   9.675  14.440   9.278
 2079ETHO   H2316135   9.853  14.480   9.314
 2080ETHO    O116136   9.714  14.638   9.335
 2080ETHO    C116137   9.717  14.692   9.201
 2080ETHO   H1116138   9.661  14.618   9.140
 2080ETHO   H1316139   9.817  14.703   9.154
 2080ETHO    C216140   9.659  14.834   9.191
 2080ETHO   H2116141   9.560  14.835   9.241
 2080ETHO   H2316142   9.638  14.869   9.088
 2081ETHO    O116143   9.744  14.920   9.270
 2081ETHO    C116144   9.761  15.051   9.208
 2081ETHO   H1116145   9.820  15.038   9.115
 2081ETHO   H1316146   9.662  15.091   9.178
 2081ETHO    C216147   9.830  15.154   9.301
 2081ETHO   H2116148   9.854  15.233   9.228
 2081ETHO   H2316149   9.915  15.099   9.347
 2082ETHO    O116150   9.745  15.203   9.403
 2082ETHO    C116151   9.644  15.290   9.357
 2082ETHO   H1116152   9.570  15.233   9.296
 2082ETHO   H1316153   9.699  15.364   9.295
 2082ETHO    C216154   9.564  15.363   9.466
 2082ETHO   H2116155   9.546  15.298   9.554
 2082ETHO   H2316156   9.470  15.405   9.426
 2083ETHO    O116157   9.653  15.467   9.512
 2083ETHO    C116158   9.579  15.576   9.554
 2083ETHO   H1116159   9.483  15.539   9.594
 2083ETHO   H1316160   9.630  15.608   9.647
 2083ETHO    C216161   9.565  15.686   9.451
 2083ETHO   H2116162   9.665  15.720   9.416
 2083ETHO   H2316163   9.524  15.774   9.505
 2084ETHO    O116164   9.497  15.646   9.334
 2084ETHO    C116165   9.458  15.768   9.259
 2084ETHO   H1116166   9.551  15.824   9.238
 2084ETHO   H1316167   9.391  15.833   9.321
 2084ETHO    C216168   9.388  15.732   9.130
 2084ETHO   H2116169   9.295  15.688   9.172
 2084ETHO   H2316170   9.425  15.648   9.069
 2085ETHO    O116171   9.372  15.853   9.055
 2085ETHO    C116172   9.479  15.889   8.973
 2085ETHO   H1116173   9.476  15.999   8.953
 2085ETHO   H1316174   9.576  15.864   9.020
 2085ETHO    C216175   9.473  15.818   8.836
 2085ETHO   H2116176   9.430  15.718   8.856
 2085ETHO   H2316177   9.579  15.799   8.806
 2086ETHO    O116178   9.384  15.877   8.734
 2086ETHO    C116179   9.371  15.791   8.622
 2086ETHO   H1116180   9.307  15.708   8.660
 2086ETHO   H1316181   9.473  15.755   8.597
 2086ETHO    C216182   9.298  15.855   8.494
 2086ETHO   H2116183   9.209  15.913   8.525
 2086ETHO   H2316184   9.267  15.777   8.421
 2087ETHO    O116185   9.376  15.957   8.433
 2087ETHO    C116186   9.432  15.917   8.307
 2087ETHO   H1116187   9.520  15.854   8.334
 2087ETHO   H1316188   9.362  15.858   8.245
 2087ETHO    C216189   9.470  16.034   8.218
 2087ETHO   H2116190   9.531  15.993   8.135
 2087ETHO   H2316191   9.537  16.101   8.276
 2088ETHO    O116192   9.361  16.101   8.150
 2088ETHO    C116193   9.396  16.207   8.062
 2088ETHO   H1116194   9.469  16.172   7.986
 2088ETHO   H1316195   9.303  16.239   8.010
 2088ETHO    C216196   9.458  16.330   8.129
 2088ETHO   H2116197   9.563  16.307   8.155
 2088ETHO   H2316198   9.397  16.346   8.221
 2089ETHO    O116199   9.453  16.444   8.043
 2089ETHO    C116200   9.545  16.453   7.936
 2089ETHO   H1116201   9.547  16.365   7.868
 2089ETHO   H1316202   9.516  16.540   7.872
 2089ETHO    C216203   9.690  16.477   7.976
 2089ETHO   H2116204   9.698  16.528   8.074
 2089ETHO   H2316205   9.741  16.539   7.899
 2090ETHO    O116206   9.759  16.350   7.996
 2090ETHO    C116207   9.901  16.363   8.013
 2090ETHO   H1116208   9.931  16.440   7.938
 2090ETHO   H1316209   9.934  16.402   8.112
 2090ETHO    C216210   9.974  16.232   7.986
 2090ETHO   H2116211   9.925  16.156   8.052
 2090ETHO   H2316212  10.079  16.249   8.016
 2091ETHO    O116213   9.971  16.189   7.849
 2091ETHO    C116214  10.019  16.061   7.828
 2091ETHO   H1116215   9.961  16.024   7.741
 2091ETHO   H1316216   9.990  15.992   7.910
 2091ETHO    C216217  10.172  16.046   7.817
 2091ETHO   H2116218  10.212  16.110   7.735
 2091ETHO   H2316219  10.188  15.941   7.783
 2092ETHO    O116220  10.229  16.068   7.939
 2092ETHO    C116221  10.376  16.062   7.934
 2092ETHO   H1116222  10.422  16.106   7.844
 2092ETHO   H1316223  10.418  16.140   8.001
 2092ETHO    C216224  10.444  15.925   7.954
 2092ETHO   H2116225  10.427  15.871   8.050
 2092ETHO   H2316226  10.553  15.944   7.948
 2093ETHO    O116227  10.401  15.829   7.855
 2093ETHO    C116228  10.462  15.697   7.868
 2093ETHO   H1116229  10.403  15.635   7.939
 2093ETHO   H1316230  10.565  15.703   7.908
 2093ETHO    C216231  10.471  15.623   7.732
 2093ETHO   H2116232  10.550  15.546   7.745
 2093ETHO   H2316233  10.505  15.680   7.643
 2094ETHO    O116234  10.342  15.560   7.693
 2094ETHO    C116235  10.233  15.659   7.686
 2094ETHO   H1116236  10.187  15.679   7.785
 2094ETHO   H1316237  10.272  15.752   7.640
 2094ETHO    C216238  10.126  15.615   7.589
 2094ETHO   H2116239  10.109  15.511   7.625
 2094ETHO   H2316240  10.033  15.673   7.605
 2095ETHO    O116241  10.152  15.612   7.454
 2095ETHO    C116242  10.037  15.567   7.385
 2095ETHO   H1116243   9.987  15.493   7.451
 2095ETHO   H1316244  10.060  15.502   7.297
 2095ETHO    C216245   9.939  15.672   7.331
 2095ETHO   H2116246   9.915  15.737   7.418
 2095ETHO   H2316247   9.847  15.628   7.287
 2096ETHO    O116248   9.995  15.762   7.241
 2096ETHO    C116249   9.909  15.871   7.207
 2096ETHO   H1116250   9.816  15.826   7.165
 2096ETHO   H1316251   9.903  15.931   7.300
 2096ETHO    C216252   9.964  15.966   7.092
 2096ETHO   H2116253  10.064  15.999   7.128
 2096ETHO   H2316254   9.900  16.051   7.060
 2097ETHO    O116255   9.980  15.898   6.967
 2097ETHO    C116256  10.114  15.901   6.914
 2097ETHO   H1116257  10.184  15.862   6.991
 2097ETHO   H1316258  10.144  16.008   6.903
 2097ETHO    C216259  10.136  15.836   6.778
 2097ETHO   H2116260  10.108  15.729   6.782
 2097ETHO   H2316261  10.242  15.846   6.745
 2098ETHO    O116262  10.056  15.904   6.679
 2098ETHO    C116263  10.116  15.899   6.553
 2098ETHO   H1116264  10.221  15.936   6.554
 2098ETHO   H1316265  10.111  15.795   6.513
 2098ETHO    C216266  10.051  15.991   6.441
 2098ETHO   H2116267   9.949  15.953   6.417
 2098ETHO   H2316268  10.118  15.978   6.353
 2099ETHO    O116269  10.057  16.130   6.472
 2099ETHO    C116270   9.998  16.202   6.366
 2099ETHO   H1116271   9.949  16.295   6.403
 2099ETHO   H1316272   9.919  16.150   6.308
 2099ETHO    C216273  10.098  16.264   6.269
 2099ETHO   H2116274  10.148  16.177   6.220
 2099ETHO   H2316275  10.172  16.334   6.314
 2100ETHO    O116276  10.034  16.339   6.167
 2100ETHO    C116277  10.114  16.384   6.055
 2100ETHO   H1116278  10.143  16.486   6.090
 2100ETHO   H1316279  10.202  16.317   6.046
 2100ETHO    C216280  10.034  16.382   5.929
 2100ETHO   H2116281   9.988  16.284   5.910
 2100ETHO   H2316282  10.108  16.384   5.846
 2101ETHO    O116283   9.948  16.500   5.919
 2101ETHO    C116284   9.868  16.488   5.802
 2101ETHO   H1116285   9.795  16.407   5.825
 2101ETHO   H1316286   9.923  16.444   5.716
 2101ETHO    C216287   9.802  16.625   5.774
 2101ETHO   H2116288   9.776  16.626   5.666
 2101ETHO   H2316289   9.877  16.707   5.787
 2102ETHO    O116290   9.694  16.653   5.859
 2102ETHO    C116291   9.583  16.569   5.831
 2102ETHO   H1116292   9.605  16.496   5.749
 2102ETHO   H1316293   9.541  16.527   5.924
 2102ETHO    C216294   9.476  16.665   5.784
 2102ETHO   H2116295   9.384  16.609   5.758
 2102ETHO   H2316296   9.454  16.725   5.875
 2103ETHO    O116297   9.514  16.742   5.670
 2103ETHO    C116298   9.400  16.807   5.607
 2103ETHO   H1116299   9.319  16.734   5.583
 2103ETHO   H1316300   9.353  16.897   5.653
 2103ETHO    C216301   9.450  16.844   5.468
 2103ETHO   H2116302   9.351  16.867   5.424
 2103ETHO   H2316303   9.489  16.761   5.405
 2104ETHO    O116304   9.523  16.971   5.456
 2104ETHO    C116305   9.542  16.998   5.316
 2104ETHO   H1116306   9.583  16.909   5.263
 2104ETHO   H1316307   9.441  17.017   5.275
 2104ETHO    C216308   9.631  17.121   5.293
 2104ETHO   H2116309   9.665  17.135   5.188
 2104ETHO   H2316310   9.725  17.120   5.352
 2105ETHO    O116311   9.561  17.242   5.322
 2105ETHO    C116312   9.649  17.360   5.316
 2105ETHO   H1116313   9.610  17.441   5.382
 2105ETHO   H1316314   9.750  17.326   5.347
 2105ETHO    C216315   9.655  17.436   5.175
 2105ETHO   H2116316   9.691  17.361   5.103
 2105ETHO   H2316317   9.721  17.524   5.186
 2106ETHO    O116318   9.529  17.480   5.126
 2106ETHO    C116319   9.481  17.397   5.027
 2106ETHO   H1116320   9.455  17.302   5.077
 2106ETHO   H1316321   9.555  17.374   4.947
 2106ETHO    C216322   9.349  17.446   4.971
 2106ETHO   H2116323   9.285  17.460   5.061
 2106ETHO   H2316324   9.299  17.372   4.905
 2107ETHO    O116325   9.349  17.564   4.891
 2107ETHO    C116326   9.216  17.614   4.881
 2107ETHO   H1116327   9.159  17.531   4.835
 2107ETHO   H1316328   9.169  17.637   4.979
 2107ETHO    C216329   9.209  17.740   4.792
 2107ETHO   H2116330   9.103  17.767   4.771
 2107ETHO   H2316331   9.264  17.706   4.701
 2108ETHO    O116332   9.274  17.855   4.849
 2108ETHO    C116333   9.196  17.977   4.845
 2108ETHO   H1116334   9.146  17.981   4.745
 2108ETHO   H1316335   9.265  18.064   4.844
 2108ETHO    C216336   9.091  17.989   4.949
 2108ETHO   H2116337   9.064  18.096   4.955
 2108ETHO   H2316338   9.133  17.974   5.051
 2109ETHO    O116339   8.972  17.912   4.930
 2109ETHO    C116340   8.946  17.836   5.042
 2109ETHO   H1116341   9.034  17.790   5.091
 2109ETHO   H1316342   8.898  17.902   5.118
 2109ETHO    C216343   8.850  17.714   5.004
 2109ETHO   H2116344   8.880  17.668   4.907
 2109ETHO   H2316345   8.749  17.749   4.974
 2110ETHO    O116346   8.834  17.627   5.115
 2110ETHO    C116347   8.727  17.535   5.099
 2110ETHO   H1116348   8.743  17.467   5.013
 2110ETHO   H1316349   8.629  17.585   5.115
 2110ETHO    C216350   8.727  17.449   5.229
 2110ETHO   H2116351   8.826  17.398   5.227
 2110ETHO   H2316352   8.642  17.378   5.219
 2111ETHO    O116353   8.721  17.537   5.342
 2111ETHO    C116354   8.688  17.468   5.458
 2111ETHO   H1116355   8.587  17.429   5.430
 2111ETHO   H1316356   8.758  17.383   5.470
 2111ETHO    C216357   8.691  17.543   5.588
 2111ETHO   H2116358   8.612  17.512   5.660
 2111ETHO   H2316359   8.651  17.646   5.572
 2112ETHO    O116360   8.824  17.542   5.635
 2112ETHO    C116361   8.831  17.639   5.742
 2112ETHO   H1116362   8.752  17.621   5.817
 2112ETHO   H1316363   8.823  17.744   5.706
 2112ETHO    C216364   8.961  17.636   5.829
 2112ETHO   H2116365   8.952  17.703   5.916
 2112ETHO   H2316366   9.051  17.653   5.766
 2113ETHO    O116367   8.972  17.509   5.892
 2113ETHO    C116368   9.109  17.487   5.932
 2113ETHO   H1116369   9.184  17.499   5.850
 2113ETHO   H1316370   9.131  17.561   6.011
 2113ETHO    C216371   9.118  17.341   5.982
 2113ETHO   H2116372   9.040  17.331   6.060
 2113ETHO   H2316373   9.215  17.316   6.029
 2114ETHO    O116374   9.083  17.250   5.873
 2114ETHO    C116375   9.082  17.114   5.916
 2114ETHO   H1116376   9.077  17.096   6.025
 2114ETHO   H1316377   9.001  17.064   5.858
 2114ETHO    C216378   9.215  17.060   5.865
 2114ETHO   H2116379   9.234  17.087   5.758
 2114ETHO   H2316380   9.214  16.949   5.863
 2115ETHO    O116381   9.322  17.097   5.952
 2115ETHO    C116382   9.350  16.995   6.055
 2115ETHO   H1116383   9.249  16.991   6.100
 2115ETHO   H1316384   9.359  16.895   6.007
 2115ETHO    C216385   9.455  17.037   6.160
 2115ETHO   H2116386   9.414  17.002   6.256
 2115ETHO   H2316387   9.478  17.145   6.167
 2116ETHO    O116388   9.575  16.971   6.135
 2116ETHO    C116389   9.652  17.032   6.033
 2116ETHO   H1116390   9.604  17.038   5.933
 2116ETHO   H1316391   9.690  17.129   6.072
 2116ETHO    C216392   9.782  16.953   6.027
 2116ETHO   H2116393   9.757  16.851   5.991
 2116ETHO   H2316394   9.820  16.944   6.131
 2117ETHO    O116395   9.887  17.005   5.949
 2117ETHO    C116396  10.006  16.922   5.951
 2117ETHO   H1116397   9.972  16.817   5.943
 2117ETHO   H1316398  10.055  16.934   6.049
 2117ETHO    C216399  10.114  16.965   5.846
 2117ETHO   H2116400  10.199  16.893   5.856
 2117ETHO   H2316401  10.141  17.069   5.874
 2118ETHO    O116402  10.043  16.959   5.718
 2118ETHO    C116403  10.113  17.025   5.613
 2118ETHO   H1116404  10.212  16.978   5.594
 2118ETHO   H1316405  10.128  17.133   5.638
 2118ETHO    C216406  10.039  17.039   5.479
 2118ETHO   H2116407  10.104  17.086   5.402
 2118ETHO   H2316408   9.936  17.077   5.495
 2119ETHO    O116409  10.031  16.898   5.448
 2119ETHO    C116410   9.947  16.868   5.343
 2119ETHO   H1116411   9.980  16.928   5.255
 2119ETHO   H1316412   9.844  16.896   5.372
 2119ETHO    C216413   9.941  16.714   5.309
 2119ETHO   H2116414  10.049  16.688   5.301
 2119ETHO   H2316415   9.890  16.701   5.211
 2120ETHO    O116416   9.876  16.657   5.422
 2120ETHO    C116417   9.834  16.523   5.407
 2120ETHO   H1116418   9.911  16.453   5.367
 2120ETHO   H1316419   9.811  16.480   5.506
 2120ETHO    C216420   9.697  16.502   5.327
 2120ETHO   H2116421   9.628  16.584   5.359
 2120ETHO   H2316422   9.645  16.408   5.355
 2120ETHO    OZ16423   9.711  16.505   5.184
 2120ETHO   HZ116424   9.621  16.496   5.150
 2121ETHO    O116425  18.955  19.208  13.061
 2121ETHO   HO116426  19.030  19.157  13.029
 2121ETHO    C116427  18.877  19.173  12.949
 2121ETHO   H1116428  18.929  19.214  12.860
 2121ETHO   H1316429  18.776  19.218  12.960
 2121ETHO    C216430  18.866  19.017  12.937
 2121ETHO   H2116431  18.797  18.996  12.852
 2121ETHO   H2316432  18.819  18.978  13.030
 2122ETHO    O116433  18.978  18.957  12.909
 2122ETHO    C116434  18.965  18.815  12.922
 2122ETHO   H1116435  18.920  18.793  13.021
 2122ETHO   H1316436  18.899  18.791  12.836
 2122ETHO    C216437  19.099  18.741  12.902
 2122ETHO   H2116438  19.159  18.771  12.814
 2122ETHO   H2316439  19.077  18.632  12.898
 2123ETHO    O116440  19.174  18.763  13.023
 2123ETHO    C116441  19.297  18.691  13.032
 2123ETHO   H1116442  19.355  18.717  12.940
 2123ETHO   H1316443  19.278  18.582  13.020
 2123ETHO    C216444  19.371  18.720  13.159
 2123ETHO   H2116445  19.375  18.830  13.173
 2123ETHO   H2316446  19.475  18.682  13.154
 2124ETHO    O116447  19.307  18.662  13.275
 2124ETHO    C116448  19.403  18.640  13.382
 2124ETHO   H1116449  19.459  18.546  13.360
 2124ETHO   H1316450  19.467  18.729  13.367
 2124ETHO    C216451  19.348  18.614  13.521
 2124ETHO   H2116452  19.300  18.713  13.528
 2124ETHO   H2316453  19.439  18.611  13.585
 2125ETHO    O116454  19.250  18.514  13.537
 2125ETHO    C116455  19.197  18.520  13.668
 2125ETHO   H1116456  19.288  18.503  13.728
 2125ETHO   H1316457  19.158  18.620  13.698
 2125ETHO    C216458  19.096  18.407  13.689
 2125ETHO   H2116459  19.087  18.400  13.800
 2125ETHO   H2316460  19.139  18.307  13.668
 2126ETHO    O116461  18.971  18.418  13.620
 2126ETHO    C116462  18.888  18.295  13.612
 2126ETHO   H1116463  18.935  18.221  13.543
 2126ETHO   H1316464  18.875  18.249  13.712
 2126ETHO    C216465  18.755  18.340  13.563
 2126ETHO   H2116466  18.752  18.428  13.495
 2126ETHO   H2316467  18.689  18.359  13.650
 2127ETHO    O116468  18.689  18.228  13.502
 2127ETHO    C116469  18.578  18.267  13.418
 2127ETHO   H1116470  18.537  18.356  13.471
 2127ETHO   H1316471  18.622  18.287  13.319
 2127ETHO    C216472  18.462  18.159  13.422
 2127ETHO   H2116473  18.363  18.208  13.420
 2127ETHO   H2316474  18.466  18.105  13.519
 2128ETHO    O116475  18.478  18.067  13.322
 2128ETHO    C116476  18.435  18.113  13.193
 2128ETHO   H1116477  18.503  18.192  13.154
 2128ETHO   H1316478  18.337  18.166  13.200
 2128ETHO    C216479  18.424  17.988  13.098
 2128ETHO   H2116480  18.529  17.952  13.107
 2128ETHO   H2316481  18.398  18.014  12.994
 2129ETHO    O116482  18.322  17.898  13.128
 2129ETHO    C116483  18.367  17.760  13.113
 2129ETHO   H1116484  18.443  17.744  13.034
 2129ETHO   H1316485  18.415  17.730  13.209
 2129ETHO    C216486  18.251  17.669  13.069
 2129ETHO   H2116487  18.210  17.686  12.967
 2129ETHO   H2316488  18.177  17.695  13.147
 2130ETHO    O116489  18.271  17.528  13.070
 2130ETHO    C116490  18.154  17.447  13.051
 2130ETHO   H1116491  18.060  17.502  13.072
 2130ETHO   H1316492  18.147  17.365  13.126
 2130ETHO    C216493  18.131  17.386  12.904
 2130ETHO   H2116494  18.041  17.322  12.895
 2130ETHO   H2316495  18.219  17.321  12.886
 2131ETHO    O116496  18.105  17.492  12.814
 2131ETHO    C116497  18.128  17.458  12.679
 2131ETHO   H1116498  18.226  17.404  12.681
 2131ETHO   H1316499  18.051  17.387  12.642
 2131ETHO    C216500  18.145  17.587  12.590
 2131ETHO   H2116501  18.230  17.648  12.628
 2131ETHO   H2316502  18.163  17.555  12.485
 2132ETHO    O116503  18.022  17.665  12.601
 2132ETHO    C116504  17.992  17.737  12.477
 2132ETHO   H1116505  17.934  17.671  12.409
 2132ETHO   H1316506  18.092  17.753  12.431
 2132ETHO    C216507  17.909  17.852  12.526
 2132ETHO   H2116508  17.845  17.813  12.607
 2132ETHO   H2316509  17.848  17.895  12.444
 2133ETHO    O116510  17.982  17.967  12.578
 2133ETHO    C116511  17.907  18.088  12.592
 2133ETHO   H1116512  17.847  18.117  12.503
 2133ETHO   H1316513  17.828  18.066  12.667
 2133ETHO    C216514  17.995  18.196  12.643
 2133ETHO   H2116515  18.053  18.152  12.727
 2133ETHO   H2316516  17.932  18.276  12.687
 2134ETHO    O116517  18.091  18.250  12.549
 2134ETHO    C116518  18.178  18.340  12.598
 2134ETHO   H1116519  18.272  18.346  12.539
 2134ETHO   H1316520  18.212  18.309  12.699
 2134ETHO    C216521  18.116  18.482  12.600
 2134ETHO   H2116522  18.068  18.505  12.502
 2134ETHO   H2316523  18.189  18.565  12.611
 2135ETHO    O116524  18.024  18.510  12.705
 2135ETHO    C116525  18.093  18.536  12.824
 2135ETHO   H1116526  18.147  18.443  12.850
 2135ETHO   H1316527  18.159  18.623  12.801
 2135ETHO    C216528  17.999  18.564  12.938
 2135ETHO   H2116529  17.932  18.476  12.952
 2135ETHO   H2316530  18.055  18.578  13.033
 2136ETHO    O116531  17.917  18.676  12.921
 2136ETHO    C116532  17.834  18.704  13.034
 2136ETHO   H1116533  17.898  18.704  13.125
 2136ETHO   H1316534  17.807  18.812  13.043
 2136ETHO    C216535  17.714  18.610  13.033
 2136ETHO   H2116536  17.656  18.605  12.939
 2136ETHO   H2316537  17.637  18.662  13.094
 2137ETHO    O116538  17.735  18.480  13.077
 2137ETHO    C116539  17.614  18.397  13.069
 2137ETHO   H1116540  17.534  18.432  13.137
 2137ETHO   H1316541  17.576  18.404  12.964
 2137ETHO    C216542  17.632  18.244  13.096
 2137ETHO   H2116543  17.529  18.204  13.081
 2137ETHO   H2316544  17.670  18.231  13.199
 2138ETHO    O116545  17.722  18.185  12.998
 2138ETHO    C116546  17.854  18.175  13.050
 2138ETHO   H1116547  17.925  18.182  12.965
 2138ETHO   H1316548  17.880  18.262  13.116
 2138ETHO    C216549  17.877  18.049  13.131
 2138ETHO   H2116550  17.986  18.048  13.153
 2138ETHO   H2316551  17.841  17.962  13.071
 2139ETHO    O116552  17.807  18.055  13.256
 2139ETHO    C116553  17.753  17.932  13.302
 2139ETHO   H1116554  17.769  17.917  13.411
 2139ETHO   H1316555  17.786  17.840  13.249
 2139ETHO    C216556  17.595  17.923  13.297
 2139ETHO   H2116557  17.559  17.819  13.307
 2139ETHO   H2316558  17.566  17.959  13.196
 2140ETHO    O116559  17.544  18.007  13.403
 2140ETHO    C116560  17.403  18.006  13.409
 2140ETHO   H1116561  17.355  18.044  13.316
 2140ETHO   H1316562  17.383  17.897  13.420
 2140ETHO    C216563  17.342  18.074  13.532
 2140ETHO   H2116564  17.402  18.051  13.623
 2140ETHO   H2316565  17.248  18.022  13.559
 2141ETHO    O116566  17.309  18.222  13.532
 2141ETHO    C116567  17.428  18.296  13.496
 2141ETHO   H1116568  17.446  18.284  13.387
 2141ETHO   H1316569  17.510  18.257  13.559
 2141ETHO    C216570  17.412  18.440  13.538
 2141ETHO   H2116571  17.381  18.438  13.644
 2141ETHO   H2316572  17.340  18.491  13.471
 2142ETHO    O116573  17.536  18.513  13.546
 2142ETHO    C116574  17.618  18.492  13.426
 2142ETHO   H1116575  17.658  18.389  13.416
 2142ETHO   H1316576  17.547  18.511  13.342
 2142ETHO    C216577  17.733  18.598  13.422
 2142ETHO   H2116578  17.758  18.611  13.314
 2142ETHO   H2316579  17.702  18.692  13.471
 2143ETHO    O116580  17.839  18.541  13.499
 2143ETHO    C116581  17.968  18.597  13.463
 2143ETHO   H1116582  17.965  18.702  13.497
 2143ETHO   H1316583  18.000  18.598  13.356
 2143ETHO    C216584  18.083  18.521  13.528
 2143ETHO   H2116585  18.052  18.505  13.634
 2143ETHO   H2316586  18.183  18.567  13.542
 2144ETHO    O116587  18.115  18.396  13.462
 2144ETHO    C116588  18.037  18.290  13.519
 2144ETHO   H1116589  18.053  18.279  13.628
 2144ETHO   H1316590  17.931  18.319  13.502
 2144ETHO    C216591  18.059  18.156  13.455
 2144ETHO   H2116592  18.082  18.167  13.347
 2144ETHO   H2316593  17.965  18.105  13.486
 2145ETHO    O116594  18.167  18.077  13.514
 2145ETHO    C116595  18.172  17.942  13.465
 2145ETHO   H1116596  18.173  17.949  13.354
 2145ETHO   H1316597  18.074  17.896  13.489
 2145ETHO    C216598  18.278  17.851  13.521
 2145ETHO   H2116599  18.370  17.912  13.533
 2145ETHO   H2316600  18.286  17.760  13.458
 2146ETHO    O116601  18.251  17.808  13.656
 2146ETHO    C116602  18.286  17.673  13.679
 2146ETHO   H1116603  18.212  17.613  13.623
 2146ETHO   H1316604  18.382  17.652  13.627
 2146ETHO    C216605  18.283  17.637  13.823
 2146ETHO   H2116606  18.301  17.528  13.828
 2146ETHO   H2316607  18.193  17.670  13.880
 2147ETHO    O116608  18.397  17.691  13.886
 2147ETHO    C116609  18.520  17.623  13.880
 2147ETHO   H1116610  18.602  17.681  13.928
 2147ETHO   H1316611  18.544  17.602  13.773
 2147ETHO    C216612  18.522  17.489  13.960
 2147ETHO   H2116613  18.470  17.508  14.056
 2147ETHO   H2316614  18.625  17.457  13.988
 2148ETHO    O116615  18.454  17.381  13.903
 2148ETHO    C116616  18.419  17.291  14.007
 2148ETHO   H1116617  18.515  17.253  14.048
 2148ETHO   H1316618  18.363  17.344  14.086
 2148ETHO    C216619  18.329  17.176  13.968
 2148ETHO   H2116620  18.280  17.210  13.875
 2148ETHO   H2316621  18.256  17.151  14.048
 2149ETHO    O116622  18.408  17.068  13.929
 2149ETHO    C116623  18.358  16.987  13.833
 2149ETHO   H1116624  18.346  17.041  13.737
 2149ETHO   H1316625  18.275  16.924  13.872
 2149ETHO    C216626  18.463  16.886  13.783
 2149ETHO   H2116627  18.409  16.833  13.701
 2149ETHO   H2316628  18.507  16.824  13.865
 2150ETHO    O116629  18.567  16.965  13.735
 2150ETHO    C116630  18.690  16.894  13.715
 2150ETHO   H1116631  18.725  16.853  13.812
 2150ETHO   H1316632  18.659  16.808  13.653
 2150ETHO    C216633  18.816  16.958  13.658
 2150ETHO   H2116634  18.780  16.993  13.559
 2150ETHO   H2316635  18.901  16.888  13.645
 2151ETHO    O116636  18.868  17.066  13.735
 2151ETHO    C116637  18.972  17.134  13.663
 2151ETHO   H1116638  19.062  17.075  13.690
 2151ETHO   H1316639  18.956  17.134  13.553
 2151ETHO    C216640  18.997  17.278  13.721
 2151ETHO   H2116641  19.095  17.313  13.682
 2151ETHO   H2316642  18.995  17.269  13.832
 2152ETHO    O116643  18.910  17.371  13.674
 2152ETHO    C116644  18.917  17.485  13.761
 2152ETHO   H1116645  18.830  17.465  13.826
 2152ETHO   H1316646  19.012  17.487  13.818
 2152ETHO    C216647  18.910  17.600  13.667
 2152ETHO   H2116648  18.865  17.683  13.725
 2152ETHO   H2316649  18.836  17.587  13.585
 2153ETHO    O116650  19.031  17.639  13.611
 2153ETHO    C116651  19.027  17.772  13.563
 2153ETHO   H1116652  18.944  17.784  13.491
 2153ETHO   H1316653  18.998  17.841  13.646
 2153ETHO    C216654  19.160  17.812  13.499
 2153ETHO   H2116655  19.141  17.900  13.434
 2153ETHO   H2316656  19.198  17.728  13.436
 2154ETHO    O116657  19.255  17.845  13.602
 2154ETHO    C116658  19.380  17.763  13.586
 2154ETHO   H1116659  19.407  17.763  13.478
 2154ETHO   H1316660  19.364  17.657  13.615
 2154ETHO    C216661  19.495  17.813  13.669
 2154ETHO   H2116662  19.509  17.923  13.657
 2154ETHO   H2316663  19.590  17.763  13.640
 2155ETHO    O116664  19.476  17.783  13.806
 2155ETHO    C116665  19.572  17.847  13.880
 2155ETHO   H1116666  19.668  17.856  13.825
 2155ETHO   H1316667  19.538  17.949  13.909
 2155ETHO    C216668  19.599  17.785  14.014
 2155ETHO   H2116669  19.504  17.783  14.071
 2155ETHO   H2316670  19.682  17.840  14.064
 2156ETHO    O116671  19.643  17.649  13.989
 2156ETHO    C116672  19.657  17.582  14.119
 2156ETHO   H1116673  19.562  17.599  14.173
 2156ETHO   H1316674  19.742  17.630  14.173
 2156ETHO    C216675  19.686  17.426  14.120
 2156ETHO   H2116676  19.719  17.397  14.222
 2156ETHO   H2316677  19.769  17.397  14.053
 2157ETHO    O116678  19.582  17.334  14.085
 2157ETHO    C116679  19.622  17.192  14.097
 2157ETHO   H1116680  19.720  17.169  14.050
 2157ETHO   H1316681  19.624  17.173  14.207
 2157ETHO    C216682  19.506  17.094  14.044
 2157ETHO   H2116683  19.414  17.144  14.081
 2157ETHO   H2316684  19.513  16.992  14.089
 2158ETHO    O116685  19.512  17.078  13.902
 2158ETHO    C116686  19.392  17.022  13.860
 2158ETHO   H1116687  19.306  17.089  13.884
 2158ETHO   H1316688  19.369  16.928  13.914
 2158ETHO    C216689  19.392  16.994  13.714
 2158ETHO   H2116690  19.310  16.921  13.700
 2158ETHO   H2316691  19.493  16.958  13.686
 2159ETHO    O116692  19.365  17.105  13.624
 2159ETHO    C116693  19.472  17.188  13.597
 2159ETHO   H1116694  19.520  17.218  13.692
 2159ETHO   H1316695  19.552  17.142  13.535
 2159ETHO    C216696  19.429  17.322  13.531
 2159ETHO   H2116697  19.513  17.394  13.528
 2159ETHO   H2316698  19.358  17.367  13.604
 2160ETHO    O116699  19.370  17.313  13.403
 2160ETHO    C116700  19.323  17.447  13.361
 2160ETHO   H1116701  19.279  17.500  13.448
 2160ETHO   H1316702  19.235  17.431  13.295
 2160ETHO    C216703  19.421  17.537  13.279
 2160ETHO   H2116704  19.354  17.616  13.239
 2160ETHO   H2316705  19.473  17.473  13.205
 2161ETHO    O116706  19.520  17.599  13.355
 2161ETHO    C116707  19.658  17.555  13.336
 2161ETHO   H1116708  19.666  17.446  13.356
 2161ETHO   H1316709  19.681  17.560  13.227
 2161ETHO    C216710  19.760  17.643  13.407
 2161ETHO   H2116711  19.865  17.617  13.381
 2161ETHO   H2316712  19.758  17.641  13.518
 2162ETHO    O116713  19.747  17.778  13.362
 2162ETHO    C116714  19.832  17.862  13.443
 2162ETHO   H1116715  19.801  17.859  13.550
 2162ETHO   H1316716  19.934  17.819  13.432
 2162ETHO    C216717  19.828  18.003  13.386
 2162ETHO   H2116718  19.852  18.013  13.278
 2162ETHO   H2316719  19.908  18.062  13.435
 2163ETHO    O116720  19.710  18.078  13.423
 2163ETHO    C116721  19.586  18.056  13.363
 2163ETHO   H1116722  19.592  18.053  13.252
 2163ETHO   H1316723  19.557  17.953  13.395
 2163ETHO    C216724  19.481  18.145  13.430
 2163ETHO   H2116725  19.514  18.250  13.416
 2163ETHO   H2316726  19.473  18.116  13.537
 2164ETHO    O116727  19.362  18.124  13.360
 2164ETHO    C116728  19.253  18.193  13.419
 2164ETHO   H1116729  19.211  18.134  13.503
 2164ETHO   H1316730  19.287  18.290  13.461
 2164ETHO    C216731  19.140  18.225  13.322
 2164ETHO   H2116732  19.174  18.255  13.221
 2164ETHO   H2316733  19.074  18.306  13.359
 2165ETHO    O116734  19.060  18.112  13.301
 2165ETHO    C116735  18.938  18.151  13.226
 2165ETHO   H1116736  18.967  18.194  13.128
 2165ETHO   H1316737  18.880  18.221  13.290
 2165ETHO    C216738  18.859  18.021  13.221
 2165ETHO   H2116739  18.756  18.037  13.180
 2165ETHO   H2316740  18.846  17.997  13.329
 2166ETHO    O116741  18.924  17.919  13.144
 2166ETHO    C116742  18.854  17.799  13.143
 2166ETHO   H1116743  18.831  17.772  13.248
 2166ETHO   H1316744  18.758  17.821  13.092
 2166ETHO    C216745  18.942  17.684  13.084
 2166ETHO   H2116746  18.897  17.590  13.121
 2166ETHO   H2316747  19.043  17.688  13.131
 2167ETHO    O116748  18.946  17.680  12.944
 2167ETHO    C116749  19.001  17.554  12.900
 2167ETHO   H1116750  18.934  17.473  12.934
 2167ETHO   H1316751  19.096  17.533  12.954
 2167ETHO    C216752  19.023  17.542  12.746
 2167ETHO   H2116753  18.928  17.552  12.689
 2167ETHO   H2316754  19.055  17.435  12.740
 2168ETHO    O116755  19.120  17.626  12.687
 2168ETHO    C116756  19.161  17.597  12.551
 2168ETHO   H1116757  19.149  17.488  12.535
 2168ETHO   H1316758  19.113  17.659  12.472
 2168ETHO    C216759  19.320  17.618  12.543
 2168ETHO   H2116760  19.355  17.613  12.438
 2168ETHO   H2316761  19.341  17.718  12.587
 2169ETHO    O116762  19.392  17.509  12.596
 2169ETHO    C116763  19.414  17.514  12.739
 2169ETHO   H1116764  19.354  17.595  12.785
 2169ETHO   H1316765  19.522  17.540  12.751
 2169ETHO    C216766  19.373  17.387  12.821
 2169ETHO   H2116767  19.280  17.350  12.774
 2169ETHO   H2316768  19.355  17.404  12.929
 2170ETHO    O116769  19.476  17.292  12.815
 2170ETHO    C116770  19.440  17.170  12.876
 2170ETHO   H1116771  19.334  17.157  12.846
 2170ETHO   H1316772  19.504  17.094  12.825
 2170ETHO    C216773  19.453  17.159  13.022
 2170ETHO   H2116774  19.405  17.064  13.052
 2170ETHO   H2316775  19.412  17.248  13.076
 2171ETHO    O116776  19.592  17.148  13.048
 2171ETHO    C116777  19.619  17.142  13.185
 2171ETHO   H1116778  19.570  17.057  13.237
 2171ETHO   H1316779  19.596  17.240  13.231
 2171ETHO    C216780  19.769  17.121  13.205
 2171ETHO   H2116781  19.820  17.200  13.146
 2171ETHO   H2316782  19.805  17.024  13.164
 2172ETHO    O116783  19.780  17.134  13.348
 2172ETHO    C116784  19.920  17.128  13.398
 2172ETHO   H1116785  19.945  17.023  13.374
 2172ETHO   H1316786  19.988  17.199  13.347
 2172ETHO    C216787  19.914  17.155  13.541
 2172ETHO   H2116788  20.009  17.126  13.592
 2172ETHO   H2316789  19.823  17.104  13.580
 2173ETHO    O116790  19.887  17.293  13.560
 2173ETHO    C116791  19.882  17.319  13.698
 2173ETHO   H1116792  19.796  17.272  13.749
 2173ETHO   H1316793  19.973  17.282  13.750
 2173ETHO    C216794  19.863  17.466  13.734
 2173ETHO   H2116795  19.834  17.475  13.841
 2173ETHO   H2316796  19.781  17.509  13.672
 2174ETHO    O116797  19.982  17.543  13.716
 2174ETHO    C116798  19.964  17.683  13.756
 2174ETHO   H1116799  20.040  17.739  13.699
 2174ETHO   H1316800  19.864  17.719  13.722
 2174ETHO    C216801  19.997  17.709  13.905
 2174ETHO   H2116802  19.933  17.650  13.974
 2174ETHO   H2316803  19.964  17.813  13.927
 2175ETHO    O116804  20.133  17.688  13.954
 2175ETHO    C116805  20.154  17.744  14.085
 2175ETHO   H1116806  20.143  17.854  14.088
 2175ETHO   H1316807  20.066  17.705  14.142
 2175ETHO    C216808  20.280  17.687  14.154
 2175ETHO   H2116809  20.258  17.648  14.256
 2175ETHO   H2316810  20.321  17.604  14.092
 2176ETHO    O116811  20.379  17.780  14.155
 2176ETHO    C116812  20.476  17.748  14.256
 2176ETHO   H1116813  20.505  17.643  14.235
 2176ETHO   H1316814  20.434  17.750  14.359
 2176ETHO    C216815  20.585  17.849  14.236
 2176ETHO   H2116816  20.656  17.834  14.320
 2176ETHO   H2316817  20.532  17.946  14.245
 2177ETHO    O116818  20.657  17.852  14.115
 2177ETHO    C116819  20.743  17.967  14.107
 2177ETHO   H1116820  20.687  18.057  14.139
 2177ETHO   H1316821  20.825  17.964  14.182
 2177ETHO    C216822  20.777  18.002  13.959
 2177ETHO   H2116823  20.817  18.106  13.956
 2177ETHO   H2316824  20.674  18.003  13.918
 2178ETHO    O116825  20.851  17.898  13.899
 2178ETHO    C116826  20.864  17.915  13.758
 2178ETHO   H1116827  20.947  17.866  13.703
 2178ETHO   H1316828  20.877  18.024  13.743
 2178ETHO    C216829  20.737  17.869  13.691
 2178ETHO   H2116830  20.730  17.911  13.588
 2178ETHO   H2316831  20.648  17.921  13.733
 2179ETHO    O116832  20.739  17.727  13.697
 2179ETHO    C116833  20.643  17.674  13.598
 2179ETHO   H1116834  20.656  17.734  13.505
 2179ETHO   H1316835  20.669  17.567  13.584
 2179ETHO    C216836  20.499  17.675  13.657
 2179ETHO   H2116837  20.498  17.655  13.766
 2179ETHO   H2316838  20.448  17.592  13.605
 2180ETHO    O116839  20.434  17.801  13.617
 2180ETHO    C116840  20.313  17.826  13.695
 2180ETHO   H1116841  20.267  17.728  13.722
 2180ETHO   H1316842  20.243  17.886  13.633
 2180ETHO    C216843  20.325  17.912  13.825
 2180ETHO   H2116844  20.387  17.854  13.896
 2180ETHO   H2316845  20.220  17.929  13.859
 2181ETHO    O116846  20.375  18.042  13.791
 2181ETHO    C116847  20.413  18.116  13.901
 2181ETHO   H1116848  20.328  18.150  13.964
 2181ETHO   H1316849  20.477  18.053  13.967
 2181ETHO    C216850  20.492  18.245  13.861
 2181ETHO   H2116851  20.505  18.314  13.947
 2181ETHO   H2316852  20.420  18.307  13.802
 2182ETHO    O116853  20.610  18.217  13.785
 2182ETHO    C116854  20.664  18.344  13.753
 2182ETHO   H1116855  20.644  18.416  13.836
 2182ETHO   H1316856  20.622  18.371  13.654
 2182ETHO    C216857  20.812  18.342  13.743
 2182ETHO   H2116858  20.856  18.432  13.696
 2182ETHO   H2316859  20.827  18.257  13.674
 2183ETHO    O116860  20.883  18.332  13.868
 2183ETHO    C116861  21.023  18.324  13.863
 2183ETHO   H1116862  21.048  18.236  13.799
 2183ETHO   H1316863  21.062  18.407  13.800
 2183ETHO    C216864  21.091  18.301  13.996
 2183ETHO   H2116865  21.190  18.251  13.984
 2183ETHO   H2316866  21.021  18.236  14.052
 2184ETHO    O116867  21.105  18.432  14.051
 2184ETHO    C116868  21.163  18.428  14.183
 2184ETHO   H1116869  21.251  18.360  14.190
 2184ETHO   H1316870  21.083  18.383  14.246
 2184ETHO    C216871  21.194  18.571  14.240
 2184ETHO   H2116872  21.263  18.628  14.175
 2184ETHO   H2316873  21.234  18.545  14.340
 2185ETHO    O116874  21.073  18.651  14.252
 2185ETHO    C116875  21.087  18.767  14.319
 2185ETHO   H1116876  21.185  18.817  14.310
 2185ETHO   H1316877  21.019  18.841  14.271
 2185ETHO    C216878  21.045  18.751  14.470
 2185ETHO   H2116879  20.969  18.671  14.476
 2185ETHO   H2316880  21.005  18.851  14.500
 2186ETHO    O116881  21.154  18.724  14.562
 2186ETHO    C116882  21.115  18.743  14.697
 2186ETHO   H1116883  21.033  18.668  14.707
 2186ETHO   H1316884  21.078  18.844  14.724
 2186ETHO    C216885  21.222  18.694  14.801
 2186ETHO   H2116886  21.240  18.584  14.799
 2186ETHO   H2316887  21.188  18.724  14.902
 2187ETHO    O116888  21.339  18.777  14.775
 2187ETHO    C116889  21.423  18.790  14.889
 2187ETHO   H1116890  21.408  18.703  14.957
 2187ETHO   H1316891  21.532  18.793  14.867
 2187ETHO    C216892  21.390  18.913  14.980
 2187ETHO   H2116893  21.434  18.907  15.082
 2187ETHO   H2316894  21.283  18.927  15.003
 2188ETHO    O116895  21.450  19.029  14.925
 2188ETHO    C116896  21.407  19.063  14.794
 2188ETHO   H1116897  21.446  18.989  14.720
 2188ETHO   H1316898  21.296  19.058  14.795
 2188ETHO    C216899  21.435  19.204  14.744
 2188ETHO   H2116900  21.377  19.277  14.805
 2188ETHO   H2316901  21.392  19.222  14.644
 2189ETHO    O116902  21.574  19.233  14.754
 2189ETHO    C116903  21.619  19.329  14.653
 2189ETHO   H1116904  21.617  19.272  14.558
 2189ETHO   H1316905  21.550  19.416  14.656
 2189ETHO    C216906  21.761  19.367  14.689
 2189ETHO   H2116907  21.762  19.393  14.797
 2189ETHO   H2316908  21.800  19.452  14.628
 2190ETHO    O116909  21.850  19.259  14.684
 2190ETHO    C116910  21.978  19.295  14.734
 2190ETHO   H1116911  22.016  19.393  14.696
 2190ETHO   H1316912  21.972  19.296  14.845
 2190ETHO    C216913  22.087  19.184  14.704
 2190ETHO   H2116914  22.044  19.090  14.745
 2190ETHO   H2316915  22.171  19.219  14.768
 2191ETHO    O116916  22.101  19.174  14.558
 2191ETHO    C116917  22.225  19.114  14.533
 2191ETHO   H1116918  22.235  19.015  14.583
 2191ETHO   H1316919  22.302  19.186  14.571
 2191ETHO    C216920  22.234  19.095  14.386
 2191ETHO   H2116921  22.339  19.080  14.354
 2191ETHO   H2316922  22.213  19.193  14.339
 2192ETHO    O116923  22.140  18.992  14.337
 2192ETHO    C116924  22.109  19.009  14.199
 2192ETHO   H1116925  22.041  19.097  14.203
 2192ETHO   H1316926  22.207  19.030  14.150
 2192ETHO    C216927  22.041  18.898  14.120
 2192ETHO   H2116928  22.022  18.928  14.015
 2192ETHO   H2316929  21.943  18.860  14.157
 2193ETHO    O116930  22.117  18.782  14.123
 2193ETHO    C116931  22.058  18.674  14.051
 2193ETHO   H1116932  22.142  18.607  14.024
 2193ETHO   H1316933  22.005  18.719  13.964
 2193ETHO    C216934  21.952  18.590  14.126
 2193ETHO   H2116935  21.862  18.583  14.062
 2193ETHO   H2316936  21.931  18.643  14.221
 2194ETHO    O116937  22.000  18.460  14.160
 2194ETHO    C116938  21.910  18.386  14.239
 2194ETHO   H1116939  21.890  18.432  14.338
 2194ETHO   H1316940  21.811  18.383  14.188
 2194ETHO    C216941  21.957  18.240  14.252
 2194ETHO   H2116942  21.965  18.185  14.155
 2194ETHO   H2316943  21.885  18.183  14.314
 2195ETHO    O116944  22.082  18.243  14.326
 2195ETHO    C116945  22.123  18.120  14.385
 2195ETHO   H1116946  22.039  18.051  14.407
 2195ETHO   H1316947  22.190  18.151  14.468
 2195ETHO    C216948  22.217  18.046  14.291
 2195ETHO   H2116949  22.262  17.960  14.344
 2195ETHO   H2316950  22.293  18.114  14.246
 2196ETHO    O116951  22.131  17.998  14.193
 2196ETHO    C116952  22.206  17.931  14.085
 2196ETHO   H1116953  22.278  18.002  14.039
 2196ETHO   H1316954  22.268  17.845  14.116
 2196ETHO    C216955  22.108  17.893  13.971
 2196ETHO   H2116956  22.159  17.847  13.883
 2196ETHO   H2316957  22.059  17.983  13.928
 2197ETHO    O116958  22.019  17.796  14.020
 2197ETHO    C116959  21.975  17.706  13.914
 2197ETHO   H1116960  22.048  17.622  13.909
 2197ETHO   H1316961  21.965  17.757  13.816
 2197ETHO    C216962  21.842  17.635  13.955
 2197ETHO   H2116963  21.852  17.645  14.065
 2197ETHO   H2316964  21.822  17.532  13.918
 2198ETHO    O116965  21.725  17.724  13.927
 2198ETHO    C116966  21.603  17.661  13.968
 2198ETHO   H1116967  21.616  17.552  13.953
 2198ETHO   H1316968  21.589  17.654  14.078
 2198ETHO    C216969  21.480  17.715  13.887
 2198ETHO   H2116970  21.449  17.819  13.913
 2198ETHO   H2316971  21.386  17.664  13.918
 2199ETHO    O116972  21.484  17.694  13.749
 2199ETHO    C116973  21.382  17.753  13.672
 2199ETHO   H1116974  21.283  17.742  13.721
 2199ETHO   H1316975  21.395  17.863  13.665
 2199ETHO    C216976  21.384  17.692  13.529
 2199ETHO   H2116977  21.486  17.685  13.484
 2199ETHO   H2316978  21.327  17.748  13.452
 2200ETHO    O116979  21.311  17.569  13.534
 2200ETHO    C116980  21.374  17.452  13.576
 2200ETHO   H1116981  21.476  17.433  13.535
 2200ETHO   H1316982  21.389  17.469  13.685
 2200ETHO    C216983  21.290  17.326  13.556
 2200ETHO   H2116984  21.207  17.340  13.628
 2200ETHO   H2316985  21.344  17.231  13.576
 2201ETHO    O116986  21.249  17.314  13.418
 2201ETHO    C116987  21.344  17.247  13.344
 2201ETHO   H1116988  21.442  17.298  13.337
 2201ETHO   H1316989  21.356  17.139  13.370
 2201ETHO    C216990  21.287  17.232  13.198
 2201ETHO   H2116991  21.248  17.331  13.165
 2201ETHO   H2316992  21.370  17.195  13.134
 2202ETHO    O116993  21.183  17.130  13.190
 2202ETHO    C116994  21.055  17.183  13.219
 2202ETHO   H1116995  21.045  17.292  13.198
 2202ETHO   H1316996  21.047  17.173  13.330
 2202ETHO    C216997  20.937  17.109  13.155
 2202ETHO   H2116998  20.937  17.088  13.046
 2202ETHO   H2316999  20.853  17.178  13.174
 2203ETHO    O117000  20.904  16.980  13.221
 2203ETHO    C117001  20.801  16.913  13.151
 2203ETHO   H1117002  20.703  16.965  13.156
 2203ETHO   H1317003  20.835  16.884  13.049
 2203ETHO    C217004  20.789  16.776  13.226
 2203ETHO   H2117005  20.747  16.786  13.329
 2203ETHO   H2317006  20.893  16.736  13.228
 2204ETHO    O117007  20.706  16.684  13.164
 2204ETHO    C117008  20.699  16.560  13.237
 2204ETHO   H1117009  20.669  16.577  13.342
 2204ETHO   H1317010  20.795  16.506  13.233
 2204ETHO    C217011  20.591  16.470  13.166
 2204ETHO   H2117012  20.599  16.363  13.197
 2204ETHO   H2317013  20.609  16.467  13.056
 2205ETHO    O117014  20.462  16.524  13.201
 2205ETHO    C117015  20.358  16.447  13.141
 2205ETHO   H1117016  20.394  16.372  13.068
 2205ETHO   H1317017  20.312  16.380  13.216
 2205ETHO    C217018  20.248  16.528  13.085
 2205ETHO   H2117019  20.210  16.476  12.995
 2205ETHO   H2317020  20.291  16.624  13.050
 2206ETHO    O117021  20.128  16.553  13.171
 2206ETHO    C117022  20.036  16.633  13.106
 2206ETHO   H1117023  19.961  16.572  13.051
 2206ETHO   H1317024  20.086  16.698  13.031
 2206ETHO    C217025  19.959  16.722  13.203
 2206ETHO   H2117026  19.908  16.800  13.143
 2206ETHO   H2317027  20.040  16.765  13.265
 2207ETHO    O117028  19.867  16.656  13.296
 2207ETHO    C117029  19.815  16.748  13.394
 2207ETHO   H1117030  19.893  16.772  13.470
 2207ETHO   H1317031  19.788  16.847  13.352
 2207ETHO    C217032  19.691  16.686  13.454
 2207ETHO   H2117033  19.655  16.739  13.546
 2207ETHO   H2317034  19.714  16.587  13.499
 2208ETHO    O117035  19.582  16.670  13.359
 2208ETHO    C117036  19.457  16.671  13.424
 2208ETHO   H1117037  19.442  16.775  13.460
 2208ETHO   H1317038  19.467  16.593  13.503
 2208ETHO    C217039  19.342  16.627  13.332
 2208ETHO   H2117040  19.339  16.692  13.242
 2208ETHO   H2317041  19.244  16.629  13.384
 2209ETHO    O117042  19.371  16.491  13.298
 2209ETHO    C117043  19.292  16.444  13.197
 2209ETHO   H1117044  19.194  16.492  13.221
 2209ETHO   H1317045  19.325  16.480  13.098
 2209ETHO    C217046  19.290  16.289  13.201
 2209ETHO   H2117047  19.395  16.255  13.207
 2209ETHO   H2317048  19.236  16.256  13.110
 2210ETHO    O117049  19.219  16.239  13.314
 2210ETHO    C117050  19.281  16.123  13.368
 2210ETHO   H1117051  19.308  16.063  13.279
 2210ETHO   H1317052  19.368  16.158  13.428
 2210ETHO    C217053  19.203  16.020  13.453
 2210ETHO   H2117054  19.172  16.061  13.551
 2210ETHO   H2317055  19.272  15.936  13.475
 2211ETHO    O117056  19.082  15.989  13.380
 2211ETHO    C117057  18.992  15.906  13.459
 2211ETHO   H1117058  19.050  15.814  13.484
 2211ETHO   H1317059  18.975  15.961  13.554
 2211ETHO    C217060  18.854  15.866  13.400
 2211ETHO   H2117061  18.795  15.835  13.488
 2211ETHO   H2317062  18.870  15.785  13.325
 2212ETHO    O117063  18.804  15.988  13.343
 2212ETHO    C117064  18.677  15.973  13.277
 2212ETHO   H1117065  18.684  15.920  13.180
 2212ETHO   H1317066  18.605  15.935  13.353
 2212ETHO    C217067  18.611  16.104  13.234
 2212ETHO   H2117068  18.682  16.169  13.178
 2212ETHO   H2317069  18.587  16.162  13.326
 2213ETHO    O117070  18.493  16.080  13.155
 2213ETHO    C117071  18.427  16.203  13.125
 2213ETHO   H1117072  18.513  16.267  13.095
 2213ETHO   H1317073  18.370  16.243  13.212
 2213ETHO    C217074  18.325  16.176  13.009
 2213ETHO   H2117075  18.398  16.175  12.926
 2213ETHO   H2317076  18.279  16.275  12.988
 2214ETHO    O117077  18.230  16.079  13.034
 2214ETHO    C117078  18.117  16.110  12.952
 2214ETHO   H1117079  18.081  16.197  13.012
 2214ETHO   H1317080  18.160  16.149  12.857
 2214ETHO    C217081  18.016  15.997  12.941
 2214ETHO   H2117082  17.930  16.022  12.874
 2214ETHO   H2317083  17.974  15.978  13.042
 2215ETHO    O117084  18.074  15.878  12.893
 2215ETHO    C117085  17.980  15.768  12.869
 2215ETHO   H1117086  17.915  15.757  12.958
 2215ETHO   H1317087  18.044  15.678  12.857
 2215ETHO    C217088  17.902  15.785  12.743
 2215ETHO   H2117089  17.968  15.788  12.654
 2215ETHO   H2317090  17.843  15.878  12.756
 2216ETHO    O117091  17.812  15.669  12.732
 2216ETHO    C117092  17.740  15.684  12.609
 2216ETHO   H1117093  17.703  15.789  12.599
 2216ETHO   H1317094  17.802  15.667  12.519
 2216ETHO    C217095  17.622  15.586  12.600
 2216ETHO   H2117096  17.663  15.491  12.641
 2216ETHO   H2317097  17.593  15.580  12.493
 2217ETHO    O117098  17.506  15.624  12.679
 2217ETHO    C117099  17.387  15.569  12.624
 2217ETHO   H1117100  17.383  15.458  12.615
 2217ETHO   H1317101  17.378  15.601  12.518
 2217ETHO    C217102  17.260  15.607  12.701
 2217ETHO   H2117103  17.262  15.716  12.722
 2217ETHO   H2317104  17.256  15.563  12.802
 2218ETHO    O117105  17.138  15.571  12.628
 2218ETHO    C117106  17.018  15.577  12.714
 2218ETHO   H1117107  17.021  15.497  12.791
 2218ETHO   H1317108  17.026  15.670  12.773
 2218ETHO    C217109  16.897  15.564  12.623
 2218ETHO   H2117110  16.921  15.509  12.530
 2218ETHO   H2317111  16.851  15.663  12.601
 2219ETHO    O117112  16.796  15.474  12.681
 2219ETHO    C117113  16.698  15.431  12.580
 2219ETHO   H1117114  16.744  15.377  12.495
 2219ETHO   H1317115  16.663  15.525  12.532
 2219ETHO    C217116  16.572  15.360  12.639
 2219ETHO   H2117117  16.483  15.381  12.576
 2219ETHO   H2317118  16.559  15.413  12.736
 2220ETHO    O117119  16.582  15.218  12.667
 2220ETHO    C117120  16.671  15.182  12.777
 2220ETHO   H1117121  16.766  15.226  12.739
 2220ETHO   H1317122  16.666  15.246  12.867
 2220ETHO    C217123  16.689  15.030  12.811
 2220ETHO   H2117124  16.772  15.017  12.885
 2220ETHO   H2317125  16.714  14.966  12.724
 2221PROX    O117126  16.577  14.970  12.867
 2221PROX    C117127  16.485  14.938  12.774
 2221PROX   H1117128  16.438  15.032  12.737
 2221PROX   H1317129  16.531  14.883  12.690
 2221PROX    C217130  16.383  14.858  12.846
 2221PROX   H2117131  16.342  14.924  12.926
 2221PROX    C317132  16.434  14.729  12.903
 2221PROX   H3117133  16.518  14.746  12.974
 2221PROX   H3217134  16.357  14.678  12.965
 2221PROX   H3317135  16.453  14.661  12.817
 2222PROX    O117136  16.279  14.825  12.752
 2222PROX    C117137  16.191  14.935  12.732
 2222PROX   H1117138  16.148  14.963  12.830
 2222PROX   H1317139  16.248  15.017  12.684
 2222PROX    C217140  16.078  14.900  12.635
 2222PROX   H2117141  16.014  14.818  12.675
 2222PROX    C317142  16.148  14.851  12.504
 2222PROX   H3117143  16.228  14.923  12.474
 2222PROX   H3217144  16.205  14.760  12.533
 2222PROX   H3317145  16.075  14.830  12.423
 2223PROX    O117146  16.000  15.015  12.611
 2223PROX    C117147  15.899  15.037  12.702
 2223PROX   H1117148  15.921  14.982  12.796
 2223PROX   H1317149  15.879  15.146  12.712
 2223PROX    C217150  15.764  14.978  12.646
 2223PROX   H2117151  15.780  14.869  12.636
 2223PROX    C317152  15.728  15.015  12.499
 2223PROX   H3117153  15.794  14.973  12.421
 2223PROX   H3217154  15.630  14.969  12.477
 2223PROX   H3317155  15.718  15.123  12.477
 2224PROX    O117156  15.647  15.006  12.716
 2224PROX    C117157  15.639  14.934  12.842
 2224PROX   H1117158  15.741  14.923  12.884
 2224PROX   H1317159  15.583  15.006  12.906
 2224PROX    C217160  15.552  14.807  12.829
 2224PROX   H2117161  15.478  14.829  12.749
 2224PROX    C317162  15.477  14.771  12.958
 2224PROX   H3117163  15.545  14.715  13.026
 2224PROX   H3217164  15.433  14.863  13.003
 2224PROX   H3317165  15.389  14.703  12.948
 2225PROX    O117166  15.643  14.697  12.793
 2225PROX    C117167  15.574  14.573  12.768
 2225PROX   H1117168  15.528  14.534  12.861
 2225PROX   H1317169  15.496  14.584  12.689
 2225PROX    C217170  15.676  14.462  12.722
 2225PROX   H2117171  15.751  14.448  12.802
 2225PROX    C317172  15.751  14.500  12.589
 2225PROX   H3117173  15.819  14.419  12.556
 2225PROX   H3217174  15.677  14.537  12.515
 2225PROX   H3317175  15.802  14.597  12.609
 2226PROX    O117176  15.603  14.341  12.694
 2226PROX    C117177  15.618  14.240  12.791
 2226PROX   H1117178  15.629  14.293  12.888
 2226PROX   H1317179  15.535  14.168  12.805
 2226PROX    C217180  15.749  14.165  12.757
 2226PROX   H2117181  15.816  14.224  12.692
 2226PROX    C317182  15.727  14.034  12.680
 2226PROX   H3117183  15.697  14.057  12.576
 2226PROX   H3217184  15.828  13.991  12.665
 2226PROX   H3317185  15.655  13.968  12.732
 2227PROX    O117186  15.818  14.139  12.878
 2227PROX    C117187  15.943  14.196  12.886
 2227PROX   H1117188  15.951  14.304  12.863
 2227PROX   H1317189  15.979  14.191  12.991
 2227PROX    C217190  16.045  14.128  12.801
 2227PROX   H2117191  16.016  14.136  12.694
 2227PROX    C317192  16.078  13.986  12.832
 2227PROX   H3117193  16.148  13.946  12.755
 2227PROX   H3217194  16.125  13.968  12.931
 2227PROX   H3317195  15.994  13.916  12.814
 2228PROX    O117196  16.165  14.206  12.814
 2228PROX    C117197  16.272  14.172  12.732
 2228PROX   H1117198  16.334  14.094  12.782
 2228PROX   H1317199  16.233  14.128  12.638
 2228PROX    C217200  16.366  14.293  12.701
 2228PROX   H2117201  16.444  14.248  12.636
 2228PROX    C317202  16.432  14.356  12.834
 2228PROX   H3117203  16.350  14.373  12.907
 2228PROX   H3217204  16.512  14.290  12.875
 2228PROX   H3317205  16.481  14.452  12.805
 2229PROX    O117206  16.293  14.393  12.635
 2229PROX    C117207  16.318  14.405  12.495
 2229PROX   H1117208  16.407  14.470  12.478
 2229PROX   H1317209  16.341  14.304  12.454
 2229PROX    C217210  16.192  14.456  12.421
 2229PROX   H2117211  16.163  14.559  12.453
 2229PROX    C317212  16.077  14.357  12.449
 2229PROX   H3117213  15.974  14.397  12.436
 2229PROX   H3217214  16.103  14.266  12.391
 2229PROX   H3317215  16.084  14.325  12.555
 2230PROX    O117216  16.209  14.454  12.275
 2230PROX    C117217  16.143  14.560  12.215
 2230PROX   H1117218  16.078  14.623  12.279
 2230PROX   H1317219  16.211  14.640  12.177
 2230PROX    C217220  16.060  14.513  12.099
 2230PROX   H2117221  16.017  14.413  12.121
 2230PROX    C317222  16.142  14.502  11.976
 2230PROX   H3117223  16.186  14.595  11.935
 2230PROX   H3217224  16.227  14.432  11.989
 2230PROX   H3317225  16.084  14.446  11.899
 2231PROX    O117226  15.956  14.599  12.075
 2231PROX    C117227  15.835  14.568  12.146
 2231PROX   H1117228  15.856  14.539  12.251
 2231PROX   H1317229  15.773  14.660  12.140
 2231PROX    C217230  15.761  14.459  12.069
 2231PROX   H2117231  15.810  14.360  12.078
 2231PROX    C317232  15.746  14.498  11.922
 2231PROX   H3117233  15.852  14.483  11.891
 2231PROX   H3217234  15.678  14.430  11.867
 2231PROX   H3317235  15.706  14.601  11.914
 2232PROX    O117236  15.623  14.456  12.129
 2232PROX    C117237  15.610  14.332  12.200
 2232PROX   H1117238  15.619  14.249  12.127
 2232PROX   H1317239  15.688  14.328  12.279
 2232PROX    C217240  15.477  14.300  12.272
 2232PROX   H2117241  15.393  14.304  12.200
 2232PROX    C317242  15.435  14.403  12.379
 2232PROX   H3117243  15.520  14.398  12.451
 2232PROX   H3217244  15.456  14.508  12.350
 2232PROX   H3317245  15.340  14.392  12.436
 2233PROX    O117246  15.495  14.166  12.314
 2233PROX    C117247  15.427  14.129  12.427
 2233PROX   H1117248  15.483  14.164  12.516
 2233PROX   H1317249  15.322  14.166  12.425
 2233PROX    C217250  15.414  13.976  12.450
 2233PROX   H2117251  15.515  13.934  12.429
 2233PROX    C317252  15.309  13.911  12.356
 2233PROX   H3117253  15.311  13.953  12.253
 2233PROX   H3217254  15.337  13.803  12.352
 2233PROX   H3317255  15.209  13.920  12.402
 2234PROX    O117256  15.384  13.962  12.591
 2234PROX    C117257  15.363  13.827  12.621
 2234PROX   H1117258  15.255  13.802  12.607
 2234PROX   H1317259  15.413  13.754  12.555
 2234PROX    C217260  15.403  13.793  12.765
 2234PROX   H2117261  15.363  13.693  12.789
 2234PROX    C317262  15.346  13.890  12.872
 2234PROX   H3117263  15.236  13.889  12.864
 2234PROX   H3217264  15.380  13.861  12.974
 2234PROX   H3317265  15.397  13.984  12.843
 2235PROX    O117266  15.543  13.767  12.773
 2235PROX    C117267  15.576  13.694  12.889
 2235PROX   H1117268  15.642  13.756  12.953
 2235PROX   H1317269  15.493  13.666  12.956
 2235PROX    C217270  15.665  13.568  12.853
 2235PROX   H2117271  15.761  13.596  12.805
 2235PROX    C317272  15.583  13.482  12.755
 2235PROX   H3117273  15.625  13.380  12.749
 2235PROX   H3217274  15.479  13.484  12.795
 2235PROX   H3317275  15.587  13.528  12.654
 2236PROX    O117276  15.696  13.492  12.964
 2236PROX    C117277  15.797  13.555  13.038
 2236PROX   H1117278  15.806  13.663  13.015
 2236PROX   H1317279  15.769  13.547  13.146
 2236PROX    C217280  15.934  13.480  13.023
 2236PROX   H2117281  15.923  13.370  13.013
 2236PROX    C317282  16.027  13.513  13.143
 2236PROX   H3117283  16.007  13.447  13.230
 2236PROX   H3217284  16.132  13.506  13.108
 2236PROX   H3317285  15.992  13.615  13.170
 2237PROX    O117286  16.001  13.528  12.909
 2237PROX    C117287  15.998  13.438  12.802
 2237PROX   H1117288  16.054  13.343  12.814
 2237PROX   H1317289  15.890  13.419  12.782
 2237PROX    C217290  16.063  13.505  12.675
 2237PROX   H2117291  16.166  13.541  12.696
 2237PROX    C317292  15.979  13.628  12.631
 2237PROX   H3117293  15.883  13.597  12.585
 2237PROX   H3217294  15.950  13.690  12.719
 2237PROX   H3317295  16.029  13.698  12.561
 2238PROX    O117296  16.065  13.402  12.576
 2238PROX    C117297  16.142  13.423  12.461
 2238PROX   H1117298  16.208  13.510  12.483
 2238PROX   H1317299  16.212  13.342  12.432
 2238PROX    C217300  16.060  13.460  12.329
 2238PROX   H2117301  16.005  13.366  12.304
 2238PROX    C317302  16.152  13.497  12.210
 2238PROX   H3117303  16.208  13.589  12.235
 2238PROX   H3217304  16.217  13.413  12.177
 2238PROX   H3317305  16.097  13.536  12.121
 2239PROX    O117306  15.974  13.566  12.352
 2239PROX    C117307  15.841  13.558  12.289
 2239PROX   H1117308  15.848  13.527  12.182
 2239PROX   H1317309  15.787  13.477  12.343
 2239PROX    C217310  15.763  13.695  12.308
 2239PROX   H2117311  15.781  13.730  12.412
 2239PROX    C317312  15.612  13.666  12.289
 2239PROX   H3117313  15.592  13.611  12.195
 2239PROX   H3217314  15.576  13.603  12.374
 2239PROX   H3317315  15.550  13.757  12.287
 2240PROX    O117316  15.804  13.790  12.209
 2240PROX    C117317  15.939  13.827  12.231
 2240PROX   H1117318  16.010  13.741  12.228
 2240PROX   H1317319  15.963  13.873  12.133
 2240PROX    C217320  15.960  13.930  12.340
 2240PROX   H2117321  15.933  13.886  12.438
 2240PROX    C317322  15.871  14.063  12.326
 2240PROX   H3117323  15.881  14.114  12.228
 2240PROX   H3217324  15.764  14.035  12.333
 2240PROX   H3317325  15.889  14.122  12.418
 2241PROX    O117326  16.092  13.975  12.346
 2241PROX    C117327  16.189  13.875  12.377
 2241PROX   H1117328  16.172  13.838  12.480
 2241PROX   H1317329  16.192  13.804  12.292
 2241PROX    C217330  16.328  13.947  12.390
 2241PROX   H2117331  16.324  14.030  12.464
 2241PROX    C317332  16.381  14.005  12.257
 2241PROX   H3117333  16.477  14.055  12.280
 2241PROX   H3217334  16.398  13.930  12.176
 2241PROX   H3317335  16.316  14.085  12.215
 2242PROX    O117336  16.416  13.843  12.433
 2242PROX    C117337  16.394  13.810  12.574
 2242PROX   H1117338  16.344  13.896  12.623
 2242PROX   H1317339  16.325  13.723  12.582
 2242PROX    C217340  16.533  13.779  12.646
 2242PROX   H2117341  16.598  13.869  12.647
 2242PROX    C317342  16.602  13.675  12.563
 2242PROX   H3117343  16.537  13.595  12.523
 2242PROX   H3217344  16.646  13.729  12.476
 2242PROX   H3317345  16.680  13.620  12.620
 2243PROX    O117346  16.515  13.728  12.769
 2243PROX    C117347  16.476  13.822  12.863
 2243PROX   H1117348  16.559  13.896  12.857
 2243PROX   H1317349  16.382  13.865  12.822
 2243PROX    C217350  16.463  13.765  12.999
 2243PROX   H2117351  16.544  13.692  13.022
 2243PROX    C317352  16.337  13.678  13.020
 2243PROX   H3117353  16.343  13.594  13.094
 2243PROX   H3217354  16.251  13.743  13.044
 2243PROX   H3317355  16.306  13.626  12.927
 2244PROX    O117356  16.478  13.871  13.088
 2244PROX    C117357  16.472  13.829  13.225
 2244PROX   H1117358  16.368  13.809  13.259
 2244PROX   H1317359  16.536  13.739  13.237
 2244PROX    C217360  16.527  13.926  13.329
 2244PROX   H2117361  16.623  13.967  13.292
 2244PROX    C317362  16.548  13.858  13.461
 2244PROX   H3117363  16.450  13.825  13.501
 2244PROX   H3217364  16.598  13.760  13.445
 2244PROX   H3317365  16.613  13.911  13.533
 2245PROX    O117366  16.431  14.030  13.347
 2245PROX    C117367  16.474  14.144  13.412
 2245PROX   H1117368  16.469  14.130  13.522
 2245PROX   H1317369  16.580  14.162  13.384
 2245PROX    C217370  16.375  14.264  13.378
 2245PROX   H2117371  16.278  14.225  13.415
 2245PROX    C317372  16.369  14.302  13.233
 2245PROX   H3117373  16.344  14.209  13.177
 2245PROX   H3217374  16.292  14.379  13.211
 2245PROX   H3317375  16.469  14.337  13.201
 2246PROX    O117376  16.409  14.384  13.447
 2246PROX    C117377  16.318  14.417  13.553
 2246PROX   H1117378  16.286  14.320  13.596
 2246PROX   H1317379  16.377  14.484  13.619
 2246PROX    C217380  16.186  14.494  13.505
 2246PROX   H2117381  16.228  14.577  13.444
 2246PROX    C317382  16.116  14.551  13.626
 2246PROX   H3117383  16.070  14.469  13.684
 2246PROX   H3217384  16.194  14.599  13.689
 2246PROX   H3317385  16.030  14.611  13.589
 2247PROX    O117386  16.106  14.408  13.426
 2247PROX    C117387  16.017  14.476  13.340
 2247PROX   H1117388  15.943  14.539  13.393
 2247PROX   H1317389  16.078  14.543  13.276
 2247PROX    C217390  15.934  14.375  13.253
 2247PROX   H2117391  16.014  14.318  13.201
 2247PROX    C317392  15.849  14.464  13.156
 2247PROX   H3117393  15.923  14.518  13.093
 2247PROX   H3217394  15.769  14.403  13.109
 2247PROX   H3317395  15.805  14.545  13.218
 2248PROX    O117396  15.849  14.290  13.338
 2248PROX    C117397  15.814  14.171  13.274
 2248PROX   H1117398  15.711  14.150  13.311
 2248PROX   H1317399  15.799  14.165  13.164
 2248PROX    C217400  15.915  14.060  13.311
 2248PROX   H2117401  16.015  14.092  13.275
 2248PROX    C317402  15.890  13.932  13.233
 2248PROX   H3117403  15.976  13.862  13.240
 2248PROX   H3217404  15.811  13.880  13.293
 2248PROX   H3317405  15.862  13.946  13.127
 2249PROX    O117406  15.928  14.031  13.450
 2249PROX    C117407  16.048  13.973  13.492
 2249PROX   H1117408  16.057  13.865  13.464
 2249PROX   H1317409  16.132  14.023  13.439
 2249PROX    C217410  16.078  13.990  13.641
 2249PROX   H2117411  16.036  14.089  13.669
 2249PROX    C317412  16.230  13.961  13.680
 2249PROX   H3117413  16.301  14.032  13.633
 2249PROX   H3217414  16.246  13.978  13.788
 2249PROX   H3317415  16.258  13.859  13.646
 2250PROX    O117416  15.994  13.892  13.710
 2250PROX    C117417  15.984  13.924  13.853
 2250PROX   H1117418  15.938  13.834  13.900
 2250PROX   H1317419  16.078  13.950  13.906
 2250PROX    C217420  15.882  14.043  13.891
 2250PROX   H2117421  15.895  14.122  13.814
 2250PROX    C317422  15.917  14.115  14.027
 2250PROX   H3117423  15.908  14.037  14.105
 2250PROX   H3217424  16.021  14.153  14.027
 2250PROX   H3317425  15.852  14.203  14.047
 2251PROX    O117426  15.749  13.998  13.901
 2251PROX    C117427  15.699  13.954  13.779
 2251PROX   H1117428  15.710  14.036  13.705
 2251PROX   H1317429  15.759  13.867  13.748
 2251PROX    C217430  15.557  13.904  13.799
 2251PROX   H2117431  15.500  13.986  13.847
 2251PROX    C317432  15.555  13.770  13.871
 2251PROX   H3117433  15.450  13.735  13.870
 2251PROX   H3217434  15.616  13.692  13.821
 2251PROX   H3317435  15.583  13.790  13.977
 2252PROX    O117436  15.504  13.857  13.671
 2252PROX    C117437  15.464  13.955  13.569
 2252PROX   H1117438  15.547  14.000  13.511
 2252PROX   H1317439  15.424  13.888  13.489
 2252PROX    C217440  15.355  14.059  13.612
 2252PROX   H2117441  15.281  14.009  13.678
 2252PROX    C317442  15.293  14.129  13.481
 2252PROX   H3117443  15.220  14.208  13.507
 2252PROX   H3217444  15.378  14.177  13.427
 2252PROX   H3317445  15.242  14.052  13.419
 2253PROX    O117446  15.422  14.164  13.684
 2253PROX    C117447  15.342  14.225  13.782
 2253PROX   H1117448  15.262  14.277  13.727
 2253PROX   H1317449  15.293  14.156  13.854
 2253PROX    C217450  15.420  14.335  13.854
 2253PROX   H2117451  15.460  14.401  13.775
 2253PROX    C317452  15.539  14.274  13.939
 2253PROX   H3117453  15.606  14.356  13.973
 2253PROX   H3217454  15.502  14.223  14.031
 2253PROX   H3317455  15.592  14.205  13.870
 2254PROX    O117456  15.330  14.399  13.943
 2254PROX    C117457  15.285  14.524  13.892
 2254PROX   H1117458  15.361  14.604  13.907
 2254PROX   H1317459  15.263  14.522  13.784
 2254PROX    C217460  15.141  14.557  13.947
 2254PROX   H2117461  15.152  14.628  14.031
 2254PROX    C317462  15.065  14.430  13.997
 2254PROX   H3117463  15.109  14.373  14.082
 2254PROX   H3217464  14.959  14.447  14.023
 2254PROX   H3317465  15.053  14.356  13.915
 2255PROX    O117466  15.075  14.632  13.849
 2255PROX    C117467  14.952  14.684  13.900
 2255PROX   H1117468  14.913  14.641  13.995
 2255PROX   H1317469  14.967  14.793  13.912
 2255PROX    C217470  14.841  14.655  13.794
 2255PROX   H2117471  14.862  14.714  13.702
 2255PROX    C317472  14.709  14.714  13.848
 2255PROX   H3117473  14.727  14.821  13.870
 2255PROX   H3217474  14.627  14.704  13.774
 2255PROX   H3317475  14.680  14.668  13.944
 2256PROX    O117476  14.820  14.513  13.769
 2256PROX    C117477  14.837  14.493  13.627
 2256PROX   H1117478  14.754  14.542  13.571
 2256PROX   H1317479  14.932  14.524  13.579
 2256PROX    C217480  14.835  14.342  13.603
 2256PROX   H2117481  14.782  14.291  13.687
 2256PROX    C317482  14.988  14.303  13.599
 2256PROX   H3117483  14.994  14.193  13.585
 2256PROX   H3217484  15.022  14.358  13.509
 2256PROX   H3317485  15.052  14.331  13.685
 2257PROX    O117486  14.770  14.321  13.481
 2257PROX    C117487  14.726  14.191  13.467
 2257PROX   H1117488  14.809  14.117  13.467
 2257PROX   H1317489  14.653  14.162  13.545
 2257PROX    C217490  14.644  14.183  13.343
 2257PROX   H2117491  14.703  14.197  13.250
 2257PROX    C317492  14.538  14.290  13.352
 2257PROX   H3117493  14.476  14.281  13.260
 2257PROX   H3217494  14.467  14.270  13.435
 2257PROX   H3317495  14.580  14.393  13.354
 2258PROX    O117496  14.582  14.056  13.345
 2258PROX    C117497  14.670  13.957  13.286
 2258PROX   H1117498  14.670  13.965  13.176
 2258PROX   H1317499  14.773  13.957  13.327
 2258PROX    C217500  14.617  13.813  13.314
 2258PROX   H2117501  14.548  13.790  13.230
 2258PROX    C317502  14.540  13.791  13.446
 2258PROX   H3117503  14.450  13.855  13.450
 2258PROX   H3217504  14.500  13.687  13.452
 2258PROX   H3317505  14.614  13.813  13.526
 2259PROX    O117506  14.726  13.723  13.306
 2259PROX    C117507  14.747  13.670  13.175
 2259PROX   H1117508  14.751  13.559  13.167
 2259PROX   H1317509  14.676  13.706  13.098
 2259PROX    C217510  14.880  13.727  13.123
 2259PROX   H2117511  14.894  13.684  13.021
 2259PROX    C317512  14.994  13.686  13.223
 2259PROX   H3117513  15.085  13.743  13.193
 2259PROX   H3217514  14.970  13.716  13.327
 2259PROX   H3317515  15.002  13.576  13.227
 2260PROX    O117516  14.877  13.869  13.119
 2260PROX    C117517  14.974  13.921  13.026
 2260PROX   H1117518  15.072  13.869  13.032
 2260PROX   H1317519  14.933  13.906  12.924
 2260PROX    C217520  15.005  14.061  13.063
 2260PROX   H2117521  15.078  14.112  12.997
 2260PROX    C317522  15.061  14.074  13.204
 2260PROX   H3117523  15.107  14.170  13.234
 2260PROX   H3217524  14.976  14.061  13.274
 2260PROX   H3317525  15.137  13.994  13.220
 2261PROX    O117526  14.881  14.137  13.050
 2261PROX    C117527  14.823  14.151  12.924
 2261PROX   H1117528  14.902  14.142  12.847
 2261PROX   H1317529  14.747  14.071  12.911
 2261PROX    C217530  14.745  14.290  12.908
 2261PROX   H2117531  14.812  14.366  12.953
 2261PROX    C317532  14.609  14.301  12.979
 2261PROX   H3117533  14.571  14.396  12.935
 2261PROX   H3217534  14.542  14.215  12.957
 2261PROX   H3317535  14.638  14.316  13.085
 2262PROX    O117536  14.717  14.315  12.765
 2262PROX    C117537  14.802  14.410  12.704
 2262PROX   H1117538  14.903  14.396  12.748
 2262PROX   H1317539  14.805  14.389  12.595
 2262PROX    C217540  14.757  14.557  12.714
 2262PROX   H2117541  14.651  14.567  12.681
 2262PROX    C317542  14.852  14.646  12.629
 2262PROX   H3117543  14.835  14.754  12.643
 2262PROX   H3217544  14.959  14.624  12.648
 2262PROX   H3317545  14.841  14.622  12.521
 2263PROX    O117546  14.762  14.587  12.854
 2263PROX    C117547  14.692  14.708  12.884
 2263PROX   H1117548  14.740  14.797  12.838
 2263PROX   H1317549  14.588  14.690  12.850
 2263PROX    C217550  14.680  14.725  13.038
 2263PROX   H2117551  14.783  14.729  13.081
 2263PROX    C317552  14.584  14.622  13.105
 2263PROX   H3117553  14.647  14.530  13.113
 2263PROX   H3217554  14.569  14.659  13.209
 2263PROX   H3317555  14.491  14.613  13.046
 2264PROX    O117556  14.612  14.846  13.071
 2264PROX    C117557  14.694  14.964  13.068
 2264PROX   H1117558  14.802  14.957  13.094
 2264PROX   H1317559  14.689  15.018  12.971
 2264PROX    C217560  14.620  15.068  13.158
 2264PROX   H2117561  14.523  15.082  13.106
 2264PROX    C317562  14.683  15.204  13.156
 2264PROX   H3117563  14.639  15.272  13.233
 2264PROX   H3217564  14.792  15.190  13.175
 2264PROX   H3317565  14.671  15.246  13.053
 2265PROX    O117566  14.600  15.012  13.287
 2265PROX    C117567  14.711  15.024  13.380
 2265PROX   H1117568  14.797  15.059  13.320
 2265PROX   H1317569  14.685  15.104  13.454
 2265PROX    C217570  14.741  14.887  13.449
 2265PROX   H2117571  14.751  14.805  13.374
 2265PROX    C317572  14.616  14.842  13.531
 2265PROX   H3117573  14.625  14.742  13.577
 2265PROX   H3217574  14.602  14.919  13.610
 2265PROX   H3317575  14.523  14.831  13.471
 2266PROX    O117576  14.849  14.893  13.533
 2266PROX    C117577  14.970  14.887  13.462
 2266PROX   H1117578  14.961  14.807  13.385
 2266PROX   H1317579  15.001  14.983  13.416
 2266PROX    C217580  15.074  14.845  13.562
 2266PROX   H2117581  15.035  14.747  13.597
 2266PROX    C317582  15.092  14.935  13.691
 2266PROX   H3117583  14.995  14.939  13.745
 2266PROX   H3217584  15.171  14.898  13.759
 2266PROX   H3317585  15.128  15.035  13.660
 2267PROX    O117586  15.202  14.827  13.499
 2267PROX    C117587  15.266  14.952  13.465
 2267PROX   H1117588  15.193  15.033  13.449
 2267PROX   H1317589  15.342  14.964  13.545
 2267PROX    C217590  15.336  14.943  13.328
 2267PROX   H2117591  15.398  14.851  13.326
 2267PROX    C317592  15.432  15.055  13.298
 2267PROX   H3117593  15.489  15.042  13.204
 2267PROX   H3217594  15.378  15.153  13.299
 2267PROX   H3317595  15.519  15.062  13.367
 2268PROX    O117596  15.242  14.935  13.218
 2268PROX    C117597  15.193  14.802  13.192
 2268PROX   H1117598  15.274  14.726  13.183
 2268PROX   H1317599  15.133  14.767  13.278
 2268PROX    C217600  15.102  14.793  13.066
 2268PROX   H2117601  15.003  14.830  13.099
 2268PROX    C317602  15.075  14.655  13.000
 2268PROX   H3117603  15.159  14.625  12.933
 2268PROX   H3217604  15.058  14.584  13.084
 2268PROX   H3317605  14.985  14.678  12.940
 2269PROX    O117606  15.143  14.882  12.964
 2269PROX    C117607  15.035  14.965  12.919
 2269PROX   H1117608  14.945  14.906  12.892
 2269PROX   H1317609  15.006  15.048  12.987
 2269PROX    C217610  15.074  15.047  12.790
 2269PROX   H2117611  15.092  14.972  12.710
 2269PROX    C317612  15.195  15.130  12.810
 2269PROX   H3117613  15.233  15.178  12.717
 2269PROX   H3217614  15.175  15.214  12.880
 2269PROX   H3317615  15.275  15.078  12.867
 2270PROX    O117616  14.979  15.143  12.755
 2270PROX    C117617  14.876  15.080  12.681
 2270PROX   H1117618  14.912  15.041  12.583
 2270PROX   H1317619  14.830  15.003  12.747
 2270PROX    C217620  14.760  15.178  12.653
 2270PROX   H2117621  14.802  15.253  12.582
 2270PROX    C317622  14.700  15.255  12.768
 2270PROX   H3117623  14.638  15.194  12.837
 2270PROX   H3217624  14.787  15.276  12.835
 2270PROX   H3317625  14.644  15.347  12.740
 2271PROX    O117626  14.653  15.105  12.580
 2271PROX    C117627  14.560  15.190  12.523
 2271PROX   H1117628  14.468  15.184  12.586
 2271PROX   H1317629  14.593  15.296  12.523
 2271PROX    C217630  14.510  15.139  12.383
 2271PROX   H2117631  14.415  15.197  12.373
 2271PROX    C317632  14.482  14.986  12.375
 2271PROX   H3117633  14.411  14.953  12.454
 2271PROX   H3217634  14.440  14.961  12.275
 2271PROX   H3317635  14.575  14.929  12.394
 2272PROX    O117636  14.597  15.181  12.270
 2272PROX    C117637  14.711  15.099  12.265
 2272PROX   H1117638  14.739  15.084  12.371
 2272PROX   H1317639  14.698  14.998  12.219
 2272PROX    C217640  14.829  15.170  12.221
 2272PROX   H2117641  14.814  15.279  12.236
 2272PROX    C317642  14.853  15.161  12.073
 2272PROX   H3117643  14.769  15.200  12.011
 2272PROX   H3217644  14.935  15.224  12.035
 2272PROX   H3317645  14.877  15.056  12.045
 2273PROX    O117646  14.942  15.117  12.295
 2273PROX    C117647  15.049  15.208  12.318
 2273PROX   H1117648  15.080  15.240  12.217
 2273PROX   H1317649  15.023  15.299  12.377
 2273PROX    C217650  15.168  15.137  12.383
 2273PROX   H2117651  15.131  15.071  12.464
 2273PROX    C317652  15.271  15.237  12.439
 2273PROX   H3117653  15.364  15.187  12.475
 2273PROX   H3217654  15.311  15.290  12.351
 2273PROX   H3317655  15.237  15.315  12.511
 2274PROX    O117656  15.222  15.053  12.281
 2274PROX    C117657  15.315  14.954  12.326
 2274PROX   H1117658  15.372  14.916  12.238
 2274PROX   H1317659  15.398  15.000  12.382
 2274PROX    C217660  15.252  14.846  12.408
 2274PROX   H2117661  15.183  14.874  12.490
 2274PROX    C317662  15.358  14.761  12.481
 2274PROX   H3117663  15.437  14.713  12.419
 2274PROX   H3217664  15.402  14.820  12.565
 2274PROX   H3317665  15.313  14.676  12.535
 2275PROX    O117666  15.184  14.760  12.324
 2275PROX    C117667  15.046  14.794  12.296
 2275PROX   H1117668  14.989  14.815  12.389
 2275PROX   H1317669  15.049  14.878  12.223
 2275PROX    C217670  14.974  14.674  12.221
 2275PROX   H2117671  15.042  14.649  12.136
 2275PROX    C317672  14.838  14.710  12.156
 2275PROX   H3117673  14.777  14.764  12.231
 2275PROX   H3217674  14.861  14.781  12.074
 2275PROX   H3317675  14.794  14.619  12.110
 2276PROX    O117676  14.951  14.558  12.300
 2276PROX    C117677  15.074  14.491  12.348
 2276PROX   H1117678  15.163  14.507  12.283
 2276PROX   H1317679  15.097  14.524  12.451
 2276PROX    C217680  15.056  14.329  12.359
 2276PROX   H2117681  15.143  14.298  12.420
 2276PROX    C317682  15.062  14.248  12.235
 2276PROX   H3117683  14.968  14.254  12.175
 2276PROX   H3217684  15.138  14.282  12.161
 2276PROX   H3317685  15.082  14.140  12.255
 2277PROX    O117686  14.939  14.300  12.433
 2277PROX    C117687  14.922  14.166  12.473
 2277PROX   H1117688  14.844  14.162  12.552
 2277PROX   H1317689  14.886  14.098  12.392
 2277PROX    C217690  15.041  14.106  12.552
 2277PROX   H2117691  15.132  14.083  12.493
 2277PROX    C317692  14.999  13.973  12.613
 2277PROX   H3117693  14.914  13.999  12.679
 2277PROX   H3217694  14.968  13.909  12.528
 2277PROX   H3317695  15.078  13.925  12.673
 2278PROX    O117696  15.070  14.193  12.661
 2278PROX    C117697  15.190  14.170  12.733
 2278PROX   H1117698  15.188  14.084  12.804
 2278PROX   H1317699  15.278  14.176  12.665
 2278PROX    C217700  15.215  14.299  12.824
 2278PROX   H2117701  15.124  14.320  12.883
 2278PROX    C317702  15.243  14.423  12.756
 2278PROX   H3117703  15.173  14.435  12.671
 2278PROX   H3217704  15.268  14.506  12.825
 2278PROX   H3317705  15.333  14.404  12.693
 2279PROX    O117706  15.317  14.267  12.911
 2279PROX    C117707  15.317  14.337  13.032
 2279PROX   H1117708  15.337  14.443  13.008
 2279PROX   H1317709  15.220  14.326  13.085
 2279PROX    C217710  15.435  14.285  13.114
 2279PROX   H2117711  15.530  14.330  13.078
 2279PROX    C317712  15.458  14.131  13.133
 2279PROX   H3117713  15.359  14.083  13.147
 2279PROX   H3217714  15.513  14.090  13.046
 2279PROX   H3317715  15.509  14.117  13.231
 2280PROX    O117716  15.417  14.332  13.252
 2280PROX    C117717  15.443  14.468  13.263
 2280PROX   H1117718  15.551  14.485  13.244
 2280PROX   H1317719  15.374  14.524  13.196
 2280PROX    C217720  15.424  14.511  13.409
 2280PROX   H2117721  15.477  14.439  13.475
 2280PROX    C317722  15.278  14.523  13.440
 2280PROX   H3117723  15.225  14.584  13.362
 2280PROX   H3217724  15.234  14.421  13.432
 2280PROX   H3317725  15.256  14.566  13.540
 2281PROX    O117726  15.487  14.636  13.419
 2281PROX    C117727  15.518  14.660  13.557
 2281PROX   H1117728  15.492  14.768  13.562
 2281PROX   H1317729  15.450  14.607  13.626
 2281PROX    C217730  15.669  14.644  13.597
 2281PROX   H2117731  15.734  14.699  13.527
 2281PROX    C317732  15.729  14.497  13.609
 2281PROX   H3117733  15.838  14.503  13.630
 2281PROX   H3217734  15.681  14.438  13.691
 2281PROX   H3317735  15.720  14.446  13.510
 2282PROX    O117736  15.681  14.700  13.725
 2282PROX    C117737  15.761  14.817  13.748
 2282PROX   H1117738  15.757  14.824  13.859
 2282PROX   H1317739  15.866  14.800  13.714
 2282PROX    C217740  15.719  14.956  13.683
 2282PROX   H2117741  15.792  15.038  13.702
 2282PROX    C317742  15.583  14.997  13.744
 2282PROX   H3117743  15.565  15.107  13.742
 2282PROX   H3217744  15.504  14.936  13.695
 2282PROX   H3317745  15.590  14.973  13.853
 2283PROX    O117746  15.722  14.946  13.535
 2283PROX    C117747  15.850  14.957  13.477
 2283PROX   H1117748  15.902  15.047  13.515
 2283PROX   H1317749  15.900  14.862  13.505
 2283PROX    C217750  15.838  14.958  13.327
 2283PROX   H2117751  15.756  15.032  13.322
 2283PROX    C317752  15.803  14.822  13.269
 2283PROX   H3117753  15.702  14.793  13.306
 2283PROX   H3217754  15.797  14.839  13.159
 2283PROX   H3317755  15.882  14.749  13.297
 2284PROX    O117756  15.949  15.008  13.262
 2284PROX    C117757  16.061  14.917  13.261
 2284PROX   H1117758  16.065  14.853  13.352
 2284PROX   H1317759  16.052  14.858  13.168
 2284PROX    C217760  16.198  14.991  13.268
 2284PROX   H2117761  16.203  15.047  13.364
 2284PROX    C317762  16.209  15.091  13.147
 2284PROX   H3117763  16.129  15.169  13.150
 2284PROX   H3217764  16.299  15.155  13.141
 2284PROX   H3317765  16.194  15.033  13.054
 2285PROX    O117766  16.305  14.899  13.248
 2285PROX    C117767  16.433  14.943  13.293
 2285PROX   H1117768  16.456  15.043  13.251
 2285PROX   H1317769  16.422  14.961  13.402
 2285PROX    C217770  16.546  14.837  13.271
 2285PROX   H2117771  16.557  14.825  13.161
 2285PROX    C317772  16.502  14.706  13.342
 2285PROX   H3117773  16.519  14.725  13.450
 2285PROX   H3217774  16.398  14.676  13.321
 2285PROX   H3317775  16.574  14.626  13.315
 2286ETHO    O117776  16.664  14.895  13.321
 2286ETHO    C117777  16.740  14.985  13.233
 2286ETHO   H1117778  16.673  15.069  13.207
 2286ETHO   H1317779  16.763  14.923  13.144
 2286ETHO    C217780  16.876  15.049  13.291
 2286ETHO   H2117781  16.944  14.962  13.301
 2286ETHO   H2317782  16.861  15.107  13.384
 2287ETHO    O117783  16.938  15.138  13.193
 2287ETHO    C117784  17.069  15.179  13.230
 2287ETHO   H1117785  17.105  15.130  13.323
 2287ETHO   H1317786  17.139  15.155  13.147
 2287ETHO    C217787  17.063  15.331  13.255
 2287ETHO   H2117788  17.146  15.363  13.322
 2287ETHO   H2317789  16.968  15.350  13.309
 2288ETHO    O117790  17.071  15.406  13.137
 2288ETHO    C117791  17.054  15.546  13.152
 2288ETHO   H1117792  16.977  15.569  13.229
 2288ETHO   H1317793  17.014  15.572  13.052
 2288ETHO    C217794  17.192  15.618  13.165
 2288ETHO   H2117795  17.245  15.594  13.070
 2288ETHO   H2317796  17.244  15.562  13.245
 2289ETHO    O117797  17.187  15.761  13.191
 2289ETHO    C117798  17.183  15.820  13.060
 2289ETHO   H1117799  17.282  15.807  13.011
 2289ETHO   H1317800  17.102  15.768  13.004
 2289ETHO    C217801  17.163  15.975  13.079
 2289ETHO   H2117802  17.255  16.015  13.127
 2289ETHO   H2317803  17.080  16.004  13.146
 2290ETHO    O117804  17.142  16.048  12.960
 2290ETHO    C117805  17.136  16.187  12.985
 2290ETHO   H1117806  17.215  16.208  13.060
 2290ETHO   H1317807  17.038  16.214  13.028
 2290ETHO    C217808  17.147  16.278  12.862
 2290ETHO   H2117809  17.100  16.375  12.892
 2290ETHO   H2317810  17.086  16.244  12.776
 2291ETHO    O117811  17.280  16.282  12.820
 2291ETHO    C117812  17.311  16.221  12.700
 2291ETHO   H1117813  17.268  16.119  12.704
 2291ETHO   H1317814  17.275  16.286  12.618
 2291ETHO    C217815  17.459  16.201  12.683
 2291ETHO   H2117816  17.519  16.294  12.681
 2291ETHO   H2317817  17.484  16.158  12.584
 2292ETHO    O117818  17.496  16.119  12.795
 2292ETHO    C117819  17.613  16.042  12.781
 2292ETHO   H1117820  17.700  16.109  12.795
 2292ETHO   H1317821  17.608  15.987  12.685
 2292ETHO    C217822  17.616  15.946  12.896
 2292ETHO   H2117823  17.670  15.851  12.874
 2292ETHO   H2317824  17.513  15.907  12.913
 2293ETHO    O117825  17.659  15.994  13.025
 2293ETHO    C117826  17.632  15.894  13.128
 2293ETHO   H1117827  17.524  15.893  13.156
 2293ETHO   H1317828  17.660  15.791  13.096
 2293ETHO    C217829  17.716  15.923  13.257
 2293ETHO   H2117830  17.693  16.030  13.280
 2293ETHO   H2317831  17.666  15.865  13.338
 2294ETHO    O117832  17.860  15.886  13.261
 2294ETHO    C117833  17.917  15.890  13.387
 2294ETHO   H1117834  17.873  15.969  13.452
 2294ETHO   H1317835  17.917  15.787  13.430
 2294ETHO    C217836  18.068  15.927  13.354
 2294ETHO   H2117837  18.062  15.999  13.269
 2294ETHO   H2317838  18.128  15.843  13.314
 2295ETHO    O117839  18.139  15.971  13.472
 2295ETHO    C117840  18.277  15.930  13.472
 2295ETHO   H1117841  18.303  15.827  13.440
 2295ETHO   H1317842  18.343  15.997  13.412
 2295ETHO    C217843  18.332  15.936  13.618
 2295ETHO   H2117844  18.400  15.849  13.632
 2295ETHO   H2317845  18.254  15.940  13.696
 2296ETHO    O117846  18.416  16.044  13.651
 2296ETHO    C117847  18.341  16.163  13.641
 2296ETHO   H1117848  18.292  16.168  13.542
 2296ETHO   H1317849  18.260  16.160  13.718
 2296ETHO    C217850  18.435  16.276  13.671
 2296ETHO   H2117851  18.501  16.296  13.584
 2296ETHO   H2317852  18.500  16.245  13.755
 2297ETHO    O117853  18.341  16.385  13.711
 2297ETHO    C117854  18.414  16.484  13.786
 2297ETHO   H1117855  18.397  16.582  13.737
 2297ETHO   H1317856  18.524  16.469  13.785
 2297ETHO    C217857  18.366  16.504  13.933
 2297ETHO   H2117858  18.403  16.420  13.997
 2297ETHO   H2317859  18.255  16.500  13.932
 2298ETHO    O117860  18.412  16.625  13.978
 2298ETHO    C117861  18.345  16.676  14.091
 2298ETHO   H1117862  18.244  16.697  14.051
 2298ETHO   H1317863  18.349  16.597  14.169
 2298ETHO    C217864  18.418  16.808  14.134
 2298ETHO   H2117865  18.379  16.874  14.214
 2298ETHO   H2317866  18.418  16.871  14.043
 2299ETHO    O117867  18.553  16.795  14.179
 2299ETHO    C117868  18.566  16.721  14.299
 2299ETHO   H1117869  18.553  16.612  14.287
 2299ETHO   H1317870  18.504  16.768  14.378
 2299ETHO    C217871  18.713  16.739  14.336
 2299ETHO   H2117872  18.730  16.687  14.433
 2299ETHO   H2317873  18.717  16.850  14.339
 2300ETHO    O117874  18.790  16.691  14.230
 2300ETHO    C117875  18.911  16.762  14.223
 2300ETHO   H1117876  18.947  16.778  14.327
 2300ETHO   H1317877  18.981  16.701  14.162
 2300ETHO    C217878  18.890  16.910  14.173
 2300ETHO   H2117879  18.815  16.974  14.224
 2300ETHO   H2317880  18.851  16.898  14.069
 2301ETHO    O117881  19.007  16.984  14.171
 2301ETHO    C117882  18.967  17.118  14.140
 2301ETHO   H1117883  18.906  17.172  14.215
 2301ETHO   H1317884  18.910  17.119  14.045
 2301ETHO    C217885  19.101  17.203  14.122
 2301ETHO   H2117886  19.151  17.157  14.034
 2301ETHO   H2317887  19.165  17.207  14.212
 2302ETHO    O117888  19.067  17.342  14.096
 2302ETHO    C117889  19.180  17.424  14.087
 2302ETHO   H1117890  19.261  17.378  14.027
 2302ETHO   H1317891  19.160  17.512  14.022
 2302ETHO    C217892  19.247  17.465  14.221
 2302ETHO   H2117893  19.358  17.460  14.210
 2302ETHO   H2317894  19.208  17.388  14.290
 2303ETHO    O117895  19.210  17.600  14.264
 2303ETHO    C117896  19.259  17.633  14.390
 2303ETHO   H1117897  19.370  17.632  14.388
 2303ETHO   H1317898  19.216  17.561  14.464
 2303ETHO    C217899  19.199  17.772  14.432
 2303ETHO   H2117900  19.193  17.777  14.543
 2303ETHO   H2317901  19.092  17.786  14.403
 2304ETHO    O117902  19.272  17.885  14.397
 2304ETHO    C117903  19.253  17.919  14.265
 2304ETHO   H1117904  19.322  17.859  14.202
 2304ETHO   H1317905  19.148  17.890  14.242
 2304ETHO    C217906  19.266  18.068  14.224
 2304ETHO   H2117907  19.192  18.119  14.289
 2304ETHO   H2317908  19.256  18.085  14.114
 2305ETHO    O117909  19.388  18.127  14.251
 2305ETHO    C117910  19.399  18.176  14.386
 2305ETHO   H1117911  19.369  18.106  14.466
 2305ETHO   H1317912  19.508  18.190  14.403
 2305ETHO    C217913  19.333  18.314  14.409
 2305ETHO   H2117914  19.378  18.395  14.348
 2305ETHO   H2317915  19.352  18.341  14.515
 2306ETHO    O117916  19.192  18.323  14.391
 2306ETHO    C117917  19.112  18.291  14.503
 2306ETHO   H1117918  19.138  18.201  14.563
 2306ETHO   H1317919  19.124  18.381  14.566
 2306ETHO    C217920  18.960  18.276  14.469
 2306ETHO   H2117921  18.929  18.359  14.401
 2306ETHO   H2317922  18.896  18.284  14.559
 2307ETHO    O117923  18.938  18.140  14.413
 2307ETHO    C117924  18.802  18.126  14.383
 2307ETHO   H1117925  18.742  18.133  14.476
 2307ETHO   H1317926  18.762  18.211  14.324
 2307ETHO    C217927  18.777  17.978  14.333
 2307ETHO   H2117928  18.827  17.905  14.401
 2307ETHO   H2317929  18.826  17.951  14.237
 2308ETHO    O117930  18.635  17.961  14.341
 2308ETHO    C117931  18.600  17.830  14.302
 2308ETHO   H1117932  18.633  17.759  14.381
 2308ETHO   H1317933  18.651  17.791  14.212
 2308ETHO    C217934  18.448  17.792  14.290
 2308ETHO   H2117935  18.397  17.827  14.383
 2308ETHO   H2317936  18.427  17.684  14.277
 2309ETHO    O117937  18.391  17.864  14.179
 2309ETHO    C117938  18.251  17.852  14.167
 2309ETHO   H1117939  18.232  17.790  14.077
 2309ETHO   H1317940  18.203  17.791  14.247
 2309ETHO    C217941  18.180  17.982  14.166
 2309ETHO   H2117942  18.210  18.054  14.245
 2309ETHO   H2317943  18.070  17.967  14.177
 2310ETHO    O117944  18.215  18.039  14.044
 2310ETHO    C117945  18.147  18.158  14.012
 2310ETHO   H1117946  18.223  18.232  13.980
 2310ETHO   H1317947  18.099  18.204  14.101
 2310ETHO    C217948  18.033  18.135  13.911
 2310ETHO   H2117949  18.085  18.145  13.813
 2310ETHO   H2317950  17.970  18.227  13.918
 2311ETHO    O117951  17.951  18.020  13.900
 2311ETHO    C117952  18.005  17.924  13.811
 2311ETHO   H1117953  17.989  17.974  13.713
 2311ETHO   H1317954  18.116  17.911  13.815
 2311ETHO    C217955  17.916  17.800  13.813
 2311ETHO   H2117956  17.886  17.758  13.911
 2311ETHO   H2317957  17.975  17.718  13.765
 2312ETHO    O117958  17.791  17.815  13.738
 2312ETHO    C117959  17.739  17.686  13.710
 2312ETHO   H1117960  17.777  17.612  13.784
 2312ETHO   H1317961  17.772  17.670  13.605
 2312ETHO    C217962  17.586  17.672  13.708
 2312ETHO   H2117963  17.561  17.581  13.650
 2312ETHO   H2317964  17.554  17.757  13.644
 2313ETHO    O117965  17.527  17.684  13.836
 2313ETHO    C117966  17.395  17.648  13.837
 2313ETHO   H1117967  17.338  17.742  13.823
 2313ETHO   H1317968  17.369  17.569  13.762
 2313ETHO    C217969  17.348  17.604  13.976
 2313ETHO   H2117970  17.237  17.604  13.986
 2313ETHO   H2317971  17.378  17.672  14.059
 2314ETHO    O117972  17.388  17.476  14.005
 2314ETHO    C117973  17.341  17.427  14.133
 2314ETHO   H1117974  17.233  17.402  14.126
 2314ETHO   H1317975  17.340  17.500  14.217
 2314ETHO    C217976  17.431  17.302  14.167
 2314ETHO   H2117977  17.426  17.245  14.072
 2314ETHO   H2317978  17.379  17.241  14.244
 2315ETHO    O117979  17.559  17.340  14.209
 2315ETHO    C117980  17.635  17.223  14.236
 2315ETHO   H1117981  17.646  17.236  14.346
 2315ETHO   H1317982  17.585  17.127  14.209
 2315ETHO    C217983  17.760  17.222  14.156
 2315ETHO   H2117984  17.834  17.155  14.206
 2315ETHO   H2317985  17.804  17.324  14.146
 2316ETHO    O117986  17.735  17.161  14.029
 2316ETHO    C117987  17.688  17.252  13.930
 2316ETHO   H1117988  17.644  17.344  13.976
 2316ETHO   H1317989  17.769  17.289  13.863
 2316ETHO    C217990  17.590  17.178  13.840
 2316ETHO   H2117991  17.534  17.255  13.783
 2316ETHO   H2317992  17.521  17.114  13.899
 2317ETHO    O117993  17.651  17.100  13.746
 2317ETHO    C117994  17.565  17.080  13.631
 2317ETHO   H1117995  17.462  17.078  13.673
 2317ETHO   H1317996  17.563  17.165  13.560
 2317ETHO    C217997  17.595  16.950  13.551
 2317ETHO   H2117998  17.507  16.918  13.492
 2317ETHO   H2317999  17.610  16.864  13.620
 2318ETHO    O118000  17.709  16.964  13.463
 2318ETHO    C118001  17.674  17.003  13.334
 2318ETHO   H1118002  17.680  16.910  13.274
 2318ETHO   H1318003  17.573  17.050  13.327
 2318ETHO    C218004  17.769  17.099  13.263
 2318ETHO   H2118005  17.876  17.072  13.275
 2318ETHO   H2318006  17.767  17.197  13.316
 2319ETHO    O118007  17.723  17.107  13.123
 2319ETHO    C118008  17.809  17.190  13.048
 2319ETHO   H1118009  17.905  17.137  13.036
 2319ETHO   H1318010  17.819  17.292  13.092
 2319ETHO    C218011  17.740  17.209  12.913
 2319ETHO   H2118012  17.709  17.109  12.874
 2319ETHO   H2318013  17.808  17.238  12.830
 2320ETHO    O118014  17.623  17.297  12.925
 2320ETHO    C118015  17.575  17.336  12.794
 2320ETHO   H1118016  17.521  17.431  12.813
 2320ETHO   H1318017  17.654  17.361  12.720
 2320ETHO    C218018  17.475  17.235  12.746
 2320ETHO   H2118019  17.523  17.136  12.730
 2320ETHO   H2318020  17.437  17.268  12.647
 2321ETHO    O118021  17.374  17.217  12.838
 2321ETHO    C118022  17.249  17.171  12.785
 2321ETHO   H1118023  17.269  17.073  12.737
 2321ETHO   H1318024  17.220  17.242  12.705
 2321ETHO    C218025  17.137  17.181  12.888
 2321ETHO   H2118026  17.047  17.154  12.828
 2321ETHO   H2318027  17.119  17.281  12.932
 2322ETHO    O118028  17.164  17.078  12.978
 2322ETHO    C118029  17.060  17.051  13.060
 2322ETHO   H1118030  17.027  17.147  13.105
 2322ETHO   H1318031  16.984  16.981  13.019
 2322ETHO    C218032  17.126  16.980  13.177
 2322ETHO   H2118033  17.059  16.958  13.263
 2322ETHO   H2318034  17.223  17.027  13.201
 2323ETHO    O118035  17.157  16.847  13.134
 2323ETHO    C118036  17.222  16.776  13.236
 2323ETHO   H1118037  17.150  16.782  13.321
 2323ETHO   H1318038  17.321  16.822  13.261
 2323ETHO    C218039  17.257  16.635  13.195
 2323ETHO   H2118040  17.159  16.599  13.157
 2323ETHO   H2318041  17.283  16.572  13.282
 2324ETHO    O118042  17.342  16.640  13.081
 2324ETHO    C118043  17.377  16.514  13.044
 2324ETHO   H1118044  17.447  16.473  13.121
 2324ETHO   H1318045  17.291  16.446  13.026
 2324ETHO    C218046  17.466  16.531  12.919
 2324ETHO   H2118047  17.408  16.597  12.851
 2324ETHO   H2318048  17.472  16.430  12.874
 2325ETHO    O118049  17.600  16.574  12.934
 2325ETHO    C118050  17.604  16.708  12.981
 2325ETHO   H1118051  17.586  16.709  13.091
 2325ETHO   H1318052  17.531  16.782  12.941
 2325ETHO    C218053  17.749  16.768  12.962
 2325ETHO   H2118054  17.817  16.688  12.997
 2325ETHO   H2318055  17.750  16.855  13.031
 2326ETHO    O118056  17.774  16.804  12.826
 2326ETHO    C118057  17.907  16.857  12.817
 2326ETHO   H1118058  17.915  16.937  12.893
 2326ETHO   H1318059  17.967  16.768  12.845
 2326ETHO    C218060  17.952  16.902  12.678
 2326ETHO   H2118061  17.920  16.828  12.602
 2326ETHO   H2318062  17.902  16.999  12.659
 2327ETHO    O118063  18.093  16.919  12.663
 2327ETHO    C118064  18.127  17.009  12.560
 2327ETHO   H1118065  18.228  17.046  12.590
 2327ETHO   H1318066  18.062  17.099  12.554
 2327ETHO    C218067  18.122  16.918  12.435
 2327ETHO   H2118068  18.113  16.977  12.341
 2327ETHO   H2318069  18.028  16.859  12.430
 2328ETHO    O118070  18.227  16.833  12.436
 2328ETHO    C118071  18.344  16.886  12.383
 2328ETHO   H1118072  18.327  16.891  12.273
 2328ETHO   H1318073  18.366  16.982  12.435
 2328ETHO    C218074  18.468  16.795  12.403
 2328ETHO   H2118075  18.471  16.751  12.505
 2328ETHO   H2318076  18.553  16.864  12.384
 2329ETHO    O118077  18.471  16.678  12.317
 2329ETHO    C118078  18.587  16.606  12.348
 2329ETHO   H1118079  18.606  16.602  12.457
 2329ETHO   H1318080  18.674  16.658  12.301
 2329ETHO    C218081  18.585  16.463  12.297
 2329ETHO   H2118082  18.687  16.421  12.312
 2329ETHO   H2318083  18.566  16.458  12.187
 2330ETHO    O118084  18.490  16.378  12.366
 2330ETHO    C118085  18.545  16.307  12.467
 2330ETHO   H1118086  18.576  16.211  12.420
 2330ETHO   H1318087  18.633  16.355  12.515
 2330ETHO    C218088  18.439  16.280  12.581
 2330ETHO   H2118089  18.469  16.212  12.663
 2330ETHO   H2318090  18.349  16.242  12.528
 2331ETHO    O118091  18.402  16.406  12.646
 2331ETHO    C118092  18.281  16.455  12.603
 2331ETHO   H1118093  18.282  16.490  12.497
 2331ETHO   H1318094  18.199  16.381  12.616
 2331ETHO    C218095  18.240  16.582  12.688
 2331ETHO   H2118096  18.153  16.630  12.638
 2331ETHO   H2318097  18.325  16.654  12.694
 2332ETHO    O118098  18.203  16.541  12.827
 2332ETHO    C118099  18.067  16.492  12.817
 2332ETHO   H1118100  17.998  16.552  12.754
 2332ETHO   H1318101  18.073  16.391  12.770
 2332ETHO    C218102  18.008  16.472  12.955
 2332ETHO   H2118103  17.985  16.574  12.993
 2332ETHO   H2318104  18.084  16.435  13.027
 2333ETHO    O118105  17.888  16.393  12.950
 2333ETHO    C118106  17.813  16.389  13.065
 2333ETHO   H1118107  17.783  16.492  13.094
 2333ETHO   H1318108  17.719  16.334  13.044
 2333ETHO    C218109  17.882  16.329  13.185
 2333ETHO   H2118110  17.928  16.232  13.158
 2333ETHO   H2318111  17.814  16.318  13.273
 2334ETHO    O118112  17.976  16.421  13.252
 2334ETHO    C118113  18.063  16.360  13.345
 2334ETHO   H1118114  18.114  16.267  13.310
 2334ETHO   H1318115  18.011  16.337  13.441
 2334ETHO    C218116  18.176  16.461  13.375
 2334ETHO   H2118117  18.247  16.409  13.443
 2334ETHO   H2318118  18.143  16.553  13.428
 2335ETHO    O118119  18.264  16.503  13.264
 2335ETHO    C118120  18.377  16.586  13.300
 2335ETHO   H1118121  18.416  16.555  13.399
 2335ETHO   H1318122  18.461  16.553  13.235
 2335ETHO    C218123  18.361  16.737  13.282
 2335ETHO   H2118124  18.436  16.796  13.340
 2335ETHO   H2318125  18.266  16.767  13.331
 2336ETHO    O118126  18.368  16.775  13.142
 2336ETHO    C118127  18.272  16.874  13.103
 2336ETHO   H1118128  18.287  16.962  13.170
 2336ETHO   H1318129  18.168  16.834  13.112
 2336ETHO    C218130  18.301  16.904  12.959
 2336ETHO   H2118131  18.212  16.958  12.920
 2336ETHO   H2318132  18.307  16.811  12.899
 2337ETHO    O118133  18.409  16.985  12.948
 2337ETHO    C118134  18.450  17.000  12.813
 2337ETHO   H1118135  18.420  16.903  12.767
 2337ETHO   H1318136  18.384  17.065  12.752
 2337ETHO    C218137  18.597  17.028  12.786
 2337ETHO   H2118138  18.655  17.018  12.880
 2337ETHO   H2318139  18.620  17.128  12.744
 2338ETHO    O118140  18.660  16.943  12.691
 2338ETHO    C118141  18.786  16.997  12.650
 2338ETHO   H1118142  18.825  17.060  12.732
 2338ETHO   H1318143  18.765  17.072  12.570
 2338ETHO    C218144  18.881  16.880  12.604
 2338ETHO   H2118145  18.841  16.800  12.670
 2338ETHO   H2318146  18.978  16.929  12.627
 2339ETHO    O118147  18.875  16.823  12.476
 2339ETHO    C118148  18.958  16.710  12.464
 2339ETHO   H1118149  19.054  16.716  12.521
 2339ETHO   H1318150  18.900  16.618  12.484
 2339ETHO    C218151  19.017  16.700  12.322
 2339ETHO   H2118152  18.941  16.735  12.249
 2339ETHO   H2318153  19.034  16.591  12.308
 2340ETHO    O118154  19.139  16.767  12.299
 2340ETHO    C118155  19.117  16.904  12.263
 2340ETHO   H1118156  19.178  16.968  12.331
 2340ETHO   H1318157  19.010  16.933  12.263
 2340ETHO    C218158  19.172  16.934  12.118
 2340ETHO   H2118159  19.137  17.035  12.088
 2340ETHO   H2318160  19.134  16.858  12.046
 2341ETHO    O118161  19.311  16.941  12.109
 2341ETHO    C118162  19.363  16.992  11.982
 2341ETHO   H1118163  19.327  16.918  11.907
 2341ETHO   H1318164  19.313  17.089  11.963
 2341ETHO    C218165  19.511  17.022  11.985
 2341ETHO   H2118166  19.540  17.109  12.047
 2341ETHO   H2318167  19.527  17.047  11.878
 2342ETHO    O118168  19.586  16.906  12.014
 2342ETHO    C118169  19.719  16.921  11.974
 2342ETHO   H1118170  19.716  16.930  11.864
 2342ETHO   H1318171  19.762  17.017  12.009
 2342ETHO    C218172  19.805  16.803  12.022
 2342ETHO   H2118173  19.869  16.783  11.933
 2342ETHO   H2318174  19.745  16.713  12.046
 2343ETHO    O118175  19.890  16.827  12.137
 2343ETHO    C118176  19.818  16.852  12.254
 2343ETHO   H1118177  19.750  16.939  12.245
 2343ETHO   H1318178  19.745  16.769  12.265
 2343ETHO    C218179  19.910  16.851  12.371
 2343ETHO   H2118180  19.947  16.747  12.387
 2343ETHO   H2318181  19.860  16.884  12.464
 2344ETHO    O118182  20.024  16.933  12.360
 2344ETHO    C118183  20.095  16.916  12.479
 2344ETHO   H1118184  20.051  16.974  12.563
 2344ETHO   H1318185  20.116  16.810  12.503
 2344ETHO    C218186  20.233  16.989  12.457
 2344ETHO   H2118187  20.277  16.941  12.366
 2344ETHO   H2318188  20.289  16.962  12.549
 2345ETHO    O118189  20.236  17.130  12.438
 2345ETHO    C118190  20.371  17.166  12.412
 2345ETHO   H1118191  20.376  17.248  12.337
 2345ETHO   H1318192  20.434  17.083  12.374
 2345ETHO    C218193  20.437  17.229  12.536
 2345ETHO   H2118194  20.546  17.220  12.520
 2345ETHO   H2318195  20.415  17.192  12.639
 2346ETHO    O118196  20.408  17.366  12.547
 2346ETHO    C118197  20.492  17.414  12.651
 2346ETHO   H1118198  20.586  17.358  12.673
 2346ETHO   H1318199  20.538  17.505  12.607
 2346ETHO    C218200  20.424  17.451  12.780
 2346ETHO   H2118201  20.509  17.472  12.848
 2346ETHO   H2318202  20.354  17.379  12.829
 2347ETHO    O118203  20.355  17.577  12.748
 2347ETHO    C118204  20.260  17.614  12.851
 2347ETHO   H1118205  20.316  17.643  12.942
 2347ETHO   H1318206  20.191  17.532  12.877
 2347ETHO    C218207  20.179  17.737  12.798
 2347ETHO   H2118208  20.243  17.820  12.761
 2347ETHO   H2318209  20.134  17.771  12.894
 2348ETHO    O118210  20.071  17.701  12.706
 2348ETHO    C118211  19.947  17.650  12.767
 2348ETHO   H1118212  19.982  17.561  12.823
 2348ETHO   H1318213  19.906  17.729  12.834
 2348ETHO    C218214  19.836  17.611  12.667
 2348ETHO   H2118215  19.749  17.562  12.717
 2348ETHO   H2318216  19.873  17.537  12.593
 2349ETHO    O118217  19.803  17.729  12.592
 2349ETHO    C118218  19.699  17.705  12.501
 2349ETHO   H1118219  19.626  17.644  12.558
 2349ETHO   H1318220  19.749  17.649  12.418
 2349ETHO    C218221  19.632  17.830  12.438
 2349ETHO   H2118222  19.581  17.791  12.347
 2349ETHO   H2318223  19.705  17.909  12.412
 2350ETHO    O118224  19.521  17.873  12.519
 2350ETHO    C118225  19.465  17.988  12.460
 2350ETHO   H1118226  19.480  17.981  12.350
 2350ETHO   H1318227  19.358  17.994  12.487
 2350ETHO    C218228  19.535  18.110  12.518
 2350ETHO   H2118229  19.482  18.203  12.489
 2350ETHO   H2318230  19.645  18.117  12.505
 2351ETHO    O118231  19.503  18.102  12.655
 2351ETHO    C118232  19.385  18.184  12.692
 2351ETHO   H1118233  19.290  18.153  12.644
 2351ETHO   H1318234  19.392  18.287  12.652
 2351ETHO    C218235  19.366  18.175  12.843
 2351ETHO   H2118236  19.360  18.067  12.866
 2351ETHO   H2318237  19.270  18.225  12.868
 2352ETHO    O118238  19.469  18.241  12.911
 2352ETHO    C118239  19.438  18.260  13.044
 2352ETHO   H1118240  19.334  18.300  13.049
 2352ETHO   H1318241  19.446  18.159  13.088
 2352ETHO    C218242  19.544  18.348  13.105
 2352ETHO   H2118243  19.518  18.374  13.209
 2352ETHO   H2318244  19.561  18.443  13.050
 2353ETHO    O118245  19.666  18.276  13.105
 2353ETHO    C118246  19.766  18.356  13.163
 2353ETHO   H1118247  19.771  18.460  13.124
 2353ETHO   H1318248  19.748  18.377  13.271
 2353ETHO    C218249  19.906  18.305  13.142
 2353ETHO   H2118250  19.932  18.214  13.199
 2353ETHO   H2318251  19.973  18.384  13.183
 2354ETHO    O118252  19.929  18.302  13.000
 2354ETHO    C118253  20.036  18.210  12.977
 2354ETHO   H1118254  20.127  18.238  13.034
 2354ETHO   H1318255  20.016  18.106  13.010
 2354ETHO    C218256  20.079  18.208  12.827
 2354ETHO   H2118257  19.996  18.174  12.763
 2354ETHO   H2318258  20.158  18.131  12.814
 2355ETHO    O118259  20.127  18.339  12.778
 2355ETHO    C118260  20.194  18.317  12.652
 2355ETHO   H1118261  20.297  18.277  12.669
 2355ETHO   H1318262  20.141  18.249  12.582
 2355ETHO    C218263  20.218  18.450  12.575
 2355ETHO   H2118264  20.118  18.496  12.556
 2355ETHO   H2318265  20.269  18.432  12.478
 2356ETHO    O118266  20.306  18.533  12.642
 2356ETHO    C118267  20.422  18.558  12.565
 2356ETHO   H1118268  20.384  18.619  12.480
 2356ETHO   H1318269  20.460  18.461  12.528
 2356ETHO    C218270  20.522  18.641  12.639
 2356ETHO   H2118271  20.470  18.733  12.674
 2356ETHO   H2318272  20.601  18.668  12.566
 2357ETHO    O118273  20.580  18.557  12.735
 2357ETHO    C118274  20.635  18.639  12.830
 2357ETHO   H1118275  20.691  18.726  12.790
 2357ETHO   H1318276  20.553  18.677  12.895
 2357ETHO    C218277  20.721  18.547  12.921
 2357ETHO   H2118278  20.682  18.443  12.929
 2357ETHO   H2318279  20.713  18.587  13.024
 2358ETHO    O118280  20.856  18.536  12.876
 2358ETHO    C118281  20.935  18.445  12.943
 2358ETHO   H1118282  20.887  18.345  12.936
 2358ETHO   H1318283  20.948  18.476  13.049
 2358ETHO    C218284  21.074  18.435  12.880
 2358ETHO   H2118285  21.058  18.434  12.770
 2358ETHO   H2318286  21.126  18.344  12.918
 2359ETHO    O118287  21.157  18.548  12.908
 2359ETHO    C118288  21.269  18.547  12.816
 2359ETHO   H1118289  21.323  18.450  12.822
 2359ETHO   H1318290  21.224  18.571  12.717
 2359ETHO    C218291  21.361  18.665  12.850
 2359ETHO   H2118292  21.430  18.669  12.763
 2359ETHO   H2318293  21.312  18.765  12.857
 2360ETHO    O118294  21.432  18.642  12.978
 2360ETHO    C118295  21.559  18.697  12.977
 2360ETHO   H1118296  21.562  18.806  12.960
 2360ETHO   H1318297  21.609  18.642  12.894
 2360ETHO    C218298  21.636  18.662  13.103
 2360ETHO   H2118299  21.589  18.690  13.200
 2360ETHO   H2318300  21.733  18.715  13.097
 2361ETHO    O118301  21.678  18.521  13.111
 2361ETHO    C118302  21.592  18.437  13.178
 2361ETHO   H1118303  21.570  18.460  13.284
 2361ETHO   H1318304  21.503  18.443  13.112
 2361ETHO    C218305  21.642  18.296  13.180
 2361ETHO   H2118306  21.669  18.250  13.083
 2361ETHO   H2318307  21.561  18.245  13.236
 2362ETHO    O118308  21.767  18.293  13.256
 2362ETHO    C118309  21.835  18.174  13.242
 2362ETHO   H1118310  21.859  18.157  13.135
 2362ETHO   H1318311  21.776  18.086  13.275
 2362ETHO    C218312  21.972  18.180  13.322
 2362ETHO   H2118313  21.985  18.079  13.366
 2362ETHO   H2318314  21.966  18.258  13.400
 2363ETHO    O118315  22.075  18.205  13.227
 2363ETHO    C118316  22.187  18.115  13.242
 2363ETHO   H1118317  22.260  18.158  13.170
 2363ETHO   H1318318  22.223  18.121  13.347
 2363ETHO    C218319  22.161  17.976  13.201
 2363ETHO   H2118320  22.092  17.973  13.115
 2363ETHO   H2318321  22.113  17.924  13.288
 2364ETHO    O118322  22.290  17.915  13.173
 2364ETHO    C118323  22.288  17.785  13.108
 2364ETHO   H1118324  22.392  17.747  13.113
 2364ETHO   H1318325  22.254  17.788  13.003
 2364ETHO    C218326  22.218  17.680  13.192
 2364ETHO   H2118327  22.249  17.579  13.158
 2364ETHO   H2318328  22.109  17.694  13.179
 2365ETHO    O118329  22.257  17.691  13.328
 2365ETHO    C118330  22.179  17.593  13.393
 2365ETHO   H1118331  22.200  17.495  13.346
 2365ETHO   H1318332  22.226  17.588  13.494
 2365ETHO    C218333  22.030  17.628  13.418
 2365ETHO   H2118334  22.022  17.737  13.398
 2365ETHO   H2318335  22.005  17.595  13.521
 2366ETHO    O118336  21.960  17.559  13.318
 2366ETHO    C118337  21.865  17.462  13.360
 2366ETHO   H1118338  21.770  17.511  13.388
 2366ETHO   H1318339  21.902  17.390  13.436
 2366ETHO    C218340  21.835  17.369  13.242
 2366ETHO   H2118341  21.766  17.284  13.262
 2366ETHO   H2318342  21.932  17.332  13.203
 2367ETHO    O118343  21.778  17.439  13.133
 2367ETHO    C118344  21.634  17.436  13.139
 2367ETHO   H1118345  21.598  17.332  13.158
 2367ETHO   H1318346  21.611  17.502  13.226
 2367ETHO    C218347  21.566  17.491  13.012
 2367ETHO   H2118348  21.627  17.575  12.974
 2367ETHO   H2318349  21.573  17.420  12.928
 2368ETHO    O118350  21.424  17.523  13.028
 2368ETHO    C118351  21.401  17.643  13.110
 2368ETHO   H1118352  21.450  17.640  13.209
 2368ETHO   H1318353  21.449  17.732  13.062
 2368ETHO    C218354  21.252  17.673  13.139
 2368ETHO   H2118355  21.246  17.761  13.206
 2368ETHO   H2318356  21.206  17.587  13.192
 2369ETHO    O118357  21.174  17.688  13.023
 2369ETHO    C118358  21.043  17.731  13.064
 2369ETHO   H1118359  20.998  17.683  13.154
 2369ETHO   H1318360  21.050  17.838  13.091
 2369ETHO    C218361  20.943  17.732  12.950
 2369ETHO   H2118362  20.946  17.635  12.894
 2369ETHO   H2318363  20.973  17.809  12.876
 2370ETHO    O118364  20.806  17.751  12.988
 2370ETHO    C118365  20.719  17.713  12.880
 2370ETHO   H1118366  20.760  17.747  12.782
 2370ETHO   H1318367  20.693  17.605  12.877
 2370ETHO    C218368  20.581  17.776  12.916
 2370ETHO   H2118369  20.554  17.738  13.017
 2370ETHO   H2318370  20.505  17.754  12.838
 2371ETHO    O118371  20.594  17.917  12.924
 2371ETHO    C118372  20.472  17.986  12.938
 2371ETHO   H1118373  20.412  17.941  13.021
 2371ETHO   H1318374  20.422  17.975  12.840
 2371ETHO    C218375  20.487  18.140  12.968
 2371ETHO   H2118376  20.386  18.185  12.952
 2371ETHO   H2318377  20.551  18.183  12.888
 2372ETHO    O118378  20.535  18.176  13.095
 2372ETHO    C118379  20.672  18.169  13.107
 2372ETHO   H1118380  20.703  18.064  13.087
 2372ETHO   H1318381  20.707  18.244  13.033
 2372ETHO    C218382  20.717  18.197  13.249
 2372ETHO   H2118383  20.803  18.133  13.281
 2372ETHO   H2318384  20.636  18.172  13.321
 2373ETHO    O118385  20.743  18.335  13.266
 2373ETHO    C118386  20.815  18.367  13.383
 2373ETHO   H1118387  20.788  18.299  13.468
 2373ETHO   H1318388  20.789  18.464  13.429
 2373ETHO    C218389  20.971  18.382  13.369
 2373ETHO   H2118390  21.025  18.408  13.463
 2373ETHO   H2318391  20.978  18.467  13.298
 2374ETHO    O118392  21.033  18.270  13.307
 2374ETHO    C118393  21.167  18.284  13.272
 2374ETHO   H1118394  21.180  18.371  13.205
 2374ETHO   H1318395  21.227  18.319  13.359
 2374ETHO    C218396  21.237  18.159  13.217
 2374ETHO   H2118397  21.190  18.071  13.266
 2374ETHO   H2318398  21.338  18.162  13.263
 2375ETHO    O118399  21.235  18.159  13.077
 2375ETHO    C118400  21.283  18.036  13.025
 2375ETHO   H1118401  21.229  17.954  13.077
 2375ETHO   H1318402  21.391  18.026  13.049
 2375ETHO    C218403  21.263  18.037  12.869
 2375ETHO   H2118404  21.328  17.960  12.822
 2375ETHO   H2318405  21.299  18.134  12.829
 2376ETHO    O118406  21.124  18.027  12.847
 2376ETHO    C118407  21.088  18.022  12.714
 2376ETHO   H1118408  21.155  17.952  12.658
 2376ETHO   H1318409  20.982  17.989  12.714
 2376ETHO    C218410  21.097  18.163  12.641
 2376ETHO   H2118411  21.207  18.179  12.647
 2376ETHO   H2318412  21.033  18.230  12.701
 2377ETHO    O118413  21.062  18.155  12.503
 2377ETHO    C118414  21.127  18.251  12.423
 2377ETHO   H1118415  21.236  18.231  12.414
 2377ETHO   H1318416  21.108  18.351  12.469
 2377ETHO    C218417  21.068  18.235  12.282
 2377ETHO   H2118418  21.083  18.337  12.240
 2377ETHO   H2318419  20.958  18.232  12.295
 2378ETHO    O118420  21.136  18.136  12.200
 2378ETHO    C118421  21.097  18.149  12.067
 2378ETHO   H1118422  20.986  18.155  12.072
 2378ETHO   H1318423  21.126  18.249  12.029
 2378ETHO    C218424  21.148  18.041  11.972
 2378ETHO   H2118425  21.097  18.018  11.877
 2378ETHO   H2318426  21.128  17.947  12.028
 2379ETHO    O118427  21.292  18.035  11.948
 2379ETHO    C118428  21.336  17.946  11.856
 2379ETHO   H1118429  21.283  17.849  11.852
 2379ETHO   H1318430  21.308  17.997  11.761
 2379ETHO    C218431  21.487  17.937  11.865
 2379ETHO   H2118432  21.538  18.036  11.869
 2379ETHO   H2318433  21.525  17.900  11.768
 2380ETHO    O118434  21.529  17.858  11.976
 2380ETHO    C118435  21.667  17.814  11.969
 2380ETHO   H1118436  21.689  17.766  11.871
 2380ETHO   H1318437  21.730  17.904  11.987
 2380ETHO    C218438  21.695  17.716  12.084
 2380ETHO   H2118439  21.660  17.753  12.182
 2380ETHO   H2318440  21.803  17.696  12.098
 2381ETHO    O118441  21.637  17.592  12.049
 2381ETHO    C118442  21.671  17.489  12.137
 2381ETHO   H1118443  21.778  17.496  12.167
 2381ETHO   H1318444  21.617  17.504  12.232
 2381ETHO    C218445  21.647  17.335  12.095
 2381ETHO   H2118446  21.720  17.284  12.162
 2381ETHO   H2318447  21.695  17.333  11.995
 2382ETHO    O118448  21.521  17.280  12.105
 2382ETHO    C118449  21.526  17.139  12.089
 2382ETHO   H1118450  21.596  17.103  12.168
 2382ETHO   H1318451  21.581  17.113  11.996
 2382ETHO    C218452  21.390  17.057  12.103
 2382ETHO   H2118453  21.397  16.954  12.063
 2382ETHO   H2318454  21.311  17.113  12.048
 2383ETHO    O118455  21.360  17.047  12.243
 2383ETHO    C118456  21.426  16.938  12.306
 2383ETHO   H1118457  21.534  16.962  12.322
 2383ETHO   H1318458  21.430  16.847  12.242
 2383ETHO    C218459  21.370  16.896  12.442
 2383ETHO   H2118460  21.424  16.804  12.474
 2383ETHO   H2318461  21.262  16.867  12.444
 2384ETHO    O118462  21.372  16.998  12.539
 2384ETHO    C118463  21.323  16.957  12.663
 2384ETHO   H1118464  21.383  16.867  12.690
 2384ETHO   H1318465  21.217  16.924  12.662
 2384ETHO    C218466  21.348  17.065  12.778
 2384ETHO   H2118467  21.453  17.080  12.810
 2384ETHO   H2318468  21.289  17.039  12.868
 2385ETHO    O118469  21.290  17.188  12.730
 2385ETHO    C118470  21.266  17.279  12.835
 2385ETHO   H1118471  21.179  17.244  12.894
 2385ETHO   H1318472  21.353  17.286  12.905
 2385ETHO    C218473  21.224  17.415  12.777
 2385ETHO   H2118474  21.303  17.466  12.718
 2385ETHO   H2318475  21.204  17.489  12.858
 2385ETHO    OZ18476  21.109  17.397  12.698
 2385ETHO   HZ118477  21.083  17.480  12.656
 2386ETHO    O118478   6.799  14.134  17.245
 2386ETHO   HO118479   6.875  14.191  17.258
 2386ETHO    C118480   6.690  14.216  17.267
 2386ETHO   H1118481   6.722  14.317  17.300
 2386ETHO   H1318482   6.619  14.177  17.343
 2386ETHO    C218483   6.605  14.233  17.138
 2386ETHO   H2118484   6.677  14.241  17.054
 2386ETHO   H2318485   6.552  14.330  17.145
 2387ETHO    O118486   6.506  14.129  17.120
 2387ETHO    C118487   6.460  14.123  16.988
 2387ETHO   H1118488   6.428  14.226  16.964
 2387ETHO   H1318489   6.541  14.098  16.917
 2387ETHO    C218490   6.348  14.021  16.965
 2387ETHO   H2118491   6.321  14.030  16.858
 2387ETHO   H2318492   6.253  14.037  17.020
 2388ETHO    O118493   6.396  13.892  16.995
 2388ETHO    C118494   6.305  13.801  16.937
 2388ETHO   H1118495   6.298  13.818  16.828
 2388ETHO   H1318496   6.210  13.832  16.986
 2388ETHO    C218497   6.350  13.654  16.973
 2388ETHO   H2118498   6.267  13.589  16.938
 2388ETHO   H2318499   6.364  13.636  17.082
 2389ETHO    O118500   6.462  13.619  16.893
 2389ETHO    C118501   6.584  13.610  16.974
 2389ETHO   H1118502   6.677  13.613  16.913
 2389ETHO   H1318503   6.571  13.691  17.049
 2389ETHO    C218504   6.580  13.483  17.049
 2389ETHO   H2118505   6.477  13.453  17.078
 2389ETHO   H2318506   6.626  13.517  17.145
 2390ETHO    O118507   6.649  13.370  16.996
 2390ETHO    C118508   6.596  13.298  16.889
 2390ETHO   H1118509   6.497  13.268  16.929
 2390ETHO   H1318510   6.574  13.359  16.799
 2390ETHO    C218511   6.693  13.182  16.849
 2390ETHO   H2118512   6.642  13.097  16.799
 2390ETHO   H2318513   6.736  13.147  16.945
 2391ETHO    O118514   6.793  13.235  16.766
 2391ETHO    C118515   6.863  13.127  16.705
 2391ETHO   H1118516   6.881  13.036  16.767
 2391ETHO   H1318517   6.794  13.087  16.628
 2391ETHO    C218518   6.992  13.171  16.636
 2391ETHO   H2118519   7.046  13.080  16.601
 2391ETHO   H2318520   7.058  13.231  16.702
 2392ETHO    O118521   6.964  13.250  16.521
 2392ETHO    C118522   7.088  13.269  16.445
 2392ETHO   H1118523   7.160  13.316  16.515
 2392ETHO   H1318524   7.129  13.171  16.413
 2392ETHO    C218525   7.052  13.334  16.313
 2392ETHO   H2118526   6.953  13.295  16.280
 2392ETHO   H2318527   7.133  13.323  16.238
 2393ETHO    O118528   7.041  13.475  16.334
 2393ETHO    C118529   7.040  13.541  16.210
 2393ETHO   H1118530   6.945  13.506  16.164
 2393ETHO   H1318531   7.130  13.511  16.153
 2393ETHO    C218532   7.030  13.687  16.230
 2393ETHO   H2118533   6.943  13.711  16.295
 2393ETHO   H2318534   7.003  13.739  16.136
 2394ETHO    O118535   7.150  13.752  16.285
 2394ETHO    C118536   7.138  13.894  16.295
 2394ETHO   H1118537   7.117  13.939  16.196
 2394ETHO   H1318538   7.055  13.928  16.362
 2394ETHO    C218539   7.267  13.962  16.343
 2394ETHO   H2118540   7.313  13.906  16.427
 2394ETHO   H2318541   7.248  14.064  16.381
 2395ETHO    O118542   7.353  13.962  16.231
 2395ETHO    C118543   7.490  13.995  16.251
 2395ETHO   H1118544   7.530  13.905  16.302
 2395ETHO   H1318545   7.502  14.084  16.316
 2395ETHO    C218546   7.566  14.004  16.116
 2395ETHO   H2118547   7.540  13.922  16.046
 2395ETHO   H2318548   7.673  13.983  16.138
 2396ETHO    O118549   7.553  14.134  16.058
 2396ETHO    C118550   7.491  14.138  15.928
 2396ETHO   H1118551   7.548  14.062  15.869
 2396ETHO   H1318552   7.383  14.113  15.936
 2396ETHO    C218553   7.501  14.277  15.860
 2396ETHO   H2118554   7.438  14.259  15.771
 2396ETHO   H2318555   7.453  14.339  15.938
 2397ETHO    O118556   7.637  14.315  15.822
 2397ETHO    C118557   7.640  14.435  15.741
 2397ETHO   H1118558   7.638  14.528  15.801
 2397ETHO   H1318559   7.568  14.431  15.656
 2397ETHO    C218560   7.772  14.428  15.662
 2397ETHO   H2118561   7.781  14.494  15.573
 2397ETHO   H2318562   7.771  14.322  15.631
 2398ETHO    O118563   7.890  14.464  15.729
 2398ETHO    C118564   8.006  14.443  15.649
 2398ETHO   H1118565   7.988  14.349  15.592
 2398ETHO   H1318566   8.016  14.524  15.574
 2398ETHO    C218567   8.136  14.417  15.735
 2398ETHO   H2118568   8.217  14.367  15.677
 2398ETHO   H2318569   8.115  14.358  15.827
 2399ETHO    O118570   8.184  14.536  15.783
 2399ETHO    C118571   8.319  14.528  15.821
 2399ETHO   H1118572   8.389  14.555  15.740
 2399ETHO   H1318573   8.338  14.426  15.861
 2399ETHO    C218574   8.340  14.634  15.928
 2399ETHO   H2118575   8.307  14.733  15.889
 2399ETHO   H2318576   8.448  14.631  15.953
 2400ETHO    O118577   8.268  14.617  16.043
 2400ETHO    C118578   8.305  14.711  16.143
 2400ETHO   H1118579   8.416  14.710  16.156
 2400ETHO   H1318580   8.282  14.815  16.113
 2400ETHO    C218581   8.226  14.689  16.273
 2400ETHO   H2118582   8.235  14.582  16.303
 2400ETHO   H2318583   8.273  14.737  16.362
 2401ETHO    O118584   8.088  14.728  16.267
 2401ETHO    C118585   8.007  14.690  16.374
 2401ETHO   H1118586   7.910  14.658  16.331
 2401ETHO   H1318587   8.044  14.599  16.426
 2401ETHO    C218588   7.982  14.801  16.477
 2401ETHO   H2118589   8.068  14.871  16.486
 2401ETHO   H2318590   7.962  14.767  16.581
 2402ETHO    O118591   7.862  14.871  16.443
 2402ETHO    C118592   7.825  14.961  16.544
 2402ETHO   H1118593   7.782  14.907  16.631
 2402ETHO   H1318594   7.907  15.007  16.604
 2402ETHO    C218595   7.737  15.063  16.486
 2402ETHO   H2118596   7.724  15.146  16.559
 2402ETHO   H2318597   7.637  15.018  16.467
 2403ETHO    O118598   7.784  15.122  16.364
 2403ETHO    C118599   7.683  15.157  16.273
 2403ETHO   H1118600   7.657  15.057  16.231
 2403ETHO   H1318601   7.592  15.197  16.321
 2403ETHO    C218602   7.737  15.240  16.153
 2403ETHO   H2118603   7.664  15.236  16.069
 2403ETHO   H2318604   7.835  15.195  16.128
 2404ETHO    O118605   7.763  15.375  16.195
 2404ETHO    C118606   7.826  15.449  16.090
 2404ETHO   H1118607   7.777  15.429  15.991
 2404ETHO   H1318608   7.934  15.424  16.088
 2404ETHO    C218609   7.817  15.600  16.128
 2404ETHO   H2118610   7.885  15.647  16.054
 2404ETHO   H2318611   7.861  15.613  16.229
 2405ETHO    O118612   7.686  15.655  16.105
 2405ETHO    C118613   7.621  15.672  16.227
 2405ETHO   H1118614   7.697  15.706  16.301
 2405ETHO   H1318615   7.548  15.755  16.222
 2405ETHO    C218616   7.528  15.565  16.284
 2405ETHO   H2118617   7.527  15.559  16.395
 2405ETHO   H2318618   7.568  15.470  16.241
 2406ETHO    O118619   7.398  15.585  16.242
 2406ETHO    C118620   7.308  15.481  16.282
 2406ETHO   H1118621   7.296  15.500  16.391
 2406ETHO   H1318622   7.355  15.383  16.256
 2406ETHO    C218623   7.194  15.495  16.184
 2406ETHO   H2118624   7.147  15.395  16.173
 2406ETHO   H2318625   7.234  15.519  16.083
 2407ETHO    O118626   7.111  15.594  16.233
 2407ETHO    C118627   7.007  15.622  16.145
 2407ETHO   H1118628   7.021  15.721  16.096
 2407ETHO   H1318629   6.988  15.533  16.082
 2407ETHO    C218630   6.880  15.644  16.237
 2407ETHO   H2118631   6.895  15.721  16.316
 2407ETHO   H2318632   6.789  15.663  16.177
 2408ETHO    O118633   6.844  15.519  16.293
 2408ETHO    C118634   6.718  15.521  16.352
 2408ETHO   H1118635   6.700  15.618  16.402
 2408ETHO   H1318636   6.727  15.441  16.429
 2408ETHO    C218637   6.604  15.495  16.256
 2408ETHO   H2118638   6.617  15.395  16.210
 2408ETHO   H2318639   6.595  15.575  16.180
 2409ETHO    O118640   6.489  15.477  16.332
 2409ETHO    C118641   6.374  15.457  16.255
 2409ETHO   H1118642   6.332  15.551  16.214
 2409ETHO   H1318643   6.415  15.393  16.174
 2409ETHO    C218644   6.265  15.390  16.345
 2409ETHO   H2118645   6.328  15.315  16.398
 2409ETHO   H2318646   6.195  15.337  16.276
 2410ETHO    O118647   6.188  15.478  16.423
 2410ETHO    C118648   6.157  15.414  16.549
 2410ETHO   H1118649   6.251  15.391  16.603
 2410ETHO   H1318650   6.100  15.319  16.543
 2410ETHO    C218651   6.086  15.515  16.636
 2410ETHO   H2118652   6.141  15.610  16.625
 2410ETHO   H2318653   6.094  15.485  16.743
 2411ETHO    O118654   5.945  15.534  16.593
 2411ETHO    C118655   5.872  15.626  16.676
 2411ETHO   H1118656   5.938  15.715  16.684
 2411ETHO   H1318657   5.780  15.665  16.628
 2411ETHO    C218658   5.823  15.577  16.804
 2411ETHO   H2118659   5.752  15.493  16.792
 2411ETHO   H2318660   5.774  15.661  16.858
 2412ETHO    O118661   5.926  15.539  16.897
 2412ETHO    C118662   5.877  15.526  17.033
 2412ETHO   H1118663   5.940  15.450  17.086
 2412ETHO   H1318664   5.771  15.494  17.036
 2412ETHO    C218665   5.902  15.663  17.121
 2412ETHO   H2118666   6.008  15.694  17.106
 2412ETHO   H2318667   5.877  15.642  17.227
 2413ETHO    O118668   5.815  15.771  17.083
 2413ETHO    C118669   5.833  15.885  17.162
 2413ETHO   H1118670   5.741  15.946  17.158
 2413ETHO   H1318671   5.854  15.861  17.268
 2413ETHO    C218672   5.955  15.962  17.110
 2413ETHO   H2118673   5.948  16.069  17.138
 2413ETHO   H2318674   5.961  15.955  16.999
 2414ETHO    O118675   6.070  15.916  17.178
 2414ETHO    C118676   6.161  16.022  17.201
 2414ETHO   H1118677   6.111  16.117  17.229
 2414ETHO   H1318678   6.219  16.037  17.107
 2414ETHO    C218679   6.268  15.996  17.303
 2414ETHO   H2118680   6.329  16.089  17.302
 2414ETHO   H2318681   6.323  15.906  17.270
 2415ETHO    O118682   6.219  15.994  17.441
 2415ETHO    C118683   6.256  15.869  17.511
 2415ETHO   H1118684   6.328  15.816  17.446
 2415ETHO   H1318685   6.302  15.890  17.610
 2415ETHO    C218686   6.137  15.764  17.522
 2415ETHO   H2118687   6.173  15.666  17.558
 2415ETHO   H2318688   6.097  15.748  17.420
 2416ETHO    O118689   6.024  15.807  17.604
 2416ETHO    C118690   5.910  15.715  17.591
 2416ETHO   H1118691   5.896  15.700  17.481
 2416ETHO   H1318692   5.933  15.615  17.634
 2416ETHO    C218693   5.785  15.778  17.654
 2416ETHO   H2118694   5.827  15.821  17.747
 2416ETHO   H2318695   5.707  15.701  17.670
 2417ETHO    O118696   5.732  15.881  17.563
 2417ETHO    C118697   5.630  15.955  17.625
 2417ETHO   H1118698   5.551  15.886  17.662
 2417ETHO   H1318699   5.670  16.012  17.711
 2417ETHO    C218700   5.580  16.057  17.518
 2417ETHO   H2118701   5.658  16.127  17.483
 2417ETHO   H2318702   5.509  16.124  17.571
 2418ETHO    O118703   5.517  15.992  17.406
 2418ETHO    C118704   5.459  16.086  17.317
 2418ETHO   H1118705   5.383  16.137  17.380
 2418ETHO   H1318706   5.537  16.157  17.282
 2418ETHO    C218707   5.394  16.038  17.174
 2418ETHO   H2118708   5.364  16.133  17.125
 2418ETHO   H2318709   5.310  15.969  17.199
 2419ETHO    O118710   5.504  15.980  17.099
 2419ETHO    C118711   5.460  15.951  16.969
 2419ETHO   H1118712   5.410  16.036  16.917
 2419ETHO   H1318713   5.390  15.866  16.979
 2419ETHO    C218714   5.583  15.912  16.878
 2419ETHO   H2118715   5.537  15.868  16.787
 2419ETHO   H2318716   5.642  15.835  16.932
 2420ETHO    O118717   5.673  16.010  16.826
 2420ETHO    C118718   5.776  15.951  16.756
 2420ETHO   H1118719   5.844  15.905  16.832
 2420ETHO   H1318720   5.735  15.870  16.693
 2420ETHO    C218721   5.852  16.044  16.665
 2420ETHO   H2118722   5.780  16.081  16.589
 2420ETHO   H2318723   5.921  15.981  16.604
 2421ETHO    O118724   5.930  16.150  16.729
 2421ETHO    C118725   6.016  16.213  16.642
 2421ETHO   H1118726   5.981  16.317  16.622
 2421ETHO   H1318727   6.027  16.151  16.551
 2421ETHO    C218728   6.161  16.227  16.705
 2421ETHO   H2118729   6.248  16.255  16.642
 2421ETHO   H2318730   6.192  16.132  16.754
 2422ETHO    O118731   6.162  16.319  16.812
 2422ETHO    C118732   6.271  16.286  16.899
 2422ETHO   H1118733   6.235  16.205  16.965
 2422ETHO   H1318734   6.361  16.249  16.846
 2422ETHO    C218735   6.319  16.414  16.979
 2422ETHO   H2118736   6.398  16.391  17.055
 2422ETHO   H2318737   6.232  16.460  17.030
 2423ETHO    O118738   6.373  16.510  16.898
 2423ETHO    C118739   6.421  16.619  16.969
 2423ETHO   H1118740   6.527  16.614  17.003
 2423ETHO   H1318741   6.372  16.629  17.069
 2423ETHO    C218742   6.393  16.745  16.891
 2423ETHO   H2118743   6.430  16.834  16.946
 2423ETHO   H2318744   6.283  16.751  16.874
 2424ETHO    O118745   6.454  16.748  16.759
 2424ETHO    C118746   6.421  16.874  16.698
 2424ETHO   H1118747   6.319  16.908  16.725
 2424ETHO   H1318748   6.496  16.954  16.721
 2424ETHO    C218749   6.416  16.861  16.541
 2424ETHO   H2118750   6.501  16.806  16.495
 2424ETHO   H2318751   6.419  16.961  16.494
 2425ETHO    O118752   6.288  16.802  16.512
 2425ETHO    C118753   6.271  16.794  16.370
 2425ETHO   H1118754   6.367  16.761  16.326
 2425ETHO   H1318755   6.228  16.889  16.331
 2425ETHO    C218756   6.176  16.675  16.346
 2425ETHO   H2118757   6.128  16.684  16.246
 2425ETHO   H2318758   6.100  16.670  16.427
 2426ETHO    O118759   6.252  16.553  16.348
 2426ETHO    C118760   6.171  16.438  16.351
 2426ETHO   H1118761   6.113  16.432  16.446
 2426ETHO   H1318762   6.093  16.452  16.273
 2426ETHO    C218763   6.247  16.308  16.329
 2426ETHO   H2118764   6.286  16.279  16.429
 2426ETHO   H2318765   6.333  16.326  16.260
 2427ETHO    O118766   6.169  16.206  16.268
 2427ETHO    C118767   6.214  16.069  16.278
 2427ETHO   H1118768   6.290  16.055  16.197
 2427ETHO   H1318769   6.251  16.045  16.380
 2427ETHO    C218770   6.111  15.967  16.261
 2427ETHO   H2118771   6.174  15.875  16.260
 2427ETHO   H2318772   6.053  15.976  16.166
 2428ETHO    O118773   6.009  15.954  16.359
 2428ETHO    C118774   5.920  15.844  16.335
 2428ETHO   H1118775   5.852  15.834  16.422
 2428ETHO   H1318776   5.859  15.862  16.244
 2428ETHO    C218777   5.988  15.704  16.309
 2428ETHO   H2118778   5.912  15.625  16.326
 2428ETHO   H2318779   6.063  15.696  16.391
 2429ETHO    O118780   6.057  15.681  16.186
 2429ETHO    C118781   5.979  15.597  16.096
 2429ETHO   H1118782   5.992  15.490  16.121
 2429ETHO   H1318783   5.871  15.623  16.094
 2429ETHO    C218784   6.038  15.611  15.951
 2429ETHO   H2118785   6.034  15.718  15.921
 2429ETHO   H2318786   5.986  15.555  15.870
 2430ETHO    O118787   6.172  15.561  15.949
 2430ETHO    C118788   6.244  15.604  15.832
 2430ETHO   H1118789   6.176  15.600  15.743
 2430ETHO   H1318790   6.315  15.524  15.806
 2430ETHO    C218791   6.302  15.737  15.819
 2430ETHO   H2118792   6.234  15.821  15.841
 2430ETHO   H2318793   6.335  15.755  15.714
 2431ETHO    O118794   6.419  15.762  15.899
 2431ETHO    C118795   6.383  15.821  16.029
 2431ETHO   H1118796   6.312  15.906  16.034
 2431ETHO   H1318797   6.330  15.742  16.087
 2431ETHO    C218798   6.515  15.864  16.097
 2431ETHO   H2118799   6.582  15.935  16.045
 2431ETHO   H2318800   6.569  15.768  16.113
 2432ETHO    O118801   6.493  15.928  16.220
 2432ETHO    C118802   6.618  15.980  16.269
 2432ETHO   H1118803   6.637  16.069  16.206
 2432ETHO   H1318804   6.699  15.904  16.266
 2432ETHO    C218805   6.613  16.024  16.414
 2432ETHO   H2118806   6.517  16.070  16.446
 2432ETHO   H2318807   6.685  16.108  16.428
 2433ETHO    O118808   6.642  15.914  16.499
 2433ETHO    C118809   6.670  15.955  16.634
 2433ETHO   H1118810   6.700  15.865  16.692
 2433ETHO   H1318811   6.762  16.017  16.627
 2433ETHO    C218812   6.565  16.049  16.707
 2433ETHO   H2118813   6.470  15.994  16.723
 2433ETHO   H2318814   6.612  16.061  16.807
 2434ETHO    O118815   6.542  16.174  16.645
 2434ETHO    C118816   6.611  16.279  16.715
 2434ETHO   H1118817   6.720  16.267  16.692
 2434ETHO   H1318818   6.590  16.268  16.823
 2434ETHO    C218819   6.586  16.421  16.657
 2434ETHO   H2118820   6.622  16.490  16.736
 2434ETHO   H2318821   6.477  16.438  16.642
 2435ETHO    O118822   6.653  16.446  16.535
 2435ETHO    C118823   6.587  16.404  16.415
 2435ETHO   H1118824   6.564  16.296  16.425
 2435ETHO   H1318825   6.486  16.448  16.406
 2435ETHO    C218826   6.663  16.450  16.290
 2435ETHO   H2118827   6.662  16.561  16.286
 2435ETHO   H2318828   6.613  16.400  16.204
 2436ETHO    O118829   6.793  16.401  16.298
 2436ETHO    C118830   6.855  16.411  16.166
 2436ETHO   H1118831   6.821  16.509  16.125
 2436ETHO   H1318832   6.806  16.344  16.093
 2436ETHO    C218833   7.008  16.386  16.170
 2436ETHO   H2118834   7.021  16.282  16.205
 2436ETHO   H2318835   7.057  16.461  16.235
 2437ETHO    O118836   7.069  16.399  16.046
 2437ETHO    C118837   7.015  16.315  15.947
 2437ETHO   H1118838   6.967  16.223  15.987
 2437ETHO   H1318839   6.937  16.372  15.893
 2437ETHO    C218840   7.124  16.266  15.848
 2437ETHO   H2118841   7.085  16.198  15.770
 2437ETHO   H2318842   7.197  16.200  15.900
 2438ETHO    O118843   7.196  16.382  15.799
 2438ETHO    C118844   7.304  16.340  15.723
 2438ETHO   H1118845   7.385  16.300  15.787
 2438ETHO   H1318846   7.272  16.263  15.650
 2438ETHO    C218847   7.362  16.461  15.654
 2438ETHO   H2118848   7.396  16.532  15.733
 2438ETHO   H2318849   7.277  16.519  15.612
 2439ETHO    O118850   7.457  16.440  15.553
 2439ETHO    C118851   7.580  16.406  15.613
 2439ETHO   H1118852   7.614  16.489  15.679
 2439ETHO   H1318853   7.561  16.310  15.665
 2439ETHO    C218854   7.696  16.378  15.519
 2439ETHO   H2118855   7.797  16.376  15.567
 2439ETHO   H2318856   7.696  16.450  15.435
 2440ETHO    O118857   7.665  16.251  15.461
 2440ETHO    C118858   7.779  16.217  15.379
 2440ETHO   H1118859   7.772  16.259  15.276
 2440ETHO   H1318860   7.872  16.255  15.427
 2440ETHO    C218861   7.799  16.064  15.371
 2440ETHO   H2118862   7.878  16.034  15.298
 2440ETHO   H2318863   7.843  16.031  15.467
 2441ETHO    O118864   7.674  15.988  15.359
 2441ETHO    C118865   7.688  15.850  15.388
 2441ETHO   H1118866   7.725  15.836  15.492
 2441ETHO   H1318867   7.762  15.806  15.318
 2441ETHO    C218868   7.557  15.770  15.363
 2441ETHO   H2118869   7.472  15.824  15.410
 2441ETHO   H2318870   7.576  15.674  15.415
 2442ETHO    O118871   7.517  15.734  15.233
 2442ETHO    C118872   7.620  15.664  15.168
 2442ETHO   H1118873   7.719  15.712  15.153
 2442ETHO   H1318874   7.635  15.572  15.228
 2442ETHO    C218875   7.576  15.618  15.024
 2442ETHO   H2118876   7.488  15.550  15.032
 2442ETHO   H2318877   7.659  15.551  14.993
 2443ETHO    O118878   7.559  15.715  14.927
 2443ETHO    C118879   7.439  15.785  14.919
 2443ETHO   H1118880   7.414  15.829  15.017
 2443ETHO   H1318881   7.366  15.702  14.910
 2443ETHO    C218882   7.421  15.890  14.802
 2443ETHO   H2118883   7.499  15.969  14.800
 2443ETHO   H2318884   7.320  15.935  14.810
 2444ETHO    O118885   7.420  15.821  14.683
 2444ETHO    C118886   7.417  15.898  14.565
 2444ETHO   H1118887   7.517  15.949  14.566
 2444ETHO   H1318888   7.386  15.832  14.481
 2444ETHO    C218889   7.329  16.023  14.556
 2444ETHO   H2118890   7.356  16.076  14.462
 2444ETHO   H2318891   7.353  16.089  14.642
 2445ETHO    O118892   7.197  15.984  14.560
 2445ETHO    C118893   7.117  16.103  14.547
 2445ETHO   H1118894   7.144  16.158  14.455
 2445ETHO   H1318895   7.131  16.160  14.641
 2445ETHO    C218896   6.976  16.042  14.547
 2445ETHO   H2118897   6.974  15.939  14.506
 2445ETHO   H2318898   6.909  16.102  14.481
 2446ETHO    O118899   6.907  16.039  14.676
 2446ETHO    C118900   6.964  15.959  14.775
 2446ETHO   H1118901   6.912  15.863  14.758
 2446ETHO   H1318902   7.073  15.936  14.765
 2446ETHO    C218903   6.936  15.994  14.925
 2446ETHO   H2118904   7.001  15.933  14.990
 2446ETHO   H2318905   6.830  15.966  14.945
 2447ETHO    O118906   6.960  16.127  14.973
 2447ETHO    C118907   7.099  16.173  14.971
 2447ETHO   H1118908   7.145  16.171  14.870
 2447ETHO   H1318909   7.152  16.090  15.023
 2447ETHO    C218910   7.114  16.309  15.042
 2447ETHO   H2118911   7.068  16.390  14.981
 2447ETHO   H2318912   7.221  16.339  15.040
 2448ETHO    O118913   7.074  16.312  15.179
 2448ETHO    C118914   7.100  16.440  15.244
 2448ETHO   H1118915   7.205  16.456  15.274
 2448ETHO   H1318916   7.067  16.519  15.173
 2448ETHO    C218917   7.013  16.457  15.370
 2448ETHO   H2118918   7.059  16.540  15.428
 2448ETHO   H2318919   7.032  16.367  15.432
 2449ETHO    O118920   6.879  16.470  15.334
 2449ETHO    C118921   6.823  16.597  15.358
 2449ETHO   H1118922   6.900  16.672  15.332
 2449ETHO   H1318923   6.797  16.611  15.465
 2449ETHO    C218924   6.702  16.630  15.271
 2449ETHO   H2118925   6.718  16.594  15.167
 2449ETHO   H2318926   6.672  16.737  15.276
 2450ETHO    O118927   6.580  16.574  15.320
 2450ETHO    C118928   6.461  16.583  15.239
 2450ETHO   H1118929   6.444  16.688  15.207
 2450ETHO   H1318930   6.470  16.517  15.150
 2450ETHO    C218931   6.345  16.548  15.333
 2450ETHO   H2118932   6.384  16.483  15.414
 2450ETHO   H2318933   6.279  16.481  15.274
 2451ETHO    O118934   6.279  16.659  15.400
 2451ETHO    C118935   6.153  16.615  15.442
 2451ETHO   H1118936   6.161  16.519  15.498
 2451ETHO   H1318937   6.099  16.586  15.350
 2451ETHO    C218938   6.071  16.722  15.517
 2451ETHO   H2118939   6.035  16.796  15.442
 2451ETHO   H2318940   6.131  16.765  15.601
 2452ETHO    O118941   5.961  16.659  15.577
 2452ETHO    C118942   5.857  16.749  15.612
 2452ETHO   H1118943   5.893  16.828  15.683
 2452ETHO   H1318944   5.814  16.800  15.524
 2452ETHO    C218945   5.741  16.674  15.670
 2452ETHO   H2118946   5.674  16.744  15.725
 2452ETHO   H2318947   5.774  16.598  15.744
 2453ETHO    O118948   5.667  16.627  15.556
 2453ETHO    C118949   5.599  16.508  15.594
 2453ETHO   H1118950   5.657  16.443  15.663
 2453ETHO   H1318951   5.503  16.545  15.634
 2453ETHO    C218952   5.547  16.441  15.469
 2453ETHO   H2118953   5.482  16.357  15.503
 2453ETHO   H2318954   5.635  16.407  15.410
 2454ETHO    O118955   5.483  16.530  15.377
 2454ETHO    C118956   5.425  16.450  15.275
 2454ETHO   H1118957   5.442  16.502  15.178
 2454ETHO   H1318958   5.469  16.350  15.255
 2454ETHO    C218959   5.273  16.433  15.294
 2454ETHO   H2118960   5.257  16.372  15.385
 2454ETHO   H2318961   5.225  16.378  15.210
 2455ETHO    O118962   5.211  16.553  15.281
 2455ETHO    C118963   5.074  16.546  15.311
 2455ETHO   H1118964   5.031  16.627  15.248
 2455ETHO   H1318965   5.034  16.450  15.273
 2455ETHO    C218966   5.020  16.568  15.453
 2455ETHO   H2118967   5.097  16.513  15.511
 2455ETHO   H2318968   4.927  16.510  15.470
 2456ETHO    O118969   4.992  16.700  15.493
 2456ETHO    C118970   5.000  16.708  15.633
 2456ETHO   H1118971   5.104  16.743  15.652
 2456ETHO   H1318972   4.974  16.614  15.686
 2456ETHO    C218973   4.912  16.814  15.696
 2456ETHO   H2118974   4.889  16.895  15.623
 2456ETHO   H2318975   4.966  16.857  15.783
 2457ETHO    O118976   4.787  16.763  15.737
 2457ETHO    C118977   4.696  16.859  15.785
 2457ETHO   H1118978   4.765  16.929  15.837
 2457ETHO   H1318979   4.652  16.898  15.691
 2457ETHO    C218980   4.578  16.809  15.873
 2457ETHO   H2118981   4.533  16.714  15.837
 2457ETHO   H2318982   4.491  16.879  15.864
 2458ETHO    O118983   4.610  16.792  16.008
 2458ETHO    C118984   4.492  16.803  16.087
 2458ETHO   H1118985   4.423  16.723  16.053
 2458ETHO   H1318986   4.445  16.903  16.072
 2458ETHO    C218987   4.523  16.812  16.237
 2458ETHO   H2118988   4.604  16.737  16.253
 2458ETHO   H2318989   4.430  16.779  16.288
 2459ETHO    O118990   4.563  16.942  16.265
 2459ETHO    C118991   4.552  16.971  16.403
 2459ETHO   H1118992   4.446  16.965  16.433
 2459ETHO   H1318993   4.615  16.895  16.454
 2459ETHO    C218994   4.606  17.109  16.428
 2459ETHO   H2118995   4.690  17.125  16.358
 2459ETHO   H2318996   4.653  17.127  16.527
 2460ETHO    O118997   4.495  17.198  16.399
 2460ETHO    C118998   4.540  17.317  16.334
 2460ETHO   H1118999   4.444  17.356  16.296
 2460ETHO   H1319000   4.608  17.290  16.250
 2460ETHO    C219001   4.593  17.425  16.432
 2460ETHO   H2119002   4.692  17.395  16.472
 2460ETHO   H2319003   4.530  17.417  16.523
 2461ETHO    O119004   4.587  17.554  16.368
 2461ETHO    C119005   4.564  17.653  16.465
 2461ETHO   H1119006   4.466  17.636  16.516
 2461ETHO   H1319007   4.641  17.672  16.542
 2461ETHO    C219008   4.541  17.793  16.392
 2461ETHO   H2119009   4.509  17.862  16.472
 2461ETHO   H2319010   4.456  17.781  16.321
 2462ETHO    O119011   4.661  17.844  16.336
 2462ETHO    C119012   4.640  17.978  16.300
 2462ETHO   H1119013   4.595  18.030  16.387
 2462ETHO   H1319014   4.563  17.969  16.220
 2462ETHO    C219015   4.765  18.055  16.252
 2462ETHO   H2119016   4.735  18.156  16.215
 2462ETHO   H2319017   4.804  17.995  16.167
 2463ETHO    O119018   4.859  18.071  16.357
 2463ETHO    C119019   4.976  18.138  16.313
 2463ETHO   H1119020   5.010  18.111  16.210
 2463ETHO   H1319021   4.956  18.246  16.297
 2463ETHO    C219022   5.088  18.102  16.411
 2463ETHO   H2119023   5.054  18.118  16.516
 2463ETHO   H2319024   5.161  18.180  16.382
 2464ETHO    O119025   5.147  17.973  16.387
 2464ETHO    C119026   5.240  17.945  16.495
 2464ETHO   H1119027   5.261  18.040  16.549
 2464ETHO   H1319028   5.206  17.869  16.569
 2464ETHO    C219029   5.383  17.904  16.447
 2464ETHO   H2119030   5.443  17.901  16.540
 2464ETHO   H2319031   5.409  17.993  16.386
 2465ETHO    O119032   5.381  17.779  16.374
 2465ETHO    C119033   5.375  17.663  16.453
 2465ETHO   H1119034   5.439  17.668  16.544
 2465ETHO   H1319035   5.272  17.648  16.493
 2465ETHO    C219036   5.408  17.541  16.373
 2465ETHO   H2119037   5.490  17.565  16.302
 2465ETHO   H2319038   5.327  17.504  16.307
 2466ETHO    O119039   5.452  17.437  16.463
 2466ETHO    C119040   5.344  17.387  16.531
 2466ETHO   H1119041   5.338  17.438  16.629
 2466ETHO   H1319042   5.252  17.405  16.471
 2466ETHO    C219043   5.352  17.231  16.553
 2466ETHO   H2119044   5.453  17.215  16.596
 2466ETHO   H2319045   5.269  17.197  16.619
 2467ETHO    O119046   5.335  17.175  16.427
 2467ETHO    C119047   5.318  17.037  16.441
 2467ETHO   H1119048   5.245  17.012  16.520
 2467ETHO   H1319049   5.412  16.985  16.472
 2467ETHO    C219050   5.262  16.959  16.316
 2467ETHO   H2119051   5.180  17.019  16.271
 2467ETHO   H2319052   5.248  16.854  16.348
 2468ETHO    O119053   5.361  16.952  16.212
 2468ETHO    C119054   5.317  16.863  16.105
 2468ETHO   H1119055   5.308  16.759  16.145
 2468ETHO   H1319056   5.221  16.895  16.058
 2468ETHO    C219057   5.432  16.853  16.005
 2468ETHO   H2119058   5.456  16.951  15.960
 2468ETHO   H2319059   5.401  16.783  15.924
 2469ETHO    O119060   5.553  16.796  16.060
 2469ETHO    C119061   5.585  16.669  16.007
 2469ETHO   H1119062   5.567  16.668  15.897
 2469ETHO   H1319063   5.519  16.590  16.049
 2469ETHO    C219064   5.729  16.641  16.045
 2469ETHO   H2119065   5.764  16.536  16.055
 2469ETHO   H2319066   5.737  16.681  16.148
 2470ETHO    O119067   5.823  16.718  15.968
 2470ETHO    C119068   5.956  16.676  15.987
 2470ETHO   H1119069   6.023  16.758  15.956
 2470ETHO   H1319070   5.969  16.667  16.097
 2470ETHO    C219071   6.010  16.546  15.936
 2470ETHO   H2119072   5.987  16.535  15.828
 2470ETHO   H2319073   5.951  16.469  15.990
 2471ETHO    O119074   6.144  16.525  15.978
 2471ETHO    C119075   6.245  16.611  15.924
 2471ETHO   H1119076   6.234  16.706  15.981
 2471ETHO   H1319077   6.231  16.620  15.815
 2471ETHO    C219078   6.387  16.548  15.953
 2471ETHO   H2119079   6.419  16.540  16.059
 2471ETHO   H2319080   6.468  16.605  15.902
 2472ETHO    O119081   6.393  16.415  15.891
 2472ETHO    C119082   6.483  16.329  15.953
 2472ETHO   H1119083   6.583  16.379  15.960
 2472ETHO   H1319084   6.449  16.299  16.055
 2472ETHO    C219085   6.504  16.208  15.866
 2472ETHO   H2119086   6.513  16.240  15.760
 2472ETHO   H2319087   6.423  16.133  15.875
 2473ETHO    O119088   6.634  16.149  15.893
 2473ETHO    C119089   6.658  16.032  15.814
 2473ETHO   H1119090   6.659  16.071  15.710
 2473ETHO   H1319091   6.579  15.955  15.829
 2473ETHO    C219092   6.805  15.990  15.840
 2473ETHO   H2119093   6.815  15.880  15.842
 2473ETHO   H2319094   6.830  16.017  15.944
 2474ETHO    O119095   6.899  16.043  15.754
 2474ETHO    C119096   6.900  15.980  15.629
 2474ETHO   H1119097   6.903  15.870  15.640
 2474ETHO   H1319098   6.809  16.008  15.572
 2474ETHO    C219099   7.038  16.009  15.565
 2474ETHO   H2119100   7.037  16.116  15.535
 2474ETHO   H2319101   7.034  15.942  15.477
 2475ETHO    O119102   7.148  15.981  15.656
 2475ETHO    C119103   7.275  15.971  15.592
 2475ETHO   H1119104   7.270  15.893  15.513
 2475ETHO   H1319105   7.295  16.069  15.543
 2475ETHO    C219106   7.385  15.932  15.688
 2475ETHO   H2119107   7.363  15.971  15.790
 2475ETHO   H2319108   7.479  15.979  15.652
 2476ETHO    O119109   7.397  15.792  15.687
 2476ETHO    C119110   7.507  15.772  15.780
 2476ETHO   H1119111   7.597  15.833  15.754
 2476ETHO   H1319112   7.477  15.801  15.883
 2476ETHO    C219113   7.560  15.627  15.805
 2476ETHO   H2119114   7.467  15.585  15.849
 2476ETHO   H2319115   7.634  15.612  15.886
 2477ETHO    O119116   7.602  15.565  15.684
 2477ETHO    C119117   7.610  15.424  15.696
 2477ETHO   H1119118   7.644  15.392  15.797
 2477ETHO   H1319119   7.510  15.390  15.660
 2477ETHO    C219120   7.715  15.368  15.596
 2477ETHO   H2119121   7.811  15.422  15.614
 2477ETHO   H2319122   7.688  15.410  15.497
 2478ETHO    O119123   7.748  15.232  15.604
 2478ETHO    C119124   7.796  15.181  15.486
 2478ETHO   H1119125   7.866  15.252  15.437
 2478ETHO   H1319126   7.717  15.174  15.408
 2478ETHO    C219127   7.857  15.042  15.507
 2478ETHO   H2119128   7.927  15.047  15.593
 2478ETHO   H2319129   7.915  15.010  15.418
 2479ETHO    O119130   7.753  14.947  15.518
 2479ETHO    C119131   7.809  14.819  15.515
 2479ETHO   H1119132   7.898  14.809  15.581
 2479ETHO   H1319133   7.734  14.756  15.567
 2479ETHO    C219134   7.834  14.769  15.369
 2479ETHO   H2119135   7.916  14.822  15.315
 2479ETHO   H2319136   7.736  14.764  15.317
 2480ETHO    O119137   7.881  14.639  15.389
 2480ETHO    C119138   7.901  14.562  15.267
 2480ETHO   H1119139   7.974  14.619  15.206
 2480ETHO   H1319140   7.811  14.540  15.205
 2480ETHO    C219141   7.970  14.419  15.285
 2480ETHO   H2119142   7.909  14.355  15.353
 2480ETHO   H2319143   8.057  14.456  15.344
 2481ETHO    O119144   8.013  14.355  15.160
 2481ETHO    C119145   8.088  14.243  15.196
 2481ETHO   H1119146   8.092  14.214  15.303
 2481ETHO   H1319147   8.033  14.157  15.151
 2481ETHO    C219148   8.225  14.256  15.121
 2481ETHO   H2119149   8.289  14.175  15.162
 2481ETHO   H2319150   8.272  14.351  15.155
 2482ETHO    O119151   8.207  14.257  14.980
 2482ETHO    C119152   8.337  14.244  14.917
 2482ETHO   H1119153   8.385  14.148  14.945
 2482ETHO   H1319154   8.401  14.327  14.952
 2482ETHO    C219155   8.329  14.257  14.767
 2482ETHO   H2119156   8.267  14.345  14.738
 2482ETHO   H2319157   8.288  14.160  14.733
 2483ETHO    O119158   8.460  14.269  14.707
 2483ETHO    C119159   8.451  14.252  14.565
 2483ETHO   H1119160   8.361  14.192  14.539
 2483ETHO   H1319161   8.441  14.348  14.509
 2483ETHO    C219162   8.573  14.176  14.506
 2483ETHO   H2119163   8.581  14.074  14.549
 2483ETHO   H2319164   8.664  14.236  14.526
 2484ETHO    O119165   8.556  14.169  14.363
 2484ETHO    C119166   8.619  14.272  14.291
 2484ETHO   H1119167   8.729  14.256  14.289
 2484ETHO   H1319168   8.598  14.372  14.335
 2484ETHO    C219169   8.559  14.277  14.150
 2484ETHO   H2119170   8.599  14.364  14.092
 2484ETHO   H2319171   8.449  14.292  14.148
 2485ETHO    O119172   8.596  14.163  14.074
 2485ETHO    C119173   8.515  14.145  13.965
 2485ETHO   H1119174   8.412  14.183  13.984
 2485ETHO   H1319175   8.561  14.188  13.873
 2485ETHO    C219176   8.501  13.983  13.956
 2485ETHO   H2119177   8.442  13.953  13.867
 2485ETHO   H2319178   8.445  13.942  14.042
 2486PROX    O119179   8.626  13.917  13.956
 2486PROX    C119180   8.698  13.930  13.835
 2486PROX   H1119181   8.639  13.903  13.745
 2486PROX   H1319182   8.722  14.038  13.823
 2486PROX    C219183   8.832  13.853  13.836
 2486PROX   H2119184   8.813  13.748  13.867
 2486PROX    C319185   8.938  13.917  13.919
 2486PROX   H3119186   9.037  13.879  13.887
 2486PROX   H3219187   8.937  14.028  13.920
 2486PROX   H3319188   8.926  13.887  14.026
 2487PROX    O119189   8.884  13.840  13.705
 2487PROX    C119190   8.828  13.735  13.627
 2487PROX   H1119191   8.873  13.638  13.657
 2487PROX   H1319192   8.717  13.738  13.632
 2487PROX    C219193   8.859  13.768  13.486
 2487PROX   H2119194   8.965  13.802  13.475
 2487PROX    C319195   8.760  13.862  13.426
 2487PROX   H3119196   8.791  13.903  13.328
 2487PROX   H3219197   8.657  13.820  13.427
 2487PROX   H3319198   8.759  13.951  13.492
 2488PROX    O119199   8.846  13.646  13.416
 2488PROX    C119200   8.928  13.648  13.296
 2488PROX   H1119201   8.871  13.683  13.207
 2488PROX   H1319202   9.011  13.722  13.299
 2488PROX    C219203   9.002  13.514  13.259
 2488PROX   H2119204   8.929  13.430  13.262
 2488PROX    C319205   9.114  13.478  13.356
 2488PROX   H3119206   9.188  13.561  13.356
 2488PROX   H3219207   9.087  13.466  13.463
 2488PROX   H3319208   9.179  13.393  13.328
 2489PROX    O119209   9.056  13.528  13.131
 2489PROX    C119210   8.965  13.492  13.028
 2489PROX   H1119211   8.864  13.524  13.060
 2489PROX   H1319212   8.991  13.555  12.941
 2489PROX    C219213   8.977  13.342  12.984
 2489PROX   H2119214   9.085  13.318  12.983
 2489PROX    C319215   8.922  13.320  12.846
 2489PROX   H3119216   8.945  13.220  12.803
 2489PROX   H3219217   8.811  13.333  12.841
 2489PROX   H3319218   8.969  13.394  12.779
 2490PROX    O119219   8.903  13.261  13.078
 2490PROX    C119220   8.940  13.122  13.055
 2490PROX   H1119221   8.848  13.063  13.030
 2490PROX   H1319222   9.018  13.107  12.978
 2490PROX    C219223   9.011  13.064  13.189
 2490PROX   H2119224   9.105  13.120  13.211
 2490PROX    C319225   9.069  12.919  13.171
 2490PROX   H3119226   9.139  12.913  13.085
 2490PROX   H3219227   9.121  12.887  13.264
 2490PROX   H3319228   8.976  12.858  13.163
 2491PROX    O119229   8.911  13.062  13.295
 2491PROX    C119230   8.967  13.078  13.420
 2491PROX   H1119231   9.003  12.979  13.456
 2491PROX   H1319232   9.051  13.150  13.422
 2491PROX    C219233   8.855  13.115  13.519
 2491PROX   H2119234   8.777  13.036  13.510
 2491PROX    C319235   8.791  13.251  13.489
 2491PROX   H3119236   8.856  13.337  13.513
 2491PROX   H3219237   8.759  13.267  13.384
 2491PROX   H3319238   8.696  13.252  13.547
 2492PROX    O119239   8.913  13.121  13.651
 2492PROX    C119240   8.824  13.129  13.759
 2492PROX   H1119241   8.752  13.213  13.746
 2492PROX   H1319242   8.755  13.042  13.757
 2492PROX    C219243   8.889  13.136  13.901
 2492PROX   H2119244   8.924  13.032  13.917
 2492PROX    C319245   8.798  13.182  14.013
 2492PROX   H3119246   8.848  13.178  14.112
 2492PROX   H3219247   8.748  13.278  13.989
 2492PROX   H3319248   8.712  13.112  14.011
 2493PROX    O119249   9.008  13.209  13.900
 2493PROX    C119250   9.000  13.341  13.860
 2493PROX   H1119251   9.008  13.339  13.749
 2493PROX   H1319252   8.902  13.387  13.885
 2493PROX    C219253   9.131  13.413  13.915
 2493PROX   H2119254   9.134  13.390  14.024
 2493PROX    C319255   9.118  13.560  13.907
 2493PROX   H3119256   9.099  13.597  13.804
 2493PROX   H3219257   9.030  13.590  13.967
 2493PROX   H3319258   9.204  13.617  13.948
 2494PROX    O119259   9.246  13.355  13.849
 2494PROX    C119260   9.333  13.300  13.946
 2494PROX   H1119261   9.346  13.368  14.033
 2494PROX   H1319262   9.291  13.199  13.966
 2494PROX    C219263   9.471  13.268  13.882
 2494PROX   H2119264   9.524  13.356  13.839
 2494PROX    C319265   9.461  13.167  13.764
 2494PROX   H3119266   9.411  13.215  13.678
 2494PROX   H3219267   9.565  13.144  13.731
 2494PROX   H3319268   9.414  13.069  13.787
 2495PROX    O119269   9.558  13.197  13.972
 2495PROX    C119270   9.692  13.236  13.964
 2495PROX   H1119271   9.724  13.254  13.859
 2495PROX   H1319272   9.707  13.328  14.025
 2495PROX    C219273   9.781  13.114  14.009
 2495PROX   H2119274   9.888  13.144  14.007
 2495PROX    C319275   9.782  12.995  13.918
 2495PROX   H3119276   9.832  13.015  13.821
 2495PROX   H3219277   9.845  12.915  13.962
 2495PROX   H3319278   9.677  12.965  13.900
 2496PROX    O119279   9.762  13.075  14.150
 2496PROX    C119280   9.770  13.188  14.240
 2496PROX   H1119281   9.854  13.255  14.213
 2496PROX   H1319282   9.675  13.245  14.237
 2496PROX    C219283   9.781  13.144  14.391
 2496PROX   H2119284   9.815  13.239  14.438
 2496PROX    C319285   9.887  13.035  14.424
 2496PROX   H3119286   9.986  13.058  14.378
 2496PROX   H3219287   9.899  13.033  14.535
 2496PROX   H3319288   9.855  12.936  14.387
 2497PROX    O119289   9.648  13.121  14.447
 2497PROX    C119290   9.580  13.005  14.385
 2497PROX   H1119291   9.651  12.939  14.330
 2497PROX   H1319292   9.532  12.944  14.464
 2497PROX    C219293   9.471  13.042  14.282
 2497PROX   H2119294   9.510  13.106  14.200
 2497PROX    C319295   9.346  13.111  14.337
 2497PROX   H3119296   9.291  13.048  14.410
 2497PROX   H3219297   9.373  13.204  14.390
 2497PROX   H3319298   9.275  13.133  14.254
 2498PROX    O119299   9.414  12.924  14.222
 2498PROX    C119300   9.499  12.869  14.124
 2498PROX   H1119301   9.461  12.917  14.031
 2498PROX   H1319302   9.606  12.899  14.127
 2498PROX    C219303   9.489  12.719  14.119
 2498PROX   H2119304   9.382  12.691  14.110
 2498PROX    C319305   9.540  12.665  14.253
 2498PROX   H3119306   9.553  12.555  14.244
 2498PROX   H3219307   9.633  12.714  14.289
 2498PROX   H3319308   9.454  12.689  14.319
 2499PROX    O119309   9.565  12.677  14.005
 2499PROX    C119310   9.491  12.668  13.888
 2499PROX   H1119311   9.475  12.772  13.853
 2499PROX   H1319312   9.567  12.627  13.817
 2499PROX    C219313   9.374  12.568  13.880
 2499PROX   H2119314   9.296  12.593  13.955
 2499PROX    C319315   9.411  12.432  13.933
 2499PROX   H3119316   9.479  12.381  13.862
 2499PROX   H3219317   9.454  12.430  14.035
 2499PROX   H3319318   9.326  12.360  13.931
 2500PROX    O119319   9.322  12.578  13.749
 2500PROX    C119320   9.231  12.684  13.738
 2500PROX   H1119321   9.142  12.663  13.801
 2500PROX   H1319322   9.281  12.772  13.784
 2500PROX    C219323   9.200  12.727  13.595
 2500PROX   H2119324   9.135  12.817  13.585
 2500PROX    C319325   9.132  12.606  13.524
 2500PROX   H3119326   9.025  12.607  13.554
 2500PROX   H3219327   9.143  12.613  13.413
 2500PROX   H3319328   9.180  12.513  13.562
 2501PROX    O119329   9.328  12.742  13.524
 2501PROX    C119330   9.391  12.868  13.531
 2501PROX   H1119331   9.352  12.940  13.455
 2501PROX   H1319332   9.379  12.908  13.634
 2501PROX    C219333   9.538  12.858  13.488
 2501PROX   H2119334   9.544  12.812  13.387
 2501PROX    C319335   9.607  12.753  13.583
 2501PROX   H3119336   9.614  12.793  13.687
 2501PROX   H3219337   9.544  12.662  13.588
 2501PROX   H3319338   9.705  12.724  13.540
 2502PROX    O119339   9.599  12.990  13.474
 2502PROX    C119340   9.741  12.978  13.453
 2502PROX   H1119341   9.771  12.946  13.555
 2502PROX   H1319342   9.773  12.907  13.374
 2502PROX    C219343   9.815  13.115  13.434
 2502PROX   H2119344   9.779  13.177  13.518
 2502PROX    C319345   9.772  13.173  13.294
 2502PROX   H3119346   9.818  13.117  13.210
 2502PROX   H3219347   9.662  13.185  13.284
 2502PROX   H3319348   9.822  13.272  13.285
 2503PROX    O119349   9.959  13.106  13.448
 2503PROX    C119350  10.023  13.232  13.480
 2503PROX   H1119351  10.044  13.288  13.386
 2503PROX   H1319352   9.951  13.302  13.526
 2503PROX    C219353  10.156  13.232  13.560
 2503PROX   H2119354  10.216  13.320  13.530
 2503PROX    C319355  10.269  13.133  13.521
 2503PROX   H3119356  10.246  13.038  13.572
 2503PROX   H3219357  10.288  13.118  13.412
 2503PROX   H3319358  10.364  13.164  13.570
 2504PROX    O119359  10.131  13.237  13.696
 2504PROX    C119360  10.231  13.299  13.771
 2504PROX   H1119361  10.323  13.238  13.754
 2504PROX   H1319362  10.241  13.401  13.730
 2504PROX    C219363  10.195  13.307  13.923
 2504PROX   H2119364  10.085  13.308  13.932
 2504PROX    C319365  10.244  13.441  13.970
 2504PROX   H3119366  10.348  13.466  13.941
 2504PROX   H3219367  10.193  13.524  13.917
 2504PROX   H3319368  10.236  13.457  14.080
 2505PROX    O119369  10.243  13.200  14.003
 2505PROX    C119370  10.202  13.071  13.984
 2505PROX   H1119371  10.094  13.065  14.009
 2505PROX   H1319372  10.217  13.037  13.880
 2505PROX    C219373  10.274  12.986  14.091
 2505PROX   H2119374  10.283  13.034  14.191
 2505PROX    C319375  10.427  12.971  14.045
 2505PROX   H3119376  10.474  13.071  14.031
 2505PROX   H3219377  10.483  12.907  14.116
 2505PROX   H3319378  10.428  12.925  13.944
 2506PROX    O119379  10.214  12.855  14.107
 2506PROX    C119380  10.087  12.844  14.174
 2506PROX   H1119381  10.097  12.908  14.264
 2506PROX   H1319382  10.014  12.901  14.113
 2506PROX    C219383  10.041  12.704  14.205
 2506PROX   H2119384   9.940  12.719  14.248
 2506PROX    C319385  10.135  12.624  14.300
 2506PROX   H3119386  10.233  12.600  14.254
 2506PROX   H3219387  10.138  12.688  14.391
 2506PROX   H3319388  10.082  12.535  14.339
 2507PROX    O119389  10.032  12.639  14.081
 2507PROX    C119390   9.922  12.547  14.075
 2507PROX   H1119391   9.949  12.450  14.121
 2507PROX   H1319392   9.829  12.580  14.127
 2507PROX    C219393   9.889  12.541  13.921
 2507PROX   H2119394   9.864  12.645  13.893
 2507PROX    C319395   9.765  12.444  13.896
 2507PROX   H3119396   9.775  12.353  13.959
 2507PROX   H3219397   9.676  12.498  13.935
 2507PROX   H3319398   9.749  12.419  13.788
 2508PROX    O119399  10.001  12.496  13.839
 2508PROX    C119400   9.975  12.527  13.701
 2508PROX   H1119401  10.017  12.448  13.634
 2508PROX   H1319402   9.867  12.535  13.677
 2508PROX    C219403  10.047  12.652  13.645
 2508PROX   H2119404  10.157  12.634  13.647
 2508PROX    C319405  10.024  12.784  13.706
 2508PROX   H3119406  10.031  12.781  13.817
 2508PROX   H3219407  10.101  12.860  13.680
 2508PROX   H3319408   9.929  12.827  13.667
 2509PROX    O119409  10.009  12.660  13.505
 2509PROX    C119410  10.114  12.721  13.421
 2509PROX   H1119411  10.134  12.820  13.467
 2509PROX   H1319412  10.203  12.655  13.418
 2509PROX    C219413  10.062  12.729  13.280
 2509PROX   H2119414   9.976  12.800  13.282
 2509PROX    C319415  10.015  12.594  13.245
 2509PROX   H3119416   9.908  12.576  13.272
 2509PROX   H3219417  10.019  12.595  13.134
 2509PROX   H3319418  10.067  12.502  13.282
 2510PROX    O119419  10.166  12.775  13.188
 2510PROX    C119420  10.212  12.905  13.226
 2510PROX   H1119421  10.132  12.968  13.269
 2510PROX   H1319422  10.297  12.905  13.296
 2510PROX    C219423  10.270  12.971  13.106
 2510PROX   H2119424  10.188  12.990  13.033
 2510PROX    C319425  10.390  12.907  13.053
 2510PROX   H3119426  10.353  12.829  12.983
 2510PROX   H3219427  10.455  12.975  12.995
 2510PROX   H3319428  10.457  12.866  13.132
 2511PROX    O119429  10.313  13.100  13.153
 2511PROX    C119430  10.221  13.209  13.118
 2511PROX   H1119431  10.120  13.195  13.161
 2511PROX   H1319432  10.268  13.296  13.169
 2511PROX    C219433  10.215  13.254  12.974
 2511PROX   H2119434  10.186  13.164  12.916
 2511PROX    C319435  10.352  13.303  12.916
 2511PROX   H3119436  10.442  13.248  12.948
 2511PROX   H3219437  10.335  13.307  12.806
 2511PROX   H3319438  10.375  13.402  12.960
 2512PROX    O119439  10.118  13.361  12.966
 2512PROX    C119440   9.994  13.318  12.923
 2512PROX   H1119441   9.999  13.298  12.814
 2512PROX   H1319442   9.945  13.238  12.983
 2512PROX    C219443   9.892  13.433  12.941
 2512PROX   H2119444   9.919  13.498  12.855
 2512PROX    C319445   9.892  13.496  13.079
 2512PROX   H3119446   9.866  13.423  13.159
 2512PROX   H3219447   9.991  13.542  13.102
 2512PROX   H3319448   9.812  13.572  13.092
 2513PROX    O119449   9.765  13.385  12.909
 2513PROX    C119450   9.676  13.494  12.880
 2513PROX   H1119451   9.681  13.575  12.956
 2513PROX   H1319452   9.698  13.532  12.778
 2513PROX    C219453   9.535  13.435  12.879
 2513PROX   H2119454   9.499  13.402  12.978
 2513PROX    C319455   9.526  13.310  12.778
 2513PROX   H3119456   9.582  13.228  12.829
 2513PROX   H3219457   9.422  13.273  12.769
 2513PROX   H3319458   9.569  13.337  12.680
 2514PROX    O119459   9.454  13.534  12.830
 2514PROX    C119460   9.315  13.512  12.831
 2514PROX   H1119461   9.293  13.420  12.773
 2514PROX   H1319462   9.279  13.476  12.930
 2514PROX    C219463   9.241  13.641  12.780
 2514PROX   H2119464   9.150  13.602  12.728
 2514PROX    C319465   9.324  13.721  12.679
 2514PROX   H3119466   9.424  13.736  12.724
 2514PROX   H3219467   9.328  13.660  12.586
 2514PROX   H3319468   9.282  13.822  12.659
 2515PROX    O119469   9.189  13.703  12.891
 2515PROX    C119470   9.284  13.750  12.988
 2515PROX   H1119471   9.318  13.666  13.053
 2515PROX   H1319472   9.360  13.792  12.919
 2515PROX    C219473   9.234  13.872  13.080
 2515PROX   H2119474   9.156  13.840  13.153
 2515PROX    C319475   9.158  13.978  12.991
 2515PROX   H3119476   9.063  13.930  12.958
 2515PROX   H3219477   9.148  14.072  13.049
 2515PROX   H3319478   9.210  14.004  12.897
 2516PROX    O119479   9.344  13.938  13.141
 2516PROX    C119480   9.413  13.857  13.237
 2516PROX   H1119481   9.350  13.822  13.322
 2516PROX   H1319482   9.463  13.766  13.196
 2516PROX    C219483   9.532  13.933  13.299
 2516PROX   H2119484   9.579  13.856  13.363
 2516PROX    C319485   9.510  14.063  13.373
 2516PROX   H3119486   9.411  14.106  13.349
 2516PROX   H3219487   9.513  14.041  13.481
 2516PROX   H3319488   9.588  14.139  13.351
 2517PROX    O119489   9.612  13.975  13.187
 2517PROX    C119490   9.697  13.877  13.127
 2517PROX   H1119491   9.750  13.821  13.207
 2517PROX   H1319492   9.640  13.801  13.070
 2517PROX    C219493   9.801  13.958  13.050
 2517PROX   H2119494   9.842  14.039  13.114
 2517PROX    C319495   9.737  14.013  12.929
 2517PROX   H3119496   9.689  13.941  12.858
 2517PROX   H3219497   9.647  14.074  12.953
 2517PROX   H3319498   9.805  14.078  12.871
 2518PROX    O119499   9.903  13.867  13.009
 2518PROX    C119500  10.013  13.854  13.097
 2518PROX   H1119501  10.011  13.938  13.170
 2518PROX   H1319502   9.999  13.766  13.164
 2518PROX    C219503  10.157  13.858  13.033
 2518PROX   H2119504  10.186  13.959  12.996
 2518PROX    C319505  10.164  13.760  12.912
 2518PROX   H3119506  10.265  13.761  12.866
 2518PROX   H3219507  10.133  13.656  12.939
 2518PROX   H3319508  10.088  13.798  12.840
 2519PROX    O119509  10.248  13.833  13.140
 2519PROX    C119510  10.388  13.854  13.117
 2519PROX   H1119511  10.424  13.773  13.051
 2519PROX   H1319512  10.411  13.952  13.069
 2519PROX    C219513  10.466  13.848  13.253
 2519PROX   H2119514  10.449  13.742  13.282
 2519PROX    C319515  10.427  13.942  13.369
 2519PROX   H3119516  10.482  13.916  13.461
 2519PROX   H3219517  10.451  14.045  13.334
 2519PROX   H3319518  10.317  13.935  13.384
 2520PROX    O119519  10.607  13.868  13.233
 2520PROX    C119520  10.677  13.746  13.224
 2520PROX   H1119521  10.658  13.681  13.312
 2520PROX   H1319522  10.642  13.699  13.129
 2520PROX    C219523  10.829  13.776  13.225
 2520PROX   H2119524  10.855  13.821  13.127
 2520PROX    C319525  10.900  13.641  13.239
 2520PROX   H3119526  10.873  13.570  13.159
 2520PROX   H3219527  11.009  13.658  13.230
 2520PROX   H3319528  10.868  13.586  13.330
 2521PROX    O119529  10.860  13.859  13.337
 2521PROX    C119530  10.894  13.993  13.295
 2521PROX   H1119531  10.986  14.003  13.234
 2521PROX   H1319532  10.801  14.018  13.240
 2521PROX    C219533  10.889  14.095  13.410
 2521PROX   H2119534  10.984  14.094  13.468
 2521PROX    C319535  10.776  14.077  13.508
 2521PROX   H3119536  10.670  14.080  13.474
 2521PROX   H3219537  10.777  13.968  13.531
 2521PROX   H3319538  10.767  14.134  13.603
 2522PROX    O119539  10.874  14.222  13.355
 2522PROX    C119540  10.888  14.334  13.436
 2522PROX   H1119541  10.820  14.334  13.523
 2522PROX   H1319542  10.993  14.330  13.470
 2522PROX    C219543  10.884  14.465  13.346
 2522PROX   H2119544  10.792  14.454  13.286
 2522PROX    C319545  11.008  14.483  13.258
 2522PROX   H3119546  11.098  14.530  13.302
 2522PROX   H3219547  11.040  14.385  13.217
 2522PROX   H3319548  10.979  14.542  13.168
 2523PROX    O119549  10.868  14.577  13.432
 2523PROX    C119550  10.799  14.686  13.375
 2523PROX   H1119551  10.858  14.780  13.376
 2523PROX   H1319552  10.790  14.677  13.265
 2523PROX    C219553  10.666  14.715  13.431
 2523PROX   H2119554  10.614  14.618  13.419
 2523PROX    C319555  10.583  14.821  13.355
 2523PROX   H3119556  10.475  14.829  13.382
 2523PROX   H3219557  10.625  14.924  13.357
 2523PROX   H3319558  10.584  14.787  13.249
 2524PROX    O119559  10.674  14.762  13.570
 2524PROX    C119560  10.578  14.700  13.654
 2524PROX   H1119561  10.491  14.686  13.586
 2524PROX   H1319562  10.615  14.600  13.684
 2524PROX    C219563  10.541  14.779  13.777
 2524PROX   H2119564  10.479  14.861  13.736
 2524PROX    C319565  10.666  14.845  13.844
 2524PROX   H3119566  10.738  14.898  13.778
 2524PROX   H3219567  10.632  14.918  13.920
 2524PROX   H3319568  10.723  14.760  13.889
 2525PROX    O119569  10.468  14.694  13.868
 2525PROX    C119570  10.379  14.781  13.948
 2525PROX   H1119571  10.438  14.855  14.007
 2525PROX   H1319572  10.306  14.839  13.888
 2525PROX    C219573  10.281  14.701  14.030
 2525PROX   H2119574  10.236  14.618  13.971
 2525PROX    C319575  10.155  14.783  14.071
 2525PROX   H3119576  10.198  14.875  14.114
 2525PROX   H3219577  10.083  14.792  13.987
 2525PROX   H3319578  10.102  14.726  14.150
 2526PROX    O119579  10.341  14.650  14.147
 2526PROX    C119580  10.409  14.529  14.118
 2526PROX   H1119581  10.473  14.527  14.027
 2526PROX   H1319582  10.471  14.501  14.206
 2526PROX    C219583  10.304  14.410  14.111
 2526PROX   H2119584  10.216  14.443  14.052
 2526PROX    C319585  10.250  14.366  14.243
 2526PROX   H3119586  10.335  14.337  14.308
 2526PROX   H3219587  10.202  14.453  14.292
 2526PROX   H3319588  10.181  14.279  14.242
 2527PROX    O119589  10.370  14.295  14.052
 2527PROX    C119590  10.361  14.296  13.903
 2527PROX   H1119591  10.254  14.309  13.874
 2527PROX   H1319592  10.417  14.386  13.871
 2527PROX    C219593  10.415  14.175  13.827
 2527PROX   H2119594  10.359  14.083  13.854
 2527PROX    C319595  10.565  14.152  13.853
 2527PROX   H3119596  10.564  14.120  13.959
 2527PROX   H3219597  10.614  14.079  13.785
 2527PROX   H3319598  10.621  14.247  13.856
 2528PROX    O119599  10.394  14.187  13.685
 2528PROX    C119600  10.472  14.284  13.617
 2528PROX   H1119601  10.486  14.380  13.672
 2528PROX   H1319602  10.569  14.240  13.587
 2528PROX    C219603  10.407  14.326  13.481
 2528PROX   H2119604  10.326  14.251  13.468
 2528PROX    C319605  10.504  14.340  13.359
 2528PROX   H3119606  10.572  14.426  13.372
 2528PROX   H3219607  10.557  14.246  13.333
 2528PROX   H3319608  10.432  14.371  13.280
 2529PROX    O119609  10.341  14.452  13.493
 2529PROX    C119610  10.237  14.449  13.598
 2529PROX   H1119611  10.174  14.357  13.601
 2529PROX   H1319612  10.273  14.472  13.701
 2529PROX    C219613  10.124  14.553  13.561
 2529PROX   H2119614  10.078  14.520  13.466
 2529PROX    C319615  10.178  14.696  13.532
 2529PROX   H3119616  10.102  14.768  13.496
 2529PROX   H3219617  10.229  14.735  13.622
 2529PROX   H3319618  10.256  14.700  13.452
 2530PROX    O119619  10.033  14.562  13.670
 2530PROX    C119620   9.938  14.458  13.690
 2530PROX   H1119621   9.875  14.445  13.600
 2530PROX   H1319622   9.973  14.358  13.725
 2530PROX    C219623   9.834  14.501  13.790
 2530PROX   H2119624   9.783  14.587  13.741
 2530PROX    C319625   9.891  14.539  13.925
 2530PROX   H3119626   9.966  14.619  13.912
 2530PROX   H3219627   9.812  14.564  13.999
 2530PROX   H3319628   9.941  14.455  13.977
 2531PROX    O119629   9.748  14.388  13.807
 2531PROX    C119630   9.611  14.430  13.806
 2531PROX   H1119631   9.607  14.516  13.876
 2531PROX   H1319632   9.588  14.476  13.708
 2531PROX    C219633   9.505  14.330  13.857
 2531PROX   H2119634   9.560  14.259  13.923
 2531PROX    C319635   9.425  14.250  13.750
 2531PROX   H3119636   9.352  14.175  13.788
 2531PROX   H3219637   9.369  14.318  13.682
 2531PROX   H3319638   9.506  14.193  13.699
 2532PROX    O119639   9.400  14.396  13.940
 2532PROX    C119640   9.447  14.409  14.073
 2532PROX   H1119641   9.555  14.385  14.086
 2532PROX   H1319642   9.424  14.512  14.107
 2532PROX    C219643   9.377  14.300  14.166
 2532PROX   H2119644   9.266  14.311  14.162
 2532PROX    C319645   9.409  14.336  14.310
 2532PROX   H3119646   9.519  14.349  14.323
 2532PROX   H3219647   9.364  14.432  14.343
 2532PROX   H3319648   9.381  14.261  14.387
 2533PROX    O119649   9.407  14.164  14.131
 2533PROX    C119650   9.298  14.079  14.142
 2533PROX   H1119651   9.265  14.093  14.247
 2533PROX   H1319652   9.210  14.121  14.088
 2533PROX    C219653   9.336  13.929  14.122
 2533PROX   H2119654   9.412  13.908  14.200
 2533PROX    C319655   9.375  13.900  13.982
 2533PROX   H3119656   9.461  13.959  13.945
 2533PROX   H3219657   9.388  13.792  13.962
 2533PROX   H3319658   9.284  13.922  13.921
 2534PROX    O119659   9.227  13.841  14.135
 2534PROX    C119660   9.212  13.798  14.269
 2534PROX   H1119661   9.223  13.880  14.343
 2534PROX   H1319662   9.107  13.768  14.289
 2534PROX    C219663   9.309  13.687  14.302
 2534PROX   H2119664   9.412  13.728  14.295
 2534PROX    C319665   9.289  13.569  14.204
 2534PROX   H3119666   9.342  13.586  14.108
 2534PROX   H3219667   9.332  13.475  14.245
 2534PROX   H3319668   9.178  13.561  14.195
 2535PROX    O119669   9.278  13.623  14.427
 2535PROX    C119670   9.375  13.627  14.520
 2535PROX   H1119671   9.449  13.705  14.496
 2535PROX   H1319672   9.325  13.666  14.611
 2535PROX    C219673   9.453  13.490  14.549
 2535PROX   H2119674   9.464  13.433  14.455
 2535PROX    C319675   9.375  13.402  14.652
 2535PROX   H3119676   9.412  13.419  14.756
 2535PROX   H3219677   9.269  13.430  14.634
 2535PROX   H3319678   9.392  13.297  14.621
 2536PROX    O119679   9.585  13.517  14.599
 2536PROX    C119680   9.666  13.408  14.578
 2536PROX   H1119681   9.633  13.319  14.635
 2536PROX   H1319682   9.665  13.373  14.473
 2536PROX    C219683   9.820  13.435  14.613
 2536PROX   H2119684   9.878  13.340  14.611
 2536PROX    C319685   9.822  13.496  14.759
 2536PROX   H3119686   9.923  13.491  14.804
 2536PROX   H3219687   9.779  13.597  14.745
 2536PROX   H3319688   9.754  13.436  14.824
 2537PROX    O119689   9.873  13.530  14.524
 2537PROX    C119690  10.009  13.556  14.536
 2537PROX   H1119691  10.021  13.643  14.605
 2537PROX   H1319692  10.068  13.480  14.593
 2537PROX    C219693  10.058  13.580  14.394
 2537PROX   H2119694   9.988  13.655  14.353
 2537PROX    C319695  10.045  13.454  14.309
 2537PROX   H3119696   9.955  13.396  14.338
 2537PROX   H3219697  10.040  13.473  14.199
 2537PROX   H3319698  10.121  13.378  14.336
 2538PROX    O119699  10.198  13.621  14.404
 2538PROX    C119700  10.231  13.709  14.290
 2538PROX   H1119701  10.339  13.695  14.267
 2538PROX   H1319702  10.178  13.681  14.196
 2538PROX    C219703  10.194  13.853  14.328
 2538PROX   H2119704  10.087  13.857  14.355
 2538PROX    C319705  10.213  13.946  14.209
 2538PROX   H3119706  10.220  14.056  14.223
 2538PROX   H3219707  10.306  13.901  14.170
 2538PROX   H3319708  10.135  13.928  14.132
 2539PROX    O119709  10.276  13.909  14.430
 2539PROX    C119710  10.211  13.910  14.558
 2539PROX   H1119711  10.172  13.807  14.572
 2539PROX   H1319712  10.285  13.925  14.640
 2539PROX    C219713  10.106  14.026  14.563
 2539PROX   H2119714  10.030  14.016  14.483
 2539PROX    C319715  10.181  14.156  14.535
 2539PROX   H3119716  10.245  14.136  14.447
 2539PROX   H3219717  10.107  14.239  14.534
 2539PROX   H3319718  10.243  14.178  14.625
 2540PROX    O119719  10.058  14.025  14.692
 2540PROX    C119720   9.930  13.964  14.704
 2540PROX   H1119721   9.912  13.869  14.650
 2540PROX   H1319722   9.917  13.960  14.814
 2540PROX    C219723   9.824  14.069  14.649
 2540PROX   H2119724   9.844  14.094  14.542
 2540PROX    C319725   9.812  14.198  14.736
 2540PROX   H3119726   9.804  14.169  14.843
 2540PROX   H3219727   9.891  14.276  14.731
 2540PROX   H3319728   9.721  14.254  14.707
 2541PROX    O119729   9.698  14.017  14.669
 2541PROX    C119730   9.661  13.897  14.596
 2541PROX   H1119731   9.726  13.812  14.628
 2541PROX   H1319732   9.556  13.864  14.607
 2541PROX    C219733   9.659  13.931  14.446
 2541PROX   H2119734   9.763  13.958  14.419
 2541PROX    C319735   9.566  14.047  14.418
 2541PROX   H3119736   9.571  14.136  14.484
 2541PROX   H3219737   9.584  14.088  14.316
 2541PROX   H3319738   9.466  14.000  14.415
 2542PROX    O119739   9.625  13.811  14.376
 2542PROX    C119740   9.706  13.782  14.263
 2542PROX   H1119741   9.730  13.875  14.206
 2542PROX   H1319742   9.808  13.763  14.304
 2542PROX    C219743   9.652  13.670  14.163
 2542PROX   H2119744   9.555  13.702  14.121
 2542PROX    C319745   9.644  13.532  14.240
 2542PROX   H3119746   9.603  13.449  14.179
 2542PROX   H3219747   9.744  13.493  14.267
 2542PROX   H3319748   9.588  13.546  14.335
 2543PROX    O119749   9.740  13.648  14.054
 2543PROX    C119750   9.683  13.602  13.938
 2543PROX   H1119751   9.631  13.504  13.945
 2543PROX   H1319752   9.599  13.667  13.905
 2543PROX    C219753   9.790  13.607  13.826
 2543PROX   H2119754   9.730  13.562  13.744
 2543PROX    C319755   9.923  13.529  13.845
 2543PROX   H3119756   9.992  13.572  13.769
 2543PROX   H3219757   9.973  13.547  13.942
 2543PROX   H3319758   9.902  13.421  13.828
 2544PROX    O119759   9.827  13.748  13.815
 2544PROX    C119760   9.763  13.803  13.702
 2544PROX   H1119761   9.811  13.760  13.612
 2544PROX   H1319762   9.657  13.769  13.700
 2544PROX    C219763   9.777  13.955  13.706
 2544PROX   H2119764   9.886  13.965  13.723
 2544PROX    C319765   9.702  14.014  13.821
 2544PROX   H3119766   9.597  14.011  13.785
 2544PROX   H3219767   9.732  13.968  13.917
 2544PROX   H3319768   9.714  14.125  13.827
 2545PROX    O119769   9.751  14.007  13.578
 2545PROX    C119770   9.795  14.140  13.559
 2545PROX   H1119771   9.711  14.211  13.541
 2545PROX   H1319772   9.850  14.167  13.651
 2545PROX    C219773   9.892  14.137  13.436
 2545PROX   H2119774   9.827  14.094  13.357
 2545PROX    C319775  10.020  14.050  13.456
 2545PROX   H3119776  10.063  14.088  13.551
 2545PROX   H3219777   9.984  13.947  13.479
 2545PROX   H3319778  10.100  14.050  13.379
 2546PROX    O119779   9.933  14.272  13.407
 2546PROX    C119780   9.973  14.289  13.265
 2546PROX   H1119781  10.053  14.365  13.257
 2546PROX   H1319782  10.012  14.194  13.221
 2546PROX    C219783   9.851  14.315  13.176
 2546PROX   H2119784   9.787  14.226  13.193
 2546PROX    C319785   9.893  14.309  13.032
 2546PROX   H3119786   9.950  14.215  13.013
 2546PROX   H3219787   9.806  14.309  12.963
 2546PROX   H3319788   9.970  14.383  13.003
 2547PROX    O119789   9.810  14.443  13.221
 2547PROX    C119790   9.694  14.438  13.310
 2547PROX   H1119791   9.611  14.380  13.264
 2547PROX   H1319792   9.712  14.394  13.411
 2547PROX    C219793   9.654  14.581  13.334
 2547PROX   H2119794   9.619  14.618  13.235
 2547PROX    C319795   9.759  14.667  13.391
 2547PROX   H3119796   9.731  14.775  13.388
 2547PROX   H3219797   9.790  14.625  13.489
 2547PROX   H3319798   9.851  14.669  13.328
 2548PROX    O119799   9.539  14.589  13.413
 2548PROX    C119800   9.416  14.543  13.355
 2548PROX   H1119801   9.401  14.584  13.253
 2548PROX   H1319802   9.420  14.432  13.352
 2548PROX    C219803   9.297  14.581  13.440
 2548PROX   H2119804   9.325  14.554  13.544
 2548PROX    C319805   9.170  14.503  13.403
 2548PROX   H3119806   9.195  14.397  13.382
 2548PROX   H3219807   9.097  14.510  13.487
 2548PROX   H3319808   9.125  14.540  13.309
 2549PROX    O119809   9.265  14.722  13.428
 2549PROX    C119810   9.363  14.812  13.478
 2549PROX   H1119811   9.458  14.816  13.420
 2549PROX   H1319812   9.320  14.913  13.463
 2549PROX    C219813   9.392  14.787  13.628
 2549PROX   H2119814   9.430  14.688  13.659
 2549PROX    C319815   9.266  14.794  13.719
 2549PROX   H3119816   9.192  14.716  13.693
 2549PROX   H3219817   9.283  14.787  13.828
 2549PROX   H3319818   9.213  14.892  13.713
 2550PROX    O119819   9.476  14.892  13.683
 2550PROX    C119820   9.615  14.860  13.652
 2550PROX   H1119821   9.637  14.752  13.644
 2550PROX   H1319822   9.637  14.900  13.551
 2550PROX    C219823   9.721  14.916  13.756
 2550PROX   H2119824   9.708  15.026  13.760
 2550PROX    C319825   9.864  14.902  13.697
 2550PROX   H3119826   9.937  14.926  13.778
 2550PROX   H3219827   9.894  14.799  13.668
 2550PROX   H3319828   9.891  14.967  13.611
 2551ETHO    O119829   9.709  14.849  13.877
 2551ETHO    C119830   9.620  14.914  13.969
 2551ETHO   H1119831   9.552  14.979  13.909
 2551ETHO   H1319832   9.690  14.969  14.034
 2551ETHO    C219833   9.535  14.806  14.037
 2551ETHO   H2119834   9.598  14.728  14.084
 2551ETHO   H2319835   9.478  14.769  13.948
 2552ETHO    O119836   9.445  14.865  14.136
 2552ETHO    C119837   9.338  14.776  14.165
 2552ETHO   H1119838   9.235  14.816  14.152
 2552ETHO   H1319839   9.345  14.683  14.105
 2552ETHO    C219840   9.343  14.708  14.303
 2552ETHO   H2119841   9.436  14.651  14.327
 2552ETHO   H2319842   9.250  14.648  14.306
 2553ETHO    O119843   9.327  14.811  14.399
 2553ETHO    C119844   9.294  14.767  14.529
 2553ETHO   H1119845   9.367  14.686  14.551
 2553ETHO   H1319846   9.192  14.724  14.533
 2553ETHO    C219847   9.295  14.890  14.634
 2553ETHO   H2119848   9.382  14.954  14.608
 2553ETHO   H2319849   9.315  14.842  14.733
 2554ETHO    O119850   9.168  14.951  14.643
 2554ETHO    C119851   9.165  15.074  14.711
 2554ETHO   H1119852   9.222  15.070  14.807
 2554ETHO   H1319853   9.236  15.135  14.652
 2554ETHO    C219854   9.024  15.142  14.727
 2554ETHO   H2119855   8.961  15.064  14.775
 2554ETHO   H2319856   8.980  15.175  14.631
 2555ETHO    O119857   9.007  15.255  14.812
 2555ETHO    C119858   9.077  15.379  14.782
 2555ETHO   H1119859   9.077  15.402  14.673
 2555ETHO   H1319860   9.175  15.371  14.834
 2555ETHO    C219861   9.006  15.497  14.847
 2555ETHO   H2119862   8.895  15.495  14.839
 2555ETHO   H2319863   9.036  15.586  14.788
 2556ETHO    O119864   9.042  15.524  14.987
 2556ETHO    C119865   8.990  15.423  15.081
 2556ETHO   H1119866   8.882  15.413  15.056
 2556ETHO   H1319867   9.031  15.322  15.058
 2556ETHO    C219868   8.996  15.458  15.234
 2556ETHO   H2119869   9.101  15.462  15.270
 2556ETHO   H2319870   8.947  15.375  15.290
 2557ETHO    O119871   8.916  15.573  15.249
 2557ETHO    C119872   8.999  15.690  15.276
 2557ETHO   H1119873   9.044  15.717  15.179
 2557ETHO   H1319874   9.078  15.672  15.352
 2557ETHO    C219875   8.908  15.805  15.324
 2557ETHO   H2119876   8.804  15.789  15.289
 2557ETHO   H2319877   8.947  15.899  15.278
 2558ETHO    O119878   8.901  15.800  15.467
 2558ETHO    C119879   8.782  15.873  15.517
 2558ETHO   H1119880   8.819  15.952  15.584
 2558ETHO   H1319881   8.741  15.921  15.425
 2558ETHO    C219882   8.685  15.792  15.594
 2558ETHO   H2119883   8.601  15.858  15.624
 2558ETHO   H2319884   8.656  15.710  15.525
 2559ETHO    O119885   8.733  15.747  15.714
 2559ETHO    C119886   8.629  15.669  15.778
 2559ETHO   H1119887   8.530  15.719  15.786
 2559ETHO   H1319888   8.613  15.575  15.721
 2559ETHO    C219889   8.659  15.607  15.922
 2559ETHO   H2119890   8.766  15.576  15.927
 2559ETHO   H2319891   8.593  15.518  15.932
 2560ETHO    O119892   8.626  15.693  16.028
 2560ETHO    C119893   8.614  15.630  16.154
 2560ETHO   H1119894   8.534  15.553  16.148
 2560ETHO   H1319895   8.714  15.596  16.187
 2560ETHO    C219896   8.569  15.737  16.250
 2560ETHO   H2119897   8.530  15.682  16.338
 2560ETHO   H2319898   8.486  15.795  16.205
 2561ETHO    O119899   8.670  15.822  16.291
 2561ETHO    C119900   8.624  15.921  16.380
 2561ETHO   H1119901   8.545  15.886  16.450
 2561ETHO   H1319902   8.714  15.947  16.440
 2561ETHO    C219903   8.582  16.054  16.309
 2561ETHO   H2119904   8.651  16.075  16.224
 2561ETHO   H2319905   8.592  16.135  16.385
 2562ETHO    O119906   8.446  16.036  16.273
 2562ETHO    C119907   8.415  16.121  16.165
 2562ETHO   H1119908   8.468  16.089  16.073
 2562ETHO   H1319909   8.454  16.225  16.171
 2562ETHO    C219910   8.270  16.156  16.142
 2562ETHO   H2119911   8.267  16.238  16.067
 2562ETHO   H2319912   8.224  16.189  16.237
 2563ETHO    O119913   8.195  16.046  16.083
 2563ETHO    C119914   8.054  16.071  16.090
 2563ETHO   H1119915   8.032  16.111  16.191
 2563ETHO   H1319916   8.019  16.144  16.014
 2563ETHO    C219917   7.986  15.931  16.061
 2563ETHO   H2119918   7.878  15.932  16.090
 2563ETHO   H2319919   8.038  15.866  16.135
 2564ETHO    O119920   8.006  15.885  15.932
 2564ETHO    C119921   7.903  15.902  15.840
 2564ETHO   H1119922   7.821  15.843  15.885
 2564ETHO   H1319923   7.928  15.847  15.747
 2564ETHO    C219924   7.841  16.036  15.819
 2564ETHO   H2119925   7.773  16.038  15.731
 2564ETHO   H2319926   7.926  16.102  15.792
 2565ETHO    O119927   7.778  16.097  15.929
 2565ETHO    C119928   7.765  16.233  15.900
 2565ETHO   H1119929   7.867  16.273  15.877
 2565ETHO   H1319930   7.710  16.258  15.807
 2565ETHO    C219931   7.720  16.319  16.020
 2565ETHO   H2119932   7.750  16.425  16.006
 2565ETHO   H2319933   7.768  16.282  16.114
 2566ETHO    O119934   7.580  16.320  16.024
 2566ETHO    C119935   7.535  16.374  16.142
 2566ETHO   H1119936   7.583  16.474  16.156
 2566ETHO   H1319937   7.561  16.299  16.221
 2566ETHO    C219938   7.380  16.399  16.131
 2566ETHO   H2119939   7.327  16.303  16.113
 2566ETHO   H2319940   7.369  16.468  16.044
 2567ETHO    O119941   7.324  16.444  16.252
 2567ETHO    C119942   7.311  16.338  16.346
 2567ETHO   H1119943   7.234  16.267  16.309
 2567ETHO   H1319944   7.409  16.289  16.364
 2567ETHO    C219945   7.268  16.385  16.487
 2567ETHO   H2119946   7.233  16.292  16.538
 2567ETHO   H2319947   7.179  16.451  16.477
 2568ETHO    O119948   7.382  16.433  16.564
 2568ETHO    C119949   7.341  16.433  16.696
 2568ETHO   H1119950   7.295  16.335  16.725
 2568ETHO   H1319951   7.264  16.512  16.709
 2568ETHO    C219952   7.451  16.481  16.792
 2568ETHO   H2119953   7.406  16.498  16.892
 2568ETHO   H2319954   7.507  16.570  16.754
 2569ETHO    O119955   7.545  16.376  16.818
 2569ETHO    C119956   7.499  16.290  16.921
 2569ETHO   H1119957   7.523  16.350  17.011
 2569ETHO   H1319958   7.390  16.266  16.914
 2569ETHO    C219959   7.576  16.159  16.921
 2569ETHO   H2119960   7.585  16.125  17.026
 2569ETHO   H2319961   7.677  16.165  16.876
 2570ETHO    O119962   7.501  16.063  16.851
 2570ETHO    C119963   7.532  16.056  16.712
 2570ETHO   H1119964   7.526  16.159  16.672
 2570ETHO   H1319965   7.637  16.020  16.705
 2570ETHO    C219966   7.418  15.981  16.645
 2570ETHO   H2119967   7.436  15.959  16.537
 2570ETHO   H2319968   7.324  16.040  16.656
 2571ETHO    O119969   7.404  15.852  16.710
 2571ETHO    C119970   7.335  15.762  16.627
 2571ETHO   H1119971   7.230  15.797  16.611
 2571ETHO   H1319972   7.369  15.758  16.521
 2571ETHO    C219973   7.318  15.626  16.690
 2571ETHO   H2119974   7.234  15.574  16.638
 2571ETHO   H2319975   7.275  15.648  16.790
 2572ETHO    O119976   7.438  15.551  16.679
 2572ETHO    C119977   7.407  15.417  16.688
 2572ETHO   H1119978   7.398  15.390  16.795
 2572ETHO   H1319979   7.312  15.390  16.636
 2572ETHO    C219980   7.515  15.322  16.622
 2572ETHO   H2119981   7.525  15.358  16.518
 2572ETHO   H2319982   7.472  15.220  16.636
 2573ETHO    O119983   7.649  15.330  16.677
 2573ETHO    C119984   7.674  15.248  16.795
 2573ETHO   H1119985   7.647  15.142  16.778
 2573ETHO   H1319986   7.634  15.308  16.880
 2573ETHO    C219987   7.824  15.250  16.812
 2573ETHO   H2119988   7.839  15.355  16.847
 2573ETHO   H2319989   7.869  15.237  16.712
 2574ETHO    O119990   7.865  15.157  16.913
 2574ETHO    C119991   8.004  15.132  16.901
 2574ETHO   H1119992   8.024  15.059  16.820
 2574ETHO   H1319993   8.068  15.222  16.887
 2574ETHO    C219994   8.044  15.057  17.030
 2574ETHO   H2119995   8.153  15.037  17.021
 2574ETHO   H2319996   7.992  14.959  17.030
 2575ETHO    O119997   8.015  15.138  17.143
 2575ETHO    C119998   8.080  15.083  17.266
 2575ETHO   H1119999   8.069  15.164  17.341
 2575ETHO   H1320000   8.190  15.070  17.262
 2575ETHO    C220001   8.000  14.958  17.313
 2575ETHO   H2120002   7.891  14.975  17.301
 2575ETHO   H2320003   8.022  14.945  17.421
 2576ETHO    O120004   8.026  14.828  17.247
 2576ETHO    C120005   7.962  14.707  17.302
 2576ETHO   H1120006   7.986  14.694  17.410
 2576ETHO   H1320007   7.853  14.714  17.282
 2576ETHO    C220008   8.021  14.586  17.221
 2576ETHO   H2120009   7.998  14.594  17.113
 2576ETHO   H2320010   7.961  14.498  17.253
 2577ETHO    O120011   8.155  14.569  17.248
 2577ETHO    C120012   8.206  14.458  17.174
 2577ETHO   H1120013   8.197  14.480  17.065
 2577ETHO   H1320014   8.146  14.367  17.198
 2577ETHO    C220015   8.356  14.439  17.196
 2577ETHO   H2120016   8.400  14.352  17.144
 2577ETHO   H2320017   8.384  14.431  17.304
 2578ETHO    O120018   8.417  14.547  17.130
 2578ETHO    C120019   8.540  14.589  17.187
 2578ETHO   H1120020   8.591  14.502  17.233
 2578ETHO   H1320021   8.599  14.622  17.099
 2578ETHO    C220022   8.510  14.712  17.276
 2578ETHO   H2120023   8.593  14.724  17.348
 2578ETHO   H2320024   8.419  14.706  17.339
 2579ETHO    O120025   8.526  14.828  17.196
 2579ETHO    C120026   8.511  14.949  17.265
 2579ETHO   H1120027   8.546  14.937  17.369
 2579ETHO   H1320028   8.408  14.988  17.275
 2579ETHO    C220029   8.598  15.050  17.204
 2579ETHO   H2120030   8.701  15.017  17.180
 2579ETHO   H2320031   8.602  15.134  17.277
 2580ETHO    O120032   8.543  15.101  17.074
 2580ETHO    C120033   8.625  15.212  17.033
 2580ETHO   H1120034   8.608  15.292  17.109
 2580ETHO   H1320035   8.733  15.186  17.042
 2580ETHO    C220036   8.599  15.267  16.891
 2580ETHO   H2120037   8.617  15.188  16.815
 2580ETHO   H2320038   8.655  15.360  16.867
 2581ETHO    O120039   8.458  15.302  16.880
 2581ETHO    C120040   8.443  15.351  16.746
 2581ETHO   H1120041   8.486  15.453  16.733
 2581ETHO   H1320042   8.490  15.275  16.680
 2581ETHO    C220043   8.296  15.351  16.696
 2581ETHO   H2120044   8.248  15.262  16.742
 2581ETHO   H2320045   8.299  15.342  16.586
 2582ETHO    O120046   8.222  15.469  16.717
 2582ETHO    C120047   8.096  15.474  16.646
 2582ETHO   H1120048   8.067  15.380  16.594
 2582ETHO   H1320049   8.024  15.517  16.720
 2582ETHO    C220050   8.115  15.578  16.545
 2582ETHO   H2120051   8.141  15.670  16.601
 2582ETHO   H2320052   8.020  15.598  16.491
 2583ETHO    O120053   8.216  15.544  16.452
 2583ETHO    C120054   8.159  15.473  16.340
 2583ETHO   H1120055   8.202  15.371  16.332
 2583ETHO   H1320056   8.048  15.461  16.345
 2583ETHO    C220057   8.188  15.553  16.214
 2583ETHO   H2120058   8.292  15.590  16.222
 2583ETHO   H2320059   8.118  15.640  16.210
 2584ETHO    O120060   8.177  15.477  16.095
 2584ETHO    C120061   8.218  15.566  15.981
 2584ETHO   H1120062   8.327  15.586  15.987
 2584ETHO   H1320063   8.163  15.662  15.993
 2584ETHO    C220064   8.181  15.518  15.843
 2584ETHO   H2120065   8.183  15.599  15.768
 2584ETHO   H2320066   8.080  15.472  15.853
 2585ETHO    O120067   8.266  15.422  15.773
 2585ETHO    C120068   8.199  15.379  15.657
 2585ETHO   H1120069   8.236  15.278  15.629
 2585ETHO   H1320070   8.090  15.368  15.675
 2585ETHO    C220071   8.211  15.468  15.526
 2585ETHO   H2120072   8.209  15.575  15.556
 2585ETHO   H2320073   8.122  15.450  15.462
 2586ETHO    O120074   8.331  15.438  15.457
 2586ETHO    C120075   8.453  15.482  15.520
 2586ETHO   H1120076   8.455  15.427  15.616
 2586ETHO   H1320077   8.442  15.591  15.538
 2586ETHO    C220078   8.566  15.456  15.417
 2586ETHO   H2120079   8.669  15.488  15.443
 2586ETHO   H2320080   8.538  15.510  15.324
 2587ETHO    O120081   8.558  15.315  15.400
 2587ETHO    C120082   8.675  15.268  15.328
 2587ETHO   H1120083   8.689  15.337  15.242
 2587ETHO   H1320084   8.763  15.278  15.394
 2587ETHO    C220085   8.659  15.120  15.279
 2587ETHO   H2120086   8.747  15.107  15.213
 2587ETHO   H2320087   8.565  15.098  15.225
 2588ETHO    O120088   8.663  15.027  15.390
 2588ETHO    C120089   8.671  14.896  15.349
 2588ETHO   H1120090   8.759  14.885  15.283
 2588ETHO   H1320091   8.580  14.869  15.292
 2588ETHO    C220092   8.676  14.789  15.464
 2588ETHO   H2120093   8.672  14.690  15.413
 2588ETHO   H2320094   8.582  14.800  15.522
 2589ETHO    O120095   8.791  14.796  15.554
 2589ETHO    C120096   8.761  14.726  15.672
 2589ETHO   H1120097   8.675  14.777  15.720
 2589ETHO   H1320098   8.734  14.623  15.640
 2589ETHO    C220099   8.885  14.728  15.774
 2589ETHO   H2120100   8.863  14.685  15.874
 2589ETHO   H2320101   8.909  14.834  15.798
 2590ETHO    O120102   9.005  14.673  15.726
 2590ETHO    C120103   9.000  14.531  15.716
 2590ETHO   H1120104   8.925  14.495  15.643
 2590ETHO   H1320105   8.969  14.496  15.816
 2590ETHO    C220106   9.131  14.461  15.686
 2590ETHO   H2120107   9.120  14.351  15.678
 2590ETHO   H2320108   9.207  14.483  15.765
 2591ETHO    O120109   9.188  14.505  15.559
 2591ETHO    C120110   9.332  14.515  15.562
 2591ETHO   H1120111   9.373  14.555  15.657
 2591ETHO   H1320112   9.377  14.414  15.551
 2591ETHO    C220113   9.392  14.578  15.433
 2591ETHO   H2120114   9.355  14.682  15.421
 2591ETHO   H2320115   9.501  14.580  15.451
 2592ETHO    O120116   9.342  14.497  15.319
 2592ETHO    C120117   9.450  14.415  15.262
 2592ETHO   H1120118   9.500  14.369  15.351
 2592ETHO   H1320119   9.533  14.476  15.221
 2592ETHO    C220120   9.430  14.304  15.162
 2592ETHO   H2120121   9.521  14.242  15.151
 2592ETHO   H2320122   9.407  14.354  15.066
 2593ETHO    O120123   9.323  14.219  15.205
 2593ETHO    C120124   9.290  14.123  15.102
 2593ETHO   H1120125   9.376  14.075  15.050
 2593ETHO   H1320126   9.230  14.049  15.159
 2593ETHO    C220127   9.196  14.171  14.992
 2593ETHO   H2120128   9.120  14.235  15.043
 2593ETHO   H2320129   9.151  14.080  14.947
 2594ETHO    O120130   9.261  14.245  14.888
 2594ETHO    C120131   9.171  14.321  14.817
 2594ETHO   H1120132   9.137  14.413  14.870
 2594ETHO   H1320133   9.080  14.259  14.802
 2594ETHO    C220134   9.213  14.355  14.673
 2594ETHO   H2120135   9.130  14.392  14.609
 2594ETHO   H2320136   9.239  14.265  14.613
 2595ETHO    O120137   9.322  14.452  14.661
 2595ETHO    C120138   9.451  14.413  14.700
 2595ETHO   H1120139   9.452  14.398  14.810
 2595ETHO   H1320140   9.471  14.315  14.651
 2595ETHO    C220141   9.565  14.500  14.659
 2595ETHO   H2120142   9.561  14.511  14.548
 2595ETHO   H2320143   9.664  14.458  14.688
 2596ETHO    O120144   9.546  14.627  14.717
 2596ETHO    C120145   9.659  14.704  14.706
 2596ETHO   H1120146   9.634  14.782  14.780
 2596ETHO   H1320147   9.750  14.654  14.745
 2596ETHO    C220148   9.676  14.774  14.572
 2596ETHO   H2120149   9.749  14.857  14.585
 2596ETHO   H2320150   9.583  14.819  14.530
 2597ETHO    O120151   9.732  14.681  14.482
 2597ETHO    C120152   9.767  14.751  14.359
 2597ETHO   H1120153   9.673  14.780  14.306
 2597ETHO   H1320154   9.837  14.835  14.378
 2597ETHO    C220155   9.826  14.643  14.268
 2597ETHO   H2120156   9.859  14.692  14.174
 2597ETHO   H2320157   9.746  14.572  14.240
 2598ETHO    O120158   9.946  14.577  14.314
 2598ETHO    C120159   9.918  14.450  14.376
 2598ETHO   H1120160  10.017  14.414  14.411
 2598ETHO   H1320161   9.872  14.475  14.474
 2598ETHO    C220162   9.855  14.334  14.285
 2598ETHO   H2120163   9.752  14.368  14.263
 2598ETHO   H2320164   9.853  14.247  14.354
 2599ETHO    O120165   9.934  14.318  14.173
 2599ETHO    C120166   9.909  14.202  14.081
 2599ETHO   H1120167   9.820  14.226  14.019
 2599ETHO   H1320168   9.881  14.117  14.148
 2599ETHO    C220169  10.027  14.172  13.987
 2599ETHO   H2120170  10.124  14.187  14.038
 2599ETHO   H2320171  10.031  14.233  13.894
 2600ETHO    O120172  10.004  14.036  13.950
 2600ETHO    C120173  10.128  13.995  13.890
 2600ETHO   H1120174  10.149  14.050  13.796
 2600ETHO   H1320175  10.207  14.012  13.966
 2600ETHO    C220176  10.129  13.844  13.850
 2600ETHO   H2120177  10.058  13.822  13.767
 2600ETHO   H2320178  10.087  13.795  13.941
 2601ETHO    O120179  10.259  13.799  13.816
 2601ETHO    C120180  10.300  13.833  13.684
 2601ETHO   H1120181  10.410  13.850  13.683
 2601ETHO   H1320182  10.253  13.926  13.645
 2601ETHO    C220183  10.257  13.717  13.593
 2601ETHO   H2120184  10.286  13.616  13.631
 2601ETHO   H2320185  10.309  13.743  13.499
 2602ETHO    O120186  10.123  13.720  13.561
 2602ETHO    C120187  10.089  13.604  13.487
 2602ETHO   H1120188  10.160  13.591  13.403
 2602ETHO   H1320189  10.105  13.518  13.556
 2602ETHO    C220190   9.953  13.609  13.425
 2602ETHO   H2120191   9.972  13.540  13.341
 2602ETHO   H2320192   9.927  13.710  13.386
 2603ETHO    O120193   9.854  13.556  13.508
 2603ETHO    C120194   9.732  13.531  13.439
 2603ETHO   H1120195   9.756  13.479  13.344
 2603ETHO   H1320196   9.696  13.634  13.416
 2603ETHO    C220197   9.623  13.453  13.518
 2603ETHO   H2120198   9.676  13.389  13.591
 2603ETHO   H2320199   9.574  13.380  13.450
 2604ETHO    O120200   9.536  13.533  13.594
 2604ETHO    C120201   9.399  13.515  13.564
 2604ETHO   H1120202   9.386  13.522  13.454
 2604ETHO   H1320203   9.370  13.411  13.591
 2604ETHO    C220204   9.309  13.614  13.627
 2604ETHO   H2120205   9.344  13.613  13.732
 2604ETHO   H2320206   9.209  13.567  13.615
 2605ETHO    O120207   9.314  13.746  13.565
 2605ETHO    C120208   9.219  13.829  13.628
 2605ETHO   H1120209   9.230  13.831  13.738
 2605ETHO   H1320210   9.122  13.777  13.612
 2605ETHO    C220211   9.212  13.979  13.580
 2605ETHO   H2120212   9.306  14.015  13.533
 2605ETHO   H2320213   9.177  14.044  13.663
 2606ETHO    O120214   9.110  13.976  13.483
 2606ETHO    C120215   9.071  14.108  13.433
 2606ETHO   H1120216   9.158  14.160  13.388
 2606ETHO   H1320217   8.990  14.083  13.360
 2606ETHO    C220218   9.016  14.194  13.547
 2606ETHO   H2120219   8.960  14.133  13.620
 2606ETHO   H2320220   8.938  14.263  13.508
 2607ETHO    O120221   9.109  14.269  13.622
 2607ETHO    C120222   9.069  14.309  13.750
 2607ETHO   H1120223   9.037  14.218  13.803
 2607ETHO   H1320224   9.157  14.361  13.793
 2607ETHO    C220225   8.954  14.413  13.745
 2607ETHO   H2120226   8.857  14.364  13.720
 2607ETHO   H2320227   8.974  14.507  13.689
 2608ETHO    O120228   8.934  14.471  13.876
 2608ETHO    C120229   9.031  14.573  13.913
 2608ETHO   H1120230   9.131  14.525  13.911
 2608ETHO   H1320231   9.028  14.661  13.845
 2608ETHO    C220232   9.000  14.625  14.054
 2608ETHO   H2120233   8.892  14.640  14.075
 2608ETHO   H2320234   9.049  14.724  14.052
 2609ETHO    O120235   9.063  14.551  14.162
 2609ETHO    C120236   8.992  14.428  14.182
 2609ETHO   H1120237   8.885  14.441  14.153
 2609ETHO   H1320238   9.023  14.340  14.122
 2609ETHO    C220239   9.019  14.379  14.329
 2609ETHO   H2120240   9.114  14.418  14.372
 2609ETHO   H2320241   9.020  14.269  14.318
 2610ETHO    O120242   8.919  14.412  14.413
 2610ETHO    C120243   8.892  14.552  14.418
 2610ETHO   H1120244   8.869  14.596  14.319
 2610ETHO   H1320245   8.982  14.602  14.459
 2610ETHO    C220246   8.779  14.594  14.508
 2610ETHO   H2120247   8.699  14.517  14.511
 2610ETHO   H2320248   8.738  14.685  14.461
 2611ETHO    O120249   8.826  14.606  14.633
 2611ETHO    C120250   8.728  14.642  14.729
 2611ETHO   H1120251   8.685  14.742  14.707
 2611ETHO   H1320252   8.642  14.572  14.733
 2611ETHO    C220253   8.797  14.639  14.866
 2611ETHO   H2120254   8.748  14.709  14.938
 2611ETHO   H2320255   8.900  14.681  14.853
 2612ETHO    O120256   8.804  14.511  14.929
 2612ETHO    C120257   8.898  14.508  15.035
 2612ETHO   H1120258   8.876  14.588  15.109
 2612ETHO   H1320259   9.002  14.530  15.001
 2612ETHO    C220260   8.891  14.367  15.099
 2612ETHO   H2120261   8.980  14.346  15.162
 2612ETHO   H2320262   8.896  14.293  15.016
 2613ETHO    O120263   8.768  14.354  15.169
 2613ETHO    C120264   8.776  14.394  15.310
 2613ETHO   H1120265   8.836  14.318  15.365
 2613ETHO   H1320266   8.814  14.497  15.324
 2613ETHO    C220267   8.640  14.384  15.398
 2613ETHO   H2120268   8.666  14.397  15.505
 2613ETHO   H2320269   8.602  14.286  15.364
 2614ETHO    O120270   8.542  14.476  15.363
 2614ETHO    C120271   8.431  14.475  15.450
 2614ETHO   H1120272   8.471  14.517  15.545
 2614ETHO   H1320273   8.391  14.373  15.472
 2614ETHO    C220274   8.299  14.556  15.414
 2614ETHO   H2120275   8.219  14.529  15.486
 2614ETHO   H2320276   8.261  14.524  15.315
 2615ETHO    O120277   8.317  14.701  15.423
 2615ETHO    C120278   8.197  14.770  15.400
 2615ETHO   H1120279   8.186  14.790  15.291
 2615ETHO   H1320280   8.121  14.714  15.460
 2615ETHO    C220281   8.212  14.917  15.450
 2615ETHO   H2120282   8.172  14.991  15.377
 2615ETHO   H2320283   8.321  14.938  15.456
 2616ETHO    O120284   8.142  14.947  15.566
 2616ETHO    C120285   8.199  14.895  15.688
 2616ETHO   H1120286   8.307  14.915  15.671
 2616ETHO   H1320287   8.200  14.784  15.698
 2616ETHO    C220288   8.154  14.967  15.816
 2616ETHO   H2120289   8.152  15.078  15.813
 2616ETHO   H2320290   8.220  14.940  15.900
 2617ETHO    O120291   8.024  14.949  15.861
 2617ETHO    C120292   7.991  14.815  15.887
 2617ETHO   H1120293   7.963  14.767  15.791
 2617ETHO   H1320294   8.071  14.754  15.935
 2617ETHO    C220295   7.871  14.806  15.985
 2617ETHO   H2120296   7.886  14.896  16.049
 2617ETHO   H2320297   7.872  14.716  16.050
 2618ETHO    O120298   7.743  14.819  15.924
 2618ETHO    C120299   7.713  14.963  15.903
 2618ETHO   H1120300   7.713  15.018  15.999
 2618ETHO   H1320301   7.793  15.001  15.835
 2618ETHO    C220302   7.579  14.988  15.830
 2618ETHO   H2120303   7.565  14.902  15.761
 2618ETHO   H2320304   7.576  15.074  15.760
 2619ETHO    O120305   7.464  14.998  15.909
 2619ETHO    C120306   7.347  14.952  15.844
 2619ETHO   H1120307   7.310  15.042  15.792
 2619ETHO   H1320308   7.363  14.863  15.779
 2619ETHO    C220309   7.232  14.920  15.947
 2619ETHO   H2120310   7.281  14.870  16.034
 2619ETHO   H2320311   7.166  14.847  15.896
 2620ETHO    O120312   7.153  15.040  15.972
 2620ETHO    C120313   7.013  15.001  15.998
 2620ETHO   H1120314   6.956  14.976  15.906
 2620ETHO   H1320315   7.009  14.916  16.070
 2620ETHO    C220316   6.934  15.102  16.076
 2620ETHO   H2120317   6.922  15.190  16.009
 2620ETHO   H2320318   6.981  15.123  16.174
 2621ETHO    O120319   6.802  15.056  16.110
 2621ETHO    C120320   6.754  15.098  16.236
 2621ETHO   H1120321   6.645  15.084  16.252
 2621ETHO   H1320322   6.772  15.207  16.236
 2621ETHO    C220323   6.815  15.019  16.356
 2621ETHO   H2120324   6.779  15.079  16.442
 2621ETHO   H2320325   6.926  15.014  16.353
 2622ETHO    O120326   6.763  14.888  16.364
 2622ETHO    C120327   6.805  14.834  16.488
 2622ETHO   H1120328   6.792  14.724  16.482
 2622ETHO   H1320329   6.913  14.843  16.512
 2622ETHO    C220330   6.722  14.883  16.614
 2622ETHO   H2120331   6.740  14.987  16.649
 2622ETHO   H2320332   6.759  14.825  16.701
 2623ETHO    O120333   6.585  14.858  16.603
 2623ETHO    C120334   6.515  14.836  16.728
 2623ETHO   H1120335   6.519  14.927  16.792
 2623ETHO   H1320336   6.565  14.749  16.775
 2623ETHO    C220337   6.365  14.803  16.708
 2623ETHO   H2120338   6.323  14.791  16.811
 2623ETHO   H2320339   6.350  14.712  16.647
 2624ETHO    O120340   6.317  14.919  16.644
 2624ETHO    C120341   6.201  14.893  16.570
 2624ETHO   H1120342   6.208  14.814  16.492
 2624ETHO   H1320343   6.118  14.861  16.636
 2624ETHO    C220344   6.144  15.013  16.496
 2624ETHO   H2120345   6.220  15.082  16.454
 2624ETHO   H2320346   6.079  14.979  16.413
 2625ETHO    O120347   6.067  15.089  16.587
 2625ETHO    C120348   5.932  15.114  16.553
 2625ETHO   H1120349   5.874  15.024  16.524
 2625ETHO   H1320350   5.937  15.180  16.463
 2625ETHO    C220351   5.843  15.190  16.657
 2625ETHO   H2120352   5.753  15.228  16.604
 2625ETHO   H2320353   5.897  15.279  16.696
 2626ETHO    O120354   5.810  15.101  16.761
 2626ETHO    C120355   5.726  15.159  16.861
 2626ETHO   H1120356   5.777  15.246  16.908
 2626ETHO   H1320357   5.633  15.186  16.806
 2626ETHO    C220358   5.680  15.075  16.976
 2626ETHO   H2120359   5.631  15.144  17.048
 2626ETHO   H2320360   5.763  15.019  17.024
 2627ETHO    O120361   5.588  14.987  16.914
 2627ETHO    C120362   5.497  14.916  17.002
 2627ETHO   H1120363   5.419  14.985  17.042
 2627ETHO   H1320364   5.556  14.863  17.080
 2627ETHO    C220365   5.412  14.814  16.926
 2627ETHO   H2120366   5.344  14.751  16.987
 2627ETHO   H2320367   5.476  14.739  16.875
 2628ETHO    O120368   5.334  14.891  16.828
 2628ETHO    C120369   5.242  14.817  16.744
 2628ETHO   H1120370   5.292  14.727  16.702
 2628ETHO   H1320371   5.162  14.780  16.811
 2628ETHO    C220372   5.172  14.902  16.644
 2628ETHO   H2120373   5.175  15.005  16.687
 2628ETHO   H2320374   5.066  14.870  16.639
 2629ETHO    O120375   5.230  14.893  16.516
 2629ETHO    C120376   5.189  14.994  16.436
 2629ETHO   H1120377   5.288  15.030  16.400
 2629ETHO   H1320378   5.133  15.074  16.488
 2629ETHO    C220379   5.111  14.939  16.315
 2629ETHO   H2120380   5.157  14.854  16.260
 2629ETHO   H2320381   5.096  15.024  16.246
 2630ETHO    O120382   4.983  14.894  16.356
 2630ETHO    C120383   4.879  14.966  16.298
 2630ETHO   H1120384   4.872  15.066  16.347
 2630ETHO   H1320385   4.896  14.986  16.190
 2630ETHO    C220386   4.751  14.895  16.338
 2630ETHO   H2120387   4.665  14.963  16.318
 2630ETHO   H2320388   4.752  14.862  16.444
 2631ETHO    O120389   4.735  14.781  16.254
 2631ETHO    C120390   4.636  14.689  16.294
 2631ETHO   H1120391   4.548  14.743  16.334
 2631ETHO   H1320392   4.682  14.618  16.366
 2631ETHO    C220393   4.588  14.596  16.187
 2631ETHO   H2120394   4.546  14.506  16.235
 2631ETHO   H2320395   4.675  14.557  16.130
 2632ETHO    O120396   4.479  14.641  16.096
 2632ETHO    C120397   4.348  14.638  16.151
 2632ETHO   H1120398   4.316  14.546  16.204
 2632ETHO   H1320399   4.338  14.717  16.229
 2632ETHO    C220400   4.236  14.654  16.047
 2632ETHO   H2120401   4.249  14.575  15.970
 2632ETHO   H2320402   4.135  14.628  16.086
 2633ETHO    O120403   4.249  14.783  15.988
 2633ETHO    C120404   4.129  14.823  15.915
 2633ETHO   H1120405   4.122  14.764  15.821
 2633ETHO   H1320406   4.043  14.794  15.978
 2633ETHO    C220407   4.118  14.967  15.872
 2633ETHO   H2120408   4.030  14.989  15.809
 2633ETHO   H2320409   4.201  14.985  15.800
 2634ETHO    O120410   4.130  15.054  15.978
 2634ETHO    C120411   4.095  15.188  15.939
 2634ETHO   H1120412   4.149  15.209  15.844
 2634ETHO   H1320413   3.984  15.189  15.937
 2634ETHO    C220414   4.149  15.280  16.049
 2634ETHO   H2120415   4.140  15.248  16.155
 2634ETHO   H2320416   4.106  15.381  16.031
 2635ETHO    O120417   4.285  15.304  16.008
 2635ETHO    C120418   4.365  15.383  16.101
 2635ETHO   H1120419   4.324  15.367  16.203
 2635ETHO   H1320420   4.473  15.357  16.097
 2635ETHO    C220421   4.347  15.537  16.075
 2635ETHO   H2120422   4.402  15.603  16.146
 2635ETHO   H2320423   4.238  15.553  16.086
 2636ETHO    O120424   4.402  15.558  15.946
 2636ETHO    C120425   4.307  15.555  15.843
 2636ETHO   H1120426   4.214  15.608  15.873
 2636ETHO   H1320427   4.283  15.447  15.833
 2636ETHO    C220428   4.385  15.596  15.725
 2636ETHO   H2120429   4.438  15.692  15.743
 2636ETHO   H2320430   4.324  15.598  15.632
 2637ETHO    O120431   4.484  15.504  15.692
 2637ETHO    C120432   4.562  15.539  15.581
 2637ETHO   H1120433   4.511  15.538  15.482
 2637ETHO   H1320434   4.605  15.640  15.594
 2637ETHO    C220435   4.685  15.456  15.562
 2637ETHO   H2120436   4.709  15.452  15.454
 2637ETHO   H2320437   4.659  15.351  15.588
 2638ETHO    O120438   4.792  15.509  15.643
 2638ETHO    C120439   4.903  15.428  15.630
 2638ETHO   H1120440   4.912  15.416  15.520
 2638ETHO   H1320441   4.888  15.327  15.675
 2638ETHO    C220442   5.030  15.494  15.692
 2638ETHO   H2120443   5.072  15.562  15.615
 2638ETHO   H2320444   5.102  15.411  15.705
 2639ETHO    O120445   5.007  15.566  15.813
 2639ETHO    C120446   5.115  15.553  15.903
 2639ETHO   H1120447   5.088  15.581  16.007
 2639ETHO   H1320448   5.151  15.448  15.903
 2639ETHO    C220449   5.239  15.634  15.872
 2639ETHO   H2120450   5.312  15.637  15.956
 2639ETHO   H2320451   5.200  15.737  15.863
 2640ETHO    O120452   5.290  15.583  15.753
 2640ETHO    C120453   5.373  15.681  15.688
 2640ETHO   H1120454   5.456  15.714  15.755
 2640ETHO   H1320455   5.313  15.773  15.675
 2640ETHO    C220456   5.434  15.636  15.554
 2640ETHO   H2120457   5.481  15.720  15.498
 2640ETHO   H2320458   5.362  15.587  15.486
 2641ETHO    O120459   5.547  15.556  15.586
 2641ETHO    C120460   5.527  15.421  15.566
 2641ETHO   H1120461   5.438  15.384  15.619
 2641ETHO   H1320462   5.512  15.408  15.456
 2641ETHO    C220463   5.649  15.338  15.600
 2641ETHO   H2120464   5.739  15.386  15.556
 2641ETHO   H2320465   5.636  15.236  15.557
 2642ETHO    O120466   5.658  15.328  15.741
 2642ETHO    C120467   5.770  15.257  15.775
 2642ETHO   H1120468   5.866  15.293  15.733
 2642ETHO   H1320469   5.762  15.154  15.734
 2642ETHO    C220470   5.793  15.255  15.929
 2642ETHO   H2120471   5.786  15.351  15.984
 2642ETHO   H2320472   5.896  15.215  15.934
 2643ETHO    O120473   5.706  15.161  15.990
 2643ETHO    C120474   5.713  15.162  16.134
 2643ETHO   H1120475   5.813  15.180  16.179
 2643ETHO   H1320476   5.650  15.246  16.169
 2643ETHO    C220477   5.644  15.037  16.192
 2643ETHO   H2120478   5.642  15.036  16.303
 2643ETHO   H2320479   5.698  14.944  16.163
 2644ETHO    O120480   5.521  15.032  16.133
 2644ETHO    C120481   5.445  14.909  16.166
 2644ETHO   H1120482   5.479  14.870  16.264
 2644ETHO   H1320483   5.338  14.936  16.175
 2644ETHO    C220484   5.464  14.795  16.058
 2644ETHO   H2120485   5.440  14.703  16.116
 2644ETHO   H2320486   5.569  14.784  16.023
 2645ETHO    O120487   5.386  14.810  15.947
 2645ETHO    C120488   5.362  14.682  15.880
 2645ETHO   H1120489   5.456  14.638  15.841
 2645ETHO   H1320490   5.309  14.614  15.951
 2645ETHO    C220491   5.290  14.708  15.750
 2645ETHO   H2120492   5.269  14.613  15.697
 2645ETHO   H2320493   5.337  14.785  15.686
 2646ETHO    O120494   5.162  14.744  15.791
 2646ETHO    C120495   5.070  14.754  15.683
 2646ETHO   H1120496   5.109  14.816  15.600
 2646ETHO   H1320497   5.057  14.655  15.635
 2646ETHO    C220498   4.936  14.815  15.719
 2646ETHO   H2120499   4.894  14.852  15.623
 2646ETHO   H2320500   4.954  14.906  15.782
 2647ETHO    O120501   4.848  14.722  15.771
 2647ETHO    C120502   4.751  14.770  15.865
 2647ETHO   H1120503   4.735  14.879  15.849
 2647ETHO   H1320504   4.796  14.757  15.966
 2647ETHO    C220505   4.614  14.709  15.847
 2647ETHO   H2120506   4.548  14.753  15.925
 2647ETHO   H2320507   4.617  14.602  15.876
 2648ETHO    O120508   4.546  14.733  15.722
 2648ETHO    C120509   4.436  14.644  15.714
 2648ETHO   H1120510   4.369  14.651  15.802
 2648ETHO   H1320511   4.489  14.546  15.715
 2648ETHO    C220512   4.351  14.647  15.592
 2648ETHO   H2120513   4.338  14.754  15.564
 2648ETHO   H2320514   4.251  14.603  15.610
 2649ETHO    O120515   4.419  14.587  15.481
 2649ETHO    C120516   4.332  14.570  15.366
 2649ETHO   H1120517   4.270  14.662  15.359
 2649ETHO   H1320518   4.256  14.489  15.368
 2649ETHO    C220519   4.420  14.561  15.237
 2649ETHO   H2120520   4.494  14.642  15.223
 2649ETHO   H2320521   4.349  14.564  15.151
 2650ETHO    O120522   4.490  14.439  15.236
 2650ETHO    C120523   4.574  14.418  15.126
 2650ETHO   H1120524   4.604  14.311  15.125
 2650ETHO   H1320525   4.522  14.433  15.029
 2650ETHO    C220526   4.704  14.503  15.129
 2650ETHO   H2120527   4.682  14.610  15.144
 2650ETHO   H2320528   4.758  14.480  15.035
 2650ETHO    OZ20529   4.794  14.456  15.233
 2650ETHO   HZ120530   4.835  14.535  15.270
 2651ETHO    O120531  13.111  15.232   3.433
 2651ETHO   HO120532  13.036  15.248   3.376
 2651ETHO    C120533  13.065  15.118   3.503
 2651ETHO   H1120534  13.058  15.030   3.435
 2651ETHO   H1320535  12.966  15.137   3.551
 2651ETHO    C220536  13.164  15.085   3.619
 2651ETHO   H2120537  13.115  15.022   3.697
 2651ETHO   H2320538  13.186  15.184   3.662
 2652ETHO    O120539  13.288  15.034   3.571
 2652ETHO    C120540  13.376  15.010   3.678
 2652ETHO   H1120541  13.360  15.077   3.765
 2652ETHO   H1320542  13.360  14.908   3.719
 2652ETHO    C220543  13.519  15.049   3.638
 2652ETHO   H2120544  13.579  15.042   3.732
 2652ETHO   H2320545  13.516  15.149   3.590
 2653ETHO    O120546  13.576  14.956   3.547
 2653ETHO    C120547  13.702  15.001   3.508
 2653ETHO   H1120548  13.763  15.037   3.593
 2653ETHO   H1320549  13.684  15.085   3.438
 2653ETHO    C220550  13.783  14.894   3.432
 2653ETHO   H2120551  13.763  14.799   3.486
 2653ETHO   H2320552  13.888  14.931   3.436
 2654ETHO    O120553  13.744  14.880   3.298
 2654ETHO    C120554  13.789  14.749   3.248
 2654ETHO   H1120555  13.764  14.664   3.315
 2654ETHO   H1320556  13.727  14.737   3.157
 2654ETHO    C220557  13.929  14.750   3.200
 2654ETHO   H2120558  13.956  14.648   3.167
 2654ETHO   H2320559  13.997  14.788   3.280
 2655ETHO    O120560  13.948  14.839   3.089
 2655ETHO    C120561  14.083  14.840   3.049
 2655ETHO   H1120562  14.153  14.852   3.134
 2655ETHO   H1320563  14.113  14.745   3.000
 2655ETHO    C220564  14.102  14.954   2.953
 2655ETHO   H2120565  14.029  14.956   2.870
 2655ETHO   H2320566  14.200  14.934   2.903
 2656ETHO    O120567  14.121  15.075   3.019
 2656ETHO    C120568  14.161  15.186   2.937
 2656ETHO   H1120569  14.269  15.178   2.910
 2656ETHO   H1320570  14.093  15.181   2.850
 2656ETHO    C220571  14.151  15.325   3.022
 2656ETHO   H2120572  14.211  15.393   2.958
 2656ETHO   H2320573  14.201  15.321   3.121
 2657ETHO    O120574  14.020  15.384   3.046
 2657ETHO    C120575  14.026  15.498   3.125
 2657ETHO   H1120576  14.110  15.489   3.198
 2657ETHO   H1320577  14.048  15.580   3.053
 2657ETHO    C220578  13.890  15.529   3.188
 2657ETHO   H2120579  13.904  15.616   3.256
 2657ETHO   H2320580  13.852  15.439   3.240
 2658ETHO    O120581  13.788  15.563   3.092
 2658ETHO    C120582  13.659  15.570   3.168
 2658ETHO   H1120583  13.666  15.648   3.247
 2658ETHO   H1320584  13.617  15.472   3.197
 2658ETHO    C220585  13.548  15.624   3.071
 2658ETHO   H2120586  13.452  15.636   3.125
 2658ETHO   H2320587  13.535  15.552   2.987
 2659ETHO    O120588  13.580  15.760   3.033
 2659ETHO    C120589  13.474  15.808   2.944
 2659ETHO   H1120590  13.468  15.733   2.862
 2659ETHO   H1320591  13.374  15.819   2.991
 2659ETHO    C220592  13.515  15.951   2.898
 2659ETHO   H2120593  13.437  15.982   2.824
 2659ETHO   H2320594  13.611  15.963   2.843
 2660ETHO    O120595  13.495  16.054   2.997
 2660ETHO    C120596  13.583  16.160   2.968
 2660ETHO   H1120597  13.567  16.197   2.864
 2660ETHO   H1320598  13.683  16.119   2.991
 2660ETHO    C220599  13.572  16.286   3.056
 2660ETHO   H2120600  13.463  16.310   3.066
 2660ETHO   H2320601  13.627  16.366   3.003
 2661ETHO    O120602  13.615  16.272   3.187
 2661ETHO    C120603  13.738  16.340   3.196
 2661ETHO   H1120604  13.807  16.321   3.110
 2661ETHO   H1320605  13.729  16.450   3.209
 2661ETHO    C220606  13.833  16.291   3.309
 2661ETHO   H2120607  13.836  16.180   3.310
 2661ETHO   H2320608  13.934  16.318   3.273
 2662ETHO    O120609  13.821  16.346   3.441
 2662ETHO    C120610  13.689  16.343   3.484
 2662ETHO   H1120611  13.658  16.237   3.477
 2662ETHO   H1320612  13.620  16.409   3.427
 2662ETHO    C220613  13.679  16.402   3.630
 2662ETHO   H2120614  13.575  16.413   3.665
 2662ETHO   H2320615  13.716  16.507   3.629
 2663ETHO    O120616  13.744  16.333   3.734
 2663ETHO    C120617  13.770  16.423   3.840
 2663ETHO   H1120618  13.844  16.495   3.801
 2663ETHO   H1320619  13.683  16.475   3.885
 2663ETHO    C220620  13.845  16.356   3.956
 2663ETHO   H2120621  13.858  16.437   4.032
 2663ETHO   H2320622  13.947  16.328   3.923
 2664ETHO    O120623  13.782  16.236   4.021
 2664ETHO    C120624  13.660  16.263   4.092
 2664ETHO   H1120625  13.572  16.282   4.027
 2664ETHO   H1320626  13.670  16.352   4.157
 2664ETHO    C220627  13.614  16.137   4.172
 2664ETHO   H2120628  13.624  16.054   4.099
 2664ETHO   H2320629  13.508  16.149   4.200
 2665ETHO    O120630  13.699  16.095   4.282
 2665ETHO    C120631  13.637  16.132   4.407
 2665ETHO   H1120632  13.624  16.243   4.410
 2665ETHO   H1320633  13.542  16.076   4.415
 2665ETHO    C220634  13.715  16.078   4.530
 2665ETHO   H2120635  13.668  16.094   4.629
 2665ETHO   H2320636  13.724  15.969   4.507
 2666ETHO    O120637  13.845  16.132   4.527
 2666ETHO    C120638  13.917  16.115   4.646
 2666ETHO   H1120639  13.892  16.015   4.689
 2666ETHO   H1320640  14.025  16.109   4.618
 2666ETHO    C220641  13.895  16.207   4.768
 2666ETHO   H2120642  13.959  16.163   4.848
 2666ETHO   H2320643  13.788  16.201   4.797
 2667ETHO    O120644  13.934  16.337   4.751
 2667ETHO    C120645  13.932  16.415   4.866
 2667ETHO   H1120646  13.829  16.422   4.906
 2667ETHO   H1320647  13.986  16.370   4.952
 2667ETHO    C220648  13.971  16.561   4.854
 2667ETHO   H2120649  14.068  16.578   4.802
 2667ETHO   H2320650  13.958  16.604   4.955
 2668ETHO    O120651  13.879  16.638   4.773
 2668ETHO    C120652  13.917  16.765   4.774
 2668ETHO   H1120653  13.915  16.800   4.880
 2668ETHO   H1320654  14.013  16.791   4.725
 2668ETHO    C220655  13.819  16.849   4.688
 2668ETHO   H2120656  13.717  16.829   4.728
 2668ETHO   H2320657  13.833  16.818   4.583
 2669ETHO    O120658  13.838  16.993   4.690
 2669ETHO    C120659  13.771  17.051   4.811
 2669ETHO   H1120660  13.794  17.004   4.908
 2669ETHO   H1320661  13.662  17.032   4.799
 2669ETHO    C220662  13.812  17.202   4.805
 2669ETHO   H2120663  13.781  17.234   4.703
 2669ETHO   H2320664  13.923  17.204   4.811
 2670ETHO    O120665  13.746  17.283   4.908
 2670ETHO    C120666  13.810  17.408   4.919
 2670ETHO   H1120667  13.906  17.389   4.973
 2670ETHO   H1320668  13.835  17.450   4.819
 2670ETHO    C220669  13.726  17.520   4.980
 2670ETHO   H2120670  13.631  17.532   4.925
 2670ETHO   H2320671  13.780  17.615   4.963
 2671ETHO    O120672  13.704  17.509   5.124
 2671ETHO    C120673  13.639  17.626   5.168
 2671ETHO   H1120674  13.560  17.609   5.244
 2671ETHO   H1320675  13.597  17.678   5.079
 2671ETHO    C220676  13.731  17.728   5.235
 2671ETHO   H2120677  13.669  17.819   5.247
 2671ETHO   H2320678  13.820  17.753   5.173
 2672ETHO    O120679  13.776  17.703   5.363
 2672ETHO    C120680  13.705  17.755   5.470
 2672ETHO   H1120681  13.597  17.749   5.448
 2672ETHO   H1320682  13.713  17.693   5.562
 2672ETHO    C220683  13.741  17.900   5.511
 2672ETHO   H2120684  13.730  17.960   5.418
 2672ETHO   H2320685  13.671  17.947   5.584
 2673ETHO    O120686  13.875  17.902   5.554
 2673ETHO    C120687  13.908  18.027   5.622
 2673ETHO   H1120688  13.826  18.072   5.681
 2673ETHO   H1320689  13.922  18.101   5.540
 2673ETHO    C220690  14.039  18.022   5.701
 2673ETHO   H2120691  14.059  18.120   5.748
 2673ETHO   H2320692  14.121  17.988   5.634
 2674ETHO    O120693  14.041  17.927   5.799
 2674ETHO    C120694  13.971  17.962   5.913
 2674ETHO   H1120695  14.005  18.057   5.959
 2674ETHO   H1320696  13.862  17.964   5.888
 2674ETHO    C220697  13.991  17.850   6.013
 2674ETHO   H2120698  13.944  17.759   5.969
 2674ETHO   H2320699  13.920  17.874   6.094
 2675ETHO    O120700  14.120  17.832   6.076
 2675ETHO    C120701  14.136  17.898   6.201
 2675ETHO   H1120702  14.091  17.838   6.282
 2675ETHO   H1320703  14.099  18.003   6.208
 2675ETHO    C220704  14.282  17.903   6.240
 2675ETHO   H2120705  14.325  17.802   6.224
 2675ETHO   H2320706  14.299  17.904   6.350
 2676ETHO    O120707  14.361  18.006   6.172
 2676ETHO    C120708  14.499  17.991   6.198
 2676ETHO   H1120709  14.531  18.097   6.207
 2676ETHO   H1320710  14.518  17.948   6.298
 2676ETHO    C220711  14.581  17.920   6.088
 2676ETHO   H2120712  14.684  17.925   6.131
 2676ETHO   H2320713  14.566  17.969   5.990
 2677ETHO    O120714  14.552  17.776   6.076
 2677ETHO    C120715  14.632  17.723   5.975
 2677ETHO   H1120716  14.737  17.748   6.000
 2677ETHO   H1320717  14.604  17.784   5.886
 2677ETHO    C220718  14.637  17.572   5.948
 2677ETHO   H2120719  14.661  17.505   6.033
 2677ETHO   H2320720  14.714  17.551   5.872
 2678ETHO    O120721  14.515  17.525   5.892
 2678ETHO    C120722  14.523  17.392   5.838
 2678ETHO   H1120723  14.583  17.388   5.744
 2678ETHO   H1320724  14.560  17.332   5.923
 2678ETHO    C220725  14.375  17.349   5.799
 2678ETHO   H2120726  14.355  17.408   5.707
 2678ETHO   H2320727  14.305  17.361   5.884
 2679ETHO    O120728  14.364  17.214   5.758
 2679ETHO    C120729  14.231  17.202   5.699
 2679ETHO   H1120730  14.242  17.229   5.592
 2679ETHO   H1320731  14.168  17.282   5.744
 2679ETHO    C220732  14.180  17.061   5.703
 2679ETHO   H2120733  14.256  16.999   5.651
 2679ETHO   H2320734  14.091  17.055   5.637
 2680ETHO    O120735  14.175  17.008   5.830
 2680ETHO    C120736  14.120  16.875   5.827
 2680ETHO   H1120737  14.051  16.860   5.913
 2680ETHO   H1320738  14.053  16.867   5.739
 2680ETHO    C220739  14.224  16.763   5.817
 2680ETHO   H2120740  14.302  16.776   5.739
 2680ETHO   H2320741  14.168  16.668   5.808
 2681ETHO    O120742  14.282  16.744   5.945
 2681ETHO    C120743  14.414  16.688   5.932
 2681ETHO   H1120744  14.477  16.755   5.870
 2681ETHO   H1320745  14.460  16.702   6.033
 2681ETHO    C220746  14.410  16.541   5.907
 2681ETHO   H2120747  14.369  16.513   5.807
 2681ETHO   H2320748  14.328  16.497   5.968
 2682ETHO    O120749  14.535  16.470   5.916
 2682ETHO    C120750  14.545  16.386   6.030
 2682ETHO   H1120751  14.486  16.427   6.115
 2682ETHO   H1320752  14.493  16.288   6.021
 2682ETHO    C220753  14.689  16.363   6.065
 2682ETHO   H2120754  14.731  16.451   6.119
 2682ETHO   H2320755  14.733  16.350   5.964
 2683ETHO    O120756  14.727  16.245   6.138
 2683ETHO    C120757  14.732  16.274   6.279
 2683ETHO   H1120758  14.823  16.331   6.308
 2683ETHO   H1320759  14.644  16.330   6.318
 2683ETHO    C220760  14.725  16.133   6.353
 2683ETHO   H2120761  14.638  16.086   6.302
 2683ETHO   H2320762  14.693  16.128   6.459
 2684ETHO    O120763  14.839  16.062   6.321
 2684ETHO    C120764  14.827  15.924   6.343
 2684ETHO   H1120765  14.762  15.881   6.264
 2684ETHO   H1320766  14.766  15.906   6.433
 2684ETHO    C220767  14.955  15.837   6.354
 2684ETHO   H2120768  14.925  15.738   6.393
 2684ETHO   H2320769  15.023  15.890   6.425
 2685ETHO    O120770  15.010  15.829   6.219
 2685ETHO    C120771  15.142  15.779   6.217
 2685ETHO   H1120772  15.215  15.845   6.270
 2685ETHO   H1320773  15.143  15.674   6.254
 2685ETHO    C220774  15.177  15.767   6.064
 2685ETHO   H2120775  15.093  15.728   6.003
 2685ETHO   H2320776  15.261  15.694   6.055
 2686ETHO    O120777  15.223  15.897   6.012
 2686ETHO    C120778  15.261  15.897   5.868
 2686ETHO   H1120779  15.164  15.903   5.815
 2686ETHO   H1320780  15.303  15.799   5.836
 2686ETHO    C220781  15.338  16.020   5.825
 2686ETHO   H2120782  15.372  16.006   5.720
 2686ETHO   H2320783  15.431  16.028   5.884
 2687ETHO    O120784  15.259  16.143   5.823
 2687ETHO    C120785  15.342  16.251   5.784
 2687ETHO   H1120786  15.419  16.248   5.864
 2687ETHO   H1320787  15.389  16.230   5.686
 2687ETHO    C220788  15.281  16.390   5.790
 2687ETHO   H2120789  15.357  16.469   5.777
 2687ETHO   H2320790  15.252  16.399   5.897
 2688ETHO    O120791  15.174  16.413   5.707
 2688ETHO    C120792  15.123  16.545   5.707
 2688ETHO   H1120793  15.055  16.564   5.622
 2688ETHO   H1320794  15.200  16.623   5.687
 2688ETHO    C220795  15.051  16.576   5.846
 2688ETHO   H2120796  15.132  16.598   5.919
 2688ETHO   H2320797  14.999  16.483   5.879
 2689ETHO    O120798  14.961  16.685   5.830
 2689ETHO    C120799  14.861  16.696   5.928
 2689ETHO   H1120800  14.783  16.617   5.917
 2689ETHO   H1320801  14.917  16.684   6.023
 2689ETHO    C220802  14.808  16.837   5.905
 2689ETHO   H2120803  14.901  16.895   5.884
 2689ETHO   H2320804  14.750  16.859   5.997
 2690ETHO    O120805  14.721  16.840   5.789
 2690ETHO    C120806  14.642  16.953   5.787
 2690ETHO   H1120807  14.703  17.046   5.781
 2690ETHO   H1320808  14.579  16.970   5.877
 2690ETHO    C220809  14.556  16.958   5.664
 2690ETHO   H2120810  14.500  17.054   5.662
 2690ETHO   H2320811  14.486  16.871   5.664
 2691ETHO    O120812  14.635  16.954   5.544
 2691ETHO    C120813  14.568  16.987   5.421
 2691ETHO   H1120814  14.509  16.899   5.390
 2691ETHO   H1320815  14.495  17.070   5.435
 2691ETHO    C220816  14.665  17.015   5.303
 2691ETHO   H2120817  14.591  17.020   5.221
 2691ETHO   H2320818  14.750  16.944   5.293
 2692ETHO    O120819  14.717  17.150   5.326
 2692ETHO    C120820  14.837  17.178   5.254
 2692ETHO   H1120821  14.918  17.114   5.295
 2692ETHO   H1320822  14.832  17.161   5.144
 2692ETHO    C220823  14.868  17.329   5.278
 2692ETHO   H2120824  14.969  17.351   5.237
 2692ETHO   H2320825  14.862  17.358   5.385
 2693ETHO    O120826  14.773  17.390   5.198
 2693ETHO    C120827  14.787  17.531   5.194
 2693ETHO   H1120828  14.692  17.584   5.220
 2693ETHO   H1320829  14.850  17.568   5.277
 2693ETHO    C220830  14.857  17.566   5.061
 2693ETHO   H2120831  14.839  17.673   5.040
 2693ETHO   H2320832  14.810  17.505   4.980
 2694ETHO    O120833  14.992  17.538   5.091
 2694ETHO    C120834  15.078  17.492   4.987
 2694ETHO   H1120835  15.178  17.459   5.022
 2694ETHO   H1320836  15.040  17.394   4.951
 2694ETHO    C220837  15.094  17.598   4.869
 2694ETHO   H2120838  15.173  17.557   4.802
 2694ETHO   H2320839  15.120  17.694   4.918
 2695ETHO    O120840  14.982  17.620   4.778
 2695ETHO    C120841  15.019  17.630   4.635
 2695ETHO   H1120842  15.104  17.701   4.627
 2695ETHO   H1320843  14.925  17.664   4.587
 2695ETHO    C220844  15.056  17.499   4.555
 2695ETHO   H2120845  15.142  17.446   4.602
 2695ETHO   H2320846  15.075  17.533   4.451
 2696ETHO    O120847  14.951  17.409   4.555
 2696ETHO    C120848  14.966  17.307   4.462
 2696ETHO   H1120849  14.949  17.341   4.358
 2696ETHO   H1320850  15.071  17.270   4.465
 2696ETHO    C220851  14.879  17.177   4.485
 2696ETHO   H2120852  14.902  17.117   4.394
 2696ETHO   H2320853  14.771  17.199   4.488
 2697ETHO    O120854  14.905  17.098   4.604
 2697ETHO    C120855  14.882  16.965   4.582
 2697ETHO   H1120856  14.960  16.907   4.529
 2697ETHO   H1320857  14.788  16.959   4.523
 2697ETHO    C220858  14.849  16.882   4.709
 2697ETHO   H2120859  14.825  16.779   4.675
 2697ETHO   H2320860  14.755  16.917   4.756
 2698ETHO    O120861  14.949  16.870   4.806
 2698ETHO    C120862  14.897  16.831   4.931
 2698ETHO   H1120863  14.823  16.900   4.979
 2698ETHO   H1320864  14.851  16.730   4.922
 2698ETHO    C220865  15.009  16.819   5.035
 2698ETHO   H2120866  15.086  16.751   4.992
 2698ETHO   H2320867  15.068  16.912   5.050
 2699ETHO    O120868  14.955  16.768   5.158
 2699ETHO    C120869  15.050  16.754   5.262
 2699ETHO   H1120870  15.143  16.811   5.241
 2699ETHO   H1320871  15.076  16.647   5.278
 2699ETHO    C220872  15.003  16.808   5.394
 2699ETHO   H2120873  14.943  16.734   5.451
 2699ETHO   H2320874  14.938  16.896   5.374
 2700ETHO    O120875  15.110  16.855   5.472
 2700ETHO    C120876  15.056  16.917   5.588
 2700ETHO   H1120877  14.987  16.997   5.554
 2700ETHO   H1320878  14.997  16.846   5.650
 2700ETHO    C220879  15.168  16.969   5.682
 2700ETHO   H2120880  15.235  16.884   5.709
 2700ETHO   H2320881  15.116  17.004   5.774
 2701ETHO    O120882  15.242  17.084   5.628
 2701ETHO    C120883  15.362  17.039   5.558
 2701ETHO   H1120884  15.348  17.012   5.451
 2701ETHO   H1320885  15.408  16.956   5.614
 2701ETHO    C220886  15.467  17.158   5.556
 2701ETHO   H2120887  15.419  17.236   5.495
 2701ETHO   H2320888  15.562  17.123   5.509
 2702ETHO    O120889  15.515  17.209   5.682
 2702ETHO    C120890  15.589  17.334   5.667
 2702ETHO   H1120891  15.672  17.329   5.593
 2702ETHO   H1320892  15.517  17.407   5.622
 2702ETHO    C220893  15.636  17.387   5.802
 2702ETHO   H2120894  15.692  17.481   5.783
 2702ETHO   H2320895  15.705  17.306   5.836
 2703ETHO    O120896  15.531  17.412   5.887
 2703ETHO    C120897  15.571  17.475   6.009
 2703ETHO   H1120898  15.582  17.584   5.994
 2703ETHO   H1320899  15.496  17.464   6.090
 2703ETHO    C220900  15.710  17.436   6.067
 2703ETHO   H2120901  15.722  17.327   6.047
 2703ETHO   H2320902  15.710  17.437   6.178
 2704ETHO    O120903  15.829  17.505   6.021
 2704ETHO    C120904  15.946  17.429   6.042
 2704ETHO   H1120905  15.945  17.388   6.146
 2704ETHO   H1320906  15.940  17.350   5.965
 2704ETHO    C220907  16.067  17.518   6.009
 2704ETHO   H2120908  16.158  17.459   6.035
 2704ETHO   H2320909  16.081  17.610   6.069
 2705ETHO    O120910  16.069  17.533   5.862
 2705ETHO    C120911  16.178  17.614   5.824
 2705ETHO   H1120912  16.159  17.636   5.717
 2705ETHO   H1320913  16.181  17.707   5.884
 2705ETHO    C220914  16.309  17.540   5.825
 2705ETHO   H2120915  16.374  17.625   5.794
 2705ETHO   H2320916  16.341  17.510   5.927
 2706ETHO    O120917  16.307  17.426   5.733
 2706ETHO    C120918  16.418  17.337   5.750
 2706ETHO   H1120919  16.398  17.293   5.850
 2706ETHO   H1320920  16.516  17.388   5.750
 2706ETHO    C220921  16.424  17.240   5.632
 2706ETHO   H2120922  16.493  17.158   5.660
 2706ETHO   H2320923  16.458  17.285   5.536
 2707ETHO    O120924  16.289  17.186   5.607
 2707ETHO    C120925  16.271  17.119   5.483
 2707ETHO   H1120926  16.321  17.177   5.402
 2707ETHO   H1320927  16.334  17.031   5.508
 2707ETHO    C220928  16.136  17.057   5.444
 2707ETHO   H2120929  16.082  17.026   5.536
 2707ETHO   H2320930  16.157  16.973   5.376
 2708ETHO    O120931  16.056  17.150   5.372
 2708ETHO    C120932  15.993  17.252   5.449
 2708ETHO   H1120933  16.065  17.330   5.481
 2708ETHO   H1320934  15.949  17.209   5.542
 2708ETHO    C220935  15.892  17.337   5.365
 2708ETHO   H2120936  15.936  17.340   5.263
 2708ETHO   H2320937  15.879  17.441   5.401
 2709ETHO    O120938  15.763  17.274   5.348
 2709ETHO    C120939  15.768  17.167   5.251
 2709ETHO   H1120940  15.848  17.181   5.175
 2709ETHO   H1320941  15.787  17.073   5.307
 2709ETHO    C220942  15.637  17.158   5.171
 2709ETHO   H2120943  15.632  17.221   5.080
 2709ETHO   H2320944  15.550  17.182   5.236
 2710ETHO    O120945  15.616  17.021   5.138
 2710ETHO    C120946  15.531  17.006   5.031
 2710ETHO   H1120947  15.582  17.056   4.946
 2710ETHO   H1320948  15.436  17.063   5.038
 2710ETHO    C220949  15.504  16.860   4.990
 2710ETHO   H2120950  15.600  16.804   5.000
 2710ETHO   H2320951  15.463  16.853   4.887
 2711ETHO    O120952  15.417  16.812   5.086
 2711ETHO    C120953  15.376  16.678   5.057
 2711ETHO   H1120954  15.297  16.662   5.133
 2711ETHO   H1320955  15.339  16.669   4.952
 2711ETHO    C220956  15.486  16.570   5.078
 2711ETHO   H2120957  15.577  16.585   5.016
 2711ETHO   H2320958  15.435  16.473   5.056
 2712ETHO    O120959  15.522  16.578   5.214
 2712ETHO    C120960  15.600  16.464   5.251
 2712ETHO   H1120961  15.693  16.503   5.298
 2712ETHO   H1320962  15.627  16.406   5.160
 2712ETHO    C220963  15.529  16.397   5.365
 2712ETHO   H2120964  15.517  16.465   5.452
 2712ETHO   H2320965  15.598  16.318   5.404
 2713ETHO    O120966  15.406  16.334   5.343
 2713ETHO    C120967  15.296  16.408   5.401
 2713ETHO   H1120968  15.322  16.432   5.506
 2713ETHO   H1320969  15.291  16.504   5.345
 2713ETHO    C220970  15.167  16.325   5.397
 2713ETHO   H2120971  15.081  16.386   5.433
 2713ETHO   H2320972  15.192  16.238   5.462
 2714ETHO    O120973  15.128  16.292   5.265
 2714ETHO    C120974  15.192  16.174   5.222
 2714ETHO   H1120975  15.161  16.087   5.285
 2714ETHO   H1320976  15.301  16.193   5.219
 2714ETHO    C220977  15.153  16.133   5.075
 2714ETHO   H2120978  15.042  16.134   5.061
 2714ETHO   H2320979  15.197  16.035   5.048
 2715ETHO    O120980  15.204  16.222   4.986
 2715ETHO    C120981  15.171  16.180   4.855
 2715ETHO   H1120982  15.198  16.076   4.827
 2715ETHO   H1320983  15.061  16.179   4.837
 2715ETHO    C220984  15.233  16.267   4.755
 2715ETHO   H2120985  15.199  16.235   4.654
 2715ETHO   H2320986  15.344  16.262   4.766
 2716ETHO    O120987  15.198  16.409   4.764
 2716ETHO    C120988  15.130  16.459   4.645
 2716ETHO   H1120989  15.027  16.419   4.653
 2716ETHO   H1320990  15.192  16.440   4.555
 2716ETHO    C220991  15.112  16.614   4.648
 2716ETHO   H2120992  15.059  16.640   4.742
 2716ETHO   H2320993  15.045  16.643   4.564
 2717ETHO    O120994  15.241  16.678   4.640
 2717ETHO    C120995  15.244  16.816   4.662
 2717ETHO   H1120996  15.145  16.861   4.637
 2717ETHO   H1320997  15.243  16.832   4.772
 2717ETHO    C220998  15.354  16.883   4.579
 2717ETHO   H2120999  15.336  16.992   4.568
 2717ETHO   H2321000  15.342  16.832   4.481
 2718ETHO    O121001  15.483  16.848   4.633
 2718ETHO    C121002  15.592  16.882   4.547
 2718ETHO   H1121003  15.571  16.837   4.447
 2718ETHO   H1321004  15.609  16.991   4.540
 2718ETHO    C221005  15.717  16.813   4.611
 2718ETHO   H2121006  15.721  16.838   4.719
 2718ETHO   H2321007  15.806  16.859   4.562
 2719ETHO    O121008  15.721  16.673   4.600
 2719ETHO    C121009  15.845  16.613   4.636
 2719ETHO   H1121010  15.838  16.510   4.597
 2719ETHO   H1321011  15.933  16.659   4.587
 2719ETHO    C221012  15.880  16.596   4.785
 2719ETHO   H2121013  15.965  16.525   4.794
 2719ETHO   H2321014  15.794  16.560   4.846
 2720ETHO    O121015  15.916  16.728   4.836
 2720ETHO    C121016  15.925  16.721   4.978
 2720ETHO   H1121017  15.832  16.683   5.026
 2720ETHO   H1321018  16.004  16.647   5.000
 2720ETHO    C221019  15.949  16.863   5.028
 2720ETHO   H2121020  15.963  16.865   5.139
 2720ETHO   H2321021  15.866  16.926   4.991
 2721ETHO    O121022  16.069  16.913   4.974
 2721ETHO    C121023  16.099  17.044   5.024
 2721ETHO   H1121024  16.093  17.036   5.135
 2721ETHO   H1321025  16.019  17.108   4.980
 2721ETHO    C221026  16.237  17.082   4.986
 2721ETHO   H2121027  16.302  17.010   5.041
 2721ETHO   H2321028  16.278  17.179   5.023
 2722ETHO    O121029  16.261  17.073   4.844
 2722ETHO    C121030  16.397  17.056   4.819
 2722ETHO   H1121031  16.449  17.153   4.825
 2722ETHO   H1321032  16.434  16.976   4.887
 2722ETHO    C221033  16.418  16.988   4.687
 2722ETHO   H2121034  16.335  16.915   4.673
 2722ETHO   H2321035  16.513  16.936   4.664
 2723ETHO    O121036  16.394  17.076   4.582
 2723ETHO    C121037  16.520  17.132   4.546
 2723ETHO   H1121038  16.587  17.055   4.503
 2723ETHO   H1321039  16.566  17.184   4.633
 2723ETHO    C221040  16.503  17.226   4.430
 2723ETHO   H2121041  16.480  17.168   4.338
 2723ETHO   H2321042  16.600  17.280   4.426
 2724ETHO    O121043  16.404  17.326   4.464
 2724ETHO    C121044  16.459  17.432   4.552
 2724ETHO   H1121045  16.512  17.382   4.635
 2724ETHO   H1321046  16.533  17.494   4.497
 2724ETHO    C221047  16.353  17.522   4.610
 2724ETHO   H2121048  16.260  17.461   4.613
 2724ETHO   H2321049  16.339  17.620   4.560
 2725ETHO    O121050  16.367  17.554   4.749
 2725ETHO    C121051  16.478  17.647   4.763
 2725ETHO   H1121052  16.463  17.732   4.693
 2725ETHO   H1321053  16.566  17.594   4.723
 2725ETHO    C221054  16.500  17.698   4.907
 2725ETHO   H2121055  16.409  17.748   4.945
 2725ETHO   H2321056  16.562  17.791   4.903
 2726ETHO    O121057  16.556  17.609   4.997
 2726ETHO    C121058  16.455  17.511   5.025
 2726ETHO   H1121059  16.352  17.547   5.005
 2726ETHO   H1321060  16.469  17.423   4.959
 2726ETHO    C221061  16.458  17.472   5.173
 2726ETHO   H2121062  16.361  17.429   5.208
 2726ETHO   H2321063  16.469  17.568   5.227
 2727ETHO    O121064  16.557  17.375   5.204
 2727ETHO    C121065  16.548  17.250   5.134
 2727ETHO   H1121066  16.539  17.255   5.023
 2727ETHO   H1321067  16.462  17.189   5.167
 2727ETHO    C221068  16.680  17.170   5.164
 2727ETHO   H2121069  16.775  17.215   5.129
 2727ETHO   H2321070  16.665  17.075   5.108
 2728ETHO    O121071  16.695  17.138   5.301
 2728ETHO    C121072  16.794  17.040   5.318
 2728ETHO   H1121073  16.771  16.952   5.254
 2728ETHO   H1321074  16.888  17.085   5.278
 2728ETHO    C221075  16.823  16.999   5.462
 2728ETHO   H2121076  16.852  17.088   5.522
 2728ETHO   H2321077  16.911  16.932   5.471
 2729ETHO    O121078  16.716  16.931   5.522
 2729ETHO    C121079  16.751  16.891   5.654
 2729ETHO   H1121080  16.827  16.814   5.629
 2729ETHO   H1321081  16.784  16.980   5.712
 2729ETHO    C221082  16.624  16.841   5.722
 2729ETHO   H2121083  16.645  16.771   5.806
 2729ETHO   H2321084  16.564  16.793   5.642
 2730ETHO    O121085  16.545  16.947   5.784
 2730ETHO    C121086  16.402  16.920   5.796
 2730ETHO   H1121087  16.352  17.011   5.836
 2730ETHO   H1321088  16.354  16.888   5.701
 2730ETHO    C221089  16.374  16.813   5.901
 2730ETHO   H2121090  16.268  16.824   5.932
 2730ETHO   H2321091  16.432  16.831   5.994
 2731ETHO    O121092  16.381  16.680   5.840
 2731ETHO    C121093  16.372  16.581   5.940
 2731ETHO   H1121094  16.456  16.582   6.011
 2731ETHO   H1321095  16.281  16.599   6.001
 2731ETHO    C221096  16.374  16.434   5.898
 2731ETHO   H2121097  16.472  16.420   5.848
 2731ETHO   H2321098  16.362  16.361   5.981
 2732ETHO    O121099  16.264  16.401   5.812
 2732ETHO    C121100  16.291  16.279   5.741
 2732ETHO   H1121101  16.317  16.204   5.818
 2732ETHO   H1321102  16.379  16.300   5.676
 2732ETHO    C221103  16.169  16.230   5.660
 2732ETHO   H2121104  16.192  16.136   5.607
 2732ETHO   H2321105  16.136  16.308   5.588
 2733ETHO    O121106  16.077  16.200   5.762
 2733ETHO    C121107  15.954  16.161   5.699
 2733ETHO   H1121108  15.930  16.240   5.624
 2733ETHO   H1321109  15.973  16.063   5.649
 2733ETHO    C221110  15.834  16.148   5.790
 2733ETHO   H2121111  15.745  16.139   5.723
 2733ETHO   H2321112  15.821  16.241   5.849
 2734ETHO    O121113  15.833  16.034   5.868
 2734ETHO    C121114  15.734  16.042   5.965
 2734ETHO   H1121115  15.639  16.088   5.928
 2734ETHO   H1321116  15.780  16.118   6.032
 2734ETHO    C221117  15.713  15.911   6.032
 2734ETHO   H2121118  15.660  15.929   6.127
 2734ETHO   H2321119  15.813  15.873   6.062
 2735ETHO    O121120  15.655  15.807   5.948
 2735ETHO    C121121  15.574  15.711   6.019
 2735ETHO   H1121122  15.617  15.667   6.112
 2735ETHO   H1321123  15.482  15.766   6.045
 2735ETHO    C221124  15.545  15.593   5.930
 2735ETHO   H2121125  15.623  15.516   5.948
 2735ETHO   H2321126  15.547  15.631   5.826
 2736ETHO    O121127  15.418  15.531   5.953
 2736ETHO    C121128  15.400  15.405   5.897
 2736ETHO   H1121129  15.455  15.330   5.956
 2736ETHO   H1321130  15.447  15.394   5.797
 2736ETHO    C221131  15.247  15.357   5.883
 2736ETHO   H2121132  15.184  15.399   5.964
 2736ETHO   H2321133  15.247  15.247   5.871
 2737ETHO    O121134  15.193  15.408   5.760
 2737ETHO    C121135  15.067  15.337   5.735
 2737ETHO   H1121136  15.049  15.337   5.625
 2737ETHO   H1321137  15.054  15.240   5.787
 2737ETHO    C221138  14.959  15.439   5.792
 2737ETHO   H2121139  14.855  15.405   5.772
 2737ETHO   H2321140  14.970  15.545   5.760
 2738ETHO    O121141  14.952  15.431   5.933
 2738ETHO    C121142  14.820  15.484   5.983
 2738ETHO   H1121143  14.735  15.416   5.964
 2738ETHO   H1321144  14.786  15.580   5.939
 2738ETHO    C221145  14.821  15.503   6.138
 2738ETHO   H2121146  14.886  15.589   6.165
 2738ETHO   H2321147  14.869  15.409   6.173
 2739ETHO    O121148  14.691  15.506   6.184
 2739ETHO    C121149  14.687  15.537   6.325
 2739ETHO   H1121150  14.757  15.470   6.380
 2739ETHO   H1321151  14.734  15.634   6.350
 2739ETHO    C221152  14.541  15.535   6.383
 2739ETHO   H2121153  14.482  15.613   6.331
 2739ETHO   H2321154  14.555  15.565   6.489
 2740ETHO    O121155  14.488  15.404   6.368
 2740ETHO    C121156  14.367  15.397   6.431
 2740ETHO   H1121157  14.366  15.467   6.516
 2740ETHO   H1321158  14.287  15.429   6.362
 2740ETHO    C221159  14.334  15.251   6.469
 2740ETHO   H2121160  14.317  15.181   6.384
 2740ETHO   H2321161  14.243  15.246   6.533
 2741ETHO    O121162  14.443  15.202   6.556
 2741ETHO    C121163  14.397  15.125   6.661
 2741ETHO   H1121164  14.348  15.184   6.741
 2741ETHO   H1321165  14.325  15.052   6.618
 2741ETHO    C221166  14.510  15.051   6.718
 2741ETHO   H2121167  14.566  14.995   6.640
 2741ETHO   H2321168  14.471  14.975   6.788
 2742ETHO    O121169  14.593  15.137   6.797
 2742ETHO    C121170  14.668  15.056   6.890
 2742ETHO   H1121171  14.601  14.993   6.953
 2742ETHO   H1321172  14.726  14.985   6.828
 2742ETHO    C221173  14.749  15.133   6.990
 2742ETHO   H2121174  14.713  15.232   7.026
 2742ETHO   H2321175  14.846  15.163   6.945
 2743ETHO    O121176  14.779  15.054   7.103
 2743ETHO    C121177  14.892  14.970   7.091
 2743ETHO   H1121178  14.986  15.028   7.099
 2743ETHO   H1321179  14.899  14.912   6.996
 2743ETHO    C221180  14.905  14.863   7.199
 2743ETHO   H2121181  14.904  14.915   7.297
 2743ETHO   H2321182  15.008  14.824   7.189
 2744ETHO    O121183  14.807  14.768   7.178
 2744ETHO    C121184  14.789  14.685   7.288
 2744ETHO   H1121185  14.892  14.672   7.328
 2744ETHO   H1321186  14.726  14.736   7.364
 2744ETHO    C221187  14.726  14.548   7.255
 2744ETHO   H2121188  14.742  14.462   7.323
 2744ETHO   H2321189  14.769  14.519   7.157
 2745ETHO    O121190  14.582  14.564   7.266
 2745ETHO    C121191  14.523  14.458   7.193
 2745ETHO   H1121192  14.578  14.362   7.201
 2745ETHO   H1321193  14.552  14.488   7.090
 2745ETHO    C221194  14.374  14.439   7.188
 2745ETHO   H2121195  14.356  14.390   7.091
 2745ETHO   H2321196  14.314  14.532   7.200
 2746ETHO    O121197  14.317  14.344   7.279
 2746ETHO    C121198  14.270  14.415   7.396
 2746ETHO   H1121199  14.357  14.480   7.420
 2746ETHO   H1321200  14.176  14.473   7.381
 2746ETHO    C221201  14.242  14.311   7.510
 2746ETHO   H2121202  14.325  14.238   7.513
 2746ETHO   H2321203  14.147  14.256   7.496
 2747ETHO    O121204  14.234  14.365   7.645
 2747ETHO    C121205  14.111  14.442   7.657
 2747ETHO   H1121206  14.045  14.421   7.570
 2747ETHO   H1321207  14.149  14.544   7.633
 2747ETHO    C221208  14.036  14.448   7.792
 2747ETHO   H2121209  13.980  14.544   7.801
 2747ETHO   H2321210  14.114  14.451   7.871
 2748ETHO    O121211  13.962  14.329   7.796
 2748ETHO    C121212  13.914  14.297   7.930
 2748ETHO   H1121213  13.994  14.306   8.007
 2748ETHO   H1321214  13.841  14.376   7.955
 2748ETHO    C221215  13.844  14.159   7.931
 2748ETHO   H2121216  13.763  14.146   7.856
 2748ETHO   H2321217  13.813  14.139   8.036
 2749ETHO    O121218  13.949  14.063   7.927
 2749ETHO    C121219  13.913  13.927   7.939
 2749ETHO   H1121220  13.850  13.894   7.853
 2749ETHO   H1321221  13.856  13.909   8.033
 2749ETHO    C221222  14.036  13.831   7.948
 2749ETHO   H2121223  14.101  13.847   7.859
 2749ETHO   H2321224  14.002  13.725   7.954
 2750ETHO    O121225  14.111  13.856   8.067
 2750ETHO    C121226  14.228  13.768   8.070
 2750ETHO   H1121227  14.199  13.662   8.058
 2750ETHO   H1321228  14.301  13.803   7.994
 2750ETHO    C221229  14.325  13.782   8.190
 2750ETHO   H2121230  14.349  13.890   8.204
 2750ETHO   H2321231  14.420  13.730   8.168
 2751PROX    O121232  14.274  13.712   8.307
 2751PROX    C121233  14.172  13.793   8.372
 2751PROX   H1121234  14.222  13.889   8.394
 2751PROX   H1321235  14.085  13.819   8.308
 2751PROX    C221236  14.122  13.727   8.502
 2751PROX   H2121237  14.218  13.700   8.551
 2751PROX    C321238  14.011  13.619   8.486
 2751PROX   H3121239  13.911  13.661   8.462
 2751PROX   H3221240  14.030  13.546   8.404
 2751PROX   H3321241  14.013  13.561   8.581
 2752PROX    O121242  14.056  13.829   8.580
 2752PROX    C121243  14.060  13.793   8.720
 2752PROX   H1121244  13.966  13.750   8.758
 2752PROX   H1321245  14.134  13.711   8.736
 2752PROX    C221246  14.115  13.904   8.813
 2752PROX   H2121247  14.187  13.973   8.763
 2752PROX    C321248  14.182  13.841   8.940
 2752PROX   H3121249  14.102  13.788   8.995
 2752PROX   H3221250  14.270  13.779   8.909
 2752PROX   H3321251  14.214  13.921   9.010
 2753PROX    O121252  14.015  13.990   8.853
 2753PROX    C121253  13.956  14.061   8.743
 2753PROX   H1121254  14.033  14.084   8.666
 2753PROX   H1321255  13.883  14.000   8.685
 2753PROX    C221256  13.894  14.196   8.782
 2753PROX   H2121257  13.825  14.175   8.867
 2753PROX    C321258  13.820  14.254   8.659
 2753PROX   H3121259  13.747  14.178   8.622
 2753PROX   H3221260  13.764  14.343   8.693
 2753PROX   H3321261  13.886  14.267   8.571
 2754PROX    O121262  13.993  14.289   8.805
 2754PROX    C121263  14.050  14.284   8.938
 2754PROX   H1121264  13.965  14.274   9.009
 2754PROX   H1321265  14.124  14.202   8.941
 2754PROX    C221266  14.148  14.400   8.966
 2754PROX   H2121267  14.089  14.493   8.979
 2754PROX    C321268  14.250  14.427   8.855
 2754PROX   H3121269  14.190  14.438   8.761
 2754PROX   H3221270  14.301  14.523   8.881
 2754PROX   H3321271  14.334  14.357   8.838
 2755PROX    O121272  14.216  14.381   9.095
 2755PROX    C121273  14.328  14.294   9.095
 2755PROX   H1121274  14.307  14.210   9.025
 2755PROX   H1321275  14.417  14.343   9.050
 2755PROX    C221276  14.360  14.242   9.242
 2755PROX   H2121277  14.260  14.201   9.270
 2755PROX    C321278  14.399  14.351   9.338
 2755PROX   H3121279  14.494  14.397   9.305
 2755PROX   H3221280  14.330  14.438   9.336
 2755PROX   H3321281  14.398  14.309   9.441
 2756PROX    O121282  14.458  14.130   9.234
 2756PROX    C121283  14.454  14.058   9.356
 2756PROX   H1121284  14.512  14.124   9.424
 2756PROX   H1321285  14.352  14.055   9.398
 2756PROX    C221286  14.510  13.915   9.336
 2756PROX   H2121287  14.616  13.930   9.305
 2756PROX    C321288  14.426  13.836   9.237
 2756PROX   H3121289  14.433  13.888   9.139
 2756PROX   H3221290  14.463  13.733   9.222
 2756PROX   H3321291  14.323  13.837   9.278
 2757PROX    O121292  14.508  13.846   9.462
 2757PROX    C121293  14.558  13.713   9.477
 2757PROX   H1121294  14.491  13.636   9.434
 2757PROX   H1321295  14.648  13.698   9.413
 2757PROX    C221296  14.592  13.680   9.628
 2757PROX   H2121297  14.577  13.770   9.691
 2757PROX    C321298  14.740  13.638   9.643
 2757PROX   H3121299  14.778  13.574   9.561
 2757PROX   H3221300  14.787  13.738   9.636
 2757PROX   H3321301  14.756  13.595   9.744
 2758PROX    O121302  14.509  13.582   9.688
 2758PROX    C121303  14.377  13.631   9.710
 2758PROX   H1121304  14.382  13.719   9.778
 2758PROX   H1321305  14.339  13.665   9.612
 2758PROX    C221306  14.283  13.522   9.776
 2758PROX   H2121307  14.195  13.579   9.811
 2758PROX    C321308  14.348  13.476   9.904
 2758PROX   H3121309  14.425  13.407   9.864
 2758PROX   H3221310  14.385  13.564   9.961
 2758PROX   H3321311  14.277  13.414   9.963
 2759PROX    O121312  14.254  13.415   9.679
 2759PROX    C121313  14.137  13.343   9.722
 2759PROX   H1121314  14.135  13.251   9.660
 2759PROX   H1321315  14.155  13.305   9.825
 2759PROX    C221316  14.008  13.420   9.711
 2759PROX   H2121317  14.021  13.516   9.765
 2759PROX    C321318  13.893  13.341   9.765
 2759PROX   H3121319  13.916  13.315   9.870
 2759PROX   H3221320  13.796  13.394   9.769
 2759PROX   H3321321  13.871  13.249   9.705
 2760PROX    O121322  13.974  13.441   9.570
 2760PROX    C121323  13.917  13.573   9.547
 2760PROX   H1121324  13.808  13.572   9.528
 2760PROX   H1321325  13.940  13.641   9.632
 2760PROX    C221326  13.983  13.622   9.414
 2760PROX   H2121327  13.956  13.557   9.328
 2760PROX    C321328  14.133  13.614   9.432
 2760PROX   H3121329  14.168  13.672   9.520
 2760PROX   H3221330  14.179  13.513   9.435
 2760PROX   H3321331  14.188  13.658   9.346
 2761PROX    O121332  13.949  13.766   9.399
 2761PROX    C121333  13.961  13.816   9.271
 2761PROX   H1121334  14.067  13.830   9.238
 2761PROX   H1321335  13.898  13.759   9.200
 2761PROX    C221336  13.904  13.965   9.278
 2761PROX   H2121337  13.801  13.963   9.321
 2761PROX    C321338  13.898  14.018   9.136
 2761PROX   H3121339  13.820  13.960   9.083
 2761PROX   H3221340  13.852  14.119   9.136
 2761PROX   H3321341  13.995  14.006   9.082
 2762PROX    O121342  13.992  14.047   9.355
 2762PROX    C121343  13.913  14.149   9.428
 2762PROX   H1121344  13.978  14.236   9.452
 2762PROX   H1321345  13.827  14.184   9.367
 2762PROX    C221346  13.855  14.082   9.557
 2762PROX   H2121347  13.898  13.980   9.571
 2762PROX    C321348  13.701  14.089   9.561
 2762PROX   H3121349  13.671  14.048   9.660
 2762PROX   H3221350  13.655  14.190   9.554
 2762PROX   H3321351  13.649  14.017   9.494
 2763PROX    O121352  13.898  14.160   9.665
 2763PROX    C121353  14.032  14.136   9.718
 2763PROX   H1121354  14.104  14.189   9.652
 2763PROX   H1321355  14.037  14.202   9.807
 2763PROX    C221356  14.086  13.998   9.759
 2763PROX   H2121357  14.084  13.937   9.666
 2763PROX    C321358  14.006  13.936   9.879
 2763PROX   H3121359  14.032  13.984   9.976
 2763PROX   H3221360  13.896  13.924   9.871
 2763PROX   H3321361  14.037  13.831   9.902
 2764PROX    O121362  14.216  14.019   9.810
 2764PROX    C121363  14.332  14.024   9.713
 2764PROX   H1121364  14.335  13.933   9.650
 2764PROX   H1321365  14.307  14.108   9.644
 2764PROX    C221366  14.474  14.057   9.779
 2764PROX   H2121367  14.461  14.145   9.845
 2764PROX    C321368  14.592  14.076   9.681
 2764PROX   H3121369  14.605  13.992   9.611
 2764PROX   H3221370  14.565  14.165   9.620
 2764PROX   H3321371  14.686  14.093   9.738
 2765PROX    O121372  14.513  13.946   9.859
 2765PROX    C121373  14.436  13.931   9.977
 2765PROX   H1121374  14.379  14.026   9.991
 2765PROX   H1321375  14.361  13.849   9.968
 2765PROX    C221376  14.526  13.891  10.099
 2765PROX   H2121377  14.582  13.984  10.122
 2765PROX    C321378  14.624  13.777  10.061
 2765PROX   H3121379  14.702  13.822   9.996
 2765PROX   H3221380  14.678  13.735  10.148
 2765PROX   H3321381  14.562  13.696  10.016
 2766PROX    O121382  14.442  13.859  10.207
 2766PROX    C121383  14.356  13.976  10.239
 2766PROX   H1121384  14.401  14.077  10.231
 2766PROX   H1321385  14.263  13.966  10.179
 2766PROX    C221386  14.323  13.967  10.387
 2766PROX   H2121387  14.420  13.969  10.441
 2766PROX    C321388  14.239  13.850  10.434
 2766PROX   H3121389  14.291  13.755  10.408
 2766PROX   H3221390  14.230  13.844  10.545
 2766PROX   H3321391  14.138  13.844  10.388
 2767PROX    O121392  14.268  14.088  10.438
 2767PROX    C121393  14.125  14.116  10.409
 2767PROX   H1121394  14.075  14.042  10.343
 2767PROX   H1321395  14.073  14.118  10.507
 2767PROX    C221396  14.104  14.251  10.343
 2767PROX   H2121397  14.148  14.329  10.409
 2767PROX    C321398  13.950  14.274  10.334
 2767PROX   H3121399  13.888  14.253  10.424
 2767PROX   H3221400  13.934  14.383  10.322
 2767PROX   H3321401  13.912  14.218  10.246
 2768PROX    O121402  14.152  14.243  10.214
 2768PROX    C121403  14.147  14.362  10.136
 2768PROX   H1121404  14.047  14.397  10.101
 2768PROX   H1321405  14.178  14.447  10.201
 2768PROX    C221406  14.238  14.342  10.021
 2768PROX   H2121407  14.203  14.253   9.965
 2768PROX    C321408  14.380  14.341  10.072
 2768PROX   H3121409  14.396  14.441  10.116
 2768PROX   H3221410  14.386  14.262  10.150
 2768PROX   H3321411  14.461  14.325   9.998
 2769PROX    O121412  14.226  14.453   9.933
 2769PROX    C121413  14.262  14.429   9.796
 2769PROX   H1121414  14.368  14.396   9.799
 2769PROX   H1321415  14.190  14.353   9.758
 2769PROX    C221416  14.252  14.565   9.726
 2769PROX   H2121417  14.177  14.635   9.768
 2769PROX    C321418  14.201  14.545   9.583
 2769PROX   H3121419  14.096  14.516   9.565
 2769PROX   H3221420  14.240  14.621   9.511
 2769PROX   H3321421  14.258  14.457   9.546
 2770PROX    O121422  14.376  14.628   9.725
 2770PROX    C121423  14.431  14.670   9.850
 2770PROX   H1121424  14.361  14.740   9.900
 2770PROX   H1321425  14.457  14.587   9.920
 2770PROX    C221426  14.558  14.751   9.830
 2770PROX   H2121427  14.604  14.758   9.931
 2770PROX    C321428  14.523  14.896   9.797
 2770PROX   H3121429  14.462  14.960   9.864
 2770PROX   H3221430  14.625  14.938   9.783
 2770PROX   H3321431  14.473  14.910   9.699
 2771PROX    O121432  14.643  14.700   9.726
 2771PROX    C121433  14.703  14.567   9.762
 2771PROX   H1121434  14.783  14.576   9.838
 2771PROX   H1321435  14.626  14.502   9.808
 2771PROX    C221436  14.765  14.492   9.638
 2771PROX   H2121437  14.852  14.554   9.609
 2771PROX    C321438  14.667  14.472   9.522
 2771PROX   H3121439  14.631  14.571   9.489
 2771PROX   H3221440  14.731  14.430   9.441
 2771PROX   H3321441  14.586  14.398   9.542
 2772PROX    O121442  14.820  14.374   9.688
 2772PROX    C121443  14.887  14.305   9.583
 2772PROX   H1121444  14.809  14.257   9.520
 2772PROX   H1321445  14.957  14.365   9.522
 2772PROX    C221446  14.971  14.190   9.639
 2772PROX   H2121447  14.921  14.146   9.727
 2772PROX    C321448  15.103  14.235   9.699
 2772PROX   H3121449  15.169  14.286   9.626
 2772PROX   H3221450  15.080  14.311   9.777
 2772PROX   H3321451  15.156  14.146   9.740
 2773PROX    O121452  14.990  14.088   9.542
 2773PROX    C121453  15.008  13.960   9.601
 2773PROX   H1121454  15.079  13.945   9.684
 2773PROX   H1321455  14.913  13.932   9.652
 2773PROX    C221456  15.061  13.859   9.487
 2773PROX   H2121457  15.149  13.910   9.439
 2773PROX    C321458  14.967  13.823   9.375
 2773PROX   H3121459  14.868  13.782   9.404
 2773PROX   H3221460  14.933  13.914   9.321
 2773PROX   H3321461  15.018  13.754   9.305
 2774PROX    O121462  15.094  13.740   9.554
 2774PROX    C121463  15.195  13.665   9.486
 2774PROX   H1121464  15.211  13.663   9.376
 2774PROX   H1321465  15.288  13.694   9.539
 2774PROX    C221466  15.169  13.508   9.520
 2774PROX   H2121467  15.062  13.492   9.543
 2774PROX    C321468  15.246  13.449   9.636
 2774PROX   H3121469  15.355  13.457   9.617
 2774PROX   H3221470  15.221  13.500   9.731
 2774PROX   H3321471  15.226  13.342   9.658
 2775PROX    O121472  15.202  13.431   9.408
 2775PROX    C121473  15.115  13.450   9.299
 2775PROX   H1121474  15.048  13.537   9.315
 2775PROX   H1321475  15.180  13.464   9.210
 2775PROX    C221476  15.028  13.320   9.276
 2775PROX   H2121477  14.976  13.296   9.372
 2775PROX    C321478  15.111  13.207   9.212
 2775PROX   H3121479  15.162  13.248   9.122
 2775PROX   H3221480  15.182  13.165   9.287
 2775PROX   H3321481  15.045  13.121   9.187
 2776PROX    O121482  14.924  13.350   9.179
 2776PROX    C121483  14.822  13.427   9.236
 2776PROX   H1121484  14.770  13.359   9.307
 2776PROX   H1321485  14.855  13.506   9.307
 2776PROX    C221486  14.711  13.467   9.136
 2776PROX   H2121487  14.723  13.397   9.050
 2776PROX    C321488  14.717  13.615   9.090
 2776PROX   H3121489  14.672  13.689   9.160
 2776PROX   H3221490  14.823  13.643   9.072
 2776PROX   H3321491  14.662  13.627   8.995
 2777PROX    O121492  14.579  13.457   9.199
 2777PROX    C121493  14.476  13.428   9.105
 2777PROX   H1121494  14.462  13.511   9.032
 2777PROX   H1321495  14.499  13.333   9.052
 2777PROX    C221496  14.349  13.399   9.188
 2777PROX   H2121497  14.335  13.493   9.245
 2777PROX    C321498  14.387  13.284   9.287
 2777PROX   H3121499  14.300  13.258   9.351
 2777PROX   H3221500  14.428  13.195   9.234
 2777PROX   H3321501  14.464  13.329   9.353
 2778PROX    O121502  14.232  13.386   9.102
 2778PROX    C121503  14.120  13.343   9.177
 2778PROX   H1121504  14.138  13.239   9.211
 2778PROX   H1321505  14.103  13.408   9.265
 2778PROX    C221506  14.003  13.341   9.072
 2778PROX   H2121507  14.018  13.275   8.984
 2778PROX    C321508  13.976  13.482   9.016
 2778PROX   H3121509  13.868  13.508   9.014
 2778PROX   H3221510  14.024  13.562   9.078
 2778PROX   H3321511  14.011  13.508   8.914
 2779PROX    O121512  13.885  13.305   9.140
 2779PROX    C121513  13.871  13.161   9.151
 2779PROX   H1121514  13.806  13.125   9.068
 2779PROX   H1321515  13.966  13.103   9.147
 2779PROX    C221516  13.801  13.126   9.281
 2779PROX   H2121517  13.727  13.209   9.287
 2779PROX    C321518  13.888  13.130   9.402
 2779PROX   H3121519  13.958  13.044   9.407
 2779PROX   H3221520  13.943  13.227   9.397
 2779PROX   H3321521  13.823  13.123   9.492
 2780PROX    O121522  13.744  12.992   9.265
 2780PROX    C121523  13.599  12.998   9.256
 2780PROX   H1121524  13.569  13.085   9.193
 2780PROX   H1321525  13.556  12.905   9.212
 2780PROX    C221526  13.542  13.009   9.397
 2780PROX   H2121527  13.624  12.975   9.464
 2780PROX    C321528  13.422  12.922   9.426
 2780PROX   H3121529  13.449  12.814   9.429
 2780PROX   H3221530  13.375  12.944   9.524
 2780PROX   H3321531  13.348  12.930   9.343
 2781PROX    O121532  13.515  13.147   9.418
 2781PROX    C121533  13.548  13.183   9.558
 2781PROX   H1121534  13.503  13.106   9.625
 2781PROX   H1321535  13.655  13.198   9.585
 2781PROX    C221536  13.471  13.315   9.578
 2781PROX   H2121537  13.362  13.294   9.578
 2781PROX    C321538  13.513  13.416   9.474
 2781PROX   H3121539  13.489  13.387   9.369
 2781PROX   H3221540  13.483  13.520   9.498
 2781PROX   H3321541  13.623  13.409   9.481
 2782PROX    O121542  13.510  13.366   9.708
 2782PROX    C121543  13.485  13.292   9.819
 2782PROX   H1121544  13.508  13.183   9.817
 2782PROX   H1321545  13.569  13.313   9.889
 2782PROX    C221546  13.345  13.318   9.888
 2782PROX   H2121547  13.265  13.282   9.819
 2782PROX    C321548  13.309  13.465   9.903
 2782PROX   H3121549  13.296  13.524   9.810
 2782PROX   H3221550  13.211  13.468   9.954
 2782PROX   H3321551  13.374  13.515   9.977
 2783PROX    O121552  13.339  13.250  10.016
 2783PROX    C121553  13.295  13.118  10.003
 2783PROX   H1121554  13.195  13.107   9.954
 2783PROX   H1321555  13.370  13.074   9.934
 2783PROX    C221556  13.298  13.041  10.135
 2783PROX   H2121557  13.396  13.059  10.183
 2783PROX    C321558  13.281  12.893  10.117
 2783PROX   H3121559  13.283  12.841  10.215
 2783PROX   H3221560  13.183  12.865  10.073
 2783PROX   H3321561  13.366  12.850  10.059
 2784PROX    O121562  13.192  13.088  10.215
 2784PROX    C121563  13.227  13.190  10.311
 2784PROX   H1121564  13.259  13.154  10.411
 2784PROX   H1321565  13.315  13.247  10.276
 2784PROX    C221566  13.112  13.295  10.311
 2784PROX   H2121567  13.023  13.230  10.326
 2784PROX    C321568  13.084  13.376  10.185
 2784PROX   H3121569  13.046  13.311  10.103
 2784PROX   H3221570  13.025  13.467  10.207
 2784PROX   H3321571  13.184  13.405  10.147
 2785PROX    O121572  13.117  13.372  10.428
 2785PROX    C121573  13.193  13.489  10.416
 2785PROX   H1121574  13.284  13.467  10.357
 2785PROX   H1321575  13.133  13.565  10.361
 2785PROX    C221576  13.230  13.539  10.558
 2785PROX   H2121577  13.288  13.454  10.599
 2785PROX    C321578  13.107  13.545  10.651
 2785PROX   H3121579  13.033  13.623  10.626
 2785PROX   H3221580  13.059  13.448  10.675
 2785PROX   H3321581  13.144  13.578  10.751
 2786PROX    O121582  13.289  13.666  10.559
 2786PROX    C121583  13.415  13.665  10.494
 2786PROX   H1121584  13.476  13.576  10.519
 2786PROX   H1321585  13.395  13.665  10.385
 2786PROX    C221586  13.503  13.784  10.533
 2786PROX   H2121587  13.514  13.783  10.643
 2786PROX    C321588  13.458  13.916  10.472
 2786PROX   H3121589  13.355  13.935  10.509
 2786PROX   H3221590  13.519  13.998  10.516
 2786PROX   H3321591  13.467  13.919  10.362
 2787PROX    O121592  13.624  13.763  10.471
 2787PROX    C121593  13.737  13.810  10.547
 2787PROX   H1121594  13.734  13.920  10.562
 2787PROX   H1321595  13.746  13.760  10.646
 2787PROX    C221596  13.863  13.788  10.463
 2787PROX   H2121597  13.953  13.826  10.516
 2787PROX    C321598  13.862  13.863  10.322
 2787PROX   H3121599  13.850  13.970  10.348
 2787PROX   H3221600  13.954  13.851  10.260
 2787PROX   H3321601  13.769  13.830  10.272
 2788PROX    O121602  13.876  13.641  10.444
 2788PROX    C121603  14.003  13.604  10.385
 2788PROX   H1121604  14.034  13.660  10.293
 2788PROX   H1321605  14.086  13.612  10.458
 2788PROX    C221606  13.995  13.448  10.349
 2788PROX   H2121607  14.002  13.391  10.444
 2788PROX    C321608  14.099  13.393  10.247
 2788PROX   H3121609  14.077  13.293  10.202
 2788PROX   H3221610  14.104  13.464  10.161
 2788PROX   H3321611  14.199  13.391  10.294
 2789PROX    O121612  13.864  13.418  10.301
 2789PROX    C121613  13.831  13.461  10.172
 2789PROX   H1121614  13.894  13.548  10.146
 2789PROX   H1321615  13.856  13.387  10.093
 2789PROX    C221616  13.683  13.505  10.171
 2789PROX   H2121617  13.663  13.583  10.248
 2789PROX    C321618  13.582  13.391  10.194
 2789PROX   H3121619  13.612  13.304  10.132
 2789PROX   H3221620  13.579  13.372  10.304
 2789PROX   H3321621  13.480  13.416  10.159
 2790PROX    O121622  13.656  13.561  10.042
 2790PROX    C121623  13.687  13.702  10.041
 2790PROX   H1121624  13.637  13.742  10.132
 2790PROX   H1321625  13.798  13.708  10.043
 2790PROX    C221626  13.617  13.773   9.927
 2790PROX   H2121627  13.506  13.765   9.928
 2790PROX    C321628  13.656  13.708   9.791
 2790PROX   H3121629  13.590  13.620   9.775
 2790PROX   H3221630  13.643  13.780   9.707
 2790PROX   H3321631  13.765  13.684   9.793
 2791PROX    O121632  13.641  13.911   9.929
 2791PROX    C121633  13.582  13.982  10.038
 2791PROX   H1121634  13.473  13.960  10.039
 2791PROX   H1321635  13.622  13.952  10.137
 2791PROX    C221636  13.624  14.132  10.019
 2791PROX   H2121637  13.580  14.178   9.928
 2791PROX    C321638  13.778  14.158  10.016
 2791PROX   H3121639  13.823  14.090  10.091
 2791PROX   H3221640  13.825  14.145   9.916
 2791PROX   H3321641  13.812  14.258  10.051
 2792PROX    O121642  13.576  14.205  10.123
 2792PROX    C121643  13.435  14.222  10.126
 2792PROX   H1121644  13.403  14.304  10.058
 2792PROX   H1321645  13.383  14.129  10.095
 2792PROX    C221646  13.391  14.259  10.272
 2792PROX   H2121647  13.459  14.206  10.342
 2792PROX    C321648  13.251  14.214  10.301
 2792PROX   H3121649  13.176  14.273  10.244
 2792PROX   H3221650  13.238  14.106  10.278
 2792PROX   H3321651  13.240  14.224  10.411
 2793PROX    O121652  13.408  14.394  10.310
 2793PROX    C121653  13.541  14.433  10.293
 2793PROX   H1121654  13.612  14.356  10.329
 2793PROX   H1321655  13.567  14.451  10.187
 2793PROX    C221656  13.578  14.569  10.361
 2793PROX   H2121657  13.554  14.558  10.469
 2793PROX    C321658  13.488  14.680  10.305
 2793PROX   H3121659  13.518  14.708  10.202
 2793PROX   H3221660  13.383  14.646  10.292
 2793PROX   H3321661  13.498  14.769  10.371
 2794PROX    O121662  13.717  14.584  10.338
 2794PROX    C121663  13.760  14.716  10.385
 2794PROX   H1121664  13.717  14.801  10.327
 2794PROX   H1321665  13.712  14.735  10.483
 2794PROX    C221666  13.909  14.736  10.407
 2794PROX   H2121667  13.933  14.653  10.477
 2794PROX    C321668  13.960  14.870  10.460
 2794PROX   H3121669  13.930  14.894  10.565
 2794PROX   H3221670  14.071  14.879  10.460
 2794PROX   H3321671  13.919  14.955  10.402
 2795PROX    O121672  13.978  14.698  10.286
 2795PROX    C121673  13.998  14.804  10.189
 2795PROX   H1121674  13.926  14.889  10.194
 2795PROX   H1321675  14.097  14.842  10.221
 2795PROX    C221676  14.031  14.753  10.047
 2795PROX   H2121677  14.097  14.665  10.066
 2795PROX    C321678  14.109  14.868   9.981
 2795PROX   H3121679  14.050  14.961   9.967
 2795PROX   H3221680  14.200  14.886  10.043
 2795PROX   H3321681  14.149  14.846   9.880
 2796PROX    O121682  13.920  14.722   9.977
 2796PROX    C121683  13.844  14.611  10.024
 2796PROX   H1121684  13.907  14.546  10.088
 2796PROX   H1321685  13.772  14.649  10.100
 2796PROX    C221686  13.775  14.530   9.912
 2796PROX   H2121687  13.703  14.454   9.950
 2796PROX    C321688  13.881  14.462   9.832
 2796PROX   H3121689  13.829  14.408   9.750
 2796PROX   H3221690  13.960  14.536   9.807
 2796PROX   H3321691  13.943  14.383   9.879
 2797PROX    O121692  13.705  14.617   9.829
 2797PROX    C121693  13.577  14.662   9.882
 2797PROX   H1121694  13.595  14.685   9.990
 2797PROX   H1321695  13.538  14.755   9.837
 2797PROX    C221696  13.464  14.557   9.846
 2797PROX   H2121697  13.463  14.477   9.923
 2797PROX    C321698  13.500  14.486   9.712
 2797PROX   H3121699  13.525  14.560   9.633
 2797PROX   H3221700  13.592  14.423   9.719
 2797PROX   H3321701  13.408  14.434   9.677
 2798PROX    O121702  13.341  14.627   9.850
 2798PROX    C121703  13.319  14.688   9.979
 2798PROX   H1121704  13.335  14.615  10.061
 2798PROX   H1321705  13.388  14.772  10.003
 2798PROX    C221706  13.180  14.747   9.998
 2798PROX   H2121707  13.156  14.822   9.920
 2798PROX    C321708  13.175  14.807  10.140
 2798PROX   H3121709  13.197  14.720  10.205
 2798PROX   H3221710  13.262  14.875  10.155
 2798PROX   H3321711  13.077  14.855  10.162
 2799PROX    O121712  13.075  14.652   9.998
 2799PROX    C121713  13.044  14.585   9.875
 2799PROX   H1121714  12.936  14.563   9.869
 2799PROX   H1321715  13.068  14.653   9.791
 2799PROX    C221716  13.106  14.441   9.859
 2799PROX   H2121717  13.198  14.424   9.919
 2799PROX    C321718  13.134  14.418   9.710
 2799PROX   H3121719  13.217  14.485   9.677
 2799PROX   H3221720  13.169  14.313   9.696
 2799PROX   H3321721  13.046  14.445   9.648
 2800PROX    O121722  13.009  14.337   9.892
 2800PROX    C121723  13.067  14.206   9.922
 2800PROX   H1121724  13.122  14.166   9.835
 2800PROX   H1321725  13.139  14.221  10.005
 2800PROX    C221726  12.959  14.104   9.968
 2800PROX   H2121727  12.873  14.110   9.898
 2800PROX    C321728  12.915  14.141  10.104
 2800PROX   H3121729  12.878  14.246  10.104
 2800PROX   H3221730  12.829  14.074  10.127
 2800PROX   H3321731  12.985  14.126  10.189
 2801PROX    O121732  12.993  13.967   9.963
 2801PROX    C121733  13.091  13.931  10.062
 2801PROX   H1121734  13.152  14.020  10.089
 2801PROX   H1321735  13.033  13.898  10.151
 2801PROX    C221736  13.194  13.818  10.029
 2801PROX   H2121737  13.138  13.724  10.009
 2801PROX    C321738  13.277  13.773  10.148
 2801PROX   H3121739  13.349  13.690  10.129
 2801PROX   H3221740  13.331  13.864  10.181
 2801PROX   H3321741  13.218  13.725  10.229
 2802PROX    O121742  13.281  13.862   9.922
 2802PROX    C121743  13.218  13.867   9.791
 2802PROX   H1121744  13.169  13.771   9.766
 2802PROX   H1321745  13.144  13.947   9.769
 2802PROX    C221746  13.320  13.912   9.686
 2802PROX   H2121747  13.415  13.856   9.692
 2802PROX    C321748  13.347  14.059   9.712
 2802PROX   H3121749  13.259  14.122   9.686
 2802PROX   H3221750  13.357  14.082   9.820
 2802PROX   H3321751  13.434  14.102   9.658
 2803PROX    O121752  13.260  13.905   9.551
 2803PROX    C121753  13.273  13.766   9.501
 2803PROX   H1121754  13.377  13.738   9.476
 2803PROX   H1321755  13.244  13.696   9.582
 2803PROX    C221756  13.164  13.752   9.390
 2803PROX   H2121757  13.195  13.822   9.310
 2803PROX    C321758  13.033  13.796   9.447
 2803PROX   H3121759  13.026  13.907   9.457
 2803PROX   H3221760  12.947  13.767   9.383
 2803PROX   H3321761  13.018  13.756   9.550
 2804PROX    O121762  13.158  13.618   9.353
 2804PROX    C121763  13.093  13.604   9.226
 2804PROX   H1121764  13.047  13.503   9.225
 2804PROX   H1321765  13.008  13.675   9.212
 2804PROX    C221766  13.184  13.630   9.106
 2804PROX   H2121767  13.250  13.716   9.132
 2804PROX    C321768  13.109  13.659   8.972
 2804PROX   H3121769  13.189  13.674   8.897
 2804PROX   H3221770  13.035  13.580   8.948
 2804PROX   H3321771  13.054  13.755   8.978
 2805PROX    O121772  13.266  13.514   9.085
 2805PROX    C121773  13.379  13.504   9.170
 2805PROX   H1121774  13.372  13.571   9.257
 2805PROX   H1321775  13.392  13.397   9.197
 2805PROX    C221776  13.507  13.564   9.090
 2805PROX   H2121777  13.506  13.495   9.003
 2805PROX    C321778  13.639  13.548   9.174
 2805PROX   H3121779  13.722  13.589   9.111
 2805PROX   H3221780  13.633  13.587   9.277
 2805PROX   H3321781  13.655  13.443   9.206
 2806PROX    O121782  13.483  13.699   9.042
 2806PROX    C121783  13.527  13.805   9.135
 2806PROX   H1121784  13.480  13.772   9.230
 2806PROX   H1321785  13.638  13.807   9.144
 2806PROX    C221786  13.465  13.948   9.108
 2806PROX   H2121787  13.507  13.974   9.008
 2806PROX    C321788  13.509  14.052   9.209
 2806PROX   H3121789  13.616  14.080   9.214
 2806PROX   H3221790  13.446  14.143   9.195
 2806PROX   H3321791  13.480  14.004   9.305
 2807PROX    O121792  13.324  13.943   9.098
 2807PROX    C121793  13.270  14.023   8.995
 2807PROX   H1121794  13.316  14.124   8.990
 2807PROX   H1321795  13.266  13.977   8.894
 2807PROX    C221796  13.123  14.048   9.026
 2807PROX   H2121797  13.066  13.956   9.052
 2807PROX    C321798  13.040  14.107   8.910
 2807PROX   H3121799  13.024  14.031   8.830
 2807PROX   H3221800  12.945  14.160   8.934
 2807PROX   H3321801  13.093  14.189   8.858
 2808PROX    O121802  13.117  14.142   9.130
 2808PROX    C121803  13.055  14.095   9.248
 2808PROX   H1121804  12.982  14.015   9.225
 2808PROX   H1321805  13.136  14.059   9.315
 2808PROX    C221806  12.999  14.210   9.332
 2808PROX   H2121807  13.068  14.296   9.334
 2808PROX    C321808  12.958  14.167   9.474
 2808PROX   H3121809  13.048  14.126   9.524
 2808PROX   H3221810  12.910  14.253   9.525
 2808PROX   H3321811  12.872  14.096   9.479
 2809PROX    O121812  12.871  14.255   9.273
 2809PROX    C121813  12.890  14.345   9.163
 2809PROX   H1121814  12.978  14.326   9.097
 2809PROX   H1321815  12.798  14.336   9.101
 2809PROX    C221816  12.891  14.493   9.199
 2809PROX   H2121817  12.810  14.518   9.271
 2809PROX    C321818  12.872  14.580   9.074
 2809PROX   H3121819  12.968  14.584   9.018
 2809PROX   H3221820  12.792  14.541   9.008
 2809PROX   H3321821  12.837  14.682   9.103
 2810PROX    O121822  13.003  14.518   9.283
 2810PROX    C121823  13.014  14.649   9.343
 2810PROX   H1121824  12.996  14.723   9.263
 2810PROX   H1321825  12.931  14.662   9.416
 2810PROX    C221826  13.141  14.677   9.426
 2810PROX   H2121827  13.151  14.583   9.486
 2810PROX    C321828  13.130  14.797   9.520
 2810PROX   H3121829  13.125  14.894   9.466
 2810PROX   H3221830  13.047  14.779   9.591
 2810PROX   H3321831  13.213  14.807   9.593
 2811PROX    O121832  13.251  14.686   9.339
 2811PROX    C121833  13.373  14.643   9.389
 2811PROX   H1121834  13.454  14.716   9.365
 2811PROX   H1321835  13.384  14.624   9.498
 2811PROX    C221836  13.434  14.520   9.315
 2811PROX   H2121837  13.441  14.550   9.208
 2811PROX    C321838  13.351  14.392   9.317
 2811PROX   H3121839  13.242  14.409   9.306
 2811PROX   H3221840  13.371  14.328   9.228
 2811PROX   H3321841  13.371  14.329   9.407
 2812PROX    O121842  13.563  14.486   9.377
 2812PROX    C121843  13.659  14.459   9.284
 2812PROX   H1121844  13.710  14.365   9.312
 2812PROX   H1321845  13.611  14.455   9.184
 2812PROX    C221846  13.773  14.570   9.274
 2812PROX   H2121847  13.734  14.667   9.237
 2812PROX    C321848  13.889  14.509   9.183
 2812PROX   H3121849  13.963  14.589   9.161
 2812PROX   H3221850  13.930  14.419   9.234
 2812PROX   H3321851  13.836  14.469   9.095
 2813PROX    O121852  13.843  14.598   9.401
 2813PROX    C121853  13.771  14.680   9.491
 2813PROX   H1121854  13.664  14.692   9.462
 2813PROX   H1321855  13.781  14.627   9.588
 2813PROX    C221856  13.833  14.819   9.505
 2813PROX   H2121857  13.943  14.802   9.506
 2813PROX    C321858  13.797  14.897   9.634
 2813PROX   H3121859  13.687  14.884   9.646
 2813PROX   H3221860  13.841  14.861   9.729
 2813PROX   H3321861  13.812  15.007   9.630
 2814PROX    O121862  13.801  14.890   9.385
 2814PROX    C121863  13.881  15.008   9.365
 2814PROX   H1121864  13.803  15.076   9.324
 2814PROX   H1321865  13.918  15.054   9.459
 2814PROX    C221866  13.995  14.985   9.257
 2814PROX   H2121867  14.032  15.081   9.215
 2814PROX    C321868  13.931  14.902   9.141
 2814PROX   H3121869  14.010  14.870   9.070
 2814PROX   H3221870  13.873  14.815   9.180
 2814PROX   H3321871  13.854  14.963   9.090
 2815PROX    O121872  14.108  14.920   9.314
 2815PROX    C121873  14.227  14.927   9.234
 2815PROX   H1121874  14.199  14.909   9.128
 2815PROX   H1321875  14.272  15.028   9.238
 2815PROX    C221876  14.330  14.834   9.295
 2815PROX   H2121877  14.281  14.735   9.300
 2815PROX    C321878  14.384  14.896   9.433
 2815PROX   H3121879  14.442  14.817   9.486
 2815PROX   H3221880  14.446  14.986   9.411
 2815PROX   H3321881  14.297  14.918   9.498
 2816ETHO    O121882  14.438  14.820   9.202
 2816ETHO    C121883  14.525  14.705   9.246
 2816ETHO   H1121884  14.468  14.609   9.246
 2816ETHO   H1321885  14.578  14.713   9.343
 2816ETHO    C221886  14.627  14.674   9.138
 2816ETHO   H2121887  14.690  14.764   9.122
 2816ETHO   H2321888  14.585  14.658   9.036
 2817ETHO    O121889  14.703  14.551   9.154
 2817ETHO    C121890  14.820  14.552   9.067
 2817ETHO   H1121891  14.787  14.558   8.961
 2817ETHO   H1321892  14.884  14.641   9.086
 2817ETHO    C221893  14.910  14.417   9.080
 2817ETHO   H2121894  14.944  14.412   9.186
 2817ETHO   H2321895  14.999  14.429   9.015
 2818ETHO    O121896  14.869  14.291   9.028
 2818ETHO    C121897  14.744  14.251   9.082
 2818ETHO   H1121898  14.668  14.323   9.045
 2818ETHO   H1321899  14.737  14.277   9.190
 2818ETHO    C221900  14.714  14.103   9.051
 2818ETHO   H2121901  14.647  14.062   9.130
 2818ETHO   H2321902  14.805  14.041   9.064
 2819ETHO    O121903  14.639  14.085   8.931
 2819ETHO    C121904  14.624  13.949   8.890
 2819ETHO   H1121905  14.722  13.909   8.856
 2819ETHO   H1321906  14.588  13.877   8.967
 2819ETHO    C221907  14.520  13.947   8.779
 2819ETHO   H2121908  14.429  13.989   8.826
 2819ETHO   H2321909  14.494  13.847   8.737
 2820ETHO    O121910  14.556  14.030   8.673
 2820ETHO    C121911  14.476  14.017   8.560
 2820ETHO   H1121912  14.370  14.011   8.592
 2820ETHO   H1321913  14.511  13.931   8.500
 2820ETHO    C221914  14.491  14.135   8.461
 2820ETHO   H2121915  14.449  14.095   8.366
 2820ETHO   H2321916  14.597  14.153   8.433
 2821ETHO    O121917  14.418  14.255   8.495
 2821ETHO    C121918  14.452  14.362   8.410
 2821ETHO   H1121919  14.562  14.365   8.391
 2821ETHO   H1321920  14.392  14.341   8.319
 2821ETHO    C221921  14.389  14.493   8.471
 2821ETHO   H2121922  14.459  14.575   8.448
 2821ETHO   H2321923  14.392  14.466   8.579
 2822ETHO    O121924  14.256  14.516   8.427
 2822ETHO    C121925  14.197  14.625   8.497
 2822ETHO   H1121926  14.258  14.717   8.485
 2822ETHO   H1321927  14.207  14.595   8.603
 2822ETHO    C221928  14.059  14.645   8.438
 2822ETHO   H2121929  14.007  14.719   8.502
 2822ETHO   H2321930  14.015  14.543   8.445
 2823ETHO    O121931  14.041  14.691   8.303
 2823ETHO    C121932  14.055  14.834   8.283
 2823ETHO   H1121933  13.985  14.861   8.202
 2823ETHO   H1321934  14.025  14.890   8.374
 2823ETHO    C221935  14.205  14.870   8.239
 2823ETHO   H2121936  14.204  14.977   8.210
 2823ETHO   H2321937  14.278  14.853   8.321
 2824ETHO    O121938  14.244  14.794   8.127
 2824ETHO    C121939  14.366  14.727   8.148
 2824ETHO   H1121940  14.455  14.794   8.147
 2824ETHO   H1321941  14.357  14.674   8.245
 2824ETHO    C221942  14.388  14.631   8.032
 2824ETHO   H2121943  14.311  14.551   8.029
 2824ETHO   H2321944  14.482  14.574   8.044
 2825ETHO    O121945  14.395  14.697   7.909
 2825ETHO    C121946  14.421  14.612   7.799
 2825ETHO   H1121947  14.502  14.543   7.830
 2825ETHO   H1321948  14.330  14.553   7.772
 2825ETHO    C221949  14.476  14.686   7.676
 2825ETHO   H2121950  14.513  14.608   7.606
 2825ETHO   H2321951  14.565  14.740   7.713
 2826ETHO    O121952  14.382  14.767   7.616
 2826ETHO    C121953  14.449  14.836   7.515
 2826ETHO   H1121954  14.518  14.909   7.562
 2826ETHO   H1321955  14.505  14.763   7.454
 2826ETHO    C221956  14.350  14.919   7.439
 2826ETHO   H2121957  14.290  14.974   7.515
 2826ETHO   H2321958  14.296  14.843   7.379
 2827ETHO    O121959  14.409  15.022   7.370
 2827ETHO    C121960  14.315  15.071   7.274
 2827ETHO   H1121961  14.221  15.113   7.315
 2827ETHO   H1321962  14.290  14.996   7.196
 2827ETHO    C221963  14.383  15.188   7.205
 2827ETHO   H2121964  14.302  15.235   7.145
 2827ETHO   H2321965  14.457  15.144   7.135
 2828ETHO    O121966  14.443  15.276   7.299
 2828ETHO    C121967  14.498  15.392   7.225
 2828ETHO   H1121968  14.553  15.355   7.136
 2828ETHO   H1321969  14.414  15.457   7.191
 2828ETHO    C221970  14.606  15.470   7.302
 2828ETHO   H2121971  14.588  15.453   7.410
 2828ETHO   H2321972  14.592  15.578   7.279
 2829ETHO    O121973  14.739  15.427   7.258
 2829ETHO    C121974  14.834  15.468   7.358
 2829ETHO   H1121975  14.865  15.387   7.427
 2829ETHO   H1321976  14.791  15.547   7.422
 2829ETHO    C221977  14.961  15.540   7.309
 2829ETHO   H2121978  14.931  15.596   7.218
 2829ETHO   H2321979  15.042  15.469   7.285
 2830ETHO    O121980  15.008  15.621   7.415
 2830ETHO    C121981  15.099  15.721   7.369
 2830ETHO   H1121982  15.199  15.674   7.357
 2830ETHO   H1321983  15.068  15.771   7.275
 2830ETHO    C221984  15.110  15.829   7.476
 2830ETHO   H2121985  15.010  15.874   7.494
 2830ETHO   H2321986  15.164  15.918   7.439
 2831ETHO    O121987  15.171  15.775   7.594
 2831ETHO    C121988  15.193  15.879   7.688
 2831ETHO   H1121989  15.105  15.946   7.695
 2831ETHO   H1321990  15.281  15.938   7.653
 2831ETHO    C221991  15.219  15.820   7.832
 2831ETHO   H2121992  15.246  15.913   7.887
 2831ETHO   H2321993  15.308  15.754   7.828
 2832ETHO    O121994  15.117  15.756   7.902
 2832ETHO    C121995  15.156  15.741   8.043
 2832ETHO   H1121996  15.252  15.684   8.050
 2832ETHO   H1321997  15.165  15.837   8.099
 2832ETHO    C221998  15.050  15.664   8.115
 2832ETHO   H2121999  15.087  15.635   8.216
 2832ETHO   H2322000  15.016  15.578   8.054
 2833ETHO    O122001  14.946  15.758   8.150
 2833ETHO    C122002  14.838  15.705   8.222
 2833ETHO   H1122003  14.865  15.712   8.330
 2833ETHO   H1322004  14.827  15.597   8.196
 2833ETHO    C222005  14.701  15.780   8.204
 2833ETHO   H2122006  14.722  15.889   8.213
 2833ETHO   H2322007  14.629  15.732   8.274
 2834ETHO    O122008  14.643  15.769   8.070
 2834ETHO    C122009  14.550  15.873   8.053
 2834ETHO   H1122010  14.484  15.874   8.142
 2834ETHO   H1322011  14.603  15.967   8.026
 2834ETHO    C222012  14.459  15.840   7.930
 2834ETHO   H2122013  14.373  15.910   7.926
 2834ETHO   H2322014  14.427  15.736   7.951
 2835ETHO    O122015  14.523  15.856   7.805
 2835ETHO    C122016  14.555  15.732   7.747
 2835ETHO   H1122017  14.594  15.663   7.825
 2835ETHO   H1322018  14.462  15.684   7.711
 2835ETHO    C222019  14.656  15.758   7.635
 2835ETHO   H2122020  14.700  15.663   7.596
 2835ETHO   H2322021  14.735  15.820   7.684
 2836ETHO    O122022  14.598  15.813   7.519
 2836ETHO    C122023  14.695  15.871   7.431
 2836ETHO   H1122024  14.750  15.953   7.481
 2836ETHO   H1322025  14.770  15.793   7.406
 2836ETHO    C222026  14.645  15.929   7.299
 2836ETHO   H2122027  14.595  15.856   7.232
 2836ETHO   H2322028  14.729  15.973   7.242
 2837ETHO    O122029  14.560  16.036   7.332
 2837ETHO    C122030  14.507  16.098   7.217
 2837ETHO   H1122031  14.580  16.124   7.138
 2837ETHO   H1322032  14.433  16.028   7.171
 2837ETHO    C222033  14.429  16.229   7.247
 2837ETHO   H2122034  14.324  16.201   7.270
 2837ETHO   H2322035  14.411  16.295   7.159
 2838ETHO    O122036  14.493  16.304   7.353
 2838ETHO    C122037  14.414  16.396   7.425
 2838ETHO   H1122038  14.472  16.410   7.518
 2838ETHO   H1322039  14.320  16.348   7.461
 2838ETHO    C222040  14.388  16.541   7.369
 2838ETHO   H2122041  14.333  16.595   7.449
 2838ETHO   H2322042  14.316  16.525   7.286
 2839ETHO    O122043  14.508  16.607   7.330
 2839ETHO    C122044  14.494  16.658   7.192
 2839ETHO   H1122045  14.441  16.582   7.131
 2839ETHO   H1322046  14.428  16.748   7.183
 2839ETHO    C222047  14.627  16.699   7.132
 2839ETHO   H2122048  14.688  16.765   7.197
 2839ETHO   H2322049  14.600  16.753   7.039
 2840ETHO    O122050  14.710  16.593   7.094
 2840ETHO    C122051  14.844  16.638   7.069
 2840ETHO   H1122052  14.901  16.546   7.044
 2840ETHO   H1322053  14.878  16.683   7.165
 2840ETHO    C222054  14.851  16.744   6.956
 2840ETHO   H2122055  14.771  16.723   6.882
 2840ETHO   H2322056  14.952  16.743   6.911
 2841ETHO    O122057  14.822  16.877   6.995
 2841ETHO    C122058  14.860  16.961   6.890
 2841ETHO   H1122059  14.969  16.951   6.874
 2841ETHO   H1322060  14.816  16.933   6.792
 2841ETHO    C222061  14.832  17.106   6.929
 2841ETHO   H2122062  14.894  17.127   7.018
 2841ETHO   H2322063  14.725  17.122   6.956
 2842ETHO    O122064  14.884  17.175   6.818
 2842ETHO    C122065  14.782  17.229   6.735
 2842ETHO   H1122066  14.693  17.256   6.796
 2842ETHO   H1322067  14.770  17.159   6.650
 2842ETHO    C222068  14.827  17.361   6.667
 2842ETHO   H2122069  14.843  17.439   6.744
 2842ETHO   H2322070  14.738  17.394   6.609
 2843ETHO    O122071  14.947  17.359   6.582
 2843ETHO    C122072  14.936  17.443   6.465
 2843ETHO   H1122073  15.036  17.434   6.418
 2843ETHO   H1322074  14.859  17.399   6.398
 2843ETHO    C222075  14.920  17.592   6.497
 2843ETHO   H2122076  14.943  17.654   6.407
 2843ETHO   H2322077  14.995  17.619   6.574
 2844ETHO    O122078  14.793  17.639   6.531
 2844ETHO    C122079  14.697  17.645   6.424
 2844ETHO   H1122080  14.693  17.544   6.377
 2844ETHO   H1322081  14.748  17.709   6.349
 2844ETHO    C222082  14.566  17.718   6.452
 2844ETHO   H2122083  14.511  17.725   6.356
 2844ETHO   H2322084  14.595  17.820   6.483
 2845ETHO    O122085  14.483  17.659   6.555
 2845ETHO    C122086  14.535  17.687   6.685
 2845ETHO   H1122087  14.634  17.638   6.698
 2845ETHO   H1322088  14.544  17.797   6.700
 2845ETHO    C222089  14.441  17.632   6.793
 2845ETHO   H2122090  14.339  17.654   6.756
 2845ETHO   H2322091  14.457  17.703   6.877
 2846ETHO    O122092  14.455  17.497   6.824
 2846ETHO    C122093  14.349  17.449   6.904
 2846ETHO   H1122094  14.319  17.516   6.987
 2846ETHO   H1322095  14.272  17.430   6.826
 2846ETHO    C222096  14.384  17.302   6.956
 2846ETHO   H2122097  14.294  17.259   7.006
 2846ETHO   H2322098  14.470  17.301   7.025
 2847ETHO    O122099  14.408  17.216   6.845
 2847ETHO    C122100  14.439  17.091   6.903
 2847ETHO   H1122101  14.527  17.111   6.969
 2847ETHO   H1322102  14.361  17.038   6.960
 2847ETHO    C222103  14.488  17.000   6.794
 2847ETHO   H2122104  14.535  16.912   6.841
 2847ETHO   H2322105  14.568  17.058   6.742
 2848ETHO    O122106  14.384  16.956   6.713
 2848ETHO    C122107  14.422  16.836   6.646
 2848ETHO   H1122108  14.423  16.852   6.536
 2848ETHO   H1322109  14.511  16.776   6.675
 2848ETHO    C222110  14.297  16.748   6.681
 2848ETHO   H2122111  14.209  16.800   6.637
 2848ETHO   H2322112  14.286  16.744   6.792
 2849ETHO    O122113  14.300  16.610   6.628
 2849ETHO    C122114  14.180  16.535   6.677
 2849ETHO   H1122115  14.103  16.598   6.726
 2849ETHO   H1322116  14.207  16.454   6.748
 2849ETHO    C222117  14.117  16.465   6.546
 2849ETHO   H2122118  14.115  16.542   6.465
 2849ETHO   H2322119  14.013  16.436   6.570
 2850ETHO    O122120  14.194  16.352   6.505
 2850ETHO    C122121  14.156  16.307   6.375
 2850ETHO   H1122122  14.050  16.282   6.391
 2850ETHO   H1322123  14.156  16.390   6.301
 2850ETHO    C222124  14.227  16.190   6.313
 2850ETHO   H2122125  14.332  16.226   6.312
 2850ETHO   H2322126  14.190  16.179   6.209
 2851ETHO    O122127  14.243  16.067   6.391
 2851ETHO    C122128  14.139  15.978   6.375
 2851ETHO   H1122129  14.101  15.966   6.271
 2851ETHO   H1322130  14.056  16.010   6.441
 2851ETHO    C222131  14.175  15.837   6.426
 2851ETHO   H2122132  14.192  15.848   6.536
 2851ETHO   H2322133  14.270  15.792   6.389
 2852ETHO    O122134  14.060  15.758   6.407
 2852ETHO    C122135  14.056  15.640   6.490
 2852ETHO   H1122136  14.148  15.579   6.480
 2852ETHO   H1322137  14.043  15.673   6.595
 2852ETHO    C222138  13.931  15.561   6.438
 2852ETHO   H2122139  13.929  15.545   6.329
 2852ETHO   H2322140  13.842  15.623   6.459
 2853ETHO    O122141  13.924  15.432   6.502
 2853ETHO    C122142  13.902  15.323   6.412
 2853ETHO   H1122143  13.976  15.332   6.329
 2853ETHO   H1322144  13.803  15.343   6.367
 2853ETHO    C222145  13.905  15.181   6.469
 2853ETHO   H2122146  13.892  15.107   6.387
 2853ETHO   H2322147  13.823  15.167   6.542
 2854ETHO    O122148  14.026  15.153   6.531
 2854ETHO    C122149  14.025  15.019   6.582
 2854ETHO   H1122150  13.960  14.950   6.524
 2854ETHO   H1322151  14.128  14.977   6.577
 2854ETHO    C222152  13.995  15.009   6.731
 2854ETHO   H2122153  13.990  14.899   6.746
 2854ETHO   H2322154  13.900  15.066   6.740
 2855ETHO    O122155  14.106  15.054   6.806
 2855ETHO    C122156  14.082  15.037   6.946
 2855ETHO   H1122157  14.177  15.032   7.003
 2855ETHO   H1322158  14.051  14.930   6.936
 2855ETHO    C222159  13.975  15.127   7.016
 2855ETHO   H2122160  13.954  15.073   7.111
 2855ETHO   H2322161  13.887  15.151   6.953
 2856ETHO    O122162  14.044  15.250   7.030
 2856ETHO    C122163  13.973  15.348   7.109
 2856ETHO   H1122164  13.864  15.345   7.089
 2856ETHO   H1322165  13.992  15.339   7.218
 2856ETHO    C222166  14.006  15.497   7.072
 2856ETHO   H2122167  14.015  15.512   6.962
 2856ETHO   H2322168  13.912  15.551   7.097
 2857ETHO    O122169  14.127  15.534   7.136
 2857ETHO    C122170  14.149  15.679   7.120
 2857ETHO   H1122171  14.051  15.731   7.114
 2857ETHO   H1322172  14.180  15.694   7.014
 2857ETHO    C222173  14.242  15.742   7.229
 2857ETHO   H2122174  14.276  15.841   7.190
 2857ETHO   H2322175  14.340  15.691   7.236
 2858ETHO    O122176  14.207  15.775   7.365
 2858ETHO    C122177  14.312  15.815   7.446
 2858ETHO   H1122178  14.380  15.734   7.480
 2858ETHO   H1322179  14.379  15.881   7.387
 2858ETHO    C222180  14.257  15.861   7.576
 2858ETHO   H2122181  14.334  15.874   7.654
 2858ETHO   H2322182  14.171  15.796   7.602
 2859ETHO    O122183  14.211  15.999   7.558
 2859ETHO    C122184  14.138  16.048   7.671
 2859ETHO   H1122185  14.203  16.048   7.761
 2859ETHO   H1322186  14.048  15.988   7.695
 2859ETHO    C222187  14.100  16.194   7.654
 2859ETHO   H2122188  14.193  16.253   7.666
 2859ETHO   H2322189  14.024  16.215   7.733
 2860ETHO    O122190  14.042  16.222   7.529
 2860ETHO    C122191  13.996  16.356   7.528
 2860ETHO   H1122192  13.955  16.396   7.623
 2860ETHO   H1322193  14.084  16.424   7.524
 2860ETHO    C222194  13.889  16.369   7.417
 2860ETHO   H2122195  13.836  16.464   7.440
 2860ETHO   H2322196  13.820  16.284   7.437
 2861ETHO    O122197  13.925  16.369   7.278
 2861ETHO    C122198  13.808  16.402   7.198
 2861ETHO   H1122199  13.717  16.343   7.220
 2861ETHO   H1322200  13.774  16.502   7.231
 2861ETHO    C222201  13.836  16.409   7.047
 2861ETHO   H2122202  13.930  16.468   7.038
 2861ETHO   H2322203  13.760  16.472   6.995
 2862ETHO    O122204  13.847  16.282   6.988
 2862ETHO    C122205  13.880  16.284   6.853
 2862ETHO   H1122206  13.798  16.322   6.788
 2862ETHO   H1322207  13.971  16.345   6.839
 2862ETHO    C222208  13.906  16.142   6.807
 2862ETHO   H2122209  13.991  16.111   6.871
 2862ETHO   H2322210  13.944  16.146   6.702
 2863ETHO    O122211  13.790  16.058   6.816
 2863ETHO    C122212  13.794  15.936   6.740
 2863ETHO   H1122213  13.893  15.886   6.734
 2863ETHO   H1322214  13.734  15.868   6.804
 2863ETHO    C222215  13.723  15.956   6.610
 2863ETHO   H2122216  13.636  16.024   6.619
 2863ETHO   H2322217  13.675  15.864   6.570
 2864ETHO    O122218  13.823  15.999   6.510
 2864ETHO    C122219  13.765  16.061   6.395
 2864ETHO   H1122220  13.823  16.154   6.378
 2864ETHO   H1322221  13.658  16.087   6.405
 2864ETHO    C222222  13.766  15.971   6.269
 2864ETHO   H2122223  13.663  15.964   6.229
 2864ETHO   H2322224  13.808  15.873   6.299
 2865ETHO    O122225  13.846  16.024   6.161
 2865ETHO    C122226  13.840  15.949   6.043
 2865ETHO   H1122227  13.737  15.920   6.013
 2865ETHO   H1322228  13.867  16.027   5.968
 2865ETHO    C222229  13.915  15.811   6.040
 2865ETHO   H2122230  13.877  15.762   5.947
 2865ETHO   H2322231  13.905  15.748   6.131
 2866ETHO    O122232  14.052  15.835   6.032
 2866ETHO    C122233  14.123  15.716   6.005
 2866ETHO   H1122234  14.078  15.656   5.923
 2866ETHO   H1322235  14.114  15.654   6.097
 2866ETHO    C222236  14.275  15.730   5.986
 2866ETHO   H2122237  14.292  15.788   5.893
 2866ETHO   H2322238  14.333  15.636   5.976
 2867ETHO    O122239  14.331  15.806   6.090
 2867ETHO    C122240  14.472  15.796   6.094
 2867ETHO   H1122241  14.507  15.837   6.191
 2867ETHO   H1322242  14.501  15.689   6.098
 2867ETHO    C222243  14.544  15.865   5.982
 2867ETHO   H2122244  14.650  15.876   6.014
 2867ETHO   H2322245  14.511  15.968   5.957
 2868ETHO    O122246  14.521  15.792   5.858
 2868ETHO    C122247  14.597  15.847   5.751
 2868ETHO   H1122248  14.602  15.957   5.766
 2868ETHO   H1322249  14.542  15.834   5.656
 2868ETHO    C222250  14.742  15.808   5.727
 2868ETHO   H2122251  14.799  15.810   5.822
 2868ETHO   H2322252  14.790  15.874   5.651
 2869ETHO    O122253  14.752  15.675   5.692
 2869ETHO    C122254  14.719  15.656   5.554
 2869ETHO   H1122255  14.629  15.711   5.518
 2869ETHO   H1322256  14.799  15.700   5.492
 2869ETHO    C222257  14.726  15.507   5.517
 2869ETHO   H2122258  14.830  15.473   5.539
 2869ETHO   H2322259  14.708  15.485   5.410
 2870ETHO    O122260  14.634  15.429   5.594
 2870ETHO    C122261  14.596  15.298   5.557
 2870ETHO   H1122262  14.596  15.276   5.448
 2870ETHO   H1322263  14.488  15.289   5.584
 2870ETHO    C222264  14.673  15.191   5.620
 2870ETHO   H2122265  14.777  15.200   5.581
 2870ETHO   H2322266  14.631  15.093   5.589
 2871ETHO    O122267  14.678  15.191   5.751
 2871ETHO    C122268  14.766  15.083   5.795
 2871ETHO   H1122269  14.711  14.989   5.771
 2871ETHO   H1322270  14.857  15.096   5.731
 2871ETHO    C222271  14.788  15.105   5.947
 2871ETHO   H2122272  14.701  15.067   6.004
 2871ETHO   H2322273  14.810  15.213   5.958
 2872ETHO    O122274  14.910  15.041   5.974
 2872ETHO    C122275  14.952  15.064   6.100
 2872ETHO   H1122276  14.987  15.166   6.126
 2872ETHO   H1322277  14.873  15.038   6.173
 2872ETHO    C222278  15.070  14.970   6.125
 2872ETHO   H2122279  15.053  14.874   6.071
 2872ETHO   H2322280  15.084  14.955   6.234
 2873ETHO    O122281  15.190  15.027   6.067
 2873ETHO    C122282  15.297  14.937   6.073
 2873ETHO   H1122283  15.310  14.908   6.180
 2873ETHO   H1322284  15.281  14.847   6.010
 2873ETHO    C222285  15.426  14.994   6.023
 2873ETHO   H2122286  15.504  14.917   6.042
 2873ETHO   H2322287  15.455  15.093   6.064
 2874ETHO    O122288  15.423  15.012   5.886
 2874ETHO    C122289  15.550  15.034   5.835
 2874ETHO   H1122290  15.586  15.128   5.884
 2874ETHO   H1322291  15.621  14.958   5.874
 2874ETHO    C222292  15.572  15.069   5.684
 2874ETHO   H2122293  15.530  14.991   5.617
 2874ETHO   H2322294  15.681  15.064   5.665
 2875ETHO    O122295  15.510  15.189   5.649
 2875ETHO    C122296  15.488  15.200   5.503
 2875ETHO   H1122297  15.439  15.106   5.469
 2875ETHO   H1322298  15.586  15.206   5.452
 2875ETHO    C222299  15.388  15.312   5.463
 2875ETHO   H2122300  15.309  15.300   5.540
 2875ETHO   H2322301  15.351  15.290   5.361
 2876ETHO    O122302  15.440  15.443   5.462
 2876ETHO    C122303  15.520  15.464   5.349
 2876ETHO   H1122304  15.609  15.398   5.338
 2876ETHO   H1322305  15.461  15.441   5.258
 2876ETHO    C222306  15.549  15.616   5.329
 2876ETHO   H2122307  15.452  15.666   5.307
 2876ETHO   H2322308  15.611  15.637   5.240
 2877ETHO    O122309  15.613  15.652   5.450
 2877ETHO    C122310  15.573  15.780   5.493
 2877ETHO   H1122311  15.571  15.779   5.604
 2877ETHO   H1322312  15.465  15.801   5.474
 2877ETHO    C222313  15.667  15.894   5.437
 2877ETHO   H2122314  15.775  15.877   5.455
 2877ETHO   H2322315  15.636  15.986   5.492
 2878ETHO    O122316  15.639  15.905   5.297
 2878ETHO    C122317  15.719  16.005   5.231
 2878ETHO   H1122318  15.664  16.040   5.141
 2878ETHO   H1322319  15.739  16.088   5.302
 2878ETHO    C222320  15.853  15.953   5.174
 2878ETHO   H2122321  15.901  15.901   5.260
 2878ETHO   H2322322  15.918  16.038   5.143
 2879ETHO    O122323  15.832  15.863   5.067
 2879ETHO    C122324  15.961  15.805   5.031
 2879ETHO   H1122325  15.938  15.737   4.945
 2879ETHO   H1322326  15.990  15.731   5.108
 2879ETHO    C222327  16.086  15.891   4.988
 2879ETHO   H2122328  16.062  15.959   4.902
 2879ETHO   H2322329  16.170  15.829   4.951
 2880ETHO    O122330  16.132  15.961   5.104
 2880ETHO    C122331  16.181  16.088   5.072
 2880ETHO   H1122332  16.272  16.073   5.010
 2880ETHO   H1322333  16.102  16.144   5.017
 2880ETHO    C222334  16.221  16.144   5.205
 2880ETHO   H2122335  16.292  16.094   5.273
 2880ETHO   H2322336  16.125  16.144   5.260
 2881ETHO    O122337  16.273  16.274   5.203
 2881ETHO    C122338  16.413  16.273   5.213
 2881ETHO   H1122339  16.449  16.204   5.134
 2881ETHO   H1322340  16.446  16.236   5.312
 2881ETHO    C222341  16.485  16.412   5.209
 2881ETHO   H2122342  16.594  16.408   5.227
 2881ETHO   H2322343  16.437  16.483   5.279
 2882ETHO    O122344  16.459  16.475   5.085
 2882ETHO    C122345  16.533  16.591   5.059
 2882ETHO   H1122346  16.468  16.668   5.107
 2882ETHO   H1322347  16.633  16.579   5.106
 2882ETHO    C222348  16.532  16.648   4.912
 2882ETHO   H2122349  16.540  16.558   4.848
 2882ETHO   H2322350  16.627  16.704   4.897
 2883ETHO    O122351  16.417  16.730   4.890
 2883ETHO    C122352  16.300  16.652   4.860
 2883ETHO   H1122353  16.295  16.568   4.933
 2883ETHO   H1322354  16.222  16.724   4.893
 2883ETHO    C222355  16.276  16.605   4.710
 2883ETHO   H2122356  16.286  16.696   4.648
 2883ETHO   H2322357  16.171  16.569   4.707
 2884ETHO    O122358  16.356  16.499   4.671
 2884ETHO    C122359  16.373  16.490   4.533
 2884ETHO   H1122360  16.275  16.511   4.484
 2884ETHO   H1322361  16.450  16.560   4.495
 2884ETHO    C222362  16.415  16.350   4.485
 2884ETHO   H2122363  16.518  16.320   4.513
 2884ETHO   H2322364  16.409  16.342   4.374
 2885ETHO    O122365  16.331  16.245   4.532
 2885ETHO    C122366  16.332  16.135   4.438
 2885ETHO   H1122367  16.272  16.186   4.360
 2885ETHO   H1322368  16.434  16.124   4.394
 2885ETHO    C222369  16.266  16.000   4.491
 2885ETHO   H2122370  16.198  15.962   4.412
 2885ETHO   H2322371  16.196  16.020   4.575
 2886ETHO    O122372  16.358  15.893   4.512
 2886ETHO    C122373  16.301  15.784   4.578
 2886ETHO   H1122374  16.238  15.733   4.502
 2886ETHO   H1322375  16.233  15.823   4.657
 2886ETHO    C222376  16.413  15.687   4.635
 2886ETHO   H2122377  16.368  15.628   4.717
 2886ETHO   H2322378  16.485  15.762   4.675
 2887ETHO    O122379  16.477  15.608   4.539
 2887ETHO    C122380  16.405  15.488   4.515
 2887ETHO   H1122381  16.367  15.444   4.609
 2887ETHO   H1322382  16.321  15.514   4.447
 2887ETHO    C222383  16.490  15.399   4.432
 2887ETHO   H2122384  16.527  15.468   4.352
 2887ETHO   H2322385  16.429  15.316   4.392
 2888ETHO    O122386  16.599  15.345   4.506
 2888ETHO    C122387  16.696  15.281   4.426
 2888ETHO   H1122388  16.741  15.346   4.348
 2888ETHO   H1322389  16.644  15.199   4.372
 2888ETHO    C222390  16.803  15.219   4.515
 2888ETHO   H2122391  16.864  15.310   4.536
 2888ETHO   H2322392  16.863  15.151   4.451
 2889ETHO    O122393  16.771  15.141   4.630
 2889ETHO    C122394  16.887  15.102   4.701
 2889ETHO   H1122395  16.866  15.016   4.768
 2889ETHO   H1322396  16.962  15.069   4.626
 2889ETHO    C222397  16.943  15.211   4.785
 2889ETHO   H2122398  17.042  15.177   4.823
 2889ETHO   H2322399  16.952  15.309   4.734
 2890ETHO    O122400  16.854  15.226   4.902
 2890ETHO    C122401  16.925  15.293   5.015
 2890ETHO   H1122402  16.938  15.399   4.985
 2890ETHO   H1322403  17.027  15.249   5.026
 2890ETHO    C222404  16.838  15.295   5.140
 2890ETHO   H2122405  16.736  15.325   5.108
 2890ETHO   H2322406  16.885  15.368   5.210
 2891ETHO    O122407  16.843  15.167   5.199
 2891ETHO    C122408  16.767  15.177   5.322
 2891ETHO   H1122409  16.816  15.247   5.392
 2891ETHO   H1322410  16.663  15.204   5.295
 2891ETHO    C222411  16.774  15.037   5.391
 2891ETHO   H2122412  16.725  14.949   5.345
 2891ETHO   H2322413  16.722  15.043   5.489
 2892ETHO    O122414  16.907  14.992   5.414
 2892ETHO    C122415  16.918  14.918   5.535
 2892ETHO   H1122416  16.838  14.841   5.543
 2892ETHO   H1322417  16.900  14.982   5.623
 2892ETHO    C222418  17.046  14.841   5.550
 2892ETHO   H2122419  17.058  14.808   5.656
 2892ETHO   H2322420  17.134  14.905   5.529
 2893ETHO    O122421  17.049  14.721   5.477
 2893ETHO    C122422  17.172  14.703   5.417
 2893ETHO   H1122423  17.208  14.786   5.352
 2893ETHO   H1322424  17.243  14.684   5.501
 2893ETHO    C222425  17.176  14.579   5.321
 2893ETHO   H2122426  17.106  14.618   5.243
 2893ETHO   H2322427  17.143  14.493   5.382
 2894ETHO    O122428  17.306  14.551   5.268
 2894ETHO    C122429  17.305  14.431   5.201
 2894ETHO   H1122430  17.228  14.426   5.121
 2894ETHO   H1322431  17.279  14.346   5.268
 2894ETHO    C222432  17.438  14.390   5.125
 2894ETHO   H2122433  17.435  14.282   5.099
 2894ETHO   H2322434  17.522  14.402   5.196
 2895ETHO    O122435  17.462  14.486   5.017
 2895ETHO    C122436  17.433  14.438   4.884
 2895ETHO   H1122437  17.433  14.328   4.865
 2895ETHO   H1322438  17.333  14.472   4.849
 2895ETHO    C222439  17.532  14.507   4.786
 2895ETHO   H2122440  17.510  14.472   4.683
 2895ETHO   H2322441  17.632  14.463   4.808
 2896ETHO    O122442  17.534  14.646   4.783
 2896ETHO    C122443  17.585  14.703   4.661
 2896ETHO   H1122444  17.531  14.649   4.581
 2896ETHO   H1322445  17.689  14.668   4.641
 2896ETHO    C222446  17.568  14.854   4.650
 2896ETHO   H2122447  17.474  14.891   4.696
 2896ETHO   H2322448  17.554  14.878   4.542
 2897ETHO    O122449  17.681  14.928   4.697
 2897ETHO    C122450  17.691  14.913   4.841
 2897ETHO   H1122451  17.608  14.968   4.890
 2897ETHO   H1322452  17.677  14.806   4.869
 2897ETHO    C222453  17.827  14.964   4.882
 2897ETHO   H2122454  17.858  14.918   4.977
 2897ETHO   H2322455  17.890  14.939   4.793
 2898ETHO    O122456  17.814  15.107   4.886
 2898ETHO    C122457  17.930  15.154   4.951
 2898ETHO   H1122458  17.957  15.094   5.041
 2898ETHO   H1322459  18.009  15.129   4.876
 2898ETHO    C222460  17.930  15.304   4.965
 2898ETHO   H2122461  18.017  15.338   5.026
 2898ETHO   H2322462  17.837  15.325   5.021
 2899ETHO    O122463  17.918  15.382   4.849
 2899ETHO    C122464  17.890  15.525   4.881
 2899ETHO   H1122465  17.948  15.565   4.967
 2899ETHO   H1322466  17.915  15.586   4.791
 2899ETHO    C222467  17.738  15.558   4.899
 2899ETHO   H2122468  17.719  15.662   4.933
 2899ETHO   H2322469  17.695  15.499   4.982
 2900ETHO    O122470  17.665  15.526   4.783
 2900ETHO    C122471  17.535  15.565   4.797
 2900ETHO   H1122472  17.475  15.480   4.835
 2900ETHO   H1322473  17.520  15.661   4.852
 2900ETHO    C222474  17.483  15.612   4.661
 2900ETHO   H2122475  17.550  15.692   4.622
 2900ETHO   H2322476  17.380  15.649   4.677
 2901ETHO    O122477  17.490  15.501   4.568
 2901ETHO    C122478  17.480  15.546   4.435
 2901ETHO   H1122479  17.478  15.459   4.366
 2901ETHO   H1322480  17.564  15.614   4.410
 2901ETHO    C222481  17.357  15.623   4.396
 2901ETHO   H2122482  17.365  15.672   4.297
 2901ETHO   H2322483  17.343  15.707   4.468
 2902ETHO    O122484  17.235  15.548   4.406
 2902ETHO    C122485  17.148  15.553   4.287
 2902ETHO   H1122486  17.129  15.661   4.269
 2902ETHO   H1322487  17.208  15.512   4.202
 2902ETHO    C222488  17.015  15.476   4.299
 2902ETHO   H2122489  17.053  15.373   4.318
 2902ETHO   H2322490  16.971  15.475   4.197
 2903ETHO    O122491  16.923  15.532   4.395
 2903ETHO    C122492  16.830  15.616   4.324
 2903ETHO   H1122493  16.768  15.547   4.262
 2903ETHO   H1322494  16.890  15.692   4.269
 2903ETHO    C222495  16.739  15.684   4.422
 2903ETHO   H2122496  16.723  15.612   4.506
 2903ETHO   H2322497  16.641  15.702   4.373
 2904ETHO    O122498  16.789  15.807   4.463
 2904ETHO    C122499  16.730  15.864   4.579
 2904ETHO   H1122500  16.620  15.878   4.566
 2904ETHO   H1322501  16.737  15.795   4.665
 2904ETHO    C222502  16.793  15.995   4.633
 2904ETHO   H2122503  16.904  15.987   4.635
 2904ETHO   H2322504  16.746  16.017   4.731
 2905ETHO    O122505  16.759  16.092   4.538
 2905ETHO    C122506  16.819  16.221   4.564
 2905ETHO   H1122507  16.813  16.291   4.478
 2905ETHO   H1322508  16.927  16.216   4.590
 2905ETHO    C222509  16.741  16.267   4.686
 2905ETHO   H2122510  16.636  16.233   4.672
 2905ETHO   H2322511  16.746  16.378   4.690
 2906ETHO    O122512  16.799  16.226   4.816
 2906ETHO    C122513  16.697  16.227   4.915
 2906ETHO   H1122514  16.640  16.322   4.907
 2906ETHO   H1322515  16.627  16.142   4.901
 2906ETHO    C222516  16.757  16.219   5.051
 2906ETHO   H2122517  16.834  16.139   5.059
 2906ETHO   H2322518  16.676  16.192   5.122
 2907ETHO    O122519  16.823  16.340   5.090
 2907ETHO    C122520  16.850  16.350   5.226
 2907ETHO   H1122521  16.802  16.268   5.285
 2907ETHO   H1322522  16.805  16.445   5.261
 2907ETHO    C222523  17.004  16.366   5.258
 2907ETHO   H2122524  17.000  16.397   5.365
 2907ETHO   H2322525  17.060  16.437   5.194
 2908ETHO    O122526  17.068  16.234   5.255
 2908ETHO    C122527  17.185  16.222   5.338
 2908ETHO   H1122528  17.180  16.295   5.422
 2908ETHO   H1322529  17.170  16.119   5.377
 2908ETHO    C222530  17.314  16.247   5.257
 2908ETHO   H2122531  17.407  16.259   5.317
 2908ETHO   H2322532  17.299  16.335   5.191
 2909ETHO    O122533  17.343  16.133   5.171
 2909ETHO    C122534  17.446  16.166   5.069
 2909ETHO   H1122535  17.392  16.217   4.986
 2909ETHO   H1322536  17.526  16.237   5.099
 2909ETHO    C222537  17.523  16.045   5.029
 2909ETHO   H2122538  17.454  15.966   4.992
 2909ETHO   H2322539  17.582  15.999   5.111
 2910ETHO    O122540  17.610  16.086   4.924
 2910ETHO    C122541  17.707  15.996   4.881
 2910ETHO   H1122542  17.797  16.010   4.945
 2910ETHO   H1322543  17.676  15.894   4.913
 2910ETHO    C222544  17.761  16.008   4.744
 2910ETHO   H2122545  17.828  15.923   4.721
 2910ETHO   H2322546  17.819  16.101   4.727
 2911ETHO    O122547  17.651  16.003   4.654
 2911ETHO    C122548  17.699  16.000   4.517
 2911ETHO   H1122549  17.722  16.105   4.488
 2911ETHO   H1322550  17.800  15.954   4.512
 2911ETHO    C222551  17.580  15.949   4.437
 2911ETHO   H2122552  17.570  15.843   4.468
 2911ETHO   H2322553  17.606  15.944   4.329
 2912ETHO    O122554  17.464  16.036   4.442
 2912ETHO    C122555  17.375  16.014   4.336
 2912ETHO   H1122556  17.338  15.910   4.353
 2912ETHO   H1322557  17.415  16.022   4.233
 2912ETHO    C222558  17.264  16.114   4.351
 2912ETHO   H2122559  17.215  16.107   4.451
 2912ETHO   H2322560  17.180  16.097   4.281
 2913ETHO    O122561  17.318  16.246   4.333
 2913ETHO    C122562  17.222  16.342   4.352
 2913ETHO   H1122563  17.193  16.339   4.460
 2913ETHO   H1322564  17.127  16.323   4.298
 2913ETHO    C222565  17.275  16.478   4.302
 2913ETHO   H2122566  17.188  16.547   4.290
 2913ETHO   H2322567  17.322  16.473   4.202
 2914ETHO    O122568  17.379  16.532   4.379
 2914ETHO    C122569  17.338  16.599   4.498
 2914ETHO   H1122570  17.229  16.615   4.483
 2914ETHO   H1322571  17.396  16.693   4.508
 2914ETHO    C222572  17.350  16.504   4.623
 2914ETHO   H2122573  17.395  16.558   4.709
 2914ETHO   H2322574  17.408  16.414   4.592
 2915ETHO    O122575  17.232  16.458   4.677
 2915ETHO    C122576  17.258  16.355   4.771
 2915ETHO   H1122577  17.312  16.276   4.716
 2915ETHO   H1322578  17.342  16.377   4.840
 2915ETHO    C222579  17.135  16.298   4.847
 2915ETHO   H2122580  17.174  16.209   4.902
 2915ETHO   H2322581  17.059  16.271   4.770
 2915ETHO    OZ22582  17.086  16.385   4.946
 2915ETHO   HZ122583  17.003  16.347   4.975
 2916ETHO    O122584  14.124  17.385  20.631
 2916ETHO   HO122585  14.148  17.418  20.718
 2916ETHO    C122586  14.157  17.491  20.548
 2916ETHO   H1122587  14.146  17.466  20.440
 2916ETHO   H1322588  14.260  17.530  20.555
 2916ETHO    C222589  14.064  17.609  20.595
 2916ETHO   H2122590  13.964  17.561  20.603
 2916ETHO   H2322591  14.067  17.681  20.510
 2917ETHO    O122592  14.095  17.664  20.723
 2917ETHO    C122593  13.989  17.729  20.784
 2917ETHO   H1122594  13.952  17.803  20.709
 2917ETHO   H1322595  13.899  17.664  20.785
 2917ETHO    C222596  14.029  17.793  20.922
 2917ETHO   H2122597  13.956  17.877  20.925
 2917ETHO   H2322598  14.129  17.838  20.909
 2918ETHO    O122599  14.027  17.699  21.036
 2918ETHO    C122600  14.068  17.764  21.159
 2918ETHO   H1122601  14.000  17.846  21.191
 2918ETHO   H1322602  14.165  17.817  21.144
 2918ETHO    C222603  14.086  17.675  21.278
 2918ETHO   H2122604  14.149  17.734  21.349
 2918ETHO   H2322605  14.140  17.580  21.257
 2919ETHO    O122606  13.975  17.659  21.364
 2919ETHO    C122607  13.994  17.588  21.487
 2919ETHO   H1122608  14.045  17.492  21.463
 2919ETHO   H1322609  14.061  17.652  21.549
 2919ETHO    C222610  13.857  17.577  21.561
 2919ETHO   H2122611  13.790  17.510  21.502
 2919ETHO   H2322612  13.817  17.680  21.570
 2920ETHO    O122613  13.886  17.515  21.685
 2920ETHO    C122614  13.765  17.505  21.763
 2920ETHO   H1122615  13.726  17.609  21.769
 2920ETHO   H1322616  13.693  17.431  21.723
 2920ETHO    C222617  13.804  17.473  21.910
 2920ETHO   H2122618  13.893  17.538  21.925
 2920ETHO   H2322619  13.812  17.363  21.906
 2921ETHO    O122620  13.698  17.520  22.001
 2921ETHO    C122621  13.714  17.453  22.123
 2921ETHO   H1122622  13.709  17.343  22.110
 2921ETHO   H1322623  13.819  17.472  22.155
 2921ETHO    C222624  13.613  17.508  22.228
 2921ETHO   H2122625  13.616  17.619  22.233
 2921ETHO   H2322626  13.662  17.473  22.321
 2922ETHO    O122627  13.486  17.451  22.197
 2922ETHO    C122628  13.376  17.527  22.248
 2922ETHO   H1122629  13.396  17.537  22.357
 2922ETHO   H1322630  13.373  17.629  22.203
 2922ETHO    C222631  13.251  17.447  22.217
 2922ETHO   H2122632  13.171  17.500  22.274
 2922ETHO   H2322633  13.254  17.350  22.271
 2923ETHO    O122634  13.219  17.428  22.082
 2923ETHO    C122635  13.178  17.294  22.056
 2923ETHO   H1122636  13.255  17.218  22.081
 2923ETHO   H1322637  13.151  17.290  21.949
 2923ETHO    C222638  13.037  17.268  22.127
 2923ETHO   H2122639  13.028  17.318  22.226
 2923ETHO   H2322640  13.020  17.158  22.129
 2924ETHO    O122641  12.941  17.314  22.037
 2924ETHO    C122642  12.807  17.313  22.097
 2924ETHO   H1122643  12.815  17.354  22.200
 2924ETHO   H1322644  12.749  17.386  22.036
 2924ETHO    C222645  12.742  17.177  22.102
 2924ETHO   H2122646  12.653  17.173  22.169
 2924ETHO   H2322647  12.816  17.098  22.129
 2925ETHO    O122648  12.674  17.141  21.977
 2925ETHO    C122649  12.577  17.036  21.986
 2925ETHO   H1122650  12.508  17.060  22.070
 2925ETHO   H1322651  12.629  16.942  22.014
 2925ETHO    C222652  12.497  17.020  21.857
 2925ETHO   H2122653  12.448  17.111  21.815
 2925ETHO   H2322654  12.400  16.967  21.868
 2926ETHO    O122655  12.576  16.958  21.756
 2926ETHO    C122656  12.555  16.819  21.757
 2926ETHO   H1122657  12.567  16.775  21.858
 2926ETHO   H1322658  12.452  16.788  21.730
 2926ETHO    C222659  12.647  16.748  21.655
 2926ETHO   H2122660  12.620  16.640  21.663
 2926ETHO   H2322661  12.622  16.779  21.551
 2927ETHO    O122662  12.785  16.765  21.685
 2927ETHO    C122663  12.862  16.750  21.562
 2927ETHO   H1122664  12.860  16.842  21.499
 2927ETHO   H1322665  12.818  16.670  21.499
 2927ETHO    C222666  13.007  16.717  21.593
 2927ETHO   H2122667  13.063  16.674  21.508
 2927ETHO   H2322668  13.012  16.639  21.672
 2928ETHO    O122669  13.091  16.836  21.621
 2928ETHO    C122670  13.229  16.800  21.624
 2928ETHO   H1122671  13.260  16.753  21.529
 2928ETHO   H1322672  13.297  16.887  21.628
 2928ETHO    C222673  13.270  16.706  21.737
 2928ETHO   H2122674  13.218  16.733  21.831
 2928ETHO   H2322675  13.375  16.720  21.770
 2929ETHO    O122676  13.250  16.568  21.706
 2929ETHO    C122677  13.353  16.522  21.621
 2929ETHO   H1122678  13.443  16.507  21.684
 2929ETHO   H1322679  13.384  16.589  21.539
 2929ETHO    C222680  13.325  16.382  21.551
 2929ETHO   H2122681  13.283  16.304  21.618
 2929ETHO   H2322682  13.419  16.341  21.509
 2930ETHO    O122683  13.238  16.400  21.441
 2930ETHO    C122684  13.100  16.380  21.472
 2930ETHO   H1122685  13.088  16.276  21.510
 2930ETHO   H1322686  13.080  16.442  21.562
 2930ETHO    C222687  13.020  16.396  21.347
 2930ETHO   H2122688  13.063  16.340  21.261
 2930ETHO   H2322689  12.916  16.362  21.368
 2931ETHO    O122690  13.017  16.533  21.312
 2931ETHO    C122691  12.919  16.571  21.215
 2931ETHO   H1122692  12.912  16.490  21.140
 2931ETHO   H1322693  12.825  16.579  21.274
 2931ETHO    C222694  12.946  16.722  21.164
 2931ETHO   H2122695  12.954  16.780  21.258
 2931ETHO   H2322696  12.855  16.757  21.111
 2932ETHO    O122697  13.057  16.746  21.083
 2932ETHO    C122698  13.180  16.750  21.159
 2932ETHO   H1122699  13.166  16.836  21.229
 2932ETHO   H1322700  13.191  16.654  21.214
 2932ETHO    C222701  13.308  16.779  21.075
 2932ETHO   H2122702  13.386  16.763  21.152
 2932ETHO   H2322703  13.311  16.884  21.038
 2933ETHO    O122704  13.338  16.682  20.975
 2933ETHO    C122705  13.358  16.743  20.849
 2933ETHO   H1122706  13.264  16.789  20.812
 2933ETHO   H1322707  13.426  16.831  20.854
 2933ETHO    C222708  13.401  16.636  20.741
 2933ETHO   H2122709  13.483  16.570  20.776
 2933ETHO   H2322710  13.441  16.683  20.649
 2934ETHO    O122711  13.294  16.546  20.716
 2934ETHO    C122712  13.323  16.447  20.611
 2934ETHO   H1122713  13.427  16.414  20.628
 2934ETHO   H1322714  13.298  16.482  20.508
 2934ETHO    C222715  13.228  16.324  20.642
 2934ETHO   H2122716  13.239  16.293  20.748
 2934ETHO   H2322717  13.267  16.245  20.575
 2935ETHO    O122718  13.093  16.354  20.624
 2935ETHO    C122719  13.015  16.237  20.602
 2935ETHO   H1122720  13.079  16.153  20.567
 2935ETHO   H1322721  12.967  16.222  20.701
 2935ETHO    C222722  12.910  16.259  20.493
 2935ETHO   H2122723  12.885  16.166  20.437
 2935ETHO   H2322724  12.961  16.320  20.416
 2936ETHO    O122725  12.790  16.324  20.540
 2936ETHO    C122726  12.699  16.337  20.434
 2936ETHO   H1122727  12.629  16.251  20.429
 2936ETHO   H1322728  12.755  16.349  20.338
 2936ETHO    C222729  12.617  16.468  20.454
 2936ETHO   H2122730  12.545  16.475  20.369
 2936ETHO   H2322731  12.676  16.562  20.451
 2937ETHO    O122732  12.544  16.462  20.576
 2937ETHO    C122733  12.431  16.548  20.572
 2937ETHO   H1122734  12.461  16.653  20.552
 2937ETHO   H1322735  12.362  16.515  20.491
 2937ETHO    C222736  12.342  16.536  20.700
 2937ETHO   H2122737  12.254  16.593  20.662
 2937ETHO   H2322738  12.307  16.433  20.718
 2938ETHO    O122739  12.400  16.605  20.814
 2938ETHO    C122740  12.305  16.641  20.914
 2938ETHO   H1122741  12.199  16.622  20.887
 2938ETHO   H1322742  12.321  16.750  20.929
 2938ETHO    C222743  12.335  16.572  21.048
 2938ETHO   H2122744  12.337  16.463  21.027
 2938ETHO   H2322745  12.244  16.592  21.108
 2939ETHO    O122746  12.456  16.615  21.113
 2939ETHO    C122747  12.454  16.742  21.176
 2939ETHO   H1122748  12.553  16.772  21.217
 2939ETHO   H1322749  12.431  16.820  21.101
 2939ETHO    C222750  12.347  16.756  21.298
 2939ETHO   H2122751  12.239  16.747  21.272
 2939ETHO   H2322752  12.359  16.862  21.328
 2940ETHO    O122753  12.380  16.666  21.403
 2940ETHO    C122754  12.254  16.620  21.466
 2940ETHO   H1122755  12.191  16.578  21.386
 2940ETHO   H1322756  12.199  16.708  21.506
 2940ETHO    C222757  12.272  16.518  21.577
 2940ETHO   H2122758  12.171  16.489  21.613
 2940ETHO   H2322759  12.333  16.573  21.652
 2941ETHO    O122760  12.336  16.403  21.520
 2941ETHO    C122761  12.333  16.296  21.612
 2941ETHO   H1122762  12.405  16.326  21.692
 2941ETHO   H1322763  12.231  16.283  21.653
 2941ETHO    C222764  12.382  16.162  21.556
 2941ETHO   H2122765  12.317  16.120  21.476
 2941ETHO   H2322766  12.387  16.097  21.645
 2942ETHO    O122767  12.516  16.162  21.513
 2942ETHO    C122768  12.568  16.034  21.512
 2942ETHO   H1122769  12.502  15.973  21.447
 2942ETHO   H1322770  12.565  15.992  21.615
 2942ETHO    C222771  12.715  16.027  21.471
 2942ETHO   H2122772  12.760  15.930  21.499
 2942ETHO   H2322773  12.780  16.093  21.532
 2943ETHO    O122774  12.747  16.046  21.337
 2943ETHO    C122775  12.700  16.168  21.286
 2943ETHO   H1122776  12.589  16.161  21.281
 2943ETHO   H1322777  12.731  16.248  21.358
 2943ETHO    C222778  12.762  16.204  21.150
 2943ETHO   H2122779  12.729  16.308  21.131
 2943ETHO   H2322780  12.725  16.141  21.066
 2944ETHO    O122781  12.903  16.188  21.158
 2944ETHO    C122782  12.970  16.186  21.038
 2944ETHO   H1122783  12.954  16.286  20.993
 2944ETHO   H1322784  12.925  16.108  20.974
 2944ETHO    C222785  13.125  16.157  21.041
 2944ETHO   H2122786  13.183  16.226  21.106
 2944ETHO   H2322787  13.168  16.178  20.941
 2945ETHO    O122788  13.145  16.019  21.064
 2945ETHO    C122789  13.276  15.988  21.071
 2945ETHO   H1122790  13.313  16.019  20.971
 2945ETHO   H1322791  13.336  16.049  21.141
 2945ETHO    C222792  13.291  15.844  21.113
 2945ETHO   H2122793  13.260  15.778  21.029
 2945ETHO   H2322794  13.230  15.826  21.205
 2946ETHO    O122795  13.430  15.810  21.124
 2946ETHO    C122796  13.460  15.701  21.210
 2946ETHO   H1122797  13.430  15.731  21.313
 2946ETHO   H1322798  13.401  15.611  21.184
 2946ETHO    C222799  13.614  15.672  21.203
 2946ETHO   H2122800  13.637  15.594  21.279
 2946ETHO   H2322801  13.677  15.759  21.230
 2947ETHO    O122802  13.663  15.622  21.078
 2947ETHO    C122803  13.805  15.637  21.071
 2947ETHO   H1122804  13.832  15.741  21.100
 2947ETHO   H1322805  13.859  15.561  21.131
 2947ETHO    C222806  13.851  15.613  20.925
 2947ETHO   H2122807  13.960  15.630  20.924
 2947ETHO   H2322808  13.780  15.677  20.868
 2948ETHO    O122809  13.817  15.475  20.891
 2948ETHO    C122810  13.896  15.419  20.791
 2948ETHO   H1122811  14.003  15.426  20.819
 2948ETHO   H1322812  13.864  15.313  20.788
 2948ETHO    C222813  13.866  15.471  20.645
 2948ETHO   H2122814  13.887  15.580  20.645
 2948ETHO   H2322815  13.756  15.461  20.634
 2949ETHO    O122816  13.931  15.388  20.539
 2949ETHO    C122817  13.876  15.420  20.414
 2949ETHO   H1122818  13.864  15.529  20.394
 2949ETHO   H1322819  13.777  15.368  20.410
 2949ETHO    C222820  13.960  15.381  20.293
 2949ETHO   H2122821  13.900  15.376  20.199
 2949ETHO   H2322822  13.999  15.279  20.314
 2950ETHO    O122823  14.068  15.472  20.260
 2950ETHO    C122824  14.167  15.399  20.185
 2950ETHO   H1122825  14.190  15.303  20.237
 2950ETHO   H1322826  14.122  15.373  20.087
 2950ETHO    C222827  14.295  15.485  20.166
 2950ETHO   H2122828  14.266  15.591  20.152
 2950ETHO   H2322829  14.341  15.443  20.074
 2951ETHO    O122830  14.389  15.477  20.264
 2951ETHO    C122831  14.502  15.567  20.251
 2951ETHO   H1122832  14.548  15.572  20.352
 2951ETHO   H1322833  14.470  15.670  20.224
 2951ETHO    C222834  14.623  15.526  20.164
 2951ETHO   H2122835  14.701  15.600  20.193
 2951ETHO   H2322836  14.592  15.531  20.058
 2952ETHO    O122837  14.662  15.396  20.204
 2952ETHO    C122838  14.763  15.344  20.121
 2952ETHO   H1122839  14.720  15.320  20.021
 2952ETHO   H1322840  14.842  15.421  20.110
 2952ETHO    C222841  14.817  15.219  20.188
 2952ETHO   H2122842  14.863  15.165  20.102
 2952ETHO   H2322843  14.740  15.152  20.230
 2953ETHO    O122844  14.911  15.243  20.296
 2953ETHO    C122845  14.990  15.129  20.338
 2953ETHO   H1122846  15.053  15.093  20.254
 2953ETHO   H1322847  14.918  15.054  20.377
 2953ETHO    C222848  15.091  15.164  20.444
 2953ETHO   H2122849  15.141  15.259  20.415
 2953ETHO   H2322850  15.157  15.076  20.438
 2954ETHO    O122851  15.033  15.196  20.574
 2954ETHO    C122852  15.133  15.200  20.673
 2954ETHO   H1122853  15.162  15.095  20.693
 2954ETHO   H1322854  15.220  15.261  20.643
 2954ETHO    C222855  15.081  15.261  20.805
 2954ETHO   H2122856  15.125  15.193  20.882
 2954ETHO   H2322857  14.972  15.243  20.816
 2955ETHO    O122858  15.119  15.400  20.828
 2955ETHO    C122859  15.046  15.492  20.748
 2955ETHO   H1122860  14.938  15.474  20.767
 2955ETHO   H1322861  15.064  15.467  20.641
 2955ETHO    C222862  15.089  15.638  20.768
 2955ETHO   H2122863  15.038  15.701  20.692
 2955ETHO   H2322864  15.199  15.636  20.753
 2956ETHO    O122865  15.058  15.683  20.894
 2956ETHO    C122866  15.121  15.810  20.925
 2956ETHO   H1122867  15.127  15.827  21.035
 2956ETHO   H1322868  15.226  15.808  20.889
 2956ETHO    C222869  15.040  15.919  20.861
 2956ETHO   H2122870  15.022  15.895  20.754
 2956ETHO   H2322871  15.103  16.010  20.852
 2957ETHO    O122872  14.918  15.949  20.924
 2957ETHO    C122873  14.821  15.996  20.834
 2957ETHO   H1122874  14.837  16.100  20.800
 2957ETHO   H1322875  14.830  15.935  20.741
 2957ETHO    C222876  14.676  15.991  20.888
 2957ETHO   H2122877  14.659  15.888  20.925
 2957ETHO   H2322878  14.606  16.004  20.803
 2958ETHO    O122879  14.648  16.096  20.984
 2958ETHO    C122880  14.523  16.080  21.049
 2958ETHO   H1122881  14.447  16.072  20.968
 2958ETHO   H1322882  14.527  15.983  21.104
 2958ETHO    C222883  14.517  16.201  21.145
 2958ETHO   H2122884  14.412  16.231  21.165
 2958ETHO   H2322885  14.569  16.292  21.107
 2959ETHO    O122886  14.569  16.168  21.270
 2959ETHO    C122887  14.600  16.286  21.354
 2959ETHO   H1122888  14.675  16.350  21.303
 2959ETHO   H1322889  14.514  16.354  21.368
 2959ETHO    C222890  14.667  16.240  21.486
 2959ETHO   H2122891  14.721  16.321  21.539
 2959ETHO   H2322892  14.742  16.160  21.466
 2960ETHO    O122893  14.572  16.188  21.573
 2960ETHO    C122894  14.620  16.166  21.706
 2960ETHO   H1122895  14.628  16.268  21.747
 2960ETHO   H1322896  14.721  16.121  21.709
 2960ETHO    C222897  14.536  16.075  21.785
 2960ETHO   H2122898  14.433  16.115  21.792
 2960ETHO   H2322899  14.576  16.075  21.889
 2961ETHO    O122900  14.535  15.943  21.735
 2961ETHO    C122901  14.473  15.855  21.826
 2961ETHO   H1122902  14.475  15.879  21.934
 2961ETHO   H1322903  14.364  15.865  21.807
 2961ETHO    C222904  14.518  15.714  21.801
 2961ETHO   H2122905  14.498  15.653  21.891
 2961ETHO   H2322906  14.629  15.723  21.795
 2962ETHO    O122907  14.466  15.656  21.676
 2962ETHO    C122908  14.333  15.597  21.692
 2962ETHO   H1122909  14.258  15.655  21.751
 2962ETHO   H1322910  14.345  15.500  21.746
 2962ETHO    C222911  14.261  15.556  21.566
 2962ETHO   H2122912  14.191  15.471  21.583
 2962ETHO   H2322913  14.348  15.523  21.504
 2963ETHO    O122914  14.193  15.660  21.500
 2963ETHO    C122915  14.192  15.654  21.362
 2963ETHO   H1122916  14.294  15.674  21.325
 2963ETHO   H1322917  14.165  15.550  21.333
 2963ETHO    C222918  14.089  15.744  21.297
 2963ETHO   H2122919  14.073  15.707  21.194
 2963ETHO   H2322920  13.989  15.725  21.343
 2964ETHO    O122921  14.111  15.879  21.296
 2964ETHO    C122922  14.141  15.933  21.169
 2964ETHO   H1122923  14.058  15.913  21.098
 2964ETHO   H1322924  14.236  15.891  21.130
 2964ETHO    C222925  14.145  16.084  21.158
 2964ETHO   H2122926  14.211  16.122  21.077
 2964ETHO   H2322927  14.184  16.120  21.256
 2965ETHO    O122928  14.019  16.140  21.129
 2965ETHO    C122929  14.031  16.283  21.112
 2965ETHO   H1122930  14.067  16.320  21.211
 2965ETHO   H1322931  14.095  16.303  21.024
 2965ETHO    C222932  13.893  16.332  21.089
 2965ETHO   H2122933  13.898  16.439  21.116
 2965ETHO   H2322934  13.822  16.282  21.158
 2966ETHO    O122935  13.863  16.313  20.949
 2966ETHO    C122936  13.723  16.317  20.928
 2966ETHO   H1122937  13.682  16.414  20.962
 2966ETHO   H1322938  13.668  16.248  20.997
 2966ETHO    C222939  13.698  16.284  20.784
 2966ETHO   H2122940  13.588  16.268  20.774
 2966ETHO   H2322941  13.740  16.184  20.758
 2967ETHO    O122942  13.755  16.381  20.704
 2967ETHO    C122943  13.746  16.346  20.563
 2967ETHO   H1122944  13.815  16.261  20.548
 2967ETHO   H1322945  13.640  16.317  20.547
 2967ETHO    C222946  13.787  16.461  20.468
 2967ETHO   H2122947  13.724  16.549  20.490
 2967ETHO   H2322948  13.746  16.419  20.374
 2968ETHO    O122949  13.927  16.487  20.456
 2968ETHO    C122950  13.950  16.562  20.336
 2968ETHO   H1122951  13.901  16.513  20.249
 2968ETHO   H1322952  13.905  16.662  20.351
 2968ETHO    C222953  14.100  16.583  20.315
 2968ETHO   H2122954  14.124  16.622  20.214
 2968ETHO   H2322955  14.153  16.485  20.313
 2969ETHO    O122956  14.149  16.676  20.411
 2969ETHO    C122957  14.282  16.722  20.390
 2969ETHO   H1122958  14.294  16.772  20.292
 2969ETHO   H1322959  14.302  16.785  20.479
 2969ETHO    C222960  14.397  16.617  20.382
 2969ETHO   H2122961  14.386  16.553  20.471
 2969ETHO   H2322962  14.494  16.670  20.369
 2970ETHO    O122963  14.385  16.525  20.271
 2970ETHO    C122964  14.494  16.432  20.277
 2970ETHO   H1122965  14.590  16.485  20.260
 2970ETHO   H1322966  14.508  16.387  20.378
 2970ETHO    C222967  14.473  16.311  20.189
 2970ETHO   H2122968  14.474  16.341  20.083
 2970ETHO   H2322969  14.552  16.232  20.191
 2971ETHO    O122970  14.344  16.254  20.214
 2971ETHO    C122971  14.324  16.119  20.174
 2971ETHO   H1122972  14.412  16.056  20.197
 2971ETHO   H1322973  14.314  16.112  20.064
 2971ETHO    C222974  14.208  16.059  20.259
 2971ETHO   H2122975  14.223  16.088  20.365
 2971ETHO   H2322976  14.215  15.949  20.247
 2972ETHO    O122977  14.078  16.095  20.219
 2972ETHO    C122978  13.981  16.014  20.287
 2972ETHO   H1122979  14.012  15.970  20.384
 2972ETHO   H1322980  13.892  16.077  20.306
 2972ETHO    C222981  13.935  15.900  20.186
 2972ETHO   H2122982  13.903  15.948  20.091
 2972ETHO   H2322983  13.846  15.846  20.224
 2973ETHO    O122984  14.032  15.804  20.159
 2973ETHO    C122985  14.002  15.718  20.046
 2973ETHO   H1122986  13.893  15.707  20.026
 2973ETHO   H1322987  14.040  15.614  20.048
 2973ETHO    C222988  14.067  15.781  19.914
 2973ETHO   H2122989  14.052  15.891  19.915
 2973ETHO   H2322990  14.007  15.743  19.829
 2974ETHO    O122991  14.203  15.746  19.890
 2974ETHO    C122992  14.287  15.820  19.975
 2974ETHO   H1122993  14.260  15.927  19.985
 2974ETHO   H1322994  14.266  15.774  20.074
 2974ETHO    C222995  14.424  15.826  19.915
 2974ETHO   H2122996  14.468  15.727  19.890
 2974ETHO   H2322997  14.496  15.867  19.989
 2975ETHO    O122998  14.422  15.916  19.802
 2975ETHO    C122999  14.547  15.921  19.736
 2975ETHO   H1123000  14.565  15.830  19.676
 2975ETHO   H1323001  14.636  15.929  19.802
 2975ETHO    C223002  14.542  16.035  19.629
 2975ETHO   H2123003  14.439  16.043  19.588
 2975ETHO   H2323004  14.619  16.019  19.551
 2976ETHO    O123005  14.556  16.165  19.682
 2976ETHO    C123006  14.692  16.214  19.661
 2976ETHO   H1123007  14.759  16.131  19.693
 2976ETHO   H1323008  14.708  16.232  19.553
 2976ETHO    C223009  14.729  16.339  19.740
 2976ETHO   H2123010  14.660  16.419  19.708
 2976ETHO   H2323011  14.835  16.366  19.721
 2977ETHO    O123012  14.703  16.323  19.874
 2977ETHO    C123013  14.755  16.439  19.943
 2977ETHO   H1123014  14.674  16.497  19.993
 2977ETHO   H1323015  14.808  16.507  19.873
 2977ETHO    C223016  14.844  16.398  20.061
 2977ETHO   H2123017  14.852  16.490  20.124
 2977ETHO   H2323018  14.944  16.372  20.021
 2978ETHO    O123019  14.809  16.288  20.144
 2978ETHO    C123020  14.854  16.310  20.285
 2978ETHO   H1123021  14.954  16.359  20.289
 2978ETHO   H1323022  14.796  16.395  20.327
 2978ETHO    C223023  14.856  16.190  20.369
 2978ETHO   H2123024  14.917  16.211  20.459
 2978ETHO   H2323025  14.913  16.110  20.316
 2979ETHO    O123026  14.723  16.159  20.399
 2979ETHO    C123027  14.712  16.056  20.499
 2979ETHO   H1123028  14.603  16.063  20.520
 2979ETHO   H1323029  14.776  16.091  20.582
 2979ETHO    C223030  14.754  15.919  20.444
 2979ETHO   H2123031  14.710  15.915  20.342
 2979ETHO   H2323032  14.717  15.834  20.506
 2980ETHO    O123033  14.899  15.900  20.439
 2980ETHO    C123034  14.932  15.773  20.387
 2980ETHO   H1123035  14.887  15.697  20.453
 2980ETHO   H1323036  14.887  15.744  20.289
 2980ETHO    C223037  15.086  15.761  20.367
 2980ETHO   H2123038  15.125  15.840  20.298
 2980ETHO   H2323039  15.111  15.662  20.322
 2981ETHO    O123040  15.150  15.773  20.492
 2981ETHO    C123041  15.293  15.763  20.469
 2981ETHO   H1123042  15.313  15.811  20.371
 2981ETHO   H1323043  15.320  15.656  20.459
 2981ETHO    C223044  15.387  15.831  20.575
 2981ETHO   H2123045  15.492  15.804  20.550
 2981ETHO   H2323046  15.376  15.789  20.677
 2982ETHO    O123047  15.372  15.972  20.565
 2982ETHO    C123048  15.461  16.048  20.648
 2982ETHO   H1123049  15.410  16.131  20.701
 2982ETHO   H1323050  15.474  15.979  20.734
 2982ETHO    C223051  15.600  16.076  20.600
 2982ETHO   H2123052  15.618  16.174  20.551
 2982ETHO   H2323053  15.622  15.998  20.524
 2983ETHO    O123054  15.691  16.072  20.712
 2983ETHO    C123055  15.682  16.196  20.791
 2983ETHO   H1123056  15.577  16.232  20.785
 2983ETHO   H1323057  15.688  16.183  20.901
 2983ETHO    C223058  15.766  16.315  20.758
 2983ETHO   H2123059  15.736  16.412  20.803
 2983ETHO   H2323060  15.743  16.330  20.651
 2984ETHO    O123061  15.897  16.282  20.787
 2984ETHO    C123062  15.994  16.388  20.772
 2984ETHO   H1123063  16.086  16.335  20.804
 2984ETHO   H1323064  16.005  16.411  20.664
 2984ETHO    C223065  15.972  16.516  20.843
 2984ETHO   H2123066  15.880  16.572  20.814
 2984ETHO   H2323067  16.052  16.585  20.809
 2985ETHO    O123068  15.969  16.510  20.982
 2985ETHO    C123069  16.014  16.622  21.050
 2985ETHO   H1123070  15.989  16.593  21.154
 2985ETHO   H1323071  16.123  16.624  21.031
 2985ETHO    C223072  15.942  16.752  21.020
 2985ETHO   H2123073  15.987  16.833  21.082
 2985ETHO   H2323074  15.834  16.738  21.042
 2986ETHO    O123075  15.969  16.808  20.890
 2986ETHO    C123076  15.869  16.896  20.847
 2986ETHO   H1123077  15.773  16.840  20.846
 2986ETHO   H1323078  15.896  16.928  20.745
 2986ETHO    C223079  15.860  17.026  20.933
 2986ETHO   H2123080  15.790  17.104  20.896
 2986ETHO   H2323081  15.962  17.065  20.953
 2987ETHO    O123082  15.785  16.989  21.053
 2987ETHO    C123083  15.838  17.062  21.162
 2987ETHO   H1123084  15.946  17.045  21.182
 2987ETHO   H1323085  15.800  17.164  21.141
 2987ETHO    C223086  15.766  17.032  21.294
 2987ETHO   H2123087  15.657  17.053  21.288
 2987ETHO   H2323088  15.809  17.106  21.365
 2988ETHO    O123089  15.796  16.900  21.334
 2988ETHO    C123090  15.684  16.815  21.324
 2988ETHO   H1123091  15.631  16.824  21.226
 2988ETHO   H1323092  15.621  16.846  21.409
 2988ETHO    C223093  15.722  16.668  21.333
 2988ETHO   H2123094  15.801  16.643  21.260
 2988ETHO   H2323095  15.638  16.598  21.313
 2989ETHO    O123096  15.767  16.646  21.462
 2989ETHO    C123097  15.768  16.508  21.492
 2989ETHO   H1123098  15.665  16.477  21.519
 2989ETHO   H1323099  15.806  16.448  21.407
 2989ETHO    C223100  15.848  16.484  21.620
 2989ETHO   H2123101  15.834  16.381  21.659
 2989ETHO   H2323102  15.814  16.567  21.684
 2990ETHO    O123103  15.985  16.522  21.598
 2990ETHO    C123104  16.055  16.515  21.721
 2990ETHO   H1123105  15.997  16.576  21.793
 2990ETHO   H1323106  16.151  16.571  21.713
 2990ETHO    C223107  16.085  16.375  21.789
 2990ETHO   H2123108  16.160  16.408  21.863
 2990ETHO   H2323109  16.147  16.313  21.721
 2991ETHO    O123110  15.976  16.313  21.857
 2991ETHO    C123111  16.021  16.217  21.951
 2991ETHO   H1123112  16.082  16.274  22.025
 2991ETHO   H1323113  15.929  16.188  22.005
 2991ETHO    C223114  16.087  16.090  21.897
 2991ETHO   H2123115  16.112  16.030  21.987
 2991ETHO   H2323116  16.184  16.116  21.849
 2992ETHO    O123117  15.998  16.012  21.821
 2992ETHO    C123118  16.026  16.005  21.686
 2992ETHO   H1123119  16.127  15.960  21.672
 2992ETHO   H1323120  16.044  16.109  21.653
 2992ETHO    C223121  15.925  15.920  21.600
 2992ETHO   H2123122  15.929  15.811  21.623
 2992ETHO   H2323123  15.953  15.913  21.493
 2993ETHO    O123124  15.789  15.977  21.595
 2993ETHO    C123125  15.693  15.884  21.549
 2993ETHO   H1123126  15.711  15.855  21.444
 2993ETHO   H1323127  15.701  15.797  21.619
 2993ETHO    C223128  15.549  15.946  21.550
 2993ETHO   H2123129  15.531  16.015  21.635
 2993ETHO   H2323130  15.478  15.863  21.572
 2994ETHO    O123131  15.517  16.009  21.424
 2994ETHO    C123132  15.384  16.062  21.418
 2994ETHO   H1123133  15.318  15.987  21.469
 2994ETHO   H1323134  15.383  16.161  21.468
 2994ETHO    C223135  15.332  16.086  21.275
 2994ETHO   H2123136  15.222  16.104  21.283
 2994ETHO   H2323137  15.346  16.009  21.196
 2995ETHO    O123138  15.389  16.208  21.230
 2995ETHO    C123139  15.335  16.235  21.100
 2995ETHO   H1123140  15.364  16.164  21.020
 2995ETHO   H1323141  15.224  16.239  21.100
 2995ETHO    C223142  15.367  16.378  21.050
 2995ETHO   H2123143  15.326  16.450  21.124
 2995ETHO   H2323144  15.312  16.398  20.955
 2996ETHO    O123145  15.505  16.391  21.023
 2996ETHO    C123146  15.538  16.526  21.009
 2996ETHO   H1123147  15.520  16.566  21.111
 2996ETHO   H1323148  15.648  16.520  20.995
 2996ETHO    C223149  15.479  16.600  20.893
 2996ETHO   H2123150  15.368  16.596  20.889
 2996ETHO   H2323151  15.513  16.705  20.898
 2997ETHO    O123152  15.525  16.543  20.773
 2997ETHO    C123153  15.494  16.623  20.655
 2997ETHO   H1123154  15.552  16.718  20.655
 2997ETHO   H1323155  15.387  16.651  20.666
 2997ETHO    C223156  15.505  16.558  20.514
 2997ETHO   H2123157  15.612  16.528  20.514
 2997ETHO   H2323158  15.483  16.635  20.436
 2998ETHO    O123159  15.419  16.447  20.499
 2998ETHO    C123160  15.432  16.388  20.371
 2998ETHO   H1123161  15.415  16.462  20.290
 2998ETHO   H1323162  15.538  16.355  20.368
 2998ETHO    C223163  15.321  16.284  20.350
 2998ETHO   H2123164  15.230  16.347  20.351
 2998ETHO   H2323165  15.322  16.213  20.435
 2999ETHO    O123166  15.326  16.226  20.222
 2999ETHO    C123167  15.213  16.149  20.191
 2999ETHO   H1123168  15.122  16.206  20.219
 2999ETHO   H1323169  15.228  16.054  20.246
 2999ETHO    C223170  15.203  16.123  20.040
 2999ETHO   H2123171  15.124  16.048  20.021
 2999ETHO   H2323172  15.302  16.092  20.000
 3000ETHO    O123173  15.151  16.235  19.972
 3000ETHO    C123174  15.163  16.215  19.830
 3000ETHO   H1123175  15.126  16.309  19.782
 3000ETHO   H1323176  15.266  16.196  19.796
 3000ETHO    C223177  15.071  16.108  19.775
 3000ETHO   H2123178  15.048  16.137  19.670
 3000ETHO   H2323179  14.973  16.116  19.828
 3001ETHO    O123180  15.122  15.976  19.781
 3001ETHO    C123181  15.034  15.886  19.720
 3001ETHO   H1123182  15.014  15.924  19.618
 3001ETHO   H1323183  14.948  15.866  19.787
 3001ETHO    C223184  15.103  15.748  19.690
 3001ETHO   H2123185  15.069  15.674  19.766
 3001ETHO   H2323186  15.213  15.760  19.695
 3002ETHO    O123187  15.055  15.702  19.560
 3002ETHO    C123188  15.137  15.592  19.509
 3002ETHO   H1123189  15.236  15.625  19.470
 3002ETHO   H1323190  15.170  15.527  19.593
 3002ETHO    C223191  15.060  15.517  19.407
 3002ETHO   H2123192  14.964  15.486  19.452
 3002ETHO   H2323193  15.107  15.428  19.361
 3003ETHO    O123194  15.042  15.614  19.304
 3003ETHO    C123195  14.974  15.568  19.187
 3003ETHO   H1123196  14.876  15.527  19.218
 3003ETHO   H1323197  15.035  15.494  19.131
 3003ETHO    C223198  14.959  15.688  19.089
 3003ETHO   H2123199  15.065  15.707  19.061
 3003ETHO   H2323200  14.922  15.776  19.146
 3004ETHO    O123201  14.873  15.655  18.985
 3004ETHO    C123202  14.847  15.762  18.892
 3004ETHO   H1123203  14.817  15.851  18.952
 3004ETHO   H1323204  14.939  15.789  18.837
 3004ETHO    C223205  14.752  15.731  18.780
 3004ETHO   H2123206  14.727  15.831  18.739
 3004ETHO   H2323207  14.652  15.687  18.800
 3005ETHO    O123208  14.808  15.648  18.679
 3005ETHO    C123209  14.767  15.678  18.547
 3005ETHO   H1123210  14.658  15.655  18.540
 3005ETHO   H1323211  14.783  15.787  18.533
 3005ETHO    C223212  14.829  15.606  18.433
 3005ETHO   H2123213  14.938  15.591  18.449
 3005ETHO   H2323214  14.826  15.674  18.345
 3006ETHO    O123215  14.774  15.475  18.405
 3006ETHO    C123216  14.804  15.434  18.280
 3006ETHO   H1123217  14.911  15.451  18.258
 3006ETHO   H1323218  14.772  15.327  18.279
 3006ETHO    C223219  14.714  15.503  18.181
 3006ETHO   H2123220  14.741  15.605  18.148
 3006ETHO   H2323221  14.611  15.513  18.224
 3007ETHO    O123222  14.703  15.428  18.063
 3007ETHO    C123223  14.825  15.434  17.980
 3007ETHO   H1123224  14.839  15.535  17.935
 3007ETHO   H1323225  14.921  15.403  18.026
 3007ETHO    C223226  14.791  15.349  17.857
 3007ETHO   H2123227  14.691  15.389  17.830
 3007ETHO   H2323228  14.782  15.242  17.883
 3008ETHO    O123229  14.874  15.384  17.746
 3008ETHO    C123230  14.850  15.291  17.635
 3008ETHO   H1123231  14.742  15.282  17.612
 3008ETHO   H1323232  14.897  15.191  17.642
 3008ETHO    C223233  14.910  15.362  17.506
 3008ETHO   H2123234  15.018  15.388  17.512
 3008ETHO   H2323235  14.865  15.464  17.508
 3009ETHO    O123236  14.867  15.296  17.388
 3009ETHO    C123237  14.896  15.355  17.265
 3009ETHO   H1123238  14.927  15.461  17.281
 3009ETHO   H1323239  14.983  15.293  17.233
 3009ETHO    C223240  14.790  15.348  17.158
 3009ETHO   H2123241  14.719  15.433  17.166
 3009ETHO   H2323242  14.741  15.250  17.177
 3010ETHO    O123243  14.847  15.354  17.024
 3010ETHO    C123244  14.740  15.349  16.931
 3010ETHO   H1123245  14.677  15.438  16.954
 3010ETHO   H1323246  14.687  15.252  16.934
 3010ETHO    C223247  14.808  15.355  16.795
 3010ETHO   H2123248  14.887  15.277  16.805
 3010ETHO   H2323249  14.849  15.457  16.781
 3011ETHO    O123250  14.717  15.318  16.693
 3011ETHO    C123251  14.791  15.292  16.576
 3011ETHO   H1123252  14.868  15.372  16.570
 3011ETHO   H1323253  14.858  15.203  16.588
 3011ETHO    C223254  14.704  15.271  16.456
 3011ETHO   H2123255  14.770  15.266  16.366
 3011ETHO   H2323256  14.641  15.361  16.443
 3012ETHO    O123257  14.614  15.156  16.456
 3012ETHO    C123258  14.514  15.151  16.338
 3012ETHO   H1123259  14.570  15.120  16.247
 3012ETHO   H1323260  14.488  15.258  16.330
 3012ETHO    C223261  14.386  15.072  16.370
 3012ETHO   H2123262  14.306  15.104  16.300
 3012ETHO   H2323263  14.353  15.096  16.473
 3013ETHO    O123264  14.403  14.933  16.343
 3013ETHO    C123265  14.373  14.894  16.206
 3013ETHO   H1123266  14.269  14.923  16.179
 3013ETHO   H1323267  14.454  14.944  16.148
 3013ETHO    C223268  14.373  14.743  16.185
 3013ETHO   H2123269  14.472  14.703  16.217
 3013ETHO   H2323270  14.358  14.722  16.077
 3014ETHO    O123271  14.278  14.672  16.262
 3014ETHO    C123272  14.271  14.527  16.236
 3014ETHO   H1123273  14.376  14.491  16.237
 3014ETHO   H1323274  14.234  14.509  16.133
 3014ETHO    C223275  14.183  14.454  16.336
 3014ETHO   H2123276  14.226  14.466  16.438
 3014ETHO   H2323277  14.190  14.350  16.297
 3015ETHO    O123278  14.044  14.498  16.335
 3015ETHO    C123279  13.960  14.429  16.426
 3015ETHO   H1123280  13.978  14.321  16.405
 3015ETHO   H1323281  13.976  14.456  16.532
 3015ETHO    C223282  13.810  14.452  16.394
 3015ETHO   H2123283  13.794  14.562  16.388
 3015ETHO   H2323284  13.744  14.403  16.469
 3016PROX    O123285  13.779  14.399  16.265
 3016PROX    C123286  13.749  14.262  16.269
 3016PROX   H1123287  13.799  14.208  16.352
 3016PROX   H1323288  13.641  14.239  16.278
 3016PROX    C223289  13.794  14.199  16.136
 3016PROX   H2123290  13.741  14.254  16.055
 3016PROX    C323291  13.729  14.065  16.126
 3016PROX   H3123292  13.765  14.014  16.218
 3016PROX   H3223293  13.621  14.077  16.101
 3016PROX   H3323294  13.767  13.997  16.047
 3017PROX    O123295  13.935  14.178  16.133
 3017PROX    C123296  13.996  14.280  16.057
 3017PROX   H1123297  13.920  14.360  16.042
 3017PROX   H1323298  14.072  14.329  16.121
 3017PROX    C223299  14.066  14.238  15.924
 3017PROX   H2123300  13.986  14.186  15.867
 3017PROX    C323301  14.182  14.137  15.950
 3017PROX   H3123302  14.139  14.054  16.011
 3017PROX   H3223303  14.226  14.092  15.858
 3017PROX   H3323304  14.266  14.181  16.008
 3018PROX    O123305  14.123  14.345  15.844
 3018PROX    C123306  14.027  14.425  15.782
 3018PROX   H1123307  13.927  14.411  15.829
 3018PROX   H1323308  14.067  14.528  15.796
 3018PROX    C223309  14.019  14.398  15.627
 3018PROX   H2123310  13.988  14.292  15.615
 3018PROX    C323311  14.158  14.406  15.555
 3018PROX   H3123312  14.216  14.323  15.601
 3018PROX   H3223313  14.150  14.380  15.447
 3018PROX   H3323314  14.214  14.499  15.576
 3019PROX    O123315  13.917  14.479  15.569
 3019PROX    C123316  13.873  14.439  15.438
 3019PROX   H1123317  13.947  14.478  15.365
 3019PROX   H1323318  13.875  14.328  15.426
 3019PROX    C223319  13.735  14.497  15.399
 3019PROX   H2123320  13.745  14.607  15.386
 3019PROX    C323321  13.622  14.473  15.495
 3019PROX   H3123322  13.526  14.498  15.446
 3019PROX   H3223323  13.610  14.365  15.522
 3019PROX   H3323324  13.623  14.533  15.588
 3020PROX    O123325  13.697  14.442  15.271
 3020PROX    C123326  13.732  14.522  15.163
 3020PROX   H1123327  13.660  14.606  15.152
 3020PROX   H1323328  13.833  14.569  15.169
 3020PROX    C223329  13.721  14.440  15.034
 3020PROX   H2123330  13.613  14.418  15.021
 3020PROX    C323331  13.799  14.305  15.037
 3020PROX   H3123332  13.773  14.257  14.940
 3020PROX   H3223333  13.907  14.332  15.033
 3020PROX   H3323334  13.777  14.239  15.123
 3021PROX    O123335  13.759  14.529  14.933
 3021PROX    C123336  13.728  14.484  14.802
 3021PROX   H1123337  13.802  14.544  14.746
 3021PROX   H1323338  13.756  14.379  14.778
 3021PROX    C223339  13.580  14.510  14.761
 3021PROX   H2123340  13.514  14.437  14.813
 3021PROX    C323341  13.546  14.499  14.618
 3021PROX   H3123342  13.613  14.570  14.565
 3021PROX   H3223343  13.574  14.405  14.566
 3021PROX   H3323344  13.439  14.529  14.609
 3022PROX    O123345  13.539  14.645  14.787
 3022PROX    C123346  13.473  14.664  14.918
 3022PROX   H1123347  13.403  14.583  14.947
 3022PROX   H1323348  13.556  14.680  14.990
 3022PROX    C223349  13.403  14.795  14.934
 3022PROX   H2123350  13.320  14.790  14.860
 3022PROX    C323351  13.491  14.914  14.900
 3022PROX   H3123352  13.587  14.896  14.953
 3022PROX   H3223353  13.503  14.920  14.789
 3022PROX   H3323354  13.445  15.004  14.946
 3023PROX    O123355  13.375  14.810  15.073
 3023PROX    C123356  13.273  14.896  15.101
 3023PROX   H1123357  13.299  15.004  15.107
 3023PROX   H1323358  13.191  14.891  15.026
 3023PROX    C223359  13.205  14.863  15.235
 3023PROX   H2123360  13.107  14.916  15.236
 3023PROX    C323361  13.288  14.897  15.359
 3023PROX   H3123362  13.323  15.002  15.355
 3023PROX   H3223363  13.231  14.890  15.454
 3023PROX   H3323364  13.376  14.830  15.366
 3024PROX    O123365  13.176  14.723  15.258
 3024PROX    C123366  13.076  14.656  15.183
 3024PROX   H1123367  12.987  14.722  15.191
 3024PROX   H1323368  13.112  14.647  15.078
 3024PROX    C223369  13.043  14.521  15.240
 3024PROX   H2123370  12.980  14.465  15.167
 3024PROX    C323371  12.965  14.524  15.373
 3024PROX   H3123372  12.927  14.422  15.395
 3024PROX   H3223373  13.026  14.560  15.459
 3024PROX   H3323374  12.878  14.593  15.363
 3025PROX    O123375  13.155  14.434  15.253
 3025PROX    C123376  13.196  14.392  15.121
 3025PROX   H1123377  13.119  14.359  15.049
 3025PROX   H1323378  13.255  14.473  15.074
 3025PROX    C223379  13.302  14.274  15.138
 3025PROX   H2123380  13.246  14.194  15.192
 3025PROX    C323381  13.408  14.312  15.235
 3025PROX   H3123382  13.444  14.407  15.191
 3025PROX   H3223383  13.377  14.331  15.340
 3025PROX   H3323384  13.501  14.252  15.234
 3026PROX    O123385  13.346  14.226  15.011
 3026PROX    C123386  13.246  14.149  14.946
 3026PROX   H1123387  13.280  14.043  14.944
 3026PROX   H1323388  13.150  14.160  15.002
 3026PROX    C223389  13.230  14.179  14.791
 3026PROX   H2123390  13.254  14.286  14.774
 3026PROX    C323391  13.098  14.136  14.727
 3026PROX   H3123392  13.089  14.189  14.629
 3026PROX   H3223393  13.091  14.026  14.714
 3026PROX   H3323394  13.013  14.175  14.786
 3027PROX    O123395  13.336  14.106  14.717
 3027PROX    C123396  13.461  14.170  14.725
 3027PROX   H1123397  13.475  14.229  14.633
 3027PROX   H1323398  13.467  14.234  14.816
 3027PROX    C223399  13.564  14.059  14.744
 3027PROX   H2123400  13.535  13.966  14.691
 3027PROX    C323401  13.594  14.041  14.893
 3027PROX   H3123402  13.613  14.138  14.946
 3027PROX   H3223403  13.508  13.999  14.949
 3027PROX   H3323404  13.678  13.975  14.925
 3028PROX    O123405  13.692  14.103  14.702
 3028PROX    C123406  13.711  14.068  14.564
 3028PROX   H1123407  13.674  13.965  14.546
 3028PROX   H1323408  13.652  14.138  14.501
 3028PROX    C223409  13.858  14.086  14.536
 3028PROX   H2123410  13.917  14.028  14.610
 3028PROX    C323411  13.896  14.234  14.552
 3028PROX   H3123412  14.004  14.255  14.539
 3028PROX   H3223413  13.842  14.294  14.475
 3028PROX   H3323414  13.866  14.266  14.654
 3029PROX    O123415  13.890  14.047  14.405
 3029PROX    C123416  13.881  13.906  14.374
 3029PROX   H1123417  13.791  13.852  14.413
 3029PROX   H1323418  13.885  13.918  14.264
 3029PROX    C223419  14.007  13.826  14.413
 3029PROX   H2123420  14.017  13.807  14.522
 3029PROX    C323421  14.133  13.902  14.372
 3029PROX   H3123422  14.128  13.920  14.263
 3029PROX   H3223423  14.149  13.996  14.430
 3029PROX   H3323424  14.218  13.832  14.383
 3030PROX    O123425  14.008  13.712  14.338
 3030PROX    C123426  14.072  13.604  14.411
 3030PROX   H1123427  14.135  13.646  14.492
 3030PROX   H1323428  13.989  13.547  14.459
 3030PROX    C223429  14.165  13.507  14.330
 3030PROX   H2123430  14.204  13.565  14.244
 3030PROX    C323431  14.109  13.376  14.274
 3030PROX   H3123432  14.037  13.420  14.202
 3030PROX   H3223433  14.192  13.323  14.221
 3030PROX   H3323434  14.068  13.315  14.357
 3031PROX    O123435  14.271  13.466  14.416
 3031PROX    C123436  14.217  13.384  14.526
 3031PROX   H1123437  14.117  13.410  14.568
 3031PROX   H1323438  14.215  13.276  14.502
 3031PROX    C223439  14.318  13.389  14.635
 3031PROX   H2123440  14.422  13.387  14.596
 3031PROX    C323441  14.301  13.269  14.734
 3031PROX   H3123442  14.362  13.288  14.824
 3031PROX   H3223443  14.194  13.261  14.764
 3031PROX   H3323444  14.328  13.169  14.693
 3032PROX    O123445  14.286  13.509  14.703
 3032PROX    C123446  14.387  13.557  14.783
 3032PROX   H1123447  14.407  13.497  14.875
 3032PROX   H1323448  14.488  13.559  14.737
 3032PROX    C223449  14.348  13.702  14.824
 3032PROX   H2123450  14.251  13.699  14.877
 3032PROX    C323451  14.343  13.798  14.709
 3032PROX   H3123452  14.308  13.901  14.728
 3032PROX   H3223453  14.450  13.792  14.679
 3032PROX   H3323454  14.295  13.751  14.620
 3033PROX    O123455  14.452  13.741  14.915
 3033PROX    C123456  14.417  13.861  14.991
 3033PROX   H1123457  14.339  13.928  14.951
 3033PROX   H1323458  14.381  13.834  15.093
 3033PROX    C223459  14.552  13.937  15.017
 3033PROX   H2123460  14.583  13.961  14.913
 3033PROX    C323461  14.652  13.858  15.102
 3033PROX   H3123462  14.698  13.771  15.051
 3033PROX   H3223463  14.743  13.917  15.130
 3033PROX   H3323464  14.594  13.829  15.192
 3034PROX    O123465  14.515  14.060  15.073
 3034PROX    C123466  14.459  14.055  15.204
 3034PROX   H1123467  14.358  14.009  15.195
 3034PROX   H1323468  14.519  13.997  15.277
 3034PROX    C223469  14.436  14.191  15.272
 3034PROX   H2123470  14.526  14.254  15.255
 3034PROX    C323471  14.423  14.175  15.423
 3034PROX   H3123472  14.323  14.130  15.440
 3034PROX   H3223473  14.516  14.126  15.460
 3034PROX   H3323474  14.417  14.273  15.475
 3035PROX    O123475  14.312  14.256  15.236
 3035PROX    C123476  14.296  14.298  15.099
 3035PROX   H1123477  14.336  14.225  15.026
 3035PROX   H1323478  14.187  14.287  15.080
 3035PROX    C223479  14.346  14.439  15.073
 3035PROX   H2123480  14.456  14.453  15.072
 3035PROX    C323481  14.290  14.537  15.178
 3035PROX   H3123482  14.342  14.523  15.275
 3035PROX   H3223483  14.299  14.644  15.151
 3035PROX   H3323484  14.183  14.513  15.195
 3036PROX    O123485  14.291  14.487  14.951
 3036PROX    C123486  14.337  14.427  14.835
 3036PROX   H1123487  14.448  14.432  14.835
 3036PROX   H1323488  14.302  14.322  14.839
 3036PROX    C223489  14.259  14.490  14.712
 3036PROX   H2123490  14.284  14.598  14.716
 3036PROX    C323491  14.106  14.460  14.717
 3036PROX   H3123492  14.097  14.350  14.717
 3036PROX   H3223493  14.056  14.493  14.811
 3036PROX   H3323494  14.058  14.504  14.627
 3037PROX    O123495  14.316  14.433  14.593
 3037PROX    C123496  14.324  14.533  14.486
 3037PROX   H1123497  14.228  14.590  14.486
 3037PROX   H1323498  14.401  14.607  14.516
 3037PROX    C223499  14.354  14.478  14.346
 3037PROX   H2123500  14.442  14.411  14.360
 3037PROX    C323501  14.405  14.596  14.255
 3037PROX   H3123502  14.313  14.657  14.238
 3037PROX   H3223503  14.483  14.652  14.311
 3037PROX   H3323504  14.438  14.553  14.158
 3038PROX    O123505  14.245  14.404  14.292
 3038PROX    C123506  14.291  14.313  14.185
 3038PROX   H1123507  14.314  14.370  14.092
 3038PROX   H1323508  14.382  14.260  14.221
 3038PROX    C223509  14.194  14.197  14.160
 3038PROX   H2123510  14.160  14.152  14.256
 3038PROX    C323511  14.254  14.075  14.089
 3038PROX   H3123512  14.315  14.119  14.006
 3038PROX   H3223513  14.344  14.032  14.138
 3038PROX   H3323514  14.175  14.006  14.054
 3039PROX    O123515  14.082  14.241  14.079
 3039PROX    C123516  13.986  14.305  14.159
 3039PROX   H1123517  13.965  14.238  14.246
 3039PROX   H1323518  14.021  14.398  14.209
 3039PROX    C223519  13.855  14.336  14.081
 3039PROX   H2123520  13.817  14.255  14.016
 3039PROX    C323521  13.858  14.447  13.969
 3039PROX   H3123522  13.764  14.430  13.912
 3039PROX   H3223523  13.861  14.549  14.012
 3039PROX   H3323524  13.942  14.432  13.899
 3040PROX    O123525  13.759  14.385  14.171
 3040PROX    C123526  13.698  14.282  14.240
 3040PROX   H1123527  13.766  14.195  14.252
 3040PROX   H1323528  13.688  14.317  14.345
 3040PROX    C223529  13.564  14.247  14.173
 3040PROX   H2123530  13.583  14.204  14.072
 3040PROX    C323531  13.474  14.365  14.153
 3040PROX   H3123532  13.530  14.438  14.091
 3040PROX   H3223533  13.387  14.334  14.091
 3040PROX   H3323534  13.451  14.420  14.247
 3041PROX    O123535  13.493  14.151  14.241
 3041PROX    C123536  13.554  14.022  14.242
 3041PROX   H1123537  13.589  14.003  14.138
 3041PROX   H1323538  13.646  14.028  14.304
 3041PROX    C223539  13.462  13.897  14.286
 3041PROX   H2123540  13.389  13.890  14.204
 3041PROX    C323541  13.386  13.920  14.420
 3041PROX   H3123542  13.357  13.823  14.466
 3041PROX   H3223543  13.445  13.971  14.499
 3041PROX   H3323544  13.291  13.974  14.402
 3042PROX    O123545  13.541  13.780  14.281
 3042PROX    C123546  13.560  13.736  14.155
 3042PROX   H1123547  13.462  13.707  14.110
 3042PROX   H1323548  13.603  13.816  14.091
 3042PROX    C223549  13.657  13.615  14.153
 3042PROX   H2123550  13.748  13.661  14.197
 3042PROX    C323551  13.703  13.565  14.010
 3042PROX   H3123552  13.807  13.524  14.013
 3042PROX   H3223553  13.636  13.492  13.960
 3042PROX   H3323554  13.721  13.659  13.953
 3043PROX    O123555  13.600  13.503  14.226
 3043PROX    C123556  13.706  13.439  14.298
 3043PROX   H1123557  13.764  13.371  14.233
 3043PROX   H1323558  13.774  13.511  14.349
 3043PROX    C223559  13.643  13.354  14.419
 3043PROX   H2123560  13.544  13.395  14.449
 3043PROX    C323561  13.739  13.359  14.541
 3043PROX   H3123562  13.761  13.462  14.576
 3043PROX   H3223563  13.685  13.301  14.620
 3043PROX   H3323564  13.840  13.316  14.525
 3044PROX    O123565  13.641  13.215  14.385
 3044PROX    C123566  13.540  13.180  14.298
 3044PROX   H1123567  13.451  13.235  14.334
 3044PROX   H1323568  13.571  13.212  14.196
 3044PROX    C223569  13.533  13.028  14.295
 3044PROX   H2123570  13.633  12.981  14.282
 3044PROX    C323571  13.446  12.991  14.184
 3044PROX   H3123572  13.424  12.883  14.194
 3044PROX   H3223573  13.341  13.030  14.179
 3044PROX   H3323574  13.479  13.019  14.082
 3045PROX    O123575  13.462  12.978  14.408
 3045PROX    C123576  13.532  12.993  14.527
 3045PROX   H1123577  13.533  12.896  14.582
 3045PROX   H1323578  13.637  13.028  14.523
 3045PROX    C223579  13.450  13.093  14.617
 3045PROX   H2123580  13.439  13.192  14.567
 3045PROX    C323581  13.520  13.099  14.751
 3045PROX   H3123582  13.621  13.141  14.728
 3045PROX   H3223583  13.477  13.168  14.826
 3045PROX   H3323584  13.533  12.996  14.791
 3046PROX    O123585  13.320  13.042  14.640
 3046PROX    C123586  13.237  13.152  14.677
 3046PROX   H1123587  13.177  13.120  14.765
 3046PROX   H1323588  13.286  13.251  14.680
 3046PROX    C223589  13.127  13.177  14.565
 3046PROX   H2123590  13.082  13.076  14.550
 3046PROX    C323591  13.172  13.228  14.426
 3046PROX   H3123592  13.245  13.159  14.380
 3046PROX   H3223593  13.078  13.236  14.368
 3046PROX   H3323594  13.216  13.329  14.437
 3047PROX    O123595  13.034  13.274  14.616
 3047PROX    C123596  12.905  13.229  14.642
 3047PROX   H1123597  12.843  13.322  14.636
 3047PROX   H1323598  12.875  13.155  14.566
 3047PROX    C223599  12.879  13.162  14.776
 3047PROX   H2123600  12.968  13.098  14.794
 3047PROX    C323601  12.742  13.083  14.784
 3047PROX   H3123602  12.750  13.007  14.703
 3047PROX   H3223603  12.735  13.028  14.880
 3047PROX   H3323604  12.648  13.136  14.757
 3048PROX    O123605  12.877  13.262  14.876
 3048PROX    C123606  12.907  13.220  15.008
 3048PROX   H1123607  12.837  13.280  15.069
 3048PROX   H1323608  12.871  13.116  15.020
 3048PROX    C223609  13.062  13.237  15.038
 3048PROX   H2123610  13.089  13.267  15.141
 3048PROX    C323611  13.120  13.346  14.947
 3048PROX   H3123612  13.225  13.366  14.978
 3048PROX   H3223613  13.123  13.308  14.842
 3048PROX   H3323614  13.064  13.441  14.962
 3049PROX    O123615  13.126  13.111  15.013
 3049PROX    C123616  13.258  13.107  15.072
 3049PROX   H1123617  13.320  13.188  15.028
 3049PROX   H1323618  13.254  13.137  15.178
 3049PROX    C223619  13.336  12.972  15.068
 3049PROX   H2123620  13.377  12.947  14.967
 3049PROX    C323621  13.230  12.864  15.107
 3049PROX   H3123622  13.272  12.786  15.174
 3049PROX   H3223623  13.143  12.906  15.161
 3049PROX   H3323624  13.201  12.808  15.016
 3050PROX    O123625  13.435  12.985  15.170
 3050PROX    C123626  13.534  12.881  15.157
 3050PROX   H1123627  13.558  12.842  15.258
 3050PROX   H1323628  13.493  12.796  15.098
 3050PROX    C223629  13.660  12.918  15.075
 3050PROX   H2123630  13.616  12.937  14.975
 3050PROX    C323631  13.750  12.798  15.067
 3050PROX   H3123632  13.857  12.823  15.049
 3050PROX   H3223633  13.730  12.737  15.157
 3050PROX   H3323634  13.714  12.741  14.979
 3051PROX    O123635  13.745  13.026  15.127
 3051PROX    C123636  13.755  13.024  15.276
 3051PROX   H1123637  13.668  13.083  15.310
 3051PROX   H1323638  13.751  12.920  15.316
 3051PROX    C223639  13.883  13.085  15.339
 3051PROX   H2123640  13.887  13.192  15.309
 3051PROX    C323641  14.016  13.012  15.295
 3051PROX   H3123642  14.035  13.021  15.186
 3051PROX   H3223643  14.106  13.061  15.338
 3051PROX   H3323644  14.015  12.902  15.314
 3052PROX    O123645  13.887  13.070  15.480
 3052PROX    C123646  13.792  13.150  15.541
 3052PROX   H1123647  13.725  13.203  15.470
 3052PROX   H1323648  13.726  13.089  15.606
 3052PROX    C223649  13.857  13.256  15.634
 3052PROX   H2123650  13.927  13.202  15.702
 3052PROX    C323651  13.768  13.335  15.725
 3052PROX   H3123652  13.819  13.408  15.792
 3052PROX   H3223653  13.705  13.391  15.654
 3052PROX   H3323654  13.705  13.264  15.783
 3053PROX    O123655  13.931  13.347  15.547
 3053PROX    C123656  14.029  13.418  15.623
 3053PROX   H1123657  13.993  13.522  15.639
 3053PROX   H1323658  14.053  13.375  15.722
 3053PROX    C223659  14.161  13.433  15.534
 3053PROX   H2123660  14.139  13.477  15.434
 3053PROX    C323661  14.222  13.290  15.520
 3053PROX   H3123662  14.138  13.224  15.489
 3053PROX   H3223663  14.295  13.283  15.436
 3053PROX   H3323664  14.261  13.251  15.617
 3054PROX    O123665  14.253  13.519  15.602
 3054PROX    C123666  14.232  13.653  15.578
 3054PROX   H1123667  14.125  13.678  15.588
 3054PROX   H1323668  14.267  13.718  15.661
 3054PROX    C223669  14.282  13.692  15.442
 3054PROX   H2123670  14.256  13.621  15.360
 3054PROX    C323671  14.440  13.700  15.437
 3054PROX   H3123672  14.482  13.600  15.458
 3054PROX   H3223673  14.475  13.726  15.335
 3054PROX   H3323674  14.480  13.780  15.503
 3055PROX    O123675  14.218  13.816  15.407
 3055PROX    C123676  14.096  13.796  15.331
 3055PROX   H1123677  14.125  13.726  15.249
 3055PROX   H1323678  14.025  13.741  15.396
 3055PROX    C223679  14.052  13.928  15.265
 3055PROX   H2123680  14.142  13.981  15.229
 3055PROX    C323681  13.984  14.027  15.351
 3055PROX   H3123682  13.923  14.094  15.286
 3055PROX   H3223683  13.902  13.985  15.414
 3055PROX   H3323684  14.050  14.081  15.422
 3056PROX    O123685  13.984  13.898  15.147
 3056PROX    C123686  13.985  13.998  15.050
 3056PROX   H1123687  13.881  14.034  15.033
 3056PROX   H1323688  14.042  14.090  15.076
 3056PROX    C223689  14.049  13.973  14.906
 3056PROX   H2123690  14.145  13.918  14.906
 3056PROX    C323691  14.084  14.104  14.831
 3056PROX   H3123692  14.142  14.178  14.890
 3056PROX   H3223693  14.133  14.089  14.732
 3056PROX   H3323694  13.997  14.167  14.802
 3057PROX    O123695  13.952  13.912  14.829
 3057PROX    C123696  13.918  13.782  14.873
 3057PROX   H1123697  13.998  13.739  14.938
 3057PROX   H1323698  13.823  13.790  14.930
 3057PROX    C223699  13.905  13.683  14.757
 3057PROX   H2123700  14.006  13.691  14.711
 3057PROX    C323701  13.787  13.720  14.673
 3057PROX   H3123702  13.800  13.665  14.577
 3057PROX   H3223703  13.688  13.704  14.720
 3057PROX   H3323704  13.799  13.824  14.637
 3058PROX    O123705  13.891  13.544  14.805
 3058PROX    C123706  14.006  13.481  14.872
 3058PROX   H1123707  14.046  13.403  14.804
 3058PROX   H1323708  14.089  13.556  14.870
 3058PROX    C223709  13.988  13.432  15.018
 3058PROX   H2123710  13.928  13.515  15.063
 3058PROX    C323711  14.116  13.418  15.096
 3058PROX   H3123712  14.148  13.524  15.106
 3058PROX   H3223713  14.099  13.384  15.200
 3058PROX   H3323714  14.203  13.372  15.044
 3059PROX    O123715  13.919  13.310  15.025
 3059PROX    C123716  13.771  13.320  15.007
 3059PROX   H1123717  13.750  13.382  14.918
 3059PROX   H1323718  13.741  13.215  14.985
 3059PROX    C223719  13.690  13.358  15.131
 3059PROX   H2123720  13.734  13.291  15.207
 3059PROX    C323721  13.538  13.353  15.125
 3059PROX   H3123722  13.477  13.390  15.210
 3059PROX   H3223723  13.519  13.403  15.028
 3059PROX   H3323724  13.508  13.246  15.118
 3060PROX    O123725  13.721  13.494  15.159
 3060PROX    C123726  13.760  13.510  15.297
 3060PROX   H1123727  13.829  13.434  15.340
 3060PROX   H1323728  13.815  13.606  15.301
 3060PROX    C223729  13.635  13.526  15.386
 3060PROX   H2123730  13.554  13.568  15.324
 3060PROX    C323731  13.671  13.628  15.492
 3060PROX   H3123732  13.588  13.656  15.560
 3060PROX   H3223733  13.751  13.577  15.549
 3060PROX   H3323734  13.701  13.725  15.447
 3061PROX    O123735  13.588  13.407  15.445
 3061PROX    C123736  13.451  13.411  15.490
 3061PROX   H1123737  13.433  13.512  15.532
 3061PROX   H1323738  13.371  13.407  15.412
 3061PROX    C223739  13.422  13.308  15.599
 3061PROX   H2123740  13.516  13.298  15.658
 3061PROX    C323741  13.368  13.170  15.559
 3061PROX   H3123742  13.374  13.097  15.642
 3061PROX   H3223743  13.266  13.185  15.518
 3061PROX   H3323744  13.432  13.134  15.475
 3062PROX    O123745  13.322  13.365  15.680
 3062PROX    C123746  13.321  13.325  15.813
 3062PROX   H1123747  13.280  13.223  15.829
 3062PROX   H1323748  13.424  13.325  15.854
 3062PROX    C223749  13.237  13.416  15.904
 3062PROX   H2123750  13.235  13.511  15.847
 3062PROX    C323751  13.293  13.451  16.041
 3062PROX   H3123752  13.271  13.372  16.115
 3062PROX   H3223753  13.400  13.481  16.033
 3062PROX   H3323754  13.250  13.545  16.083
 3063PROX    O123755  13.103  13.363  15.917
 3063PROX    C123756  13.024  13.397  15.803
 3063PROX   H1123757  13.001  13.505  15.794
 3063PROX   H1323758  13.069  13.355  15.710
 3063PROX    C223759  12.883  13.335  15.821
 3063PROX   H2123760  12.840  13.383  15.911
 3063PROX    C323761  12.890  13.185  15.845
 3063PROX   H3123762  12.969  13.141  15.780
 3063PROX   H3223763  12.897  13.154  15.952
 3063PROX   H3323764  12.794  13.137  15.819
 3064PROX    O123765  12.807  13.377  15.710
 3064PROX    C123766  12.670  13.367  15.729
 3064PROX   H1123767  12.620  13.360  15.630
 3064PROX   H1323768  12.639  13.275  15.783
 3064PROX    C223769  12.605  13.487  15.798
 3064PROX   H2123770  12.633  13.478  15.905
 3064PROX    C323771  12.451  13.486  15.800
 3064PROX   H3123772  12.406  13.525  15.706
 3064PROX   H3223773  12.415  13.386  15.834
 3064PROX   H3323774  12.421  13.567  15.869
 3065PROX    O123775  12.645  13.610  15.745
 3065PROX    C123776  12.745  13.679  15.828
 3065PROX   H1123777  12.705  13.677  15.932
 3065PROX   H1323778  12.837  13.618  15.827
 3065PROX    C223779  12.778  13.814  15.764
 3065PROX   H2123780  12.809  13.790  15.660
 3065PROX    C323781  12.881  13.900  15.832
 3065PROX   H3123782  12.917  13.980  15.765
 3065PROX   H3223783  12.842  13.956  15.920
 3065PROX   H3323784  12.969  13.842  15.865
 3066PROX    O123785  12.662  13.901  15.766
 3066PROX    C123786  12.620  13.942  15.630
 3066PROX   H1123787  12.635  13.865  15.551
 3066PROX   H1323788  12.511  13.960  15.623
 3066PROX    C223789  12.685  14.075  15.586
 3066PROX   H2123790  12.677  14.151  15.666
 3066PROX    C323791  12.617  14.129  15.461
 3066PROX   H3123792  12.509  14.149  15.477
 3066PROX   H3223793  12.651  14.223  15.412
 3066PROX   H3323794  12.622  14.046  15.387
 3067PROX    O123795  12.824  14.049  15.545
 3067PROX    C123796  12.908  14.164  15.540
 3067PROX   H1123797  12.879  14.221  15.450
 3067PROX   H1323798  12.885  14.233  15.624
 3067PROX    C223799  13.058  14.119  15.544
 3067PROX   H2123800  13.085  14.081  15.644
 3067PROX    C323801  13.150  14.240  15.530
 3067PROX   H3123802  13.124  14.305  15.444
 3067PROX   H3223803  13.147  14.316  15.611
 3067PROX   H3323804  13.257  14.212  15.520
 3068PROX    O123805  13.088  14.035  15.431
 3068PROX    C123806  13.195  13.947  15.458
 3068PROX   H1123807  13.241  13.918  15.361
 3068PROX   H1323808  13.271  14.002  15.518
 3068PROX    C223809  13.152  13.827  15.541
 3068PROX   H2123810  13.058  13.839  15.598
 3068PROX    C323811  13.262  13.776  15.634
 3068PROX   H3123812  13.225  13.688  15.691
 3068PROX   H3223813  13.350  13.726  15.588
 3068PROX   H3323814  13.300  13.856  15.702
 3069PROX    O123815  13.127  13.715  15.447
 3069PROX    C123816  13.057  13.603  15.507
 3069PROX   H1123817  13.130  13.521  15.521
 3069PROX   H1323818  13.005  13.639  15.598
 3069PROX    C223819  12.941  13.548  15.414
 3069PROX   H2123820  12.895  13.464  15.471
 3069PROX    C323821  12.983  13.495  15.278
 3069PROX   H3123822  13.093  13.478  15.273
 3069PROX   H3223823  12.934  13.396  15.272
 3069PROX   H3323824  12.957  13.566  15.196
 3070PROX    O123825  12.834  13.639  15.389
 3070PROX    C123826  12.854  13.760  15.314
 3070PROX   H1123827  12.878  13.843  15.384
 3070PROX   H1323828  12.941  13.756  15.245
 3070PROX    C223829  12.730  13.807  15.236
 3070PROX   H2123830  12.644  13.815  15.307
 3070PROX    C323831  12.695  13.708  15.121
 3070PROX   H3123832  12.779  13.651  15.075
 3070PROX   H3223833  12.635  13.625  15.163
 3070PROX   H3323834  12.633  13.769  15.051
 3071PROX    O123835  12.746  13.937  15.188
 3071PROX    C123836  12.871  13.966  15.126
 3071PROX   H1123837  12.932  14.003  15.212
 3071PROX   H1323838  12.916  13.880  15.074
 3071PROX    C223839  12.861  14.084  15.026
 3071PROX   H2123840  12.963  14.081  14.982
 3071PROX    C323841  12.828  14.212  15.098
 3071PROX   H3123842  12.915  14.265  15.142
 3071PROX   H3223843  12.781  14.282  15.025
 3071PROX   H3323844  12.762  14.186  15.183
 3072PROX    O123845  12.753  14.071  14.940
 3072PROX    C123846  12.779  13.972  14.844
 3072PROX   H1123847  12.873  14.003  14.795
 3072PROX   H1323848  12.786  13.878  14.903
 3072PROX    C223849  12.657  13.960  14.751
 3072PROX   H2123850  12.629  14.063  14.720
 3072PROX    C323851  12.536  13.895  14.825
 3072PROX   H3123852  12.497  13.964  14.903
 3072PROX   H3223853  12.453  13.870  14.756
 3072PROX   H3323854  12.573  13.802  14.874
 3073PROX    O123855  12.683  13.873  14.645
 3073PROX    C123856  12.746  13.929  14.539
 3073PROX   H1123857  12.682  14.006  14.492
 3073PROX   H1323858  12.837  13.985  14.571
 3073PROX    C223859  12.785  13.826  14.431
 3073PROX   H2123860  12.846  13.876  14.353
 3073PROX    C323861  12.652  13.769  14.373
 3073PROX   H3123862  12.681  13.691  14.299
 3073PROX   H3223863  12.600  13.724  14.460
 3073PROX   H3323864  12.597  13.853  14.325
 3074PROX    O123865  12.866  13.726  14.497
 3074PROX    C123866  12.996  13.763  14.527
 3074PROX   H1123867  13.057  13.768  14.434
 3074PROX   H1323868  12.993  13.870  14.556
 3074PROX    C223869  13.057  13.661  14.628
 3074PROX   H2123870  13.045  13.566  14.573
 3074PROX    C323871  12.984  13.664  14.761
 3074PROX   H3123872  12.982  13.768  14.800
 3074PROX   H3223873  12.881  13.631  14.734
 3074PROX   H3323874  13.032  13.595  14.834
 3075PROX    O123875  13.197  13.693  14.648
 3075PROX    C123876  13.272  13.575  14.675
 3075PROX   H1123877  13.202  13.501  14.718
 3075PROX   H1323878  13.304  13.535  14.577
 3075PROX    C223879  13.390  13.606  14.766
 3075PROX   H2123880  13.444  13.698  14.736
 3075PROX    C323881  13.481  13.485  14.777
 3075PROX   H3123882  13.568  13.504  14.844
 3075PROX   H3223883  13.427  13.397  14.817
 3075PROX   H3323884  13.527  13.462  14.678
 3076PROX    O123885  13.333  13.636  14.894
 3076PROX    C123886  13.400  13.737  14.961
 3076PROX   H1123887  13.505  13.701  14.961
 3076PROX   H1323888  13.378  13.826  14.898
 3076PROX    C223889  13.355  13.755  15.103
 3076PROX   H2123890  13.405  13.674  15.162
 3076PROX    C323891  13.199  13.740  15.119
 3076PROX   H3123892  13.153  13.773  15.023
 3076PROX   H3223893  13.178  13.634  15.147
 3076PROX   H3323894  13.161  13.812  15.195
 3077PROX    O123895  13.397  13.874  15.162
 3077PROX    C123896  13.490  13.854  15.268
 3077PROX   H1123897  13.437  13.802  15.350
 3077PROX   H1323898  13.570  13.783  15.238
 3077PROX    C223899  13.548  13.981  15.329
 3077PROX   H2123900  13.459  14.047  15.322
 3077PROX    C323901  13.668  14.043  15.253
 3077PROX   H3123902  13.745  13.968  15.225
 3077PROX   H3223903  13.627  14.083  15.158
 3077PROX   H3323904  13.706  14.131  15.309
 3078PROX    O123905  13.575  13.961  15.464
 3078PROX    C123906  13.588  14.079  15.546
 3078PROX   H1123907  13.690  14.119  15.526
 3078PROX   H1323908  13.515  14.155  15.510
 3078PROX    C223909  13.575  14.065  15.698
 3078PROX   H2123910  13.495  13.997  15.735
 3078PROX    C323911  13.543  14.204  15.755
 3078PROX   H3123912  13.442  14.240  15.726
 3078PROX   H3223913  13.540  14.204  15.866
 3078PROX   H3323914  13.623  14.277  15.731
 3079PROX    O123915  13.698  14.031  15.757
 3079PROX    C123916  13.727  13.890  15.743
 3079PROX   H1123917  13.644  13.836  15.794
 3079PROX   H1323918  13.727  13.876  15.632
 3079PROX    C223919  13.866  13.860  15.798
 3079PROX   H2123920  13.885  13.930  15.882
 3079PROX    C323921  13.979  13.878  15.695
 3079PROX   H3123922  14.081  13.886  15.739
 3079PROX   H3223923  13.972  13.797  15.618
 3079PROX   H3323924  13.960  13.976  15.646
 3080PROX    O123925  13.859  13.723  15.838
 3080PROX    C123926  13.848  13.703  15.980
 3080PROX   H1123927  13.796  13.787  16.030
 3080PROX   H1323928  13.797  13.609  16.009
 3080PROX    C223929  13.998  13.692  16.028
 3080PROX   H2123930  14.055  13.778  15.987
 3080PROX    C323931  14.058  13.565  15.974
 3080PROX   H3123932  13.993  13.480  16.003
 3080PROX   H3223933  14.069  13.579  15.864
 3080PROX   H3323934  14.161  13.542  16.009
 3081ETHO    O123935  14.011  13.678  16.169
 3081ETHO    C123936  13.999  13.802  16.236
 3081ETHO   H1123937  13.907  13.807  16.299
 3081ETHO   H1323938  13.983  13.879  16.157
 3081ETHO    C223939  14.120  13.870  16.311
 3081ETHO   H2123940  14.072  13.970  16.313
 3081ETHO   H2323941  14.208  13.873  16.244
 3082ETHO    O123942  14.158  13.825  16.437
 3082ETHO    C123943  14.240  13.917  16.510
 3082ETHO   H1123944  14.170  14.000  16.533
 3082ETHO   H1323945  14.270  13.866  16.604
 3082ETHO    C223946  14.381  13.952  16.441
 3082ETHO   H2123947  14.364  14.001  16.343
 3082ETHO   H2323948  14.429  13.854  16.419
 3083ETHO    O123949  14.463  14.035  16.524
 3083ETHO    C123950  14.584  14.083  16.458
 3083ETHO   H1123951  14.562  14.134  16.362
 3083ETHO   H1323952  14.653  13.997  16.443
 3083ETHO    C223953  14.654  14.176  16.554
 3083ETHO   H2123954  14.586  14.259  16.584
 3083ETHO   H2323955  14.740  14.212  16.494
 3084ETHO    O123956  14.689  14.102  16.668
 3084ETHO    C123957  14.777  14.169  16.759
 3084ETHO   H1123958  14.874  14.202  16.717
 3084ETHO   H1323959  14.720  14.262  16.781
 3084ETHO    C223960  14.792  14.096  16.888
 3084ETHO   H2123961  14.881  14.035  16.862
 3084ETHO   H2323962  14.698  14.039  16.904
 3085ETHO    O123963  14.805  14.187  17.000
 3085ETHO    C123964  14.889  14.142  17.107
 3085ETHO   H1123965  14.997  14.130  17.083
 3085ETHO   H1323966  14.861  14.040  17.139
 3085ETHO    C223967  14.885  14.235  17.226
 3085ETHO   H2123968  14.884  14.187  17.326
 3085ETHO   H2323969  14.791  14.295  17.219
 3086ETHO    O123970  14.997  14.326  17.221
 3086ETHO    C123971  14.999  14.417  17.113
 3086ETHO   H1123972  15.043  14.359  17.030
 3086ETHO   H1323973  14.893  14.450  17.101
 3086ETHO    C223974  15.084  14.545  17.125
 3086ETHO   H2123975  15.092  14.572  17.017
 3086ETHO   H2323976  15.186  14.529  17.166
 3087ETHO    O123977  15.024  14.647  17.201
 3087ETHO    C123978  15.117  14.735  17.261
 3087ETHO   H1123979  15.189  14.755  17.179
 3087ETHO   H1323980  15.162  14.682  17.347
 3087ETHO    C223981  15.043  14.857  17.316
 3087ETHO   H2123982  14.959  14.872  17.245
 3087ETHO   H2323983  15.103  14.951  17.318
 3088ETHO    O123984  14.996  14.842  17.454
 3088ETHO    C123985  15.096  14.832  17.546
 3088ETHO   H1123986  15.149  14.735  17.546
 3088ETHO   H1323987  15.166  14.914  17.520
 3088ETHO    C223988  15.040  14.843  17.693
 3088ETHO   H2123989  14.967  14.762  17.713
 3088ETHO   H2323990  15.126  14.820  17.759
 3089ETHO    O123991  14.992  14.977  17.727
 3089ETHO    C123992  14.917  14.975  17.847
 3089ETHO   H1123993  14.975  14.923  17.926
 3089ETHO   H1323994  14.931  15.076  17.889
 3089ETHO    C223995  14.772  14.935  17.842
 3089ETHO   H2123996  14.727  14.935  17.944
 3089ETHO   H2323997  14.770  14.830  17.804
 3090ETHO    O123998  14.695  15.025  17.765
 3090ETHO    C123999  14.558  14.994  17.751
 3090ETHO   H1124000  14.543  14.902  17.692
 3090ETHO   H1324001  14.521  14.957  17.849
 3090ETHO    C224002  14.476  15.114  17.697
 3090ETHO   H2124003  14.379  15.071  17.666
 3090ETHO   H2324004  14.534  15.164  17.616
 3091ETHO    O124005  14.448  15.205  17.792
 3091ETHO    C124006  14.357  15.295  17.727
 3091ETHO   H1124007  14.409  15.367  17.660
 3091ETHO   H1324008  14.291  15.244  17.654
 3091ETHO    C224009  14.275  15.378  17.828
 3091ETHO   H2124010  14.218  15.305  17.890
 3091ETHO   H2324011  14.214  15.451  17.771
 3092ETHO    O124012  14.346  15.457  17.922
 3092ETHO    C124013  14.261  15.516  18.019
 3092ETHO   H1124014  14.175  15.546  17.955
 3092ETHO   H1324015  14.314  15.609  18.049
 3092ETHO    C224016  14.220  15.430  18.135
 3092ETHO   H2124017  14.210  15.325  18.099
 3092ETHO   H2324018  14.126  15.458  18.187
 3093ETHO    O124019  14.320  15.445  18.233
 3093ETHO    C124020  14.316  15.344  18.332
 3093ETHO   H1124021  14.212  15.317  18.359
 3093ETHO   H1324022  14.368  15.257  18.288
 3093ETHO    C224023  14.394  15.394  18.457
 3093ETHO   H2124024  14.490  15.428  18.413
 3093ETHO   H2324025  14.404  15.310  18.528
 3094ETHO    O124026  14.313  15.506  18.512
 3094ETHO    C124027  14.377  15.555  18.632
 3094ETHO   H1124028  14.357  15.664  18.627
 3094ETHO   H1324029  14.488  15.562  18.625
 3094ETHO    C224030  14.328  15.497  18.756
 3094ETHO   H2124031  14.355  15.390  18.765
 3094ETHO   H2324032  14.220  15.516  18.771
 3095ETHO    O124033  14.392  15.572  18.863
 3095ETHO    C124034  14.470  15.487  18.954
 3095ETHO   H1124035  14.408  15.409  19.004
 3095ETHO   H1324036  14.542  15.433  18.890
 3095ETHO    C224037  14.532  15.571  19.064
 3095ETHO   H2124038  14.561  15.667  19.016
 3095ETHO   H2324039  14.627  15.528  19.102
 3096ETHO    O124040  14.440  15.602  19.171
 3096ETHO    C124041  14.510  15.614  19.297
 3096ETHO   H1124042  14.596  15.684  19.282
 3096ETHO   H1324043  14.554  15.515  19.322
 3096ETHO    C224044  14.425  15.654  19.417
 3096ETHO   H2124045  14.354  15.731  19.380
 3096ETHO   H2324046  14.475  15.700  19.505
 3097ETHO    O124047  14.347  15.543  19.460
 3097ETHO    C124048  14.253  15.577  19.567
 3097ETHO   H1124049  14.305  15.634  19.647
 3097ETHO   H1324050  14.199  15.665  19.525
 3097ETHO    C224051  14.175  15.453  19.625
 3097ETHO   H2124052  14.111  15.505  19.700
 3097ETHO   H2324053  14.247  15.384  19.674
 3098ETHO    O124054  14.097  15.375  19.532
 3098ETHO    C124055  14.054  15.260  19.602
 3098ETHO   H1124056  13.991  15.282  19.692
 3098ETHO   H1324057  14.148  15.206  19.624
 3098ETHO    C224058  13.974  15.170  19.500
 3098ETHO   H2124059  13.981  15.064  19.532
 3098ETHO   H2324060  14.016  15.171  19.397
 3099ETHO    O124061  13.836  15.194  19.494
 3099ETHO    C124062  13.799  15.309  19.420
 3099ETHO   H1124063  13.854  15.397  19.460
 3099ETHO   H1324064  13.826  15.293  19.313
 3099ETHO    C224065  13.650  15.337  19.434
 3099ETHO   H2124066  13.597  15.240  19.429
 3099ETHO   H2324067  13.616  15.389  19.341
 3100ETHO    O124068  13.610  15.410  19.547
 3100ETHO    C124069  13.464  15.415  19.561
 3100ETHO   H1124070  13.408  15.442  19.469
 3100ETHO   H1324071  13.426  15.315  19.591
 3100ETHO    C224072  13.456  15.512  19.678
 3100ETHO   H2124073  13.513  15.465  19.762
 3100ETHO   H2324074  13.351  15.519  19.714
 3101ETHO    O124075  13.516  15.644  19.651
 3101ETHO    C124076  13.511  15.723  19.768
 3101ETHO   H1124077  13.414  15.719  19.823
 3101ETHO   H1324078  13.590  15.682  19.834
 3101ETHO    C224079  13.548  15.873  19.745
 3101ETHO   H2124080  13.471  15.927  19.686
 3101ETHO   H2324081  13.648  15.874  19.697
 3102ETHO    O124082  13.560  15.934  19.873
 3102ETHO    C124083  13.571  16.074  19.862
 3102ETHO   H1124084  13.673  16.097  19.824
 3102ETHO   H1324085  13.504  16.111  19.781
 3102ETHO    C224086  13.549  16.155  19.992
 3102ETHO   H2124087  13.578  16.262  19.983
 3102ETHO   H2324088  13.626  16.114  20.062
 3103ETHO    O124089  13.407  16.142  20.029
 3103ETHO    C124090  13.366  16.241  20.126
 3103ETHO   H1124091  13.399  16.340  20.087
 3103ETHO   H1324092  13.423  16.228  20.220
 3103ETHO    C224093  13.222  16.208  20.143
 3103ETHO   H2124094  13.183  16.270  20.227
 3103ETHO   H2324095  13.206  16.102  20.174
 3104ETHO    O124096  13.155  16.245  20.020
 3104ETHO    C124097  13.042  16.159  20.008
 3104ETHO   H1124098  13.006  16.163  19.904
 3104ETHO   H1324099  13.091  16.060  20.013
 3104ETHO    C224100  12.934  16.171  20.112
 3104ETHO   H2124101  12.975  16.173  20.215
 3104ETHO   H2324102  12.869  16.084  20.091
 3105ETHO    O124103  12.857  16.287  20.086
 3105ETHO    C124104  12.740  16.261  20.009
 3105ETHO   H1124105  12.683  16.170  20.039
 3105ETHO   H1324106  12.759  16.247  19.900
 3105ETHO    C224107  12.642  16.377  20.011
 3105ETHO   H2124108  12.617  16.420  20.110
 3105ETHO   H2324109  12.558  16.319  19.965
 3106ETHO    O124110  12.685  16.486  19.931
 3106ETHO    C124111  12.592  16.595  19.940
 3106ETHO   H1124112  12.492  16.556  19.911
 3106ETHO   H1324113  12.598  16.631  20.045
 3106ETHO    C224114  12.639  16.708  19.846
 3106ETHO   H2124115  12.750  16.708  19.847
 3106ETHO   H2324116  12.603  16.806  19.885
 3107ETHO    O124117  12.593  16.685  19.714
 3107ETHO    C124118  12.647  16.770  19.616
 3107ETHO   H1124119  12.639  16.705  19.527
 3107ETHO   H1324120  12.756  16.782  19.634
 3107ETHO    C224121  12.585  16.909  19.590
 3107ETHO   H2124122  12.484  16.903  19.544
 3107ETHO   H2324123  12.653  16.959  19.517
 3108ETHO    O124124  12.582  16.994  19.703
 3108ETHO    C124125  12.542  17.129  19.679
 3108ETHO   H1124126  12.608  17.148  19.591
 3108ETHO   H1324127  12.434  17.135  19.654
 3108ETHO    C224128  12.586  17.225  19.799
 3108ETHO   H2124129  12.598  17.325  19.752
 3108ETHO   H2324130  12.681  17.182  19.837
 3109ETHO    O124131  12.479  17.223  19.897
 3109ETHO    C124132  12.501  17.345  19.975
 3109ETHO   H1124133  12.492  17.431  19.904
 3109ETHO   H1324134  12.606  17.351  20.011
 3109ETHO    C224135  12.396  17.362  20.092
 3109ETHO   H2124136  12.295  17.358  20.046
 3109ETHO   H2324137  12.405  17.468  20.124
 3110ETHO    O124138  12.414  17.274  20.206
 3110ETHO    C124139  12.545  17.266  20.266
 3110ETHO   H1124140  12.612  17.222  20.190
 3110ETHO   H1324141  12.583  17.369  20.283
 3110ETHO    C224142  12.547  17.204  20.402
 3110ETHO   H2124143  12.528  17.094  20.400
 3110ETHO   H2324144  12.466  17.230  20.473
 3111ETHO    O124145  12.686  17.215  20.448
 3111ETHO    C124146  12.687  17.239  20.590
 3111ETHO   H1124147  12.637  17.337  20.607
 3111ETHO   H1324148  12.640  17.159  20.651
 3111ETHO    C224149  12.828  17.254  20.641
 3111ETHO   H2124150  12.827  17.284  20.748
 3111ETHO   H2324151  12.874  17.330  20.574
 3112ETHO    O124152  12.909  17.139  20.630
 3112ETHO    C124153  12.892  17.046  20.735
 3112ETHO   H1124154  12.908  17.101  20.830
 3112ETHO   H1324155  12.794  16.994  20.745
 3112ETHO    C224156  12.994  16.932  20.723
 3112ETHO   H2124157  12.999  16.878  20.820
 3112ETHO   H2324158  13.093  16.974  20.697
 3113ETHO    O124159  12.951  16.838  20.620
 3113ETHO    C124160  13.047  16.739  20.584
 3113ETHO   H1124161  13.145  16.779  20.553
 3113ETHO   H1324162  13.058  16.672  20.672
 3113ETHO    C224163  13.002  16.647  20.465
 3113ETHO   H2124164  12.912  16.586  20.490
 3113ETHO   H2324165  13.072  16.561  20.473
 3114ETHO    O124166  12.996  16.709  20.338
 3114ETHO    C124167  12.971  16.603  20.240
 3114ETHO   H1124168  12.872  16.559  20.265
 3114ETHO   H1324169  13.044  16.520  20.249
 3114ETHO    C224170  12.957  16.660  20.096
 3114ETHO   H2124171  12.903  16.755  20.116
 3114ETHO   H2324172  12.893  16.594  20.033
 3115ETHO    O124173  13.072  16.683  20.015
 3115ETHO    C124174  13.144  16.562  19.997
 3115ETHO   H1124175  13.218  16.564  20.081
 3115ETHO   H1324176  13.074  16.476  20.004
 3115ETHO    C224177  13.214  16.570  19.859
 3115ETHO   H2124178  13.272  16.475  19.859
 3115ETHO   H2324179  13.284  16.656  19.861
 3116ETHO    O124180  13.134  16.560  19.741
 3116ETHO    C124181  13.205  16.580  19.617
 3116ETHO   H1124182  13.311  16.552  19.637
 3116ETHO   H1324183  13.199  16.683  19.575
 3116ETHO    C224184  13.158  16.504  19.495
 3116ETHO   H2124185  13.217  16.529  19.404
 3116ETHO   H2324186  13.049  16.513  19.475
 3117ETHO    O124187  13.186  16.366  19.517
 3117ETHO    C124188  13.162  16.285  19.398
 3117ETHO   H1124189  13.053  16.291  19.377
 3117ETHO   H1324190  13.217  16.327  19.312
 3117ETHO    C224191  13.213  16.142  19.421
 3117ETHO   H2124192  13.173  16.078  19.339
 3117ETHO   H2324193  13.177  16.113  19.522
 3118ETHO    O124194  13.352  16.125  19.404
 3118ETHO    C124195  13.393  15.990  19.424
 3118ETHO   H1124196  13.342  15.922  19.352
 3118ETHO   H1324197  13.357  15.959  19.525
 3118ETHO    C224198  13.543  15.975  19.416
 3118ETHO   H2124199  13.579  15.981  19.311
 3118ETHO   H2324200  13.570  15.878  19.461
 3119ETHO    O124201  13.603  16.084  19.493
 3119ETHO    C124202  13.747  16.065  19.494
 3119ETHO   H1124203  13.773  15.976  19.556
 3119ETHO   H1324204  13.793  16.058  19.393
 3119ETHO    C224205  13.827  16.184  19.558
 3119ETHO   H2124206  13.926  16.150  19.595
 3119ETHO   H2324207  13.774  16.228  19.645
 3120ETHO    O124208  13.843  16.280  19.450
 3120ETHO    C124209  13.890  16.409  19.492
 3120ETHO   H1124210  13.992  16.396  19.534
 3120ETHO   H1324211  13.822  16.455  19.567
 3120ETHO    C224212  13.887  16.501  19.371
 3120ETHO   H2124213  13.939  16.596  19.394
 3120ETHO   H2324214  13.782  16.524  19.342
 3121ETHO    O124215  13.961  16.438  19.265
 3121ETHO    C124216  13.919  16.484  19.135
 3121ETHO   H1124217  13.813  16.451  19.134
 3121ETHO   H1324218  13.930  16.594  19.123
 3121ETHO    C224219  14.004  16.422  19.028
 3121ETHO   H2124220  14.015  16.311  19.029
 3121ETHO   H2324221  13.962  16.456  18.930
 3122ETHO    O124222  14.131  16.483  19.022
 3122ETHO    C124223  14.210  16.446  18.910
 3122ETHO   H1124224  14.173  16.504  18.823
 3122ETHO   H1324225  14.206  16.336  18.899
 3122ETHO    C224226  14.365  16.468  18.930
 3122ETHO   H2124227  14.390  16.570  18.966
 3122ETHO   H2324228  14.411  16.443  18.832
 3123ETHO    O124229  14.418  16.382  19.034
 3123ETHO    C124230  14.562  16.391  19.050
 3123ETHO   H1124231  14.611  16.401  18.951
 3123ETHO   H1324232  14.588  16.490  19.093
 3123ETHO    C224233  14.622  16.278  19.136
 3123ETHO   H2124234  14.560  16.266  19.228
 3123ETHO   H2324235  14.729  16.290  19.161
 3124ETHO    O124236  14.615  16.162  19.053
 3124ETHO    C124237  14.633  16.035  19.124
 3124ETHO   H1124238  14.725  16.033  19.187
 3124ETHO   H1324239  14.660  15.955  19.052
 3124ETHO    C224240  14.504  15.993  19.195
 3124ETHO   H2124241  14.459  16.061  19.271
 3124ETHO   H2324242  14.506  15.894  19.245
 3125ETHO    O124243  14.421  15.974  19.083
 3125ETHO    C124244  14.285  15.960  19.124
 3125ETHO   H1124245  14.272  15.878  19.198
 3125ETHO   H1324246  14.245  16.046  19.182
 3125ETHO    C224247  14.187  15.930  19.012
 3125ETHO   H2124248  14.097  15.876  19.048
 3125ETHO   H2324249  14.234  15.859  18.940
 3126ETHO    O124250  14.154  16.041  18.927
 3126ETHO    C124251  14.056  15.992  18.831
 3126ETHO   H1124252  14.106  15.922  18.761
 3126ETHO   H1324253  13.967  15.948  18.880
 3126ETHO    C224254  13.991  16.097  18.743
 3126ETHO   H2124255  13.917  16.160  18.797
 3126ETHO   H2324256  13.928  16.041  18.671
 3127ETHO    O124257  14.079  16.185  18.668
 3127ETHO    C124258  14.006  16.289  18.599
 3127ETHO   H1124259  13.911  16.322  18.647
 3127ETHO   H1324260  14.075  16.375  18.592
 3127ETHO    C224261  13.969  16.241  18.457
 3127ETHO   H2124262  13.912  16.323  18.407
 3127ETHO   H2324263  13.894  16.159  18.461
 3128ETHO    O124264  14.080  16.207  18.374
 3128ETHO    C124265  14.034  16.150  18.248
 3128ETHO   H1124266  13.960  16.069  18.259
 3128ETHO   H1324267  13.983  16.227  18.186
 3128ETHO    C224268  14.163  16.098  18.176
 3128ETHO   H2124269  14.139  16.049  18.079
 3128ETHO   H2324270  14.205  16.022  18.246
 3129ETHO    O124271  14.269  16.194  18.151
 3129ETHO    C124272  14.387  16.130  18.109
 3129ETHO   H1124273  14.412  16.041  18.170
 3129ETHO   H1324274  14.471  16.199  18.135
 3129ETHO    C224275  14.387  16.099  17.955
 3129ETHO   H2124276  14.288  16.068  17.913
 3129ETHO   H2324277  14.468  16.026  17.933
 3130ETHO    O124278  14.427  16.215  17.875
 3130ETHO    C124279  14.480  16.183  17.746
 3130ETHO   H1124280  14.567  16.115  17.757
 3130ETHO   H1324281  14.393  16.133  17.698
 3130ETHO    C224282  14.515  16.308  17.671
 3130ETHO   H2124283  14.426  16.375  17.679
 3130ETHO   H2324284  14.550  16.271  17.572
 3131ETHO    O124285  14.625  16.362  17.733
 3131ETHO    C124286  14.653  16.491  17.677
 3131ETHO   H1124287  14.567  16.559  17.692
 3131ETHO   H1324288  14.655  16.490  17.566
 3131ETHO    C224289  14.784  16.535  17.737
 3131ETHO   H2124290  14.784  16.542  17.848
 3131ETHO   H2324291  14.799  16.641  17.708
 3132ETHO    O124292  14.881  16.447  17.684
 3132ETHO    C124293  15.007  16.488  17.748
 3132ETHO   H1124294  15.041  16.590  17.718
 3132ETHO   H1324295  14.990  16.480  17.857
 3132ETHO    C224296  15.120  16.396  17.697
 3132ETHO   H2124297  15.220  16.445  17.704
 3132ETHO   H2324298  15.097  16.382  17.589
 3133ETHO    O124299  15.115  16.263  17.743
 3133ETHO    C124300  15.250  16.207  17.746
 3133ETHO   H1124301  15.321  16.277  17.794
 3133ETHO   H1324302  15.289  16.200  17.642
 3133ETHO    C224303  15.249  16.069  17.804
 3133ETHO   H2124304  15.351  16.028  17.793
 3133ETHO   H2324305  15.172  16.006  17.754
 3134ETHO    O124306  15.206  16.078  17.940
 3134ETHO    C124307  15.316  16.088  18.029
 3134ETHO   H1124308  15.338  15.983  18.061
 3134ETHO   H1324309  15.404  16.128  17.975
 3134ETHO    C224310  15.292  16.179  18.158
 3134ETHO   H2124311  15.214  16.122  18.212
 3134ETHO   H2324312  15.256  16.278  18.124
 3135ETHO    O124313  15.409  16.189  18.237
 3135ETHO    C124314  15.376  16.202  18.375
 3135ETHO   H1124315  15.473  16.192  18.428
 3135ETHO   H1324316  15.324  16.111  18.411
 3135ETHO    C224317  15.307  16.326  18.422
 3135ETHO   H2124318  15.379  16.405  18.392
 3135ETHO   H2324319  15.305  16.325  18.533
 3136ETHO    O124320  15.175  16.355  18.378
 3136ETHO    C124321  15.131  16.485  18.420
 3136ETHO   H1124322  15.109  16.478  18.529
 3136ETHO   H1324323  15.215  16.555  18.399
 3136ETHO    C224324  15.012  16.529  18.334
 3136ETHO   H2124325  15.039  16.545  18.228
 3136ETHO   H2324326  14.971  16.624  18.376
 3137ETHO    O124327  14.904  16.432  18.355
 3137ETHO    C124328  14.858  16.382  18.237
 3137ETHO   H1124329  14.833  16.467  18.170
 3137ETHO   H1324330  14.933  16.315  18.190
 3137ETHO    C224331  14.722  16.316  18.255
 3137ETHO   H2124332  14.728  16.252  18.346
 3137ETHO   H2324333  14.696  16.243  18.176
 3138ETHO    O124334  14.622  16.412  18.277
 3138ETHO    C124335  14.515  16.361  18.352
 3138ETHO   H1124336  14.428  16.421  18.319
 3138ETHO   H1324337  14.498  16.252  18.338
 3138ETHO    C224338  14.547  16.396  18.502
 3138ETHO   H2124339  14.632  16.332  18.535
 3138ETHO   H2324340  14.463  16.358  18.565
 3139ETHO    O124341  14.580  16.529  18.519
 3139ETHO    C124342  14.643  16.549  18.651
 3139ETHO   H1124343  14.570  16.517  18.728
 3139ETHO   H1324344  14.723  16.473  18.661
 3139ETHO    C224345  14.690  16.687  18.686
 3139ETHO   H2124346  14.721  16.748  18.598
 3139ETHO   H2324347  14.774  16.679  18.757
 3140ETHO    O124348  14.570  16.749  18.721
 3140ETHO    C124349  14.593  16.852  18.811
 3140ETHO   H1124350  14.647  16.934  18.758
 3140ETHO   H1324351  14.649  16.810  18.897
 3140ETHO    C224352  14.456  16.905  18.861
 3140ETHO   H2124353  14.385  16.923  18.777
 3140ETHO   H2324354  14.479  17.002  18.909
 3141ETHO    O124355  14.402  16.840  18.975
 3141ETHO    C124356  14.272  16.882  18.993
 3141ETHO   H1124357  14.261  16.992  19.004
 3141ETHO   H1324358  14.221  16.858  18.898
 3141ETHO    C224359  14.214  16.799  19.112
 3141ETHO   H2124360  14.258  16.698  19.100
 3141ETHO   H2324361  14.104  16.793  19.119
 3142ETHO    O124362  14.255  16.851  19.239
 3142ETHO    C124363  14.358  16.769  19.294
 3142ETHO   H1124364  14.460  16.790  19.254
 3142ETHO   H1324365  14.334  16.661  19.287
 3142ETHO    C224366  14.351  16.797  19.439
 3142ETHO   H2124367  14.425  16.738  19.497
 3142ETHO   H2324368  14.250  16.775  19.481
 3143ETHO    O124369  14.377  16.938  19.463
 3143ETHO    C124370  14.322  16.978  19.589
 3143ETHO   H1124371  14.211  16.965  19.587
 3143ETHO   H1324372  14.366  16.914  19.669
 3143ETHO    C224373  14.353  17.124  19.625
 3143ETHO   H2124374  14.303  17.140  19.722
 3143ETHO   H2324375  14.306  17.186  19.546
 3144ETHO    O124376  14.491  17.144  19.642
 3144ETHO    C124377  14.521  17.284  19.649
 3144ETHO   H1124378  14.455  17.339  19.720
 3144ETHO   H1324379  14.502  17.330  19.549
 3144ETHO    C224380  14.664  17.307  19.703
 3144ETHO   H2124381  14.688  17.410  19.669
 3144ETHO   H2324382  14.733  17.227  19.665
 3145ETHO    O124383  14.674  17.316  19.851
 3145ETHO    C124384  14.806  17.362  19.890
 3145ETHO   H1124385  14.879  17.279  19.895
 3145ETHO   H1324386  14.835  17.443  19.820
 3145ETHO    C224387  14.775  17.421  20.030
 3145ETHO   H2124388  14.738  17.347  20.104
 3145ETHO   H2324389  14.689  17.491  20.020
 3146ETHO    O124390  14.892  17.481  20.082
 3146ETHO    C124391  14.863  17.572  20.187
 3146ETHO   H1124392  14.837  17.515  20.278
 3146ETHO   H1324393  14.782  17.640  20.151
 3146ETHO    C224394  14.989  17.658  20.229
 3146ETHO   H2124395  15.069  17.594  20.273
 3146ETHO   H2324396  14.941  17.724  20.303
 3147ETHO    O124397  15.027  17.737  20.114
 3147ETHO    C124398  15.140  17.818  20.133
 3147ETHO   H1124399  15.117  17.884  20.220
 3147ETHO   H1324400  15.218  17.747  20.168
 3147ETHO    C224401  15.181  17.909  20.009
 3147ETHO   H2124402  15.202  17.837  19.927
 3147ETHO   H2324403  15.270  17.972  20.029
 3148ETHO    O124404  15.077  17.995  19.964
 3148ETHO    C124405  15.105  18.055  19.837
 3148ETHO   H1124406  15.209  18.094  19.843
 3148ETHO   H1324407  15.098  17.986  19.750
 3148ETHO    C224408  15.024  18.186  19.806
 3148ETHO   H2124409  14.920  18.156  19.780
 3148ETHO   H2324410  15.059  18.246  19.719
 3149ETHO    O124411  15.020  18.279  19.905
 3149ETHO    C124412  14.918  18.380  19.874
 3149ETHO   H1124413  14.949  18.443  19.788
 3149ETHO   H1324414  14.824  18.331  19.843
 3149ETHO    C224415  14.882  18.480  19.994
 3149ETHO   H2124416  14.821  18.556  19.942
 3149ETHO   H2324417  14.976  18.528  20.030
 3150ETHO    O124418  14.802  18.426  20.094
 3150ETHO    C124419  14.748  18.517  20.188
 3150ETHO   H1124420  14.832  18.546  20.255
 3150ETHO   H1324421  14.708  18.613  20.149
 3150ETHO    C224422  14.640  18.450  20.264
 3150ETHO   H2124423  14.587  18.516  20.336
 3150ETHO   H2324424  14.678  18.370  20.331
 3151ETHO    O124425  14.539  18.377  20.191
 3151ETHO    C124426  14.580  18.278  20.096
 3151ETHO   H1124427  14.632  18.200  20.156
 3151ETHO   H1324428  14.639  18.316  20.009
 3151ETHO    C224429  14.457  18.204  20.046
 3151ETHO   H2124430  14.490  18.136  19.964
 3151ETHO   H2324431  14.387  18.282  20.009
 3152ETHO    O124432  14.392  18.121  20.139
 3152ETHO    C124433  14.251  18.124  20.098
 3152ETHO   H1124434  14.196  18.219  20.108
 3152ETHO   H1324435  14.234  18.092  19.993
 3152ETHO    C224436  14.180  18.031  20.196
 3152ETHO   H2124437  14.215  17.929  20.172
 3152ETHO   H2324438  14.069  18.034  20.189
 3153ETHO    O124439  14.209  18.051  20.336
 3153ETHO    C124440  14.188  17.940  20.416
 3153ETHO   H1124441  14.270  17.869  20.393
 3153ETHO   H1324442  14.089  17.901  20.382
 3153ETHO    C224443  14.179  17.977  20.561
 3153ETHO   H2124444  14.106  17.906  20.607
 3153ETHO   H2324445  14.150  18.084  20.572
 3154ETHO    O124446  14.306  17.955  20.618
 3154ETHO    C124447  14.321  18.033  20.741
 3154ETHO   H1124448  14.381  18.122  20.713
 3154ETHO   H1324449  14.225  18.067  20.785
 3154ETHO    C224450  14.391  17.977  20.866
 3154ETHO   H2124451  14.366  18.039  20.955
 3154ETHO   H2324452  14.372  17.869  20.882
 3155ETHO    O124453  14.527  17.994  20.867
 3155ETHO    C124454  14.605  17.897  20.787
 3155ETHO   H1124455  14.677  17.951  20.720
 3155ETHO   H1324456  14.536  17.832  20.729
 3155ETHO    C224457  14.700  17.794  20.865
 3155ETHO   H2124458  14.729  17.700  20.814
 3155ETHO   H2324459  14.643  17.765  20.956
 3156ETHO    O124460  14.819  17.861  20.916
 3156ETHO    C124461  14.932  17.844  20.831
 3156ETHO   H1124462  14.961  17.738  20.811
 3156ETHO   H1324463  14.895  17.883  20.734
 3156ETHO    C224464  15.058  17.923  20.879
 3156ETHO   H2124465  15.031  18.030  20.872
 3156ETHO   H2324466  15.145  17.917  20.810
 3157ETHO    O124467  15.095  17.898  21.014
 3157ETHO    C124468  15.187  17.993  21.058
 3157ETHO   H1124469  15.255  18.025  20.977
 3157ETHO   H1324470  15.257  17.936  21.124
 3157ETHO    C224471  15.134  18.112  21.131
 3157ETHO   H2124472  15.034  18.143  21.095
 3157ETHO   H2324473  15.213  18.190  21.119
 3158ETHO    O124474  15.123  18.088  21.271
 3158ETHO    C124475  15.006  18.013  21.304
 3158ETHO   H1124476  14.914  18.073  21.290
 3158ETHO   H1324477  15.001  17.920  21.243
 3158ETHO    C224478  15.016  17.978  21.458
 3158ETHO   H2124479  15.119  17.938  21.466
 3158ETHO   H2324480  14.931  17.908  21.475
 3159ETHO    O124481  15.007  18.098  21.542
 3159ETHO    C124482  14.963  18.071  21.676
 3159ETHO   H1124483  15.046  18.033  21.739
 3159ETHO   H1324484  14.885  17.992  21.680
 3159ETHO    C224485  14.916  18.205  21.737
 3159ETHO   H2124486  14.996  18.272  21.699
 3159ETHO   H2324487  14.912  18.206  21.848
 3160ETHO    O124488  14.780  18.234  21.697
 3160ETHO    C124489  14.745  18.365  21.727
 3160ETHO   H1124490  14.757  18.385  21.835
 3160ETHO   H1324491  14.803  18.434  21.662
 3160ETHO    C224492  14.600  18.380  21.686
 3160ETHO   H2124493  14.596  18.351  21.579
 3160ETHO   H2324494  14.569  18.486  21.692
 3161ETHO    O124495  14.514  18.306  21.767
 3161ETHO    C124496  14.384  18.298  21.699
 3161ETHO   H1124497  14.395  18.293  21.588
 3161ETHO   H1324498  14.344  18.397  21.729
 3161ETHO    C224499  14.300  18.187  21.760
 3161ETHO   H2124500  14.193  18.213  21.745
 3161ETHO   H2324501  14.314  18.182  21.870
 3162ETHO    O124502  14.318  18.060  21.700
 3162ETHO    C124503  14.443  17.999  21.731
 3162ETHO   H1124504  14.532  18.051  21.688
 3162ETHO   H1324505  14.472  18.006  21.838
 3162ETHO    C224506  14.431  17.852  21.683
 3162ETHO   H2124507  14.516  17.795  21.726
 3162ETHO   H2324508  14.334  17.809  21.717
 3163ETHO    O124509  14.451  17.827  21.541
 3163ETHO    C124510  14.583  17.783  21.504
 3163ETHO   H1124511  14.655  17.864  21.525
 3163ETHO   H1324512  14.616  17.701  21.572
 3163ETHO    C224513  14.585  17.732  21.357
 3163ETHO   H2124514  14.685  17.693  21.327
 3163ETHO   H2324515  14.563  17.823  21.297
 3164ETHO    O124516  14.490  17.629  21.326
 3164ETHO    C124517  14.513  17.563  21.199
 3164ETHO   H1124518  14.524  17.650  21.131
 3164ETHO   H1324519  14.612  17.513  21.197
 3164ETHO    C224520  14.395  17.473  21.140
 3164ETHO   H2124521  14.431  17.439  21.041
 3164ETHO   H2324522  14.299  17.528  21.137
 3165ETHO    O124523  14.372  17.360  21.225
 3165ETHO    C124524  14.280  17.268  21.173
 3165ETHO   H1124525  14.197  17.336  21.142
 3165ETHO   H1324526  14.325  17.217  21.085
 3165ETHO    C224527  14.239  17.170  21.286
 3165ETHO   H2124528  14.327  17.103  21.302
 3165ETHO   H2324529  14.155  17.106  21.252
 3166ETHO    O124530  14.195  17.242  21.397
 3166ETHO    C124531  14.167  17.155  21.510
 3166ETHO   H1124532  14.246  17.078  21.514
 3166ETHO   H1324533  14.066  17.114  21.489
 3166ETHO    C224534  14.177  17.239  21.637
 3166ETHO   H2124535  14.086  17.302  21.646
 3166ETHO   H2324536  14.268  17.302  21.632
 3167ETHO    O124537  14.169  17.161  21.756
 3167ETHO    C124538  14.179  17.252  21.864
 3167ETHO   H1124539  14.284  17.285  21.859
 3167ETHO   H1324540  14.123  17.347  21.851
 3167ETHO    C224541  14.116  17.191  21.989
 3167ETHO   H2124542  14.135  17.259  22.075
 3167ETHO   H2324543  14.139  17.084  22.009
 3168ETHO    O124544  13.971  17.190  21.988
 3168ETHO    C124545  13.916  17.088  21.905
 3168ETHO   H1124546  13.943  16.986  21.941
 3168ETHO   H1324547  13.957  17.105  21.803
 3168ETHO    C224548  13.758  17.082  21.912
 3168ETHO   H2124549  13.713  17.092  22.013
 3168ETHO   H2324550  13.730  16.982  21.874
 3169ETHO    O124551  13.698  17.163  21.816
 3169ETHO    C124552  13.562  17.151  21.818
 3169ETHO   H1124553  13.533  17.044  21.825
 3169ETHO   H1324554  13.521  17.211  21.902
 3169ETHO    C224555  13.493  17.209  21.694
 3169ETHO   H2124556  13.514  17.318  21.683
 3169ETHO   H2324557  13.383  17.199  21.712
 3170ETHO    O124558  13.510  17.121  21.583
 3170ETHO    C124559  13.438  17.172  21.466
 3170ETHO   H1124560  13.489  17.264  21.430
 3170ETHO   H1324561  13.333  17.195  21.494
 3170ETHO    C224562  13.444  17.066  21.362
 3170ETHO   H2124563  13.390  17.111  21.276
 3170ETHO   H2324564  13.397  16.974  21.401
 3171ETHO    O124565  13.580  17.033  21.327
 3171ETHO    C124566  13.632  17.125  21.225
 3171ETHO   H1124567  13.560  17.120  21.140
 3171ETHO   H1324568  13.644  17.225  21.271
 3171ETHO    C224569  13.772  17.079  21.167
 3171ETHO   H2124570  13.805  17.013  21.250
 3171ETHO   H2324571  13.848  17.158  21.151
 3172ETHO    O124572  13.756  17.009  21.045
 3172ETHO    C124573  13.665  16.898  21.051
 3172ETHO   H1124574  13.558  16.926  21.057
 3172ETHO   H1324575  13.685  16.833  21.139
 3172ETHO    C224576  13.684  16.806  20.927
 3172ETHO   H2124577  13.653  16.855  20.832
 3172ETHO   H2324578  13.615  16.721  20.947
 3173ETHO    O124579  13.815  16.750  20.934
 3173ETHO    C124580  13.851  16.689  20.814
 3173ETHO   H1124581  13.777  16.608  20.798
 3173ETHO   H1324582  13.826  16.748  20.723
 3173ETHO    C224583  13.993  16.630  20.816
 3173ETHO   H2124584  13.990  16.555  20.735
 3173ETHO   H2324585  14.008  16.574  20.911
 3174ETHO    O124586  14.098  16.728  20.809
 3174ETHO    C124587  14.223  16.677  20.856
 3174ETHO   H1124588  14.293  16.763  20.859
 3174ETHO   H1324589  14.205  16.658  20.964
 3174ETHO    C224590  14.298  16.573  20.776
 3174ETHO   H2124591  14.405  16.582  20.802
 3174ETHO   H2324592  14.294  16.603  20.669
 3175ETHO    O124593  14.263  16.430  20.797
 3175ETHO    C124594  14.341  16.347  20.716
 3175ETHO   H1124595  14.318  16.243  20.749
 3175ETHO   H1324596  14.309  16.368  20.612
 3175ETHO    C224597  14.490  16.349  20.735
 3175ETHO   H2124598  14.544  16.259  20.700
 3175ETHO   H2324599  14.511  16.356  20.844
 3176ETHO    O124600  14.553  16.453  20.662
 3176ETHO    C124601  14.696  16.455  20.687
 3176ETHO   H1124602  14.723  16.438  20.793
 3176ETHO   H1324603  14.743  16.378  20.622
 3176ETHO    C224604  14.751  16.595  20.653
 3176ETHO   H2124605  14.696  16.614  20.558
 3176ETHO   H2324606  14.860  16.595  20.635
 3177ETHO    O124607  14.710  16.696  20.748
 3177ETHO    C124608  14.778  16.814  20.720
 3177ETHO   H1124609  14.784  16.833  20.611
 3177ETHO   H1324610  14.882  16.793  20.753
 3177ETHO    C224611  14.716  16.938  20.781
 3177ETHO   H2124612  14.785  17.025  20.789
 3177ETHO   H2324613  14.690  16.916  20.887
 3178ETHO    O124614  14.608  16.981  20.702
 3178ETHO    C124615  14.484  16.914  20.729
 3178ETHO   H1124616  14.470  16.923  20.839
 3178ETHO   H1324617  14.493  16.806  20.705
 3178ETHO    C224618  14.366  16.996  20.677
 3178ETHO   H2124619  14.376  17.096  20.726
 3178ETHO   H2324620  14.273  16.957  20.723
 3179ETHO    O124621  14.365  17.006  20.534
 3179ETHO    C124622  14.286  17.110  20.493
 3179ETHO   H1124623  14.322  17.211  20.521
 3179ETHO   H1324624  14.186  17.096  20.541
 3179ETHO    C224625  14.252  17.104  20.343
 3179ETHO   H2124626  14.173  17.181  20.331
 3179ETHO   H2324627  14.219  17.001  20.318
 3180ETHO    O124628  14.356  17.132  20.257
 3180ETHO    C124629  14.311  17.123  20.124
 3180ETHO   H1124630  14.276  17.018  20.112
 3180ETHO   H1324631  14.217  17.178  20.102
 3180ETHO    C224632  14.418  17.154  20.015
 3180ETHO   H2124633  14.375  17.136  19.914
 3180ETHO   H2324634  14.500  17.079  20.020
 3180ETHO    OZ24635  14.481  17.278  20.032
 3180ETHO   HZ124636  14.553  17.294  19.970
 3181ETHO    O124637   9.080  11.643   9.549
 3181ETHO   HO124638   9.083  11.585   9.472
 3181ETHO    C124639   9.084  11.567   9.667
 3181ETHO   H1124640   9.161  11.487   9.658
 3181ETHO   H1324641   8.984  11.525   9.692
 3181ETHO    C224642   9.107  11.658   9.791
 3181ETHO   H2124643   9.060  11.598   9.872
 3181ETHO   H2324644   9.061  11.760   9.789
 3182ETHO    O124645   9.242  11.659   9.832
 3182ETHO    C124646   9.263  11.736   9.948
 3182ETHO   H1124647   9.172  11.727  10.011
 3182ETHO   H1324648   9.351  11.693  10.003
 3182ETHO    C224649   9.303  11.879   9.923
 3182ETHO   H2124650   9.374  11.873   9.837
 3182ETHO   H2324651   9.363  11.931  10.001
 3183ETHO    O124652   9.193  11.969   9.886
 3183ETHO    C124653   9.122  12.006  10.007
 3183ETHO   H1124654   9.183  12.065  10.079
 3183ETHO   H1324655   9.093  11.912  10.059
 3183ETHO    C224656   8.988  12.071   9.974
 3183ETHO   H2124657   8.931  12.083  10.069
 3183ETHO   H2324658   8.926  12.001   9.915
 3184ETHO    O124659   8.981  12.194   9.895
 3184ETHO    C124660   9.005  12.307   9.990
 3184ETHO   H1124661   8.916  12.326  10.055
 3184ETHO   H1324662   9.091  12.280  10.055
 3184ETHO    C224663   9.056  12.424   9.905
 3184ETHO   H2124664   8.984  12.455   9.826
 3184ETHO   H2324665   9.147  12.395   9.849
 3185ETHO    O124666   9.090  12.546   9.984
 3185ETHO    C124667   8.964  12.605  10.024
 3185ETHO   H1124668   8.918  12.639   9.929
 3185ETHO   H1324669   8.901  12.533  10.080
 3185ETHO    C224670   8.999  12.726  10.115
 3185ETHO   H2124671   9.103  12.710  10.151
 3185ETHO   H2324672   8.932  12.726  10.204
 3186ETHO    O124673   8.995  12.851  10.044
 3186ETHO    C124674   9.001  12.969  10.134
 3186ETHO   H1124675   8.912  12.960  10.200
 3186ETHO   H1324676   9.086  12.986  10.203
 3186ETHO    C224677   8.989  13.101  10.056
 3186ETHO   H2124678   8.900  13.088   9.992
 3186ETHO   H2324679   9.083  13.120   9.999
 3187ETHO    O124680   8.952  13.205  10.146
 3187ETHO    C124681   9.062  13.288  10.187
 3187ETHO   H1124682   9.042  13.347  10.279
 3187ETHO   H1324683   9.149  13.220  10.201
 3187ETHO    C224684   9.091  13.401  10.081
 3187ETHO   H2124685   8.996  13.442  10.041
 3187ETHO   H2324686   9.152  13.354  10.002
 3188ETHO    O124687   9.166  13.505  10.142
 3188ETHO    C124688   9.201  13.608  10.049
 3188ETHO   H1124689   9.106  13.642  10.002
 3188ETHO   H1324690   9.261  13.563   9.967
 3188ETHO    C224691   9.275  13.721  10.108
 3188ETHO   H2124692   9.214  13.773  10.185
 3188ETHO   H2324693   9.304  13.786  10.023
 3189ETHO    O124694   9.396  13.675  10.178
 3189ETHO    C124695   9.464  13.776  10.248
 3189ETHO   H1124696   9.561  13.734  10.282
 3189ETHO   H1324697   9.481  13.863  10.181
 3189ETHO    C224698   9.392  13.824  10.377
 3189ETHO   H2124699   9.376  13.737  10.444
 3189ETHO   H2324700   9.294  13.875  10.360
 3190ETHO    O124701   9.481  13.913  10.441
 3190ETHO    C124702   9.460  14.050  10.403
 3190ETHO   H1124703   9.387  14.096  10.473
 3190ETHO   H1324704   9.448  14.060  10.293
 3190ETHO    C224705   9.595  14.122  10.425
 3190ETHO   H2124706   9.585  14.224  10.380
 3190ETHO   H2324707   9.674  14.067  10.369
 3191ETHO    O124708   9.633  14.144  10.561
 3191ETHO    C124709   9.752  14.219  10.576
 3191ETHO   H1124710   9.830  14.147  10.546
 3191ETHO   H1324711   9.755  14.306  10.507
 3191ETHO    C224712   9.777  14.274  10.715
 3191ETHO   H2124713   9.775  14.187  10.783
 3191ETHO   H2324714   9.882  14.310  10.718
 3192ETHO    O124715   9.688  14.374  10.748
 3192ETHO    C124716   9.697  14.418  10.886
 3192ETHO   H1124717   9.799  14.419  10.930
 3192ETHO   H1324718   9.653  14.334  10.945
 3192ETHO    C224719   9.618  14.542  10.912
 3192ETHO   H2124720   9.648  14.631  10.854
 3192ETHO   H2324721   9.644  14.561  11.019
 3193ETHO    O124722   9.474  14.526  10.908
 3193ETHO    C124723   9.406  14.614  10.993
 3193ETHO   H1124724   9.297  14.596  10.998
 3193ETHO   H1324725   9.431  14.597  11.100
 3193ETHO    C224726   9.436  14.759  10.960
 3193ETHO   H2124727   9.545  14.784  10.960
 3193ETHO   H2324728   9.380  14.817  11.035
 3194ETHO    O124729   9.402  14.794  10.828
 3194ETHO    C124730   9.447  14.931  10.812
 3194ETHO   H1124731   9.550  14.937  10.772
 3194ETHO   H1324732   9.452  14.991  10.905
 3194ETHO    C224733   9.353  15.007  10.724
 3194ETHO   H2124734   9.333  14.951  10.630
 3194ETHO   H2324735   9.399  15.108  10.719
 3195ETHO    O124736   9.220  15.019  10.773
 3195ETHO    C124737   9.164  15.138  10.721
 3195ETHO   H1124738   9.225  15.225  10.756
 3195ETHO   H1324739   9.172  15.146  10.610
 3195ETHO    C224740   9.014  15.159  10.759
 3195ETHO   H2124741   8.984  15.258  10.719
 3195ETHO   H2324742   8.943  15.081  10.726
 3196ETHO    O124743   9.001  15.171  10.902
 3196ETHO    C124744   8.865  15.172  10.943
 3196ETHO   H1124745   8.814  15.248  10.880
 3196ETHO   H1324746   8.818  15.076  10.914
 3196ETHO    C224747   8.850  15.206  11.094
 3196ETHO   H2124748   8.749  15.245  11.117
 3196ETHO   H2324749   8.921  15.287  11.122
 3197ETHO    O124750   8.873  15.087  11.166
 3197ETHO    C124751   8.902  15.109  11.302
 3197ETHO   H1124752   9.011  15.118  11.321
 3197ETHO   H1324753   8.853  15.198  11.346
 3197ETHO    C224754   8.857  14.985  11.369
 3197ETHO   H2124755   8.903  14.901  11.311
 3197ETHO   H2324756   8.750  14.968  11.345
 3198ETHO    O124757   8.882  14.994  11.507
 3198ETHO    C124758   8.841  14.875  11.573
 3198ETHO   H1124759   8.734  14.862  11.549
 3198ETHO   H1324760   8.912  14.802  11.528
 3198ETHO    C224761   8.878  14.883  11.723
 3198ETHO   H2124762   8.980  14.926  11.731
 3198ETHO   H2324763   8.864  14.774  11.743
 3199ETHO    O124764   8.783  14.957  11.803
 3199ETHO    C124765   8.820  14.954  11.936
 3199ETHO   H1124766   8.926  14.987  11.950
 3199ETHO   H1324767   8.801  14.854  11.979
 3199ETHO    C224768   8.746  15.061  12.020
 3199ETHO   H2124769   8.764  15.164  11.982
 3199ETHO   H2324770   8.799  15.049  12.117
 3200ETHO    O124771   8.608  15.028  12.043
 3200ETHO    C124772   8.535  15.150  12.017
 3200ETHO   H1124773   8.574  15.223  12.092
 3200ETHO   H1324774   8.555  15.190  11.915
 3200ETHO    C224775   8.387  15.126  12.032
 3200ETHO   H2124776   8.332  15.217  12.062
 3200ETHO   H2324777   8.370  15.051  12.112
 3201ETHO    O124778   8.331  15.065  11.916
 3201ETHO    C124779   8.187  15.080  11.924
 3201ETHO   H1124780   8.148  15.182  11.947
 3201ETHO   H1324781   8.153  15.012  12.006
 3201ETHO    C224782   8.131  15.024  11.793
 3201ETHO   H2124783   8.020  15.014  11.791
 3201ETHO   H2324784   8.170  14.921  11.779
 3202ETHO    O124785   8.165  15.105  11.680
 3202ETHO    C124786   8.072  15.211  11.657
 3202ETHO   H1124787   7.970  15.169  11.643
 3202ETHO   H1324788   8.070  15.277  11.746
 3202ETHO    C224789   8.122  15.309  11.549
 3202ETHO   H2124790   8.046  15.390  11.548
 3202ETHO   H2324791   8.220  15.353  11.578
 3203ETHO    O124792   8.128  15.255  11.417
 3203ETHO    C124793   7.998  15.200  11.377
 3203ETHO   H1124794   7.923  15.279  11.401
 3203ETHO   H1324795   7.970  15.119  11.449
 3203ETHO    C224796   7.982  15.167  11.227
 3203ETHO   H2124797   8.040  15.240  11.167
 3203ETHO   H2324798   7.875  15.185  11.201
 3204ETHO    O124799   8.002  15.024  11.194
 3204ETHO    C124800   8.066  15.004  11.067
 3204ETHO   H1124801   8.006  15.043  10.983
 3204ETHO   H1324802   8.165  15.055  11.072
 3204ETHO    C224803   8.080  14.849  11.043
 3204ETHO   H2124804   8.082  14.832  10.933
 3204ETHO   H2324805   7.984  14.814  11.086
 3205ETHO    O124806   8.182  14.800  11.115
 3205ETHO    C124807   8.163  14.656  11.125
 3205ETHO   H1124808   8.069  14.630  11.177
 3205ETHO   H1324809   8.251  14.625  11.184
 3205ETHO    C224810   8.176  14.585  10.983
 3205ETHO   H2124811   8.197  14.476  10.980
 3205ETHO   H2324812   8.258  14.636  10.927
 3206ETHO    O124813   8.048  14.599  10.916
 3206ETHO    C124814   8.052  14.552  10.781
 3206ETHO   H1124815   7.978  14.604  10.717
 3206ETHO   H1324816   8.149  14.585  10.738
 3206ETHO    C224817   8.043  14.399  10.761
 3206ETHO   H2124818   8.115  14.339  10.820
 3206ETHO   H2324819   8.094  14.383  10.663
 3207ETHO    O124820   7.912  14.339  10.749
 3207ETHO    C124821   7.910  14.213  10.681
 3207ETHO   H1124822   7.947  14.134  10.750
 3207ETHO   H1324823   7.987  14.218  10.601
 3207ETHO    C224824   7.762  14.175  10.645
 3207ETHO   H2124825   7.692  14.215  10.721
 3207ETHO   H2324826   7.756  14.066  10.624
 3208ETHO    O124827   7.734  14.225  10.518
 3208ETHO    C124828   7.696  14.363  10.510
 3208ETHO   H1124829   7.618  14.393  10.583
 3208ETHO   H1324830   7.776  14.427  10.555
 3208ETHO    C224831   7.658  14.409  10.369
 3208ETHO   H2124832   7.603  14.505  10.377
 3208ETHO   H2324833   7.589  14.332  10.328
 3209ETHO    O124834   7.765  14.427  10.279
 3209ETHO    C124835   7.718  14.478  10.151
 3209ETHO   H1124836   7.677  14.581  10.154
 3209ETHO   H1324837   7.641  14.407  10.112
 3209ETHO    C224838   7.827  14.461  10.044
 3209ETHO   H2124839   7.926  14.501  10.075
 3209ETHO   H2324840   7.793  14.518   9.954
 3210ETHO    O124841   7.839  14.327  10.003
 3210ETHO    C124842   7.974  14.286   9.966
 3210ETHO   H1124843   8.010  14.332   9.871
 3210ETHO   H1324844   8.035  14.318  10.053
 3210ETHO    C224845   7.994  14.139   9.961
 3210ETHO   H2124846   7.965  14.109  10.065
 3210ETHO   H2324847   8.103  14.117   9.956
 3211ETHO    O124848   7.916  14.079   9.855
 3211ETHO    C124849   8.001  14.047   9.740
 3211ETHO   H1124850   8.068  14.133   9.721
 3211ETHO   H1324851   8.060  13.954   9.753
 3211ETHO    C224852   7.914  14.027   9.610
 3211ETHO   H2124853   7.852  14.118   9.592
 3211ETHO   H2324854   7.852  13.938   9.631
 3212ETHO    O124855   7.985  14.004   9.490
 3212ETHO    C124856   7.893  13.970   9.381
 3212ETHO   H1124857   7.953  13.940   9.292
 3212ETHO   H1324858   7.831  13.885   9.417
 3212ETHO    C224859   7.809  14.090   9.333
 3212ETHO   H2124860   7.733  14.122   9.407
 3212ETHO   H2324861   7.758  14.051   9.242
 3213ETHO    O124862   7.891  14.184   9.280
 3213ETHO    C124863   7.817  14.291   9.225
 3213ETHO   H1124864   7.710  14.261   9.223
 3213ETHO   H1324865   7.825  14.381   9.289
 3213ETHO    C224866   7.875  14.311   9.085
 3213ETHO   H2124867   7.986  14.314   9.086
 3213ETHO   H2324868   7.839  14.409   9.047
 3214ETHO    O124869   7.845  14.209   8.991
 3214ETHO    C124870   7.868  14.267   8.863
 3214ETHO   H1124871   7.970  14.312   8.857
 3214ETHO   H1324872   7.796  14.351   8.860
 3214ETHO    C224873   7.852  14.169   8.743
 3214ETHO   H2124874   7.759  14.111   8.760
 3214ETHO   H2324875   7.938  14.100   8.740
 3215ETHO    O124876   7.827  14.252   8.631
 3215ETHO    C124877   7.940  14.312   8.573
 3215ETHO   H1124878   7.971  14.397   8.637
 3215ETHO   H1324879   8.019  14.234   8.571
 3215ETHO    C224880   7.917  14.354   8.419
 3215ETHO   H2124881   8.014  14.385   8.374
 3215ETHO   H2324882   7.833  14.427   8.417
 3216ETHO    O124883   7.877  14.246   8.328
 3216ETHO    C124884   7.855  14.284   8.189
 3216ETHO   H1124885   7.950  14.283   8.130
 3216ETHO   H1324886   7.826  14.391   8.193
 3216ETHO    C224887   7.730  14.218   8.136
 3216ETHO   H2124888   7.734  14.107   8.149
 3216ETHO   H2324889   7.725  14.231   8.026
 3217ETHO    O124890   7.617  14.250   8.204
 3217ETHO    C124891   7.507  14.169   8.154
 3217ETHO   H1124892   7.497  14.178   8.044
 3217ETHO   H1324893   7.530  14.061   8.169
 3217ETHO    C224894   7.374  14.203   8.210
 3217ETHO   H2124895   7.367  14.204   8.321
 3217ETHO   H2324896   7.310  14.118   8.178
 3218ETHO    O124897   7.296  14.311   8.152
 3218ETHO    C124898   7.161  14.314   8.205
 3218ETHO   H1124899   7.175  14.351   8.309
 3218ETHO   H1324900   7.118  14.214   8.228
 3218ETHO    C224901   7.069  14.414   8.135
 3218ETHO   H2124902   7.122  14.508   8.109
 3218ETHO   H2324903   6.992  14.444   8.210
 3219ETHO    O124904   7.010  14.350   8.022
 3219ETHO    C124905   6.891  14.277   8.049
 3219ETHO   H1124906   6.884  14.265   8.159
 3219ETHO   H1324907   6.807  14.323   7.992
 3219ETHO    C224908   6.921  14.133   7.988
 3219ETHO   H2124909   6.992  14.143   7.903
 3219ETHO   H2324910   6.831  14.079   7.951
 3220ETHO    O124911   6.982  14.046   8.079
 3220ETHO    C124912   6.898  13.973   8.165
 3220ETHO   H1124913   6.842  13.903   8.099
 3220ETHO   H1324914   6.825  14.039   8.216
 3220ETHO    C224915   6.963  13.888   8.273
 3220ETHO   H2124916   7.031  13.808   8.236
 3220ETHO   H2324917   6.880  13.846   8.333
 3221ETHO    O124918   7.043  13.980   8.357
 3221ETHO    C124919   7.118  13.904   8.453
 3221ETHO   H1124920   7.069  13.813   8.495
 3221ETHO   H1324921   7.213  13.878   8.401
 3221ETHO    C224922   7.166  14.005   8.565
 3221ETHO   H2124923   7.211  13.952   8.653
 3221ETHO   H2324924   7.078  14.052   8.614
 3222ETHO    O124925   7.262  14.104   8.511
 3222ETHO    C124926   7.313  14.179   8.622
 3222ETHO   H1124927   7.232  14.208   8.692
 3222ETHO   H1324928   7.379  14.106   8.675
 3222ETHO    C224929   7.413  14.295   8.588
 3222ETHO   H2124930   7.394  14.353   8.495
 3222ETHO   H2324931   7.513  14.247   8.578
 3223ETHO    O124932   7.417  14.378   8.705
 3223ETHO    C124933   7.536  14.468   8.711
 3223ETHO   H1124934   7.618  14.407   8.754
 3223ETHO   H1324935   7.575  14.495   8.610
 3223ETHO    C224936   7.510  14.580   8.803
 3223ETHO   H2124937   7.480  14.523   8.893
 3223ETHO   H2324938   7.428  14.648   8.771
 3224ETHO    O124939   7.631  14.642   8.825
 3224ETHO    C124940   7.614  14.781   8.852
 3224ETHO   H1124941   7.549  14.782   8.941
 3224ETHO   H1324942   7.712  14.828   8.876
 3224ETHO    C224943   7.572  14.864   8.725
 3224ETHO   H2124944   7.631  14.824   8.640
 3224ETHO   H2324945   7.607  14.967   8.748
 3225ETHO    O124946   7.433  14.872   8.691
 3225ETHO    C124947   7.420  14.916   8.558
 3225ETHO   H1124948   7.435  14.836   8.482
 3225ETHO   H1324949   7.497  14.993   8.536
 3225ETHO    C224950   7.280  14.975   8.519
 3225ETHO   H2124951   7.187  14.914   8.524
 3225ETHO   H2324952   7.276  15.005   8.413
 3226ETHO    O124953   7.254  15.082   8.607
 3226ETHO    C124954   7.128  15.144   8.580
 3226ETHO   H1124955   7.133  15.197   8.482
 3226ETHO   H1324956   7.053  15.063   8.582
 3226ETHO    C224957   7.077  15.242   8.688
 3226ETHO   H2124958   6.968  15.258   8.669
 3226ETHO   H2324959   7.132  15.336   8.672
 3227ETHO    O124960   7.099  15.192   8.823
 3227ETHO    C124961   7.060  15.286   8.919
 3227ETHO   H1124962   6.962  15.332   8.895
 3227ETHO   H1324963   7.136  15.367   8.915
 3227ETHO    C224964   7.050  15.216   9.051
 3227ETHO   H2124965   6.975  15.134   9.043
 3227ETHO   H2324966   7.029  15.290   9.131
 3228ETHO    O124967   7.175  15.152   9.087
 3228ETHO    C124968   7.171  15.088   9.217
 3228ETHO   H1124969   7.237  15.157   9.272
 3228ETHO   H1324970   7.066  15.090   9.254
 3228ETHO    C224971   7.230  14.948   9.218
 3228ETHO   H2124972   7.334  14.959   9.182
 3228ETHO   H2324973   7.232  14.915   9.325
 3229ETHO    O124974   7.154  14.845   9.155
 3229ETHO    C124975   7.191  14.712   9.195
 3229ETHO   H1124976   7.124  14.643   9.138
 3229ETHO   H1324977   7.169  14.701   9.304
 3229ETHO    C224978   7.341  14.686   9.155
 3229ETHO   H2124979   7.395  14.729   9.242
 3229ETHO   H2324980   7.370  14.727   9.056
 3230ETHO    O124981   7.357  14.545   9.129
 3230ETHO    C124982   7.483  14.499   9.159
 3230ETHO   H1124983   7.530  14.438   9.078
 3230ETHO   H1324984   7.556  14.582   9.168
 3230ETHO    C224985   7.485  14.421   9.294
 3230ETHO   H2124986   7.444  14.476   9.381
 3230ETHO   H2324987   7.590  14.410   9.329
 3231ETHO    O124988   7.425  14.299   9.281
 3231ETHO    C124989   7.411  14.237   9.409
 3231ETHO   H1124990   7.332  14.289   9.467
 3231ETHO   H1324991   7.512  14.238   9.455
 3231ETHO    C224992   7.361  14.090   9.387
 3231ETHO   H2124993   7.260  14.083   9.342
 3231ETHO   H2324994   7.355  14.035   9.483
 3232ETHO    O124995   7.457  14.015   9.308
 3232ETHO    C124996   7.413  13.886   9.275
 3232ETHO   H1124997   7.396  13.825   9.367
 3232ETHO   H1324998   7.322  13.892   9.212
 3232ETHO    C224999   7.527  13.828   9.183
 3232ETHO   H2125000   7.515  13.718   9.178
 3232ETHO   H2325001   7.629  13.847   9.223
 3233ETHO    O125002   7.519  13.875   9.044
 3233ETHO    C125003   7.577  14.006   9.025
 3233ETHO   H1125004   7.580  14.052   9.127
 3233ETHO   H1325005   7.684  13.984   9.005
 3233ETHO    C225006   7.506  14.093   8.921
 3233ETHO   H2125007   7.551  14.063   8.823
 3233ETHO   H2325008   7.530  14.200   8.933
 3234ETHO    O125009   7.366  14.082   8.912
 3234ETHO    C125010   7.312  14.191   8.984
 3234ETHO   H1125011   7.377  14.219   9.070
 3234ETHO   H1325012   7.308  14.273   8.910
 3234ETHO    C225013   7.174  14.161   9.035
 3234ETHO   H2125014   7.135  14.255   9.080
 3234ETHO   H2325015   7.182  14.078   9.109
 3235ETHO    O125016   7.073  14.130   8.935
 3235ETHO    C125017   6.943  14.107   8.995
 3235ETHO   H1125018   6.949  14.013   9.054
 3235ETHO   H1325019   6.921  14.193   9.061
 3235ETHO    C225020   6.854  14.086   8.874
 3235ETHO   H2125021   6.753  14.059   8.910
 3235ETHO   H2325022   6.850  14.178   8.813
 3236ETHO    O125023   6.889  13.972   8.792
 3236ETHO    C125024   6.808  13.975   8.670
 3236ETHO   H1125025   6.861  14.043   8.600
 3236ETHO   H1325026   6.709  14.017   8.696
 3236ETHO    C225027   6.780  13.831   8.613
 3236ETHO   H2125028   6.876  13.774   8.609
 3236ETHO   H2325029   6.751  13.832   8.506
 3237ETHO    O125030   6.688  13.750   8.691
 3237ETHO    C125031   6.680  13.620   8.645
 3237ETHO   H1125032   6.777  13.590   8.600
 3237ETHO   H1325033   6.641  13.547   8.720
 3237ETHO    C225034   6.578  13.617   8.539
 3237ETHO   H2125035   6.477  13.651   8.571
 3237ETHO   H2325036   6.557  13.509   8.518
 3238ETHO    O125037   6.609  13.677   8.418
 3238ETHO    C125038   6.537  13.628   8.305
 3238ETHO   H1125039   6.433  13.599   8.330
 3238ETHO   H1325040   6.585  13.534   8.272
 3238ETHO    C225041   6.531  13.738   8.199
 3238ETHO   H2125042   6.504  13.684   8.106
 3238ETHO   H2325043   6.630  13.785   8.184
 3239ETHO    O125044   6.439  13.847   8.227
 3239ETHO    C125045   6.432  13.949   8.130
 3239ETHO   H1125046   6.526  14.010   8.131
 3239ETHO   H1325047   6.426  13.892   8.035
 3239ETHO    C225048   6.316  14.049   8.136
 3239ETHO   H2125049   6.220  13.995   8.154
 3239ETHO   H2325050   6.316  14.112   8.045
 3240ETHO    O125051   6.333  14.126   8.252
 3240ETHO    C125052   6.261  14.247   8.255
 3240ETHO   H1125053   6.227  14.274   8.358
 3240ETHO   H1325054   6.165  14.251   8.198
 3240ETHO    C225055   6.354  14.352   8.202
 3240ETHO   H2125056   6.311  14.454   8.193
 3240ETHO   H2325057   6.385  14.313   8.103
 3241ETHO    O125058   6.468  14.367   8.288
 3241ETHO    C125059   6.579  14.443   8.238
 3241ETHO   H1125060   6.620  14.394   8.147
 3241ETHO   H1325061   6.552  14.547   8.211
 3241ETHO    C225062   6.691  14.464   8.339
 3241ETHO   H2125063   6.640  14.507   8.428
 3241ETHO   H2325064   6.778  14.525   8.305
 3242ETHO    O125065   6.738  14.331   8.363
 3242ETHO    C125066   6.789  14.303   8.495
 3242ETHO   H1125067   6.772  14.193   8.507
 3242ETHO   H1325068   6.722  14.352   8.568
 3242ETHO    C225069   6.932  14.349   8.513
 3242ETHO   H2125070   6.993  14.329   8.423
 3242ETHO   H2325071   6.972  14.284   8.594
 3243ETHO    O125072   6.941  14.483   8.554
 3243ETHO    C125073   7.078  14.529   8.534
 3243ETHO   H1125074   7.149  14.444   8.541
 3243ETHO   H1325075   7.092  14.584   8.439
 3243ETHO    C225076   7.113  14.615   8.658
 3243ETHO   H2125077   7.198  14.681   8.632
 3243ETHO   H2325078   7.134  14.552   8.748
 3244ETHO    O125079   7.006  14.695   8.702
 3244ETHO    C125080   7.045  14.794   8.793
 3244ETHO   H1125081   7.123  14.850   8.737
 3244ETHO   H1325082   7.090  14.740   8.879
 3244ETHO    C225083   6.927  14.886   8.841
 3244ETHO   H2125084   6.967  14.965   8.908
 3244ETHO   H2325085   6.860  14.809   8.883
 3245ETHO    O125086   6.849  14.936   8.731
 3245ETHO    C125087   6.782  15.063   8.761
 3245ETHO   H1125088   6.863  15.134   8.788
 3245ETHO   H1325089   6.734  15.109   8.671
 3245ETHO    C225090   6.675  15.049   8.874
 3245ETHO   H2125091   6.637  14.946   8.866
 3245ETHO   H2325092   6.596  15.125   8.856
 3246ETHO    O125093   6.735  15.060   8.995
 3246ETHO    C125094   6.632  15.077   9.090
 3246ETHO   H1125095   6.536  15.027   9.066
 3246ETHO   H1325096   6.605  15.184   9.085
 3246ETHO    C225097   6.679  15.043   9.233
 3246ETHO   H2125098   6.602  15.076   9.305
 3246ETHO   H2325099   6.779  15.091   9.243
 3247ETHO    O125100   6.684  14.899   9.239
 3247ETHO    C125101   6.817  14.846   9.239
 3247ETHO   H1125102   6.810  14.749   9.185
 3247ETHO   H1325103   6.876  14.915   9.175
 3247ETHO    C225104   6.866  14.827   9.384
 3247ETHO   H2125105   6.830  14.918   9.437
 3247ETHO   H2325106   6.977  14.829   9.380
 3248ETHO    O125107   6.818  14.711   9.451
 3248ETHO    C125108   6.874  14.680   9.577
 3248ETHO   H1125109   6.983  14.693   9.563
 3248ETHO   H1325110   6.826  14.748   9.651
 3248ETHO    C225111   6.845  14.536   9.611
 3248ETHO   H2125112   6.738  14.504   9.613
 3248ETHO   H2325113   6.878  14.519   9.716
 3249ETHO    O125114   6.915  14.455   9.520
 3249ETHO    C125115   6.869  14.322   9.511
 3249ETHO   H1125116   6.951  14.248   9.511
 3249ETHO   H1325117   6.814  14.302   9.605
 3249ETHO    C225118   6.777  14.308   9.391
 3249ETHO   H2125119   6.690  14.375   9.406
 3249ETHO   H2325120   6.732  14.206   9.396
 3250ETHO    O125121   6.819  14.324   9.252
 3250ETHO    C125122   6.849  14.461   9.225
 3250ETHO   H1125123   6.764  14.525   9.258
 3250ETHO   H1325124   6.937  14.496   9.283
 3250ETHO    C225125   6.880  14.479   9.073
 3250ETHO   H2125126   6.943  14.392   9.045
 3250ETHO   H2325127   6.929  14.578   9.061
 3251ETHO    O125128   6.755  14.481   9.008
 3251ETHO    C125129   6.774  14.481   8.865
 3251ETHO   H1125130   6.781  14.377   8.828
 3251ETHO   H1325131   6.873  14.525   8.839
 3251ETHO    C225132   6.677  14.566   8.791
 3251ETHO   H2125133   6.719  14.582   8.690
 3251ETHO   H2325134   6.658  14.669   8.829
 3252ETHO    O125135   6.547  14.504   8.779
 3252ETHO    C125136   6.460  14.579   8.702
 3252ETHO   H1125137   6.431  14.666   8.766
 3252ETHO   H1325138   6.506  14.602   8.604
 3252ETHO    C225139   6.331  14.498   8.685
 3252ETHO   H2125140   6.288  14.471   8.783
 3252ETHO   H2325141   6.355  14.403   8.634
 3253ETHO    O125142   6.252  14.578   8.603
 3253ETHO    C125143   6.127  14.523   8.573
 3253ETHO   H1125144   6.080  14.508   8.673
 3253ETHO   H1325145   6.148  14.425   8.527
 3253ETHO    C225146   6.030  14.603   8.481
 3253ETHO   H2125147   5.939  14.540   8.483
 3253ETHO   H2325148   6.076  14.604   8.379
 3254ETHO    O125149   6.008  14.736   8.512
 3254ETHO    C125150   5.935  14.750   8.632
 3254ETHO   H1125151   5.850  14.679   8.642
 3254ETHO   H1325152   6.002  14.735   8.719
 3254ETHO    C225153   5.878  14.898   8.637
 3254ETHO   H2125154   5.937  14.966   8.572
 3254ETHO   H2325155   5.894  14.933   8.741
 3255ETHO    O125156   5.737  14.908   8.610
 3255ETHO    C125157   5.705  15.041   8.578
 3255ETHO   H1125158   5.777  15.066   8.497
 3255ETHO   H1325159   5.723  15.100   8.671
 3255ETHO    C225160   5.557  15.043   8.542
 3255ETHO   H2125161   5.545  14.989   8.446
 3255ETHO   H2325162   5.524  15.144   8.511
 3256ETHO    O125163   5.466  15.011   8.643
 3256ETHO    C125164   5.333  15.049   8.615
 3256ETHO   H1125165   5.277  15.022   8.708
 3256ETHO   H1325166   5.326  15.160   8.612
 3256ETHO    C225167   5.272  14.989   8.498
 3256ETHO   H2125168   5.161  14.986   8.498
 3256ETHO   H2325169   5.313  14.886   8.497
 3257ETHO    O125170   5.295  15.063   8.377
 3257ETHO    C125171   5.281  14.986   8.260
 3257ETHO   H1125172   5.181  14.939   8.255
 3257ETHO   H1325173   5.360  14.909   8.273
 3257ETHO    C225174   5.300  15.056   8.121
 3257ETHO   H2125175   5.279  15.164   8.139
 3257ETHO   H2325176   5.230  15.016   8.045
 3258ETHO    O125177   5.437  15.059   8.083
 3258ETHO    C125178   5.458  15.135   7.968
 3258ETHO   H1125179   5.408  15.077   7.888
 3258ETHO   H1325180   5.430  15.243   7.968
 3258ETHO    C225181   5.602  15.127   7.935
 3258ETHO   H2125182   5.626  15.173   7.836
 3258ETHO   H2325183   5.644  15.024   7.931
 3259ETHO    O125184   5.689  15.205   8.018
 3259ETHO    C125185   5.826  15.202   7.975
 3259ETHO   H1125186   5.869  15.101   7.988
 3259ETHO   H1325187   5.832  15.224   7.866
 3259ETHO    C225188   5.914  15.313   8.048
 3259ETHO   H2125189   5.866  15.402   8.002
 3259ETHO   H2325190   6.023  15.320   8.032
 3260ETHO    O125191   5.906  15.312   8.188
 3260ETHO    C125192   5.974  15.425   8.254
 3260ETHO   H1125193   6.082  15.403   8.242
 3260ETHO   H1325194   5.941  15.518   8.202
 3260ETHO    C225195   5.944  15.436   8.406
 3260ETHO   H2125196   5.839  15.468   8.420
 3260ETHO   H2325197   6.008  15.515   8.451
 3261ETHO    O125198   5.963  15.316   8.477
 3261ETHO    C125199   5.916  15.328   8.615
 3261ETHO   H1125200   5.821  15.385   8.626
 3261ETHO   H1325201   5.907  15.224   8.653
 3261ETHO    C225202   6.014  15.397   8.711
 3261ETHO   H2125203   6.025  15.502   8.673
 3261ETHO   H2325204   5.962  15.396   8.809
 3262ETHO    O125205   6.141  15.328   8.732
 3262ETHO    C125206   6.220  15.372   8.840
 3262ETHO   H1125207   6.151  15.384   8.926
 3262ETHO   H1325208   6.268  15.469   8.815
 3262ETHO    C225209   6.341  15.281   8.874
 3262ETHO   H2125210   6.390  15.336   8.958
 3262ETHO   H2325211   6.410  15.278   8.786
 3263ETHO    O125212   6.298  15.151   8.913
 3263ETHO    C125213   6.267  15.060   8.812
 3263ETHO   H1125214   6.183  15.087   8.745
 3263ETHO   H1325215   6.359  15.055   8.749
 3263ETHO    C225216   6.239  14.918   8.869
 3263ETHO   H2125217   6.257  14.849   8.783
 3263ETHO   H2325218   6.140  14.896   8.913
 3264ETHO    O125219   6.339  14.885   8.962
 3264ETHO    C125220   6.315  14.757   9.015
 3264ETHO   H1125221   6.287  14.697   8.926
 3264ETHO   H1325222   6.232  14.778   9.087
 3264ETHO    C225223   6.429  14.684   9.091
 3264ETHO   H2125224   6.477  14.746   9.170
 3264ETHO   H2325225   6.512  14.664   9.020
 3265ETHO    O125226   6.367  14.565   9.150
 3265ETHO    C125227   6.425  14.528   9.277
 3265ETHO   H1125228   6.535  14.538   9.264
 3265ETHO   H1325229   6.386  14.609   9.342
 3265ETHO    C225230   6.361  14.400   9.326
 3265ETHO   H2125231   6.251  14.399   9.311
 3265ETHO   H2325232   6.372  14.389   9.436
 3266ETHO    O125233   6.424  14.283   9.278
 3266ETHO    C125234   6.369  14.168   9.341
 3266ETHO   H1125235   6.260  14.163   9.324
 3266ETHO   H1325236   6.382  14.176   9.451
 3266ETHO    C225237   6.446  14.035   9.300
 3266ETHO   H2125238   6.452  14.019   9.190
 3266ETHO   H2325239   6.394  13.943   9.333
 3267ETHO    O125240   6.580  14.040   9.341
 3267ETHO    C125241   6.658  13.955   9.252
 3267ETHO   H1125242   6.589  13.896   9.188
 3267ETHO   H1325243   6.710  14.016   9.175
 3267ETHO    C225244   6.762  13.880   9.335
 3267ETHO   H2125245   6.813  13.800   9.277
 3267ETHO   H2325246   6.710  13.821   9.413
 3268ETHO    O125247   6.853  13.968   9.403
 3268ETHO    C125248   6.948  13.898   9.482
 3268ETHO   H1125249   7.009  13.834   9.414
 3268ETHO   H1325250   6.901  13.822   9.547
 3268ETHO    C225251   7.034  13.999   9.556
 3268ETHO   H2125252   7.081  14.077   9.492
 3268ETHO   H2325253   7.111  13.944   9.615
 3269ETHO    O125254   6.953  14.061   9.655
 3269ETHO    C125255   7.034  14.112   9.758
 3269ETHO   H1125256   7.091  14.027   9.801
 3269ETHO   H1325257   7.103  14.190   9.720
 3269ETHO    C225258   6.967  14.175   9.876
 3269ETHO   H2125259   6.879  14.117   9.912
 3269ETHO   H2325260   6.928  14.275   9.848
 3270ETHO    O125261   7.071  14.195   9.975
 3270ETHO    C125262   7.060  14.099  10.078
 3270ETHO   H1125263   6.967  14.118  10.136
 3270ETHO   H1325264   7.046  13.998  10.033
 3270ETHO    C225265   7.176  14.109  10.177
 3270ETHO   H2125266   7.169  14.045  10.267
 3270ETHO   H2325267   7.174  14.215  10.210
 3271ETHO    O125268   7.303  14.088  10.105
 3271ETHO    C125269   7.373  13.979  10.162
 3271ETHO   H1125270   7.362  13.982  10.272
 3271ETHO   H1325271   7.326  13.886  10.122
 3271ETHO    C225272   7.517  13.978  10.125
 3271ETHO   H2125273   7.557  14.080  10.141
 3271ETHO   H2325274   7.519  13.949  10.017
 3272ETHO    O125275   7.596  13.887  10.194
 3272ETHO    C125276   7.738  13.914  10.158
 3272ETHO   H1125277   7.759  13.877  10.055
 3272ETHO   H1325278   7.753  14.023  10.176
 3272ETHO    C225279   7.828  13.838  10.261
 3272ETHO   H2125280   7.824  13.729  10.240
 3272ETHO   H2325281   7.794  13.865  10.363
 3273ETHO    O125282   7.962  13.892  10.256
 3273ETHO    C125283   7.992  13.995  10.348
 3273ETHO   H1125284   7.957  13.964  10.449
 3273ETHO   H1325285   7.926  14.081  10.322
 3273ETHO    C225286   8.141  14.033  10.358
 3273ETHO   H2125287   8.167  14.122  10.297
 3273ETHO   H2325288   8.215  13.954  10.331
 3274ETHO    O125289   8.167  14.066  10.502
 3274ETHO    C125290   8.295  14.120  10.523
 3274ETHO   H1125291   8.366  14.058  10.465
 3274ETHO   H1325292   8.290  14.230  10.508
 3274ETHO    C225293   8.322  14.098  10.670
 3274ETHO   H2125294   8.250  14.154  10.734
 3274ETHO   H2325295   8.415  14.156  10.692
 3275ETHO    O125296   8.345  13.965  10.712
 3275ETHO    C125297   8.296  13.933  10.842
 3275ETHO   H1125298   8.287  13.822  10.848
 3275ETHO   H1325299   8.195  13.978  10.855
 3275ETHO    C225300   8.395  13.984  10.957
 3275ETHO   H2125301   8.378  14.091  10.981
 3275ETHO   H2325302   8.499  13.959  10.926
 3276ETHO    O125303   8.379  13.912  11.075
 3276ETHO    C125304   8.478  13.949  11.176
 3276ETHO   H1125305   8.582  13.913  11.157
 3276ETHO   H1325306   8.480  14.060  11.180
 3276ETHO    C225307   8.432  13.902  11.314
 3276ETHO   H2125308   8.322  13.888  11.302
 3276ETHO   H2325309   8.457  13.981  11.388
 3277ETHO    O125310   8.485  13.778  11.356
 3277ETHO    C125311   8.464  13.767  11.495
 3277ETHO   H1125312   8.359  13.789  11.526
 3277ETHO   H1325313   8.534  13.839  11.542
 3277ETHO    C225314   8.494  13.626  11.554
 3277ETHO   H2125315   8.420  13.550  11.519
 3277ETHO   H2325316   8.467  13.646  11.660
 3278ETHO    O125317   8.633  13.592  11.539
 3278ETHO    C125318   8.679  13.481  11.614
 3278ETHO   H1125319   8.786  13.496  11.637
 3278ETHO   H1325320   8.614  13.464  11.703
 3278ETHO    C225321   8.671  13.347  11.537
 3278ETHO   H2125322   8.725  13.267  11.593
 3278ETHO   H2325323   8.729  13.366  11.444
 3279ETHO    O125324   8.545  13.295  11.514
 3279ETHO    C125325   8.545  13.175  11.444
 3279ETHO   H1125326   8.442  13.134  11.452
 3279ETHO   H1325327   8.624  13.109  11.486
 3279ETHO    C225328   8.580  13.190  11.296
 3279ETHO   H2125329   8.588  13.091  11.247
 3279ETHO   H2325330   8.680  13.237  11.280
 3280ETHO    O125331   8.478  13.256  11.227
 3280ETHO    C125332   8.493  13.399  11.238
 3280ETHO   H1125333   8.465  13.430  11.340
 3280ETHO   H1325334   8.601  13.425  11.226
 3280ETHO    C225335   8.410  13.456  11.127
 3280ETHO   H2125336   8.378  13.557  11.162
 3280ETHO   H2325337   8.314  13.404  11.106
 3281PROX    O125338   8.481  13.473  11.009
 3281PROX    C125339   8.486  13.352  10.930
 3281PROX   H1125340   8.539  13.274  10.988
 3281PROX   H1325341   8.379  13.327  10.914
 3281PROX    C225342   8.565  13.372  10.795
 3281PROX   H2125343   8.673  13.394  10.811
 3281PROX    C325344   8.512  13.494  10.721
 3281PROX   H3125345   8.537  13.589  10.773
 3281PROX   H3225346   8.558  13.496  10.620
 3281PROX   H3325347   8.402  13.481  10.709
 3282PROX    O125348   8.546  13.251  10.712
 3282PROX    C125349   8.617  13.130  10.764
 3282PROX   H1125350   8.586  13.123  10.871
 3282PROX   H1325351   8.594  13.031  10.718
 3282PROX    C225352   8.768  13.143  10.755
 3282PROX   H2125353   8.813  13.206  10.834
 3282PROX    C325354   8.813  13.182  10.613
 3282PROX   H3125355   8.776  13.107  10.540
 3282PROX   H3225356   8.786  13.282  10.572
 3282PROX   H3325357   8.924  13.178  10.611
 3283PROX    O125358   8.825  13.010  10.774
 3283PROX    C125359   8.830  12.969  10.912
 3283PROX   H1125360   8.881  13.047  10.972
 3283PROX   H1325361   8.723  12.954  10.938
 3283PROX    C225362   8.921  12.849  10.937
 3283PROX   H2125363   9.021  12.875  10.895
 3283PROX    C325364   8.871  12.730  10.862
 3283PROX   H3125365   8.770  12.697  10.896
 3283PROX   H3225366   8.862  12.750  10.753
 3283PROX   H3325367   8.939  12.648  10.895
 3284PROX    O125368   8.926  12.818  11.074
 3284PROX    C125369   9.028  12.884  11.151
 3284PROX   H1125370   9.129  12.845  11.125
 3284PROX   H1325371   9.022  12.992  11.125
 3284PROX    C225372   9.011  12.866  11.305
 3284PROX   H2125373   9.034  12.761  11.332
 3284PROX    C325374   8.872  12.907  11.339
 3284PROX   H3125375   8.843  12.993  11.276
 3284PROX   H3225376   8.794  12.829  11.331
 3284PROX   H3325377   8.869  12.949  11.441
 3285PROX    O125378   9.097  12.960  11.369
 3285PROX    C125379   9.236  12.917  11.377
 3285PROX   H1125380   9.271  12.913  11.482
 3285PROX   H1325381   9.251  12.815  11.336
 3285PROX    C225382   9.340  13.012  11.297
 3285PROX   H2125383   9.440  12.977  11.331
 3285PROX    C325384   9.342  13.156  11.349
 3285PROX   H3125385   9.253  13.206  11.305
 3285PROX   H3225386   9.337  13.170  11.459
 3285PROX   H3325387   9.432  13.210  11.313
 3286PROX    O125388   9.325  13.000  11.159
 3286PROX    C125389   9.421  13.073  11.084
 3286PROX   H1125390   9.394  13.179  11.066
 3286PROX   H1325391   9.518  13.080  11.138
 3286PROX    C225392   9.424  13.019  10.935
 3286PROX   H2125393   9.435  12.909  10.933
 3286PROX    C325394   9.537  13.088  10.860
 3286PROX   H3125395   9.514  13.193  10.834
 3286PROX   H3225396   9.630  13.097  10.921
 3286PROX   H3325397   9.559  13.045  10.760
 3287PROX    O125398   9.309  13.056  10.862
 3287PROX    C125399   9.289  12.978  10.748
 3287PROX   H1125400   9.368  13.001  10.673
 3287PROX   H1325401   9.286  12.870  10.775
 3287PROX    C225402   9.160  13.011  10.665
 3287PROX   H2125403   9.073  13.036  10.730
 3287PROX    C325404   9.120  12.886  10.588
 3287PROX   H3125405   9.049  12.918  10.508
 3287PROX   H3225406   9.199  12.823  10.541
 3287PROX   H3325407   9.069  12.822  10.663
 3288PROX    O125408   9.192  13.122  10.580
 3288PROX    C125409   9.201  13.252  10.640
 3288PROX   H1125410   9.125  13.258  10.720
 3288PROX   H1325411   9.298  13.266  10.693
 3288PROX    C225412   9.182  13.376  10.540
 3288PROX   H2125413   9.086  13.348  10.492
 3288PROX    C325414   9.289  13.371  10.435
 3288PROX   H3125415   9.388  13.387  10.482
 3288PROX   H3225416   9.284  13.278  10.375
 3288PROX   H3325417   9.269  13.456  10.366
 3289PROX    O125418   9.180  13.495  10.621
 3289PROX    C125419   9.123  13.615  10.555
 3289PROX   H1125420   9.170  13.626  10.455
 3289PROX   H1325421   9.015  13.590  10.546
 3289PROX    C225422   9.135  13.745  10.635
 3289PROX   H2125423   9.240  13.778  10.616
 3289PROX    C325424   9.120  13.712  10.787
 3289PROX   H3125425   9.120  13.799  10.855
 3289PROX   H3225426   9.041  13.636  10.808
 3289PROX   H3325427   9.217  13.668  10.817
 3290PROX    O125428   9.045  13.846  10.582
 3290PROX    C125429   8.905  13.824  10.621
 3290PROX   H1125430   8.864  13.722  10.606
 3290PROX   H1325431   8.906  13.835  10.732
 3290PROX    C225432   8.816  13.929  10.547
 3290PROX   H2125433   8.872  14.025  10.551
 3290PROX    C325434   8.693  13.944  10.630
 3290PROX   H3125435   8.626  14.026  10.597
 3290PROX   H3225436   8.623  13.858  10.634
 3290PROX   H3325437   8.721  13.964  10.736
 3291PROX    O125438   8.776  13.890  10.416
 3291PROX    C125439   8.879  13.911  10.319
 3291PROX   H1125440   8.863  14.012  10.276
 3291PROX   H1325441   8.978  13.888  10.365
 3291PROX    C225442   8.873  13.804  10.207
 3291PROX   H2125443   8.771  13.807  10.164
 3291PROX    C325444   8.894  13.659  10.265
 3291PROX   H3125445   8.824  13.627  10.346
 3291PROX   H3225446   8.900  13.576  10.191
 3291PROX   H3325447   8.994  13.662  10.314
 3292PROX    O125448   8.969  13.834  10.104
 3292PROX    C125449   8.924  13.951  10.029
 3292PROX   H1125450   8.823  13.939   9.982
 3292PROX   H1325451   8.911  14.043  10.089
 3292PROX    C225452   9.020  13.995   9.912
 3292PROX   H2125453   9.124  13.975   9.946
 3292PROX    C325454   9.000  14.145   9.881
 3292PROX   H3125455   8.891  14.157   9.870
 3292PROX   H3225456   9.039  14.201   9.969
 3292PROX   H3325457   9.064  14.181   9.798
 3293PROX    O125458   8.989  13.921   9.790
 3293PROX    C125459   9.062  13.946   9.664
 3293PROX   H1125460   8.981  13.918   9.592
 3293PROX   H1325461   9.096  14.050   9.644
 3293PROX    C225462   9.186  13.851   9.642
 3293PROX   H2125463   9.165  13.765   9.709
 3293PROX    C325464   9.309  13.914   9.700
 3293PROX   H3125465   9.296  13.963   9.799
 3293PROX   H3225466   9.382  13.831   9.712
 3293PROX   H3325467   9.360  13.981   9.627
 3294PROX    O125468   9.207  13.827   9.498
 3294PROX    C125469   9.291  13.710   9.472
 3294PROX   H1125470   9.387  13.725   9.526
 3294PROX   H1325471   9.249  13.615   9.512
 3294PROX    C225472   9.337  13.705   9.332
 3294PROX   H2125473   9.399  13.794   9.308
 3294PROX    C325474   9.221  13.702   9.240
 3294PROX   H3125475   9.134  13.754   9.287
 3294PROX   H3225476   9.245  13.752   9.143
 3294PROX   H3325477   9.177  13.602   9.223
 3295PROX    O125478   9.420  13.585   9.307
 3295PROX    C125479   9.537  13.586   9.384
 3295PROX   H1125480   9.571  13.692   9.395
 3295PROX   H1325481   9.524  13.548   9.488
 3295PROX    C225482   9.655  13.514   9.313
 3295PROX   H2125483   9.658  13.545   9.207
 3295PROX    C325484   9.631  13.359   9.297
 3295PROX   H3125485   9.730  13.327   9.257
 3295PROX   H3225486   9.606  13.325   9.400
 3295PROX   H3325487   9.554  13.334   9.220
 3296PROX    O125488   9.777  13.550   9.377
 3296PROX    C125489   9.802  13.483   9.498
 3296PROX   H1125490   9.719  13.498   9.571
 3296PROX   H1325491   9.825  13.375   9.491
 3296PROX    C225492   9.920  13.552   9.574
 3296PROX   H2125493   9.907  13.662   9.567
 3296PROX    C325494  10.067  13.524   9.528
 3296PROX   H3125495  10.095  13.419   9.550
 3296PROX   H3225496  10.088  13.553   9.423
 3296PROX   H3325497  10.134  13.574   9.601
 3297PROX    O125498   9.913  13.535   9.717
 3297PROX    C125499   9.909  13.408   9.776
 3297PROX   H1125500   9.809  13.389   9.820
 3297PROX   H1325501   9.926  13.324   9.705
 3297PROX    C225502  10.002  13.389   9.897
 3297PROX   H2125503   9.962  13.466   9.967
 3297PROX    C325504  10.148  13.421   9.866
 3297PROX   H3125505  10.186  13.350   9.789
 3297PROX   H3225506  10.163  13.519   9.817
 3297PROX   H3325507  10.213  13.415   9.956
 3298PROX    O125508   9.975  13.257   9.950
 3298PROX    C125509  10.040  13.233  10.074
 3298PROX   H1125510  10.149  13.220  10.051
 3298PROX   H1325511  10.047  13.323  10.137
 3298PROX    C225512   9.984  13.110  10.149
 3298PROX   H2125513  10.048  13.089  10.238
 3298PROX    C325514   9.974  12.985  10.052
 3298PROX   H3125515   9.882  12.999   9.991
 3298PROX   H3225516  10.066  12.983   9.991
 3298PROX   H3325517   9.971  12.889  10.106
 3299PROX    O125518   9.852  13.142  10.186
 3299PROX    C125519   9.801  13.067  10.295
 3299PROX   H1125520   9.808  12.959  10.272
 3299PROX   H1325521   9.857  13.093  10.388
 3299PROX    C225522   9.664  13.124  10.320
 3299PROX   H2125523   9.666  13.226  10.277
 3299PROX    C325524   9.626  13.144  10.465
 3299PROX   H3125525   9.680  13.064  10.519
 3299PROX   H3225526   9.668  13.233  10.517
 3299PROX   H3325527   9.516  13.147  10.481
 3300PROX    O125528   9.569  13.041  10.263
 3300PROX    C125529   9.581  13.032  10.118
 3300PROX   H1125530   9.595  13.129  10.066
 3300PROX   H1325531   9.669  12.969  10.094
 3300PROX    C225532   9.457  12.952  10.074
 3300PROX   H2125533   9.368  13.011  10.104
 3300PROX    C325534   9.435  12.808  10.133
 3300PROX   H3125535   9.523  12.753  10.092
 3300PROX   H3225536   9.458  12.819  10.242
 3300PROX   H3325537   9.332  12.772  10.112
 3301PROX    O125538   9.463  12.949   9.926
 3301PROX    C125539   9.347  12.890   9.871
 3301PROX   H1125540   9.342  12.781   9.888
 3301PROX   H1325541   9.259  12.942   9.913
 3301PROX    C225542   9.346  12.914   9.724
 3301PROX   H2125543   9.387  13.014   9.697
 3301PROX    C325544   9.203  12.907   9.664
 3301PROX   H3125545   9.164  12.806   9.687
 3301PROX   H3225546   9.144  12.989   9.708
 3301PROX   H3325547   9.206  12.925   9.554
 3302PROX    O125548   9.420  12.810   9.650
 3302PROX    C125549   9.565  12.818   9.669
 3302PROX   H1125550   9.597  12.817   9.776
 3302PROX   H1325551   9.618  12.740   9.610
 3302PROX    C225552   9.630  12.952   9.616
 3302PROX   H2125553   9.606  13.043   9.676
 3302PROX    C325554   9.578  12.990   9.483
 3302PROX   H3125555   9.469  12.970   9.471
 3302PROX   H3225556   9.597  13.096   9.458
 3302PROX   H3325557   9.633  12.935   9.403
 3303PROX    O125558   9.767  12.931   9.602
 3303PROX    C125559   9.847  13.031   9.659
 3303PROX   H1125560   9.808  13.134   9.643
 3303PROX   H1325561   9.847  13.014   9.768
 3303PROX    C225562   9.985  13.018   9.595
 3303PROX   H2125563  10.007  12.910   9.589
 3303PROX    C325564  10.097  13.087   9.667
 3303PROX   H3125565  10.134  13.037   9.759
 3303PROX   H3225566  10.176  13.103   9.591
 3303PROX   H3325567  10.065  13.191   9.691
 3304PROX    O125568   9.986  13.062   9.461
 3304PROX    C125569  10.055  12.967   9.378
 3304PROX   H1125570  10.158  12.953   9.418
 3304PROX   H1325571   9.998  12.872   9.376
 3304PROX    C225572  10.046  13.019   9.236
 3304PROX   H2125573   9.941  13.047   9.213
 3304PROX    C325574  10.083  12.898   9.148
 3304PROX   H3125575  10.071  12.923   9.041
 3304PROX   H3225576  10.185  12.859   9.167
 3304PROX   H3325577  10.012  12.813   9.158
 3305PROX    O125578  10.147  13.125   9.206
 3305PROX    C125579  10.120  13.240   9.271
 3305PROX   H1125580  10.025  13.282   9.233
 3305PROX   H1325581  10.119  13.220   9.380
 3305PROX    C225582  10.243  13.341   9.257
 3305PROX   H2125583  10.210  13.432   9.311
 3305PROX    C325584  10.273  13.378   9.111
 3305PROX   H3125585  10.174  13.387   9.061
 3305PROX   H3225586  10.336  13.466   9.088
 3305PROX   H3325587  10.325  13.292   9.065
 3306PROX    O125588  10.362  13.290   9.326
 3306PROX    C125589  10.477  13.372   9.333
 3306PROX   H1125590  10.573  13.316   9.344
 3306PROX   H1325591  10.490  13.424   9.236
 3306PROX    C225592  10.465  13.469   9.454
 3306PROX   H2125593  10.563  13.522   9.454
 3306PROX    C325594  10.435  13.411   9.597
 3306PROX   H3125595  10.425  13.492   9.672
 3306PROX   H3225596  10.340  13.353   9.593
 3306PROX   H3325597  10.512  13.339   9.635
 3307PROX    O125598  10.377  13.575   9.416
 3307PROX    C125599  10.391  13.689   9.502
 3307PROX   H1125600  10.342  13.664   9.598
 3307PROX   H1325601  10.497  13.712   9.528
 3307PROX    C225602  10.326  13.814   9.446
 3307PROX   H2125603  10.226  13.783   9.407
 3307PROX    C325604  10.405  13.883   9.329
 3307PROX   H3125605  10.353  13.950   9.258
 3307PROX   H3225606  10.493  13.944   9.357
 3307PROX   H3325607  10.448  13.806   9.261
 3308PROX    O125608  10.304  13.894   9.557
 3308PROX    C125609  10.234  14.011   9.534
 3308PROX   H1125610  10.292  14.098   9.572
 3308PROX   H1325611  10.217  14.038   9.428
 3308PROX    C225612  10.103  14.003   9.625
 3308PROX   H2125613  10.052  13.909   9.595
 3308PROX    C325614  10.010  14.122   9.606
 3308PROX   H3125615  10.057  14.222   9.607
 3308PROX   H3225616   9.949  14.115   9.513
 3308PROX   H3325617   9.940  14.118   9.692
 3309PROX    O125618  10.131  14.006   9.764
 3309PROX    C125619  10.130  13.877   9.828
 3309PROX   H1125620  10.049  13.819   9.779
 3309PROX   H1325621  10.223  13.819   9.808
 3309PROX    C225622  10.105  13.886   9.978
 3309PROX   H2125623  10.174  13.950  10.037
 3309PROX    C325624  10.115  13.750  10.049
 3309PROX   H3125625  10.132  13.770  10.157
 3309PROX   H3225626  10.023  13.690  10.032
 3309PROX   H3325627  10.205  13.696  10.012
 3310PROX    O125628   9.972  13.933  10.000
 3310PROX    C125629   9.965  14.049  10.076
 3310PROX   H1125630  10.016  14.039  10.175
 3310PROX   H1325631  10.015  14.134  10.025
 3310PROX    C225632   9.824  14.100  10.107
 3310PROX   H2125633   9.767  14.010  10.138
 3310PROX    C325634   9.768  14.179   9.985
 3310PROX   H3125635   9.815  14.276   9.959
 3310PROX   H3225636   9.762  14.123   9.889
 3310PROX   H3325637   9.666  14.217  10.003
 3311PROX    O125638   9.829  14.184  10.225
 3311PROX    C125639   9.924  14.290  10.220
 3311PROX   H1125640   9.954  14.312  10.115
 3311PROX   H1325641   9.861  14.374  10.256
 3311PROX    C225642  10.048  14.261  10.304
 3311PROX   H2125643  10.028  14.175  10.371
 3311PROX    C325644  10.079  14.386  10.387
 3311PROX   H3125645  10.105  14.464  10.311
 3311PROX   H3225646   9.997  14.420  10.453
 3311PROX   H3325647  10.166  14.361  10.452
 3312PROX    O125648  10.159  14.230  10.217
 3312PROX    C125649  10.264  14.156  10.282
 3312PROX   H1125650  10.228  14.099  10.370
 3312PROX   H1325651  10.312  14.094  10.203
 3312PROX    C225652  10.394  14.246  10.308
 3312PROX   H2125653  10.361  14.349  10.336
 3312PROX    C325654  10.476  14.277  10.185
 3312PROX   H3125655  10.408  14.316  10.106
 3312PROX   H3225656  10.557  14.349  10.208
 3312PROX   H3325657  10.508  14.176  10.151
 3313PROX    O125658  10.467  14.177  10.405
 3313PROX    C125659  10.561  14.266  10.478
 3313PROX   H1125660  10.656  14.263  10.420
 3313PROX   H1325661  10.526  14.371  10.486
 3313PROX    C225662  10.596  14.219  10.621
 3313PROX   H2125663  10.643  14.306  10.672
 3313PROX    C325664  10.704  14.106  10.624
 3313PROX   H3125665  10.696  14.050  10.720
 3313PROX   H3225666  10.676  14.027  10.551
 3313PROX   H3325667  10.810  14.138  10.617
 3314PROX    O125668  10.476  14.184  10.689
 3314PROX    C125669  10.379  14.285  10.694
 3314PROX   H1125670  10.410  14.385  10.731
 3314PROX   H1325671  10.344  14.301  10.589
 3314PROX    C225672  10.257  14.240  10.783
 3314PROX   H2125673  10.290  14.221  10.887
 3314PROX    C325674  10.193  14.121  10.713
 3314PROX   H3125675  10.250  14.030  10.738
 3314PROX   H3225676  10.086  14.122  10.746
 3314PROX   H3325677  10.204  14.134  10.603
 3315PROX    O125678  10.163  14.354  10.776
 3315PROX    C125679  10.178  14.452  10.876
 3315PROX   H1125680  10.117  14.412  10.959
 3315PROX   H1325681  10.281  14.460  10.917
 3315PROX    C225682  10.118  14.590  10.836
 3315PROX   H2125683  10.010  14.574  10.820
 3315PROX    C325684  10.194  14.652  10.714
 3315PROX   H3125685  10.288  14.701  10.748
 3315PROX   H3225686  10.212  14.581  10.630
 3315PROX   H3325687  10.134  14.736  10.674
 3316PROX    O125688  10.125  14.680  10.950
 3316PROX    C125689  10.001  14.734  10.993
 3316PROX   H1125690   9.939  14.643  11.004
 3316PROX   H1325691  10.010  14.782  11.093
 3316PROX    C225692   9.938  14.836  10.893
 3316PROX   H2125693  10.016  14.895  10.842
 3316PROX    C325694   9.841  14.929  10.969
 3316PROX   H3125695   9.897  14.982  11.049
 3316PROX   H3225696   9.789  14.994  10.894
 3316PROX   H3325697   9.774  14.858  11.021
 3317PROX    O125698   9.871  14.762  10.796
 3317PROX    C125699   9.832  14.840  10.679
 3317PROX   H1125700   9.772  14.931  10.699
 3317PROX   H1325701   9.918  14.867  10.615
 3317PROX    C225702   9.749  14.749  10.593
 3317PROX   H2125703   9.657  14.722  10.650
 3317PROX    C325704   9.831  14.626  10.551
 3317PROX   H3125705   9.854  14.560  10.637
 3317PROX   H3225706   9.780  14.562  10.476
 3317PROX   H3325707   9.934  14.652  10.518
 3318PROX    O125708   9.709  14.820  10.472
 3318PROX    C125709   9.597  14.900  10.485
 3318PROX   H1125710   9.522  14.839  10.539
 3318PROX   H1325711   9.609  14.995  10.541
 3318PROX    C225712   9.530  14.934  10.339
 3318PROX   H2125713   9.499  14.839  10.291
 3318PROX    C325714   9.628  15.006  10.243
 3318PROX   H3125715   9.729  14.959  10.248
 3318PROX   H3225716   9.596  14.980  10.140
 3318PROX   H3325717   9.638  15.114  10.268
 3319PROX    O125718   9.416  15.014  10.369
 3319PROX    C125719   9.333  15.030  10.256
 3319PROX   H1125720   9.301  15.137  10.256
 3319PROX   H1325721   9.369  15.012  10.153
 3319PROX    C225722   9.208  14.937  10.262
 3319PROX   H2125723   9.127  14.969  10.193
 3319PROX    C325724   9.158  14.941  10.410
 3319PROX   H3125725   9.051  14.912  10.406
 3319PROX   H3225726   9.220  14.879  10.478
 3319PROX   H3325727   9.156  15.046  10.448
 3320PROX    O125728   9.236  14.804  10.219
 3320PROX    C125729   9.128  14.714  10.230
 3320PROX   H1125730   9.122  14.699  10.340
 3320PROX   H1325731   9.035  14.763  10.195
 3320PROX    C225732   9.150  14.591  10.145
 3320PROX   H2125733   9.240  14.536  10.178
 3320PROX    C325734   9.175  14.629  10.000
 3320PROX   H3125735   9.093  14.697   9.967
 3320PROX   H3225736   9.266  14.691   9.991
 3320PROX   H3325737   9.181  14.551   9.921
 3321PROX    O125738   9.030  14.505  10.156
 3321PROX    C125739   9.027  14.456  10.289
 3321PROX   H1125740   9.131  14.459  10.330
 3321PROX   H1325741   8.970  14.525  10.355
 3321PROX    C225742   8.961  14.307  10.291
 3321PROX   H2125743   9.022  14.233  10.236
 3321PROX    C325744   8.823  14.303  10.225
 3321PROX   H3125745   8.828  14.318  10.115
 3321PROX   H3225746   8.778  14.206  10.256
 3321PROX   H3325747   8.756  14.381  10.265
 3322PROX    O125748   8.945  14.259  10.425
 3322PROX    C125749   9.065  14.269  10.493
 3322PROX   H1125750   9.148  14.227  10.432
 3322PROX   H1325751   9.092  14.373  10.522
 3322PROX    C225752   9.077  14.195  10.624
 3322PROX   H2125753   9.088  14.089  10.594
 3322PROX    C325754   8.957  14.195  10.723
 3322PROX   H3125755   8.866  14.199  10.658
 3322PROX   H3225756   8.954  14.112  10.796
 3322PROX   H3325757   8.952  14.292  10.776
 3323PROX    O125758   9.190  14.249  10.694
 3323PROX    C125759   9.214  14.178  10.813
 3323PROX   H1125760   9.178  14.250  10.890
 3323PROX   H1325761   9.162  14.080  10.813
 3323PROX    C225762   9.359  14.137  10.831
 3323PROX   H2125763   9.428  14.214  10.791
 3323PROX    C325764   9.373  14.000  10.756
 3323PROX   H3125765   9.341  13.916  10.822
 3323PROX   H3225766   9.319  14.005  10.659
 3323PROX   H3325767   9.480  13.971  10.748
 3324PROX    O125768   9.371  14.099  10.963
 3324PROX    C125769   9.504  14.057  10.998
 3324PROX   H1125770   9.530  13.954  10.964
 3324PROX   H1325771   9.582  14.127  10.961
 3324PROX    C225772   9.539  14.057  11.151
 3324PROX   H2125773   9.463  13.994  11.203
 3324PROX    C325774   9.506  14.197  11.212
 3324PROX   H3125775   9.408  14.235  11.176
 3324PROX   H3225776   9.511  14.183  11.322
 3324PROX   H3325777   9.582  14.273  11.185
 3325PROX    O125778   9.672  14.011  11.177
 3325PROX    C125779   9.694  13.975  11.312
 3325PROX   H1125780   9.717  14.067  11.370
 3325PROX   H1325781   9.599  13.934  11.353
 3325PROX    C225782   9.808  13.868  11.328
 3325PROX   H2125783   9.790  13.781  11.260
 3325PROX    C325784   9.813  13.825  11.479
 3325PROX   H3125785   9.875  13.733  11.482
 3325PROX   H3225786   9.847  13.908  11.543
 3325PROX   H3325787   9.712  13.796  11.516
 3326PROX    O125788   9.927  13.925  11.280
 3326PROX    C125789  10.019  13.825  11.241
 3326PROX   H1125790  10.032  13.746  11.319
 3326PROX   H1325791   9.970  13.786  11.149
 3326PROX    C225792  10.153  13.892  11.206
 3326PROX   H2125793  10.200  13.936  11.296
 3326PROX    C325794  10.149  13.994  11.098
 3326PROX   H3125795  10.100  14.089  11.128
 3326PROX   H3225796  10.249  14.021  11.058
 3326PROX   H3325797  10.089  13.963  11.009
 3327PROX    O125798  10.251  13.797  11.161
 3327PROX    C125799  10.223  13.728  11.045
 3327PROX   H1125800  10.120  13.752  11.011
 3327PROX   H1325801  10.300  13.763  10.973
 3327PROX    C225802  10.220  13.576  11.073
 3327PROX   H2125803  10.312  13.543  11.126
 3327PROX    C325804  10.228  13.498  10.938
 3327PROX   H3125805  10.152  13.417  10.935
 3327PROX   H3225806  10.214  13.562  10.848
 3327PROX   H3325807  10.330  13.457  10.932
 3328PROX    O125808  10.103  13.548  11.142
 3328PROX    C125809  10.114  13.438  11.239
 3328PROX   H1125810  10.176  13.358  11.191
 3328PROX   H1325811  10.157  13.491  11.327
 3328PROX    C225812   9.977  13.380  11.267
 3328PROX   H2125813   9.947  13.344  11.166
 3328PROX    C325814   9.875  13.492  11.299
 3328PROX   H3125815   9.913  13.546  11.387
 3328PROX   H3225816   9.869  13.554  11.207
 3328PROX   H3325817   9.769  13.461  11.314
 3329PROX    O125818   9.978  13.274  11.359
 3329PROX    C125819  10.016  13.154  11.305
 3329PROX   H1125820  10.095  13.160  11.227
 3329PROX   H1325821  10.065  13.093  11.384
 3329PROX    C225822   9.895  13.075  11.256
 3329PROX   H2125823   9.847  13.134  11.175
 3329PROX    C325824   9.781  13.069  11.357
 3329PROX   H3125825   9.695  13.016  11.312
 3329PROX   H3225826   9.814  13.019  11.451
 3329PROX   H3325827   9.749  13.172  11.383
 3330PROX    O125828   9.936  12.955  11.207
 3330PROX    C125829   9.839  12.852  11.194
 3330PROX   H1125830   9.784  12.841  11.290
 3330PROX   H1325831   9.766  12.879  11.114
 3330PROX    C225832   9.907  12.713  11.170
 3330PROX   H2125833   9.969  12.692  11.260
 3330PROX    C325834  10.006  12.717  11.049
 3330PROX   H3125835  10.085  12.638  11.048
 3330PROX   H3225836   9.954  12.735  10.953
 3330PROX   H3325837  10.055  12.815  11.060
 3331PROX    O125838   9.810  12.603  11.133
 3331PROX    C125839   9.738  12.558  11.249
 3331PROX   H1125840   9.741  12.447  11.241
 3331PROX   H1325841   9.779  12.589  11.347
 3331PROX    C225842   9.591  12.601  11.256
 3331PROX   H2125843   9.580  12.711  11.255
 3331PROX    C325844   9.536  12.533  11.386
 3331PROX   H3125845   9.573  12.429  11.392
 3331PROX   H3225846   9.582  12.589  11.470
 3331PROX   H3325847   9.425  12.530  11.392
 3332PROX    O125848   9.509  12.544  11.151
 3332PROX    C125849   9.422  12.644  11.089
 3332PROX   H1125850   9.359  12.694  11.165
 3332PROX   H1325851   9.483  12.729  11.050
 3332PROX    C225852   9.327  12.580  10.976
 3332PROX   H2125853   9.264  12.661  10.934
 3332PROX    C325854   9.224  12.485  11.042
 3332PROX   H3125855   9.151  12.460  10.963
 3332PROX   H3225856   9.270  12.391  11.080
 3332PROX   H3325857   9.167  12.541  11.119
 3333PROX    O125858   9.397  12.510  10.879
 3333PROX    C125859   9.424  12.590  10.767
 3333PROX   H1125860   9.364  12.560  10.678
 3333PROX   H1325861   9.418  12.699  10.784
 3333PROX    C225862   9.571  12.576  10.725
 3333PROX   H2125863   9.595  12.470  10.704
 3333PROX    C325864   9.656  12.621  10.842
 3333PROX   H3125865   9.650  12.543  10.921
 3333PROX   H3225866   9.762  12.638  10.814
 3333PROX   H3325867   9.614  12.715  10.885
 3334PROX    O125868   9.590  12.654  10.614
 3334PROX    C125869   9.661  12.597  10.509
 3334PROX   H1125870   9.745  12.538  10.551
 3334PROX   H1325871   9.597  12.524  10.454
 3334PROX    C225872   9.721  12.704  10.417
 3334PROX   H2125873   9.655  12.793  10.414
 3334PROX    C325874   9.725  12.654  10.270
 3334PROX   H3125875   9.798  12.572  10.252
 3334PROX   H3225876   9.623  12.620  10.243
 3334PROX   H3325877   9.768  12.738  10.211
 3335PROX    O125878   9.858  12.731  10.454
 3335PROX    C125879   9.870  12.814  10.569
 3335PROX   H1125880   9.814  12.905  10.539
 3335PROX   H1325881   9.810  12.775  10.653
 3335PROX    C225882  10.013  12.834  10.615
 3335PROX   H2125883  10.069  12.871  10.527
 3335PROX    C325884  10.072  12.699  10.668
 3335PROX   H3125885   9.986  12.647  10.716
 3335PROX   H3225886  10.106  12.626  10.591
 3335PROX   H3325887  10.155  12.716  10.739
 3336PROX    O125888  10.011  12.932  10.716
 3336PROX    C125889  10.000  13.063  10.661
 3336PROX   H1125890  10.087  13.075  10.593
 3336PROX   H1325891   9.899  13.073  10.615
 3336PROX    C225892  10.014  13.170  10.767
 3336PROX   H2125893  10.113  13.147  10.813
 3336PROX    C325894   9.905  13.166  10.872
 3336PROX   H3125895   9.903  13.074  10.934
 3336PROX   H3225896   9.905  13.253  10.940
 3336PROX   H3325897   9.809  13.181  10.818
 3337PROX    O125898  10.011  13.303  10.722
 3337PROX    C125899  10.121  13.355  10.643
 3337PROX   H1125900  10.136  13.461  10.673
 3337PROX   H1325901  10.212  13.296  10.668
 3337PROX    C225902  10.092  13.352  10.491
 3337PROX   H2125903  10.070  13.247  10.465
 3337PROX    C325904  10.211  13.412  10.424
 3337PROX   H3125905  10.187  13.505  10.367
 3337PROX   H3225906  10.293  13.444  10.492
 3337PROX   H3325907  10.248  13.338  10.350
 3338PROX    O125908   9.982  13.443  10.470
 3338PROX    C125909   9.931  13.442  10.336
 3338PROX   H1125910  10.001  13.495  10.268
 3338PROX   H1325911   9.910  13.334  10.323
 3338PROX    C225912   9.792  13.504  10.316
 3338PROX   H2125913   9.718  13.449  10.379
 3338PROX    C325914   9.729  13.488  10.175
 3338PROX   H3125915   9.797  13.529  10.097
 3338PROX   H3225916   9.713  13.381  10.152
 3338PROX   H3325917   9.631  13.539  10.165
 3339PROX    O125918   9.799  13.640  10.332
 3339PROX    C125919   9.804  13.679  10.465
 3339PROX   H1125920   9.705  13.652  10.509
 3339PROX   H1325921   9.887  13.627  10.516
 3339PROX    C225922   9.823  13.828  10.471
 3339PROX   H2125923   9.735  13.876  10.423
 3339PROX    C325924   9.960  13.864  10.404
 3339PROX   H3125925   9.985  13.967  10.438
 3339PROX   H3225926  10.041  13.800  10.444
 3339PROX   H3325927   9.951  13.843  10.295
 3340PROX    O125928   9.836  13.872  10.606
 3340PROX    C125929   9.716  13.875  10.681
 3340PROX   H1125930   9.686  13.977  10.714
 3340PROX   H1325931   9.635  13.832  10.618
 3340PROX    C225932   9.730  13.782  10.804
 3340PROX   H2125933   9.630  13.759  10.848
 3340PROX    C325934   9.820  13.847  10.913
 3340PROX   H3125935   9.812  13.958  10.907
 3340PROX   H3225936   9.783  13.832  11.016
 3340PROX   H3325937   9.929  13.830  10.897
 3341PROX    O125938   9.790  13.655  10.766
 3341PROX    C125939   9.804  13.554  10.869
 3341PROX   H1125940   9.888  13.486  10.845
 3341PROX   H1325941   9.819  13.596  10.971
 3341PROX    C225942   9.675  13.471  10.854
 3341PROX   H2125943   9.692  13.369  10.895
 3341PROX    C325944   9.623  13.452  10.706
 3341PROX   H3125945   9.543  13.374  10.713
 3341PROX   H3225946   9.572  13.544  10.670
 3341PROX   H3325947   9.712  13.424  10.646
 3342PROX    O125948   9.583  13.536  10.940
 3342PROX    C125949   9.455  13.473  10.979
 3342PROX   H1125950   9.377  13.490  10.902
 3342PROX   H1325951   9.468  13.366  11.006
 3342PROX    C225952   9.402  13.535  11.105
 3342PROX   H2125953   9.372  13.642  11.096
 3342PROX    C325954   9.493  13.509  11.226
 3342PROX   H3125955   9.437  13.525  11.320
 3342PROX   H3225956   9.547  13.411  11.226
 3342PROX   H3325957   9.566  13.592  11.228
 3343PROX    O125958   9.281  13.469  11.143
 3343PROX    C125959   9.169  13.509  11.056
 3343PROX   H1125960   9.151  13.619  11.060
 3343PROX   H1325961   9.187  13.480  10.950
 3343PROX    C225962   9.047  13.433  11.097
 3343PROX   H2125963   9.028  13.451  11.205
 3343PROX    C325964   9.053  13.279  11.079
 3343PROX   H3125965   8.959  13.230  11.112
 3343PROX   H3225966   9.083  13.265  10.973
 3343PROX   H3325967   9.141  13.229  11.123
 3344PROX    O125968   8.935  13.466  11.016
 3344PROX    C125969   8.821  13.526  11.088
 3344PROX   H1125970   8.728  13.505  11.032
 3344PROX   H1325971   8.802  13.469  11.182
 3344PROX    C225972   8.835  13.680  11.122
 3344PROX   H2125973   8.765  13.688  11.208
 3344PROX    C325974   8.775  13.748  11.002
 3344PROX   H3125975   8.665  13.734  10.997
 3344PROX   H3225976   8.810  13.852  10.982
 3344PROX   H3325977   8.809  13.695  10.911
 3345PROX    O125978   8.969  13.727  11.149
 3345PROX    C125979   8.969  13.838  11.235
 3345PROX   H1125980   8.885  13.907  11.211
 3345PROX   H1325981   8.953  13.811  11.342
 3345PROX    C225982   9.113  13.899  11.233
 3345PROX   H2125983   9.149  13.894  11.128
 3345PROX    C325984   9.219  13.829  11.320
 3345PROX   H3125985   9.319  13.877  11.312
 3345PROX   H3225986   9.183  13.834  11.425
 3345PROX   H3325987   9.228  13.722  11.291
 3346ETHO    O125988   9.113  14.038  11.280
 3346ETHO    C125989   9.082  14.135  11.178
 3346ETHO   H1125990   8.978  14.112  11.146
 3346ETHO   H1325991   9.149  14.108  11.094
 3346ETHO    C225992   9.112  14.271  11.226
 3346ETHO   H2125993   9.139  14.348  11.151
 3346ETHO   H2325994   9.203  14.280  11.291
 3347ETHO    O125995   9.000  14.326  11.306
 3347ETHO    C125996   9.025  14.456  11.353
 3347ETHO   H1125997   9.127  14.462  11.396
 3347ETHO   H1325998   8.992  14.531  11.278
 3347ETHO    C225999   8.925  14.477  11.472
 3347ETHO   H2126000   8.949  14.573  11.524
 3347ETHO   H2326001   8.907  14.392  11.540
 3348ETHO    O126002   8.804  14.512  11.404
 3348ETHO    C126003   8.699  14.519  11.497
 3348ETHO   H1126004   8.732  14.583  11.582
 3348ETHO   H1326005   8.680  14.417  11.538
 3348ETHO    C226006   8.573  14.583  11.430
 3348ETHO   H2126007   8.609  14.670  11.370
 3348ETHO   H2326008   8.497  14.619  11.503
 3349ETHO    O126009   8.501  14.494  11.350
 3349ETHO    C126010   8.558  14.470  11.224
 3349ETHO   H1126011   8.568  14.569  11.176
 3349ETHO   H1326012   8.658  14.422  11.226
 3349ETHO    C226013   8.473  14.368  11.150
 3349ETHO   H2126014   8.374  14.417  11.136
 3349ETHO   H2326015   8.440  14.282  11.212
 3350ETHO    O126016   8.523  14.321  11.029
 3350ETHO    C126017   8.515  14.417  10.926
 3350ETHO   H1126018   8.524  14.521  10.965
 3350ETHO   H1326019   8.412  14.408  10.886
 3350ETHO    C226020   8.624  14.387  10.824
 3350ETHO   H2126021   8.597  14.285  10.790
 3350ETHO   H2326022   8.719  14.381  10.881
 3351ETHO    O126023   8.606  14.493  10.734
 3351ETHO    C126024   8.673  14.465  10.617
 3351ETHO   H1126025   8.780  14.449  10.644
 3351ETHO   H1326026   8.641  14.366  10.577
 3351ETHO    C226027   8.664  14.571  10.512
 3351ETHO   H2126028   8.744  14.553  10.436
 3351ETHO   H2326029   8.688  14.668  10.560
 3352ETHO    O126030   8.537  14.570  10.442
 3352ETHO    C126031   8.543  14.655  10.327
 3352ETHO   H1126032   8.446  14.654  10.273
 3352ETHO   H1326033   8.615  14.605  10.259
 3352ETHO    C226034   8.584  14.801  10.345
 3352ETHO   H2126035   8.563  14.831  10.450
 3352ETHO   H2326036   8.523  14.867  10.281
 3353ETHO    O126037   8.720  14.830  10.322
 3353ETHO    C126038   8.742  14.973  10.317
 3353ETHO   H1126039   8.840  15.005  10.276
 3353ETHO   H1326040   8.678  15.026  10.244
 3353ETHO    C226041   8.729  15.033  10.451
 3353ETHO   H2126042   8.779  14.963  10.521
 3353ETHO   H2326043   8.788  15.127  10.462
 3354ETHO    O126044   8.598  15.062  10.493
 3354ETHO    C126045   8.598  15.113  10.626
 3354ETHO   H1126046   8.694  15.093  10.678
 3354ETHO   H1326047   8.584  15.222  10.613
 3354ETHO    C226048   8.478  15.064  10.717
 3354ETHO   H2126049   8.500  15.091  10.822
 3354ETHO   H2326050   8.466  14.955  10.701
 3355ETHO    O126051   8.362  15.145  10.686
 3355ETHO    C126052   8.244  15.090  10.749
 3355ETHO   H1126053   8.279  15.046  10.845
 3355ETHO   H1326054   8.179  15.179  10.763
 3355ETHO    C226055   8.165  14.985  10.665
 3355ETHO   H2126056   8.146  15.023  10.562
 3355ETHO   H2326057   8.064  14.966  10.706
 3356ETHO    O126058   8.218  14.859  10.666
 3356ETHO    C126059   8.271  14.823  10.537
 3356ETHO   H1126060   8.321  14.917  10.505
 3356ETHO   H1326061   8.358  14.756  10.547
 3356ETHO    C226062   8.175  14.763  10.443
 3356ETHO   H2126063   8.232  14.757  10.348
 3356ETHO   H2326064   8.088  14.830  10.429
 3357ETHO    O126065   8.128  14.635  10.488
 3357ETHO    C126066   8.051  14.576  10.387
 3357ETHO   H1126067   8.023  14.650  10.309
 3357ETHO   H1326068   7.959  14.537  10.435
 3357ETHO    C226069   8.125  14.453  10.329
 3357ETHO   H2126070   8.052  14.386  10.281
 3357ETHO   H2326071   8.177  14.395  10.409
 3358ETHO    O126072   8.218  14.489  10.217
 3358ETHO    C126073   8.311  14.382  10.191
 3358ETHO   H1126074   8.368  14.358  10.283
 3358ETHO   H1326075   8.246  14.293  10.179
 3358ETHO    C226076   8.403  14.400  10.075
 3358ETHO   H2126077   8.476  14.316  10.073
 3358ETHO   H2326078   8.458  14.495  10.089
 3359ETHO    O126079   8.342  14.397   9.943
 3359ETHO    C126080   8.286  14.519   9.905
 3359ETHO   H1126081   8.363  14.595   9.931
 3359ETHO   H1326082   8.192  14.547   9.956
 3359ETHO    C226083   8.276  14.529   9.748
 3359ETHO   H2126084   8.379  14.504   9.715
 3359ETHO   H2326085   8.257  14.637   9.732
 3360ETHO    O126086   8.173  14.449   9.701
 3360ETHO    C126087   8.169  14.452   9.555
 3360ETHO   H1126088   8.167  14.556   9.516
 3360ETHO   H1326089   8.264  14.408   9.517
 3360ETHO    C226090   8.062  14.371   9.487
 3360ETHO   H2126091   8.044  14.270   9.528
 3360ETHO   H2326092   8.081  14.365   9.377
 3361ETHO    O126093   7.946  14.445   9.489
 3361ETHO    C126094   7.886  14.444   9.616
 3361ETHO   H1126095   7.927  14.522   9.684
 3361ETHO   H1326096   7.902  14.348   9.670
 3361ETHO    C226097   7.736  14.454   9.610
 3361ETHO   H2126098   7.700  14.436   9.714
 3361ETHO   H2326099   7.677  14.380   9.551
 3362ETHO    O126100   7.700  14.579   9.553
 3362ETHO    C126101   7.575  14.626   9.593
 3362ETHO   H1126102   7.532  14.692   9.515
 3362ETHO   H1326103   7.505  14.540   9.603
 3362ETHO    C226104   7.578  14.705   9.722
 3362ETHO   H2126105   7.624  14.647   9.805
 3362ETHO   H2326106   7.471  14.702   9.750
 3363ETHO    O126107   7.620  14.845   9.711
 3363ETHO    C126108   7.636  14.900   9.839
 3363ETHO   H1126109   7.740  14.890   9.877
 3363ETHO   H1326110   7.572  14.844   9.911
 3363ETHO    C226111   7.580  15.040   9.838
 3363ETHO   H2126112   7.585  15.074   9.943
 3363ETHO   H2326113   7.474  15.048   9.806
 3364ETHO    O126114   7.676  15.109   9.756
 3364ETHO    C126115   7.631  15.236   9.717
 3364ETHO   H1126116   7.698  15.272   9.636
 3364ETHO   H1326117   7.527  15.220   9.679
 3364ETHO    C226118   7.626  15.338   9.831
 3364ETHO   H2126119   7.586  15.296   9.926
 3364ETHO   H2326120   7.566  15.429   9.813
 3365ETHO    O126121   7.761  15.385   9.851
 3365ETHO    C126122   7.813  15.474   9.755
 3365ETHO   H1126123   7.807  15.438   9.650
 3365ETHO   H1326124   7.754  15.568   9.762
 3365ETHO    C226125   7.962  15.519   9.781
 3365ETHO   H2126126   7.986  15.554   9.884
 3365ETHO   H2326127   7.990  15.599   9.709
 3366ETHO    O126128   8.056  15.414   9.753
 3366ETHO    C126129   8.190  15.447   9.783
 3366ETHO   H1126130   8.266  15.414   9.709
 3366ETHO   H1326131   8.215  15.556   9.790
 3366ETHO    C226132   8.236  15.370   9.908
 3366ETHO   H2126133   8.309  15.291   9.881
 3366ETHO   H2326134   8.151  15.309   9.945
 3367ETHO    O126135   8.262  15.461  10.022
 3367ETHO    C126136   8.346  15.405  10.123
 3367ETHO   H1126137   8.309  15.315  10.176
 3367ETHO   H1326138   8.438  15.372  10.069
 3367ETHO    C226139   8.386  15.505  10.226
 3367ETHO   H2126140   8.424  15.591  10.168
 3367ETHO   H2326141   8.465  15.463  10.293
 3368ETHO    O126142   8.288  15.543  10.322
 3368ETHO    C126143   8.338  15.626  10.432
 3368ETHO   H1126144   8.373  15.726  10.400
 3368ETHO   H1326145   8.428  15.583  10.479
 3368ETHO    C226146   8.208  15.656  10.514
 3368ETHO   H2126147   8.132  15.691  10.441
 3368ETHO   H2326148   8.233  15.734  10.589
 3369ETHO    O126149   8.168  15.547  10.593
 3369ETHO    C126150   8.040  15.570  10.657
 3369ETHO   H1126151   8.056  15.643  10.739
 3369ETHO   H1326152   7.972  15.616  10.582
 3369ETHO    C226153   7.965  15.442  10.698
 3369ETHO   H2126154   7.875  15.457  10.762
 3369ETHO   H2326155   8.034  15.377  10.756
 3370ETHO    O126156   7.930  15.358  10.585
 3370ETHO    C126157   7.860  15.241  10.614
 3370ETHO   H1126158   7.754  15.259  10.639
 3370ETHO   H1326159   7.911  15.202  10.705
 3370ETHO    C226160   7.869  15.129  10.505
 3370ETHO   H2126161   7.965  15.118  10.450
 3370ETHO   H2326162   7.794  15.155  10.427
 3371ETHO    O126163   7.847  15.001  10.563
 3371ETHO    C126164   7.769  14.903  10.490
 3371ETHO   H1126165   7.670  14.950  10.473
 3371ETHO   H1326166   7.821  14.870  10.398
 3371ETHO    C226167   7.742  14.776  10.574
 3371ETHO   H2126168   7.841  14.744  10.611
 3371ETHO   H2326169   7.690  14.709  10.501
 3372ETHO    O126170   7.644  14.800  10.676
 3372ETHO    C126171   7.701  14.794  10.806
 3372ETHO   H1126172   7.783  14.867  10.797
 3372ETHO   H1326173   7.728  14.692  10.842
 3372ETHO    C226174   7.616  14.863  10.915
 3372ETHO   H2126175   7.663  14.864  11.015
 3372ETHO   H2326176   7.515  14.816  10.915
 3373ETHO    O126177   7.604  15.001  10.885
 3373ETHO    C126178   7.509  15.063  10.972
 3373ETHO   H1126179   7.411  15.019  10.940
 3373ETHO   H1326180   7.522  15.038  11.079
 3373ETHO    C226181   7.511  15.221  10.958
 3373ETHO   H2126182   7.416  15.260  11.000
 3373ETHO   H2326183   7.509  15.236  10.848
 3374ETHO    O126184   7.629  15.286  11.009
 3374ETHO    C126185   7.629  15.421  10.966
 3374ETHO   H1126186   7.528  15.463  10.985
 3374ETHO   H1326187   7.651  15.421  10.857
 3374ETHO    C226188   7.727  15.502  11.050
 3374ETHO   H2126189   7.701  15.485  11.157
 3374ETHO   H2326190   7.713  15.611  11.035
 3375ETHO    O126191   7.865  15.472  11.028
 3375ETHO    C126192   7.956  15.541  11.116
 3375ETHO   H1126193   7.915  15.639  11.147
 3375ETHO   H1326194   7.966  15.499  11.219
 3375ETHO    C226195   8.103  15.563  11.072
 3375ETHO   H2126196   8.141  15.646  11.136
 3375ETHO   H2326197   8.105  15.584  10.963
 3376ETHO    O126198   8.180  15.450  11.089
 3376ETHO    C126199   8.293  15.449  11.004
 3376ETHO   H1126200   8.258  15.404  10.909
 3376ETHO   H1326201   8.347  15.543  10.980
 3376ETHO    C226202   8.406  15.354  11.065
 3376ETHO   H2126203   8.446  15.406  11.154
 3376ETHO   H2326204   8.487  15.360  10.989
 3377ETHO    O126205   8.376  15.215  11.081
 3377ETHO    C126206   8.456  15.159  11.183
 3377ETHO   H1126207   8.556  15.207  11.186
 3377ETHO   H1326208   8.394  15.172  11.274
 3377ETHO    C226209   8.477  15.006  11.176
 3377ETHO   H2126210   8.376  14.964  11.156
 3377ETHO   H2326211   8.539  14.965  11.258
 3378ETHO    O126212   8.555  14.963  11.059
 3378ETHO    C126213   8.549  14.828  11.032
 3378ETHO   H1126214   8.521  14.771  11.123
 3378ETHO   H1326215   8.477  14.819  10.948
 3378ETHO    C226216   8.669  14.771  10.959
 3378ETHO   H2126217   8.723  14.853  10.906
 3378ETHO   H2326218   8.631  14.691  10.892
 3379ETHO    O126219   8.760  14.714  11.058
 3379ETHO    C126220   8.901  14.757  11.038
 3379ETHO   H1126221   8.947  14.724  11.134
 3379ETHO   H1326222   8.914  14.868  11.035
 3379ETHO    C226223   8.979  14.673  10.930
 3379ETHO   H2126224   8.961  14.564  10.944
 3379ETHO   H2326225   9.087  14.688  10.955
 3380ETHO    O126226   8.957  14.717  10.796
 3380ETHO    C126227   9.015  14.625  10.705
 3380ETHO   H1126228   8.991  14.526  10.751
 3380ETHO   H1326229   8.958  14.644  10.612
 3380ETHO    C226230   9.167  14.640  10.681
 3380ETHO   H2126231   9.223  14.599  10.767
 3380ETHO   H2326232   9.200  14.743  10.656
 3381ETHO    O126233   9.220  14.565  10.574
 3381ETHO    C126234   9.358  14.563  10.565
 3381ETHO   H1126235   9.381  14.537  10.671
 3381ETHO   H1326236   9.402  14.661  10.535
 3381ETHO    C226237   9.407  14.435  10.492
 3381ETHO   H2126238   9.346  14.347  10.519
 3381ETHO   H2326239   9.514  14.421  10.518
 3382ETHO    O126240   9.408  14.462  10.350
 3382ETHO    C126241   9.527  14.512  10.310
 3382ETHO   H1126242   9.557  14.602  10.368
 3382ETHO   H1326243   9.608  14.438  10.329
 3382ETHO    C226244   9.527  14.555  10.164
 3382ETHO   H2126245   9.623  14.602  10.136
 3382ETHO   H2326246   9.445  14.630  10.156
 3383ETHO    O126247   9.508  14.440  10.077
 3383ETHO    C126248   9.506  14.481   9.935
 3383ETHO   H1126249   9.600  14.533   9.908
 3383ETHO   H1326250   9.423  14.554   9.921
 3383ETHO    C226251   9.472  14.368   9.840
 3383ETHO   H2126252   9.376  14.321   9.872
 3383ETHO   H2326253   9.550  14.288   9.844
 3384ETHO    O126254   9.459  14.418   9.703
 3384ETHO    C126255   9.387  14.319   9.632
 3384ETHO   H1126256   9.447  14.225   9.641
 3384ETHO   H1326257   9.292  14.285   9.679
 3384ETHO    C226258   9.356  14.348   9.479
 3384ETHO   H2126259   9.328  14.246   9.445
 3384ETHO   H2326260   9.447  14.381   9.425
 3385ETHO    O126261   9.244  14.437   9.469
 3385ETHO    C126262   9.282  14.574   9.493
 3385ETHO   H1126263   9.292  14.629   9.397
 3385ETHO   H1326264   9.384  14.580   9.537
 3385ETHO    C226265   9.177  14.628   9.583
 3385ETHO   H2126266   9.213  14.725   9.624
 3385ETHO   H2326267   9.160  14.565   9.673
 3386ETHO    O126268   9.059  14.656   9.510
 3386ETHO    C126269   8.952  14.692   9.588
 3386ETHO   H1126270   8.866  14.696   9.519
 3386ETHO   H1326271   8.934  14.612   9.663
 3386ETHO    C226272   8.942  14.826   9.657
 3386ETHO   H2126273   8.946  14.907   9.581
 3386ETHO   H2326274   8.849  14.841   9.716
 3387ETHO    O126275   9.045  14.840   9.748
 3387ETHO    C126276   9.067  14.966   9.798
 3387ETHO   H1126277   8.984  14.996   9.865
 3387ETHO   H1326278   9.059  15.043   9.718
 3387ETHO    C226279   9.195  14.972   9.886
 3387ETHO   H2126280   9.277  14.929   9.825
 3387ETHO   H2326281   9.181  14.912   9.979
 3388ETHO    O126282   9.216  15.111   9.909
 3388ETHO    C126283   9.291  15.162   9.801
 3388ETHO   H1126284   9.399  15.136   9.806
 3388ETHO   H1326285   9.266  15.113   9.705
 3388ETHO    C226286   9.269  15.315   9.793
 3388ETHO   H2126287   9.335  15.364   9.719
 3388ETHO   H2326288   9.280  15.363   9.893
 3389ETHO    O126289   9.133  15.344   9.751
 3389ETHO    C126290   9.090  15.479   9.780
 3389ETHO   H1126291   9.163  15.559   9.756
 3389ETHO   H1326292   9.070  15.493   9.889
 3389ETHO    C226293   8.968  15.516   9.695
 3389ETHO   H2126294   8.987  15.493   9.587
 3389ETHO   H2326295   8.945  15.624   9.709
 3390ETHO    O126296   8.852  15.447   9.735
 3390ETHO    C126297   8.731  15.512   9.698
 3390ETHO   H1126298   8.652  15.487   9.772
 3390ETHO   H1326299   8.737  15.622   9.714
 3390ETHO    C226300   8.674  15.487   9.559
 3390ETHO   H2126301   8.761  15.491   9.490
 3390ETHO   H2326302   8.600  15.566   9.533
 3391ETHO    O126303   8.623  15.361   9.544
 3391ETHO    C126304   8.540  15.357   9.430
 3391ETHO   H1126305   8.443  15.398   9.465
 3391ETHO   H1326306   8.584  15.425   9.354
 3391ETHO    C226307   8.541  15.216   9.372
 3391ETHO   H2126308   8.650  15.196   9.363
 3391ETHO   H2326309   8.502  15.226   9.268
 3392ETHO    O126310   8.475  15.119   9.457
 3392ETHO    C126311   8.331  15.114   9.448
 3392ETHO   H1126312   8.289  15.214   9.476
 3392ETHO   H1326313   8.303  15.086   9.344
 3392ETHO    C226314   8.276  15.007   9.538
 3392ETHO   H2126315   8.333  14.911   9.542
 3392ETHO   H2326316   8.168  14.988   9.518
 3393ETHO    O126317   8.282  15.049   9.673
 3393ETHO    C126318   8.221  14.951   9.760
 3393ETHO   H1126319   8.114  14.980   9.766
 3393ETHO   H1326320   8.231  14.849   9.718
 3393ETHO    C226321   8.281  14.943   9.900
 3393ETHO   H2126322   8.230  14.865   9.961
 3393ETHO   H2326323   8.273  15.041   9.953
 3394ETHO    O126324   8.416  14.914   9.869
 3394ETHO    C126325   8.498  14.911   9.991
 3394ETHO   H1126326   8.446  14.862  10.076
 3394ETHO   H1326327   8.517  15.015  10.024
 3394ETHO    C226328   8.637  14.857   9.952
 3394ETHO   H2126329   8.724  14.877  10.018
 3394ETHO   H2326330   8.643  14.896   9.848
 3395ETHO    O126331   8.629  14.713   9.932
 3395ETHO    C126332   8.761  14.658   9.961
 3395ETHO   H1126333   8.834  14.720   9.905
 3395ETHO   H1326334   8.782  14.663  10.070
 3395ETHO    C226335   8.755  14.513   9.914
 3395ETHO   H2126336   8.664  14.461   9.953
 3395ETHO   H2326337   8.844  14.470   9.965
 3396ETHO    O126338   8.764  14.497   9.769
 3396ETHO    C126339   8.629  14.494   9.711
 3396ETHO   H1126340   8.573  14.587   9.736
 3396ETHO   H1326341   8.572  14.406   9.749
 3396ETHO    C226342   8.639  14.479   9.558
 3396ETHO   H2126343   8.725  14.411   9.545
 3396ETHO   H2326344   8.654  14.579   9.514
 3397ETHO    O126345   8.521  14.417   9.515
 3397ETHO    C126346   8.530  14.363   9.386
 3397ETHO   H1126347   8.601  14.277   9.390
 3397ETHO   H1326348   8.438  14.307   9.361
 3397ETHO    C226349   8.565  14.457   9.280
 3397ETHO   H2126350   8.504  14.550   9.281
 3397ETHO   H2326351   8.545  14.411   9.181
 3398ETHO    O126352   8.703  14.493   9.277
 3398ETHO    C126353   8.732  14.577   9.154
 3398ETHO   H1126354   8.679  14.675   9.161
 3398ETHO   H1326355   8.698  14.519   9.066
 3398ETHO    C226356   8.876  14.627   9.125
 3398ETHO   H2126357   8.914  14.668   9.221
 3398ETHO   H2326358   8.864  14.704   9.046
 3399ETHO    O126359   8.962  14.523   9.076
 3399ETHO    C126360   9.006  14.438   9.178
 3399ETHO   H1126361   9.065  14.508   9.240
 3399ETHO   H1326362   8.930  14.389   9.243
 3399ETHO    C226363   9.100  14.327   9.122
 3399ETHO   H2126364   9.148  14.270   9.204
 3399ETHO   H2326365   9.171  14.385   9.059
 3400ETHO    O126366   9.027  14.246   9.034
 3400ETHO    C126367   9.111  14.139   8.987
 3400ETHO   H1126368   9.048  14.081   8.917
 3400ETHO   H1326369   9.131  14.075   9.076
 3400ETHO    C226370   9.245  14.182   8.926
 3400ETHO   H2126371   9.239  14.278   8.870
 3400ETHO   H2326372   9.281  14.095   8.867
 3401ETHO    O126373   9.344  14.203   9.027
 3401ETHO    C126374   9.475  14.204   8.973
 3401ETHO   H1126375   9.514  14.101   8.960
 3401ETHO   H1326376   9.470  14.261   8.878
 3401ETHO    C226377   9.569  14.264   9.073
 3401ETHO   H2126378   9.571  14.374   9.061
 3401ETHO   H2326379   9.670  14.218   9.068
 3402ETHO    O126380   9.532  14.247   9.212
 3402ETHO    C126381   9.539  14.109   9.261
 3402ETHO   H1126382   9.481  14.098   9.355
 3402ETHO   H1326383   9.493  14.037   9.190
 3402ETHO    C226384   9.677  14.074   9.310
 3402ETHO   H2126385   9.725  14.159   9.365
 3402ETHO   H2326386   9.739  14.065   9.218
 3403ETHO    O126387   9.667  13.954   9.383
 3403ETHO    C126388   9.664  13.990   9.518
 3403ETHO   H1126389   9.740  14.068   9.540
 3403ETHO   H1326390   9.569  14.045   9.538
 3403ETHO    C226391   9.674  13.869   9.605
 3403ETHO   H2126392   9.764  13.816   9.566
 3403ETHO   H2326393   9.587  13.803   9.587
 3404ETHO    O126394   9.689  13.903   9.738
 3404ETHO    C126395   9.720  13.792   9.824
 3404ETHO   H1126396   9.804  13.732   9.782
 3404ETHO   H1326397   9.753  13.837   9.920
 3404ETHO    C226398   9.599  13.704   9.865
 3404ETHO   H2126399   9.509  13.769   9.870
 3404ETHO   H2326400   9.633  13.647   9.955
 3405ETHO    O126401   9.574  13.605   9.765
 3405ETHO    C126402   9.472  13.510   9.806
 3405ETHO   H1126403   9.371  13.556   9.800
 3405ETHO   H1326404   9.491  13.487   9.913
 3405ETHO    C226405   9.472  13.382   9.716
 3405ETHO   H2126406   9.439  13.301   9.784
 3405ETHO   H2326407   9.575  13.357   9.680
 3406ETHO    O126408   9.373  13.397   9.618
 3406ETHO    C126409   9.340  13.280   9.552
 3406ETHO   H1126410   9.417  13.252   9.477
 3406ETHO   H1326411   9.327  13.200   9.628
 3406ETHO    C226412   9.213  13.312   9.469
 3406ETHO   H2126413   9.225  13.404   9.407
 3406ETHO   H2326414   9.132  13.335   9.541
 3407ETHO    O126415   9.189  13.209   9.378
 3407ETHO    C126416   9.069  13.237   9.305
 3407ETHO   H1126417   9.090  13.318   9.232
 3407ETHO   H1326418   8.989  13.278   9.371
 3407ETHO    C226419   9.013  13.110   9.231
 3407ETHO   H2126420   9.106  13.068   9.186
 3407ETHO   H2326421   8.940  13.142   9.154
 3408ETHO    O126422   8.950  13.015   9.318
 3408ETHO    C126423   8.866  12.926   9.245
 3408ETHO   H1126424   8.777  12.984   9.212
 3408ETHO   H1326425   8.917  12.872   9.162
 3408ETHO    C226426   8.824  12.806   9.336
 3408ETHO   H2126427   8.748  12.746   9.281
 3408ETHO   H2326428   8.780  12.842   9.432
 3409ETHO    O126429   8.930  12.714   9.369
 3409ETHO    C126430   8.882  12.606   9.453
 3409ETHO   H1126431   8.801  12.550   9.402
 3409ETHO   H1326432   8.845  12.661   9.542
 3409ETHO    C226433   9.001  12.513   9.492
 3409ETHO   H2126434   9.063  12.557   9.573
 3409ETHO   H2326435   9.069  12.490   9.408
 3410ETHO    O126436   8.949  12.392   9.534
 3410ETHO    C126437   9.048  12.295   9.549
 3410ETHO   H1126438   9.122  12.291   9.466
 3410ETHO   H1326439   9.108  12.327   9.637
 3410ETHO    C226440   8.991  12.153   9.579
 3410ETHO   H2126441   8.907  12.163   9.650
 3410ETHO   H2326442   9.080  12.097   9.616
 3411ETHO    O126443   8.940  12.085   9.463
 3411ETHO    C126444   8.901  11.952   9.498
 3411ETHO   H1126445   8.967  11.913   9.578
 3411ETHO   H1326446   8.925  11.887   9.411
 3411ETHO    C226447   8.755  11.929   9.538
 3411ETHO   H2126448   8.726  11.822   9.547
 3411ETHO   H2326449   8.695  11.971   9.454
 3412ETHO    O126450   8.724  12.001   9.660
 3412ETHO    C126451   8.582  12.002   9.683
 3412ETHO   H1126452   8.531  12.020   9.586
 3412ETHO   H1326453   8.551  11.901   9.714
 3412ETHO    C226454   8.525  12.107   9.783
 3412ETHO   H2126455   8.600  12.120   9.863
 3412ETHO   H2326456   8.432  12.059   9.821
 3413ETHO    O126457   8.495  12.231   9.724
 3413ETHO    C126458   8.605  12.318   9.710
 3413ETHO   H1126459   8.665  12.323   9.804
 3413ETHO   H1326460   8.666  12.280   9.625
 3413ETHO    C226461   8.542  12.456   9.684
 3413ETHO   H2126462   8.485  12.438   9.590
 3413ETHO   H2326463   8.606  12.542   9.654
 3414ETHO    O126464   8.454  12.474   9.792
 3414ETHO    C126465   8.377  12.595   9.800
 3414ETHO   H1126466   8.329  12.610   9.701
 3414ETHO   H1326467   8.289  12.573   9.864
 3414ETHO    C226468   8.448  12.721   9.844
 3414ETHO   H2126469   8.387  12.813   9.831
 3414ETHO   H2326470   8.531  12.740   9.774
 3415ETHO    O126471   8.489  12.707   9.974
 3415ETHO    C126472   8.564  12.820  10.014
 3415ETHO   H1126473   8.503  12.912  10.003
 3415ETHO   H1326474   8.594  12.786  10.116
 3415ETHO    C226475   8.695  12.851   9.944
 3415ETHO   H2126476   8.763  12.766   9.921
 3415ETHO   H2326477   8.743  12.923  10.013
 3416ETHO    O126478   8.682  12.915   9.818
 3416ETHO    C126479   8.803  12.897   9.745
 3416ETHO   H1126480   8.786  12.811   9.677
 3416ETHO   H1326481   8.895  12.899   9.808
 3416ETHO    C226482   8.824  13.024   9.655
 3416ETHO   H2126483   8.750  13.037   9.574
 3416ETHO   H2326484   8.924  12.993   9.618
 3417ETHO    O126485   8.838  13.142   9.736
 3417ETHO    C126486   8.844  13.258   9.657
 3417ETHO   H1126487   8.915  13.336   9.691
 3417ETHO   H1326488   8.875  13.229   9.554
 3417ETHO    C226489   8.716  13.337   9.661
 3417ETHO   H2126490   8.625  13.277   9.641
 3417ETHO   H2326491   8.722  13.410   9.577
 3418ETHO    O126492   8.708  13.393   9.792
 3418ETHO    C126493   8.582  13.462   9.809
 3418ETHO   H1126494   8.506  13.381   9.801
 3418ETHO   H1326495   8.581  13.535   9.726
 3418ETHO    C226496   8.560  13.543   9.929
 3418ETHO   H2126497   8.468  13.605   9.916
 3418ETHO   H2326498   8.646  13.611   9.946
 3419ETHO    O126499   8.548  13.462  10.047
 3419ETHO    C126500   8.487  13.535  10.152
 3419ETHO   H1126501   8.559  13.618  10.170
 3419ETHO   H1326502   8.395  13.578  10.106
 3419ETHO    C226503   8.469  13.451  10.277
 3419ETHO   H2126504   8.550  13.377  10.291
 3419ETHO   H2326505   8.473  13.509  10.373
 3420ETHO    O126506   8.346  13.375  10.280
 3420ETHO    C126507   8.330  13.294  10.398
 3420ETHO   H1126508   8.222  13.272  10.414
 3420ETHO   H1326509   8.367  13.349  10.487
 3420ETHO    C226510   8.410  13.160  10.396
 3420ETHO   H2126511   8.400  13.116  10.497
 3420ETHO   H2326512   8.515  13.195  10.387
 3421ETHO    O126513   8.377  13.074  10.290
 3421ETHO    C126514   8.263  12.988  10.324
 3421ETHO   H1126515   8.265  12.959  10.431
 3421ETHO   H1326516   8.174  13.053  10.321
 3421ETHO    C226517   8.251  12.871  10.224
 3421ETHO   H2126518   8.352  12.825  10.223
 3421ETHO   H2326519   8.236  12.913  10.122
 3422ETHO    O126520   8.151  12.773  10.242
 3422ETHO    C126521   8.138  12.692  10.131
 3422ETHO   H1126522   8.231  12.632  10.121
 3422ETHO   H1326523   8.120  12.756  10.042
 3422ETHO    C226524   8.028  12.593  10.150
 3422ETHO   H2126525   8.067  12.511  10.214
 3422ETHO   H2326526   7.999  12.543  10.055
 3423ETHO    O126527   7.924  12.661  10.212
 3423ETHO    C126528   7.825  12.704  10.120
 3423ETHO   H1126529   7.862  12.710  10.015
 3423ETHO   H1326530   7.749  12.622  10.119
 3423ETHO    C226531   7.758  12.837  10.152
 3423ETHO   H2126532   7.732  12.833  10.260
 3423ETHO   H2326533   7.662  12.842  10.098
 3424ETHO    O126534   7.842  12.950  10.121
 3424ETHO    C126535   7.784  13.070  10.162
 3424ETHO   H1126536   7.744  13.063  10.265
 3424ETHO   H1326537   7.714  13.105  10.083
 3424ETHO    C226538   7.911  13.162  10.153
 3424ETHO   H2126539   7.948  13.154  10.048
 3424ETHO   H2326540   7.989  13.113  10.214
 3425ETHO    O126541   7.895  13.298  10.192
 3425ETHO    C126542   8.021  13.362  10.217
 3425ETHO   H1126543   8.087  13.297  10.278
 3425ETHO   H1326544   8.082  13.370  10.124
 3425ETHO    C226545   8.010  13.498  10.288
 3425ETHO   H2126546   7.934  13.568  10.248
 3425ETHO   H2326547   8.114  13.536  10.278
 3426ETHO    O126548   7.970  13.475  10.421
 3426ETHO    C126549   8.004  13.597  10.493
 3426ETHO   H1126550   7.932  13.675  10.461
 3426ETHO   H1326551   8.106  13.632  10.466
 3426ETHO    C226552   8.001  13.574  10.641
 3426ETHO   H2126553   7.906  13.520  10.659
 3426ETHO   H2326554   8.012  13.670  10.696
 3427ETHO    O126555   8.115  13.497  10.674
 3427ETHO    C126556   8.107  13.461  10.810
 3427ETHO   H1126557   8.196  13.396  10.825
 3427ETHO   H1326558   8.119  13.555  10.868
 3427ETHO    C226559   7.987  13.380  10.856
 3427ETHO   H2126560   7.895  13.443  10.865
 3427ETHO   H2326561   7.964  13.306  10.775
 3428ETHO    O126562   8.022  13.312  10.972
 3428ETHO    C126563   7.915  13.246  11.028
 3428ETHO   H1126564   7.822  13.307  11.032
 3428ETHO   H1326565   7.896  13.163  10.956
 3428ETHO    C226566   7.952  13.199  11.170
 3428ETHO   H2126567   8.043  13.135  11.168
 3428ETHO   H2326568   7.876  13.124  11.198
 3429ETHO    O126569   7.954  13.300  11.259
 3429ETHO    C126570   8.094  13.332  11.275
 3429ETHO   H1126571   8.147  13.257  11.336
 3429ETHO   H1326572   8.149  13.337  11.179
 3429ETHO    C226573   8.118  13.471  11.338
 3429ETHO   H2126574   8.221  13.482  11.376
 3429ETHO   H2326575   8.048  13.493  11.422
 3430ETHO    O126576   8.110  13.580  11.249
 3430ETHO    C126577   7.973  13.600  11.199
 3430ETHO   H1126578   7.961  13.509  11.136
 3430ETHO   H1326579   7.893  13.615  11.274
 3430ETHO    C226580   7.975  13.732  11.123
 3430ETHO   H2126581   8.064  13.726  11.057
 3430ETHO   H2326582   7.981  13.820  11.190
 3431ETHO    O126583   7.866  13.741  11.041
 3431ETHO    C126584   7.860  13.858  10.959
 3431ETHO   H1126585   7.764  13.859  10.901
 3431ETHO   H1326586   7.938  13.854  10.880
 3431ETHO    C226587   7.865  13.999  11.022
 3431ETHO   H2126588   7.794  14.012  11.107
 3431ETHO   H2326589   7.841  14.072  10.941
 3432ETHO    O126590   8.003  14.016  11.052
 3432ETHO    C126591   8.021  14.143  11.111
 3432ETHO   H1126592   8.012  14.217  11.028
 3432ETHO   H1326593   7.941  14.169  11.184
 3432ETHO    C226594   8.157  14.142  11.187
 3432ETHO   H2126595   8.226  14.122  11.102
 3432ETHO   H2326596   8.162  14.063  11.265
 3433ETHO    O126597   8.183  14.263  11.243
 3433ETHO    C126598   8.154  14.267  11.383
 3433ETHO   H1126599   8.217  14.190  11.432
 3433ETHO   H1326600   8.049  14.231  11.379
 3433ETHO    C226601   8.186  14.394  11.459
 3433ETHO   H2126602   8.176  14.482  11.392
 3433ETHO   H2326603   8.294  14.389  11.485
 3434ETHO    O126604   8.105  14.404  11.580
 3434ETHO    C126605   8.169  14.347  11.690
 3434ETHO   H1126606   8.216  14.248  11.672
 3434ETHO   H1326607   8.243  14.423  11.725
 3434ETHO    C226608   8.065  14.333  11.807
 3434ETHO   H2126609   8.022  14.434  11.820
 3434ETHO   H2326610   8.121  14.310  11.900
 3435ETHO    O126611   7.973  14.230  11.787
 3435ETHO    C126612   7.876  14.262  11.694
 3435ETHO   H1126613   7.899  14.247  11.586
 3435ETHO   H1326614   7.859  14.372  11.690
 3435ETHO    C226615   7.741  14.195  11.726
 3435ETHO   H2126616   7.756  14.086  11.740
 3435ETHO   H2326617   7.672  14.208  11.639
 3436ETHO    O126618   7.683  14.257  11.839
 3436ETHO    C126619   7.702  14.178  11.951
 3436ETHO   H1126620   7.683  14.071  11.928
 3436ETHO   H1326621   7.808  14.180  11.983
 3436ETHO    C226622   7.618  14.240  12.070
 3436ETHO   H2126623   7.636  14.185  12.165
 3436ETHO   H2326624   7.508  14.226  12.058
 3437ETHO    O126625   7.669  14.375  12.091
 3437ETHO    C126626   7.590  14.463  12.168
 3437ETHO   H1126627   7.583  14.420  12.271
 3437ETHO   H1326628   7.491  14.468  12.117
 3437ETHO    C226629   7.632  14.609  12.192
 3437ETHO   H2126630   7.740  14.600  12.216
 3437ETHO   H2326631   7.570  14.643  12.277
 3438ETHO    O126632   7.606  14.701  12.085
 3438ETHO    C126633   7.676  14.825  12.101
 3438ETHO   H1126634   7.631  14.879  12.187
 3438ETHO   H1326635   7.784  14.814  12.124
 3438ETHO    C226636   7.651  14.909  11.973
 3438ETHO   H2126637   7.691  15.012  11.981
 3438ETHO   H2326638   7.542  14.909  11.955
 3439ETHO    O126639   7.710  14.862  11.855
 3439ETHO    C126640   7.665  14.943  11.743
 3439ETHO   H1126641   7.561  14.915  11.718
 3439ETHO   H1326642   7.668  15.049  11.776
 3439ETHO    C226643   7.749  14.944  11.608
 3439ETHO   H2126644   7.853  14.982  11.605
 3439ETHO   H2326645   7.684  15.006  11.543
 3440ETHO    O126646   7.738  14.815  11.553
 3440ETHO    C126647   7.775  14.810  11.414
 3440ETHO   H1126648   7.677  14.823  11.365
 3440ETHO   H1326649   7.840  14.894  11.383
 3440ETHO    C226650   7.842  14.675  11.375
 3440ETHO   H2126651   7.932  14.658  11.437
 3440ETHO   H2326652   7.882  14.686  11.272
 3441ETHO    O126653   7.756  14.564  11.384
 3441ETHO    C126654   7.818  14.440  11.364
 3441ETHO   H1126655   7.889  14.445  11.279
 3441ETHO   H1326656   7.884  14.433  11.453
 3441ETHO    C226657   7.714  14.316  11.360
 3441ETHO   H2126658   7.642  14.325  11.277
 3441ETHO   H2326659   7.653  14.307  11.453
 3442ETHO    O126660   7.777  14.197  11.360
 3442ETHO    C126661   7.687  14.093  11.377
 3442ETHO   H1126662   7.622  14.096  11.287
 3442ETHO   H1326663   7.615  14.112  11.460
 3442ETHO    C226664   7.773  13.964  11.403
 3442ETHO   H2126665   7.849  13.934  11.328
 3442ETHO   H2326666   7.699  13.882  11.390
 3443ETHO    O126667   7.816  13.954  11.538
 3443ETHO    C126668   7.899  13.839  11.555
 3443ETHO   H1126669   8.000  13.856  11.512
 3443ETHO   H1326670   7.849  13.752  11.506
 3443ETHO    C226671   7.919  13.803  11.704
 3443ETHO   H2126672   7.821  13.781  11.753
 3443ETHO   H2326673   7.960  13.894  11.753
 3444ETHO    O126674   8.012  13.707  11.726
 3444ETHO    C126675   7.944  13.586  11.757
 3444ETHO   H1126676   7.869  13.561  11.678
 3444ETHO   H1326677   7.885  13.591  11.851
 3444ETHO    C226678   8.052  13.478  11.766
 3444ETHO   H2126679   8.119  13.489  11.678
 3444ETHO   H2326680   8.004  13.378  11.764
 3445ETHO    O126681   8.127  13.479  11.888
 3445ETHO    C126682   8.223  13.378  11.883
 3445ETHO   H1126683   8.278  13.375  11.979
 3445ETHO   H1326684   8.172  13.279  11.874
 3445ETHO    C226685   8.330  13.387  11.774
 3445ETHO   H2126686   8.426  13.344  11.809
 3445ETHO   H2326687   8.351  13.495  11.762
 3445ETHO    OZ26688   8.292  13.321  11.652
 3445ETHO   HZ126689   8.377  13.321  11.607
 3446ETHO    O126690  21.496  14.254   9.342
 3446ETHO   HO126691  21.439  14.194   9.293
 3446ETHO    C126692  21.572  14.177   9.434
 3446ETHO   H1126693  21.509  14.087   9.452
 3446ETHO   H1326694  21.580  14.244   9.522
 3446ETHO    C226695  21.696  14.125   9.376
 3446ETHO   H2126696  21.756  14.078   9.456
 3446ETHO   H2326697  21.755  14.210   9.334
 3447ETHO    O126698  21.666  14.033   9.269
 3447ETHO    C126699  21.664  13.900   9.320
 3447ETHO   H1126700  21.762  13.872   9.365
 3447ETHO   H1326701  21.590  13.876   9.400
 3447ETHO    C226702  21.639  13.802   9.199
 3447ETHO   H2126703  21.670  13.699   9.226
 3447ETHO   H2326704  21.710  13.840   9.123
 3448ETHO    O126705  21.512  13.813   9.140
 3448ETHO    C126706  21.483  13.716   9.038
 3448ETHO   H1126707  21.545  13.626   9.056
 3448ETHO   H1326708  21.499  13.759   8.936
 3448ETHO    C226709  21.334  13.671   9.055
 3448ETHO   H2126710  21.311  13.598   8.974
 3448ETHO   H2326711  21.259  13.752   9.039
 3449ETHO    O126712  21.312  13.603   9.174
 3449ETHO    C126713  21.175  13.554   9.183
 3449ETHO   H1126714  21.148  13.485   9.099
 3449ETHO   H1326715  21.171  13.501   9.280
 3449ETHO    C226716  21.053  13.648   9.196
 3449ETHO   H2126717  20.963  13.586   9.217
 3449ETHO   H2326718  21.043  13.700   9.098
 3450ETHO    O126719  21.071  13.741   9.299
 3450ETHO    C126720  21.007  13.863   9.275
 3450ETHO   H1126721  21.045  13.940   9.346
 3450ETHO   H1326722  21.028  13.895   9.171
 3450ETHO    C226723  20.853  13.873   9.285
 3450ETHO   H2126724  20.794  13.801   9.224
 3450ETHO   H2326725  20.833  13.975   9.245
 3451ETHO    O126726  20.807  13.860   9.420
 3451ETHO    C126727  20.663  13.878   9.424
 3451ETHO   H1126728  20.639  13.959   9.352
 3451ETHO   H1326729  20.615  13.784   9.389
 3451ETHO    C226730  20.589  13.928   9.550
 3451ETHO   H2126731  20.604  13.875   9.646
 3451ETHO   H2326732  20.478  13.923   9.535
 3452ETHO    O126733  20.614  14.062   9.582
 3452ETHO    C126734  20.543  14.106   9.704
 3452ETHO   H1126735  20.437  14.071   9.698
 3452ETHO   H1326736  20.595  14.059   9.790
 3452ETHO    C226737  20.538  14.263   9.710
 3452ETHO   H2126738  20.474  14.301   9.628
 3452ETHO   H2326739  20.639  14.297   9.681
 3453ETHO    O126740  20.493  14.304   9.846
 3453ETHO    C126741  20.447  14.437   9.846
 3453ETHO   H1126742  20.368  14.439   9.768
 3453ETHO   H1326743  20.532  14.504   9.824
 3453ETHO    C226744  20.389  14.472   9.983
 3453ETHO   H2126745  20.368  14.581   9.992
 3453ETHO   H2326746  20.462  14.457  10.065
 3454ETHO    O126747  20.264  14.406  10.003
 3454ETHO    C126748  20.231  14.410  10.144
 3454ETHO   H1126749  20.298  14.333  10.189
 3454ETHO   H1326750  20.259  14.504  10.195
 3454ETHO    C226751  20.084  14.381  10.169
 3454ETHO   H2126752  20.071  14.373  10.279
 3454ETHO   H2326753  20.055  14.281  10.130
 3455ETHO    O126754  20.002  14.487  10.124
 3455ETHO    C126755  19.889  14.504  10.214
 3455ETHO   H1126756  19.827  14.593  10.191
 3455ETHO   H1326757  19.927  14.529  10.316
 3455ETHO    C226758  19.803  14.381  10.213
 3455ETHO   H2126759  19.715  14.385  10.280
 3455ETHO   H2326760  19.855  14.289  10.246
 3456ETHO    O126761  19.767  14.342  10.083
 3456ETHO    C126762  19.655  14.430  10.043
 3456ETHO   H1126763  19.660  14.529  10.093
 3456ETHO   H1326764  19.657  14.447   9.933
 3456ETHO    C226765  19.518  14.387  10.097
 3456ETHO   H2126766  19.518  14.396  10.207
 3456ETHO   H2326767  19.448  14.468  10.065
 3457ETHO    O126768  19.469  14.261  10.047
 3457ETHO    C126769  19.334  14.240  10.075
 3457ETHO   H1126770  19.275  14.320  10.025
 3457ETHO   H1326771  19.306  14.243  10.182
 3457ETHO    C226772  19.291  14.097  10.028
 3457ETHO   H2126773  19.326  14.071   9.926
 3457ETHO   H2326774  19.180  14.110  10.030
 3458ETHO    O126775  19.328  14.009  10.130
 3458ETHO    C126776  19.268  13.879  10.114
 3458ETHO   H1126777  19.187  13.868  10.190
 3458ETHO   H1326778  19.213  13.865  10.018
 3458ETHO    C226779  19.364  13.760  10.132
 3458ETHO   H2126780  19.445  13.787  10.204
 3458ETHO   H2326781  19.394  13.739  10.027
 3459ETHO    O126782  19.289  13.650  10.179
 3459ETHO    C126783  19.374  13.557  10.249
 3459ETHO   H1126784  19.305  13.486  10.299
 3459ETHO   H1326785  19.427  13.612  10.330
 3459ETHO    C226786  19.487  13.487  10.166
 3459ETHO   H2126787  19.575  13.455  10.227
 3459ETHO   H2326788  19.531  13.550  10.086
 3460ETHO    O126789  19.436  13.369  10.100
 3460ETHO    C126790  19.369  13.409   9.989
 3460ETHO   H1126791  19.282  13.471  10.020
 3460ETHO   H1326792  19.434  13.471   9.923
 3460ETHO    C226793  19.344  13.296   9.888
 3460ETHO   H2126794  19.315  13.330   9.786
 3460ETHO   H2326795  19.441  13.245   9.867
 3461ETHO    O126796  19.252  13.208   9.945
 3461ETHO    C126797  19.212  13.104   9.856
 3461ETHO   H1126798  19.214  13.120   9.746
 3461ETHO   H1326799  19.304  13.042   9.864
 3461ETHO    C226800  19.078  13.035   9.908
 3461ETHO   H2126801  19.026  12.976   9.829
 3461ETHO   H2326802  19.012  13.119   9.938
 3462ETHO    O126803  19.107  12.963  10.031
 3462ETHO    C126804  18.994  12.875  10.068
 3462ETHO   H1126805  18.902  12.924  10.031
 3462ETHO   H1326806  19.011  12.773  10.028
 3462ETHO    C226807  18.995  12.867  10.226
 3462ETHO   H2126808  19.091  12.824  10.263
 3462ETHO   H2326809  18.908  12.805  10.256
 3463ETHO    O126810  18.979  13.000  10.272
 3463ETHO    C126811  19.002  12.994  10.411
 3463ETHO   H1126812  18.942  12.912  10.456
 3463ETHO   H1326813  19.107  12.960  10.420
 3463ETHO    C226814  18.983  13.117  10.494
 3463ETHO   H2126815  19.031  13.195  10.432
 3463ETHO   H2326816  19.030  13.105  10.594
 3464ETHO    O126817  18.847  13.153  10.509
 3464ETHO    C126818  18.815  13.255  10.593
 3464ETHO   H1126819  18.825  13.217  10.697
 3464ETHO   H1326820  18.711  13.284  10.568
 3464ETHO    C226821  18.882  13.384  10.558
 3464ETHO   H2126822  18.841  13.464  10.623
 3464ETHO   H2326823  18.863  13.407  10.451
 3465ETHO    O126824  19.015  13.372  10.579
 3465ETHO    C126825  19.086  13.496  10.568
 3465ETHO   H1126826  19.056  13.556  10.656
 3465ETHO   H1326827  19.194  13.474  10.578
 3465ETHO    C226828  19.053  13.584  10.447
 3465ETHO   H2126829  19.042  13.518  10.358
 3465ETHO   H2326830  19.133  13.655  10.418
 3466ETHO    O126831  18.928  13.656  10.473
 3466ETHO    C126832  18.871  13.710  10.349
 3466ETHO   H1126833  18.841  13.632  10.276
 3466ETHO   H1326834  18.959  13.759  10.300
 3466ETHO    C226835  18.765  13.825  10.385
 3466ETHO   H2126836  18.748  13.897  10.301
 3466ETHO   H2326837  18.808  13.888  10.465
 3467ETHO    O126838  18.635  13.764  10.416
 3467ETHO    C126839  18.534  13.864  10.441
 3467ETHO   H1126840  18.573  13.940  10.512
 3467ETHO   H1326841  18.516  13.924  10.349
 3467ETHO    C226842  18.415  13.803  10.500
 3467ETHO   H2126843  18.446  13.752  10.594
 3467ETHO   H2326844  18.342  13.883  10.525
 3468ETHO    O126845  18.347  13.705  10.421
 3468ETHO    C126846  18.208  13.710  10.451
 3468ETHO   H1126847  18.202  13.734  10.559
 3468ETHO   H1326848  18.168  13.610  10.425
 3468ETHO    C226849  18.112  13.815  10.381
 3468ETHO   H2126850  18.137  13.914  10.425
 3468ETHO   H2326851  18.010  13.791  10.417
 3469ETHO    O126852  18.113  13.805  10.239
 3469ETHO    C126853  18.029  13.902  10.189
 3469ETHO   H1126854  17.924  13.867  10.187
 3469ETHO   H1326855  18.027  13.987  10.260
 3469ETHO    C226856  18.077  13.965  10.053
 3469ETHO   H2126857  18.177  14.013  10.063
 3469ETHO   H2326858  17.991  14.033  10.033
 3470ETHO    O126859  18.082  13.870   9.950
 3470ETHO    C126860  18.145  13.921   9.830
 3470ETHO   H1126861  18.247  13.961   9.845
 3470ETHO   H1326862  18.077  14.006   9.805
 3470ETHO    C226863  18.134  13.822   9.712
 3470ETHO   H2126864  18.032  13.777   9.714
 3470ETHO   H2326865  18.208  13.739   9.717
 3471ETHO    O126866  18.134  13.890   9.582
 3471ETHO    C126867  18.122  13.798   9.470
 3471ETHO   H1126868  18.204  13.723   9.479
 3471ETHO   H1326869  18.029  13.739   9.481
 3471ETHO    C226870  18.131  13.879   9.340
 3471ETHO   H2126871  18.048  13.952   9.347
 3471ETHO   H2326872  18.108  13.808   9.258
 3472ETHO    O126873  18.256  13.945   9.317
 3472ETHO    C126874  18.265  13.988   9.179
 3472ETHO   H1126875  18.192  14.071   9.170
 3472ETHO   H1326876  18.250  13.896   9.118
 3472ETHO    C226877  18.409  14.041   9.147
 3472ETHO   H2126878  18.489  13.964   9.148
 3472ETHO   H2326879  18.436  14.121   9.219
 3473ETHO    O126880  18.404  14.088   9.010
 3473ETHO    C126881  18.524  14.162   8.988
 3473ETHO   H1126882  18.532  14.248   9.057
 3473ETHO   H1326883  18.605  14.086   9.000
 3473ETHO    C226884  18.519  14.191   8.842
 3473ETHO   H2126885  18.436  14.264   8.829
 3473ETHO   H2326886  18.497  14.102   8.780
 3474ETHO    O126887  18.637  14.255   8.791
 3474ETHO    C126888  18.744  14.171   8.764
 3474ETHO   H1126889  18.705  14.072   8.731
 3474ETHO   H1326890  18.788  14.152   8.864
 3474ETHO    C226891  18.854  14.216   8.669
 3474ETHO   H2126892  18.947  14.155   8.674
 3474ETHO   H2326893  18.894  14.315   8.702
 3475ETHO    O126894  18.800  14.212   8.539
 3475ETHO    C126895  18.883  14.291   8.449
 3475ETHO   H1126896  18.871  14.398   8.477
 3475ETHO   H1326897  18.989  14.267   8.472
 3475ETHO    C226898  18.866  14.283   8.293
 3475ETHO   H2126899  18.864  14.175   8.267
 3475ETHO   H2326900  18.940  14.341   8.235
 3476ETHO    O126901  18.739  14.340   8.270
 3476ETHO    C126902  18.698  14.316   8.132
 3476ETHO   H1126903  18.754  14.227   8.096
 3476ETHO   H1326904  18.591  14.288   8.138
 3476ETHO    C226905  18.727  14.431   8.030
 3476ETHO   H2126906  18.699  14.406   7.925
 3476ETHO   H2326907  18.833  14.465   8.028
 3477ETHO    O126908  18.653  14.543   8.076
 3477ETHO    C126909  18.662  14.657   7.987
 3477ETHO   H1126910  18.654  14.750   8.048
 3477ETHO   H1326911  18.760  14.667   7.934
 3477ETHO    C226912  18.552  14.656   7.882
 3477ETHO   H2126913  18.466  14.603   7.930
 3477ETHO   H2326914  18.581  14.596   7.793
 3478ETHO    O126915  18.526  14.792   7.841
 3478ETHO    C126916  18.423  14.799   7.749
 3478ETHO   H1126917  18.459  14.730   7.669
 3478ETHO   H1326918  18.332  14.757   7.798
 3478ETHO    C226919  18.388  14.939   7.696
 3478ETHO   H2126920  18.319  14.933   7.609
 3478ETHO   H2326921  18.480  14.983   7.652
 3479ETHO    O126922  18.340  15.020   7.804
 3479ETHO    C126923  18.344  15.157   7.776
 3479ETHO   H1126924  18.273  15.172   7.692
 3479ETHO   H1326925  18.444  15.194   7.745
 3479ETHO    C226926  18.308  15.253   7.893
 3479ETHO   H2126927  18.225  15.203   7.948
 3479ETHO   H2326928  18.277  15.354   7.860
 3480ETHO    O126929  18.420  15.261   7.985
 3480ETHO    C126930  18.391  15.332   8.105
 3480ETHO   H1126931  18.332  15.423   8.080
 3480ETHO   H1326932  18.314  15.269   8.153
 3480ETHO    C226933  18.519  15.361   8.183
 3480ETHO   H2126934  18.486  15.413   8.275
 3480ETHO   H2326935  18.599  15.418   8.131
 3481ETHO    O126936  18.570  15.235   8.224
 3481ETHO    C126937  18.703  15.241   8.264
 3481ETHO   H1126938  18.726  15.326   8.332
 3481ETHO   H1326939  18.756  15.265   8.170
 3481ETHO    C226940  18.760  15.115   8.334
 3481ETHO   H2126941  18.841  15.065   8.278
 3481ETHO   H2326942  18.683  15.036   8.318
 3482ETHO    O126943  18.804  15.123   8.469
 3482ETHO    C126944  18.941  15.169   8.486
 3482ETHO   H1126945  18.957  15.150   8.594
 3482ETHO   H1326946  19.021  15.114   8.432
 3482ETHO    C226947  18.970  15.324   8.461
 3482ETHO   H2126948  19.065  15.349   8.512
 3482ETHO   H2326949  18.882  15.371   8.511
 3483ETHO    O126950  18.967  15.370   8.323
 3483ETHO    C126951  19.074  15.321   8.246
 3483ETHO   H1126952  19.067  15.210   8.244
 3483ETHO   H1326953  19.169  15.351   8.294
 3483ETHO    C226954  19.082  15.354   8.096
 3483ETHO   H2126955  19.182  15.318   8.062
 3483ETHO   H2326956  19.091  15.462   8.073
 3484ETHO    O126957  18.967  15.288   8.038
 3484ETHO    C126958  18.953  15.314   7.896
 3484ETHO   H1126959  18.882  15.400   7.888
 3484ETHO   H1326960  19.051  15.343   7.853
 3484ETHO    C226961  18.902  15.194   7.818
 3484ETHO   H2126962  18.884  15.221   7.712
 3484ETHO   H2326963  18.804  15.161   7.858
 3485ETHO    O126964  18.996  15.089   7.813
 3485ETHO    C126965  18.950  14.978   7.743
 3485ETHO   H1126966  18.899  15.018   7.653
 3485ETHO   H1326967  18.871  14.930   7.804
 3485ETHO    C226968  19.067  14.885   7.712
 3485ETHO   H2126969  19.150  14.949   7.675
 3485ETHO   H2326970  19.037  14.828   7.622
 3486ETHO    O126971  19.103  14.798   7.822
 3486ETHO    C126972  19.222  14.724   7.800
 3486ETHO   H1126973  19.307  14.785   7.762
 3486ETHO   H1326974  19.241  14.670   7.895
 3486ETHO    C226975  19.203  14.620   7.687
 3486ETHO   H2126976  19.301  14.569   7.682
 3486ETHO   H2326977  19.166  14.662   7.591
 3487ETHO    O126978  19.118  14.513   7.725
 3487ETHO    C126979  18.988  14.524   7.680
 3487ETHO   H1126980  18.927  14.577   7.756
 3487ETHO   H1326981  18.975  14.577   7.584
 3487ETHO    C226982  18.950  14.375   7.670
 3487ETHO   H2126983  18.930  14.337   7.773
 3487ETHO   H2326984  19.033  14.312   7.633
 3488ETHO    O126985  18.841  14.344   7.582
 3488ETHO    C126986  18.714  14.377   7.631
 3488ETHO   H1126987  18.690  14.322   7.725
 3488ETHO   H1326988  18.712  14.485   7.659
 3488ETHO    C226989  18.606  14.342   7.525
 3488ETHO   H2126990  18.625  14.373   7.420
 3488ETHO   H2326991  18.519  14.403   7.560
 3489ETHO    O126992  18.574  14.198   7.532
 3489ETHO    C126993  18.681  14.115   7.505
 3489ETHO   H1126994  18.732  14.157   7.416
 3489ETHO   H1326995  18.746  14.122   7.596
 3489ETHO    C226996  18.619  13.981   7.479
 3489ETHO   H2126997  18.686  13.926   7.408
 3489ETHO   H2326998  18.522  13.989   7.425
 3490ETHO    O126999  18.603  13.906   7.600
 3490ETHO    C127000  18.502  13.794   7.597
 3490ETHO   H1127001  18.497  13.736   7.502
 3490ETHO   H1327002  18.401  13.830   7.623
 3490ETHO    C227003  18.544  13.691   7.708
 3490ETHO   H2127004  18.457  13.626   7.730
 3490ETHO   H2327005  18.564  13.743   7.804
 3491ETHO    O127006  18.659  13.621   7.660
 3491ETHO    C127007  18.693  13.512   7.746
 3491ETHO   H1127008  18.681  13.530   7.855
 3491ETHO   H1327009  18.624  13.427   7.726
 3491ETHO    C227010  18.833  13.454   7.720
 3491ETHO   H2127011  18.851  13.442   7.611
 3491ETHO   H2327012  18.829  13.355   7.770
 3492ETHO    O127013  18.947  13.531   7.778
 3492ETHO    C127014  19.071  13.450   7.784
 3492ETHO   H1127015  19.107  13.424   7.682
 3492ETHO   H1327016  19.051  13.353   7.834
 3492ETHO    C227017  19.191  13.519   7.852
 3492ETHO   H2127018  19.270  13.442   7.864
 3492ETHO   H2327019  19.150  13.564   7.945
 3493ETHO    O127020  19.241  13.619   7.760
 3493ETHO    C127021  19.352  13.695   7.807
 3493ETHO   H1127022  19.336  13.751   7.902
 3493ETHO   H1327023  19.424  13.612   7.821
 3493ETHO    C227024  19.405  13.790   7.697
 3493ETHO   H2127025  19.502  13.826   7.737
 3493ETHO   H2327026  19.416  13.734   7.602
 3494ETHO    O127027  19.331  13.915   7.684
 3494ETHO    C127028  19.384  13.984   7.570
 3494ETHO   H1127029  19.319  13.967   7.482
 3494ETHO   H1327030  19.488  13.966   7.537
 3494ETHO    C227031  19.383  14.136   7.591
 3494ETHO   H2127032  19.461  14.163   7.666
 3494ETHO   H2327033  19.282  14.159   7.631
 3495ETHO    O127034  19.390  14.209   7.466
 3495ETHO    C127035  19.382  14.346   7.468
 3495ETHO   H1127036  19.382  14.384   7.364
 3495ETHO   H1327037  19.290  14.374   7.523
 3495ETHO    C227038  19.502  14.414   7.537
 3495ETHO   H2127039  19.486  14.521   7.512
 3495ETHO   H2327040  19.597  14.384   7.487
 3496ETHO    O127041  19.501  14.410   7.674
 3496ETHO    C127042  19.597  14.495   7.740
 3496ETHO   H1127043  19.573  14.599   7.710
 3496ETHO   H1327044  19.702  14.474   7.711
 3496ETHO    C227045  19.576  14.490   7.894
 3496ETHO   H2127046  19.474  14.448   7.912
 3496ETHO   H2327047  19.588  14.593   7.934
 3497ETHO    O127048  19.676  14.411   7.954
 3497ETHO    C127049  19.650  14.372   8.087
 3497ETHO   H1127050  19.742  14.356   8.146
 3497ETHO   H1327051  19.602  14.452   8.146
 3497ETHO    C227052  19.549  14.256   8.113
 3497ETHO   H2127053  19.463  14.259   8.042
 3497ETHO   H2327054  19.512  14.260   8.217
 3498ETHO    O127055  19.614  14.128   8.094
 3498ETHO    C127056  19.519  14.025   8.090
 3498ETHO   H1127057  19.434  14.045   8.159
 3498ETHO   H1327058  19.481  14.017   7.986
 3498ETHO    C227059  19.594  13.899   8.121
 3498ETHO   H2127060  19.701  13.920   8.100
 3498ETHO   H2327061  19.569  13.825   8.042
 3499ETHO    O127062  19.584  13.847   8.255
 3499ETHO    C127063  19.659  13.727   8.269
 3499ETHO   H1127064  19.749  13.726   8.205
 3499ETHO   H1327065  19.700  13.735   8.372
 3499ETHO    C227066  19.591  13.588   8.256
 3499ETHO   H2127067  19.500  13.580   8.319
 3499ETHO   H2327068  19.666  13.509   8.276
 3500ETHO    O127069  19.562  13.573   8.119
 3500ETHO    C127070  19.481  13.457   8.094
 3500ETHO   H1127071  19.390  13.467   8.157
 3500ETHO   H1327072  19.452  13.462   7.986
 3500ETHO    C227073  19.570  13.329   8.106
 3500ETHO   H2127074  19.524  13.254   8.039
 3500ETHO   H2327075  19.668  13.345   8.057
 3501ETHO    O127076  19.592  13.286   8.240
 3501ETHO    C127077  19.524  13.166   8.272
 3501ETHO   H1127078  19.552  13.091   8.194
 3501ETHO   H1327079  19.414  13.175   8.259
 3501ETHO    C227080  19.559  13.123   8.410
 3501ETHO   H2127081  19.670  13.121   8.416
 3501ETHO   H2327082  19.514  13.026   8.439
 3502ETHO    O127083  19.508  13.224   8.496
 3502ETHO    C127084  19.525  13.210   8.637
 3502ETHO   H1127085  19.435  13.148   8.657
 3502ETHO   H1327086  19.617  13.149   8.653
 3502ETHO    C227087  19.522  13.347   8.709
 3502ETHO   H2127088  19.612  13.396   8.667
 3502ETHO   H2327089  19.537  13.338   8.819
 3503ETHO    O127090  19.400  13.423   8.701
 3503ETHO    C127091  19.428  13.560   8.743
 3503ETHO   H1127092  19.523  13.595   8.698
 3503ETHO   H1327093  19.437  13.561   8.854
 3503ETHO    C227094  19.312  13.643   8.698
 3503ETHO   H2127095  19.308  13.739   8.754
 3503ETHO   H2327096  19.219  13.588   8.726
 3504ETHO    O127097  19.317  13.668   8.562
 3504ETHO    C127098  19.287  13.798   8.531
 3504ETHO   H1127099  19.188  13.817   8.577
 3504ETHO   H1327100  19.370  13.861   8.571
 3504ETHO    C227101  19.285  13.802   8.376
 3504ETHO   H2127102  19.364  13.731   8.344
 3504ETHO   H2327103  19.299  13.901   8.328
 3505ETHO    O127104  19.164  13.759   8.322
 3505ETHO    C127105  19.166  13.765   8.180
 3505ETHO   H1127106  19.109  13.673   8.154
 3505ETHO   H1327107  19.268  13.755   8.137
 3505ETHO    C227108  19.089  13.882   8.116
 3505ETHO   H2127109  18.987  13.888   8.160
 3505ETHO   H2327110  19.070  13.846   8.013
 3506ETHO    O127111  19.155  14.013   8.117
 3506ETHO    C127112  19.091  14.105   8.035
 3506ETHO   H1127113  19.070  14.049   7.941
 3506ETHO   H1327114  18.992  14.136   8.075
 3506ETHO    C227115  19.169  14.234   8.011
 3506ETHO   H2127116  19.123  14.286   7.924
 3506ETHO   H2327117  19.276  14.209   7.992
 3507ETHO    O127118  19.154  14.314   8.128
 3507ETHO    C127119  19.218  14.436   8.122
 3507ETHO   H1127120  19.183  14.497   8.036
 3507ETHO   H1327121  19.328  14.419   8.112
 3507ETHO    C227122  19.183  14.507   8.257
 3507ETHO   H2127123  19.074  14.493   8.276
 3507ETHO   H2327124  19.202  14.615   8.240
 3508ETHO    O127125  19.257  14.466   8.369
 3508ETHO    C127126  19.374  14.544   8.383
 3508ETHO   H1127127  19.421  14.553   8.283
 3508ETHO   H1327128  19.356  14.648   8.418
 3508ETHO    C227129  19.477  14.488   8.481
 3508ETHO   H2127130  19.421  14.481   8.577
 3508ETHO   H2327131  19.562  14.556   8.499
 3509ETHO    O127132  19.534  14.361   8.445
 3509ETHO    C127133  19.473  14.244   8.493
 3509ETHO   H1127134  19.371  14.237   8.450
 3509ETHO   H1327135  19.459  14.255   8.602
 3509ETHO    C227136  19.559  14.121   8.462
 3509ETHO   H2127137  19.596  14.122   8.357
 3509ETHO   H2327138  19.491  14.034   8.473
 3510ETHO    O127139  19.659  14.110   8.560
 3510ETHO    C127140  19.782  14.171   8.514
 3510ETHO   H1127141  19.760  14.267   8.462
 3510ETHO   H1327142  19.831  14.194   8.611
 3510ETHO    C227143  19.883  14.090   8.424
 3510ETHO   H2127144  19.849  14.081   8.319
 3510ETHO   H2327145  19.886  13.991   8.473
 3511ETHO    O127146  20.017  14.143   8.434
 3511ETHO    C127147  20.028  14.267   8.361
 3511ETHO   H1127148  20.018  14.351   8.433
 3511ETHO   H1327149  19.953  14.280   8.280
 3511ETHO    C227150  20.167  14.269   8.298
 3511ETHO   H2127151  20.236  14.246   8.382
 3511ETHO   H2327152  20.201  14.364   8.252
 3512ETHO    O127153  20.177  14.174   8.189
 3512ETHO    C127154  20.287  14.197   8.105
 3512ETHO   H1127155  20.272  14.300   8.067
 3512ETHO   H1327156  20.381  14.190   8.164
 3512ETHO    C227157  20.291  14.103   7.980
 3512ETHO   H2127158  20.296  13.995   8.005
 3512ETHO   H2327159  20.384  14.134   7.928
 3513ETHO    O127160  20.176  14.121   7.902
 3513ETHO    C127161  20.199  14.067   7.770
 3513ETHO   H1127162  20.293  14.119   7.739
 3513ETHO   H1327163  20.237  13.963   7.775
 3513ETHO    C227164  20.087  14.102   7.668
 3513ETHO   H2127165  19.992  14.056   7.702
 3513ETHO   H2327166  20.115  14.067   7.567
 3514ETHO    O127167  20.077  14.240   7.672
 3514ETHO    C127168  20.012  14.295   7.560
 3514ETHO   H1127169  20.055  14.255   7.465
 3514ETHO   H1327170  19.903  14.276   7.552
 3514ETHO    C227171  20.015  14.452   7.577
 3514ETHO   H2127172  20.118  14.488   7.595
 3514ETHO   H2327173  19.947  14.472   7.662
 3515ETHO    O127174  19.971  14.500   7.455
 3515ETHO    C127175  19.918  14.634   7.457
 3515ETHO   H1127176  19.849  14.657   7.541
 3515ETHO   H1327177  19.999  14.704   7.484
 3515ETHO    C227178  19.865  14.687   7.324
 3515ETHO   H2127179  19.930  14.635   7.250
 3515ETHO   H2327180  19.875  14.798   7.315
 3516ETHO    O127181  19.723  14.645   7.298
 3516ETHO    C127182  19.676  14.690   7.170
 3516ETHO   H1127183  19.719  14.630   7.086
 3516ETHO   H1327184  19.704  14.795   7.147
 3516ETHO    C227185  19.524  14.688   7.183
 3516ETHO   H2127186  19.497  14.611   7.258
 3516ETHO   H2327187  19.486  14.654   7.084
 3517ETHO    O127188  19.476  14.816   7.219
 3517ETHO    C127189  19.434  14.828   7.352
 3517ETHO   H1127190  19.347  14.896   7.365
 3517ETHO   H1327191  19.397  14.729   7.385
 3517ETHO    C227192  19.547  14.870   7.447
 3517ETHO   H2127193  19.628  14.929   7.399
 3517ETHO   H2327194  19.589  14.775   7.486
 3518ETHO    O127195  19.481  14.951   7.551
 3518ETHO    C127196  19.565  14.975   7.659
 3518ETHO   H1127197  19.653  15.028   7.615
 3518ETHO   H1327198  19.613  14.884   7.700
 3518ETHO    C227199  19.512  15.077   7.755
 3518ETHO   H2127200  19.570  15.109   7.844
 3518ETHO   H2327201  19.423  15.025   7.797
 3519ETHO    O127202  19.472  15.196   7.695
 3519ETHO    C127203  19.379  15.276   7.774
 3519ETHO   H1127204  19.302  15.211   7.820
 3519ETHO   H1327205  19.430  15.327   7.859
 3519ETHO    C227206  19.303  15.379   7.691
 3519ETHO   H2127207  19.215  15.340   7.636
 3519ETHO   H2327208  19.379  15.413   7.618
 3520ETHO    O127209  19.267  15.478   7.779
 3520ETHO    C127210  19.185  15.575   7.727
 3520ETHO   H1127211  19.102  15.526   7.672
 3520ETHO   H1327212  19.254  15.625   7.656
 3520ETHO    C227213  19.122  15.681   7.816
 3520ETHO   H2127214  19.076  15.617   7.894
 3520ETHO   H2327215  19.052  15.746   7.760
 3521ETHO    O127216  19.215  15.773   7.868
 3521ETHO    C127217  19.284  15.727   7.985
 3521ETHO   H1127218  19.203  15.681   8.046
 3521ETHO   H1327219  19.350  15.645   7.950
 3521ETHO    C227220  19.363  15.829   8.064
 3521ETHO   H2127221  19.414  15.788   8.154
 3521ETHO   H2327222  19.293  15.910   8.091
 3522ETHO    O127223  19.468  15.884   7.986
 3522ETHO    C127224  19.554  15.977   8.057
 3522ETHO   H1127225  19.486  16.047   8.111
 3522ETHO   H1327226  19.605  16.040   7.981
 3522ETHO    C227227  19.648  15.903   8.152
 3522ETHO   H2127228  19.740  15.964   8.160
 3522ETHO   H2327229  19.674  15.808   8.101
 3523ETHO    O127230  19.598  15.889   8.287
 3523ETHO    C127231  19.671  15.801   8.366
 3523ETHO   H1127232  19.775  15.806   8.329
 3523ETHO   H1327233  19.668  15.846   8.468
 3523ETHO    C227234  19.622  15.654   8.366
 3523ETHO   H2127235  19.516  15.654   8.402
 3523ETHO   H2327236  19.691  15.593   8.428
 3524ETHO    O127237  19.620  15.597   8.239
 3524ETHO    C127238  19.513  15.502   8.231
 3524ETHO   H1127239  19.493  15.445   8.324
 3524ETHO   H1327240  19.418  15.552   8.204
 3524ETHO    C227241  19.554  15.392   8.140
 3524ETHO   H2127242  19.628  15.424   8.063
 3524ETHO   H2327243  19.464  15.360   8.084
 3525ETHO    O127244  19.605  15.283   8.206
 3525ETHO    C127245  19.670  15.186   8.128
 3525ETHO   H1127246  19.683  15.207   8.020
 3525ETHO   H1327247  19.776  15.181   8.158
 3525ETHO    C227248  19.603  15.046   8.147
 3525ETHO   H2127249  19.599  15.022   8.256
 3525ETHO   H2327250  19.669  14.973   8.095
 3526ETHO    O127251  19.478  15.043   8.096
 3526ETHO    C127252  19.392  14.941   8.151
 3526ETHO   H1127253  19.427  14.845   8.107
 3526ETHO   H1327254  19.406  14.941   8.261
 3526ETHO    C227255  19.249  14.960   8.106
 3526ETHO   H2127256  19.230  15.064   8.142
 3526ETHO   H2327257  19.236  14.955   7.996
 3527ETHO    O127258  19.162  14.872   8.175
 3527ETHO    C127259  19.023  14.904   8.132
 3527ETHO   H1127260  19.011  14.882   8.024
 3527ETHO   H1327261  19.004  15.011   8.154
 3527ETHO    C227262  18.924  14.808   8.204
 3527ETHO   H2127263  18.945  14.704   8.172
 3527ETHO   H2327264  18.827  14.840   8.160
 3528ETHO    O127265  18.915  14.831   8.340
 3528ETHO    C127266  18.815  14.752   8.399
 3528ETHO   H1127267  18.715  14.797   8.382
 3528ETHO   H1327268  18.824  14.647   8.366
 3528ETHO    C227269  18.825  14.757   8.553
 3528ETHO   H2127270  18.737  14.705   8.597
 3528ETHO   H2327271  18.834  14.857   8.600
 3529ETHO    O127272  18.944  14.689   8.578
 3529ETHO    C127273  18.993  14.713   8.710
 3529ETHO   H1127274  18.984  14.819   8.741
 3529ETHO   H1327275  19.104  14.708   8.699
 3529ETHO    C227276  18.936  14.630   8.829
 3529ETHO   H2127277  19.004  14.652   8.914
 3529ETHO   H2327278  18.932  14.520   8.813
 3530ETHO    O127279  18.811  14.665   8.870
 3530ETHO    C127280  18.743  14.561   8.941
 3530ETHO   H1127281  18.756  14.460   8.897
 3530ETHO   H1327282  18.771  14.564   9.048
 3530ETHO    C227283  18.589  14.574   8.947
 3530ETHO   H2127284  18.542  14.480   8.983
 3530ETHO   H2327285  18.553  14.595   8.844
 3531ETHO    O127286  18.550  14.678   9.036
 3531ETHO    C127287  18.409  14.671   9.058
 3531ETHO   H1127288  18.376  14.566   9.073
 3531ETHO   H1327289  18.364  14.690   8.958
 3531ETHO    C227290  18.347  14.754   9.175
 3531ETHO   H2127291  18.239  14.730   9.169
 3531ETHO   H2327292  18.366  14.862   9.159
 3532ETHO    O127293  18.396  14.719   9.298
 3532ETHO    C127294  18.339  14.785   9.407
 3532ETHO   H1127295  18.415  14.857   9.444
 3532ETHO   H1327296  18.249  14.845   9.382
 3532ETHO    C227297  18.304  14.684   9.520
 3532ETHO   H2127298  18.298  14.755   9.605
 3532ETHO   H2327299  18.385  14.613   9.544
 3533ETHO    O127300  18.186  14.615   9.487
 3533ETHO    C127301  18.120  14.562   9.602
 3533ETHO   H1127302  18.089  14.649   9.665
 3533ETHO   H1327303  18.203  14.506   9.650
 3533ETHO    C227304  18.004  14.464   9.577
 3533ETHO   H2127305  18.004  14.386   9.656
 3533ETHO   H2327306  18.030  14.414   9.481
 3534ETHO    O127307  17.872  14.526   9.564
 3534ETHO    C127308  17.790  14.470   9.462
 3534ETHO   H1127309  17.708  14.543   9.447
 3534ETHO   H1327310  17.850  14.467   9.368
 3534ETHO    C227311  17.730  14.336   9.496
 3534ETHO   H2127312  17.798  14.274   9.559
 3534ETHO   H2327313  17.721  14.273   9.405
 3535ETHO    O127314  17.605  14.338   9.567
 3535ETHO    C127315  17.553  14.206   9.571
 3535ETHO   H1127316  17.550  14.162   9.469
 3535ETHO   H1327317  17.616  14.148   9.641
 3535ETHO    C227318  17.410  14.198   9.619
 3535ETHO   H2127319  17.353  14.243   9.535
 3535ETHO   H2327320  17.404  14.259   9.712
 3536ETHO    O127321  17.371  14.068   9.643
 3536ETHO    C127322  17.415  14.012   9.768
 3536ETHO   H1127323  17.525  14.021   9.779
 3536ETHO   H1327324  17.358  14.064   9.849
 3536ETHO    C227325  17.381  13.864   9.781
 3536ETHO   H2127326  17.441  13.821   9.864
 3536ETHO   H2327327  17.423  13.817   9.690
 3537ETHO    O127328  17.244  13.828   9.792
 3537ETHO    C127329  17.187  13.821   9.929
 3537ETHO   H1127330  17.235  13.734   9.980
 3537ETHO   H1327331  17.218  13.913   9.984
 3537ETHO    C227332  17.028  13.822   9.925
 3537ETHO   H2127333  16.978  13.727   9.895
 3537ETHO   H2327334  17.008  13.895   9.844
 3538ETHO    O127335  16.978  13.874  10.045
 3538ETHO    C127336  16.834  13.867  10.053
 3538ETHO   H1127337  16.808  13.792  10.132
 3538ETHO   H1327338  16.796  13.822   9.959
 3538ETHO    C227339  16.759  13.999  10.067
 3538ETHO   H2127340  16.805  14.073   9.998
 3538ETHO   H2327341  16.767  14.040  10.170
 3539ETHO    O127342  16.624  13.981  10.025
 3539ETHO    C127343  16.543  14.099  10.062
 3539ETHO   H1127344  16.523  14.093  10.171
 3539ETHO   H1327345  16.611  14.186  10.048
 3539ETHO    C227346  16.416  14.093   9.970
 3539ETHO   H2127347  16.455  14.071   9.868
 3539ETHO   H2327348  16.369  14.192   9.955
 3540ETHO    O127349  16.323  13.987  10.006
 3540ETHO    C127350  16.246  14.027  10.119
 3540ETHO   H1127351  16.290  14.121  10.158
 3540ETHO   H1327352  16.243  13.949  10.198
 3540ETHO    C227353  16.102  14.060  10.076
 3540ETHO   H2127354  16.106  14.125   9.986
 3540ETHO   H2327355  16.035  14.108  10.151
 3541ETHO    O127356  16.045  13.932  10.056
 3541ETHO    C127357  15.926  13.933   9.983
 3541ETHO   H1127358  15.853  13.996  10.038
 3541ETHO   H1327359  15.931  13.983   9.884
 3541ETHO    C227360  15.865  13.788   9.970
 3541ETHO   H2127361  15.758  13.809   9.944
 3541ETHO   H2327362  15.866  13.754  10.075
 3542ETHO    O127363  15.926  13.714   9.870
 3542ETHO    C127364  15.862  13.588   9.860
 3542ETHO   H1127365  15.758  13.612   9.829
 3542ETHO   H1327366  15.851  13.538   9.959
 3542ETHO    C227367  15.935  13.495   9.765
 3542ETHO   H2127368  15.940  13.532   9.660
 3542ETHO   H2327369  15.874  13.404   9.743
 3543ETHO    O127370  16.060  13.445   9.821
 3543ETHO    C127371  16.153  13.415   9.724
 3543ETHO   H1127372  16.132  13.320   9.671
 3543ETHO   H1327373  16.158  13.501   9.653
 3543ETHO    C227374  16.289  13.401   9.791
 3543ETHO   H2127375  16.311  13.499   9.839
 3543ETHO   H2327376  16.355  13.394   9.702
 3544ETHO    O127377  16.302  13.294   9.888
 3544ETHO    C127378  16.423  13.313   9.968
 3544ETHO   H1127379  16.401  13.406  10.023
 3544ETHO   H1327380  16.509  13.344   9.905
 3544ETHO    C227381  16.462  13.197  10.055
 3544ETHO   H2127382  16.378  13.151  10.112
 3544ETHO   H2327383  16.533  13.241  10.129
 3545ETHO    O127384  16.537  13.112   9.973
 3545ETHO    C127385  16.508  12.976   9.994
 3545ETHO   H1127386  16.399  12.956  10.003
 3545ETHO   H1327387  16.539  12.918   9.904
 3545ETHO    C227388  16.566  12.925  10.125
 3545ETHO   H2127389  16.668  12.963  10.145
 3545ETHO   H2327390  16.564  12.814  10.129
 3546PROX    O127391  16.480  12.975  10.228
 3546PROX    C127392  16.519  12.948  10.361
 3546PROX   H1127393  16.530  12.839  10.372
 3546PROX   H1327394  16.620  12.992  10.374
 3546PROX    C227395  16.416  12.996  10.464
 3546PROX   H2127396  16.328  12.936  10.434
 3546PROX    C327397  16.376  13.147  10.453
 3546PROX   H3127398  16.466  13.207  10.478
 3546PROX   H3227399  16.328  13.185  10.360
 3546PROX   H3327400  16.302  13.165  10.534
 3547PROX    O127401  16.457  12.958  10.596
 3547PROX    C127402  16.352  12.923  10.685
 3547PROX   H1127403  16.299  13.018  10.711
 3547PROX   H1327404  16.278  12.848  10.651
 3547PROX    C227405  16.417  12.866  10.810
 3547PROX   H2127406  16.508  12.926  10.827
 3547PROX    C327407  16.456  12.719  10.777
 3547PROX   H3127408  16.481  12.661  10.869
 3547PROX   H3227409  16.370  12.661  10.739
 3547PROX   H3327410  16.539  12.721  10.704
 3548PROX    O127411  16.327  12.867  10.918
 3548PROX    C127412  16.400  12.873  11.039
 3548PROX   H1127413  16.346  12.817  11.119
 3548PROX   H1327414  16.498  12.822  11.030
 3548PROX    C227415  16.434  13.017  11.089
 3548PROX   H2127416  16.487  13.076  11.012
 3548PROX    C327417  16.522  13.005  11.220
 3548PROX   H3127418  16.624  12.973  11.192
 3548PROX   H3227419  16.512  13.102  11.273
 3548PROX   H3327420  16.493  12.922  11.288
 3549PROX    O127421  16.315  13.081  11.132
 3549PROX    C127422  16.228  13.125  11.030
 3549PROX   H1127423  16.187  13.039  10.973
 3549PROX   H1327424  16.138  13.161  11.085
 3549PROX    C227425  16.283  13.235  10.935
 3549PROX   H2127426  16.361  13.196  10.866
 3549PROX    C327427  16.357  13.336  11.020
 3549PROX   H3127428  16.436  13.383  10.959
 3549PROX   H3227429  16.281  13.408  11.057
 3549PROX   H3327430  16.406  13.277  11.101
 3550PROX    O127431  16.172  13.289  10.863
 3550PROX    C127432  16.203  13.366  10.750
 3550PROX   H1127433  16.248  13.462  10.783
 3550PROX   H1327434  16.292  13.328  10.697
 3550PROX    C227435  16.088  13.407  10.659
 3550PROX   H2127436  16.016  13.472  10.713
 3550PROX    C327437  16.013  13.283  10.620
 3550PROX   H3127438  15.961  13.250  10.712
 3550PROX   H3227439  15.933  13.306  10.546
 3550PROX   H3327440  16.080  13.201  10.585
 3551PROX    O127441  16.138  13.470  10.546
 3551PROX    C127442  16.152  13.613  10.551
 3551PROX   H1127443  16.067  13.658  10.607
 3551PROX   H1327444  16.252  13.630  10.598
 3551PROX    C227445  16.160  13.666  10.410
 3551PROX   H2127446  16.064  13.645  10.358
 3551PROX    C327447  16.285  13.628  10.327
 3551PROX   H3127448  16.374  13.679  10.370
 3551PROX   H3227449  16.302  13.522  10.357
 3551PROX   H3327450  16.282  13.647  10.217
 3552PROX    O127451  16.172  13.810  10.423
 3552PROX    C127452  16.047  13.875  10.414
 3552PROX   H1127453  16.001  13.845  10.317
 3552PROX   H1327454  15.968  13.842  10.485
 3552PROX    C227455  16.077  14.022  10.441
 3552PROX   H2127456  16.142  14.061  10.360
 3552PROX    C327457  16.150  14.046  10.576
 3552PROX   H3127458  16.172  14.155  10.578
 3552PROX   H3227459  16.098  14.004  10.665
 3552PROX   H3327460  16.254  14.007  10.581
 3553PROX    O127461  15.954  14.096  10.458
 3553PROX    C127462  15.962  14.230  10.407
 3553PROX   H1127463  16.044  14.287  10.455
 3553PROX   H1327464  15.993  14.225  10.300
 3553PROX    C227465  15.833  14.315  10.422
 3553PROX   H2127466  15.755  14.255  10.370
 3553PROX    C327467  15.843  14.458  10.353
 3553PROX   H3127468  15.744  14.493  10.317
 3553PROX   H3227469  15.868  14.531  10.433
 3553PROX   H3327470  15.917  14.455  10.271
 3554PROX    O127471  15.802  14.332  10.552
 3554PROX    C127472  15.666  14.330  10.573
 3554PROX   H1127473  15.624  14.420  10.523
 3554PROX   H1327474  15.615  14.245  10.522
 3554PROX    C227475  15.621  14.331  10.722
 3554PROX   H2127476  15.511  14.337  10.734
 3554PROX    C327477  15.663  14.456  10.805
 3554PROX   H3127478  15.645  14.452  10.915
 3554PROX   H3227479  15.767  14.485  10.776
 3554PROX   H3327480  15.608  14.549  10.779
 3555PROX    O127481  15.668  14.210  10.786
 3555PROX    C127482  15.583  14.094  10.772
 3555PROX   H1127483  15.504  14.094  10.851
 3555PROX   H1327484  15.541  14.091  10.669
 3555PROX    C227485  15.680  13.972  10.783
 3555PROX   H2127486  15.738  13.996  10.875
 3555PROX    C327487  15.764  13.963  10.656
 3555PROX   H3127488  15.697  13.952  10.569
 3555PROX   H3227489  15.823  14.056  10.641
 3555PROX   H3327490  15.838  13.880  10.667
 3556PROX    O127491  15.610  13.848  10.782
 3556PROX    C127492  15.635  13.772  10.899
 3556PROX   H1127493  15.622  13.827  10.994
 3556PROX   H1327494  15.562  13.688  10.907
 3556PROX    C227495  15.780  13.715  10.902
 3556PROX   H2127496  15.814  13.712  10.796
 3556PROX    C327497  15.789  13.576  10.966
 3556PROX   H3127498  15.727  13.500  10.913
 3556PROX   H3227499  15.894  13.539  10.968
 3556PROX   H3327500  15.747  13.579  11.069
 3557PROX    O127501  15.855  13.813  10.975
 3557PROX    C127502  15.999  13.800  10.944
 3557PROX   H1127503  16.034  13.728  11.020
 3557PROX   H1327504  16.013  13.752  10.845
 3557PROX    C227505  16.082  13.926  10.960
 3557PROX   H2127506  16.039  14.012  10.904
 3557PROX    C327507  16.218  13.891  10.892
 3557PROX   H3127508  16.201  13.843  10.793
 3557PROX   H3227509  16.279  13.983  10.879
 3557PROX   H3327510  16.279  13.825  10.958
 3558PROX    O127511  16.106  13.961  11.097
 3558PROX    C127512  15.990  13.998  11.173
 3558PROX   H1127513  15.915  13.918  11.158
 3558PROX   H1327514  16.022  14.009  11.279
 3558PROX    C227515  15.934  14.133  11.134
 3558PROX   H2127516  15.916  14.143  11.025
 3558PROX    C327517  16.027  14.249  11.163
 3558PROX   H3127518  16.037  14.244  11.273
 3558PROX   H3227519  16.127  14.244  11.114
 3558PROX   H3327520  15.976  14.342  11.130
 3559PROX    O127521  15.816  14.159  11.212
 3559PROX    C127522  15.692  14.119  11.148
 3559PROX   H1127523  15.694  14.173  11.051
 3559PROX   H1327524  15.700  14.010  11.127
 3559PROX    C227525  15.579  14.177  11.224
 3559PROX   H2127526  15.487  14.185  11.162
 3559PROX    C327527  15.607  14.319  11.274
 3559PROX   H3127528  15.618  14.398  11.196
 3559PROX   H3227529  15.518  14.350  11.332
 3559PROX   H3327530  15.698  14.327  11.337
 3560PROX    O127531  15.556  14.096  11.337
 3560PROX    C127532  15.485  13.971  11.307
 3560PROX   H1127533  15.376  13.994  11.301
 3560PROX   H1327534  15.518  13.933  11.208
 3560PROX    C227535  15.518  13.866  11.417
 3560PROX   H2127536  15.522  13.924  11.512
 3560PROX    C327537  15.662  13.802  11.399
 3560PROX   H3127538  15.678  13.752  11.496
 3560PROX   H3227539  15.654  13.736  11.310
 3560PROX   H3327540  15.735  13.881  11.370
 3561PROX    O127541  15.422  13.761  11.418
 3561PROX    C127542  15.399  13.697  11.543
 3561PROX   H1127543  15.488  13.690  11.610
 3561PROX   H1327544  15.315  13.749  11.595
 3561PROX    C227545  15.342  13.560  11.513
 3561PROX   H2127546  15.274  13.569  11.426
 3561PROX    C327547  15.265  13.518  11.643
 3561PROX   H3127548  15.181  13.583  11.675
 3561PROX   H3227549  15.210  13.424  11.617
 3561PROX   H3327550  15.337  13.485  11.720
 3562PROX    O127551  15.450  13.472  11.485
 3562PROX    C127552  15.399  13.350  11.425
 3562PROX   H1127553  15.351  13.290  11.506
 3562PROX   H1327554  15.323  13.370  11.347
 3562PROX    C227555  15.514  13.270  11.366
 3562PROX   H2127556  15.578  13.238  11.452
 3562PROX    C327557  15.608  13.342  11.271
 3562PROX   H3127558  15.638  13.439  11.317
 3562PROX   H3227559  15.702  13.283  11.263
 3562PROX   H3327560  15.562  13.355  11.171
 3563PROX    O127561  15.470  13.156  11.295
 3563PROX    C127562  15.414  13.057  11.373
 3563PROX   H1127563  15.463  13.068  11.472
 3563PROX   H1327564  15.307  13.082  11.384
 3563PROX    C227565  15.432  12.916  11.316
 3563PROX   H2127566  15.397  12.926  11.211
 3563PROX    C327567  15.340  12.811  11.382
 3563PROX   H3127568  15.327  12.720  11.319
 3563PROX   H3227569  15.378  12.786  11.484
 3563PROX   H3327570  15.240  12.856  11.395
 3564PROX    O127571  15.569  12.888  11.306
 3564PROX    C127572  15.625  12.818  11.414
 3564PROX   H1127573  15.579  12.872  11.500
 3564PROX   H1327574  15.592  12.712  11.410
 3564PROX    C227575  15.786  12.820  11.419
 3564PROX   H2127576  15.836  12.845  11.323
 3564PROX    C327577  15.837  12.687  11.464
 3564PROX   H3127578  15.792  12.665  11.563
 3564PROX   H3227579  15.795  12.615  11.390
 3564PROX   H3327580  15.947  12.689  11.446
 3565PROX    O127581  15.836  12.909  11.525
 3565PROX    C127582  15.819  13.044  11.497
 3565PROX   H1127583  15.851  13.057  11.391
 3565PROX   H1327584  15.711  13.067  11.509
 3565PROX    C227585  15.904  13.136  11.583
 3565PROX   H2127586  16.009  13.100  11.580
 3565PROX    C327587  15.861  13.147  11.727
 3565PROX   H3127588  15.759  13.192  11.732
 3565PROX   H3227589  15.865  13.042  11.763
 3565PROX   H3327590  15.936  13.193  11.794
 3566PROX    O127591  15.885  13.269  11.529
 3566PROX    C127592  15.970  13.291  11.415
 3566PROX   H1127593  16.078  13.278  11.438
 3566PROX   H1327594  15.945  13.220  11.333
 3566PROX    C227595  15.969  13.442  11.365
 3566PROX   H2127596  15.864  13.474  11.347
 3566PROX    C327597  16.040  13.439  11.229
 3566PROX   H3127598  16.010  13.519  11.158
 3566PROX   H3227599  16.149  13.452  11.242
 3566PROX   H3327600  16.019  13.343  11.177
 3567PROX    O127601  16.016  13.526  11.470
 3567PROX    C127602  16.014  13.662  11.433
 3567PROX   H1127603  16.084  13.690  11.351
 3567PROX   H1327604  15.915  13.693  11.394
 3567PROX    C227605  16.057  13.752  11.554
 3567PROX   H2127606  16.150  13.714  11.600
 3567PROX    C327607  15.963  13.748  11.674
 3567PROX   H3127608  15.865  13.791  11.645
 3567PROX   H3227609  15.948  13.647  11.719
 3567PROX   H3327610  15.997  13.809  11.760
 3568PROX    O127611  16.076  13.885  11.504
 3568PROX    C127612  16.158  13.962  11.595
 3568PROX   H1127613  16.133  13.936  11.701
 3568PROX   H1327614  16.267  13.951  11.581
 3568PROX    C227615  16.125  14.113  11.565
 3568PROX   H2127616  16.135  14.143  11.459
 3568PROX    C327617  16.229  14.200  11.633
 3568PROX   H3127618  16.328  14.183  11.586
 3568PROX   H3227619  16.194  14.304  11.616
 3568PROX   H3327620  16.221  14.169  11.740
 3569PROX    O127621  16.006  14.141  11.632
 3569PROX    C127622  15.886  14.106  11.566
 3569PROX   H1127623  15.902  14.096  11.456
 3569PROX   H1327624  15.851  14.005  11.593
 3569PROX    C227625  15.783  14.212  11.586
 3569PROX   H2127626  15.708  14.196  11.505
 3569PROX    C327627  15.842  14.351  11.573
 3569PROX   H3127628  15.887  14.356  11.472
 3569PROX   H3227629  15.762  14.428  11.584
 3569PROX   H3327630  15.910  14.356  11.661
 3570PROX    O127631  15.729  14.196  11.713
 3570PROX    C127632  15.627  14.099  11.728
 3570PROX   H1127633  15.533  14.134  11.680
 3570PROX   H1327634  15.661  14.008  11.673
 3570PROX    C227635  15.594  14.058  11.872
 3570PROX   H2127636  15.537  14.142  11.916
 3570PROX    C327637  15.711  14.005  11.963
 3570PROX   H3127638  15.727  14.072  12.050
 3570PROX   H3227639  15.694  13.903  12.003
 3570PROX   H3327640  15.801  14.002  11.898
 3571PROX    O127641  15.491  13.964  11.867
 3571PROX    C127642  15.433  13.931  11.997
 3571PROX   H1127643  15.505  13.885  12.068
 3571PROX   H1327644  15.387  14.020  12.046
 3571PROX    C227645  15.321  13.828  11.981
 3571PROX   H2127646  15.271  13.813  12.079
 3571PROX    C327647  15.382  13.687  11.949
 3571PROX   H3127648  15.421  13.679  11.846
 3571PROX   H3227649  15.471  13.661  12.011
 3571PROX   H3327650  15.311  13.605  11.973
 3572PROX    O127651  15.224  13.879  11.893
 3572PROX    C127652  15.099  13.808  11.904
 3572PROX   H1127653  15.116  13.700  11.882
 3572PROX   H1327654  15.066  13.808  12.010
 3572PROX    C227655  14.987  13.853  11.803
 3572PROX   H2127656  14.962  13.960  11.818
 3572PROX    C327657  14.850  13.784  11.803
 3572PROX   H3127658  14.781  13.828  11.728
 3572PROX   H3227659  14.866  13.674  11.806
 3572PROX   H3327660  14.802  13.812  11.899
 3573PROX    O127661  15.029  13.837  11.666
 3573PROX    C127662  15.056  13.961  11.608
 3573PROX   H1127663  14.965  14.024  11.597
 3573PROX   H1327664  15.126  14.019  11.672
 3573PROX    C227665  15.110  13.945  11.462
 3573PROX   H2127666  15.209  13.894  11.469
 3573PROX    C327667  15.142  14.086  11.393
 3573PROX   H3127668  15.052  14.150  11.396
 3573PROX   H3227669  15.230  14.141  11.432
 3573PROX   H3327670  15.157  14.059  11.286
 3574PROX    O127671  15.029  13.865  11.382
 3574PROX    C127672  14.899  13.919  11.345
 3574PROX   H1127673  14.841  13.928  11.439
 3574PROX   H1327674  14.915  14.020  11.302
 3574PROX    C227675  14.826  13.828  11.245
 3574PROX   H2127676  14.886  13.798  11.157
 3574PROX    C327677  14.697  13.901  11.195
 3574PROX   H3127678  14.709  14.006  11.162
 3574PROX   H3227679  14.670  13.847  11.101
 3574PROX   H3327680  14.623  13.892  11.277
 3575PROX    O127681  14.807  13.701  11.310
 3575PROX    C127682  14.748  13.600  11.231
 3575PROX   H1127683  14.746  13.631  11.124
 3575PROX   H1327684  14.809  13.507  11.238
 3575PROX    C227685  14.611  13.546  11.292
 3575PROX   H2127686  14.538  13.630  11.295
 3575PROX    C327687  14.620  13.507  11.442
 3575PROX   H3127688  14.515  13.501  11.480
 3575PROX   H3227689  14.684  13.418  11.458
 3575PROX   H3327690  14.665  13.594  11.494
 3576PROX    O127691  14.557  13.436  11.220
 3576PROX    C127692  14.527  13.484  11.092
 3576PROX   H1127693  14.499  13.591  11.100
 3576PROX   H1327694  14.617  13.475  11.029
 3576PROX    C227695  14.398  13.410  11.040
 3576PROX   H2127696  14.315  13.417  11.113
 3576PROX    C327697  14.433  13.271  11.007
 3576PROX   H3127698  14.484  13.231  11.097
 3576PROX   H3227699  14.342  13.213  10.979
 3576PROX   H3327700  14.501  13.262  10.920
 3577PROX    O127701  14.341  13.481  10.928
 3577PROX    C127702  14.444  13.530  10.835
 3577PROX   H1127703  14.503  13.615  10.876
 3577PROX   H1327704  14.527  13.457  10.819
 3577PROX    C227705  14.394  13.558  10.693
 3577PROX   H2127706  14.322  13.643  10.698
 3577PROX    C327707  14.322  13.431  10.639
 3577PROX   H3127708  14.256  13.391  10.719
 3577PROX   H3227709  14.255  13.459  10.555
 3577PROX   H3327710  14.397  13.354  10.612
 3578PROX    O127711  14.502  13.598  10.608
 3578PROX    C127712  14.557  13.730  10.626
 3578PROX   H1127713  14.477  13.807  10.625
 3578PROX   H1327714  14.621  13.738  10.717
 3578PROX    C227715  14.654  13.772  10.507
 3578PROX   H2127716  14.580  13.772  10.424
 3578PROX    C327717  14.768  13.672  10.478
 3578PROX   H3127718  14.806  13.693  10.376
 3578PROX   H3227719  14.851  13.672  10.552
 3578PROX   H3327720  14.720  13.572  10.487
 3579PROX    O127721  14.697  13.899  10.529
 3579PROX    C127722  14.731  13.966  10.404
 3579PROX   H1127723  14.826  13.933  10.357
 3579PROX   H1327724  14.652  13.956  10.327
 3579PROX    C227725  14.741  14.124  10.410
 3579PROX   H2127726  14.831  14.157  10.466
 3579PROX    C327727  14.617  14.194  10.465
 3579PROX   H3127728  14.534  14.197  10.391
 3579PROX   H3227729  14.589  14.143  10.559
 3579PROX   H3327730  14.637  14.300  10.489
 3580PROX    O127731  14.760  14.165  10.273
 3580PROX    C127732  14.804  14.295  10.259
 3580PROX   H1127733  14.767  14.371  10.331
 3580PROX   H1327734  14.915  14.298  10.257
 3580PROX    C227735  14.763  14.345  10.120
 3580PROX   H2127736  14.663  14.389  10.137
 3580PROX    C327737  14.749  14.241  10.017
 3580PROX   H3127738  14.673  14.165  10.046
 3580PROX   H3227739  14.713  14.293   9.926
 3580PROX   H3327740  14.838  14.177   9.997
 3581PROX    O127741  14.848  14.450  10.084
 3581PROX    C127742  14.977  14.414  10.034
 3581PROX   H1127743  15.018  14.317  10.068
 3581PROX   H1327744  14.970  14.409   9.923
 3581PROX    C227745  15.083  14.522  10.082
 3581PROX   H2127746  15.058  14.624  10.046
 3581PROX    C327747  15.227  14.484  10.017
 3581PROX   H3127748  15.300  14.559  10.055
 3581PROX   H3227749  15.247  14.379  10.047
 3581PROX   H3327750  15.213  14.487   9.907
 3582PROX    O127751  15.088  14.524  10.225
 3582PROX    C127752  15.166  14.628  10.282
 3582PROX   H1127753  15.271  14.633  10.246
 3582PROX   H1327754  15.125  14.727  10.254
 3582PROX    C227755  15.166  14.621  10.438
 3582PROX   H2127756  15.064  14.594  10.471
 3582PROX    C327757  15.182  14.760  10.504
 3582PROX   H3127758  15.119  14.843  10.467
 3582PROX   H3227759  15.154  14.749  10.611
 3582PROX   H3327760  15.288  14.793  10.493
 3583PROX    O127761  15.259  14.525  10.481
 3583PROX    C127762  15.213  14.392  10.470
 3583PROX   H1127763  15.164  14.381  10.569
 3583PROX   H1327764  15.134  14.376  10.393
 3583PROX    C227765  15.335  14.295  10.450
 3583PROX   H2127766  15.410  14.313  10.529
 3583PROX    C327767  15.407  14.313  10.312
 3583PROX   H3127768  15.417  14.418  10.276
 3583PROX   H3227769  15.503  14.257  10.320
 3583PROX   H3327770  15.347  14.268  10.231
 3584PROX    O127771  15.286  14.161  10.459
 3584PROX    C127772  15.214  14.128  10.578
 3584PROX   H1127773  15.284  14.153  10.661
 3584PROX   H1327774  15.117  14.182  10.587
 3584PROX    C227775  15.173  13.981  10.589
 3584PROX   H2127776  15.259  13.912  10.579
 3584PROX    C327777  15.061  13.961  10.485
 3584PROX   H3127778  15.071  13.856  10.450
 3584PROX   H3227779  14.966  13.984  10.538
 3584PROX   H3327780  15.078  14.020  10.393
 3585PROX    O127781  15.123  13.952  10.722
 3585PROX    C127782  15.224  13.922  10.825
 3585PROX   H1127783  15.274  13.831  10.787
 3585PROX   H1327784  15.300  14.003  10.824
 3585PROX    C227785  15.169  13.921  10.963
 3585PROX   H2127786  15.085  13.848  10.958
 3585PROX    C327787  15.125  14.066  11.015
 3585PROX   H3127788  15.046  14.062  11.093
 3585PROX   H3227789  15.212  14.121  11.058
 3585PROX   H3327790  15.086  14.126  10.931
 3586PROX    O127791  15.267  13.870  11.056
 3586PROX    C127792  15.212  13.783  11.158
 3586PROX   H1127793  15.275  13.799  11.247
 3586PROX   H1327794  15.107  13.808  11.184
 3586PROX    C227795  15.224  13.634  11.127
 3586PROX   H2127796  15.188  13.582  11.218
 3586PROX    C327797  15.369  13.601  11.094
 3586PROX   H3127798  15.385  13.654  10.998
 3586PROX   H3227799  15.432  13.644  11.175
 3586PROX   H3327800  15.380  13.491  11.088
 3587PROX    O127801  15.147  13.589  11.012
 3587PROX    C127802  15.039  13.498  11.045
 3587PROX   H1127803  15.073  13.409  11.101
 3587PROX   H1327804  14.971  13.547  11.118
 3587PROX    C227805  14.955  13.460  10.924
 3587PROX   H2127806  15.017  13.404  10.850
 3587PROX    C327807  14.893  13.585  10.843
 3587PROX   H3127808  14.840  13.652  10.914
 3587PROX   H3227809  14.975  13.632  10.785
 3587PROX   H3327810  14.824  13.559  10.760
 3588PROX    O127811  14.837  13.378  10.956
 3588PROX    C127812  14.876  13.252  11.017
 3588PROX   H1127813  14.964  13.223  10.955
 3588PROX   H1327814  14.910  13.260  11.123
 3588PROX    C227815  14.763  13.143  11.008
 3588PROX   H2127816  14.697  13.180  11.089
 3588PROX    C327817  14.801  13.001  11.049
 3588PROX   H3127818  14.718  12.928  11.043
 3588PROX   H3227819  14.875  12.962  10.977
 3588PROX   H3327820  14.845  13.002  11.151
 3589PROX    O127821  14.687  13.141  10.889
 3589PROX    C127822  14.756  13.095  10.772
 3589PROX   H1127823  14.864  13.122  10.777
 3589PROX   H1327824  14.742  12.985  10.767
 3589PROX    C227825  14.695  13.169  10.646
 3589PROX   H2127826  14.679  13.274  10.679
 3589PROX    C327827  14.557  13.129  10.603
 3589PROX   H3127828  14.540  13.189  10.511
 3589PROX   H3227829  14.555  13.019  10.587
 3589PROX   H3327830  14.483  13.145  10.684
 3590PROX    O127831  14.792  13.165  10.545
 3590PROX    C127832  14.786  13.277  10.459
 3590PROX   H1127833  14.723  13.256  10.369
 3590PROX   H1327834  14.744  13.366  10.510
 3590PROX    C227835  14.936  13.307  10.419
 3590PROX   H2127836  14.967  13.227  10.349
 3590PROX    C327837  15.034  13.305  10.538
 3590PROX   H3127838  15.142  13.312  10.512
 3590PROX   H3227839  15.021  13.388  10.611
 3590PROX   H3327840  15.011  13.213  10.596
 3591PROX    O127841  14.944  13.436  10.356
 3591PROX    C127842  14.872  13.449  10.234
 3591PROX   H1127843  14.811  13.357  10.225
 3591PROX   H1327844  14.804  13.536  10.222
 3591PROX    C227845  14.972  13.472  10.125
 3591PROX   H2127846  14.934  13.477  10.020
 3591PROX    C327847  15.087  13.361  10.125
 3591PROX   H3127848  15.030  13.275  10.084
 3591PROX   H3227849  15.179  13.376  10.064
 3591PROX   H3327850  15.127  13.327  10.224
 3592PROX    O127851  15.040  13.594  10.143
 3592PROX    C127852  15.002  13.702  10.061
 3592PROX   H1127853  14.991  13.678   9.953
 3592PROX   H1327854  14.904  13.745  10.090
 3592PROX    C227855  15.098  13.829  10.083
 3592PROX   H2127856  15.142  13.824  10.185
 3592PROX    C327857  15.047  13.967  10.042
 3592PROX   H3127858  15.106  14.049  10.088
 3592PROX   H3227859  15.040  13.980   9.932
 3592PROX   H3327860  14.948  13.967  10.092
 3593PROX    O127861  15.209  13.815   9.998
 3593PROX    C127862  15.270  13.686  10.004
 3593PROX   H1127863  15.285  13.656  10.110
 3593PROX   H1327864  15.215  13.610   9.945
 3593PROX    C227865  15.414  13.700   9.941
 3593PROX   H2127866  15.471  13.773  10.002
 3593PROX    C327867  15.396  13.762   9.804
 3593PROX   H3127868  15.467  13.708   9.739
 3593PROX   H3227869  15.297  13.740   9.758
 3593PROX   H3327870  15.418  13.870   9.800
 3594PROX    O127871  15.470  13.569   9.934
 3594PROX    C127872  15.547  13.532  10.048
 3594PROX   H1127873  15.632  13.603  10.051
 3594PROX   H1327874  15.496  13.539  10.146
 3594PROX    C227875  15.606  13.395  10.025
 3594PROX   H2127876  15.653  13.392   9.924
 3594PROX    C327877  15.502  13.274  10.043
 3594PROX   H3127878  15.553  13.192   9.988
 3594PROX   H3227879  15.477  13.246  10.147
 3594PROX   H3327880  15.410  13.287   9.981
 3595PROX    O127881  15.709  13.368  10.127
 3595PROX    C127882  15.793  13.255  10.106
 3595PROX   H1127883  15.747  13.162  10.147
 3595PROX   H1327884  15.811  13.256   9.996
 3595PROX    C227885  15.922  13.271  10.190
 3595PROX   H2127886  15.885  13.278  10.295
 3595PROX    C327887  16.005  13.392  10.153
 3595PROX   H3127888  16.030  13.392  10.045
 3595PROX   H3227889  15.938  13.479  10.169
 3595PROX   H3327890  16.102  13.404  10.206
 3596PROX    O127891  16.003  13.157  10.176
 3596PROX    C127892  15.956  13.043  10.242
 3596PROX   H1127893  15.898  13.065  10.335
 3596PROX   H1327894  15.902  12.979  10.169
 3596PROX    C227895  16.084  12.961  10.295
 3596PROX   H2127896  16.141  13.033  10.358
 3596PROX    C327897  16.171  12.920  10.174
 3596PROX   H3127898  16.195  13.013  10.119
 3596PROX   H3227899  16.266  12.876  10.211
 3596PROX   H3327900  16.112  12.853  10.107
 3597PROX    O127901  16.053  12.844  10.367
 3597PROX    C127902  15.977  12.870  10.482
 3597PROX   H1127903  16.018  12.951  10.547
 3597PROX   H1327904  15.874  12.897  10.451
 3597PROX    C227905  15.966  12.743  10.560
 3597PROX   H2127906  16.070  12.704  10.568
 3597PROX    C327907  15.868  12.627  10.521
 3597PROX   H3127908  15.772  12.677  10.550
 3597PROX   H3227909  15.861  12.618  10.410
 3597PROX   H3327910  15.902  12.539  10.578
 3598PROX    O127911  15.922  12.790  10.687
 3598PROX    C127912  15.999  12.740  10.806
 3598PROX   H1127913  16.032  12.638  10.777
 3598PROX   H1327914  16.089  12.804  10.816
 3598PROX    C227915  15.909  12.747  10.930
 3598PROX   H2127916  15.869  12.849  10.948
 3598PROX    C327917  15.984  12.718  11.060
 3598PROX   H3127918  15.921  12.719  11.152
 3598PROX   H3227919  16.041  12.623  11.053
 3598PROX   H3327920  16.061  12.797  11.071
 3599PROX    O127921  15.800  12.648  10.929
 3599PROX    C127922  15.678  12.700  10.873
 3599PROX   H1127923  15.707  12.792  10.817
 3599PROX   H1327924  15.615  12.628  10.817
 3599PROX    C227925  15.592  12.742  10.991
 3599PROX   H2127926  15.659  12.744  11.079
 3599PROX    C327927  15.475  12.635  11.015
 3599PROX   H3127928  15.434  12.655  11.116
 3599PROX   H3227929  15.395  12.646  10.939
 3599PROX   H3327930  15.524  12.536  11.022
 3600PROX    O127931  15.532  12.867  10.974
 3600PROX    C127932  15.615  12.979  10.994
 3600PROX   H1127933  15.546  13.058  11.029
 3600PROX   H1327934  15.684  12.973  11.081
 3600PROX    C227935  15.679  13.048  10.871
 3600PROX   H2127936  15.761  12.990  10.824
 3600PROX    C327937  15.746  13.175  10.923
 3600PROX   H3127938  15.675  13.227  10.991
 3600PROX   H3227939  15.831  13.150  10.990
 3600PROX   H3327940  15.768  13.234  10.832
 3601PROX    O127941  15.581  13.092  10.779
 3601PROX    C127942  15.548  12.998  10.682
 3601PROX   H1127943  15.556  12.893  10.717
 3601PROX   H1327944  15.447  13.027  10.646
 3601PROX    C227945  15.643  13.021  10.560
 3601PROX   H2127946  15.742  12.977  10.587
 3601PROX    C327947  15.662  13.167  10.512
 3601PROX   H3127948  15.575  13.216  10.463
 3601PROX   H3227949  15.705  13.224  10.597
 3601PROX   H3327950  15.740  13.154  10.435
 3602PROX    O127951  15.621  12.925  10.453
 3602PROX    C127952  15.502  12.948  10.374
 3602PROX   H1127953  15.412  12.942  10.440
 3602PROX   H1327954  15.506  13.048  10.326
 3602PROX    C227955  15.487  12.832  10.272
 3602PROX   H2127956  15.500  12.733  10.321
 3602PROX    C327957  15.601  12.833  10.174
 3602PROX   H3127958  15.698  12.810  10.223
 3602PROX   H3227959  15.580  12.754  10.098
 3602PROX   H3327960  15.616  12.935  10.134
 3603PROX    O127961  15.364  12.851  10.206
 3603PROX    C127962  15.304  12.726  10.166
 3603PROX   H1127963  15.209  12.751  10.116
 3603PROX   H1327964  15.373  12.686  10.089
 3603PROX    C227965  15.247  12.638  10.286
 3603PROX   H2127966  15.323  12.567  10.324
 3603PROX    C327967  15.127  12.552  10.246
 3603PROX   H3127968  15.047  12.613  10.200
 3603PROX   H3227969  15.160  12.478  10.169
 3603PROX   H3327970  15.077  12.500  10.330
 3604PROX    O127971  15.207  12.724  10.396
 3604PROX    C127972  15.171  12.660  10.523
 3604PROX   H1127973  15.062  12.671  10.543
 3604PROX   H1327974  15.198  12.554  10.505
 3604PROX    C227975  15.248  12.718  10.646
 3604PROX   H2127976  15.261  12.828  10.636
 3604PROX    C327977  15.387  12.655  10.653
 3604PROX   H3127978  15.432  12.672  10.553
 3604PROX   H3227979  15.451  12.716  10.720
 3604PROX   H3327980  15.381  12.548  10.683
 3605PROX    O127981  15.176  12.695  10.770
 3605PROX    C127982  15.088  12.800  10.799
 3605PROX   H1127983  15.055  12.853  10.707
 3605PROX   H1327984  15.001  12.767  10.860
 3605PROX    C227985  15.164  12.898  10.896
 3605PROX   H2127986  15.273  12.898  10.872
 3605PROX    C327987  15.145  12.862  11.050
 3605PROX   H3127988  15.037  12.848  11.070
 3605PROX   H3227989  15.192  12.764  11.068
 3605PROX   H3327990  15.184  12.930  11.129
 3606PROX    O127991  15.111  13.031  10.892
 3606PROX    C127992  15.199  13.121  10.825
 3606PROX   H1127993  15.262  13.074  10.746
 3606PROX   H1327994  15.135  13.196  10.775
 3606PROX    C227995  15.298  13.194  10.914
 3606PROX   H2127996  15.386  13.125  10.910
 3606PROX    C327997  15.259  13.206  11.062
 3606PROX   H3127998  15.295  13.112  11.110
 3606PROX   H3227999  15.328  13.280  11.107
 3606PROX   H3328000  15.156  13.230  11.095
 3607PROX    O128001  15.321  13.323  10.861
 3607PROX    C128002  15.406  13.336  10.749
 3607PROX   H1128003  15.508  13.315  10.788
 3607PROX   H1328004  15.370  13.256  10.681
 3607PROX    C228005  15.416  13.486  10.705
 3607PROX   H2128006  15.466  13.534  10.791
 3607PROX    C328007  15.274  13.542  10.683
 3607PROX   H3128008  15.269  13.648  10.649
 3607PROX   H3228009  15.213  13.485  10.610
 3607PROX   H3328010  15.220  13.541  10.780
 3608PROX    O128011  15.495  13.496  10.581
 3608PROX    C128012  15.561  13.618  10.570
 3608PROX   H1128013  15.486  13.699  10.574
 3608PROX   H1328014  15.638  13.634  10.649
 3608PROX    C228015  15.636  13.634  10.438
 3608PROX   H2128016  15.562  13.613  10.357
 3608PROX    C328017  15.767  13.560  10.427
 3608PROX   H3128018  15.846  13.588  10.500
 3608PROX   H3228019  15.739  13.454  10.444
 3608PROX   H3328020  15.801  13.555  10.321
 3609PROX    O128021  15.673  13.772  10.429
 3609PROX    C128022  15.681  13.814  10.296
 3609PROX   H1128023  15.781  13.850  10.262
 3609PROX   H1328024  15.666  13.730  10.226
 3609PROX    C228025  15.569  13.917  10.255
 3609PROX   H2128026  15.583  14.007  10.318
 3609PROX    C328027  15.422  13.868  10.294
 3609PROX   H3128028  15.420  13.837  10.400
 3609PROX   H3228029  15.359  13.959  10.285
 3609PROX   H3328030  15.395  13.784  10.226
 3610PROX    O128031  15.596  13.948  10.121
 3610PROX    C128032  15.517  14.058  10.070
 3610PROX   H1128033  15.436  14.003  10.018
 3610PROX   H1328034  15.459  14.110  10.150
 3610PROX    C228035  15.597  14.149   9.979
 3610PROX   H2128036  15.628  14.078   9.899
 3610PROX    C328037  15.712  14.217  10.058
 3610PROX   H3128038  15.676  14.297  10.126
 3610PROX   H3228039  15.753  14.137  10.123
 3610PROX   H3328040  15.782  14.263   9.985
 3611ETHO    O128041  15.499  14.236   9.921
 3611ETHO    C128042  15.555  14.310   9.819
 3611ETHO   H1128043  15.641  14.372   9.853
 3611ETHO   H1328044  15.468  14.376   9.798
 3611ETHO    C228045  15.578  14.236   9.685
 3611ETHO   H2128046  15.590  14.306   9.599
 3611ETHO   H2328047  15.490  14.173   9.656
 3612ETHO    O128048  15.700  14.158   9.697
 3612ETHO    C128049  15.731  14.077   9.586
 3612ETHO   H1128050  15.650  14.001   9.575
 3612ETHO   H1328051  15.745  14.131   9.491
 3612ETHO    C228052  15.860  14.008   9.619
 3612ETHO   H2128053  15.884  13.945   9.530
 3612ETHO   H2328054  15.850  13.937   9.704
 3613ETHO    O128055  15.965  14.102   9.646
 3613ETHO    C128056  16.097  14.042   9.651
 3613ETHO   H1128057  16.105  13.969   9.568
 3613ETHO   H1328058  16.109  13.995   9.751
 3613ETHO    C228059  16.217  14.141   9.647
 3613ETHO   H2128060  16.226  14.167   9.540
 3613ETHO   H2328061  16.309  14.084   9.672
 3614ETHO    O128062  16.225  14.253   9.735
 3614ETHO    C128063  16.320  14.345   9.680
 3614ETHO   H1128064  16.403  14.285   9.637
 3614ETHO   H1328065  16.277  14.391   9.588
 3614ETHO    C228066  16.360  14.465   9.774
 3614ETHO   H2128067  16.441  14.525   9.728
 3614ETHO   H2328068  16.402  14.416   9.864
 3615ETHO    O128069  16.237  14.534   9.800
 3615ETHO    C128070  16.256  14.653   9.871
 3615ETHO   H1128071  16.179  14.727   9.841
 3615ETHO   H1328072  16.352  14.702   9.846
 3615ETHO    C228073  16.250  14.633  10.024
 3615ETHO   H2128074  16.148  14.604  10.054
 3615ETHO   H2328075  16.276  14.737  10.056
 3616ETHO    O128076  16.335  14.534  10.076
 3616ETHO    C128077  16.347  14.557  10.216
 3616ETHO   H1128078  16.361  14.665  10.239
 3616ETHO   H1328079  16.257  14.518  10.267
 3616ETHO    C228080  16.472  14.484  10.269
 3616ETHO   H2128081  16.541  14.564  10.304
 3616ETHO   H2328082  16.512  14.425  10.184
 3617ETHO    O128083  16.437  14.396  10.371
 3617ETHO    C128084  16.548  14.309  10.405
 3617ETHO   H1128085  16.606  14.283  10.314
 3617ETHO   H1328086  16.511  14.216  10.453
 3617ETHO    C228087  16.646  14.391  10.491
 3617ETHO   H2128088  16.683  14.343  10.584
 3617ETHO   H2328089  16.600  14.488  10.521
 3618ETHO    O128090  16.761  14.419  10.411
 3618ETHO    C128091  16.859  14.500  10.477
 3618ETHO   H1128092  16.822  14.591  10.529
 3618ETHO   H1328093  16.922  14.436  10.543
 3618ETHO    C228094  16.965  14.552  10.370
 3618ETHO   H2128095  16.905  14.598  10.289
 3618ETHO   H2328096  17.027  14.629  10.422
 3619ETHO    O128097  17.030  14.428  10.334
 3619ETHO    C128098  17.147  14.455  10.260
 3619ETHO   H1128099  17.139  14.552  10.206
 3619ETHO   H1328100  17.230  14.476  10.332
 3619ETHO    C228101  17.189  14.333  10.176
 3619ETHO   H2128102  17.154  14.246  10.236
 3619ETHO   H2328103  17.300  14.332  10.166
 3620ETHO    O128104  17.118  14.336  10.052
 3620ETHO    C128105  17.125  14.208   9.989
 3620ETHO   H1128106  17.224  14.164  10.014
 3620ETHO   H1328107  17.051  14.131  10.019
 3620ETHO    C228108  17.106  14.224   9.833
 3620ETHO   H2128109  17.145  14.132   9.785
 3620ETHO   H2328110  17.174  14.311   9.817
 3621ETHO    O128111  16.969  14.238   9.800
 3621ETHO    C128112  16.959  14.293   9.662
 3621ETHO   H1128113  16.998  14.397   9.663
 3621ETHO   H1328114  17.020  14.244   9.583
 3621ETHO    C228115  16.812  14.269   9.620
 3621ETHO   H2128116  16.785  14.358   9.558
 3621ETHO   H2328117  16.763  14.285   9.719
 3622ETHO    O128118  16.777  14.143   9.562
 3622ETHO    C128119  16.760  14.040   9.667
 3622ETHO   H1128120  16.681  14.082   9.733
 3622ETHO   H1328121  16.857  14.038   9.722
 3622ETHO    C228122  16.716  13.910   9.610
 3622ETHO   H2128123  16.638  13.923   9.532
 3622ETHO   H2328124  16.679  13.848   9.693
 3623ETHO    O128125  16.831  13.845   9.554
 3623ETHO    C128126  16.806  13.717   9.495
 3623ETHO   H1128127  16.697  13.706   9.519
 3623ETHO   H1328128  16.810  13.728   9.385
 3623ETHO    C228129  16.892  13.605   9.551
 3623ETHO   H2128130  16.993  13.652   9.540
 3623ETHO   H2328131  16.894  13.509   9.495
 3624ETHO    O128132  16.885  13.577   9.691
 3624ETHO    C128133  16.963  13.462   9.726
 3624ETHO   H1128134  17.065  13.477   9.685
 3624ETHO   H1328135  16.910  13.378   9.676
 3624ETHO    C228136  16.972  13.430   9.875
 3624ETHO   H2128137  17.030  13.509   9.928
 3624ETHO   H2328138  17.027  13.335   9.895
 3625ETHO    O128139  16.851  13.413   9.936
 3625ETHO    C128140  16.869  13.359  10.067
 3625ETHO   H1128141  16.962  13.401  10.110
 3625ETHO   H1328142  16.784  13.394  10.129
 3625ETHO    C228143  16.863  13.203  10.070
 3625ETHO   H2128144  16.791  13.172   9.991
 3625ETHO   H2328145  16.822  13.163  10.165
 3626ETHO    O128146  16.986  13.148  10.039
 3626ETHO    C128147  17.081  13.165  10.146
 3626ETHO   H1128148  17.081  13.270  10.183
 3626ETHO   H1328149  17.180  13.132  10.108
 3626ETHO    C228150  17.052  13.080  10.276
 3626ETHO   H2128151  17.149  13.054  10.323
 3626ETHO   H2328152  16.987  12.997  10.239
 3627ETHO    O128153  16.986  13.149  10.379
 3627ETHO    C128154  16.883  13.065  10.435
 3627ETHO   H1128155  16.805  13.124  10.487
 3627ETHO   H1328156  16.822  13.018  10.355
 3627ETHO    C228157  16.939  12.968  10.543
 3627ETHO   H2128158  16.858  12.954  10.617
 3627ETHO   H2328159  17.031  13.006  10.593
 3628ETHO    O128160  16.967  12.844  10.479
 3628ETHO    C128161  17.003  12.752  10.584
 3628ETHO   H1128162  16.913  12.732  10.647
 3628ETHO   H1328163  17.086  12.797  10.641
 3628ETHO    C228164  17.061  12.627  10.520
 3628ETHO   H2128165  16.991  12.572  10.454
 3628ETHO   H2328166  17.079  12.557  10.604
 3629ETHO    O128167  17.186  12.660  10.463
 3629ETHO    C128168  17.254  12.542  10.428
 3629ETHO   H1128169  17.247  12.466  10.509
 3629ETHO   H1328170  17.203  12.509  10.335
 3629ETHO    C228171  17.402  12.561  10.400
 3629ETHO   H2128172  17.452  12.462  10.392
 3629ETHO   H2328173  17.449  12.613  10.486
 3630ETHO    O128174  17.428  12.641  10.281
 3630ETHO    C128175  17.570  12.662  10.252
 3630ETHO   H1128176  17.626  12.679  10.347
 3630ETHO   H1328177  17.595  12.560  10.216
 3630ETHO    C228178  17.603  12.758  10.146
 3630ETHO   H2128179  17.555  12.738  10.048
 3630ETHO   H2328180  17.712  12.743  10.131
 3631ETHO    O128181  17.578  12.891  10.192
 3631ETHO    C128182  17.613  12.994  10.098
 3631ETHO   H1128183  17.679  12.950  10.021
 3631ETHO   H1328184  17.524  13.042  10.052
 3631ETHO    C228185  17.697  13.097  10.167
 3631ETHO   H2128186  17.783  13.045  10.212
 3631ETHO   H2328187  17.633  13.125  10.254
 3632ETHO    O128188  17.717  13.221  10.098
 3632ETHO    C128189  17.808  13.294  10.179
 3632ETHO   H1128190  17.760  13.313  10.278
 3632ETHO   H1328191  17.894  13.225  10.197
 3632ETHO    C228192  17.851  13.430  10.114
 3632ETHO   H2128193  17.910  13.491  10.185
 3632ETHO   H2328194  17.757  13.481  10.082
 3633ETHO    O128195  17.934  13.395  10.007
 3633ETHO    C128196  17.974  13.505   9.934
 3633ETHO   H1128197  18.037  13.574   9.994
 3633ETHO   H1328198  17.878  13.549   9.899
 3633ETHO    C228199  18.046  13.457   9.817
 3633ETHO   H2128200  18.137  13.394   9.832
 3633ETHO   H2328201  18.088  13.545   9.764
 3634ETHO    O128202  17.958  13.410   9.714
 3634ETHO    C128203  17.911  13.513   9.631
 3634ETHO   H1128204  17.825  13.559   9.684
 3634ETHO   H1328205  17.990  13.587   9.607
 3634ETHO    C228206  17.852  13.461   9.498
 3634ETHO   H2128207  17.828  13.548   9.433
 3634ETHO   H2328208  17.767  13.390   9.503
 3635ETHO    O128209  17.955  13.393   9.437
 3635ETHO    C128210  17.923  13.360   9.301
 3635ETHO   H1128211  17.893  13.451   9.245
 3635ETHO   H1328212  17.839  13.287   9.303
 3635ETHO    C228213  18.046  13.307   9.236
 3635ETHO   H2128214  18.026  13.270   9.133
 3635ETHO   H2328215  18.077  13.221   9.300
 3636ETHO    O128216  18.156  13.401   9.238
 3636ETHO    C128217  18.154  13.488   9.126
 3636ETHO   H1128218  18.119  13.446   9.029
 3636ETHO   H1328219  18.083  13.572   9.140
 3636ETHO    C228220  18.296  13.545   9.121
 3636ETHO   H2128221  18.324  13.595   9.026
 3636ETHO   H2328222  18.359  13.454   9.122
 3637ETHO    O128223  18.326  13.629   9.235
 3637ETHO    C128224  18.464  13.658   9.251
 3637ETHO   H1128225  18.499  13.734   9.178
 3637ETHO   H1328226  18.532  13.571   9.238
 3637ETHO    C228227  18.504  13.717   9.392
 3637ETHO   H2128228  18.434  13.801   9.410
 3637ETHO   H2328229  18.609  13.754   9.386
 3638ETHO    O128230  18.495  13.621   9.498
 3638ETHO    C128231  18.511  13.681   9.625
 3638ETHO   H1128232  18.608  13.734   9.629
 3638ETHO   H1328233  18.435  13.760   9.642
 3638ETHO    C228234  18.501  13.582   9.737
 3638ETHO   H2128235  18.416  13.512   9.725
 3638ETHO   H2328236  18.498  13.635   9.834
 3639ETHO    O128237  18.615  13.497   9.736
 3639ETHO    C128238  18.626  13.400   9.837
 3639ETHO   H1128239  18.531  13.343   9.829
 3639ETHO   H1328240  18.634  13.448   9.937
 3639ETHO    C228241  18.759  13.326   9.817
 3639ETHO   H2128242  18.790  13.251   9.893
 3639ETHO   H2328243  18.842  13.400   9.814
 3640ETHO    O128244  18.744  13.255   9.688
 3640ETHO    C128245  18.859  13.178   9.662
 3640ETHO   H1128246  18.878  13.100   9.739
 3640ETHO   H1328247  18.830  13.125   9.568
 3640ETHO    C228248  18.983  13.263   9.642
 3640ETHO   H2128249  19.056  13.187   9.607
 3640ETHO   H2328250  19.020  13.315   9.733
 3641ETHO    O128251  18.972  13.353   9.538
 3641ETHO    C128252  19.089  13.371   9.465
 3641ETHO   H1128253  19.172  13.382   9.539
 3641ETHO   H1328254  19.127  13.278   9.417
 3641ETHO    C228255  19.090  13.500   9.386
 3641ETHO   H2128256  19.000  13.504   9.322
 3641ETHO   H2328257  19.176  13.498   9.315
 3642ETHO    O128258  19.114  13.616   9.471
 3642ETHO    C128259  19.128  13.737   9.386
 3642ETHO   H1128260  19.197  13.714   9.302
 3642ETHO   H1328261  19.032  13.765   9.339
 3642ETHO    C228262  19.178  13.854   9.474
 3642ETHO   H2128263  19.111  13.871   9.561
 3642ETHO   H2328264  19.166  13.954   9.426
 3643ETHO    O128265  19.316  13.833   9.503
 3643ETHO    C128266  19.374  13.940   9.579
 3643ETHO   H1128267  19.458  13.979   9.517
 3643ETHO   H1328268  19.299  14.016   9.610
 3643ETHO    C228269  19.432  13.867   9.710
 3643ETHO   H2128270  19.344  13.809   9.745
 3643ETHO   H2328271  19.451  13.947   9.784
 3644ETHO    O128272  19.546  13.793   9.699
 3644ETHO    C128273  19.580  13.710   9.807
 3644ETHO   H1128274  19.618  13.613   9.766
 3644ETHO   H1328275  19.485  13.693   9.863
 3644ETHO    C228276  19.690  13.757   9.908
 3644ETHO   H2128277  19.772  13.789   9.840
 3644ETHO   H2328278  19.732  13.670   9.962
 3645ETHO    O128279  19.652  13.857   9.998
 3645ETHO    C128280  19.759  13.898  10.085
 3645ETHO   H1128281  19.808  13.805  10.122
 3645ETHO   H1328282  19.826  13.966  10.028
 3645ETHO    C228283  19.707  13.988  10.201
 3645ETHO   H2128284  19.657  14.077  10.157
 3645ETHO   H2328285  19.795  14.027  10.257
 3646ETHO    O128286  19.636  13.925  10.306
 3646ETHO    C128287  19.605  14.019  10.404
 3646ETHO   H1128288  19.602  14.122  10.362
 3646ETHO   H1328289  19.699  14.032  10.463
 3646ETHO    C228290  19.477  13.999  10.483
 3646ETHO   H2128291  19.385  14.028  10.428
 3646ETHO   H2328292  19.492  14.065  10.571
 3647ETHO    O128293  19.466  13.862  10.529
 3647ETHO    C128294  19.341  13.841  10.586
 3647ETHO   H1128295  19.307  13.934  10.637
 3647ETHO   H1328296  19.257  13.829  10.514
 3647ETHO    C228297  19.338  13.735  10.704
 3647ETHO   H2128298  19.362  13.641  10.650
 3647ETHO   H2328299  19.233  13.724  10.739
 3648ETHO    O128300  19.422  13.753  10.818
 3648ETHO    C128301  19.494  13.636  10.837
 3648ETHO   H1128302  19.542  13.623  10.738
 3648ETHO   H1328303  19.422  13.556  10.865
 3648ETHO    C228304  19.614  13.643  10.933
 3648ETHO   H2128305  19.580  13.668  11.036
 3648ETHO   H2328306  19.674  13.735  10.916
 3649ETHO    O128307  19.705  13.536  10.924
 3649ETHO    C128308  19.666  13.422  11.001
 3649ETHO   H1128309  19.753  13.414  11.070
 3649ETHO   H1328310  19.568  13.437  11.051
 3649ETHO    C228311  19.667  13.306  10.905
 3649ETHO   H2128312  19.670  13.205  10.949
 3649ETHO   H2328313  19.745  13.310  10.826
 3650ETHO    O128314  19.538  13.312  10.840
 3650ETHO    C128315  19.495  13.196  10.767
 3650ETHO   H1128316  19.481  13.107  10.832
 3650ETHO   H1328317  19.575  13.172  10.694
 3650ETHO    C228318  19.379  13.227  10.688
 3650ETHO   H2128319  19.398  13.328  10.645
 3650ETHO   H2328320  19.282  13.238  10.741
 3651ETHO    O128321  19.376  13.129  10.584
 3651ETHO    C128322  19.394  13.191  10.456
 3651ETHO   H1128323  19.308  13.257  10.434
 3651ETHO   H1328324  19.488  13.250  10.456
 3651ETHO    C228325  19.393  13.096  10.336
 3651ETHO   H2128326  19.303  13.034  10.356
 3651ETHO   H2328327  19.376  13.146  10.238
 3652ETHO    O128328  19.511  13.015  10.333
 3652ETHO    C128329  19.518  12.948  10.210
 3652ETHO   H1128330  19.414  12.916  10.186
 3652ETHO   H1328331  19.583  12.863  10.239
 3652ETHO    C228332  19.588  13.032  10.102
 3652ETHO   H2128333  19.564  13.140  10.096
 3652ETHO   H2328334  19.538  12.995  10.010
 3653ETHO    O128335  19.730  13.011  10.085
 3653ETHO    C128336  19.796  13.137  10.042
 3653ETHO   H1128337  19.737  13.192   9.965
 3653ETHO   H1328338  19.795  13.203  10.131
 3653ETHO    C228339  19.941  13.122   9.995
 3653ETHO   H2128340  19.978  13.024  10.031
 3653ETHO   H2328341  20.010  13.200  10.034
 3654ETHO    O128342  19.945  13.114   9.851
 3654ETHO    C128343  20.079  13.102   9.800
 3654ETHO   H1128344  20.140  13.029   9.857
 3654ETHO   H1328345  20.125  13.203   9.802
 3654ETHO    C228346  20.080  13.052   9.655
 3654ETHO   H2128347  20.180  13.030   9.611
 3654ETHO   H2328348  20.028  13.120   9.584
 3655ETHO    O128349  20.000  12.931   9.654
 3655ETHO    C128350  20.013  12.839   9.542
 3655ETHO   H1128351  20.117  12.799   9.536
 3655ETHO   H1328352  19.948  12.756   9.576
 3655ETHO    C228353  19.968  12.902   9.413
 3655ETHO   H2128354  19.874  12.957   9.436
 3655ETHO   H2328355  19.925  12.826   9.345
 3656ETHO    O128356  20.067  12.983   9.336
 3656ETHO    C128357  20.008  13.075   9.239
 3656ETHO   H1128358  19.972  13.017   9.153
 3656ETHO   H1328359  19.920  13.124   9.286
 3656ETHO    C228360  20.099  13.188   9.194
 3656ETHO   H2128361  20.041  13.245   9.118
 3656ETHO   H2328362  20.189  13.147   9.143
 3657ETHO    O128363  20.144  13.275   9.297
 3657ETHO    C128364  20.082  13.408   9.289
 3657ETHO   H1128365  20.123  13.468   9.205
 3657ETHO   H1328366  19.972  13.398   9.277
 3657ETHO    C228367  20.109  13.485   9.420
 3657ETHO   H2128368  20.080  13.424   9.508
 3657ETHO   H2328369  20.055  13.582   9.417
 3658ETHO    O128370  20.252  13.513   9.429
 3658ETHO    C128371  20.291  13.623   9.502
 3658ETHO   H1128372  20.325  13.702   9.432
 3658ETHO   H1328373  20.196  13.664   9.543
 3658ETHO    C228374  20.383  13.583   9.618
 3658ETHO   H2128375  20.347  13.491   9.668
 3658ETHO   H2328376  20.401  13.666   9.689
 3659ETHO    O128377  20.507  13.557   9.548
 3659ETHO    C128378  20.608  13.520   9.643
 3659ETHO   H1128379  20.591  13.415   9.674
 3659ETHO   H1328380  20.595  13.579   9.736
 3659ETHO    C228381  20.746  13.537   9.569
 3659ETHO   H2128382  20.745  13.606   9.482
 3659ETHO   H2328383  20.785  13.446   9.518
 3660ETHO    O128384  20.845  13.592   9.660
 3660ETHO    C128385  20.970  13.607   9.598
 3660ETHO   H1128386  21.017  13.508   9.577
 3660ETHO   H1328387  20.967  13.671   9.508
 3660ETHO    C228388  21.067  13.688   9.690
 3660ETHO   H2128389  21.169  13.687   9.648
 3660ETHO   H2328390  21.069  13.649   9.794
 3661ETHO    O128391  21.029  13.829   9.703
 3661ETHO    C128392  20.906  13.856   9.769
 3661ETHO   H1128393  20.896  13.784   9.853
 3661ETHO   H1328394  20.819  13.850   9.701
 3661ETHO    C228395  20.900  13.995   9.827
 3661ETHO   H2128396  20.793  14.007   9.855
 3661ETHO   H2328397  20.922  14.074   9.752
 3662ETHO    O128398  20.970  14.014   9.951
 3662ETHO    C128399  20.992  14.150   9.977
 3662ETHO   H1128400  21.054  14.166  10.067
 3662ETHO   H1328401  21.053  14.197   9.897
 3662ETHO    C228402  20.861  14.223   9.995
 3662ETHO   H2128403  20.791  14.210   9.910
 3662ETHO   H2328404  20.880  14.331  10.008
 3663ETHO    O128405  20.805  14.182  10.120
 3663ETHO    C128406  20.675  14.231  10.134
 3663ETHO   H1128407  20.630  14.204  10.037
 3663ETHO   H1328408  20.676  14.342  10.130
 3663ETHO    C228409  20.607  14.168  10.254
 3663ETHO   H2128410  20.657  14.193  10.350
 3663ETHO   H2328411  20.604  14.058  10.236
 3664ETHO    O128412  20.480  14.219  10.268
 3664ETHO    C128413  20.428  14.205  10.405
 3664ETHO   H1128414  20.489  14.254  10.484
 3664ETHO   H1328415  20.330  14.258  10.401
 3664ETHO    C228416  20.403  14.060  10.447
 3664ETHO   H2128417  20.497  14.025  10.493
 3664ETHO   H2328418  20.376  14.002  10.356
 3665ETHO    O128419  20.292  14.048  10.540
 3665ETHO    C128420  20.298  13.920  10.606
 3665ETHO   H1128421  20.401  13.881  10.614
 3665ETHO   H1328422  20.235  13.847  10.551
 3665ETHO    C228423  20.242  13.934  10.750
 3665ETHO   H2128424  20.315  14.001  10.800
 3665ETHO   H2328425  20.260  13.841  10.807
 3666ETHO    O128426  20.114  13.990  10.765
 3666ETHO    C128427  20.010  13.893  10.749
 3666ETHO   H1128428  20.033  13.832  10.659
 3666ETHO   H1328429  20.015  13.819  10.832
 3666ETHO    C228430  19.869  13.956  10.736
 3666ETHO   H2128431  19.799  13.877  10.700
 3666ETHO   H2328432  19.883  14.035  10.659
 3667ETHO    O128433  19.823  14.019  10.857
 3667ETHO    C128434  19.681  14.041  10.856
 3667ETHO   H1128435  19.652  14.106  10.770
 3667ETHO   H1328436  19.627  13.944  10.853
 3667ETHO    C228437  19.653  14.106  10.991
 3667ETHO   H2128438  19.724  14.191  10.990
 3667ETHO   H2328439  19.678  14.036  11.073
 3668ETHO    O128440  19.517  14.154  10.989
 3668ETHO    C128441  19.427  14.045  11.006
 3668ETHO   H1128442  19.411  14.006  10.903
 3668ETHO   H1328443  19.453  13.952  11.060
 3668ETHO    C228444  19.296  14.106  11.044
 3668ETHO   H2128445  19.214  14.032  11.030
 3668ETHO   H2328446  19.272  14.193  10.980
 3669ETHO    O128447  19.286  14.129  11.182
 3669ETHO    C128448  19.176  14.211  11.207
 3669ETHO   H1128449  19.184  14.308  11.153
 3669ETHO   H1328450  19.080  14.165  11.175
 3669ETHO    C228451  19.171  14.244  11.357
 3669ETHO   H2128452  19.182  14.149  11.413
 3669ETHO   H2328453  19.067  14.283  11.367
 3670ETHO    O128454  19.257  14.348  11.398
 3670ETHO    C128455  19.242  14.384  11.533
 3670ETHO   H1128456  19.153  14.333  11.578
 3670ETHO   H1328457  19.240  14.495  11.540
 3670ETHO    C228458  19.362  14.352  11.614
 3670ETHO   H2128459  19.395  14.251  11.583
 3670ETHO   H2328460  19.323  14.351  11.718
 3671ETHO    O128461  19.480  14.436  11.609
 3671ETHO    C128462  19.556  14.421  11.727
 3671ETHO   H1128463  19.641  14.493  11.727
 3671ETHO   H1328464  19.490  14.443  11.814
 3671ETHO    C228465  19.619  14.284  11.732
 3671ETHO   H2128466  19.685  14.299  11.820
 3671ETHO   H2328467  19.677  14.259  11.641
 3672ETHO    O128468  19.534  14.178  11.768
 3672ETHO    C128469  19.615  14.064  11.802
 3672ETHO   H1128470  19.642  14.058  11.910
 3672ETHO   H1328471  19.711  14.060  11.745
 3672ETHO    C228472  19.538  13.934  11.772
 3672ETHO   H2128473  19.441  13.922  11.826
 3672ETHO   H2328474  19.600  13.845  11.795
 3673ETHO    O128475  19.535  13.922  11.627
 3673ETHO    C128476  19.401  13.870  11.588
 3673ETHO   H1128477  19.389  13.771  11.637
 3673ETHO   H1328478  19.318  13.915  11.646
 3673ETHO    C228479  19.373  13.856  11.432
 3673ETHO   H2128480  19.454  13.784  11.410
 3673ETHO   H2328481  19.385  13.956  11.385
 3674ETHO    O128482  19.248  13.808  11.401
 3674ETHO    C128483  19.211  13.804  11.265
 3674ETHO   H1128484  19.273  13.735  11.203
 3674ETHO   H1328485  19.222  13.908  11.227
 3674ETHO    C228486  19.065  13.746  11.252
 3674ETHO   H2128487  19.044  13.669  11.329
 3674ETHO   H2328488  19.061  13.686  11.158
 3675ETHO    O128489  18.962  13.847  11.247
 3675ETHO    C128490  18.912  13.871  11.373
 3675ETHO   H1128491  18.865  13.778  11.413
 3675ETHO   H1328492  18.993  13.892  11.447
 3675ETHO    C228493  18.810  13.987  11.381
 3675ETHO   H2128494  18.776  13.983  11.487
 3675ETHO   H2328495  18.724  13.973  11.313
 3676ETHO    O128496  18.876  14.113  11.359
 3676ETHO    C128497  18.792  14.227  11.336
 3676ETHO   H1128498  18.850  14.322  11.328
 3676ETHO   H1328499  18.729  14.229  11.427
 3676ETHO    C228500  18.699  14.240  11.215
 3676ETHO   H2128501  18.639  14.332  11.229
 3676ETHO   H2328502  18.617  14.166  11.211
 3677ETHO    O128503  18.762  14.244  11.084
 3677ETHO    C128504  18.817  14.119  11.040
 3677ETHO   H1128505  18.856  14.059  11.125
 3677ETHO   H1328506  18.738  14.057  10.993
 3677ETHO    C228507  18.919  14.122  10.923
 3677ETHO   H2128508  18.962  14.020  10.919
 3677ETHO   H2328509  19.006  14.189  10.935
 3678ETHO    O128510  18.840  14.135  10.809
 3678ETHO    C128511  18.918  14.151  10.695
 3678ETHO   H1128512  18.991  14.068  10.690
 3678ETHO   H1328513  18.841  14.148  10.615
 3678ETHO    C228514  18.986  14.292  10.682
 3678ETHO   H2128515  18.914  14.375  10.695
 3678ETHO   H2328516  19.013  14.296  10.574
 3679ETHO    O128517  19.094  14.323  10.766
 3679ETHO    C128518  19.167  14.433  10.722
 3679ETHO   H1128519  19.098  14.514  10.691
 3679ETHO   H1328520  19.216  14.477  10.811
 3679ETHO    C228521  19.272  14.402  10.610
 3679ETHO   H2128522  19.340  14.323  10.649
 3679ETHO   H2328523  19.351  14.478  10.594
 3680ETHO    O128524  19.222  14.367  10.481
 3680ETHO    C128525  19.149  14.477  10.423
 3680ETHO   H1128526  19.046  14.474  10.463
 3680ETHO   H1328527  19.190  14.571  10.467
 3680ETHO    C228528  19.151  14.469  10.265
 3680ETHO   H2128529  19.065  14.528  10.227
 3680ETHO   H2328530  19.130  14.364  10.237
 3681ETHO    O128531  19.277  14.520  10.215
 3681ETHO    C128532  19.286  14.661  10.205
 3681ETHO   H1128533  19.394  14.685  10.202
 3681ETHO   H1328534  19.238  14.712  10.291
 3681ETHO    C228535  19.206  14.726  10.085
 3681ETHO   H2128536  19.222  14.835  10.099
 3681ETHO   H2328537  19.098  14.699  10.095
 3682ETHO    O128538  19.259  14.689   9.951
 3682ETHO    C128539  19.153  14.633   9.880
 3682ETHO   H1128540  19.110  14.544   9.931
 3682ETHO   H1328541  19.075  14.712   9.878
 3682ETHO    C228542  19.187  14.591   9.737
 3682ETHO   H2128543  19.209  14.685   9.682
 3682ETHO   H2328544  19.102  14.549   9.680
 3683ETHO    O128545  19.305  14.505   9.732
 3683ETHO    C128546  19.339  14.474   9.602
 3683ETHO   H1128547  19.341  14.572   9.550
 3683ETHO   H1328548  19.265  14.406   9.555
 3683ETHO    C228549  19.474  14.403   9.598
 3683ETHO   H2128550  19.478  14.348   9.501
 3683ETHO   H2328551  19.489  14.336   9.685
 3684ETHO    O128552  19.585  14.495   9.601
 3684ETHO    C128553  19.714  14.432   9.614
 3684ETHO   H1128554  19.717  14.367   9.704
 3684ETHO   H1328555  19.728  14.369   9.523
 3684ETHO    C228556  19.828  14.533   9.643
 3684ETHO   H2128557  19.828  14.604   9.558
 3684ETHO   H2328558  19.800  14.577   9.741
 3685ETHO    O128559  19.958  14.471   9.638
 3685ETHO    C128560  20.050  14.546   9.724
 3685ETHO   H1128561  20.139  14.481   9.738
 3685ETHO   H1328562  19.996  14.557   9.820
 3685ETHO    C228563  20.082  14.679   9.675
 3685ETHO   H2128564  20.107  14.749   9.758
 3685ETHO   H2328565  20.006  14.730   9.612
 3686ETHO    O128566  20.196  14.650   9.584
 3686ETHO    C128567  20.267  14.770   9.544
 3686ETHO   H1128568  20.233  14.797   9.442
 3686ETHO   H1328569  20.254  14.860   9.607
 3686ETHO    C228570  20.416  14.741   9.540
 3686ETHO   H2128571  20.442  14.677   9.627
 3686ETHO   H2328572  20.471  14.837   9.551
 3687ETHO    O128573  20.453  14.682   9.417
 3687ETHO    C128574  20.440  14.550   9.408
 3687ETHO   H1128575  20.339  14.521   9.445
 3687ETHO   H1328576  20.510  14.501   9.479
 3687ETHO    C228577  20.467  14.498   9.269
 3687ETHO   H2128578  20.400  14.554   9.200
 3687ETHO   H2328579  20.452  14.390   9.246
 3688ETHO    O128580  20.605  14.526   9.241
 3688ETHO    C128581  20.617  14.651   9.163
 3688ETHO   H1128582  20.558  14.657   9.070
 3688ETHO   H1328583  20.582  14.733   9.229
 3688ETHO    C228584  20.762  14.681   9.124
 3688ETHO   H2128585  20.830  14.661   9.210
 3688ETHO   H2328586  20.764  14.792   9.115
 3689ETHO    O128587  20.798  14.608   9.008
 3689ETHO    C128588  20.925  14.643   8.954
 3689ETHO   H1128589  20.998  14.634   9.037
 3689ETHO   H1328590  20.912  14.748   8.919
 3689ETHO    C228591  20.960  14.543   8.847
 3689ETHO   H2128592  20.925  14.443   8.882
 3689ETHO   H2328593  21.071  14.539   8.839
 3690ETHO    O128594  20.915  14.575   8.726
 3690ETHO    C128595  20.959  14.487   8.617
 3690ETHO   H1128596  21.068  14.502   8.601
 3690ETHO   H1328597  20.950  14.382   8.650
 3690ETHO    C228598  20.883  14.508   8.480
 3690ETHO   H2128599  20.774  14.511   8.500
 3690ETHO   H2328600  20.895  14.427   8.405
 3691ETHO    O128601  20.929  14.625   8.416
 3691ETHO    C128602  20.878  14.633   8.285
 3691ETHO   H1128603  20.767  14.645   8.280
 3691ETHO   H1328604  20.915  14.547   8.226
 3691ETHO    C228605  20.934  14.758   8.212
 3691ETHO   H2128606  20.888  14.761   8.111
 3691ETHO   H2328607  21.044  14.750   8.198
 3692ETHO    O128608  20.902  14.876   8.283
 3692ETHO    C128609  20.997  14.971   8.244
 3692ETHO   H1128610  21.098  14.936   8.274
 3692ETHO   H1328611  21.006  14.973   8.133
 3692ETHO    C228612  20.949  15.113   8.296
 3692ETHO   H2128613  20.949  15.116   8.407
 3692ETHO   H2328614  21.008  15.196   8.253
 3693ETHO    O128615  20.814  15.136   8.246
 3693ETHO    C128616  20.763  15.255   8.303
 3693ETHO   H1128617  20.780  15.258   8.412
 3693ETHO   H1328618  20.810  15.339   8.247
 3693ETHO    C228619  20.612  15.279   8.299
 3693ETHO   H2128620  20.603  15.376   8.352
 3693ETHO   H2328621  20.568  15.201   8.365
 3694ETHO    O128622  20.551  15.298   8.170
 3694ETHO    C128623  20.440  15.397   8.186
 3694ETHO   H1128624  20.488  15.496   8.200
 3694ETHO   H1328625  20.396  15.412   8.086
 3694ETHO    C228626  20.324  15.377   8.288
 3694ETHO   H2128627  20.270  15.471   8.315
 3694ETHO   H2328628  20.373  15.344   8.382
 3695ETHO    O128629  20.227  15.285   8.233
 3695ETHO    C128630  20.120  15.257   8.329
 3695ETHO   H1128631  20.157  15.254   8.434
 3695ETHO   H1328632  20.048  15.342   8.330
 3695ETHO    C228633  20.044  15.131   8.294
 3695ETHO   H2128634  20.039  15.133   8.183
 3695ETHO   H2328635  19.943  15.127   8.340
 3696ETHO    O128636  20.104  15.017   8.345
 3696ETHO    C128637  20.042  14.901   8.300
 3696ETHO   H1128638  20.076  14.892   8.195
 3696ETHO   H1328639  19.931  14.900   8.305
 3696ETHO    C228640  20.111  14.784   8.379
 3696ETHO   H2128641  20.222  14.789   8.377
 3696ETHO   H2328642  20.076  14.689   8.333
 3697ETHO    O128643  20.070  14.778   8.516
 3697ETHO    C128644  20.159  14.704   8.596
 3697ETHO   H1128645  20.178  14.609   8.543
 3697ETHO   H1328646  20.253  14.762   8.609
 3697ETHO    C228647  20.097  14.668   8.736
 3697ETHO   H2128648  20.072  14.766   8.783
 3697ETHO   H2328649  20.179  14.627   8.798
 3698ETHO    O128650  19.992  14.572   8.729
 3698ETHO    C128651  19.976  14.501   8.850
 3698ETHO   H1128652  19.952  14.577   8.928
 3698ETHO   H1328653  20.070  14.450   8.880
 3698ETHO    C228654  19.860  14.401   8.868
 3698ETHO   H2128655  19.861  14.355   8.970
 3698ETHO   H2328656  19.848  14.323   8.790
 3699ETHO    O128657  19.733  14.479   8.858
 3699ETHO    C128658  19.620  14.401   8.873
 3699ETHO   H1128659  19.543  14.454   8.813
 3699ETHO   H1328660  19.630  14.297   8.834
 3699ETHO    C228661  19.568  14.400   9.014
 3699ETHO   H2128662  19.657  14.370   9.074
 3699ETHO   H2328663  19.484  14.327   9.015
 3700ETHO    O128664  19.508  14.520   9.068
 3700ETHO    C128665  19.475  14.499   9.207
 3700ETHO   H1128666  19.512  14.578   9.275
 3700ETHO   H1328667  19.530  14.410   9.246
 3700ETHO    C228668  19.329  14.485   9.221
 3700ETHO   H2128669  19.281  14.582   9.196
 3700ETHO   H2328670  19.289  14.468   9.323
 3701ETHO    O128671  19.276  14.385   9.138
 3701ETHO    C128672  19.138  14.399   9.096
 3701ETHO   H1128673  19.072  14.392   9.186
 3701ETHO   H1328674  19.123  14.494   9.041
 3701ETHO    C228675  19.104  14.276   9.002
 3701ETHO   H2128676  19.147  14.285   8.900
 3701ETHO   H2328677  18.993  14.271   8.995
 3702ETHO    O128678  19.164  14.162   9.065
 3702ETHO    C128679  19.153  14.040   8.989
 3702ETHO   H1128680  19.201  14.058   8.890
 3702ETHO   H1328681  19.048  14.009   8.969
 3702ETHO    C228682  19.226  13.915   9.061
 3702ETHO   H2128683  19.217  13.816   9.012
 3702ETHO   H2328684  19.168  13.909   9.155
 3703ETHO    O128685  19.360  13.940   9.086
 3703ETHO    C128686  19.425  13.829   9.146
 3703ETHO   H1128687  19.386  13.825   9.250
 3703ETHO   H1328688  19.417  13.731   9.096
 3703ETHO    C228689  19.575  13.865   9.167
 3703ETHO   H2128690  19.616  13.814   9.256
 3703ETHO   H2328691  19.597  13.970   9.196
 3704ETHO    O128692  19.659  13.823   9.062
 3704ETHO    C128693  19.652  13.912   8.955
 3704ETHO   H1128694  19.572  13.863   8.895
 3704ETHO   H1328695  19.633  14.018   8.982
 3704ETHO    C228696  19.776  13.922   8.877
 3704ETHO   H2128697  19.765  13.979   8.782
 3704ETHO   H2328698  19.818  13.823   8.849
 3705ETHO    O128699  19.871  13.991   8.960
 3705ETHO    C128700  19.990  13.997   8.891
 3705ETHO   H1128701  20.011  13.893   8.859
 3705ETHO   H1328702  19.988  14.058   8.798
 3705ETHO    C228703  20.109  14.058   8.964
 3705ETHO   H2128704  20.204  14.023   8.917
 3705ETHO   H2328705  20.120  14.033   9.072
 3706ETHO    O128706  20.103  14.199   8.948
 3706ETHO    C128707  20.194  14.269   9.041
 3706ETHO   H1128708  20.280  14.202   9.060
 3706ETHO   H1328709  20.237  14.357   8.987
 3706ETHO    C228710  20.125  14.317   9.178
 3706ETHO   H2128711  20.205  14.332   9.253
 3706ETHO   H2328712  20.070  14.235   9.228
 3707ETHO    O128713  20.065  14.441   9.157
 3707ETHO    C128714  19.977  14.486   9.262
 3707ETHO   H1128715  20.027  14.507   9.359
 3707ETHO   H1328716  19.903  14.408   9.293
 3707ETHO    C228717  19.900  14.603   9.212
 3707ETHO   H2128718  19.816  14.572   9.146
 3707ETHO   H2328719  19.968  14.669   9.155
 3708ETHO    O128720  19.849  14.683   9.324
 3708ETHO    C128721  19.775  14.794   9.286
 3708ETHO   H1128722  19.693  14.800   9.361
 3708ETHO   H1328723  19.731  14.769   9.187
 3708ETHO    C228724  19.862  14.921   9.286
 3708ETHO   H2128725  19.901  14.924   9.389
 3708ETHO   H2328726  19.800  15.008   9.255
 3709ETHO    O128727  19.973  14.895   9.196
 3709ETHO    C128728  20.094  14.950   9.244
 3709ETHO   H1128729  20.105  14.917   9.349
 3709ETHO   H1328730  20.093  15.061   9.243
 3709ETHO    C228731  20.222  14.901   9.166
 3709ETHO   H2128732  20.210  14.791   9.164
 3709ETHO   H2328733  20.313  14.928   9.224
 3710ETHO    O128734  20.241  14.952   9.027
 3710ETHO    C128735  20.339  14.885   8.956
 3710ETHO   H1128736  20.362  14.789   9.008
 3710ETHO   H1328737  20.281  14.853   8.867
 3710ETHO    C228738  20.456  14.967   8.912
 3710ETHO   H2128739  20.407  15.054   8.863
 3710ETHO   H2328740  20.510  14.896   8.846
 3710ETHO    OZ28741  20.537  14.995   9.027
 3710ETHO   HZ128742  20.491  15.060   9.080
 3711ETHO    O128743   7.713  12.201  19.314
 3711ETHO   HO128744   7.704  12.105  19.316
 3711ETHO    C128745   7.791  12.235  19.429
 3711ETHO   H1128746   7.888  12.182  19.425
 3711ETHO   H1328747   7.738  12.186  19.513
 3711ETHO    C228748   7.803  12.388  19.438
 3711ETHO   H2128749   7.864  12.417  19.350
 3711ETHO   H2328750   7.856  12.415  19.532
 3712ETHO    O128751   7.689  12.472  19.435
 3712ETHO    C128752   7.608  12.453  19.550
 3712ETHO   H1128753   7.565  12.351  19.540
 3712ETHO   H1328754   7.678  12.471  19.635
 3712ETHO    C228755   7.497  12.562  19.554
 3712ETHO   H2128756   7.441  12.530  19.644
 3712ETHO   H2328757   7.419  12.562  19.475
 3713ETHO    O128758   7.559  12.691  19.588
 3713ETHO    C128759   7.464  12.796  19.592
 3713ETHO   H1128760   7.389  12.768  19.668
 3713ETHO   H1328761   7.408  12.807  19.496
 3713ETHO    C228762   7.530  12.937  19.607
 3713ETHO   H2128763   7.453  13.017  19.608
 3713ETHO   H2328764   7.608  12.961  19.532
 3714ETHO    O128765   7.601  12.931  19.728
 3714ETHO    C128766   7.592  13.052  19.800
 3714ETHO   H1128767   7.639  13.136  19.744
 3714ETHO   H1328768   7.485  13.079  19.815
 3714ETHO    C228769   7.664  13.040  19.930
 3714ETHO   H2128770   7.614  12.964  19.994
 3714ETHO   H2328771   7.638  13.134  19.984
 3715ETHO    O128772   7.805  13.033  19.908
 3715ETHO    C128773   7.874  13.016  20.033
 3715ETHO   H1128774   7.976  13.059  20.024
 3715ETHO   H1328775   7.827  13.096  20.094
 3715ETHO    C228776   7.877  12.867  20.088
 3715ETHO   H2128777   7.951  12.868  20.171
 3715ETHO   H2328778   7.921  12.799  20.012
 3716ETHO    O128779   7.751  12.814  20.133
 3716ETHO    C128780   7.747  12.673  20.144
 3716ETHO   H1128781   7.850  12.633  20.136
 3716ETHO   H1328782   7.699  12.648  20.241
 3716ETHO    C228783   7.668  12.631  20.025
 3716ETHO   H2128784   7.709  12.532  19.996
 3716ETHO   H2328785   7.680  12.699  19.938
 3717ETHO    O128786   7.531  12.629  20.053
 3717ETHO    C128787   7.455  12.575  19.949
 3717ETHO   H1128788   7.456  12.641  19.860
 3717ETHO   H1328789   7.504  12.478  19.926
 3717ETHO    C228790   7.305  12.554  19.991
 3717ETHO   H2128791   7.260  12.655  19.974
 3717ETHO   H2328792   7.281  12.519  20.093
 3718ETHO    O128793   7.261  12.455  19.896
 3718ETHO    C128794   7.122  12.439  19.896
 3718ETHO   H1128795   7.087  12.520  19.829
 3718ETHO   H1328796   7.082  12.441  20.000
 3718ETHO    C228797   7.083  12.306  19.839
 3718ETHO   H2128798   6.976  12.284  19.857
 3718ETHO   H2328799   7.142  12.228  19.891
 3719ETHO    O128800   7.096  12.313  19.694
 3719ETHO    C128801   7.066  12.186  19.633
 3719ETHO   H1128802   7.109  12.110  19.702
 3719ETHO   H1328803   6.955  12.180  19.632
 3719ETHO    C228804   7.135  12.171  19.501
 3719ETHO   H2128805   7.115  12.258  19.435
 3719ETHO   H2328806   7.099  12.076  19.454
 3720ETHO    O128807   7.277  12.163  19.509
 3720ETHO    C128808   7.353  12.120  19.392
 3720ETHO   H1128809   7.462  12.133  19.413
 3720ETHO   H1328810   7.323  12.187  19.309
 3720ETHO    C228811   7.336  11.979  19.340
 3720ETHO   H2128812   7.243  11.969  19.282
 3720ETHO   H2328813   7.326  11.899  19.417
 3721ETHO    O128814   7.440  11.950  19.249
 3721ETHO    C128815   7.554  11.898  19.320
 3721ETHO   H1128816   7.599  11.982  19.377
 3721ETHO   H1328817   7.523  11.821  19.393
 3721ETHO    C228818   7.655  11.844  19.214
 3721ETHO   H2128819   7.724  11.768  19.258
 3721ETHO   H2328820   7.597  11.799  19.131
 3722ETHO    O128821   7.725  11.951  19.157
 3722ETHO    C128822   7.825  11.904  19.062
 3722ETHO   H1128823   7.775  11.893  18.964
 3722ETHO   H1328824   7.868  11.809  19.102
 3722ETHO    C228825   7.939  11.999  19.041
 3722ETHO   H2128826   7.896  12.100  19.022
 3722ETHO   H2328827   7.991  11.969  18.948
 3723ETHO    O128828   8.042  12.005  19.139
 3723ETHO    C128829   8.129  12.109  19.103
 3723ETHO   H1128830   8.145  12.097  18.993
 3723ETHO   H1328831   8.085  12.208  19.128
 3723ETHO    C228832   8.262  12.105  19.179
 3723ETHO   H2128833   8.266  12.116  19.289
 3723ETHO   H2328834   8.327  12.179  19.128
 3724ETHO    O128835   8.319  11.982  19.152
 3724ETHO    C128836   8.446  11.963  19.205
 3724ETHO   H1128837   8.509  12.054  19.200
 3724ETHO   H1328838   8.492  11.889  19.135
 3724ETHO    C228839   8.454  11.905  19.346
 3724ETHO   H2128840   8.398  11.809  19.340
 3724ETHO   H2328841   8.415  11.981  19.417
 3725ETHO    O128842   8.582  11.869  19.387
 3725ETHO    C128843   8.594  11.839  19.523
 3725ETHO   H1128844   8.539  11.915  19.584
 3725ETHO   H1328845   8.548  11.740  19.542
 3725ETHO    C228846   8.741  11.841  19.556
 3725ETHO   H2128847   8.791  11.939  19.541
 3725ETHO   H2328848   8.738  11.813  19.663
 3726ETHO    O128849   8.811  11.751  19.479
 3726ETHO    C128850   8.828  11.627  19.544
 3726ETHO   H1128851   8.894  11.629  19.633
 3726ETHO   H1328852   8.733  11.588  19.586
 3726ETHO    C228853   8.886  11.516  19.450
 3726ETHO   H2128854   8.816  11.510  19.365
 3726ETHO   H2328855   8.875  11.423  19.509
 3727ETHO    O128856   9.019  11.533  19.407
 3727ETHO    C128857   9.061  11.436  19.313
 3727ETHO   H1128858   9.068  11.339  19.365
 3727ETHO   H1328859   8.970  11.425  19.249
 3727ETHO    C228860   9.191  11.478  19.243
 3727ETHO   H2128861   9.230  11.382  19.203
 3727ETHO   H2328862   9.265  11.521  19.314
 3728ETHO    O128863   9.181  11.572  19.140
 3728ETHO    C128864   9.313  11.586  19.085
 3728ETHO   H1128865   9.370  11.664  19.139
 3728ETHO   H1328866   9.380  11.497  19.086
 3728ETHO    C228867   9.312  11.632  18.937
 3728ETHO   H2128868   9.417  11.658  18.912
 3728ETHO   H2328869   9.256  11.727  18.946
 3729ETHO    O128870   9.255  11.533  18.850
 3729ETHO    C128871   9.339  11.519  18.734
 3729ETHO   H1128872   9.304  11.434  18.671
 3729ETHO   H1328873   9.445  11.502  18.761
 3729ETHO    C228874   9.335  11.645  18.647
 3729ETHO   H2128875   9.417  11.628  18.573
 3729ETHO   H2328876   9.373  11.731  18.707
 3730ETHO    O128877   9.209  11.678  18.587
 3730ETHO    C128878   9.202  11.813  18.553
 3730ETHO   H1128879   9.182  11.877  18.642
 3730ETHO   H1328880   9.302  11.831  18.507
 3730ETHO    C228881   9.085  11.848  18.460
 3730ETHO   H2128882   9.072  11.759  18.396
 3730ETHO   H2328883   9.123  11.927  18.392
 3731ETHO    O128884   8.959  11.880  18.523
 3731ETHO    C128885   8.866  11.919  18.425
 3731ETHO   H1128886   8.833  11.819  18.390
 3731ETHO   H1328887   8.919  11.979  18.348
 3731ETHO    C228888   8.754  12.000  18.496
 3731ETHO   H2128889   8.717  11.944  18.585
 3731ETHO   H2328890   8.672  12.031  18.428
 3732ETHO    O128891   8.820  12.121  18.540
 3732ETHO    C128892   8.736  12.218  18.587
 3732ETHO   H1128893   8.697  12.291  18.513
 3732ETHO   H1328894   8.650  12.163  18.632
 3732ETHO    C228895   8.800  12.301  18.695
 3732ETHO   H2128896   8.878  12.361  18.644
 3732ETHO   H2328897   8.715  12.358  18.737
 3733ETHO    O128898   8.858  12.234  18.817
 3733ETHO    C128899   8.899  12.328  18.916
 3733ETHO   H1128900   8.829  12.414  18.909
 3733ETHO   H1328901   9.001  12.361  18.890
 3733ETHO    C228902   8.906  12.280  19.057
 3733ETHO   H2128903   8.805  12.256  19.095
 3733ETHO   H2328904   8.944  12.368  19.114
 3734ETHO    O128905   8.992  12.169  19.068
 3734ETHO    C128906   8.951  12.089  19.173
 3734ETHO   H1128907   8.854  12.040  19.148
 3734ETHO   H1328908   9.022  12.012  19.207
 3734ETHO    C228909   8.913  12.162  19.306
 3734ETHO   H2128910   8.982  12.247  19.325
 3734ETHO   H2328911   8.940  12.105  19.398
 3735ETHO    O128912   8.777  12.196  19.316
 3735ETHO    C128913   8.730  12.226  19.449
 3735ETHO   H1128914   8.792  12.311  19.483
 3735ETHO   H1328915   8.752  12.134  19.508
 3735ETHO    C228916   8.576  12.245  19.458
 3735ETHO   H2128917   8.551  12.239  19.566
 3735ETHO   H2328918   8.519  12.183  19.386
 3736ETHO    O128919   8.547  12.377  19.429
 3736ETHO    C128920   8.552  12.417  19.290
 3736ETHO   H1128921   8.655  12.419  19.248
 3736ETHO   H1328922   8.504  12.344  19.222
 3736ETHO    C228923   8.488  12.560  19.289
 3736ETHO   H2128924   8.394  12.554  19.348
 3736ETHO   H2328925   8.473  12.581  19.181
 3737ETHO    O128926   8.576  12.654  19.344
 3737ETHO    C128927   8.572  12.783  19.286
 3737ETHO   H1128928   8.468  12.820  19.302
 3737ETHO   H1328929   8.589  12.762  19.178
 3737ETHO    C228930   8.659  12.892  19.340
 3737ETHO   H2128931   8.657  12.868  19.448
 3737ETHO   H2328932   8.621  12.992  19.308
 3738ETHO    O128933   8.798  12.886  19.295
 3738ETHO    C128934   8.882  12.973  19.368
 3738ETHO   H1128935   8.862  13.080  19.348
 3738ETHO   H1328936   8.872  12.959  19.478
 3738ETHO    C228937   9.031  12.964  19.330
 3738ETHO   H2128938   9.054  12.857  19.314
 3738ETHO   H2328939   9.101  13.012  19.403
 3739ETHO    O128940   9.039  13.035  19.207
 3739ETHO    C128941   9.171  13.016  19.144
 3739ETHO   H1128942   9.261  13.046  19.202
 3739ETHO   H1328943   9.169  13.094  19.064
 3739ETHO    C228944   9.195  12.877  19.076
 3739ETHO   H2128945   9.268  12.873  18.992
 3739ETHO   H2328946   9.100  12.834  19.038
 3740ETHO    O128947   9.252  12.794  19.175
 3740ETHO    C128948   9.200  12.664  19.174
 3740ETHO   H1128949   9.093  12.664  19.204
 3740ETHO   H1328950   9.213  12.612  19.077
 3740ETHO    C228951   9.271  12.565  19.266
 3740ETHO   H2128952   9.204  12.477  19.283
 3740ETHO   H2328953   9.276  12.620  19.362
 3741ETHO    O128954   9.398  12.530  19.205
 3741ETHO    C128955   9.503  12.579  19.291
 3741ETHO   H1128956   9.501  12.690  19.287
 3741ETHO   H1328957   9.475  12.548  19.394
 3741ETHO    C228958   9.644  12.520  19.270
 3741ETHO   H2128959   9.635  12.410  19.251
 3741ETHO   H2328960   9.697  12.532  19.366
 3742ETHO    O128961   9.712  12.582  19.165
 3742ETHO    C128962   9.825  12.504  19.142
 3742ETHO   H1128963   9.864  12.453  19.232
 3742ETHO   H1328964   9.786  12.429  19.070
 3742ETHO    C228965   9.939  12.571  19.063
 3742ETHO   H2128966   9.889  12.613  18.974
 3742ETHO   H2328967  10.001  12.481  19.041
 3743ETHO    O128968  10.007  12.673  19.136
 3743ETHO    C128969  10.123  12.728  19.070
 3743ETHO   H1128970  10.188  12.646  19.031
 3743ETHO   H1328971  10.087  12.781  18.979
 3743ETHO    C228972  10.202  12.818  19.169
 3743ETHO   H2128973  10.303  12.831  19.125
 3743ETHO   H2328974  10.196  12.762  19.265
 3744ETHO    O128975  10.154  12.948  19.185
 3744ETHO    C128976  10.197  13.002  19.309
 3744ETHO   H1128977  10.299  12.967  19.335
 3744ETHO   H1328978  10.130  12.958  19.386
 3744ETHO    C228979  10.192  13.158  19.303
 3744ETHO   H2128980  10.231  13.210  19.213
 3744ETHO   H2328981  10.253  13.193  19.389
 3745ETHO    O128982  10.057  13.192  19.326
 3745ETHO    C128983   9.991  13.213  19.197
 3745ETHO   H1128984  10.053  13.271  19.126
 3745ETHO   H1328985   9.967  13.115  19.149
 3745ETHO    C228986   9.854  13.293  19.207
 3745ETHO   H2128987   9.781  13.229  19.262
 3745ETHO   H2328988   9.822  13.308  19.102
 3746ETHO    O128989   9.875  13.420  19.268
 3746ETHO    C128990   9.764  13.511  19.233
 3746ETHO   H1128991   9.668  13.453  19.230
 3746ETHO   H1328992   9.780  13.549  19.130
 3746ETHO    C228993   9.736  13.620  19.336
 3746ETHO   H2128994   9.654  13.688  19.303
 3746ETHO   H2328995   9.834  13.672  19.342
 3747ETHO    O128996   9.694  13.580  19.464
 3747ETHO    C128997   9.573  13.516  19.458
 3747ETHO   H1128998   9.566  13.416  19.408
 3747ETHO   H1328999   9.555  13.488  19.564
 3747ETHO    C229000   9.448  13.600  19.412
 3747ETHO   H2129001   9.449  13.704  19.451
 3747ETHO   H2329002   9.366  13.552  19.470
 3748ETHO    O129003   9.415  13.595  19.268
 3748ETHO    C129004   9.281  13.633  19.245
 3748ETHO   H1129005   9.274  13.645  19.135
 3748ETHO   H1329006   9.263  13.734  19.289
 3748ETHO    C229007   9.178  13.517  19.271
 3748ETHO   H2129008   9.238  13.426  19.250
 3748ETHO   H2329009   9.092  13.523  19.201
 3749ETHO    O129010   9.135  13.503  19.402
 3749ETHO    C129011   9.095  13.367  19.446
 3749ETHO   H1129012   8.992  13.348  19.409
 3749ETHO   H1329013   9.159  13.288  19.400
 3749ETHO    C229014   9.098  13.334  19.594
 3749ETHO   H2129015   9.063  13.230  19.612
 3749ETHO   H2329016   9.040  13.409  19.651
 3750ETHO    O129017   9.231  13.335  19.647
 3750ETHO    C129018   9.234  13.386  19.778
 3750ETHO   H1129019   9.145  13.351  19.834
 3750ETHO   H1329020   9.229  13.497  19.769
 3750ETHO    C229021   9.361  13.337  19.844
 3750ETHO   H2129022   9.374  13.410  19.927
 3750ETHO   H2329023   9.456  13.352  19.788
 3751ETHO    O129024   9.360  13.206  19.901
 3751ETHO    C129025   9.463  13.182  19.999
 3751ETHO   H1129026   9.561  13.167  19.951
 3751ETHO   H1329027   9.467  13.264  20.074
 3751ETHO    C229028   9.454  13.054  20.090
 3751ETHO   H2129029   9.348  13.021  20.090
 3751ETHO   H2329030   9.477  13.091  20.192
 3752ETHO    O129031   9.553  12.958  20.052
 3752ETHO    C129032   9.533  12.839  20.133
 3752ETHO   H1129033   9.562  12.868  20.237
 3752ETHO   H1329034   9.425  12.816  20.122
 3752ETHO    C229035   9.621  12.723  20.078
 3752ETHO   H2129036   9.659  12.669  20.167
 3752ETHO   H2329037   9.704  12.765  20.018
 3753ETHO    O129038   9.544  12.637  20.007
 3753ETHO    C129039   9.614  12.519  19.981
 3753ETHO   H1129040   9.700  12.542  19.915
 3753ETHO   H1329041   9.655  12.474  20.074
 3753ETHO    C229042   9.529  12.413  19.907
 3753ETHO   H2129043   9.595  12.325  19.891
 3753ETHO   H2329044   9.485  12.467  19.821
 3754ETHO    O129045   9.427  12.352  19.987
 3754ETHO    C129046   9.348  12.268  19.905
 3754ETHO   H1129047   9.295  12.314  19.819
 3754ETHO   H1329048   9.417  12.192  19.863
 3754ETHO    C229049   9.237  12.194  19.976
 3754ETHO   H2129050   9.277  12.148  20.069
 3754ETHO   H2329051   9.185  12.123  19.909
 3755ETHO    O129052   9.133  12.285  20.018
 3755ETHO    C129053   9.040  12.230  20.111
 3755ETHO   H1129054   9.095  12.197  20.202
 3755ETHO   H1329055   8.999  12.147  20.050
 3755ETHO    C229056   8.931  12.331  20.145
 3755ETHO   H2129057   8.857  12.283  20.213
 3755ETHO   H2329058   8.874  12.363  20.055
 3756ETHO    O129059   8.997  12.437  20.211
 3756ETHO    C129060   8.906  12.512  20.293
 3756ETHO   H1129061   8.821  12.554  20.235
 3756ETHO   H1329062   8.861  12.439  20.364
 3756ETHO    C229063   8.977  12.625  20.371
 3756ETHO   H2129064   9.065  12.593  20.431
 3756ETHO   H2329065   8.913  12.663  20.453
 3757ETHO    O129066   9.003  12.739  20.289
 3757ETHO    C129067   9.146  12.776  20.278
 3757ETHO   H1129068   9.157  12.841  20.189
 3757ETHO   H1329069   9.201  12.680  20.271
 3757ETHO    C229070   9.199  12.847  20.400
 3757ETHO   H2129071   9.148  12.815  20.493
 3757ETHO   H2329072   9.185  12.957  20.397
 3758ETHO    O129073   9.342  12.822  20.421
 3758ETHO    C129074   9.399  12.906  20.526
 3758ETHO   H1129075   9.509  12.892  20.516
 3758ETHO   H1329076   9.371  13.010  20.499
 3758ETHO    C229077   9.345  12.871  20.668
 3758ETHO   H2129078   9.341  12.760  20.673
 3758ETHO   H2329079   9.409  12.908  20.750
 3759ETHO    O129080   9.212  12.917  20.692
 3759ETHO    C129081   9.194  12.934  20.828
 3759ETHO   H1129082   9.279  12.987  20.876
 3759ETHO   H1329083   9.191  12.831  20.869
 3759ETHO    C229084   9.060  13.002  20.857
 3759ETHO   H2129085   9.054  13.005  20.967
 3759ETHO   H2329086   8.979  12.935  20.822
 3760ETHO    O129087   9.032  13.124  20.793
 3760ETHO    C129088   9.069  13.244  20.865
 3760ETHO   H1129089   9.049  13.227  20.973
 3760ETHO   H1329090   9.178  13.258  20.851
 3760ETHO    C229091   8.999  13.373  20.814
 3760ETHO   H2129092   8.890  13.362  20.833
 3760ETHO   H2329093   9.019  13.384  20.705
 3761ETHO    O129094   9.052  13.485  20.886
 3761ETHO    C129095   8.979  13.506  21.007
 3761ETHO   H1129096   9.049  13.548  21.082
 3761ETHO   H1329097   8.936  13.412  21.046
 3761ETHO    C229098   8.874  13.617  20.978
 3761ETHO   H2129099   8.870  13.649  20.871
 3761ETHO   H2329100   8.895  13.708  21.037
 3762ETHO    O129101   8.744  13.576  21.017
 3762ETHO    C129102   8.661  13.683  21.072
 3762ETHO   H1129103   8.689  13.704  21.177
 3762ETHO   H1329104   8.678  13.773  21.008
 3762ETHO    C229105   8.510  13.650  21.071
 3762ETHO   H2129106   8.497  13.622  20.964
 3762ETHO   H2329107   8.454  13.739  21.105
 3763ETHO    O129108   8.465  13.547  21.157
 3763ETHO    C129109   8.327  13.553  21.180
 3763ETHO   H1129110   8.300  13.644  21.237
 3763ETHO   H1329111   8.265  13.549  21.088
 3763ETHO    C229112   8.301  13.430  21.266
 3763ETHO   H2129113   8.350  13.344  21.216
 3763ETHO   H2329114   8.191  13.413  21.265
 3764ETHO    O129115   8.343  13.437  21.403
 3764ETHO    C129116   8.340  13.308  21.462
 3764ETHO   H1129117   8.234  13.275  21.468
 3764ETHO   H1329118   8.399  13.236  21.401
 3764ETHO    C229119   8.402  13.298  21.606
 3764ETHO   H2129120   8.505  13.338  21.610
 3764ETHO   H2329121   8.410  13.188  21.624
 3765ETHO    O129122   8.339  13.365  21.706
 3765ETHO    C129123   8.368  13.291  21.824
 3765ETHO   H1129124   8.323  13.191  21.807
 3765ETHO   H1329125   8.478  13.283  21.841
 3765ETHO    C229126   8.314  13.366  21.950
 3765ETHO   H2129127   8.349  13.472  21.953
 3765ETHO   H2329128   8.203  13.364  21.947
 3766ETHO    O129129   8.349  13.312  22.082
 3766ETHO    C129130   8.299  13.190  22.116
 3766ETHO   H1129131   8.329  13.120  22.035
 3766ETHO   H1329132   8.188  13.185  22.111
 3766ETHO    C229133   8.345  13.148  22.254
 3766ETHO   H2129134   8.271  13.075  22.293
 3766ETHO   H2329135   8.338  13.233  22.324
 3767ETHO    O129136   8.476  13.088  22.248
 3767ETHO    C129137   8.540  13.071  22.377
 3767ETHO   H1129138   8.483  13.009  22.450
 3767ETHO   H1329139   8.625  13.010  22.342
 3767ETHO    C229140   8.577  13.203  22.442
 3767ETHO   H2129141   8.617  13.271  22.363
 3767ETHO   H2329142   8.662  13.192  22.512
 3768ETHO    O129143   8.464  13.273  22.502
 3768ETHO    C129144   8.507  13.400  22.551
 3768ETHO   H1129145   8.526  13.462  22.461
 3768ETHO   H1329146   8.602  13.385  22.606
 3768ETHO    C229147   8.402  13.472  22.635
 3768ETHO   H2129148   8.304  13.483  22.582
 3768ETHO   H2329149   8.429  13.575  22.665
 3769ETHO    O129150   8.376  13.390  22.753
 3769ETHO    C129151   8.275  13.440  22.825
 3769ETHO   H1129152   8.303  13.538  22.869
 3769ETHO   H1329153   8.188  13.461  22.759
 3769ETHO    C229154   8.228  13.336  22.922
 3769ETHO   H2129155   8.170  13.386  23.003
 3769ETHO   H2329156   8.309  13.279  22.972
 3770ETHO    O129157   8.151  13.237  22.853
 3770ETHO    C129158   8.011  13.256  22.853
 3770ETHO   H1129159   7.987  13.364  22.857
 3770ETHO   H1329160   7.961  13.211  22.942
 3770ETHO    C229161   7.939  13.188  22.733
 3770ETHO   H2129162   7.970  13.081  22.732
 3770ETHO   H2329163   7.984  13.237  22.644
 3771ETHO    O129164   7.801  13.218  22.727
 3771ETHO    C129165   7.735  13.146  22.621
 3771ETHO   H1129166   7.753  13.189  22.520
 3771ETHO   H1329167   7.756  13.038  22.630
 3771ETHO    C229168   7.583  13.151  22.637
 3771ETHO   H2129169   7.560  13.112  22.738
 3771ETHO   H2329170   7.542  13.079  22.564
 3772ETHO    O129171   7.520  13.276  22.621
 3772ETHO    C129172   7.458  13.297  22.492
 3772ETHO   H1129173   7.361  13.243  22.489
 3772ETHO   H1329174   7.534  13.266  22.417
 3772ETHO    C229175   7.438  13.449  22.475
 3772ETHO   H2129176   7.385  13.479  22.569
 3772ETHO   H2329177   7.382  13.477  22.384
 3773ETHO    O129178   7.569  13.510  22.469
 3773ETHO    C129179   7.557  13.651  22.479
 3773ETHO   H1129180   7.510  13.690  22.386
 3773ETHO   H1329181   7.491  13.677  22.564
 3773ETHO    C229182   7.685  13.722  22.498
 3773ETHO   H2129183   7.741  13.689  22.589
 3773ETHO   H2329184   7.657  13.828  22.514
 3774ETHO    O129185   7.764  13.719  22.378
 3774ETHO    C129186   7.890  13.646  22.399
 3774ETHO   H1129187   7.872  13.559  22.465
 3774ETHO   H1329188   7.948  13.720  22.458
 3774ETHO    C229189   7.967  13.615  22.266
 3774ETHO   H2129190   8.074  13.597  22.288
 3774ETHO   H2329191   7.972  13.703  22.198
 3775ETHO    O129192   7.915  13.508  22.182
 3775ETHO    C129193   7.995  13.391  22.181
 3775ETHO   H1129194   8.097  13.424  22.152
 3775ETHO   H1329195   7.990  13.353  22.285
 3775ETHO    C229196   7.937  13.275  22.092
 3775ETHO   H2129197   7.828  13.255  22.103
 3775ETHO   H2329198   7.980  13.178  22.124
 3776ETHO    O129199   7.967  13.304  21.956
 3776ETHO    C129200   7.930  13.196  21.869
 3776ETHO   H1129201   7.826  13.158  21.878
 3776ETHO   H1329202   7.988  13.105  21.897
 3776ETHO    C229203   7.962  13.237  21.724
 3776ETHO   H2129204   7.955  13.145  21.663
 3776ETHO   H2329205   8.062  13.285  21.727
 3777ETHO    O129206   7.871  13.341  21.673
 3777ETHO    C129207   7.886  13.360  21.532
 3777ETHO   H1129208   7.993  13.373  21.508
 3777ETHO   H1329209   7.855  13.268  21.478
 3777ETHO    C229210   7.810  13.484  21.478
 3777ETHO   H2129211   7.708  13.475  21.522
 3777ETHO   H2329212   7.792  13.490  21.369
 3778ETHO    O129213   7.868  13.601  21.525
 3778ETHO    C129214   7.782  13.714  21.504
 3778ETHO   H1129215   7.774  13.714  21.393
 3778ETHO   H1329216   7.687  13.695  21.558
 3778ETHO    C229217   7.833  13.851  21.547
 3778ETHO   H2129218   7.891  13.857  21.642
 3778ETHO   H2329219   7.740  13.910  21.561
 3779ETHO    O129220   7.918  13.912  21.456
 3779ETHO    C129221   7.972  14.037  21.508
 3779ETHO   H1129222   7.887  14.104  21.532
 3779ETHO   H1329223   8.035  14.022  21.598
 3779ETHO    C229224   8.059  14.116  21.405
 3779ETHO   H2129225   8.138  14.050  21.364
 3779ETHO   H2329226   8.109  14.206  21.446
 3780ETHO    O129227   7.989  14.153  21.292
 3780ETHO    C129228   8.076  14.168  21.181
 3780ETHO   H1129229   8.159  14.229  21.222
 3780ETHO   H1329230   8.105  14.064  21.155
 3780ETHO    C229231   8.004  14.241  21.065
 3780ETHO   H2129232   7.934  14.168  21.018
 3780ETHO   H2329233   8.084  14.250  20.988
 3781ETHO    O129234   7.951  14.369  21.087
 3781ETHO    C129235   7.906  14.429  20.966
 3781ETHO   H1129236   7.814  14.376  20.935
 3781ETHO   H1329237   7.974  14.407  20.881
 3781ETHO    C229238   7.906  14.578  20.971
 3781ETHO   H2129239   7.877  14.616  20.871
 3781ETHO   H2329240   8.011  14.608  20.986
 3782ETHO    O129241   7.812  14.622  21.079
 3782ETHO    C129242   7.771  14.755  21.058
 3782ETHO   H1129243   7.861  14.819  21.066
 3782ETHO   H1329244   7.738  14.771  20.954
 3782ETHO    C229245   7.653  14.802  21.148
 3782ETHO   H2129246   7.635  14.907  21.116
 3782ETHO   H2329247   7.682  14.796  21.256
 3783ETHO    O129248   7.535  14.737  21.123
 3783ETHO    C129249   7.515  14.628  21.220
 3783ETHO   H1129250   7.454  14.683  21.295
 3783ETHO   H1329251   7.608  14.596  21.273
 3783ETHO    C229252   7.437  14.505  21.162
 3783ETHO   H2129253   7.497  14.418  21.129
 3783ETHO   H2329254   7.381  14.549  21.076
 3784ETHO    O129255   7.346  14.447  21.260
 3784ETHO    C129256   7.233  14.532  21.295
 3784ETHO   H1129257   7.277  14.607  21.365
 3784ETHO   H1329258   7.190  14.573  21.201
 3784ETHO    C229259   7.127  14.456  21.375
 3784ETHO   H2129260   7.053  14.538  21.378
 3784ETHO   H2329261   7.153  14.437  21.481
 3785ETHO    O129262   7.068  14.354  21.296
 3785ETHO    C129263   6.955  14.297  21.365
 3785ETHO   H1129264   6.882  14.374  21.395
 3785ETHO   H1329265   6.987  14.247  21.459
 3785ETHO    C229266   6.873  14.191  21.278
 3785ETHO   H2129267   6.882  14.216  21.170
 3785ETHO   H2329268   6.766  14.196  21.309
 3786ETHO    O129269   6.915  14.055  21.288
 3786ETHO    C129270   6.874  13.994  21.407
 3786ETHO   H1129271   6.917  14.046  21.495
 3786ETHO   H1329272   6.764  14.004  21.407
 3786ETHO    C229273   6.901  13.838  21.397
 3786ETHO   H2129274   6.862  13.793  21.303
 3786ETHO   H2329275   6.851  13.796  21.487
 3787ETHO    O129276   7.040  13.809  21.401
 3787ETHO    C129277   7.084  13.673  21.386
 3787ETHO   H1129278   7.056  13.629  21.288
 3787ETHO   H1329279   7.043  13.616  21.472
 3787ETHO    C229280   7.236  13.656  21.395
 3787ETHO   H2129281   7.257  13.551  21.425
 3787ETHO   H2329282   7.284  13.715  21.475
 3788ETHO    O129283   7.294  13.685  21.264
 3788ETHO    C129284   7.440  13.718  21.267
 3788ETHO   H1129285   7.457  13.791  21.349
 3788ETHO   H1329286   7.499  13.630  21.299
 3788ETHO    C229287   7.480  13.782  21.134
 3788ETHO   H2129288   7.573  13.841  21.148
 3788ETHO   H2329289   7.399  13.851  21.102
 3789ETHO    O129290   7.504  13.699  21.024
 3789ETHO    C129291   7.518  13.769  20.904
 3789ETHO   H1129292   7.426  13.820  20.867
 3789ETHO   H1329293   7.599  13.843  20.922
 3789ETHO    C229294   7.573  13.667  20.809
 3789ETHO   H2129295   7.574  13.721  20.711
 3789ETHO   H2329296   7.506  13.579  20.810
 3790ETHO    O129297   7.710  13.625  20.842
 3790ETHO    C129298   7.810  13.671  20.747
 3790ETHO   H1129299   7.771  13.658  20.644
 3790ETHO   H1329300   7.818  13.781  20.758
 3790ETHO    C229301   7.943  13.609  20.771
 3790ETHO   H2129302   7.928  13.499  20.769
 3790ETHO   H2329303   7.976  13.628  20.875
 3791ETHO    O129304   8.045  13.654  20.686
 3791ETHO    C129305   8.044  13.587  20.557
 3791ETHO   H1129306   8.085  13.485  20.567
 3791ETHO   H1329307   7.941  13.569  20.519
 3791ETHO    C229308   8.113  13.660  20.447
 3791ETHO   H2129309   8.055  13.625  20.359
 3791ETHO   H2329310   8.093  13.769  20.453
 3792ETHO    O129311   8.252  13.635  20.429
 3792ETHO    C129312   8.306  13.695  20.310
 3792ETHO   H1129313   8.313  13.804  20.327
 3792ETHO   H1329314   8.241  13.676  20.222
 3792ETHO    C229315   8.451  13.648  20.287
 3792ETHO   H2129316   8.502  13.628  20.383
 3792ETHO   H2329317   8.506  13.727  20.231
 3793ETHO    O129318   8.442  13.532  20.202
 3793ETHO    C129319   8.561  13.513  20.127
 3793ETHO   H1129320   8.650  13.538  20.189
 3793ETHO   H1329321   8.562  13.405  20.102
 3793ETHO    C229322   8.557  13.602  20.001
 3793ETHO   H2129323   8.645  13.595  19.933
 3793ETHO   H2329324   8.550  13.707  20.036
 3794ETHO    O129325   8.438  13.572  19.923
 3794ETHO    C129326   8.392  13.689  19.848
 3794ETHO   H1129327   8.377  13.775  19.917
 3794ETHO   H1329328   8.298  13.662  19.796
 3794ETHO    C229329   8.490  13.718  19.727
 3794ETHO   H2129330   8.591  13.725  19.771
 3794ETHO   H2329331   8.456  13.805  19.667
 3795ETHO    O129332   8.498  13.605  19.627
 3795ETHO    C129333   8.381  13.589  19.548
 3795ETHO   H1129334   8.292  13.551  19.604
 3795ETHO   H1329335   8.355  13.675  19.483
 3795ETHO    C229336   8.413  13.479  19.443
 3795ETHO   H2129337   8.314  13.443  19.409
 3795ETHO   H2329338   8.470  13.397  19.492
 3796ETHO    O129339   8.485  13.521  19.329
 3796ETHO    C129340   8.483  13.422  19.227
 3796ETHO   H1129341   8.375  13.420  19.199
 3796ETHO   H1329342   8.502  13.323  19.274
 3796ETHO    C229343   8.588  13.439  19.115
 3796ETHO   H2129344   8.583  13.539  19.066
 3796ETHO   H2329345   8.575  13.360  19.037
 3797ETHO    O129346   8.725  13.423  19.158
 3797ETHO    C129347   8.825  13.404  19.065
 3797ETHO   H1129348   8.912  13.378  19.129
 3797ETHO   H1329349   8.795  13.321  18.998
 3797ETHO    C229350   8.871  13.518  18.976
 3797ETHO   H2129351   8.863  13.617  19.026
 3797ETHO   H2329352   8.799  13.531  18.891
 3798ETHO    O129353   9.002  13.503  18.927
 3798ETHO    C129354   9.050  13.614  18.858
 3798ETHO   H1129355   9.047  13.707  18.920
 3798ETHO   H1329356   8.975  13.645  18.783
 3798ETHO    C229357   9.189  13.599  18.784
 3798ETHO   H2129358   9.271  13.546  18.836
 3798ETHO   H2329359   9.214  13.705  18.760
 3799ETHO    O129360   9.182  13.540  18.659
 3799ETHO    C129361   9.279  13.582  18.566
 3799ETHO   H1129362   9.271  13.692  18.548
 3799ETHO   H1329363   9.386  13.573  18.594
 3799ETHO    C229364   9.252  13.523  18.434
 3799ETHO   H2129365   9.316  13.569  18.356
 3799ETHO   H2329366   9.144  13.550  18.423
 3800ETHO    O129367   9.270  13.388  18.420
 3800ETHO    C129368   9.240  13.342  18.287
 3800ETHO   H1129369   9.132  13.365  18.275
 3800ETHO   H1329370   9.308  13.401  18.221
 3800ETHO    C229371   9.274  13.189  18.278
 3800ETHO   H2129372   9.212  13.151  18.194
 3800ETHO   H2329373   9.233  13.143  18.370
 3801ETHO    O129374   9.415  13.155  18.256
 3801ETHO    C129375   9.447  13.017  18.271
 3801ETHO   H1129376   9.473  13.002  18.378
 3801ETHO   H1329377   9.361  12.951  18.247
 3801ETHO    C229378   9.571  12.977  18.194
 3801ETHO   H2129379   9.596  12.875  18.230
 3801ETHO   H2329380   9.666  13.034  18.210
 3802ETHO    O129381   9.543  12.964  18.061
 3802ETHO    C129382   9.666  12.939  17.994
 3802ETHO   H1129383   9.733  13.027  17.986
 3802ETHO   H1329384   9.718  12.847  18.030
 3802ETHO    C229385   9.631  12.902  17.845
 3802ETHO   H2129386   9.556  12.821  17.858
 3802ETHO   H2329387   9.726  12.873  17.796
 3803ETHO    O129388   9.567  13.003  17.767
 3803ETHO    C129389   9.635  13.119  17.741
 3803ETHO   H1129390   9.652  13.181  17.832
 3803ETHO   H1329391   9.566  13.179  17.679
 3803ETHO    C229392   9.768  13.111  17.657
 3803ETHO   H2129393   9.831  13.023  17.683
 3803ETHO   H2329394   9.822  13.206  17.676
 3804ETHO    O129395   9.738  13.109  17.518
 3804ETHO    C129396   9.864  13.071  17.449
 3804ETHO   H1129397   9.952  13.124  17.492
 3804ETHO   H1329398   9.873  12.961  17.462
 3804ETHO    C229399   9.866  13.106  17.299
 3804ETHO   H2129400   9.970  13.118  17.261
 3804ETHO   H2329401   9.827  13.210  17.299
 3805ETHO    O129402   9.795  13.030  17.206
 3805ETHO    C129403   9.838  12.899  17.185
 3805ETHO   H1129404   9.749  12.846  17.144
 3805ETHO   H1329405   9.875  12.846  17.275
 3805ETHO    C229406   9.947  12.886  17.073
 3805ETHO   H2129407   9.927  12.966  16.998
 3805ETHO   H2329408   9.932  12.791  17.018
 3806ETHO    O129409  10.084  12.896  17.115
 3806ETHO    C129410  10.146  12.776  17.159
 3806ETHO   H1129411  10.097  12.736  17.250
 3806ETHO   H1329412  10.129  12.703  17.077
 3806ETHO    C229413  10.297  12.788  17.165
 3806ETHO   H2129414  10.337  12.688  17.194
 3806ETHO   H2329415  10.321  12.856  17.250
 3807ETHO    O129416  10.376  12.826  17.052
 3807ETHO    C129417  10.393  12.722  16.959
 3807ETHO   H1129418  10.298  12.694  16.909
 3807ETHO   H1329419  10.422  12.624  17.003
 3807ETHO    C229420  10.512  12.769  16.869
 3807ETHO   H2129421  10.471  12.866  16.832
 3807ETHO   H2329422  10.527  12.716  16.772
 3808ETHO    O129423  10.638  12.754  16.935
 3808ETHO    C129424  10.724  12.866  16.905
 3808ETHO   H1129425  10.677  12.966  16.920
 3808ETHO   H1329426  10.801  12.856  16.985
 3808ETHO    C229427  10.781  12.866  16.769
 3808ETHO   H2129428  10.809  12.762  16.741
 3808ETHO   H2329429  10.876  12.922  16.771
 3809ETHO    O129430  10.688  12.923  16.673
 3809ETHO    C129431  10.701  12.858  16.546
 3809ETHO   H1129432  10.619  12.896  16.480
 3809ETHO   H1329433  10.673  12.752  16.564
 3809ETHO    C229434  10.836  12.878  16.480
 3809ETHO   H2129435  10.866  12.984  16.495
 3809ETHO   H2329436  10.834  12.857  16.371
 3810ETHO    O129437  10.937  12.790  16.531
 3810ETHO    C129438  11.067  12.818  16.463
 3810ETHO   H1129439  11.091  12.926  16.475
 3810ETHO   H1329440  11.144  12.763  16.521
 3810ETHO    C229441  11.074  12.767  16.319
 3810ETHO   H2129442  11.030  12.666  16.308
 3810ETHO   H2329443  11.182  12.762  16.295
 3811PROX    O129444  11.015  12.860  16.230
 3811PROX    C129445  10.968  12.793  16.115
 3811PROX   H1129446  11.045  12.735  16.059
 3811PROX   H1329447  10.891  12.727  16.160
 3811PROX    C229448  10.914  12.899  16.022
 3811PROX   H2129449  10.994  12.973  16.001
 3811PROX    C329450  10.791  12.988  16.079
 3811PROX   H3129451  10.752  13.068  16.013
 3811PROX   H3229452  10.708  12.921  16.112
 3811PROX   H3329453  10.837  13.034  16.169
 3812PROX    O129454  10.853  12.835  15.911
 3812PROX    C129455  10.954  12.795  15.819
 3812PROX   H1129456  11.014  12.886  15.798
 3812PROX   H1329457  11.022  12.721  15.866
 3812PROX    C229458  10.893  12.741  15.693
 3812PROX   H2129459  10.835  12.652  15.726
 3812PROX    C329460  10.997  12.708  15.597
 3812PROX   H3129461  11.084  12.653  15.638
 3812PROX   H3229462  10.961  12.646  15.513
 3812PROX   H3329463  11.039  12.805  15.561
 3813PROX    O129464  10.804  12.829  15.635
 3813PROX    C129465  10.705  12.754  15.557
 3813PROX   H1129466  10.755  12.689  15.483
 3813PROX   H1329467  10.646  12.684  15.620
 3813PROX    C229468  10.607  12.847  15.483
 3813PROX   H2129469  10.645  12.898  15.392
 3813PROX    C329470  10.552  12.946  15.585
 3813PROX   H3129471  10.632  13.021  15.603
 3813PROX   H3229472  10.471  13.014  15.551
 3813PROX   H3329473  10.510  12.895  15.674
 3814PROX    O129474  10.488  12.766  15.446
 3814PROX    C129475  10.517  12.675  15.335
 3814PROX   H1129476  10.552  12.736  15.249
 3814PROX   H1329477  10.597  12.606  15.368
 3814PROX    C229478  10.394  12.593  15.285
 3814PROX   H2129479  10.346  12.540  15.369
 3814PROX    C329480  10.438  12.485  15.177
 3814PROX   H3129481  10.523  12.421  15.211
 3814PROX   H3229482  10.362  12.410  15.145
 3814PROX   H3329483  10.466  12.534  15.081
 3815PROX    O129484  10.296  12.684  15.225
 3815PROX    C129485  10.165  12.628  15.221
 3815PROX   H1129486  10.172  12.548  15.144
 3815PROX   H1329487  10.156  12.583  15.322
 3815PROX    C229488  10.047  12.735  15.186
 3815PROX   H2129489  10.055  12.822  15.254
 3815PROX    C329490   9.923  12.660  15.221
 3815PROX   H3129491   9.924  12.639  15.330
 3815PROX   H3229492   9.824  12.702  15.193
 3815PROX   H3329493   9.917  12.561  15.171
 3816PROX    O129494  10.048  12.762  15.048
 3816PROX    C129495  10.169  12.817  15.002
 3816PROX   H1129496  10.258  12.751  15.006
 3816PROX   H1329497  10.145  12.828  14.894
 3816PROX    C229498  10.198  12.953  15.050
 3816PROX   H2129499  10.209  12.955  15.161
 3816PROX    C329500  10.088  13.055  15.012
 3816PROX   H3129501  10.098  13.067  14.902
 3816PROX   H3229502   9.982  13.032  15.040
 3816PROX   H3329503  10.119  13.146  15.067
 3817PROX    O129504  10.321  12.983  14.990
 3817PROX    C129505  10.437  12.981  15.078
 3817PROX   H1129506  10.446  13.084  15.119
 3817PROX   H1329507  10.426  12.925  15.173
 3817PROX    C229508  10.569  12.941  15.005
 3817PROX   H2129509  10.587  13.020  14.929
 3817PROX    C329510  10.563  12.795  14.945
 3817PROX   H3129511  10.652  12.771  14.882
 3817PROX   H3229512  10.557  12.721  15.027
 3817PROX   H3329513  10.474  12.783  14.879
 3818PROX    O129514  10.683  12.938  15.087
 3818PROX    C129515  10.727  13.065  15.129
 3818PROX   H1129516  10.713  13.135  15.044
 3818PROX   H1329517  10.671  13.113  15.212
 3818PROX    C229518  10.878  13.066  15.165
 3818PROX   H2129519  10.933  13.021  15.079
 3818PROX    C329520  10.905  12.967  15.280
 3818PROX   H3129521  11.008  12.926  15.290
 3818PROX   H3229522  10.872  13.016  15.375
 3818PROX   H3329523  10.835  12.884  15.257
 3819PROX    O129524  10.931  13.198  15.175
 3819PROX    C129525  11.071  13.202  15.181
 3819PROX   H1129526  11.090  13.255  15.277
 3819PROX   H1329527  11.130  13.109  15.195
 3819PROX    C229528  11.139  13.285  15.063
 3819PROX   H2129529  11.058  13.343  15.014
 3819PROX    C329530  11.201  13.181  14.964
 3819PROX   H3129531  11.265  13.106  15.015
 3819PROX   H3229532  11.127  13.133  14.897
 3819PROX   H3329533  11.266  13.245  14.900
 3820PROX    O129534  11.239  13.368  15.120
 3820PROX    C129535  11.182  13.499  15.163
 3820PROX   H1129536  11.094  13.483  15.229
 3820PROX   H1329537  11.264  13.545  15.221
 3820PROX    C229538  11.154  13.598  15.052
 3820PROX   H2129539  11.102  13.544  14.970
 3820PROX    C329540  11.284  13.663  14.989
 3820PROX   H3129541  11.268  13.710  14.890
 3820PROX   H3229542  11.316  13.748  15.053
 3820PROX   H3329543  11.366  13.588  14.980
 3821PROX    O129544  11.065  13.694  15.099
 3821PROX    C129545  10.927  13.652  15.081
 3821PROX   H1129546  10.903  13.548  15.112
 3821PROX   H1329547  10.884  13.715  15.162
 3821PROX    C229548  10.873  13.686  14.940
 3821PROX   H2129549  10.945  13.657  14.860
 3821PROX    C329550  10.849  13.830  14.924
 3821PROX   H3129551  10.798  13.856  14.829
 3821PROX   H3229552  10.785  13.864  15.009
 3821PROX   H3329553  10.944  13.887  14.932
 3822PROX    O129554  10.758  13.607  14.902
 3822PROX    C129555  10.802  13.484  14.845
 3822PROX   H1129556  10.861  13.487  14.751
 3822PROX   H1329557  10.857  13.433  14.926
 3822PROX    C229558  10.676  13.396  14.822
 3822PROX   H2129559  10.623  13.430  14.730
 3822PROX    C329560  10.581  13.396  14.946
 3822PROX   H3129561  10.521  13.302  14.947
 3822PROX   H3229562  10.643  13.395  15.038
 3822PROX   H3329563  10.520  13.489  14.949
 3823PROX    O129564  10.713  13.257  14.801
 3823PROX    C129565  10.779  13.235  14.680
 3823PROX   H1129566  10.737  13.301  14.602
 3823PROX   H1329567  10.887  13.257  14.697
 3823PROX    C229568  10.780  13.091  14.637
 3823PROX   H2129569  10.676  13.054  14.627
 3823PROX    C329570  10.831  12.998  14.752
 3823PROX   H3129571  10.736  12.950  14.782
 3823PROX   H3229572  10.904  12.919  14.722
 3823PROX   H3329573  10.884  13.054  14.832
 3824PROX    O129574  10.835  13.085  14.505
 3824PROX    C129575  10.796  12.962  14.443
 3824PROX   H1129576  10.856  12.882  14.491
 3824PROX   H1329577  10.687  12.957  14.462
 3824PROX    C229578  10.808  12.963  14.291
 3824PROX   H2129579  10.736  13.037  14.251
 3824PROX    C329580  10.792  12.826  14.231
 3824PROX   H3129581  10.806  12.827  14.121
 3824PROX   H3229582  10.860  12.757  14.285
 3824PROX   H3329583  10.692  12.781  14.252
 3825PROX    O129584  10.947  13.005  14.254
 3825PROX    C129585  10.960  13.032  14.114
 3825PROX   H1129586  11.026  12.956  14.066
 3825PROX   H1329587  10.856  13.035  14.074
 3825PROX    C229588  11.022  13.175  14.091
 3825PROX   H2129589  11.128  13.173  14.124
 3825PROX    C329590  10.946  13.281  14.174
 3825PROX   H3129591  10.916  13.369  14.113
 3825PROX   H3229592  10.857  13.234  14.222
 3825PROX   H3329593  11.023  13.304  14.249
 3826PROX    O129594  11.019  13.197  13.951
 3826PROX    C129595  11.093  13.313  13.920
 3826PROX   H1129596  11.046  13.400  13.971
 3826PROX   H1329597  11.194  13.293  13.963
 3826PROX    C229598  11.090  13.348  13.771
 3826PROX   H2129599  11.152  13.438  13.748
 3826PROX    C329600  10.950  13.396  13.731
 3826PROX   H3129601  10.904  13.450  13.817
 3826PROX   H3229602  10.963  13.457  13.639
 3826PROX   H3329603  10.891  13.305  13.707
 3827PROX    O129604  11.124  13.238  13.690
 3827PROX    C129605  11.261  13.191  13.713
 3827PROX   H1129606  11.303  13.195  13.610
 3827PROX   H1329607  11.321  13.254  13.781
 3827PROX    C229608  11.266  13.050  13.770
 3827PROX   H2129609  11.186  13.046  13.847
 3827PROX    C329610  11.409  13.019  13.814
 3827PROX   H3129611  11.416  12.920  13.865
 3827PROX   H3229612  11.468  13.032  13.721
 3827PROX   H3329613  11.453  13.094  13.882
 3828PROX    O129614  11.231  12.945  13.672
 3828PROX    C129615  11.094  12.948  13.642
 3828PROX   H1129616  11.030  12.931  13.731
 3828PROX   H1329617  11.061  13.047  13.604
 3828PROX    C229618  11.057  12.844  13.528
 3828PROX   H2129619  11.126  12.862  13.442
 3828PROX    C329620  10.906  12.853  13.495
 3828PROX   H3129621  10.886  12.784  13.410
 3828PROX   H3229622  10.851  12.820  13.585
 3828PROX   H3329623  10.881  12.959  13.472
 3829PROX    O129624  11.084  12.714  13.579
 3829PROX    C129625  11.070  12.611  13.482
 3829PROX   H1129626  10.963  12.584  13.466
 3829PROX   H1329627  11.097  12.651  13.381
 3829PROX    C229628  11.157  12.489  13.503
 3829PROX   H2129629  11.258  12.533  13.521
 3829PROX    C329630  11.154  12.399  13.383
 3829PROX   H3129631  11.050  12.363  13.369
 3829PROX   H3229632  11.176  12.459  13.292
 3829PROX   H3329633  11.208  12.305  13.406
 3830PROX    O129634  11.112  12.417  13.617
 3830PROX    C129635  11.216  12.374  13.692
 3830PROX   H1129636  11.271  12.301  13.629
 3830PROX   H1329637  11.279  12.459  13.727
 3830PROX    C229638  11.168  12.293  13.810
 3830PROX   H2129639  11.259  12.255  13.862
 3830PROX    C329640  11.083  12.175  13.760
 3830PROX   H3129641  10.982  12.210  13.728
 3830PROX   H3229642  11.122  12.108  13.681
 3830PROX   H3329643  11.062  12.100  13.839
 3831PROX    O129644  11.102  12.373  13.906
 3831PROX    C129645  11.078  12.310  14.034
 3831PROX   H1129646  11.067  12.200  14.019
 3831PROX   H1329647  11.167  12.334  14.096
 3831PROX    C229648  10.945  12.368  14.099
 3831PROX   H2129649  10.858  12.364  14.030
 3831PROX    C329650  10.956  12.520  14.115
 3831PROX   H3129651  10.882  12.553  14.191
 3831PROX   H3229652  11.057  12.547  14.154
 3831PROX   H3329653  10.952  12.578  14.020
 3832PROX    O129654  10.917  12.301  14.218
 3832PROX    C129655  10.867  12.169  14.201
 3832PROX   H1129656  10.832  12.145  14.098
 3832PROX   H1329657  10.954  12.103  14.219
 3832PROX    C229658  10.752  12.155  14.308
 3832PROX   H2129659  10.790  12.172  14.411
 3832PROX    C329660  10.685  12.017  14.300
 3832PROX   H3129661  10.594  12.004  14.362
 3832PROX   H3229662  10.670  11.992  14.193
 3832PROX   H3329663  10.757  11.944  14.343
 3833PROX    O129664  10.640  12.238  14.274
 3833PROX    C129665  10.604  12.340  14.367
 3833PROX   H1129666  10.571  12.286  14.459
 3833PROX   H1329667  10.691  12.409  14.376
 3833PROX    C229668  10.485  12.428  14.322
 3833PROX   H2129669  10.394  12.365  14.333
 3833PROX    C329670  10.504  12.510  14.180
 3833PROX   H3129671  10.544  12.440  14.104
 3833PROX   H3229672  10.407  12.549  14.143
 3833PROX   H3329673  10.587  12.582  14.195
 3834PROX    O129674  10.474  12.526  14.425
 3834PROX    C129675  10.400  12.482  14.539
 3834PROX   H1129676  10.308  12.431  14.503
 3834PROX   H1329677  10.466  12.419  14.601
 3834PROX    C229678  10.365  12.598  14.635
 3834PROX   H2129679  10.453  12.662  14.658
 3834PROX    C329680  10.311  12.545  14.770
 3834PROX   H3129681  10.395  12.493  14.822
 3834PROX   H3229682  10.287  12.633  14.834
 3834PROX   H3329683  10.214  12.494  14.749
 3835PROX    O129684  10.259  12.676  14.579
 3835PROX    C129685  10.253  12.811  14.626
 3835PROX   H1129686  10.148  12.823  14.661
 3835PROX   H1329687  10.326  12.827  14.708
 3835PROX    C229688  10.284  12.918  14.517
 3835PROX   H2129689  10.195  12.953  14.461
 3835PROX    C329690  10.377  12.865  14.417
 3835PROX   H3129691  10.469  12.822  14.463
 3835PROX   H3229692  10.333  12.780  14.361
 3835PROX   H3329693  10.395  12.941  14.338
 3836PROX    O129694  10.357  13.024  14.570
 3836PROX    C129695  10.272  13.112  14.646
 3836PROX   H1129696  10.173  13.129  14.601
 3836PROX   H1329697  10.251  13.065  14.744
 3836PROX    C229698  10.346  13.242  14.672
 3836PROX   H2129699  10.445  13.207  14.709
 3836PROX    C329700  10.277  13.318  14.789
 3836PROX   H3129701  10.185  13.361  14.744
 3836PROX   H3229702  10.249  13.250  14.872
 3836PROX   H3329703  10.349  13.393  14.830
 3837PROX    O129704  10.369  13.336  14.566
 3837PROX    C129705  10.426  13.290  14.445
 3837PROX   H1129706  10.490  13.199  14.454
 3837PROX   H1329707  10.350  13.237  14.383
 3837PROX    C229708  10.499  13.393  14.354
 3837PROX   H2129709  10.441  13.488  14.352
 3837PROX    C329710  10.519  13.335  14.213
 3837PROX   H3129711  10.570  13.237  14.219
 3837PROX   H3229712  10.425  13.328  14.154
 3837PROX   H3329713  10.578  13.403  14.148
 3838PROX    O129714  10.621  13.429  14.420
 3838PROX    C129715  10.700  13.527  14.353
 3838PROX   H1129716  10.776  13.471  14.295
 3838PROX   H1329717  10.643  13.586  14.278
 3838PROX    C229718  10.773  13.611  14.464
 3838PROX   H2129719  10.812  13.531  14.530
 3838PROX    C329720  10.680  13.709  14.534
 3838PROX   H3129721  10.632  13.779  14.462
 3838PROX   H3229722  10.603  13.653  14.590
 3838PROX   H3329723  10.739  13.758  14.614
 3839PROX    O129724  10.882  13.688  14.403
 3839PROX    C129725  10.987  13.702  14.501
 3839PROX   H1129726  10.988  13.804  14.543
 3839PROX   H1329727  10.981  13.629  14.585
 3839PROX    C229728  11.132  13.682  14.443
 3839PROX   H2129729  11.135  13.752  14.357
 3839PROX    C329730  11.153  13.536  14.392
 3839PROX   H3129731  11.142  13.469  14.480
 3839PROX   H3229732  11.083  13.513  14.308
 3839PROX   H3329733  11.258  13.525  14.357
 3840PROX    O129734  11.221  13.718  14.544
 3840PROX    C129735  11.342  13.767  14.495
 3840PROX   H1129736  11.382  13.699  14.417
 3840PROX   H1329737  11.339  13.870  14.453
 3840PROX    C229738  11.439  13.770  14.613
 3840PROX   H2129739  11.435  13.670  14.662
 3840PROX    C329740  11.413  13.883  14.706
 3840PROX   H3129741  11.436  13.971  14.642
 3840PROX   H3229742  11.309  13.875  14.744
 3840PROX   H3329743  11.490  13.876  14.785
 3841PROX    O129744  11.573  13.784  14.575
 3841PROX    C129745  11.646  13.666  14.600
 3841PROX   H1129746  11.753  13.697  14.611
 3841PROX   H1329747  11.614  13.626  14.699
 3841PROX    C229748  11.637  13.571  14.480
 3841PROX   H2129749  11.602  13.630  14.393
 3841PROX    C329750  11.551  13.442  14.501
 3841PROX   H3129751  11.571  13.413  14.607
 3841PROX   H3229752  11.444  13.471  14.506
 3841PROX   H3329753  11.569  13.357  14.432
 3842PROX    O129754  11.765  13.532  14.435
 3842PROX    C129755  11.769  13.502  14.294
 3842PROX   H1129756  11.678  13.445  14.266
 3842PROX   H1329757  11.750  13.594  14.235
 3842PROX    C229758  11.898  13.432  14.254
 3842PROX   H2129759  11.906  13.343  14.320
 3842PROX    C329760  12.023  13.517  14.268
 3842PROX   H3129761  12.116  13.460  14.244
 3842PROX   H3229762  12.008  13.606  14.203
 3842PROX   H3329763  12.037  13.553  14.372
 3843PROX    O129764  11.898  13.382  14.123
 3843PROX    C129765  11.833  13.258  14.103
 3843PROX   H1129766  11.899  13.178  14.143
 3843PROX   H1329767  11.748  13.247  14.172
 3843PROX    C229768  11.806  13.225  13.959
 3843PROX   H2129769  11.881  13.282  13.902
 3843PROX    C329770  11.667  13.278  13.916
 3843PROX   H3129771  11.588  13.216  13.963
 3843PROX   H3229772  11.658  13.388  13.921
 3843PROX   H3329773  11.663  13.262  13.806
 3844PROX    O129774  11.818  13.077  13.955
 3844PROX    C129775  11.859  13.046  13.819
 3844PROX   H1129776  11.798  13.100  13.743
 3844PROX   H1329777  11.965  13.077  13.802
 3844PROX    C229778  11.844  12.904  13.780
 3844PROX   H2129779  11.896  12.883  13.684
 3844PROX    C329780  11.702  12.864  13.772
 3844PROX   H3129781  11.693  12.755  13.755
 3844PROX   H3229782  11.651  12.885  13.869
 3844PROX   H3329783  11.653  12.923  13.691
 3845PROX    O129784  11.889  12.812  13.876
 3845PROX    C129785  12.017  12.759  13.834
 3845PROX   H1129786  11.995  12.701  13.742
 3845PROX   H1329787  12.079  12.848  13.811
 3845PROX    C229788  12.085  12.669  13.939
 3845PROX   H2129789  12.094  12.733  14.029
 3845PROX    C329790  12.222  12.614  13.898
 3845PROX   H3129791  12.296  12.686  13.857
 3845PROX   H3229792  12.275  12.575  13.987
 3845PROX   H3329793  12.198  12.539  13.820
 3846PROX    O129794  11.997  12.560  13.976
 3846PROX    C129795  11.913  12.590  14.082
 3846PROX   H1129796  11.974  12.600  14.174
 3846PROX   H1329797  11.852  12.682  14.068
 3846PROX    C229798  11.819  12.472  14.104
 3846PROX   H2129799  11.797  12.467  14.213
 3846PROX    C329800  11.878  12.337  14.066
 3846PROX   H3129801  11.813  12.251  14.093
 3846PROX   H3229802  11.897  12.332  13.956
 3846PROX   H3329803  11.977  12.324  14.114
 3847PROX    O129804  11.689  12.488  14.037
 3847PROX    C129805  11.691  12.505  13.899
 3847PROX   H1129806  11.728  12.608  13.879
 3847PROX   H1329807  11.756  12.432  13.846
 3847PROX    C229808  11.552  12.493  13.826
 3847PROX   H2129809  11.505  12.396  13.854
 3847PROX    C329810  11.586  12.492  13.674
 3847PROX   H3129811  11.493  12.502  13.614
 3847PROX   H3229812  11.653  12.577  13.651
 3847PROX   H3329813  11.640  12.399  13.645
 3848PROX    O129814  11.464  12.605  13.867
 3848PROX    C129815  11.392  12.582  13.989
 3848PROX   H1129816  11.324  12.500  13.958
 3848PROX   H1329817  11.450  12.525  14.065
 3848PROX    C229818  11.312  12.700  14.056
 3848PROX   H2129819  11.266  12.667  14.152
 3848PROX    C329820  11.214  12.763  13.958
 3848PROX   H3129821  11.239  12.747  13.851
 3848PROX   H3229822  11.110  12.725  13.967
 3848PROX   H3329823  11.219  12.873  13.971
 3849PROX    O129824  11.404  12.806  14.097
 3849PROX    C129825  11.513  12.749  14.173
 3849PROX   H1129826  11.474  12.669  14.239
 3849PROX   H1329827  11.588  12.715  14.099
 3849PROX    C229828  11.578  12.852  14.260
 3849PROX   H2129829  11.506  12.880  14.340
 3849PROX    C329830  11.602  12.989  14.188
 3849PROX   H3129831  11.682  12.975  14.112
 3849PROX   H3229832  11.501  13.015  14.150
 3849PROX   H3329833  11.627  13.072  14.257
 3850PROX    O129834  11.693  12.788  14.318
 3850PROX    C129835  11.660  12.686  14.413
 3850PROX   H1129836  11.574  12.720  14.475
 3850PROX   H1329837  11.634  12.594  14.357
 3850PROX    C229838  11.770  12.664  14.513
 3850PROX   H2129839  11.800  12.766  14.545
 3850PROX    C329840  11.898  12.592  14.466
 3850PROX   H3129841  11.889  12.486  14.434
 3850PROX   H3229842  11.952  12.642  14.383
 3850PROX   H3329843  11.970  12.599  14.550
 3851PROX    O129844  11.713  12.596  14.622
 3851PROX    C129845  11.768  12.640  14.740
 3851PROX   H1129846  11.789  12.563  14.818
 3851PROX   H1329847  11.866  12.687  14.720
 3851PROX    C229848  11.669  12.743  14.802
 3851PROX   H2129849  11.703  12.767  14.905
 3851PROX    C329850  11.530  12.674  14.817
 3851PROX   H3129851  11.553  12.583  14.876
 3851PROX   H3229852  11.452  12.733  14.869
 3851PROX   H3329853  11.485  12.657  14.717
 3852PROX    O129854  11.660  12.855  14.722
 3852PROX    C129855  11.773  12.949  14.749
 3852PROX   H1129856  11.778  12.968  14.858
 3852PROX   H1329857  11.874  12.916  14.718
 3852PROX    C229858  11.757  13.077  14.672
 3852PROX   H2129859  11.661  13.130  14.694
 3852PROX    C329860  11.765  13.058  14.515
 3852PROX   H3129861  11.850  12.990  14.492
 3852PROX   H3229862  11.672  13.006  14.481
 3852PROX   H3329863  11.774  13.154  14.460
 3853PROX    O129864  11.868  13.158  14.696
 3853PROX    C129865  11.872  13.298  14.687
 3853PROX   H1129866  11.800  13.325  14.607
 3853PROX   H1329867  11.832  13.339  14.782
 3853PROX    C229868  12.019  13.359  14.660
 3853PROX   H2129869  12.093  13.320  14.734
 3853PROX    C329870  12.008  13.505  14.680
 3853PROX   H3129871  11.973  13.562  14.591
 3853PROX   H3229872  11.958  13.522  14.777
 3853PROX   H3329873  12.115  13.529  14.698
 3854PROX    O129874  12.065  13.324  14.531
 3854PROX    C129875  12.114  13.192  14.514
 3854PROX   H1129876  12.028  13.127  14.487
 3854PROX   H1329877  12.178  13.203  14.423
 3854PROX    C229878  12.205  13.130  14.627
 3854PROX   H2129879  12.149  13.132  14.723
 3854PROX    C329880  12.338  13.211  14.639
 3854PROX   H3129881  12.314  13.319  14.641
 3854PROX   H3229882  12.389  13.181  14.733
 3854PROX   H3329883  12.404  13.178  14.556
 3855PROX    O129884  12.250  12.997  14.595
 3855PROX    C129885  12.156  12.895  14.638
 3855PROX   H1129886  12.048  12.922  14.628
 3855PROX   H1329887  12.171  12.798  14.587
 3855PROX    C229888  12.173  12.872  14.790
 3855PROX   H2129889  12.281  12.893  14.805
 3855PROX    C329890  12.144  12.723  14.835
 3855PROX   H3129891  12.187  12.714  14.937
 3855PROX   H3229892  12.036  12.711  14.856
 3855PROX   H3329893  12.185  12.640  14.774
 3856PROX    O129894  12.088  12.962  14.862
 3856PROX    C129895  12.094  12.947  15.002
 3856PROX   H1129896  12.039  12.859  15.040
 3856PROX   H1329897  12.198  12.928  15.037
 3856PROX    C229898  12.036  13.076  15.077
 3856PROX   H2129899  11.951  13.121  15.021
 3856PROX    C329900  12.137  13.181  15.104
 3856PROX   H3129901  12.146  13.244  15.013
 3856PROX   H3229902  12.107  13.241  15.193
 3856PROX   H3329903  12.231  13.130  15.134
 3857PROX    O129904  11.978  13.039  15.207
 3857PROX    C129905  12.074  12.978  15.302
 3857PROX   H1129906  12.148  12.906  15.261
 3857PROX   H1329907  12.127  13.067  15.343
 3857PROX    C229908  12.001  12.908  15.415
 3857PROX   H2129909  11.925  12.979  15.455
 3857PROX    C329910  12.097  12.885  15.539
 3857PROX   H3129911  12.180  12.814  15.517
 3857PROX   H3229912  12.145  12.980  15.569
 3857PROX   H3329913  12.041  12.857  15.631
 3858PROX    O129914  11.943  12.779  15.379
 3858PROX    C129915  11.863  12.723  15.476
 3858PROX   H1129916  11.929  12.649  15.526
 3858PROX   H1329917  11.821  12.796  15.548
 3858PROX    C229918  11.748  12.640  15.413
 3858PROX   H2129919  11.683  12.715  15.363
 3858PROX    C329920  11.668  12.569  15.522
 3858PROX   H3129921  11.721  12.474  15.545
 3858PROX   H3229922  11.657  12.624  15.618
 3858PROX   H3329923  11.561  12.552  15.495
 3859PROX    O129924  11.807  12.552  15.316
 3859PROX    C129925  11.715  12.490  15.227
 3859PROX   H1129926  11.656  12.411  15.279
 3859PROX   H1329927  11.640  12.564  15.192
 3859PROX    C229928  11.785  12.429  15.107
 3859PROX   H2129929  11.833  12.333  15.137
 3859PROX    C329930  11.903  12.519  15.066
 3859PROX   H3129931  11.875  12.620  15.028
 3859PROX   H3229932  11.971  12.536  15.153
 3859PROX   H3329933  11.971  12.477  14.990
 3860PROX    O129934  11.687  12.402  15.007
 3860PROX    C129935  11.718  12.292  14.922
 3860PROX   H1129936  11.819  12.304  14.877
 3860PROX   H1329937  11.722  12.194  14.973
 3860PROX    C229938  11.630  12.287  14.796
 3860PROX   H2129939  11.616  12.392  14.762
 3860PROX    C329940  11.494  12.231  14.834
 3860PROX   H3129941  11.448  12.288  14.917
 3860PROX   H3229942  11.427  12.241  14.746
 3860PROX   H3329943  11.503  12.126  14.870
 3861PROX    O129944  11.687  12.204  14.699
 3861PROX    C129945  11.661  12.247  14.557
 3861PROX   H1129946  11.551  12.256  14.547
 3861PROX   H1329947  11.701  12.348  14.535
 3861PROX    C229948  11.719  12.141  14.462
 3861PROX   H2129949  11.702  12.040  14.505
 3861PROX    C329950  11.873  12.169  14.438
 3861PROX   H3129951  11.929  12.170  14.533
 3861PROX   H3229952  11.915  12.092  14.370
 3861PROX   H3329953  11.889  12.266  14.386
 3862PROX    O129954  11.658  12.158  14.338
 3862PROX    C129955  11.530  12.095  14.325
 3862PROX   H1129956  11.551  11.999  14.273
 3862PROX   H1329957  11.485  12.073  14.424
 3862PROX    C229958  11.435  12.174  14.219
 3862PROX   H2129959  11.342  12.112  14.213
 3862PROX    C329960  11.509  12.199  14.085
 3862PROX   H3129961  11.556  12.100  14.068
 3862PROX   H3229962  11.447  12.236  14.001
 3862PROX   H3329963  11.586  12.278  14.105
 3863PROX    O129964  11.395  12.298  14.273
 3863PROX    C129965  11.285  12.286  14.359
 3863PROX   H1129966  11.198  12.244  14.305
 3863PROX   H1329967  11.297  12.221  14.448
 3863PROX    C229968  11.247  12.421  14.413
 3863PROX   H2129969  11.241  12.483  14.321
 3863PROX    C329970  11.349  12.482  14.512
 3863PROX   H3129971  11.336  12.593  14.515
 3863PROX   H3229972  11.326  12.439  14.611
 3863PROX   H3329973  11.455  12.457  14.489
 3864PROX    O129974  11.122  12.399  14.470
 3864PROX    C129975  11.048  12.515  14.495
 3864PROX   H1129976  11.110  12.589  14.550
 3864PROX   H1329977  11.026  12.561  14.396
 3864PROX    C229978  10.919  12.488  14.571
 3864PROX   H2129979  10.859  12.414  14.515
 3864PROX    C329980  10.834  12.611  14.590
 3864PROX   H3129981  10.794  12.662  14.500
 3864PROX   H3229982  10.745  12.584  14.650
 3864PROX   H3329983  10.886  12.690  14.648
 3865PROX    O129984  10.955  12.446  14.706
 3865PROX    C129985  10.932  12.306  14.726
 3865PROX   H1129986  10.825  12.275  14.721
 3865PROX   H1329987  10.975  12.252  14.639
 3865PROX    C229988  10.985  12.262  14.857
 3865PROX   H2129989  10.988  12.344  14.932
 3865PROX    C329990  11.132  12.233  14.817
 3865PROX   H3129991  11.179  12.330  14.788
 3865PROX   H3229992  11.194  12.190  14.898
 3865PROX   H3329993  11.130  12.161  14.733
 3866PROX    O129994  10.922  12.147  14.912
 3866PROX    C129995  10.805  12.182  14.982
 3866PROX   H1129996  10.826  12.271  15.045
 3866PROX   H1329997  10.736  12.223  14.905
 3866PROX    C229998  10.720  12.068  15.045
 3866PROX   H2129999  10.703  12.002  14.957
 3866PROX    C330000  10.583  12.109  15.105
 3866PROX   H3130001  10.539  12.203  15.065
 3866PROX   H3230002  10.514  12.023  15.108
 3866PROX   H3330003  10.601  12.131  15.212
 3867PROX    O130004  10.802  11.987  15.128
 3867PROX    C130005  10.859  12.044  15.243
 3867PROX   H1130006  10.857  12.155  15.241
 3867PROX   H1330007  10.812  12.015  15.339
 3867PROX    C230008  11.011  12.017  15.255
 3867PROX   H2130009  11.059  12.038  15.157
 3867PROX    C330010  11.033  11.872  15.302
 3867PROX   H3130011  10.977  11.804  15.235
 3867PROX   H3230012  11.139  11.844  15.286
 3867PROX   H3330013  10.997  11.850  15.405
 3868PROX    O130014  11.085  12.109  15.344
 3868PROX    C130015  11.230  12.118  15.332
 3868PROX   H1130016  11.280  12.021  15.350
 3868PROX   H1330017  11.242  12.147  15.225
 3868PROX    C230018  11.283  12.247  15.405
 3868PROX   H2130019  11.394  12.250  15.391
 3868PROX    C330020  11.275  12.242  15.555
 3868PROX   H3130021  11.344  12.163  15.592
 3868PROX   H3230022  11.303  12.337  15.605
 3868PROX   H3330023  11.175  12.224  15.600
 3869PROX    O130024  11.217  12.361  15.367
 3869PROX    C130025  11.300  12.477  15.376
 3869PROX   H1130026  11.254  12.533  15.460
 3869PROX   H1330027  11.407  12.466  15.406
 3869PROX    C230028  11.296  12.577  15.265
 3869PROX   H2130029  11.195  12.622  15.255
 3869PROX    C330030  11.337  12.520  15.130
 3869PROX   H3130031  11.270  12.436  15.100
 3869PROX   H3230032  11.330  12.595  15.049
 3869PROX   H3330033  11.443  12.488  15.124
 3870PROX    O130034  11.390  12.673  15.306
 3870PROX    C130035  11.380  12.798  15.241
 3870PROX   H1130036  11.443  12.791  15.150
 3870PROX   H1330037  11.276  12.811  15.204
 3870PROX    C230038  11.408  12.920  15.337
 3870PROX   H2130039  11.506  12.911  15.388
 3870PROX    C330040  11.302  12.939  15.441
 3870PROX   H3130041  11.338  13.035  15.486
 3870PROX   H3230042  11.198  12.950  15.404
 3870PROX   H3330043  11.302  12.861  15.520
 3871PROX    O130044  11.407  13.037  15.258
 3871PROX    C130045  11.525  13.056  15.174
 3871PROX   H1130046  11.616  13.050  15.237
 3871PROX   H1330047  11.515  12.975  15.098
 3871PROX    C230048  11.536  13.193  15.111
 3871PROX   H2130049  11.436  13.237  15.087
 3871PROX    C330050  11.606  13.167  14.975
 3871PROX   H3130051  11.610  13.267  14.928
 3871PROX   H3230052  11.709  13.128  14.987
 3871PROX   H3330053  11.543  13.101  14.912
 3872PROX    O130054  11.625  13.280  15.187
 3872PROX    C130055  11.558  13.340  15.297
 3872PROX   H1130056  11.509  13.436  15.270
 3872PROX   H1330057  11.478  13.279  15.344
 3872PROX    C230058  11.656  13.375  15.408
 3872PROX   H2130059  11.741  13.429  15.361
 3872PROX    C330060  11.725  13.250  15.475
 3872PROX   H3130061  11.798  13.275  15.555
 3872PROX   H3230062  11.659  13.168  15.510
 3872PROX   H3330063  11.791  13.217  15.391
 3873PROX    O130064  11.597  13.467  15.501
 3873PROX    C130065  11.496  13.402  15.583
 3873PROX   H1130066  11.476  13.296  15.557
 3873PROX   H1330067  11.519  13.415  15.691
 3873PROX    C230068  11.366  13.475  15.565
 3873PROX   H2130069  11.344  13.451  15.459
 3873PROX    C330070  11.378  13.624  15.586
 3873PROX   H3130071  11.452  13.638  15.668
 3873PROX   H3230072  11.414  13.666  15.489
 3873PROX   H3330073  11.276  13.658  15.613
 3874PROX    O130074  11.273  13.422  15.656
 3874PROX    C130075  11.226  13.288  15.617
 3874PROX   H1130076  11.254  13.261  15.513
 3874PROX   H1330077  11.261  13.215  15.694
 3874PROX    C230078  11.073  13.273  15.618
 3874PROX   H2130079  11.039  13.316  15.715
 3874PROX    C330080  11.027  13.121  15.602
 3874PROX   H3130081  10.918  13.118  15.582
 3874PROX   H3230082  11.074  13.061  15.520
 3874PROX   H3330083  11.057  13.064  15.693
 3875PROX    O130084  11.014  13.346  15.510
 3875PROX    C130085  10.882  13.386  15.531
 3875PROX   H1130086  10.821  13.293  15.537
 3875PROX   H1330087  10.871  13.436  15.629
 3875PROX    C230088  10.816  13.473  15.421
 3875PROX   H2130089  10.844  13.444  15.318
 3875PROX    C330090  10.861  13.620  15.445
 3875PROX   H3130091  10.800  13.652  15.531
 3875PROX   H3230092  10.970  13.622  15.465
 3875PROX   H3330093  10.853  13.687  15.357
 3876ETHO    O130094  10.669  13.479  15.442
 3876ETHO    C130095  10.601  13.388  15.358
 3876ETHO   H1130096  10.649  13.288  15.362
 3876ETHO   H1330097  10.601  13.438  15.259
 3876ETHO    C230098  10.442  13.369  15.386
 3876ETHO   H2130099  10.397  13.313  15.300
 3876ETHO   H2330100  10.388  13.465  15.375
 3877ETHO    O130101  10.414  13.293  15.495
 3877ETHO    C130102  10.277  13.308  15.533
 3877ETHO   H1130103  10.256  13.400  15.592
 3877ETHO   H1330104  10.210  13.310  15.444
 3877ETHO    C230105  10.235  13.190  15.620
 3877ETHO   H2130106  10.244  13.093  15.566
 3877ETHO   H2330107  10.132  13.214  15.654
 3878ETHO    O130108  10.316  13.198  15.738
 3878ETHO    C130109  10.288  13.086  15.830
 3878ETHO   H1130110  10.303  12.992  15.773
 3878ETHO   H1330111  10.185  13.078  15.872
 3878ETHO    C230112  10.382  13.085  15.944
 3878ETHO   H2130113  10.488  13.079  15.911
 3878ETHO   H2330114  10.359  12.992  16.001
 3879ETHO    O130115  10.348  13.191  16.043
 3879ETHO    C130116  10.448  13.300  16.047
 3879ETHO   H1130117  10.546  13.250  16.063
 3879ETHO   H1330118  10.453  13.351  15.948
 3879ETHO    C230119  10.427  13.403  16.155
 3879ETHO   H2130120  10.329  13.454  16.145
 3879ETHO   H2330121  10.505  13.481  16.144
 3880ETHO    O130122  10.430  13.343  16.287
 3880ETHO    C130123  10.563  13.320  16.334
 3880ETHO   H1130124  10.602  13.416  16.374
 3880ETHO   H1330125  10.629  13.291  16.250
 3880ETHO    C230126  10.575  13.226  16.455
 3880ETHO   H2130127  10.685  13.207  16.456
 3880ETHO   H2330128  10.527  13.128  16.438
 3881ETHO    O130129  10.527  13.274  16.585
 3881ETHO    C130130  10.562  13.200  16.704
 3881ETHO   H1130131  10.514  13.100  16.700
 3881ETHO   H1330132  10.672  13.182  16.700
 3881ETHO    C230133  10.533  13.285  16.831
 3881ETHO   H2130134  10.598  13.374  16.821
 3881ETHO   H2330135  10.569  13.231  16.921
 3882ETHO    O130136  10.401  13.333  16.860
 3882ETHO    C130137  10.394  13.427  16.964
 3882ETHO   H1130138  10.465  13.511  16.943
 3882ETHO   H1330139  10.432  13.376  17.054
 3882ETHO    C230140  10.259  13.483  16.994
 3882ETHO   H2130141  10.265  13.548  17.084
 3882ETHO   H2330142  10.183  13.407  17.024
 3883ETHO    O130143  10.194  13.541  16.879
 3883ETHO    C130144  10.053  13.566  16.889
 3883ETHO   H1130145  10.011  13.622  16.803
 3883ETHO   H1330146   9.992  13.474  16.901
 3883ETHO    C230147  10.019  13.653  17.012
 3883ETHO   H2130148  10.083  13.744  17.012
 3883ETHO   H2330149   9.915  13.691  17.003
 3884ETHO    O130150  10.025  13.579  17.135
 3884ETHO    C130151  10.051  13.662  17.246
 3884ETHO   H1130152  10.155  13.703  17.242
 3884ETHO   H1330153   9.984  13.750  17.239
 3884ETHO    C230154  10.011  13.606  17.381
 3884ETHO   H2130155   9.904  13.576  17.378
 3884ETHO   H2330156  10.008  13.686  17.458
 3885ETHO    O130157  10.105  13.515  17.443
 3885ETHO    C130158  10.066  13.457  17.566
 3885ETHO   H1130159   9.982  13.519  17.605
 3885ETHO   H1330160  10.021  13.358  17.543
 3885ETHO    C230161  10.186  13.466  17.658
 3885ETHO   H2130162  10.277  13.436  17.602
 3885ETHO   H2330163  10.174  13.395  17.743
 3886ETHO    O130164  10.203  13.599  17.706
 3886ETHO    C130165  10.329  13.626  17.772
 3886ETHO   H1130166  10.331  13.567  17.866
 3886ETHO   H1330167  10.409  13.583  17.708
 3886ETHO    C230168  10.341  13.772  17.807
 3886ETHO   H2130169  10.321  13.847  17.727
 3886ETHO   H2330170  10.441  13.797  17.849
 3887ETHO    O130171  10.240  13.797  17.907
 3887ETHO    C130172  10.223  13.932  17.936
 3887ETHO   H1130173  10.207  13.996  17.846
 3887ETHO   H1330174  10.318  13.974  17.977
 3887ETHO    C230175  10.104  13.957  18.026
 3887ETHO   H2130176  10.007  13.919  17.987
 3887ETHO   H2330177  10.096  14.066  18.047
 3888ETHO    O130178  10.128  13.885  18.150
 3888ETHO    C130179  10.023  13.908  18.243
 3888ETHO   H1130180  10.008  14.017  18.256
 3888ETHO   H1330181   9.929  13.869  18.197
 3888ETHO    C230182  10.042  13.836  18.381
 3888ETHO   H2130183  10.029  13.729  18.354
 3888ETHO   H2330184   9.954  13.870  18.438
 3889ETHO    O130185  10.156  13.870  18.458
 3889ETHO    C130186  10.253  13.757  18.461
 3889ETHO   H1130187  10.279  13.743  18.354
 3889ETHO   H1330188  10.204  13.671  18.512
 3889ETHO    C230189  10.379  13.783  18.550
 3889ETHO   H2130190  10.447  13.861  18.509
 3889ETHO   H2330191  10.438  13.689  18.550
 3890ETHO    O130192  10.354  13.809  18.686
 3890ETHO    C130193  10.460  13.844  18.770
 3890ETHO   H1130194  10.547  13.778  18.753
 3890ETHO   H1330195  10.474  13.951  18.743
 3890ETHO    C230196  10.420  13.829  18.923
 3890ETHO   H2130197  10.337  13.902  18.938
 3890ETHO   H2330198  10.512  13.850  18.982
 3891ETHO    O130199  10.381  13.700  18.948
 3891ETHO    C130200  10.394  13.661  19.084
 3891ETHO   H1130201  10.472  13.722  19.135
 3891ETHO   H1330202  10.409  13.551  19.090
 3891ETHO    C230203  10.261  13.681  19.165
 3891ETHO   H2130204  10.249  13.624  19.259
 3891ETHO   H2330205  10.181  13.639  19.100
 3892ETHO    O130206  10.241  13.819  19.186
 3892ETHO    C130207  10.103  13.847  19.201
 3892ETHO   H1130208  10.038  13.835  19.111
 3892ETHO   H1330209  10.072  13.786  19.288
 3892ETHO    C230210  10.092  13.989  19.253
 3892ETHO   H2130211  10.144  14.002  19.350
 3892ETHO   H2330212   9.983  14.003  19.271
 3893ETHO    O130213  10.119  14.090  19.154
 3893ETHO    C130214  10.251  14.143  19.169
 3893ETHO   H1130215  10.309  14.112  19.079
 3893ETHO   H1330216  10.305  14.104  19.258
 3893ETHO    C230217  10.259  14.297  19.188
 3893ETHO   H2130218  10.188  14.333  19.110
 3893ETHO   H2330219  10.363  14.333  19.172
 3894ETHO    O130220  10.217  14.349  19.315
 3894ETHO    C130221  10.200  14.491  19.311
 3894ETHO   H1130222  10.294  14.543  19.282
 3894ETHO   H1330223  10.125  14.521  19.235
 3894ETHO    C230224  10.164  14.549  19.451
 3894ETHO   H2130225  10.148  14.658  19.441
 3894ETHO   H2330226  10.251  14.526  19.517
 3895ETHO    O130227  10.049  14.495  19.512
 3895ETHO    C130228  10.034  14.541  19.643
 3895ETHO   H1130229  10.130  14.558  19.695
 3895ETHO   H1330230   9.973  14.633  19.653
 3895ETHO    C230231   9.952  14.428  19.705
 3895ETHO   H2130232   9.851  14.418  19.661
 3895ETHO   H2330233   9.934  14.465  19.808
 3896ETHO    O130234  10.026  14.307  19.724
 3896ETHO    C130235   9.966  14.234  19.835
 3896ETHO   H1130236   9.991  14.269  19.937
 3896ETHO   H1330237   9.856  14.246  19.828
 3896ETHO    C230238  10.009  14.090  19.827
 3896ETHO   H2130239  10.010  14.033  19.923
 3896ETHO   H2330240  10.116  14.088  19.795
 3897ETHO    O130241   9.936  14.010  19.733
 3897ETHO    C130242   9.952  13.873  19.740
 3897ETHO   H1130243  10.043  13.851  19.680
 3897ETHO   H1330244   9.967  13.836  19.844
 3897ETHO    C230245   9.823  13.792  19.698
 3897ETHO   H2130246   9.851  13.685  19.709
 3897ETHO   H2330247   9.803  13.816  19.591
 3898ETHO    O130248   9.712  13.822  19.782
 3898ETHO    C130249   9.623  13.716  19.772
 3898ETHO   H1130250   9.675  13.621  19.795
 3898ETHO   H1330251   9.578  13.716  19.671
 3898ETHO    C230252   9.507  13.703  19.872
 3898ETHO   H2130253   9.432  13.629  19.838
 3898ETHO   H2330254   9.459  13.804  19.870
 3899ETHO    O130255   9.552  13.670  20.002
 3899ETHO    C130256   9.454  13.667  20.111
 3899ETHO   H1130257   9.390  13.757  20.125
 3899ETHO   H1330258   9.389  13.578  20.099
 3899ETHO    C230259   9.532  13.653  20.247
 3899ETHO   H2130260   9.587  13.558  20.261
 3899ETHO   H2330261   9.452  13.663  20.323
 3900ETHO    O130262   9.621  13.761  20.265
 3900ETHO    C130263   9.687  13.764  20.391
 3900ETHO   H1130264   9.728  13.662  20.408
 3900ETHO   H1330265   9.610  13.780  20.470
 3900ETHO    C230266   9.795  13.872  20.391
 3900ETHO   H2130267   9.841  13.887  20.491
 3900ETHO   H2330268   9.748  13.964  20.351
 3901ETHO    O130269   9.903  13.832  20.308
 3901ETHO    C130270   9.982  13.937  20.252
 3901ETHO   H1130271   9.930  13.989  20.169
 3901ETHO   H1330272  10.007  14.001  20.340
 3901ETHO    C230273  10.112  13.882  20.208
 3901ETHO   H2130274  10.166  13.835  20.293
 3901ETHO   H2330275  10.174  13.973  20.192
 3902ETHO    O130276  10.107  13.792  20.098
 3902ETHO    C130277  10.237  13.732  20.063
 3902ETHO   H1130278  10.263  13.659  20.142
 3902ETHO   H1330279  10.316  13.811  20.069
 3902ETHO    C230280  10.238  13.684  19.917
 3902ETHO   H2130281  10.140  13.635  19.896
 3902ETHO   H2330282  10.319  13.610  19.903
 3903ETHO    O130283  10.268  13.784  19.814
 3903ETHO    C130284  10.300  13.729  19.686
 3903ETHO   H1130285  10.391  13.665  19.690
 3903ETHO   H1330286  10.218  13.665  19.647
 3903ETHO    C230287  10.318  13.835  19.575
 3903ETHO   H2130288  10.224  13.894  19.565
 3903ETHO   H2330289  10.338  13.778  19.482
 3904ETHO    O130290  10.427  13.919  19.584
 3904ETHO    C130291  10.441  14.012  19.480
 3904ETHO   H1130292  10.351  14.076  19.483
 3904ETHO   H1330293  10.442  13.956  19.384
 3904ETHO    C230294  10.572  14.089  19.493
 3904ETHO   H2130295  10.593  14.119  19.598
 3904ETHO   H2330296  10.566  14.183  19.434
 3905ETHO    O130297  10.677  13.999  19.443
 3905ETHO    C130298  10.796  14.070  19.400
 3905ETHO   H1130299  10.820  14.135  19.486
 3905ETHO   H1330300  10.875  13.997  19.372
 3905ETHO    C230301  10.773  14.151  19.262
 3905ETHO   H2130302  10.873  14.180  19.224
 3905ETHO   H2330303  10.702  14.235  19.279
 3906ETHO    O130304  10.714  14.053  19.172
 3906ETHO    C130305  10.669  14.116  19.053
 3906ETHO   H1130306  10.588  14.051  19.012
 3906ETHO   H1330307  10.614  14.210  19.075
 3906ETHO    C230308  10.789  14.138  18.961
 3906ETHO   H2130309  10.886  14.163  19.008
 3906ETHO   H2330310  10.770  14.226  18.895
 3907ETHO    O130311  10.807  14.019  18.883
 3907ETHO    C130312  10.913  14.036  18.791
 3907ETHO   H1130313  10.897  14.135  18.743
 3907ETHO   H1330314  11.013  14.037  18.840
 3907ETHO    C230315  10.928  13.938  18.674
 3907ETHO   H2130316  10.920  13.834  18.710
 3907ETHO   H2330317  11.021  13.958  18.615
 3908ETHO    O130318  10.820  13.954  18.578
 3908ETHO    C130319  10.829  13.848  18.484
 3908ETHO   H1130320  10.928  13.826  18.438
 3908ETHO   H1330321  10.790  13.762  18.541
 3908ETHO    C230322  10.733  13.872  18.370
 3908ETHO   H2130323  10.794  13.932  18.300
 3908ETHO   H2330324  10.648  13.933  18.408
 3909ETHO    O130325  10.685  13.755  18.313
 3909ETHO    C130326  10.594  13.779  18.213
 3909ETHO   H1130327  10.627  13.864  18.150
 3909ETHO   H1330328  10.498  13.804  18.263
 3909ETHO    C230329  10.581  13.652  18.121
 3909ETHO   H2130330  10.490  13.664  18.059
 3909ETHO   H2330331  10.562  13.566  18.189
 3910ETHO    O130332  10.700  13.628  18.040
 3910ETHO    C130333  10.702  13.504  17.974
 3910ETHO   H1130334  10.687  13.423  18.049
 3910ETHO   H1330335  10.622  13.484  17.899
 3910ETHO    C230336  10.841  13.464  17.909
 3910ETHO   H2130337  10.828  13.356  17.886
 3910ETHO   H2330338  10.922  13.483  17.981
 3911ETHO    O130339  10.852  13.518  17.775
 3911ETHO    C130340  10.983  13.507  17.724
 3911ETHO   H1130341  11.007  13.405  17.688
 3911ETHO   H1330342  11.046  13.540  17.810
 3911ETHO    C230343  11.025  13.617  17.630
 3911ETHO   H2130344  11.136  13.607  17.626
 3911ETHO   H2330345  11.000  13.718  17.669
 3912ETHO    O130346  10.964  13.608  17.506
 3912ETHO    C130347  11.043  13.672  17.404
 3912ETHO   H1130348  11.076  13.771  17.443
 3912ETHO   H1330349  11.136  13.613  17.385
 3912ETHO    C230350  10.973  13.691  17.271
 3912ETHO   H2130351  11.048  13.752  17.215
 3912ETHO   H2330352  10.885  13.759  17.274
 3913ETHO    O130353  10.948  13.557  17.213
 3913ETHO    C130354  11.051  13.514  17.124
 3913ETHO   H1130355  11.142  13.514  17.187
 3913ETHO   H1330356  11.065  13.598  17.053
 3913ETHO    C230357  11.019  13.379  17.056
 3913ETHO   H2130358  10.985  13.306  17.133
 3913ETHO   H2330359  11.111  13.335  17.013
 3914ETHO    O130360  10.926  13.401  16.946
 3914ETHO    C130361  10.939  13.306  16.840
 3914ETHO   H1130362  10.945  13.205  16.887
 3914ETHO   H1330363  10.844  13.309  16.783
 3914ETHO    C230364  11.061  13.331  16.746
 3914ETHO   H2130365  11.093  13.241  16.689
 3914ETHO   H2330366  11.143  13.377  16.804
 3915ETHO    O130367  11.022  13.436  16.656
 3915ETHO    C130368  11.135  13.503  16.592
 3915ETHO   H1130369  11.199  13.429  16.540
 3915ETHO   H1330370  11.207  13.552  16.661
 3915ETHO    C230371  11.084  13.604  16.488
 3915ETHO   H2130372  10.985  13.582  16.443
 3915ETHO   H2330373  11.146  13.624  16.399
 3916ETHO    O130374  11.080  13.726  16.563
 3916ETHO    C130375  11.032  13.843  16.491
 3916ETHO   H1130376  11.105  13.858  16.409
 3916ETHO   H1330377  10.928  13.826  16.455
 3916ETHO    C230378  11.042  13.976  16.571
 3916ETHO   H2130379  10.999  13.971  16.674
 3916ETHO   H2330380  11.152  13.991  16.575
 3917ETHO    O130381  10.970  14.084  16.511
 3917ETHO    C130382  10.989  14.210  16.585
 3917ETHO   H1130383  11.094  14.244  16.595
 3917ETHO   H1330384  10.955  14.188  16.688
 3917ETHO    C230385  10.909  14.318  16.520
 3917ETHO   H2130386  10.928  14.412  16.574
 3917ETHO   H2330387  10.800  14.294  16.519
 3918ETHO    O130388  10.962  14.329  16.382
 3918ETHO    C130389  10.894  14.430  16.305
 3918ETHO   H1130390  10.785  14.412  16.310
 3918ETHO   H1330391  10.912  14.532  16.344
 3918ETHO    C230392  10.953  14.416  16.169
 3918ETHO   H2130393  11.063  14.396  16.176
 3918ETHO   H2330394  10.933  14.518  16.129
 3919ETHO    O130395  10.888  14.310  16.095
 3919ETHO    C130396  10.936  14.288  15.961
 3919ETHO   H1130397  11.041  14.253  15.972
 3919ETHO   H1330398  10.928  14.376  15.895
 3919ETHO    C230399  10.867  14.173  15.894
 3919ETHO   H2130400  10.799  14.218  15.818
 3919ETHO   H2330401  10.808  14.109  15.964
 3920ETHO    O130402  10.960  14.095  15.821
 3920ETHO    C130403  10.887  13.993  15.745
 3920ETHO   H1130404  10.848  13.921  15.821
 3920ETHO   H1330405  10.808  14.027  15.675
 3920ETHO    C230406  10.985  13.901  15.670
 3920ETHO   H2130407  10.943  13.799  15.669
 3920ETHO   H2330408  11.080  13.907  15.727
 3921ETHO    O130409  11.012  13.946  15.534
 3921ETHO    C130410  11.145  13.911  15.484
 3921ETHO   H1130411  11.230  13.974  15.517
 3921ETHO   H1330412  11.178  13.813  15.523
 3921ETHO    C230413  11.140  13.905  15.329
 3921ETHO   H2130414  11.044  13.858  15.297
 3921ETHO   H2330415  11.232  13.858  15.288
 3922ETHO    O130416  11.127  14.036  15.280
 3922ETHO    C130417  11.157  14.039  15.142
 3922ETHO   H1130418  11.262  14.009  15.125
 3922ETHO   H1330419  11.091  13.977  15.079
 3922ETHO    C230420  11.145  14.186  15.088
 3922ETHO   H2130421  11.197  14.260  15.152
 3922ETHO   H2330422  11.038  14.216  15.093
 3923ETHO    O130423  11.195  14.195  14.953
 3923ETHO    C130424  11.166  14.313  14.884
 3923ETHO   H1130425  11.072  14.359  14.924
 3923ETHO   H1330426  11.250  14.384  14.901
 3923ETHO    C230427  11.149  14.271  14.739
 3923ETHO   H2130428  11.094  14.356  14.692
 3923ETHO   H2330429  11.086  14.180  14.727
 3924ETHO    O130430  11.268  14.268  14.662
 3924ETHO    C130431  11.244  14.227  14.525
 3924ETHO   H1130432  11.170  14.284  14.465
 3924ETHO   H1330433  11.207  14.122  14.529
 3924ETHO    C230434  11.391  14.214  14.464
 3924ETHO   H2130435  11.454  14.157  14.535
 3924ETHO   H2330436  11.441  14.311  14.441
 3925ETHO    O130437  11.383  14.141  14.340
 3925ETHO    C130438  11.509  14.095  14.294
 3925ETHO   H1130439  11.587  14.175  14.294
 3925ETHO   H1330440  11.544  14.019  14.367
 3925ETHO    C230441  11.491  14.046  14.149
 3925ETHO   H2130442  11.594  14.022  14.116
 3925ETHO   H2330443  11.436  14.119  14.086
 3926ETHO    O130444  11.412  13.927  14.141
 3926ETHO    C130445  11.483  13.802  14.162
 3926ETHO   H1130446  11.519  13.804  14.267
 3926ETHO   H1330447  11.578  13.798  14.104
 3926ETHO    C230448  11.392  13.682  14.136
 3926ETHO   H2130449  11.342  13.682  14.037
 3926ETHO   H2330450  11.314  13.708  14.211
 3927ETHO    O130451  11.455  13.558  14.172
 3927ETHO    C130452  11.382  13.457  14.100
 3927ETHO   H1130453  11.274  13.470  14.078
 3927ETHO   H1330454  11.437  13.459  14.003
 3927ETHO    C230455  11.402  13.313  14.153
 3927ETHO   H2130456  11.509  13.311  14.183
 3927ETHO   H2330457  11.388  13.236  14.074
 3928ETHO    O130458  11.324  13.293  14.267
 3928ETHO    C130459  11.344  13.159  14.325
 3928ETHO   H1130460  11.450  13.142  14.352
 3928ETHO   H1330461  11.304  13.085  14.252
 3928ETHO    C230462  11.249  13.141  14.443
 3928ETHO   H2130463  11.146  13.157  14.407
 3928ETHO   H2330464  11.276  13.216  14.521
 3929ETHO    O130465  11.267  13.012  14.505
 3929ETHO    C130466  11.174  13.002  14.614
 3929ETHO   H1130467  11.197  13.080  14.690
 3929ETHO   H1330468  11.067  13.013  14.585
 3929ETHO    C230469  11.192  12.867  14.683
 3929ETHO   H2130470  11.298  12.845  14.705
 3929ETHO   H2330471  11.156  12.798  14.604
 3930ETHO    O130472  11.123  12.856  14.800
 3930ETHO    C130473  11.135  12.724  14.857
 3930ETHO   H1130474  11.228  12.710  14.916
 3930ETHO   H1330475  11.131  12.643  14.780
 3930ETHO    C230476  11.016  12.716  14.953
 3930ETHO   H2130477  10.917  12.714  14.903
 3930ETHO   H2330478  11.006  12.809  15.014
 3931ETHO    O130479  11.017  12.605  15.049
 3931ETHO    C130480  10.900  12.603  15.130
 3931ETHO   H1130481  10.876  12.706  15.163
 3931ETHO   H1330482  10.815  12.567  15.068
 3931ETHO    C230483  10.924  12.515  15.261
 3931ETHO   H2130484  10.998  12.567  15.325
 3931ETHO   H2330485  10.957  12.413  15.231
 3932ETHO    O130486  10.807  12.477  15.337
 3932ETHO    C130487  10.844  12.395  15.443
 3932ETHO   H1130488  10.905  12.309  15.410
 3932ETHO   H1330489  10.911  12.444  15.518
 3932ETHO    C230490  10.717  12.329  15.500
 3932ETHO   H2130491  10.756  12.236  15.547
 3932ETHO   H2330492  10.655  12.307  15.410
 3933ETHO    O130493  10.650  12.410  15.599
 3933ETHO    C130494  10.526  12.350  15.642
 3933ETHO   H1130495  10.467  12.426  15.699
 3933ETHO   H1330496  10.469  12.320  15.552
 3933ETHO    C230497  10.547  12.225  15.734
 3933ETHO   H2130498  10.622  12.151  15.698
 3933ETHO   H2330499  10.447  12.177  15.748
 3934ETHO    O130500  10.586  12.282  15.861
 3934ETHO    C130501  10.583  12.193  15.962
 3934ETHO   H1130502  10.491  12.132  15.966
 3934ETHO   H1330503  10.661  12.118  15.938
 3934ETHO    C230504  10.589  12.267  16.097
 3934ETHO   H2130505  10.655  12.354  16.078
 3934ETHO   H2330506  10.642  12.200  16.169
 3935ETHO    O130507  10.469  12.319  16.158
 3935ETHO    C130508  10.499  12.419  16.261
 3935ETHO   H1130509  10.567  12.496  16.221
 3935ETHO   H1330510  10.561  12.365  16.336
 3935ETHO    C230511  10.366  12.471  16.316
 3935ETHO   H2130512  10.326  12.402  16.393
 3935ETHO   H2330513  10.302  12.469  16.226
 3936ETHO    O130514  10.374  12.603  16.352
 3936ETHO    C130515  10.251  12.638  16.418
 3936ETHO   H1130516  10.216  12.735  16.376
 3936ETHO   H1330517  10.167  12.575  16.382
 3936ETHO    C230518  10.258  12.666  16.575
 3936ETHO   H2130519  10.298  12.578  16.630
 3936ETHO   H2330520  10.152  12.684  16.603
 3937ETHO    O130521  10.340  12.777  16.619
 3937ETHO    C130522  10.296  12.912  16.587
 3937ETHO   H1130523  10.234  12.924  16.496
 3937ETHO   H1330524  10.386  12.973  16.563
 3937ETHO    C230525  10.224  12.975  16.703
 3937ETHO   H2130526  10.286  12.967  16.795
 3937ETHO   H2330527  10.134  12.919  16.735
 3938ETHO    O130528  10.185  13.109  16.678
 3938ETHO    C130529  10.113  13.172  16.776
 3938ETHO   H1130530  10.143  13.129  16.874
 3938ETHO   H1330531  10.150  13.276  16.785
 3938ETHO    C230532   9.967  13.155  16.758
 3938ETHO   H2130533   9.924  13.182  16.856
 3938ETHO   H2330534   9.941  13.052  16.724
 3939ETHO    O130535   9.915  13.241  16.664
 3939ETHO    C130536   9.774  13.269  16.676
 3939ETHO   H1130537   9.711  13.181  16.702
 3939ETHO   H1330538   9.740  13.298  16.574
 3939ETHO    C230539   9.739  13.388  16.760
 3939ETHO   H2130540   9.633  13.418  16.740
 3939ETHO   H2330541   9.797  13.481  16.747
 3940ETHO    O130542   9.742  13.356  16.897
 3940ETHO    C130543   9.716  13.468  16.979
 3940ETHO   H1130544   9.795  13.541  16.953
 3940ETHO   H1330545   9.621  13.511  16.942
 3940ETHO    C230546   9.708  13.451  17.131
 3940ETHO   H2130547   9.738  13.549  17.175
 3940ETHO   H2330548   9.780  13.372  17.162
 3941ETHO    O130549   9.581  13.410  17.179
 3941ETHO    C130550   9.586  13.383  17.319
 3941ETHO   H1130551   9.639  13.467  17.370
 3941ETHO   H1330552   9.649  13.293  17.332
 3941ETHO    C230553   9.445  13.363  17.387
 3941ETHO   H2130554   9.381  13.451  17.369
 3941ETHO   H2330555   9.460  13.354  17.497
 3942ETHO    O130556   9.386  13.240  17.349
 3942ETHO    C130557   9.337  13.233  17.213
 3942ETHO   H1130558   9.310  13.337  17.183
 3942ETHO   H1330559   9.424  13.208  17.149
 3942ETHO    C230560   9.229  13.132  17.194
 3942ETHO   H2130561   9.275  13.038  17.232
 3942ETHO   H2330562   9.210  13.121  17.086
 3943ETHO    O130563   9.111  13.182  17.264
 3943ETHO    C130564   8.991  13.110  17.228
 3943ETHO   H1130565   8.905  13.154  17.282
 3943ETHO   H1330566   8.966  13.136  17.123
 3943ETHO    C230567   9.009  12.955  17.244
 3943ETHO   H2130568   9.086  12.918  17.173
 3943ETHO   H2330569   8.917  12.896  17.223
 3944ETHO    O130570   9.045  12.919  17.373
 3944ETHO    C130571   9.111  12.794  17.383
 3944ETHO   H1130572   9.048  12.718  17.333
 3944ETHO   H1330573   9.210  12.813  17.336
 3944ETHO    C230574   9.135  12.762  17.524
 3944ETHO   H2130575   9.185  12.853  17.564
 3944ETHO   H2330576   9.201  12.673  17.525
 3945ETHO    O130577   9.007  12.745  17.590
 3945ETHO    C130578   9.025  12.686  17.717
 3945ETHO   H1130579   9.060  12.582  17.701
 3945ETHO   H1330580   9.104  12.727  17.783
 3945ETHO    C230581   8.886  12.681  17.785
 3945ETHO   H2130582   8.910  12.613  17.869
 3945ETHO   H2330583   8.829  12.644  17.697
 3946ETHO    O130584   8.827  12.809  17.829
 3946ETHO    C130585   8.688  12.801  17.842
 3946ETHO   H1130586   8.652  12.719  17.907
 3946ETHO   H1330587   8.652  12.780  17.739
 3946ETHO    C230588   8.621  12.945  17.871
 3946ETHO   H2130589   8.519  12.956  17.829
 3946ETHO   H2330590   8.687  13.019  17.820
 3947ETHO    O130591   8.618  12.975  18.009
 3947ETHO    C130592   8.548  13.092  18.045
 3947ETHO   H1130593   8.589  13.182  17.996
 3947ETHO   H1330594   8.441  13.079  18.016
 3947ETHO    C230595   8.557  13.106  18.193
 3947ETHO   H2130596   8.533  13.210  18.223
 3947ETHO   H2330597   8.663  13.091  18.221
 3948ETHO    O130598   8.472  13.014  18.257
 3948ETHO    C130599   8.452  13.055  18.396
 3948ETHO   H1130600   8.383  13.143  18.391
 3948ETHO   H1330601   8.548  13.089  18.440
 3948ETHO    C230602   8.405  12.936  18.482
 3948ETHO   H2130603   8.479  12.853  18.473
 3948ETHO   H2330604   8.304  12.909  18.446
 3949ETHO    O130605   8.392  12.959  18.624
 3949ETHO    C130606   8.510  12.947  18.693
 3949ETHO   H1130607   8.535  12.840  18.707
 3949ETHO   H1330608   8.592  12.989  18.631
 3949ETHO    C230609   8.528  13.022  18.826
 3949ETHO   H2130610   8.626  12.996  18.870
 3949ETHO   H2330611   8.525  13.131  18.805
 3950ETHO    O130612   8.423  12.983  18.915
 3950ETHO    C130613   8.428  13.064  19.031
 3950ETHO   H1130614   8.432  13.172  19.007
 3950ETHO   H1330615   8.509  13.031  19.100
 3950ETHO    C230616   8.281  13.046  19.094
 3950ETHO   H2130617   8.202  13.046  19.016
 3950ETHO   H2330618   8.281  13.126  19.170
 3951ETHO    O130619   8.279  12.915  19.156
 3951ETHO    C130620   8.161  12.904  19.233
 3951ETHO   H1130621   8.158  12.980  19.314
 3951ETHO   H1330622   8.074  12.931  19.170
 3951ETHO    C230623   8.155  12.762  19.289
 3951ETHO   H2130624   8.245  12.732  19.346
 3951ETHO   H2330625   8.134  12.691  19.207
 3952ETHO    O130626   8.049  12.754  19.380
 3952ETHO    C130627   8.077  12.668  19.488
 3952ETHO   H1130628   8.139  12.579  19.461
 3952ETHO   H1330629   7.986  12.640  19.547
 3952ETHO    C230630   8.160  12.754  19.584
 3952ETHO   H2130631   8.117  12.751  19.686
 3952ETHO   H2330632   8.162  12.859  19.547
 3953ETHO    O130633   8.287  12.695  19.610
 3953ETHO    C130634   8.370  12.774  19.698
 3953ETHO   H1130635   8.432  12.848  19.645
 3953ETHO   H1330636   8.306  12.829  19.770
 3953ETHO    C230637   8.452  12.680  19.786
 3953ETHO   H2130638   8.505  12.739  19.863
 3953ETHO   H2330639   8.525  12.633  19.717
 3954ETHO    O130640   8.365  12.583  19.845
 3954ETHO    C130641   8.451  12.478  19.893
 3954ETHO   H1130642   8.524  12.515  19.968
 3954ETHO   H1330643   8.504  12.443  19.802
 3954ETHO    C230644   8.373  12.366  19.953
 3954ETHO   H2130645   8.432  12.275  19.931
 3954ETHO   H2330646   8.276  12.383  19.901
 3955ETHO    O130647   8.366  12.395  20.094
 3955ETHO    C130648   8.273  12.314  20.160
 3955ETHO   H1130649   8.283  12.215  20.110
 3955ETHO   H1330650   8.309  12.313  20.264
 3955ETHO    C230651   8.137  12.368  20.150
 3955ETHO   H2130652   8.111  12.354  20.043
 3955ETHO   H2330653   8.129  12.478  20.169
 3956ETHO    O130654   8.040  12.305  20.236
 3956ETHO    C130655   7.910  12.362  20.213
 3956ETHO   H1130656   7.879  12.334  20.110
 3956ETHO   H1330657   7.941  12.468  20.223
 3956ETHO    C230658   7.798  12.332  20.309
 3956ETHO   H2130659   7.785  12.222  20.302
 3956ETHO   H2330660   7.701  12.372  20.273
 3957ETHO    O130661   7.841  12.369  20.439
 3957ETHO    C130662   7.738  12.350  20.536
 3957ETHO   H1130663   7.658  12.424  20.516
 3957ETHO   H1330664   7.705  12.245  20.520
 3957ETHO    C230665   7.801  12.354  20.679
 3957ETHO   H2130666   7.850  12.452  20.698
 3957ETHO   H2330667   7.716  12.341  20.749
 3958ETHO    O130668   7.900  12.250  20.697
 3958ETHO    C130669   7.872  12.165  20.803
 3958ETHO   H1130670   7.770  12.130  20.777
 3958ETHO   H1330671   7.943  12.081  20.784
 3958ETHO    C230672   7.883  12.228  20.943
 3958ETHO   H2130673   7.804  12.183  21.007
 3958ETHO   H2330674   7.866  12.338  20.947
 3959ETHO    O130675   8.012  12.197  20.996
 3959ETHO    C130676   8.034  12.250  21.125
 3959ETHO   H1130677   8.036  12.361  21.126
 3959ETHO   H1330678   7.946  12.228  21.188
 3959ETHO    C230679   8.154  12.196  21.186
 3959ETHO   H2130680   8.197  12.273  21.253
 3959ETHO   H2330681   8.233  12.171  21.112
 3960ETHO    O130682   8.132  12.079  21.262
 3960ETHO    C130683   8.247  12.005  21.296
 3960ETHO   H1130684   8.209  11.913  21.346
 3960ETHO   H1330685   8.314  11.979  21.211
 3960ETHO    C230686   8.326  12.079  21.400
 3960ETHO   H2130687   8.405  12.017  21.447
 3960ETHO   H2330688   8.265  12.126  21.480
 3961ETHO    O130689   8.402  12.188  21.349
 3961ETHO    C130690   8.470  12.252  21.455
 3961ETHO   H1130691   8.548  12.176  21.475
 3961ETHO   H1330692   8.400  12.268  21.541
 3961ETHO    C230693   8.530  12.388  21.411
 3961ETHO   H2130694   8.594  12.369  21.323
 3961ETHO   H2330695   8.588  12.415  21.502
 3962ETHO    O130696   8.426  12.489  21.387
 3962ETHO    C130697   8.377  12.469  21.256
 3962ETHO   H1130698   8.407  12.368  21.221
 3962ETHO   H1330699   8.267  12.482  21.258
 3962ETHO    C230700   8.444  12.560  21.150
 3962ETHO   H2130701   8.395  12.541  21.052
 3962ETHO   H2330702   8.551  12.532  21.135
 3963ETHO    O130703   8.433  12.699  21.186
 3963ETHO    C130704   8.493  12.774  21.088
 3963ETHO   H1130705   8.592  12.737  21.056
 3963ETHO   H1330706   8.516  12.874  21.131
 3963ETHO    C230707   8.413  12.801  20.955
 3963ETHO   H2130708   8.388  12.702  20.910
 3963ETHO   H2330709   8.486  12.849  20.886
 3964ETHO    O130710   8.296  12.884  20.971
 3964ETHO    C130711   8.227  12.899  20.851
 3964ETHO   H1130712   8.309  12.913  20.776
 3964ETHO   H1330713   8.173  12.804  20.833
 3964ETHO    C230714   8.132  13.017  20.851
 3964ETHO   H2130715   8.062  13.012  20.937
 3964ETHO   H2330716   8.062  13.012  20.764
 3965ETHO    O130717   8.213  13.138  20.848
 3965ETHO    C130718   8.259  13.173  20.720
 3965ETHO   H1130719   8.169  13.187  20.656
 3965ETHO   H1330720   8.314  13.092  20.669
 3965ETHO    C230721   8.330  13.309  20.707
 3965ETHO   H2130722   8.293  13.363  20.797
 3965ETHO   H2330723   8.297  13.372  20.622
 3966ETHO    O130724   8.468  13.289  20.719
 3966ETHO    C130725   8.537  13.411  20.707
 3966ETHO   H1130726   8.465  13.478  20.655
 3966ETHO   H1330727   8.557  13.456  20.807
 3966ETHO    C230728   8.671  13.398  20.633
 3966ETHO   H2130729   8.733  13.334  20.699
 3966ETHO   H2330730   8.704  13.504  20.630
 3967ETHO    O130731   8.666  13.341  20.505
 3967ETHO    C130732   8.796  13.338  20.434
 3967ETHO   H1130733   8.864  13.425  20.452
 3967ETHO   H1330734   8.770  13.334  20.326
 3967ETHO    C230735   8.876  13.210  20.463
 3967ETHO   H2130736   8.899  13.212  20.571
 3967ETHO   H2330737   8.971  13.208  20.406
 3968ETHO    O130738   8.826  13.085  20.419
 3968ETHO    C130739   8.870  12.978  20.503
 3968ETHO   H1130740   8.910  12.900  20.434
 3968ETHO   H1330741   8.968  12.998  20.551
 3968ETHO    C230742   8.781  12.935  20.615
 3968ETHO   H2130743   8.770  13.014  20.692
 3968ETHO   H2330744   8.829  12.845  20.657
 3969ETHO    O130745   8.648  12.885  20.577
 3969ETHO    C130746   8.554  12.992  20.568
 3969ETHO   H1130747   8.510  13.025  20.664
 3969ETHO   H1330748   8.611  13.077  20.524
 3969ETHO    C230749   8.435  12.950  20.477
 3969ETHO   H2130750   8.471  12.894  20.388
 3969ETHO   H2330751   8.372  13.036  20.445
 3970ETHO    O130752   8.334  12.872  20.535
 3970ETHO    C130753   8.227  12.855  20.449
 3970ETHO   H1130754   8.166  12.945  20.425
 3970ETHO   H1330755   8.263  12.816  20.352
 3970ETHO    C230756   8.122  12.757  20.509
 3970ETHO   H2130757   8.189  12.675  20.541
 3970ETHO   H2330758   8.049  12.716  20.435
 3971ETHO    O130759   8.051  12.815  20.615
 3971ETHO    C130760   7.933  12.750  20.648
 3971ETHO   H1130761   7.948  12.640  20.660
 3971ETHO   H1330762   7.917  12.788  20.751
 3971ETHO    C230763   7.802  12.764  20.562
 3971ETHO   H2130764   7.732  12.682  20.585
 3971ETHO   H2330765   7.836  12.765  20.456
 3972ETHO    O130766   7.727  12.872  20.604
 3972ETHO    C130767   7.614  12.889  20.521
 3972ETHO   H1130768   7.548  12.808  20.561
 3972ETHO   H1330769   7.642  12.873  20.415
 3972ETHO    C230770   7.554  13.029  20.544
 3972ETHO   H2130771   7.465  13.036  20.477
 3972ETHO   H2330772   7.634  13.098  20.508
 3973ETHO    O130773   7.510  13.059  20.675
 3973ETHO    C130774   7.384  12.991  20.715
 3973ETHO   H1130775   7.404  12.883  20.702
 3973ETHO   H1330776   7.297  13.024  20.654
 3973ETHO    C230777   7.336  13.018  20.863
 3973ETHO   H2130778   7.244  12.958  20.880
 3973ETHO   H2330779   7.318  13.126  20.879
 3974ETHO    O130780   7.435  12.964  20.953
 3974ETHO    C130781   7.411  13.016  21.083
 3974ETHO   H1130782   7.307  12.987  21.110
 3974ETHO   H1330783   7.412  13.127  21.071
 3974ETHO    C230784   7.505  12.978  21.188
 3974ETHO   H2130785   7.503  13.049  21.273
 3974ETHO   H2330786   7.608  12.992  21.148
 3975ETHO    O130787   7.474  12.841  21.227
 3975ETHO    C130788   7.384  12.835  21.337
 3975ETHO   H1130789   7.434  12.873  21.429
 3975ETHO   H1330790   7.299  12.901  21.312
 3975ETHO    C230791   7.334  12.695  21.365
 3975ETHO   H2130792   7.277  12.695  21.461
 3975ETHO   H2330793   7.414  12.624  21.395
 3975ETHO    OZ30794   7.250  12.643  21.258
 3975ETHO   HZ130795   7.164  12.653  21.301
 3976ETHO    O130796  11.798  11.413   1.704
 3976ETHO   HO130797  11.788  11.464   1.784
 3976ETHO    C130798  11.941  11.387   1.697
 3976ETHO   H1130799  11.999  11.366   1.789
 3976ETHO   H1330800  11.988  11.482   1.664
 3976ETHO    C230801  11.982  11.280   1.595
 3976ETHO   H2130802  12.089  11.292   1.571
 3976ETHO   H2330803  11.928  11.301   1.500
 3977ETHO    O130804  11.969  11.149   1.648
 3977ETHO    C130805  11.998  11.056   1.541
 3977ETHO   H1130806  11.922  11.073   1.462
 3977ETHO   H1330807  12.098  11.076   1.497
 3977ETHO    C230808  11.989  10.910   1.580
 3977ETHO   H2130809  12.048  10.889   1.671
 3977ETHO   H2330810  12.037  10.865   1.490
 3978ETHO    O130811  11.852  10.879   1.578
 3978ETHO    C130812  11.832  10.741   1.611
 3978ETHO   H1130813  11.880  10.711   1.706
 3978ETHO   H1330814  11.874  10.674   1.533
 3978ETHO    C230815  11.687  10.706   1.613
 3978ETHO   H2130816  11.672  10.599   1.635
 3978ETHO   H2330817  11.638  10.720   1.514
 3979ETHO    O130818  11.612  10.782   1.705
 3979ETHO    C130819  11.477  10.741   1.719
 3979ETHO   H1130820  11.429  10.714   1.623
 3979ETHO   H1330821  11.479  10.653   1.786
 3979ETHO    C230822  11.389  10.852   1.790
 3979ETHO   H2130823  11.425  10.869   1.893
 3979ETHO   H2330824  11.285  10.811   1.793
 3980ETHO    O130825  11.392  10.979   1.725
 3980ETHO    C130826  11.260  11.039   1.728
 3980ETHO   H1130827  11.193  10.991   1.653
 3980ETHO   H1330828  11.218  11.006   1.825
 3980ETHO    C230829  11.261  11.194   1.714
 3980ETHO   H2130830  11.157  11.211   1.678
 3980ETHO   H2330831  11.332  11.217   1.632
 3981ETHO    O130832  11.269  11.274   1.832
 3981ETHO    C130833  11.405  11.279   1.886
 3981ETHO   H1130834  11.444  11.181   1.920
 3981ETHO   H1330835  11.466  11.315   1.801
 3981ETHO    C230836  11.434  11.372   2.013
 3981ETHO   H2130837  11.534  11.353   2.057
 3981ETHO   H2330838  11.351  11.347   2.082
 3982ETHO    O130839  11.428  11.511   1.988
 3982ETHO    C130840  11.464  11.590   2.104
 3982ETHO   H1130841  11.554  11.536   2.141
 3982ETHO   H1330842  11.506  11.688   2.073
 3982ETHO    C230843  11.349  11.617   2.198
 3982ETHO   H2130844  11.404  11.662   2.283
 3982ETHO   H2330845  11.298  11.526   2.236
 3983ETHO    O130846  11.252  11.706   2.140
 3983ETHO    C130847  11.169  11.765   2.245
 3983ETHO   H1130848  11.242  11.820   2.308
 3983ETHO   H1330849  11.126  11.682   2.305
 3983ETHO    C230850  11.064  11.869   2.194
 3983ETHO   H2130851  10.962  11.852   2.236
 3983ETHO   H2330852  11.055  11.856   2.084
 3984ETHO    O130853  11.122  11.998   2.210
 3984ETHO    C130854  11.053  12.074   2.309
 3984ETHO   H1130855  11.081  12.179   2.286
 3984ETHO   H1330856  10.943  12.070   2.297
 3984ETHO    C230857  11.094  12.023   2.446
 3984ETHO   H2130858  11.064  11.916   2.449
 3984ETHO   H2330859  11.040  12.067   2.533
 3985ETHO    O130860  11.233  12.035   2.466
 3985ETHO    C130861  11.274  12.168   2.502
 3985ETHO   H1130862  11.184  12.231   2.516
 3985ETHO   H1330863  11.312  12.215   2.409
 3985ETHO    C230864  11.382  12.161   2.609
 3985ETHO   H2130865  11.450  12.248   2.600
 3985ETHO   H2330866  11.455  12.078   2.596
 3986ETHO    O130867  11.328  12.165   2.740
 3986ETHO    C130868  11.428  12.130   2.831
 3986ETHO   H1130869  11.428  12.021   2.852
 3986ETHO   H1330870  11.535  12.151   2.809
 3986ETHO    C230871  11.380  12.201   2.965
 3986ETHO   H2130872  11.391  12.309   2.944
 3986ETHO   H2330873  11.270  12.188   2.978
 3987ETHO    O130874  11.463  12.183   3.074
 3987ETHO    C130875  11.407  12.255   3.190
 3987ETHO   H1130876  11.297  12.259   3.178
 3987ETHO   H1330877  11.451  12.356   3.205
 3987ETHO    C230878  11.410  12.167   3.315
 3987ETHO   H2130879  11.398  12.060   3.290
 3987ETHO   H2330880  11.335  12.192   3.394
 3988ETHO    O130881  11.538  12.179   3.394
 3988ETHO    C130882  11.655  12.157   3.316
 3988ETHO   H1130883  11.625  12.087   3.236
 3988ETHO   H1330884  11.699  12.249   3.270
 3988ETHO    C230885  11.769  12.118   3.410
 3988ETHO   H2130886  11.786  12.199   3.484
 3988ETHO   H2330887  11.861  12.121   3.349
 3989ETHO    O130888  11.742  11.996   3.473
 3989ETHO    C130889  11.778  12.005   3.615
 3989ETHO   H1130890  11.706  12.071   3.667
 3989ETHO   H1330891  11.871  12.065   3.615
 3989ETHO    C230892  11.798  11.872   3.685
 3989ETHO   H2130893  11.696  11.846   3.720
 3989ETHO   H2330894  11.856  11.896   3.777
 3990ETHO    O130895  11.859  11.768   3.602
 3990ETHO    C130896  11.829  11.634   3.656
 3990ETHO   H1130897  11.870  11.621   3.758
 3990ETHO   H1330898  11.718  11.626   3.664
 3990ETHO    C230899  11.880  11.527   3.561
 3990ETHO   H2130900  11.991  11.532   3.573
 3990ETHO   H2330901  11.846  11.432   3.605
 3991ETHO    O130902  11.832  11.537   3.432
 3991ETHO    C130903  11.913  11.459   3.340
 3991ETHO   H1130904  12.017  11.499   3.340
 3991ETHO   H1330905  11.916  11.351   3.366
 3991ETHO    C230906  11.854  11.469   3.199
 3991ETHO   H2130907  11.927  11.420   3.130
 3991ETHO   H2330908  11.852  11.579   3.183
 3992ETHO    O130909  11.730  11.408   3.191
 3992ETHO    C130910  11.681  11.418   3.056
 3992ETHO   H1130911  11.655  11.525   3.046
 3992ETHO   H1330912  11.760  11.402   2.980
 3992ETHO    C230913  11.575  11.314   3.022
 3992ETHO   H2130914  11.608  11.210   3.043
 3992ETHO   H2330915  11.561  11.326   2.913
 3993ETHO    O130916  11.450  11.325   3.090
 3993ETHO    C130917  11.365  11.423   3.027
 3993ETHO   H1130918  11.416  11.521   3.013
 3993ETHO   H1330919  11.326  11.392   2.928
 3993ETHO    C230920  11.228  11.435   3.107
 3993ETHO   H2130921  11.250  11.485   3.204
 3993ETHO   H2330922  11.184  11.336   3.130
 3994ETHO    O130923  11.140  11.496   3.016
 3994ETHO    C130924  11.016  11.524   3.081
 3994ETHO   H1130925  11.026  11.610   3.152
 3994ETHO   H1330926  10.994  11.439   3.149
 3994ETHO    C230927  10.902  11.560   2.992
 3994ETHO   H2130928  10.937  11.631   2.913
 3994ETHO   H2330929  10.816  11.611   3.040
 3995ETHO    O130930  10.853  11.438   2.936
 3995ETHO    C130931  10.758  11.466   2.828
 3995ETHO   H1130932  10.688  11.544   2.866
 3995ETHO   H1330933  10.823  11.502   2.745
 3995ETHO    C230934  10.674  11.344   2.778
 3995ETHO   H2130935  10.740  11.256   2.763
 3995ETHO   H2330936  10.634  11.374   2.679
 3996ETHO    O130937  10.570  11.319   2.865
 3996ETHO    C130938  10.510  11.190   2.834
 3996ETHO   H1130939  10.580  11.104   2.843
 3996ETHO   H1330940  10.466  11.193   2.731
 3996ETHO    C230941  10.391  11.168   2.927
 3996ETHO   H2130942  10.334  11.084   2.882
 3996ETHO   H2330943  10.315  11.248   2.915
 3997ETHO    O130944  10.433  11.147   3.058
 3997ETHO    C130945  10.328  11.161   3.147
 3997ETHO   H1130946  10.267  11.254   3.143
 3997ETHO   H1330947  10.265  11.070   3.141
 3997ETHO    C230948  10.389  11.156   3.282
 3997ETHO   H2130949  10.301  11.141   3.348
 3997ETHO   H2330950  10.442  11.060   3.298
 3998ETHO    O130951  10.465  11.262   3.339
 3998ETHO    C130952  10.388  11.374   3.366
 3998ETHO   H1130953  10.289  11.370   3.315
 3998ETHO   H1330954  10.441  11.464   3.329
 3998ETHO    C230955  10.349  11.387   3.513
 3998ETHO   H2130956  10.301  11.294   3.547
 3998ETHO   H2330957  10.287  11.477   3.533
 3999ETHO    O130958  10.469  11.419   3.588
 3999ETHO    C130959  10.453  11.431   3.723
 3999ETHO   H1130960  10.405  11.529   3.744
 3999ETHO   H1330961  10.383  11.356   3.766
 3999ETHO    C230962  10.582  11.428   3.809
 3999ETHO   H2130963  10.640  11.336   3.784
 3999ETHO   H2330964  10.564  11.404   3.916
 4000ETHO    O130965  10.667  11.537   3.791
 4000ETHO    C130966  10.784  11.522   3.857
 4000ETHO   H1130967  10.835  11.425   3.837
 4000ETHO   H1330968  10.755  11.522   3.964
 4000ETHO    C230969  10.874  11.642   3.837
 4000ETHO   H2130970  10.875  11.675   3.731
 4000ETHO   H2330971  10.977  11.602   3.844
 4001ETHO    O130972  10.864  11.745   3.933
 4001ETHO    C130973  10.959  11.854   3.901
 4001ETHO   H1130974  11.016  11.891   3.990
 4001ETHO   H1330975  11.037  11.817   3.832
 4001ETHO    C230976  10.891  11.965   3.827
 4001ETHO   H2130977  10.972  12.027   3.782
 4001ETHO   H2330978  10.812  12.013   3.888
 4002ETHO    O130979  10.826  11.921   3.703
 4002ETHO    C130980  10.751  12.027   3.650
 4002ETHO   H1130981  10.806  12.097   3.584
 4002ETHO   H1330982  10.723  12.091   3.737
 4002ETHO    C230983  10.618  11.963   3.582
 4002ETHO   H2130984  10.667  11.898   3.506
 4002ETHO   H2330985  10.550  12.028   3.523
 4003ETHO    O130986  10.535  11.904   3.682
 4003ETHO    C130987  10.427  11.832   3.629
 4003ETHO   H1130988  10.460  11.775   3.540
 4003ETHO   H1330989  10.390  11.755   3.700
 4003ETHO    C230990  10.308  11.933   3.594
 4003ETHO   H2130991  10.262  11.873   3.513
 4003ETHO   H2330992  10.344  12.029   3.552
 4004ETHO    O130993  10.219  11.952   3.704
 4004ETHO    C130994  10.141  12.070   3.694
 4004ETHO   H1130995  10.212  12.150   3.663
 4004ETHO   H1330996  10.102  12.092   3.795
 4004ETHO    C230997  10.021  12.044   3.599
 4004ETHO   H2130998   9.949  12.128   3.605
 4004ETHO   H2330999   9.963  11.957   3.635
 4005ETHO    O131000  10.054  12.021   3.460
 4005ETHO    C131001   9.954  11.942   3.396
 4005ETHO   H1131002   9.955  11.836   3.430
 4005ETHO   H1331003   9.856  11.982   3.431
 4005ETHO    C231004   9.964  11.951   3.248
 4005ETHO   H2131005   9.997  12.044   3.197
 4005ETHO   H2331006   9.860  11.931   3.214
 4006ETHO    O131007  10.045  11.842   3.205
 4006ETHO    C131008  10.016  11.819   3.066
 4006ETHO   H1131009   9.911  11.786   3.048
 4006ETHO   H1331010  10.039  11.906   3.000
 4006ETHO    C231011  10.083  11.702   2.990
 4006ETHO   H2131012  10.040  11.699   2.888
 4006ETHO   H2331013  10.066  11.605   3.042
 4007ETHO    O131014  10.223  11.723   2.981
 4007ETHO    C131015  10.288  11.605   2.933
 4007ETHO   H1131016  10.230  11.563   2.848
 4007ETHO   H1331017  10.383  11.640   2.888
 4007ETHO    C231018  10.336  11.514   3.040
 4007ETHO   H2131019  10.400  11.434   2.997
 4007ETHO   H2331020  10.252  11.472   3.099
 4008ETHO    O131021  10.405  11.584   3.143
 4008ETHO    C131022  10.533  11.630   3.111
 4008ETHO   H1131023  10.598  11.540   3.107
 4008ETHO   H1331024  10.534  11.685   3.015
 4008ETHO    C231025  10.585  11.731   3.215
 4008ETHO   H2131026  10.693  11.746   3.194
 4008ETHO   H2331027  10.572  11.688   3.316
 4009ETHO    O131028  10.545  11.868   3.218
 4009ETHO    C131029  10.408  11.888   3.259
 4009ETHO   H1131030  10.385  11.830   3.351
 4009ETHO   H1331031  10.357  11.829   3.179
 4009ETHO    C231032  10.347  12.024   3.251
 4009ETHO   H2131033  10.244  11.999   3.285
 4009ETHO   H2331034  10.351  12.062   3.147
 4010ETHO    O131035  10.424  12.104   3.336
 4010ETHO    C131036  10.387  12.241   3.353
 4010ETHO   H1131037  10.427  12.270   3.452
 4010ETHO   H1331038  10.440  12.294   3.270
 4010ETHO    C231039  10.238  12.279   3.337
 4010ETHO   H2131040  10.218  12.377   3.385
 4010ETHO   H2331041  10.189  12.215   3.413
 4011ETHO    O131042  10.167  12.283   3.213
 4011ETHO    C131043  10.036  12.335   3.241
 4011ETHO   H1131044  10.040  12.442   3.268
 4011ETHO   H1331045  10.002  12.282   3.333
 4011ETHO    C231046   9.932  12.323   3.130
 4011ETHO   H2131047   9.828  12.326   3.171
 4011ETHO   H2331048   9.942  12.225   3.079
 4012ETHO    O131049   9.926  12.428   3.034
 4012ETHO    C131050   9.813  12.418   2.943
 4012ETHO   H1131051   9.831  12.337   2.869
 4012ETHO   H1331052   9.718  12.387   2.993
 4012ETHO    C231053   9.793  12.562   2.879
 4012ETHO   H2131054   9.782  12.630   2.967
 4012ETHO   H2331055   9.706  12.552   2.811
 4013ETHO    O131056   9.910  12.607   2.810
 4013ETHO    C131057   9.927  12.745   2.828
 4013ETHO   H1131058   9.911  12.772   2.934
 4013ETHO   H1331059   9.844  12.791   2.771
 4013ETHO    C231060  10.064  12.791   2.789
 4013ETHO   H2131061  10.066  12.898   2.760
 4013ETHO   H2331062  10.097  12.738   2.697
 4014ETHO    O131063  10.157  12.776   2.890
 4014ETHO    C131064  10.285  12.772   2.833
 4014ETHO   H1131065  10.278  12.694   2.754
 4014ETHO   H1331066  10.300  12.868   2.779
 4014ETHO    C231067  10.416  12.736   2.913
 4014ETHO   H2131068  10.495  12.696   2.846
 4014ETHO   H2331069  10.395  12.656   2.987
 4015ETHO    O131070  10.458  12.852   2.983
 4015ETHO    C131071  10.350  12.893   3.067
 4015ETHO   H1131072  10.283  12.811   3.102
 4015ETHO   H1331073  10.292  12.967   3.007
 4015ETHO    C231074  10.416  12.969   3.176
 4015ETHO   H2131075  10.490  12.906   3.229
 4015ETHO   H2331076  10.334  13.020   3.232
 4016ETHO    O131077  10.494  13.079   3.130
 4016ETHO    C131078  10.531  13.163   3.240
 4016ETHO   H1131079  10.593  13.251   3.214
 4016ETHO   H1331080  10.440  13.199   3.294
 4016ETHO    C231081  10.615  13.101   3.354
 4016ETHO   H2131082  10.584  13.001   3.391
 4016ETHO   H2331083  10.614  13.162   3.447
 4017ETHO    O131084  10.756  13.099   3.334
 4017ETHO    C131085  10.793  13.015   3.227
 4017ETHO   H1131086  10.707  12.988   3.163
 4017ETHO   H1331087  10.846  13.079   3.153
 4017ETHO    C231088  10.875  12.889   3.250
 4017ETHO   H2131089  10.888  12.837   3.153
 4017ETHO   H2331090  10.821  12.830   3.327
 4018ETHO    O131091  11.010  12.912   3.285
 4018ETHO    C131092  11.020  12.919   3.431
 4018ETHO   H1131093  10.937  12.982   3.470
 4018ETHO   H1331094  11.016  12.812   3.463
 4018ETHO    C231095  11.160  12.968   3.470
 4018ETHO   H2131096  11.161  12.994   3.578
 4018ETHO   H2331097  11.174  13.069   3.423
 4019ETHO    O131098  11.259  12.870   3.444
 4019ETHO    C131099  11.381  12.933   3.423
 4019ETHO   H1131100  11.363  13.019   3.355
 4019ETHO   H1331101  11.438  12.966   3.513
 4019ETHO    C231102  11.464  12.833   3.342
 4019ETHO   H2131103  11.546  12.887   3.290
 4019ETHO   H2331104  11.398  12.793   3.262
 4020ETHO    O131105  11.503  12.726   3.432
 4020ETHO    C131106  11.558  12.612   3.370
 4020ETHO   H1131107  11.640  12.631   3.298
 4020ETHO   H1331108  11.472  12.558   3.326
 4020ETHO    C231109  11.615  12.521   3.481
 4020ETHO   H2131110  11.704  12.575   3.521
 4020ETHO   H2331111  11.655  12.430   3.432
 4021ETHO    O131112  11.536  12.478   3.594
 4021ETHO    C131113  11.610  12.435   3.701
 4021ETHO   H1131114  11.688  12.364   3.666
 4021ETHO   H1331115  11.664  12.522   3.746
 4021ETHO    C231116  11.513  12.371   3.806
 4021ETHO   H2131117  11.579  12.321   3.880
 4021ETHO   H2331118  11.442  12.290   3.780
 4022ETHO    O131119  11.431  12.467   3.865
 4022ETHO    C131120  11.391  12.411   3.987
 4022ETHO   H1131121  11.473  12.385   4.058
 4022ETHO   H1331122  11.335  12.317   3.967
 4022ETHO    C231123  11.292  12.504   4.065
 4022ETHO   H2131124  11.229  12.437   4.128
 4022ETHO   H2331125  11.223  12.559   3.998
 4023ETHO    O131126  11.351  12.599   4.153
 4023ETHO    C131127  11.406  12.705   4.080
 4023ETHO   H1131128  11.512  12.676   4.061
 4023ETHO   H1331129  11.353  12.735   3.988
 4023ETHO    C231130  11.416  12.834   4.173
 4023ETHO   H2131131  11.467  12.794   4.263
 4023ETHO   H2331132  11.481  12.912   4.128
 4024ETHO    O131133  11.290  12.889   4.198
 4024ETHO    C131134  11.292  12.991   4.297
 4024ETHO   H1131135  11.380  13.059   4.290
 4024ETHO   H1331136  11.308  12.936   4.392
 4024ETHO    C231137  11.165  13.069   4.287
 4024ETHO   H2131138  11.166  13.137   4.375
 4024ETHO   H2331139  11.077  13.001   4.295
 4025ETHO    O131140  11.169  13.146   4.175
 4025ETHO    C131141  11.065  13.248   4.168
 4025ETHO   H1131142  10.965  13.201   4.180
 4025ETHO   H1331143  11.083  13.331   4.240
 4025ETHO    C231144  11.058  13.305   4.028
 4025ETHO   H2131145  11.161  13.332   3.994
 4025ETHO   H2331146  11.002  13.401   4.032
 4026ETHO    O131147  10.987  13.217   3.945
 4026ETHO    C131148  10.960  13.268   3.817
 4026ETHO   H1131149  11.048  13.324   3.778
 4026ETHO   H1331150  10.877  13.341   3.825
 4026ETHO    C231151  10.917  13.157   3.715
 4026ETHO   H2131152  10.999  13.085   3.693
 4026ETHO   H2331153  10.886  13.210   3.623
 4027ETHO    O131154  10.803  13.088   3.770
 4027ETHO    C131155  10.766  12.976   3.689
 4027ETHO   H1131156  10.738  13.008   3.587
 4027ETHO   H1331157  10.859  12.916   3.682
 4027ETHO    C231158  10.658  12.883   3.748
 4027ETHO   H2131159  10.663  12.908   3.856
 4027ETHO   H2331160  10.692  12.779   3.732
 4028ETHO    O131161  10.527  12.915   3.712
 4028ETHO    C131162  10.440  12.817   3.759
 4028ETHO   H1131163  10.467  12.726   3.702
 4028ETHO   H1331164  10.449  12.800   3.869
 4028ETHO    C231165  10.299  12.847   3.710
 4028ETHO   H2131166  10.242  12.753   3.700
 4028ETHO   H2331167  10.292  12.889   3.607
 4029ETHO    O131168  10.230  12.930   3.800
 4029ETHO    C131169  10.092  12.942   3.761
 4029ETHO   H1131170  10.051  12.849   3.716
 4029ETHO   H1331171  10.033  12.958   3.854
 4029ETHO    C231172  10.068  13.068   3.678
 4029ETHO   H2131173   9.957  13.069   3.668
 4029ETHO   H2331174  10.114  13.049   3.579
 4030ETHO    O131175  10.114  13.187   3.731
 4030ETHO    C131176  10.112  13.291   3.638
 4030ETHO   H1131177  10.185  13.276   3.556
 4030ETHO   H1331178  10.004  13.299   3.615
 4030ETHO    C231179  10.159  13.417   3.709
 4030ETHO   H2131180  10.081  13.477   3.760
 4030ETHO   H2331181  10.229  13.379   3.786
 4031ETHO    O131182  10.233  13.502   3.625
 4031ETHO    C131183  10.245  13.627   3.697
 4031ETHO   H1131184  10.290  13.610   3.797
 4031ETHO   H1331185  10.148  13.680   3.707
 4031ETHO    C231186  10.357  13.711   3.629
 4031ETHO   H2131187  10.348  13.815   3.668
 4031ETHO   H2331188  10.334  13.713   3.520
 4032ETHO    O131189  10.497  13.676   3.642
 4032ETHO    C131190  10.591  13.765   3.591
 4032ETHO   H1131191  10.558  13.775   3.485
 4032ETHO   H1331192  10.575  13.861   3.645
 4032ETHO    C231193  10.738  13.737   3.592
 4032ETHO   H2131194  10.771  13.714   3.695
 4032ETHO   H2331195  10.800  13.824   3.561
 4033ETHO    O131196  10.773  13.620   3.510
 4033ETHO    C131197  10.912  13.594   3.506
 4033ETHO   H1131198  10.944  13.582   3.611
 4033ETHO   H1331199  10.961  13.684   3.464
 4033ETHO    C231200  10.949  13.457   3.447
 4033ETHO   H2131201  10.860  13.393   3.467
 4033ETHO   H2331202  11.046  13.436   3.496
 4034ETHO    O131203  10.975  13.480   3.315
 4034ETHO    C131204  11.012  13.361   3.244
 4034ETHO   H1131205  11.071  13.295   3.311
 4034ETHO   H1331206  10.921  13.301   3.222
 4034ETHO    C231207  11.089  13.388   3.120
 4034ETHO   H2131208  11.133  13.298   3.071
 4034ETHO   H2331209  11.173  13.458   3.141
 4035ETHO    O131210  11.009  13.439   3.010
 4035ETHO    C131211  10.941  13.338   2.943
 4035ETHO   H1131212  10.872  13.269   2.996
 4035ETHO   H1331213  11.014  13.267   2.900
 4035ETHO    C231214  10.856  13.408   2.838
 4035ETHO   H2131215  10.794  13.484   2.891
 4035ETHO   H2331216  10.782  13.337   2.794
 4036ETHO    O131217  10.928  13.465   2.727
 4036ETHO    C131218  10.836  13.499   2.628
 4036ETHO   H1131219  10.786  13.405   2.594
 4036ETHO   H1331220  10.761  13.564   2.677
 4036ETHO    C231221  10.897  13.563   2.509
 4036ETHO   H2131222  10.981  13.503   2.467
 4036ETHO   H2331223  10.942  13.662   2.531
 4037ETHO    O131224  10.789  13.598   2.424
 4037ETHO    C131225  10.825  13.671   2.307
 4037ETHO   H1131226  10.903  13.618   2.248
 4037ETHO   H1331227  10.874  13.767   2.333
 4037ETHO    C231228  10.702  13.708   2.227
 4037ETHO   H2131229  10.728  13.778   2.146
 4037ETHO   H2331230  10.631  13.763   2.293
 4038ETHO    O131231  10.631  13.591   2.181
 4038ETHO    C131232  10.701  13.528   2.077
 4038ETHO   H1131233  10.727  13.592   1.990
 4038ETHO   H1331234  10.802  13.488   2.102
 4038ETHO    C231235  10.621  13.408   2.034
 4038ETHO   H2131236  10.613  13.332   2.115
 4038ETHO   H2331237  10.673  13.360   1.948
 4039ETHO    O131238  10.492  13.443   1.980
 4039ETHO    C131239  10.388  13.351   2.006
 4039ETHO   H1131240  10.379  13.323   2.113
 4039ETHO   H1331241  10.408  13.259   1.947
 4039ETHO    C231242  10.253  13.400   1.950
 4039ETHO   H2131243  10.249  13.390   1.839
 4039ETHO   H2331244  10.242  13.506   1.981
 4040ETHO    O131245  10.151  13.327   2.022
 4040ETHO    C131246  10.033  13.311   1.949
 4040ETHO   H1131247  10.005  13.415   1.923
 4040ETHO   H1331248  10.056  13.244   1.863
 4040ETHO    C231249   9.920  13.253   2.030
 4040ETHO   H2131250   9.832  13.245   1.963
 4040ETHO   H2331251   9.880  13.313   2.114
 4041ETHO    O131252   9.958  13.126   2.073
 4041ETHO    C131253   9.852  13.036   2.059
 4041ETHO   H1131254   9.806  13.035   1.959
 4041ETHO   H1331255   9.775  13.065   2.134
 4041ETHO    C231256   9.896  12.888   2.083
 4041ETHO   H2131257   9.802  12.829   2.091
 4041ETHO   H2331258   9.945  12.883   2.183
 4042ETHO    O131259   9.986  12.822   1.998
 4042ETHO    C131260   9.956  12.826   1.863
 4042ETHO   H1131261   9.855  12.789   1.838
 4042ETHO   H1331262   9.972  12.929   1.823
 4042ETHO    C231263  10.039  12.720   1.791
 4042ETHO   H2131264  10.146  12.744   1.809
 4042ETHO   H2331265  10.028  12.732   1.681
 4043ETHO    O131266  10.001  12.588   1.824
 4043ETHO    C131267  10.096  12.490   1.778
 4043ETHO   H1131268  10.041  12.412   1.721
 4043ETHO   H1331269  10.183  12.531   1.722
 4043ETHO    C231270  10.148  12.395   1.890
 4043ETHO   H2131271  10.202  12.313   1.838
 4043ETHO   H2331272  10.059  12.350   1.940
 4044ETHO    O131273  10.242  12.455   1.977
 4044ETHO    C131274  10.243  12.397   2.103
 4044ETHO   H1131275  10.167  12.440   2.171
 4044ETHO   H1331276  10.254  12.287   2.095
 4044ETHO    C231277  10.377  12.446   2.158
 4044ETHO   H2131278  10.453  12.434   2.078
 4044ETHO   H2331279  10.409  12.386   2.246
 4045ETHO    O131280  10.376  12.583   2.197
 4045ETHO    C131281  10.504  12.627   2.248
 4045ETHO   H1131282  10.543  12.560   2.328
 4045ETHO   H1331283  10.573  12.634   2.161
 4045ETHO    C231284  10.494  12.767   2.312
 4045ETHO   H2131285  10.583  12.781   2.377
 4045ETHO   H2331286  10.401  12.785   2.369
 4046ETHO    O131287  10.499  12.864   2.213
 4046ETHO    C131288  10.455  12.993   2.251
 4046ETHO   H1131289  10.359  12.983   2.306
 4046ETHO   H1331290  10.424  13.050   2.160
 4046ETHO    C231291  10.558  13.082   2.320
 4046ETHO   H2131292  10.580  13.062   2.427
 4046ETHO   H2331293  10.518  13.185   2.326
 4047ETHO    O131294  10.677  13.083   2.248
 4047ETHO    C131295  10.783  13.159   2.315
 4047ETHO   H1131296  10.742  13.260   2.334
 4047ETHO   H1331297  10.814  13.110   2.410
 4047ETHO    C231298  10.899  13.183   2.225
 4047ETHO   H2131299  10.946  13.085   2.202
 4047ETHO   H2331300  10.971  13.244   2.284
 4048ETHO    O131301  10.853  13.246   2.107
 4048ETHO    C131302  10.935  13.227   1.995
 4048ETHO   H1131303  10.866  13.247   1.910
 4048ETHO   H1331304  10.963  13.120   1.992
 4048ETHO    C231305  11.054  13.314   2.019
 4048ETHO   H2131306  11.130  13.290   1.941
 4048ETHO   H2331307  11.102  13.300   2.118
 4049ETHO    O131308  11.031  13.455   1.995
 4049ETHO    C131309  11.135  13.529   2.059
 4049ETHO   H1131310  11.119  13.534   2.169
 4049ETHO   H1331311  11.233  13.482   2.041
 4049ETHO    C231312  11.147  13.671   2.000
 4049ETHO   H2131313  11.108  13.684   1.897
 4049ETHO   H2331314  11.256  13.695   1.997
 4050ETHO    O131315  11.081  13.774   2.083
 4050ETHO    C131316  11.071  13.898   2.022
 4050ETHO   H1131317  11.005  13.894   1.933
 4050ETHO   H1331318  11.170  13.942   1.994
 4050ETHO    C231319  11.001  13.998   2.109
 4050ETHO   H2131320  11.047  13.989   2.210
 4050ETHO   H2331321  10.895  13.966   2.114
 4051ETHO    O131322  11.028  14.123   2.054
 4051ETHO    C131323  11.012  14.225   2.148
 4051ETHO   H1131324  10.973  14.312   2.090
 4051ETHO   H1331325  10.927  14.192   2.212
 4051ETHO    C231326  11.145  14.252   2.230
 4051ETHO   H2131327  11.176  14.155   2.274
 4051ETHO   H2331328  11.108  14.322   2.307
 4052ETHO    O131329  11.252  14.306   2.154
 4052ETHO    C131330  11.382  14.257   2.196
 4052ETHO   H1131331  11.377  14.213   2.298
 4052ETHO   H1331332  11.453  14.342   2.209
 4052ETHO    C231333  11.453  14.161   2.106
 4052ETHO   H2131334  11.564  14.174   2.104
 4052ETHO   H2331335  11.420  14.188   2.003
 4053ETHO    O131336  11.422  14.021   2.139
 4053ETHO    C131337  11.473  13.928   2.043
 4053ETHO   H1131338  11.405  13.841   2.028
 4053ETHO   H1331339  11.485  13.978   1.945
 4053ETHO    C231340  11.619  13.882   2.087
 4053ETHO   H2131341  11.673  13.969   2.130
 4053ETHO   H2331342  11.666  13.864   1.988
 4054ETHO    O131343  11.616  13.762   2.169
 4054ETHO    C131344  11.613  13.642   2.094
 4054ETHO   H1131345  11.517  13.645   2.036
 4054ETHO   H1331346  11.701  13.638   2.026
 4054ETHO    C231347  11.591  13.528   2.201
 4054ETHO   H2131348  11.655  13.536   2.291
 4054ETHO   H2331349  11.612  13.429   2.156
 4055ETHO    O131350  11.453  13.526   2.252
 4055ETHO    C131351  11.422  13.398   2.310
 4055ETHO   H1131352  11.415  13.315   2.237
 4055ETHO   H1331353  11.504  13.377   2.382
 4055ETHO    C231354  11.305  13.421   2.406
 4055ETHO   H2131355  11.215  13.420   2.342
 4055ETHO   H2331356  11.308  13.520   2.457
 4056ETHO    O131357  11.295  13.318   2.504
 4056ETHO    C131358  11.247  13.370   2.626
 4056ETHO   H1131359  11.165  13.441   2.600
 4056ETHO   H1331360  11.197  13.287   2.681
 4056ETHO    C231361  11.362  13.423   2.716
 4056ETHO   H2131362  11.435  13.484   2.658
 4056ETHO   H2331363  11.317  13.501   2.782
 4057ETHO    O131364  11.428  13.332   2.794
 4057ETHO    C131365  11.533  13.390   2.871
 4057ETHO   H1131366  11.513  13.494   2.904
 4057ETHO   H1331367  11.619  13.395   2.801
 4057ETHO    C231368  11.586  13.311   2.988
 4057ETHO   H2131369  11.676  13.359   3.032
 4057ETHO   H2331370  11.613  13.210   2.951
 4058ETHO    O131371  11.483  13.294   3.090
 4058ETHO    C131372  11.538  13.291   3.226
 4058ETHO   H1131373  11.610  13.207   3.241
 4058ETHO   H1331374  11.603  13.378   3.246
 4058ETHO    C231375  11.417  13.297   3.316
 4058ETHO   H2131376  11.348  13.217   3.282
 4058ETHO   H2331377  11.369  13.395   3.295
 4059ETHO    O131378  11.434  13.271   3.455
 4059ETHO    C131379  11.323  13.321   3.530
 4059ETHO   H1131380  11.227  13.276   3.495
 4059ETHO   H1331381  11.322  13.431   3.518
 4059ETHO    C231382  11.337  13.296   3.679
 4059ETHO   H2131383  11.246  13.340   3.726
 4059ETHO   H2331384  11.429  13.353   3.706
 4060ETHO    O131385  11.353  13.158   3.686
 4060ETHO    C131386  11.368  13.114   3.824
 4060ETHO   H1131387  11.437  13.183   3.877
 4060ETHO   H1331388  11.270  13.109   3.876
 4060ETHO    C231389  11.439  12.977   3.833
 4060ETHO   H2131390  11.394  12.901   3.766
 4060ETHO   H2331391  11.423  12.927   3.930
 4061ETHO    O131392  11.578  12.993   3.813
 4061ETHO    C131393  11.648  12.870   3.814
 4061ETHO   H1131394  11.630  12.818   3.717
 4061ETHO   H1331395  11.599  12.809   3.892
 4061ETHO    C231396  11.798  12.872   3.836
 4061ETHO   H2131397  11.842  12.954   3.776
 4061ETHO   H2331398  11.848  12.779   3.803
 4062ETHO    O131399  11.843  12.899   3.967
 4062ETHO    C131400  11.984  12.907   3.975
 4062ETHO   H1131401  12.027  12.811   3.939
 4062ETHO   H1331402  12.034  12.983   3.911
 4062ETHO    C231403  12.036  12.930   4.119
 4062ETHO   H2131404  11.973  12.860   4.178
 4062ETHO   H2331405  12.014  13.036   4.144
 4063ETHO    O131406  12.176  12.914   4.130
 4063ETHO    C131407  12.212  12.778   4.146
 4063ETHO   H1131408  12.207  12.722   4.051
 4063ETHO   H1331409  12.142  12.733   4.220
 4063ETHO    C231410  12.346  12.762   4.209
 4063ETHO   H2131411  12.430  12.812   4.157
 4063ETHO   H2331412  12.383  12.657   4.206
 4064ETHO    O131413  12.348  12.808   4.341
 4064ETHO    C131414  12.324  12.707   4.438
 4064ETHO   H1131415  12.230  12.650   4.424
 4064ETHO   H1331416  12.407  12.634   4.436
 4064ETHO    C231417  12.326  12.782   4.574
 4064ETHO   H2131418  12.278  12.704   4.637
 4064ETHO   H2331419  12.275  12.880   4.573
 4065ETHO    O131420  12.454  12.794   4.636
 4065ETHO    C131421  12.460  12.884   4.749
 4065ETHO   H1131422  12.566  12.885   4.783
 4065ETHO   H1331423  12.432  12.985   4.712
 4065ETHO    C231424  12.361  12.862   4.868
 4065ETHO   H2131425  12.355  12.756   4.902
 4065ETHO   H2331426  12.257  12.892   4.845
 4066ETHO    O131427  12.403  12.938   4.979
 4066ETHO    C131428  12.455  12.860   5.090
 4066ETHO   H1131429  12.392  12.778   5.132
 4066ETHO   H1331430  12.551  12.812   5.061
 4066ETHO    C231431  12.485  12.947   5.210
 4066ETHO   H2131432  12.549  13.035   5.187
 4066ETHO   H2331433  12.539  12.890   5.290
 4067ETHO    O131434  12.363  12.978   5.284
 4067ETHO    C131435  12.382  13.085   5.380
 4067ETHO   H1131436  12.487  13.094   5.415
 4067ETHO   H1331437  12.354  13.175   5.322
 4067ETHO    C231438  12.293  13.075   5.503
 4067ETHO   H2131439  12.200  13.025   5.472
 4067ETHO   H2331440  12.254  13.175   5.531
 4068ETHO    O131441  12.360  13.035   5.615
 4068ETHO    C131442  12.270  12.968   5.703
 4068ETHO   H1131443  12.216  12.878   5.667
 4068ETHO   H1331444  12.195  13.046   5.729
 4068ETHO    C231445  12.343  12.931   5.826
 4068ETHO   H2131446  12.426  12.861   5.802
 4068ETHO   H2331447  12.275  12.872   5.892
 4069ETHO    O131448  12.391  13.041   5.897
 4069ETHO    C131449  12.405  13.005   6.030
 4069ETHO   H1131450  12.305  12.988   6.075
 4069ETHO   H1331451  12.456  12.907   6.043
 4069ETHO    C231452  12.476  13.113   6.114
 4069ETHO   H2131453  12.416  13.206   6.114
 4069ETHO   H2331454  12.575  13.135   6.070
 4070ETHO    O131455  12.499  13.069   6.248
 4070ETHO    C131456  12.524  13.178   6.343
 4070ETHO   H1131457  12.429  13.224   6.377
 4070ETHO   H1331458  12.591  13.254   6.298
 4070ETHO    C231459  12.594  13.115   6.471
 4070ETHO   H2131460  12.659  13.196   6.511
 4070ETHO   H2331461  12.663  13.035   6.436
 4071ETHO    O131462  12.483  13.075   6.556
 4071ETHO    C131463  12.520  12.973   6.650
 4071ETHO   H1131464  12.496  12.875   6.603
 4071ETHO   H1331465  12.629  12.978   6.669
 4071ETHO    C231466  12.440  12.977   6.774
 4071ETHO   H2131467  12.458  12.887   6.836
 4071ETHO   H2331468  12.336  12.980   6.737
 4072ETHO    O131469  12.454  13.093   6.843
 4072ETHO    C131470  12.372  13.088   6.958
 4072ETHO   H1131471  12.391  12.992   7.010
 4072ETHO   H1331472  12.266  13.096   6.926
 4072ETHO    C231473  12.409  13.199   7.058
 4072ETHO   H2131474  12.419  13.299   7.010
 4072ETHO   H2331475  12.509  13.176   7.100
 4073ETHO    O131476  12.315  13.213   7.162
 4073ETHO    C131477  12.376  13.296   7.263
 4073ETHO   H1131478  12.464  13.243   7.307
 4073ETHO   H1331479  12.401  13.392   7.214
 4073ETHO    C231480  12.277  13.330   7.390
 4073ETHO   H2131481  12.184  13.377   7.349
 4073ETHO   H2331482  12.333  13.404   7.452
 4074ETHO    O131483  12.263  13.214   7.471
 4074ETHO    C131484  12.155  13.225   7.560
 4074ETHO   H1131485  12.060  13.210   7.505
 4074ETHO   H1331486  12.149  13.326   7.605
 4074ETHO    C231487  12.190  13.124   7.673
 4074ETHO   H2131488  12.205  13.024   7.627
 4074ETHO   H2331489  12.102  13.117   7.740
 4075ETHO    O131490  12.297  13.145   7.751
 4075ETHO    C131491  12.311  13.055   7.859
 4075ETHO   H1131492  12.215  13.002   7.877
 4075ETHO   H1331493  12.383  12.978   7.823
 4075ETHO    C231494  12.351  13.110   7.992
 4075ETHO   H2131495  12.316  13.215   7.992
 4075ETHO   H2331496  12.462  13.109   7.986
 4076PROX    O131497  12.285  13.034   8.093
 4076PROX    C131498  12.296  13.097   8.222
 4076PROX   H1131499  12.304  13.206   8.208
 4076PROX   H1331500  12.199  13.085   8.276
 4076PROX    C231501  12.420  13.044   8.301
 4076PROX   H2131502  12.507  13.066   8.235
 4076PROX    C331503  12.391  12.902   8.334
 4076PROX   H3131504  12.472  12.849   8.389
 4076PROX   H3231505  12.298  12.883   8.392
 4076PROX   H3331506  12.392  12.840   8.242
 4077PROX    O131507  12.425  13.101   8.432
 4077PROX    C131508  12.561  13.127   8.471
 4077PROX   H1131509  12.631  13.086   8.395
 4077PROX   H1331510  12.582  13.235   8.462
 4077PROX    C231511  12.598  13.064   8.606
 4077PROX   H2131512  12.533  12.974   8.620
 4077PROX    C331513  12.577  13.142   8.735
 4077PROX   H3131514  12.474  13.182   8.744
 4077PROX   H3231515  12.593  13.075   8.822
 4077PROX   H3331516  12.656  13.220   8.735
 4078PROX    O131517  12.736  13.026   8.608
 4078PROX    C131518  12.769  12.910   8.524
 4078PROX   H1131519  12.676  12.864   8.485
 4078PROX   H1331520  12.823  12.949   8.435
 4078PROX    C231521  12.843  12.801   8.602
 4078PROX   H2131522  12.765  12.755   8.667
 4078PROX    C331523  12.957  12.862   8.694
 4078PROX   H3131524  13.046  12.886   8.631
 4078PROX   H3231525  12.918  12.953   8.744
 4078PROX   H3331526  12.979  12.787   8.773
 4079PROX    O131527  12.905  12.715   8.508
 4079PROX    C131528  12.811  12.609   8.471
 4079PROX   H1131529  12.708  12.648   8.484
 4079PROX   H1331530  12.818  12.586   8.363
 4079PROX    C231531  12.833  12.485   8.551
 4079PROX   H2131532  12.821  12.510   8.659
 4079PROX    C331533  12.975  12.431   8.537
 4079PROX   H3131534  13.000  12.342   8.599
 4079PROX   H3231535  12.997  12.409   8.430
 4079PROX   H3331536  13.042  12.517   8.556
 4080PROX    O131537  12.745  12.390   8.508
 4080PROX    C131538  12.732  12.266   8.591
 4080PROX   H1131539  12.653  12.201   8.547
 4080PROX   H1331540  12.825  12.206   8.598
 4080PROX    C231541  12.682  12.298   8.734
 4080PROX   H2131542  12.754  12.352   8.799
 4080PROX    C331543  12.660  12.163   8.802
 4080PROX   H3131544  12.754  12.131   8.851
 4080PROX   H3231545  12.585  12.161   8.884
 4080PROX   H3331546  12.639  12.085   8.725
 4081PROX    O131547  12.559  12.376   8.724
 4081PROX    C131548  12.558  12.512   8.775
 4081PROX   H1131549  12.568  12.510   8.886
 4081PROX   H1331550  12.639  12.579   8.739
 4081PROX    C231551  12.429  12.591   8.735
 4081PROX   H2131552  12.344  12.538   8.783
 4081PROX    C331553  12.401  12.595   8.584
 4081PROX   H3131554  12.300  12.638   8.565
 4081PROX   H3231555  12.464  12.669   8.530
 4081PROX   H3331556  12.410  12.497   8.533
 4082PROX    O131557  12.442  12.729   8.780
 4082PROX    C131558  12.422  12.734   8.922
 4082PROX   H1131559  12.317  12.768   8.936
 4082PROX   H1331560  12.436  12.636   8.973
 4082PROX    C231561  12.509  12.841   8.989
 4082PROX   H2131562  12.472  12.941   8.959
 4082PROX    C331563  12.655  12.848   8.956
 4082PROX   H3131564  12.691  12.952   8.968
 4082PROX   H3231565  12.721  12.782   9.017
 4082PROX   H3331566  12.671  12.834   8.847
 4083PROX    O131567  12.482  12.841   9.130
 4083PROX    C131568  12.351  12.889   9.168
 4083PROX   H1131569  12.351  13.000   9.155
 4083PROX   H1331570  12.263  12.858   9.108
 4083PROX    C231571  12.329  12.859   9.325
 4083PROX   H2131572  12.409  12.915   9.377
 4083PROX    C331573  12.325  12.708   9.356
 4083PROX   H3131574  12.396  12.643   9.301
 4083PROX   H3231575  12.311  12.696   9.466
 4083PROX   H3331576  12.226  12.674   9.317
 4084PROX    O131577  12.203  12.912   9.366
 4084PROX    C131578  12.213  13.037   9.439
 4084PROX   H1131579  12.265  13.108   9.372
 4084PROX   H1331580  12.107  13.071   9.438
 4084PROX    C231581  12.270  13.025   9.587
 4084PROX   H2131582  12.219  12.940   9.638
 4084PROX    C331583  12.235  13.152   9.676
 4084PROX   H3131584  12.238  13.127   9.785
 4084PROX   H3231585  12.315  13.227   9.664
 4084PROX   H3331586  12.133  13.194   9.662
 4085PROX    O131587  12.410  13.011   9.587
 4085PROX    C131588  12.457  12.965   9.710
 4085PROX   H1131589  12.452  13.046   9.786
 4085PROX   H1331590  12.394  12.877   9.735
 4085PROX    C231591  12.593  12.903   9.698
 4085PROX   H2131592  12.656  12.986   9.658
 4085PROX    C331593  12.582  12.797   9.589
 4085PROX   H3131594  12.682  12.756   9.561
 4085PROX   H3231595  12.512  12.721   9.631
 4085PROX   H3331596  12.540  12.838   9.496
 4086PROX    O131597  12.647  12.861   9.825
 4086PROX    C131598  12.765  12.790   9.820
 4086PROX   H1131599  12.749  12.695   9.764
 4086PROX   H1331600  12.844  12.846   9.765
 4086PROX    C231601  12.817  12.755   9.960
 4086PROX   H2131602  12.928  12.749   9.950
 4086PROX    C331603  12.779  12.614  10.007
 4086PROX   H3131604  12.825  12.606  10.108
 4086PROX   H3231605  12.670  12.597  10.019
 4086PROX   H3331606  12.827  12.538   9.942
 4087PROX    O131607  12.786  12.860  10.050
 4087PROX    C131608  12.844  12.983  10.023
 4087PROX   H1131609  12.954  12.990  10.028
 4087PROX   H1331610  12.810  13.019   9.923
 4087PROX    C231611  12.787  13.072  10.133
 4087PROX   H2131612  12.832  13.173  10.117
 4087PROX    C331613  12.840  13.044  10.272
 4087PROX   H3131614  12.951  13.037  10.273
 4087PROX   H3231615  12.791  13.111  10.346
 4087PROX   H3331616  12.819  12.938  10.295
 4088PROX    O131617  12.644  13.069  10.153
 4088PROX    C131618  12.572  13.127  10.050
 4088PROX   H1131619  12.613  13.094   9.952
 4088PROX   H1331620  12.471  13.087  10.070
 4088PROX    C231621  12.569  13.276  10.064
 4088PROX   H2131622  12.583  13.310  10.169
 4088PROX    C331623  12.450  13.330   9.995
 4088PROX   H3131624  12.442  13.441  10.002
 4088PROX   H3231625  12.456  13.299   9.889
 4088PROX   H3331626  12.354  13.286  10.030
 4089PROX    O131627  12.676  13.320   9.991
 4089PROX    C131628  12.716  13.458  10.012
 4089PROX   H1131629  12.636  13.534  10.006
 4089PROX   H1331630  12.757  13.466  10.115
 4089PROX    C231631  12.836  13.501   9.920
 4089PROX   H2131632  12.919  13.432   9.948
 4089PROX    C331633  12.880  13.653   9.940
 4089PROX   H3131634  12.911  13.671  10.046
 4089PROX   H3231635  12.970  13.667   9.876
 4089PROX   H3331636  12.797  13.726   9.931
 4090PROX    O131637  12.796  13.492   9.785
 4090PROX    C131638  12.841  13.368   9.722
 4090PROX   H1131639  12.786  13.287   9.774
 4090PROX   H1331640  12.801  13.366   9.618
 4090PROX    C231641  12.998  13.343   9.724
 4090PROX   H2131642  13.051  13.358   9.820
 4090PROX    C331643  13.073  13.448   9.638
 4090PROX   H3131644  13.053  13.553   9.669
 4090PROX   H3231645  13.182  13.428   9.630
 4090PROX   H3331646  13.047  13.434   9.531
 4091PROX    O131647  13.031  13.218   9.670
 4091PROX    C131648  12.995  13.103   9.747
 4091PROX   H1131649  13.026  13.120   9.852
 4091PROX   H1331650  12.887  13.079   9.730
 4091PROX    C231651  13.090  12.992   9.699
 4091PROX   H2131652  13.195  13.028   9.695
 4091PROX    C331653  13.061  12.960   9.552
 4091PROX   H3131654  12.956  12.931   9.530
 4091PROX   H3231655  13.085  13.051   9.493
 4091PROX   H3331656  13.129  12.881   9.516
 4092PROX    O131657  13.068  12.868   9.767
 4092PROX    C131658  13.187  12.781   9.757
 4092PROX   H1131659  13.262  12.797   9.677
 4092PROX   H1331660  13.240  12.794   9.854
 4092PROX    C231661  13.140  12.634   9.742
 4092PROX   H2131662  13.054  12.624   9.811
 4092PROX    C331663  13.251  12.545   9.793
 4092PROX   H3131664  13.250  12.540   9.904
 4092PROX   H3231665  13.228  12.442   9.757
 4092PROX   H3331666  13.345  12.584   9.748
 4093PROX    O131667  13.113  12.593   9.610
 4093PROX    C131668  12.981  12.614   9.565
 4093PROX   H1131669  12.933  12.706   9.603
 4093PROX   H1331670  12.988  12.632   9.456
 4093PROX    C231671  12.888  12.491   9.596
 4093PROX   H2131672  12.870  12.490   9.706
 4093PROX    C331673  12.953  12.357   9.547
 4093PROX   H3131674  12.986  12.385   9.445
 4093PROX   H3231675  13.042  12.330   9.607
 4093PROX   H3331676  12.871  12.283   9.535
 4094PROX    O131677  12.764  12.510   9.529
 4094PROX    C131678  12.653  12.443   9.591
 4094PROX   H1131679  12.683  12.344   9.632
 4094PROX   H1331680  12.610  12.497   9.677
 4094PROX    C231681  12.547  12.424   9.482
 4094PROX   H2131682  12.524  12.525   9.443
 4094PROX    C331683  12.416  12.367   9.543
 4094PROX   H3131684  12.436  12.283   9.613
 4094PROX   H3231685  12.360  12.450   9.590
 4094PROX   H3331686  12.356  12.333   9.456
 4095PROX    O131687  12.595  12.342   9.380
 4095PROX    C131688  12.648  12.424   9.276
 4095PROX   H1131689  12.576  12.498   9.233
 4095PROX   H1331690  12.726  12.494   9.312
 4095PROX    C231691  12.691  12.335   9.161
 4095PROX   H2131692  12.607  12.271   9.127
 4095PROX    C331693  12.797  12.232   9.199
 4095PROX   H3131694  12.782  12.177   9.295
 4095PROX   H3231695  12.799  12.159   9.116
 4095PROX   H3331696  12.900  12.272   9.209
 4096PROX    O131697  12.740  12.413   9.051
 4096PROX    C131698  12.834  12.512   9.086
 4096PROX   H1131699  12.782  12.598   9.133
 4096PROX   H1331700  12.906  12.476   9.163
 4096PROX    C231701  12.933  12.540   8.961
 4096PROX   H2131702  12.885  12.579   8.869
 4096PROX    C331703  13.002  12.410   8.928
 4096PROX   H3131704  13.088  12.431   8.861
 4096PROX   H3231705  13.049  12.369   9.020
 4096PROX   H3331706  12.930  12.334   8.892
 4097PROX    O131707  13.043  12.625   9.003
 4097PROX    C131708  13.020  12.749   9.058
 4097PROX   H1131709  12.950  12.798   8.987
 4097PROX   H1331710  12.973  12.751   9.159
 4097PROX    C231711  13.155  12.822   9.064
 4097PROX   H2131712  13.192  12.824   8.960
 4097PROX    C331713  13.258  12.744   9.150
 4097PROX   H3131714  13.256  12.640   9.114
 4097PROX   H3231715  13.363  12.775   9.135
 4097PROX   H3331716  13.222  12.740   9.256
 4098PROX    O131717  13.142  12.949   9.121
 4098PROX    C131718  13.058  13.042   9.049
 4098PROX   H1131719  13.113  13.059   8.954
 4098PROX   H1331720  12.961  12.996   9.021
 4098PROX    C231721  13.029  13.179   9.120
 4098PROX   H2131722  12.976  13.244   9.046
 4098PROX    C331723  13.162  13.230   9.186
 4098PROX   H3131724  13.139  13.318   9.250
 4098PROX   H3231725  13.186  13.147   9.255
 4098PROX   H3331726  13.236  13.248   9.105
 4099PROX    O131727  12.937  13.157   9.232
 4099PROX    C131728  12.873  13.275   9.280
 4099PROX   H1131729  12.922  13.299   9.377
 4099PROX   H1331730  12.886  13.360   9.210
 4099PROX    C231731  12.722  13.255   9.313
 4099PROX   H2131732  12.710  13.201   9.409
 4099PROX    C331733  12.664  13.166   9.198
 4099PROX   H3131734  12.673  13.209   9.096
 4099PROX   H3231735  12.708  13.064   9.191
 4099PROX   H3331736  12.556  13.143   9.205
 4100PROX    O131737  12.656  13.384   9.331
 4100PROX    C131738  12.511  13.370   9.335
 4100PROX   H1131739  12.460  13.402   9.242
 4100PROX   H1331740  12.479  13.266   9.355
 4100PROX    C231741  12.450  13.450   9.449
 4100PROX   H2131742  12.476  13.557   9.433
 4100PROX    C331743  12.500  13.399   9.586
 4100PROX   H3131744  12.601  13.441   9.607
 4100PROX   H3231745  12.437  13.431   9.671
 4100PROX   H3331746  12.511  13.289   9.581
 4101PROX    O131747  12.303  13.444   9.437
 4101PROX    C131748  12.235  13.552   9.509
 4101PROX   H1131749  12.183  13.506   9.596
 4101PROX   H1331750  12.299  13.639   9.537
 4101PROX    C231751  12.115  13.612   9.426
 4101PROX   H2131752  12.060  13.686   9.488
 4101PROX    C331753  12.022  13.501   9.398
 4101PROX   H3131754  12.054  13.456   9.302
 4101PROX   H3231755  12.032  13.411   9.462
 4101PROX   H3331756  11.914  13.526   9.392
 4102PROX    O131757  12.167  13.678   9.311
 4102PROX    C131758  12.074  13.762   9.241
 4102PROX   H1131759  12.003  13.714   9.171
 4102PROX   H1331760  12.010  13.803   9.322
 4102PROX    C231761  12.138  13.878   9.160
 4102PROX   H2131762  12.216  13.926   9.223
 4102PROX    C331763  12.030  13.986   9.115
 4102PROX   H3131764  11.933  13.943   9.081
 4102PROX   H3231765  12.006  14.039   9.209
 4102PROX   H3331766  12.074  14.051   9.037
 4103PROX    O131767  12.210  13.826   9.049
 4103PROX    C131768  12.338  13.769   9.078
 4103PROX   H1131769  12.379  13.815   9.171
 4103PROX   H1331770  12.314  13.660   9.086
 4103PROX    C231771  12.443  13.793   8.963
 4103PROX   H2131772  12.468  13.900   8.981
 4103PROX    C331773  12.377  13.761   8.830
 4103PROX   H3131774  12.430  13.782   8.735
 4103PROX   H3231775  12.349  13.655   8.816
 4103PROX   H3331776  12.282  13.818   8.837
 4104PROX    O131777  12.568  13.718   8.983
 4104PROX    C131778  12.609  13.718   9.115
 4104PROX   H1131779  12.537  13.681   9.190
 4104PROX   H1331780  12.695  13.648   9.114
 4104PROX    C231781  12.661  13.859   9.165
 4104PROX   H2131782  12.582  13.936   9.166
 4104PROX    C331783  12.764  13.906   9.060
 4104PROX   H3131784  12.786  14.010   9.090
 4104PROX   H3231785  12.859  13.849   9.067
 4104PROX   H3331786  12.726  13.907   8.956
 4105PROX    O131787  12.708  13.848   9.297
 4105PROX    C131788  12.609  13.864   9.398
 4105PROX   H1131789  12.581  13.971   9.386
 4105PROX   H1331790  12.517  13.809   9.370
 4105PROX    C231791  12.665  13.852   9.543
 4105PROX   H2131792  12.768  13.893   9.548
 4105PROX    C331793  12.671  13.707   9.585
 4105PROX   H3131794  12.702  13.647   9.497
 4105PROX   H3231795  12.747  13.689   9.664
 4105PROX   H3331796  12.573  13.665   9.616
 4106PROX    O131797  12.577  13.929   9.626
 4106PROX    C131798  12.637  13.976   9.750
 4106PROX   H1131799  12.679  13.904   9.823
 4106PROX   H1331800  12.720  14.046   9.727
 4106PROX    C231801  12.530  14.062   9.825
 4106PROX   H2131802  12.502  14.156   9.774
 4106PROX    C331803  12.578  14.111   9.964
 4106PROX   H3131804  12.606  14.031  10.036
 4106PROX   H3231805  12.665  14.177   9.943
 4106PROX   H3331806  12.501  14.173  10.014
 4107PROX    O131807  12.406  13.994   9.839
 4107PROX    C131808  12.314  14.023   9.731
 4107PROX   H1131809  12.271  14.122   9.758
 4107PROX   H1331810  12.361  14.038   9.631
 4107PROX    C231811  12.202  13.916   9.735
 4107PROX   H2131812  12.264  13.824   9.739
 4107PROX    C331813  12.112  13.923   9.607
 4107PROX   H3131814  12.024  13.856   9.615
 4107PROX   H3231815  12.083  14.024   9.572
 4107PROX   H3331816  12.166  13.888   9.517
 4108PROX    O131817  12.116  13.925   9.854
 4108PROX    C131818  12.087  13.796   9.906
 4108PROX   H1131819  12.028  13.750   9.824
 4108PROX   H1331820  12.177  13.731   9.917
 4108PROX    C231821  11.996  13.787  10.032
 4108PROX   H2131822  11.918  13.865  10.027
 4108PROX    C331823  12.064  13.812  10.167
 4108PROX   H3131824  12.163  13.858  10.148
 4108PROX   H3231825  12.013  13.883  10.235
 4108PROX   H3331826  12.073  13.713  10.217
 4109PROX    O131827  11.935  13.658  10.033
 4109PROX    C131828  11.801  13.661   9.993
 4109PROX   H1131829  11.733  13.715  10.063
 4109PROX   H1331830  11.791  13.733   9.909
 4109PROX    C231831  11.737  13.528   9.958
 4109PROX   H2131832  11.634  13.551   9.924
 4109PROX    C331833  11.729  13.443  10.086
 4109PROX   H3131834  11.656  13.360  10.076
 4109PROX   H3231835  11.825  13.388  10.093
 4109PROX   H3331836  11.713  13.510  10.173
 4110PROX    O131837  11.806  13.446   9.861
 4110PROX    C131838  11.718  13.403   9.753
 4110PROX   H1131839  11.628  13.359   9.800
 4110PROX   H1331840  11.677  13.484   9.689
 4110PROX    C231841  11.776  13.295   9.668
 4110PROX   H2131842  11.878  13.321   9.633
 4110PROX    C331843  11.701  13.256   9.545
 4110PROX   H3131844  11.597  13.224   9.567
 4110PROX   H3231845  11.692  13.341   9.473
 4110PROX   H3331846  11.745  13.168   9.493
 4111PROX    O131847  11.767  13.173   9.732
 4111PROX    C131848  11.865  13.140   9.834
 4111PROX   H1131849  11.962  13.111   9.790
 4111PROX   H1331850  11.869  13.219   9.913
 4111PROX    C231851  11.816  13.022   9.925
 4111PROX   H2131852  11.828  12.932   9.861
 4111PROX    C331853  11.678  13.048   9.977
 4111PROX   H3131854  11.649  12.966  10.046
 4111PROX   H3231855  11.681  13.154  10.011
 4111PROX   H3331856  11.608  13.044   9.891
 4112PROX    O131857  11.905  13.009  10.039
 4112PROX    C131858  12.017  12.933  10.007
 4112PROX   H1131859  11.976  12.831   9.987
 4112PROX   H1331860  12.068  12.968   9.915
 4112PROX    C231861  12.118  12.943  10.115
 4112PROX   H2131862  12.075  12.912  10.213
 4112PROX    C331863  12.167  13.089  10.128
 4112PROX   H3131864  12.240  13.115  10.207
 4112PROX   H3231865  12.219  13.106  10.031
 4112PROX   H3331866  12.083  13.161  10.140
 4113PROX    O131867  12.234  12.874  10.076
 4113PROX    C131868  12.225  12.733  10.101
 4113PROX   H1131869  12.293  12.697  10.181
 4113PROX   H1331870  12.123  12.702  10.131
 4113PROX    C231871  12.259  12.652   9.982
 4113PROX   H2131872  12.243  12.544   9.999
 4113PROX    C331873  12.411  12.660   9.946
 4113PROX   H3131874  12.447  12.762   9.923
 4113PROX   H3231875  12.464  12.627  10.038
 4113PROX   H3331876  12.435  12.584   9.868
 4114PROX    O131877  12.182  12.703   9.870
 4114PROX    C131878  12.130  12.597   9.798
 4114PROX   H1131879  12.199  12.510   9.791
 4114PROX   H1331880  12.039  12.563   9.852
 4114PROX    C231881  12.076  12.646   9.659
 4114PROX   H2131882  12.155  12.692   9.597
 4114PROX    C331883  11.968  12.757   9.692
 4114PROX   H3131884  12.028  12.844   9.727
 4114PROX   H3231885  11.915  12.785   9.598
 4114PROX   H3331886  11.898  12.721   9.770
 4115PROX    O131887  12.005  12.535   9.601
 4115PROX    C131888  12.087  12.438   9.553
 4115PROX   H1131889  12.158  12.478   9.477
 4115PROX   H1331890  12.139  12.382   9.634
 4115PROX    C231891  12.005  12.317   9.494
 4115PROX   H2131892  12.079  12.248   9.449
 4115PROX    C331893  11.912  12.370   9.381
 4115PROX   H3131894  11.972  12.436   9.314
 4115PROX   H3231895  11.871  12.292   9.313
 4115PROX   H3331896  11.835  12.439   9.422
 4116PROX    O131897  11.920  12.264   9.604
 4116PROX    C131898  11.952  12.132   9.633
 4116PROX   H1131899  11.949  12.079   9.535
 4116PROX   H1331900  12.059  12.128   9.664
 4116PROX    C231901  11.862  12.061   9.725
 4116PROX   H2131902  11.887  11.953   9.727
 4116PROX    C331903  11.715  12.065   9.674
 4116PROX   H3131904  11.680  12.170   9.664
 4116PROX   H3231905  11.709  12.025   9.571
 4116PROX   H3331906  11.657  11.999   9.742
 4117PROX    O131907  11.879  12.124   9.853
 4117PROX    C131908  12.011  12.103   9.898
 4117PROX   H1131909  12.007  12.069  10.004
 4117PROX   H1331910  12.074  12.027   9.848
 4117PROX    C231911  12.080  12.246   9.907
 4117PROX   H2131912  12.041  12.315   9.829
 4117PROX    C331913  12.233  12.237   9.893
 4117PROX   H3131914  12.285  12.334   9.880
 4117PROX   H3231915  12.273  12.178   9.979
 4117PROX   H3331916  12.259  12.171   9.807
 4118PROX    O131917  12.060  12.306  10.030
 4118PROX    C131918  11.934  12.355  10.055
 4118PROX   H1131919  11.908  12.426   9.974
 4118PROX   H1331920  11.863  12.269  10.058
 4118PROX    C231921  11.945  12.422  10.189
 4118PROX   H2131922  12.025  12.498  10.176
 4118PROX    C331923  11.975  12.333  10.314
 4118PROX   H3131924  12.085  12.314  10.307
 4118PROX   H3231925  11.957  12.379  10.413
 4118PROX   H3331926  11.918  12.238  10.306
 4119PROX    O131927  11.820  12.482  10.210
 4119PROX    C131928  11.814  12.585  10.302
 4119PROX   H1131929  11.730  12.568  10.372
 4119PROX   H1331930  11.905  12.588  10.367
 4119PROX    C231931  11.794  12.712  10.220
 4119PROX   H2131932  11.880  12.733  10.153
 4119PROX    C331933  11.776  12.840  10.305
 4119PROX   H3131934  11.749  12.930  10.245
 4119PROX   H3231935  11.684  12.838  10.368
 4119PROX   H3331936  11.871  12.852  10.361
 4120PROX    O131937  11.676  12.692  10.147
 4120PROX    C131938  11.700  12.663  10.011
 4120PROX   H1131939  11.767  12.742   9.973
 4120PROX   H1331940  11.750  12.564  10.009
 4120PROX    C231941  11.567  12.661   9.928
 4120PROX   H2131942  11.519  12.760   9.947
 4120PROX    C331943  11.481  12.541   9.969
 4120PROX   H3131944  11.524  12.455   9.914
 4120PROX   H3231945  11.480  12.528  10.079
 4120PROX   H3331946  11.373  12.557   9.946
 4121PROX    O131947  11.595  12.660   9.791
 4121PROX    C131948  11.477  12.678   9.715
 4121PROX   H1131949  11.419  12.585   9.698
 4121PROX   H1331950  11.407  12.751   9.760
 4121PROX    C231951  11.532  12.738   9.578
 4121PROX   H2131952  11.608  12.667   9.537
 4121PROX    C331953  11.600  12.874   9.596
 4121PROX   H3131954  11.622  12.915   9.495
 4121PROX   H3231955  11.528  12.951   9.634
 4121PROX   H3331956  11.691  12.868   9.659
 4122PROX    O131957  11.428  12.768   9.478
 4122PROX    C131958  11.357  12.654   9.422
 4122PROX   H1131959  11.436  12.587   9.383
 4122PROX   H1331960  11.289  12.611   9.498
 4122PROX    C231961  11.273  12.697   9.304
 4122PROX   H2131962  11.333  12.753   9.230
 4122PROX    C331963  11.157  12.787   9.342
 4122PROX   H3131964  11.106  12.823   9.250
 4122PROX   H3231965  11.091  12.727   9.408
 4122PROX   H3331966  11.190  12.877   9.398
 4123PROX    O131967  11.222  12.574   9.250
 4123PROX    C131968  11.256  12.563   9.112
 4123PROX   H1131969  11.195  12.630   9.048
 4123PROX   H1331970  11.362  12.592   9.096
 4123PROX    C231971  11.228  12.428   9.062
 4123PROX   H2131972  11.252  12.430   8.954
 4123PROX    C331973  11.086  12.377   9.086
 4123PROX   H3131974  11.078  12.272   9.050
 4123PROX   H3231975  11.053  12.385   9.192
 4123PROX   H3331976  11.014  12.436   9.025
 4124PROX    O131977  11.315  12.334   9.127
 4124PROX    C131978  11.447  12.329   9.068
 4124PROX   H1131979  11.443  12.270   8.974
 4124PROX   H1331980  11.478  12.435   9.055
 4124PROX    C231981  11.553  12.245   9.160
 4124PROX   H2131982  11.504  12.148   9.182
 4124PROX    C331983  11.584  12.323   9.288
 4124PROX   H3131984  11.488  12.355   9.332
 4124PROX   H3231985  11.641  12.260   9.360
 4124PROX   H3331986  11.637  12.420   9.281
 4125PROX    O131987  11.666  12.218   9.083
 4125PROX    C131988  11.722  12.083   9.101
 4125PROX   H1131989  11.715  12.058   9.209
 4125PROX   H1331990  11.685  12.011   9.025
 4125PROX    C231991  11.875  12.092   9.074
 4125PROX   H2131992  11.902  12.192   9.114
 4125PROX    C331993  11.893  12.086   8.918
 4125PROX   H3131994  11.832  12.169   8.877
 4125PROX   H3231995  11.999  12.108   8.893
 4125PROX   H3331996  11.874  11.985   8.876
 4126PROX    O131997  11.945  11.980   9.134
 4126PROX    C131998  12.018  12.015   9.250
 4126PROX   H1131999  12.094  12.094   9.231
 4126PROX   H1332000  11.943  12.065   9.315
 4126PROX    C232001  12.082  11.899   9.323
 4126PROX   H2132002  12.148  11.846   9.250
 4126PROX    C332003  11.993  11.783   9.378
 4126PROX   H3132004  11.919  11.812   9.455
 4126PROX   H3232005  11.947  11.726   9.294
 4126PROX   H3332006  12.071  11.720   9.426
 4127PROX    O132007  12.156  11.949   9.443
 4127PROX    C132008  12.287  11.995   9.409
 4127PROX   H1132009  12.282  12.080   9.338
 4127PROX   H1332010  12.326  12.045   9.500
 4127PROX    C232011  12.388  11.893   9.360
 4127PROX   H2132012  12.352  11.828   9.278
 4127PROX    C332013  12.440  11.812   9.477
 4127PROX   H3132014  12.471  11.872   9.565
 4127PROX   H3232015  12.368  11.732   9.503
 4127PROX   H3332016  12.526  11.754   9.437
 4128PROX    O132017  12.510  11.960   9.314
 4128PROX    C132018  12.550  11.920   9.180
 4128PROX   H1132019  12.643  11.970   9.146
 4128PROX   H1332020  12.574  11.812   9.178
 4128PROX    C232021  12.451  11.944   9.065
 4128PROX   H2132022  12.350  11.901   9.082
 4128PROX    C332023  12.502  11.897   8.926
 4128PROX   H3132024  12.610  11.922   8.923
 4128PROX   H3232025  12.509  11.786   8.919
 4128PROX   H3332026  12.440  11.944   8.847
 4129PROX    O132027  12.434  12.088   9.052
 4129PROX    C132028  12.301  12.121   9.010
 4129PROX   H1132029  12.297  12.106   8.900
 4129PROX   H1332030  12.224  12.070   9.071
 4129PROX    C232031  12.278  12.271   9.042
 4129PROX   H2132032  12.341  12.337   8.979
 4129PROX    C332033  12.309  12.313   9.184
 4129PROX   H3132034  12.396  12.262   9.229
 4129PROX   H3232035  12.336  12.421   9.194
 4129PROX   H3332036  12.222  12.278   9.243
 4130PROX    O132037  12.143  12.296   9.011
 4130PROX    C132038  12.104  12.433   8.991
 4130PROX   H1132039  12.125  12.496   9.080
 4130PROX   H1332040  12.160  12.467   8.902
 4130PROX    C232041  11.947  12.455   8.971
 4130PROX   H2132042  11.898  12.388   9.044
 4130PROX    C332043  11.904  12.430   8.829
 4130PROX   H3132044  11.947  12.506   8.760
 4130PROX   H3232045  11.947  12.336   8.789
 4130PROX   H3332046  11.795  12.411   8.822
 4131PROX    O132047  11.912  12.586   9.008
 4131PROX    C132048  11.772  12.613   8.996
 4131PROX   H1132049  11.751  12.636   8.890
 4131PROX   H1332050  11.720  12.530   9.048
 4131PROX    C232051  11.749  12.737   9.082
 4131PROX   H2132052  11.823  12.818   9.063
 4131PROX    C332053  11.780  12.708   9.231
 4131PROX   H3132054  11.703  12.631   9.253
 4131PROX   H3232055  11.878  12.656   9.241
 4131PROX   H3332056  11.772  12.796   9.298
 4132PROX    O132057  11.612  12.783   9.058
 4132PROX    C132058  11.589  12.922   9.088
 4132PROX   H1132059  11.536  12.916   9.185
 4132PROX   H1332060  11.687  12.971   9.105
 4132PROX    C232061  11.498  12.995   8.984
 4132PROX   H2132062  11.509  13.105   8.991
 4132PROX    C332063  11.345  12.948   8.989
 4132PROX   H3132064  11.279  13.016   8.930
 4132PROX   H3232065  11.344  12.847   8.943
 4132PROX   H3332066  11.313  12.936   9.095
 4133PROX    O132067  11.545  12.956   8.862
 4133PROX    C132068  11.666  13.015   8.811
 4133PROX   H1132069  11.651  13.125   8.806
 4133PROX   H1332070  11.750  12.991   8.879
 4133PROX    C232071  11.708  12.949   8.676
 4133PROX   H2132072  11.807  12.994   8.657
 4133PROX    C332073  11.613  12.966   8.556
 4133PROX   H3132074  11.655  12.927   8.462
 4133PROX   H3232075  11.515  12.917   8.577
 4133PROX   H3332076  11.599  13.074   8.534
 4134PROX    O132077  11.734  12.806   8.696
 4134PROX    C132078  11.806  12.741   8.594
 4134PROX   H1132079  11.795  12.633   8.617
 4134PROX   H1332080  11.750  12.752   8.499
 4134PROX    C232081  11.960  12.771   8.579
 4134PROX   H2132082  11.973  12.879   8.557
 4134PROX    C332083  12.022  12.713   8.454
 4134PROX   H3132084  12.041  12.604   8.459
 4134PROX   H3232085  11.961  12.731   8.362
 4134PROX   H3332086  12.115  12.769   8.429
 4135PROX    O132087  12.032  12.732   8.695
 4135PROX    C132088  12.031  12.833   8.796
 4135PROX   H1132089  11.928  12.851   8.832
 4135PROX   H1332090  12.081  12.798   8.888
 4135PROX    C232091  12.100  12.966   8.775
 4135PROX   H2132092  12.031  13.033   8.720
 4135PROX    C332093  12.240  12.976   8.710
 4135PROX   H3132094  12.296  13.070   8.729
 4135PROX   H3232095  12.303  12.894   8.748
 4135PROX   H3332096  12.229  12.962   8.600
 4136PROX    O132097  12.124  13.029   8.903
 4136PROX    C132098  12.007  13.078   8.963
 4136PROX   H1132099  11.944  13.142   8.898
 4136PROX   H1332100  11.944  12.990   8.985
 4136PROX    C232101  12.030  13.136   9.103
 4136PROX   H2132102  12.114  13.074   9.141
 4136PROX    C332103  11.895  13.119   9.193
 4136PROX   H3132104  11.813  13.173   9.141
 4136PROX   H3232105  11.866  13.012   9.197
 4136PROX   H3332106  11.909  13.163   9.294
 4137PROX    O132107  12.055  13.277   9.094
 4137PROX    C132108  12.194  13.306   9.095
 4137PROX   H1132109  12.209  13.399   9.155
 4137PROX   H1332110  12.259  13.222   9.128
 4137PROX    C232111  12.233  13.341   8.949
 4137PROX   H2132112  12.180  13.267   8.884
 4137PROX    C332113  12.382  13.329   8.925
 4137PROX   H3132114  12.427  13.233   8.959
 4137PROX   H3232115  12.400  13.341   8.816
 4137PROX   H3332116  12.427  13.416   8.977
 4138PROX    O132117  12.209  13.474   8.913
 4138PROX    C132118  12.065  13.488   8.898
 4138PROX   H1132119  12.021  13.393   8.861
 4138PROX   H1332120  12.025  13.511   8.999
 4138PROX    C232121  12.036  13.608   8.806
 4138PROX   H2132122  12.123  13.676   8.797
 4138PROX    C332123  11.918  13.684   8.861
 4138PROX   H3132124  11.834  13.623   8.900
 4138PROX   H3232125  11.947  13.751   8.945
 4138PROX   H3332126  11.869  13.751   8.787
 4139PROX    O132127  11.999  13.555   8.672
 4139PROX    C132128  12.118  13.540   8.592
 4139PROX   H1132129  12.132  13.604   8.502
 4139PROX   H1332130  12.205  13.561   8.658
 4139PROX    C232131  12.141  13.392   8.548
 4139PROX   H2132132  12.137  13.328   8.639
 4139PROX    C332133  12.277  13.370   8.475
 4139PROX   H3132134  12.362  13.401   8.538
 4139PROX   H3232135  12.288  13.261   8.454
 4139PROX   H3332136  12.274  13.415   8.374
 4140PROX    O132137  12.030  13.361   8.466
 4140PROX    C132138  11.993  13.225   8.474
 4140PROX   H1132139  12.085  13.165   8.486
 4140PROX   H1332140  11.943  13.192   8.567
 4140PROX    C232141  11.906  13.195   8.349
 4140PROX   H2132142  11.952  13.229   8.254
 4140PROX    C332143  11.774  13.261   8.370
 4140PROX   H3132144  11.696  13.223   8.300
 4140PROX   H3232145  11.738  13.241   8.473
 4140PROX   H3332146  11.781  13.368   8.342
 4141ETHO    O132147  11.893  13.053   8.356
 4141ETHO    C132148  11.848  13.004   8.233
 4141ETHO   H1132149  11.791  13.080   8.175
 4141ETHO   H1332150  11.782  12.916   8.249
 4141ETHO    C232151  11.967  12.954   8.152
 4141ETHO   H2132152  12.043  12.895   8.207
 4141ETHO   H2332153  12.029  13.043   8.128
 4142ETHO    O132154  11.932  12.873   8.042
 4142ETHO    C132155  11.868  12.935   7.933
 4142ETHO   H1132156  11.764  12.961   7.961
 4142ETHO   H1332157  11.910  13.036   7.914
 4142ETHO    C232158  11.866  12.842   7.820
 4142ETHO   H2132159  11.792  12.864   7.740
 4142ETHO   H2332160  11.847  12.737   7.850
 4143ETHO    O132161  11.998  12.819   7.770
 4143ETHO    C132162  12.008  12.705   7.682
 4143ETHO   H1132163  11.922  12.692   7.612
 4143ETHO   H1332164  12.006  12.620   7.753
 4143ETHO    C232165  12.152  12.704   7.626
 4143ETHO   H2132166  12.178  12.600   7.600
 4143ETHO   H2332167  12.224  12.748   7.698
 4144ETHO    O132168  12.161  12.765   7.501
 4144ETHO    C132169  12.295  12.791   7.460
 4144ETHO   H1132170  12.358  12.835   7.541
 4144ETHO   H1332171  12.353  12.702   7.426
 4144ETHO    C232172  12.282  12.899   7.355
 4144ETHO   H2132173  12.379  12.952   7.350
 4144ETHO   H2332174  12.205  12.972   7.385
 4145ETHO    O132175  12.266  12.853   7.218
 4145ETHO    C132176  12.138  12.803   7.189
 4145ETHO   H1132177  12.060  12.873   7.225
 4145ETHO   H1332178  12.122  12.721   7.263
 4145ETHO    C232179  12.122  12.768   7.047
 4145ETHO   H2132180  12.127  12.852   6.975
 4145ETHO   H2332181  12.022  12.723   7.033
 4146ETHO    O132182  12.205  12.666   7.008
 4146ETHO    C132183  12.171  12.627   6.872
 4146ETHO   H1132184  12.077  12.569   6.873
 4146ETHO   H1332185  12.166  12.718   6.808
 4146ETHO    C232186  12.284  12.542   6.807
 4146ETHO   H2132187  12.235  12.498   6.718
 4146ETHO   H2332188  12.306  12.458   6.877
 4147ETHO    O132189  12.392  12.610   6.762
 4147ETHO    C132190  12.493  12.523   6.703
 4147ETHO   H1132191  12.499  12.429   6.761
 4147ETHO   H1332192  12.592  12.572   6.716
 4147ETHO    C232193  12.487  12.510   6.549
 4147ETHO   H2132194  12.385  12.470   6.529
 4147ETHO   H2332195  12.561  12.431   6.525
 4148ETHO    O132196  12.518  12.626   6.472
 4148ETHO    C132197  12.532  12.587   6.336
 4148ETHO   H1132198  12.640  12.574   6.313
 4148ETHO   H1332199  12.481  12.490   6.315
 4148ETHO    C232200  12.462  12.690   6.251
 4148ETHO   H2132201  12.513  12.788   6.265
 4148ETHO   H2332202  12.478  12.667   6.143
 4149ETHO    O132203  12.326  12.724   6.283
 4149ETHO    C132204  12.232  12.612   6.256
 4149ETHO   H1132205  12.277  12.562   6.168
 4149ETHO   H1332206  12.235  12.546   6.345
 4149ETHO    C232207  12.090  12.662   6.226
 4149ETHO   H2132208  12.097  12.750   6.158
 4149ETHO   H2332209  12.041  12.695   6.320
 4150ETHO    O132210  12.014  12.560   6.162
 4150ETHO    C132211  11.950  12.474   6.251
 4150ETHO   H1132212  12.028  12.424   6.312
 4150ETHO   H1332213  11.884  12.522   6.328
 4150ETHO    C232214  11.866  12.367   6.187
 4150ETHO   H2132215  11.826  12.304   6.269
 4150ETHO   H2332216  11.920  12.294   6.123
 4151ETHO    O132217  11.762  12.418   6.113
 4151ETHO    C132218  11.669  12.312   6.070
 4151ETHO   H1132219  11.733  12.241   6.014
 4151ETHO   H1332220  11.633  12.264   6.164
 4151ETHO    C232221  11.555  12.380   5.993
 4151ETHO   H2132222  11.569  12.485   5.959
 4151ETHO   H2332223  11.470  12.397   6.063
 4152ETHO    O132224  11.520  12.302   5.881
 4152ETHO    C132225  11.398  12.346   5.835
 4152ETHO   H1132226  11.403  12.453   5.804
 4152ETHO   H1332227  11.335  12.342   5.926
 4152ETHO    C232228  11.354  12.273   5.712
 4152ETHO   H2132229  11.440  12.268   5.642
 4152ETHO   H2332230  11.271  12.325   5.660
 4153ETHO    O132231  11.316  12.142   5.746
 4153ETHO    C132232  11.321  12.066   5.628
 4153ETHO   H1132233  11.238  12.104   5.566
 4153ETHO   H1332234  11.420  12.074   5.578
 4153ETHO    C232235  11.281  11.922   5.651
 4153ETHO   H2132236  11.195  11.935   5.720
 4153ETHO   H2332237  11.359  11.872   5.712
 4154ETHO    O132238  11.234  11.849   5.543
 4154ETHO    C132239  11.337  11.813   5.454
 4154ETHO   H1132240  11.396  11.727   5.491
 4154ETHO   H1332241  11.410  11.896   5.444
 4154ETHO    C232242  11.271  11.767   5.323
 4154ETHO   H2132243  11.190  11.693   5.339
 4154ETHO   H2332244  11.343  11.704   5.267
 4155ETHO    O132245  11.233  11.864   5.230
 4155ETHO    C132246  11.155  11.814   5.120
 4155ETHO   H1132247  11.214  11.786   5.030
 4155ETHO   H1332248  11.101  11.720   5.144
 4155ETHO    C232249  11.054  11.930   5.083
 4155ETHO   H2132250  11.015  11.913   4.980
 4155ETHO   H2332251  11.108  12.027   5.085
 4156ETHO    O132252  10.937  11.939   5.176
 4156ETHO    C132253  10.874  12.065   5.162
 4156ETHO   H1132254  10.852  12.084   5.054
 4156ETHO   H1332255  10.942  12.139   5.208
 4156ETHO    C232256  10.747  12.057   5.249
 4156ETHO   H2132257  10.684  12.147   5.260
 4156ETHO   H2332258  10.790  12.039   5.350
 4157ETHO    O132259  10.671  11.937   5.225
 4157ETHO    C132260  10.588  11.945   5.113
 4157ETHO   H1132261  10.528  12.038   5.110
 4157ETHO   H1332262  10.651  11.957   5.022
 4157ETHO    C232263  10.488  11.827   5.100
 4157ETHO   H2132264  10.554  11.738   5.092
 4157ETHO   H2332265  10.435  11.843   5.004
 4158ETHO    O132266  10.396  11.826   5.210
 4158ETHO    C132267  10.276  11.753   5.190
 4158ETHO   H1132268  10.229  11.761   5.089
 4158ETHO   H1332269  10.202  11.789   5.264
 4158ETHO    C232270  10.293  11.603   5.229
 4158ETHO   H2132271  10.199  11.546   5.242
 4158ETHO   H2332272  10.339  11.603   5.331
 4159ETHO    O132273  10.378  11.530   5.146
 4159ETHO    C132274  10.448  11.429   5.218
 4159ETHO   H1132275  10.503  11.468   5.306
 4159ETHO   H1332276  10.383  11.347   5.255
 4159ETHO    C232277  10.541  11.351   5.111
 4159ETHO   H2132278  10.471  11.324   5.030
 4159ETHO   H2332279  10.588  11.258   5.151
 4160ETHO    O132280  10.645  11.435   5.055
 4160ETHO    C132281  10.750  11.351   5.007
 4160ETHO   H1132282  10.796  11.304   5.097
 4160ETHO   H1332283  10.715  11.266   4.945
 4160ETHO    C232284  10.861  11.431   4.937
 4160ETHO   H2132285  10.961  11.384   4.925
 4160ETHO   H2332286  10.884  11.510   5.012
 4161ETHO    O132287  10.823  11.485   4.810
 4161ETHO    C132288  10.932  11.550   4.751
 4161ETHO   H1132289  10.975  11.625   4.821
 4161ETHO   H1332290  11.011  11.479   4.719
 4161ETHO    C232291  10.877  11.633   4.634
 4161ETHO   H2132292  10.957  11.707   4.613
 4161ETHO   H2332293  10.791  11.695   4.668
 4162ETHO    O132294  10.841  11.550   4.525
 4162ETHO    C132295  10.786  11.623   4.421
 4162ETHO   H1132296  10.711  11.564   4.364
 4162ETHO   H1332297  10.739  11.713   4.467
 4162ETHO    C232298  10.894  11.673   4.327
 4162ETHO   H2132299  10.975  11.711   4.393
 4162ETHO   H2332300  10.846  11.750   4.262
 4163ETHO    O132301  10.934  11.562   4.254
 4163ETHO    C132302  11.056  11.589   4.198
 4163ETHO   H1132303  11.126  11.613   4.281
 4163ETHO   H1332304  11.054  11.683   4.139
 4163ETHO    C232305  11.112  11.471   4.125
 4163ETHO   H2132306  11.043  11.447   4.041
 4163ETHO   H2332307  11.109  11.386   4.196
 4164ETHO    O132308  11.246  11.504   4.090
 4164ETHO    C132309  11.299  11.406   4.001
 4164ETHO   H1132310  11.409  11.411   4.003
 4164ETHO   H1332311  11.274  11.306   4.044
 4164ETHO    C232312  11.239  11.411   3.858
 4164ETHO   H2132313  11.128  11.413   3.854
 4164ETHO   H2332314  11.273  11.321   3.802
 4165ETHO    O132315  11.293  11.520   3.794
 4165ETHO    C132316  11.277  11.518   3.650
 4165ETHO   H1132317  11.298  11.420   3.603
 4165ETHO   H1332318  11.359  11.588   3.626
 4165ETHO    C232319  11.150  11.580   3.600
 4165ETHO   H2132320  11.161  11.618   3.497
 4165ETHO   H2332321  11.125  11.669   3.662
 4166ETHO    O132322  11.038  11.499   3.600
 4166ETHO    C132323  11.034  11.419   3.486
 4166ETHO   H1132324  11.025  11.495   3.406
 4166ETHO   H1332325  11.133  11.373   3.465
 4166ETHO    C232326  10.923  11.317   3.469
 4166ETHO   H2132327  10.836  11.362   3.522
 4166ETHO   H2332328  10.948  11.221   3.519
 4167ETHO    O132329  10.909  11.287   3.329
 4167ETHO    C132330  10.780  11.257   3.291
 4167ETHO   H1132331  10.725  11.351   3.270
 4167ETHO   H1332332  10.718  11.203   3.366
 4167ETHO    C232333  10.775  11.189   3.152
 4167ETHO   H2132334  10.797  11.257   3.068
 4167ETHO   H2332335  10.672  11.150   3.152
 4168ETHO    O132336  10.854  11.066   3.141
 4168ETHO    C132337  10.851  11.009   3.009
 4168ETHO   H1132338  10.750  10.971   2.980
 4168ETHO   H1332339  10.874  11.097   2.946
 4168ETHO    C232340  10.945  10.892   2.995
 4168ETHO   H2132341  10.933  10.851   2.893
 4168ETHO   H2332342  10.927  10.815   3.073
 4169ETHO    O132343  11.080  10.934   3.015
 4169ETHO    C132344  11.147  10.945   2.892
 4169ETHO   H1132345  11.075  10.998   2.826
 4169ETHO   H1332346  11.170  10.842   2.859
 4169ETHO    C232347  11.268  11.029   2.899
 4169ETHO   H2132348  11.342  10.994   2.974
 4169ETHO   H2332349  11.239  11.131   2.933
 4170ETHO    O132350  11.328  11.020   2.771
 4170ETHO    C132351  11.430  11.119   2.738
 4170ETHO   H1132352  11.378  11.216   2.726
 4170ETHO   H1332353  11.503  11.132   2.821
 4170ETHO    C232354  11.498  11.085   2.603
 4170ETHO   H2132355  11.568  11.170   2.591
 4170ETHO   H2332356  11.423  11.076   2.521
 4171ETHO    O132357  11.576  10.965   2.606
 4171ETHO    C132358  11.669  10.967   2.500
 4171ETHO   H1132359  11.614  10.969   2.403
 4171ETHO   H1332360  11.747  11.045   2.502
 4171ETHO    C232361  11.762  10.842   2.521
 4171ETHO   H2132362  11.830  10.841   2.433
 4171ETHO   H2332363  11.691  10.757   2.522
 4172ETHO    O132364  11.840  10.846   2.641
 4172ETHO    C132365  11.931  10.733   2.646
 4172ETHO   H1132366  11.872  10.639   2.643
 4172ETHO   H1332367  11.995  10.732   2.555
 4172ETHO    C232368  12.009  10.748   2.769
 4172ETHO   H2132369  12.077  10.663   2.791
 4172ETHO   H2332370  11.943  10.769   2.856
 4173ETHO    O132371  12.087  10.872   2.753
 4173ETHO    C132372  12.202  10.867   2.837
 4173ETHO   H1132373  12.188  10.814   2.934
 4173ETHO   H1332374  12.271  10.808   2.773
 4173ETHO    C232375  12.255  11.012   2.828
 4173ETHO   H2132376  12.229  11.061   2.732
 4173ETHO   H2332377  12.363  11.006   2.854
 4174ETHO    O132378  12.169  11.082   2.926
 4174ETHO    C132379  12.237  11.189   2.994
 4174ETHO   H1132380  12.340  11.155   3.017
 4174ETHO   H1332381  12.197  11.195   3.098
 4174ETHO    C232382  12.228  11.330   2.930
 4174ETHO   H2132383  12.165  11.328   2.838
 4174ETHO   H2332384  12.322  11.360   2.879
 4175ETHO    O132385  12.182  11.427   3.018
 4175ETHO    C132386  12.113  11.536   2.957
 4175ETHO   H1132387  12.164  11.561   2.861
 4175ETHO   H1332388  12.010  11.498   2.942
 4175ETHO    C232389  12.108  11.669   3.030
 4175ETHO   H2132390  12.083  11.632   3.131
 4175ETHO   H2332391  12.017  11.725   3.001
 4176ETHO    O132392  12.233  11.734   3.016
 4176ETHO    C132393  12.261  11.840   3.106
 4176ETHO   H1132394  12.288  11.801   3.206
 4176ETHO   H1332395  12.178  11.914   3.111
 4176ETHO    C232396  12.389  11.912   3.055
 4176ETHO   H2132397  12.471  11.837   3.056
 4176ETHO   H2332398  12.405  11.993   3.129
 4177ETHO    O132399  12.374  11.980   2.924
 4177ETHO    C132400  12.487  12.057   2.894
 4177ETHO   H1132401  12.570  12.038   2.964
 4177ETHO   H1332402  12.518  12.022   2.793
 4177ETHO    C232403  12.469  12.206   2.873
 4177ETHO   H2132404  12.401  12.233   2.789
 4177ETHO   H2332405  12.570  12.242   2.843
 4178ETHO    O132406  12.422  12.263   2.995
 4178ETHO    C132407  12.449  12.399   2.987
 4178ETHO   H1132408  12.400  12.445   2.898
 4178ETHO   H1332409  12.558  12.408   2.972
 4178ETHO    C232410  12.412  12.487   3.103
 4178ETHO   H2132411  12.304  12.472   3.123
 4178ETHO   H2332412  12.434  12.591   3.072
 4179ETHO    O132413  12.496  12.457   3.213
 4179ETHO    C132414  12.464  12.513   3.336
 4179ETHO   H1132415  12.453  12.622   3.317
 4179ETHO   H1332416  12.369  12.463   3.365
 4179ETHO    C232417  12.572  12.470   3.445
 4179ETHO   H2132418  12.582  12.546   3.525
 4179ETHO   H2332419  12.667  12.457   3.388
 4180ETHO    O132420  12.538  12.349   3.506
 4180ETHO    C132421  12.649  12.293   3.578
 4180ETHO   H1132422  12.676  12.368   3.656
 4180ETHO   H1332423  12.734  12.287   3.507
 4180ETHO    C232424  12.621  12.158   3.641
 4180ETHO   H2132425  12.719  12.106   3.654
 4180ETHO   H2332426  12.576  12.092   3.564
 4181ETHO    O132427  12.558  12.158   3.768
 4181ETHO    C132428  12.535  12.028   3.816
 4181ETHO   H1132429  12.439  11.989   3.776
 4181ETHO   H1332430  12.611  11.961   3.769
 4181ETHO    C232431  12.527  12.009   3.964
 4181ETHO   H2132432  12.626  12.023   4.011
 4181ETHO   H2332433  12.448  12.077   4.004
 4182ETHO    O132434  12.506  11.870   3.994
 4182ETHO    C132435  12.475  11.855   4.134
 4182ETHO   H1132436  12.556  11.904   4.192
 4182ETHO   H1332437  12.485  11.746   4.151
 4182ETHO    C232438  12.341  11.909   4.183
 4182ETHO   H2132439  12.336  12.018   4.162
 4182ETHO   H2332440  12.339  11.911   4.294
 4183ETHO    O132441  12.235  11.837   4.119
 4183ETHO    C132442  12.145  11.792   4.219
 4183ETHO   H1132443  12.122  11.876   4.288
 4183ETHO   H1332444  12.050  11.759   4.171
 4183ETHO    C232445  12.189  11.668   4.308
 4183ETHO   H2132446  12.254  11.597   4.253
 4183ETHO   H2332447  12.094  11.619   4.337
 4184ETHO    O132448  12.254  11.725   4.418
 4184ETHO    C132449  12.257  11.641   4.534
 4184ETHO   H1132450  12.305  11.542   4.514
 4184ETHO   H1332451  12.150  11.622   4.558
 4184ETHO    C232452  12.336  11.718   4.632
 4184ETHO   H2132453  12.297  11.689   4.732
 4184ETHO   H2332454  12.309  11.826   4.627
 4185ETHO    O132455  12.472  11.690   4.624
 4185ETHO    C132456  12.552  11.778   4.553
 4185ETHO   H1132457  12.497  11.791   4.458
 4185ETHO   H1332458  12.559  11.863   4.624
 4185ETHO    C232459  12.694  11.723   4.522
 4185ETHO   H2132460  12.676  11.666   4.428
 4185ETHO   H2332461  12.741  11.659   4.598
 4186ETHO    O132462  12.775  11.834   4.486
 4186ETHO    C132463  12.887  11.784   4.412
 4186ETHO   H1132464  12.938  11.731   4.495
 4186ETHO   H1332465  12.860  11.715   4.329
 4186ETHO    C232466  12.971  11.889   4.348
 4186ETHO   H2132467  13.072  11.850   4.321
 4186ETHO   H2332468  12.989  11.962   4.430
 4187ETHO    O132469  12.917  11.957   4.234
 4187ETHO    C132470  12.989  12.077   4.197
 4187ETHO   H1132471  12.996  12.145   4.284
 4187ETHO   H1332472  13.086  12.054   4.147
 4187ETHO    C232473  12.899  12.159   4.104
 4187ETHO   H2132474  12.869  12.096   4.017
 4187ETHO   H2332475  12.951  12.250   4.069
 4188ETHO    O132476  12.787  12.193   4.176
 4188ETHO    C132477  12.707  12.291   4.116
 4188ETHO   H1132478  12.764  12.368   4.060
 4188ETHO   H1332479  12.644  12.237   4.043
 4188ETHO    C232480  12.615  12.361   4.218
 4188ETHO   H2132481  12.543  12.288   4.262
 4188ETHO   H2332482  12.555  12.438   4.165
 4189ETHO    O132483  12.699  12.428   4.310
 4189ETHO    C132484  12.625  12.524   4.392
 4189ETHO   H1132485  12.562  12.461   4.458
 4189ETHO   H1332486  12.573  12.597   4.327
 4189ETHO    C232487  12.718  12.600   4.498
 4189ETHO   H2132488  12.666  12.695   4.523
 4189ETHO   H2332489  12.812  12.625   4.445
 4190ETHO    O132490  12.748  12.526   4.618
 4190ETHO    C132491  12.855  12.588   4.682
 4190ETHO   H1132492  12.883  12.526   4.770
 4190ETHO   H1332493  12.942  12.582   4.612
 4190ETHO    C232494  12.840  12.732   4.720
 4190ETHO   H2132495  12.884  12.750   4.820
 4190ETHO   H2332496  12.735  12.767   4.731
 4191ETHO    O132497  12.873  12.829   4.613
 4191ETHO    C132498  13.016  12.839   4.603
 4191ETHO   H1132499  13.070  12.760   4.546
 4191ETHO   H1332500  13.056  12.841   4.706
 4191ETHO    C232501  13.065  12.970   4.543
 4191ETHO   H2132502  13.176  12.967   4.541
 4191ETHO   H2332503  13.040  13.056   4.609
 4192ETHO    O132504  13.012  12.980   4.411
 4192ETHO    C132505  13.046  13.100   4.343
 4192ETHO   H1132506  13.028  13.186   4.411
 4192ETHO   H1332507  13.154  13.086   4.321
 4192ETHO    C232508  12.980  13.108   4.208
 4192ETHO   H2132509  12.993  13.011   4.156
 4192ETHO   H2332510  13.025  13.181   4.138
 4193ETHO    O132511  12.843  13.116   4.214
 4193ETHO    C132512  12.786  13.106   4.082
 4193ETHO   H1132513  12.806  13.005   4.040
 4193ETHO   H1332514  12.833  13.184   4.019
 4193ETHO    C232515  12.634  13.119   4.101
 4193ETHO   H2132516  12.618  13.217   4.151
 4193ETHO   H2332517  12.604  13.034   4.166
 4194ETHO    O132518  12.574  13.123   3.975
 4194ETHO    C132519  12.434  13.105   3.990
 4194ETHO   H1132520  12.405  13.029   3.915
 4194ETHO   H1332521  12.408  13.072   4.093
 4194ETHO    C232522  12.346  13.230   3.962
 4194ETHO   H2132523  12.387  13.309   4.029
 4194ETHO   H2332524  12.242  13.223   4.000
 4195ETHO    O132525  12.340  13.294   3.833
 4195ETHO    C132526  12.257  13.224   3.740
 4195ETHO   H1132527  12.159  13.207   3.789
 4195ETHO   H1332528  12.304  13.129   3.708
 4195ETHO    C232529  12.251  13.300   3.610
 4195ETHO   H2132530  12.253  13.410   3.618
 4195ETHO   H2332531  12.151  13.275   3.568
 4196ETHO    O132532  12.358  13.260   3.520
 4196ETHO    C132533  12.313  13.175   3.418
 4196ETHO   H1132534  12.215  13.214   3.382
 4196ETHO   H1332535  12.381  13.182   3.331
 4196ETHO    C232536  12.296  13.024   3.458
 4196ETHO   H2132537  12.267  12.966   3.368
 4196ETHO   H2332538  12.207  13.022   3.526
 4197ETHO    O132539  12.408  12.971   3.539
 4197ETHO    C132540  12.371  12.859   3.618
 4197ETHO   H1132541  12.298  12.896   3.693
 4197ETHO   H1332542  12.315  12.794   3.548
 4197ETHO    C232543  12.486  12.796   3.694
 4197ETHO   H2132544  12.589  12.810   3.653
 4197ETHO   H2332545  12.476  12.686   3.684
 4198ETHO    O132546  12.495  12.834   3.830
 4198ETHO    C132547  12.597  12.770   3.910
 4198ETHO   H1132548  12.694  12.785   3.859
 4198ETHO   H1332549  12.597  12.816   4.012
 4198ETHO    C232550  12.577  12.621   3.927
 4198ETHO   H2132551  12.663  12.593   3.991
 4198ETHO   H2332552  12.588  12.571   3.829
 4199ETHO    O132553  12.462  12.575   4.000
 4199ETHO    C132554  12.417  12.444   3.951
 4199ETHO   H1132555  12.395  12.454   3.842
 4199ETHO   H1332556  12.498  12.368   3.948
 4199ETHO    C232557  12.296  12.397   4.026
 4199ETHO   H2132558  12.246  12.314   3.973
 4199ETHO   H2332559  12.213  12.471   4.023
 4200ETHO    O132560  12.321  12.376   4.164
 4200ETHO    C132561  12.203  12.344   4.242
 4200ETHO   H1132562  12.131  12.270   4.201
 4200ETHO   H1332563  12.138  12.434   4.238
 4200ETHO    C232564  12.233  12.299   4.387
 4200ETHO   H2132565  12.138  12.268   4.437
 4200ETHO   H2332566  12.291  12.370   4.450
 4201ETHO    O132567  12.308  12.183   4.374
 4201ETHO    C132568  12.333  12.128   4.507
 4201ETHO   H1132569  12.234  12.123   4.557
 4201ETHO   H1332570  12.381  12.029   4.490
 4201ETHO    C232571  12.429  12.213   4.597
 4201ETHO   H2132572  12.515  12.244   4.533
 4201ETHO   H2332573  12.479  12.143   4.667
 4202ETHO    O132574  12.367  12.308   4.689
 4202ETHO    C132575  12.465  12.386   4.758
 4202ETHO   H1132576  12.531  12.427   4.679
 4202ETHO   H1332577  12.526  12.319   4.822
 4202ETHO    C232578  12.412  12.500   4.841
 4202ETHO   H2132579  12.306  12.518   4.814
 4202ETHO   H2332580  12.465  12.596   4.821
 4203ETHO    O132581  12.418  12.482   4.980
 4203ETHO    C132582  12.334  12.378   5.031
 4203ETHO   H1132583  12.248  12.366   4.963
 4203ETHO   H1332584  12.406  12.294   5.023
 4203ETHO    C232585  12.293  12.409   5.174
 4203ETHO   H2132586  12.386  12.439   5.227
 4203ETHO   H2332587  12.259  12.312   5.215
 4204ETHO    O132588  12.189  12.497   5.175
 4204ETHO    C132589  12.202  12.573   5.293
 4204ETHO   H1132590  12.288  12.640   5.273
 4204ETHO   H1332591  12.211  12.508   5.382
 4204ETHO    C232592  12.069  12.653   5.318
 4204ETHO   H2132593  12.036  12.723   5.238
 4204ETHO   H2332594  12.076  12.723   5.403
 4205ETHO    O132595  11.957  12.564   5.338
 4205ETHO    C132596  11.830  12.615   5.308
 4205ETHO   H1132597  11.827  12.713   5.362
 4205ETHO   H1332598  11.819  12.624   5.198
 4205ETHO    C232599  11.721  12.529   5.356
 4205ETHO   H2132600  11.630  12.582   5.320
 4205ETHO   H2332601  11.701  12.508   5.464
 4206ETHO    O132602  11.729  12.415   5.270
 4206ETHO    C132603  11.624  12.331   5.281
 4206ETHO   H1132604  11.564  12.345   5.188
 4206ETHO   H1332605  11.562  12.362   5.367
 4206ETHO    C232606  11.661  12.180   5.305
 4206ETHO   H2132607  11.561  12.133   5.321
 4206ETHO   H2332608  11.721  12.168   5.398
 4207ETHO    O132609  11.721  12.118   5.192
 4207ETHO    C132610  11.712  11.980   5.192
 4207ETHO   H1132611  11.772  11.955   5.282
 4207ETHO   H1332612  11.611  11.944   5.219
 4207ETHO    C232613  11.772  11.905   5.073
 4207ETHO   H2132614  11.817  11.813   5.116
 4207ETHO   H2332615  11.853  11.959   5.021
 4208ETHO    O132616  11.674  11.878   4.971
 4208ETHO    C132617  11.733  11.798   4.868
 4208ETHO   H1132618  11.834  11.761   4.899
 4208ETHO   H1332619  11.657  11.718   4.860
 4208ETHO    C232620  11.748  11.882   4.741
 4208ETHO   H2132621  11.653  11.935   4.721
 4208ETHO   H2332622  11.768  11.802   4.666
 4209ETHO    O132623  11.854  11.979   4.749
 4209ETHO    C132624  11.858  12.051   4.630
 4209ETHO   H1132625  11.765  12.110   4.620
 4209ETHO   H1332626  11.941  12.124   4.644
 4209ETHO    C232627  11.903  11.976   4.501
 4209ETHO   H2132628  11.829  11.902   4.463
 4209ETHO   H2332629  11.997  11.919   4.517
 4210ETHO    O132630  11.940  12.071   4.398
 4210ETHO    C132631  11.822  12.114   4.327
 4210ETHO   H1132632  11.785  12.046   4.247
 4210ETHO   H1332633  11.737  12.129   4.397
 4210ETHO    C232634  11.845  12.254   4.257
 4210ETHO   H2132635  11.917  12.312   4.318
 4210ETHO   H2332636  11.746  12.305   4.256
 4211ETHO    O132637  11.901  12.242   4.125
 4211ETHO    C132638  11.889  12.366   4.057
 4211ETHO   H1132639  11.962  12.431   4.110
 4211ETHO   H1332640  11.788  12.413   4.061
 4211ETHO    C232641  11.917  12.347   3.911
 4211ETHO   H2132642  11.830  12.308   3.854
 4211ETHO   H2332643  12.004  12.281   3.886
 4212ETHO    O132644  11.963  12.473   3.855
 4212ETHO    C132645  12.027  12.459   3.732
 4212ETHO   H1132646  12.096  12.372   3.729
 4212ETHO   H1332647  11.951  12.453   3.651
 4212ETHO    C232648  12.106  12.587   3.695
 4212ETHO   H2132649  12.178  12.568   3.613
 4212ETHO   H2332650  12.160  12.625   3.785
 4213ETHO    O132651  12.018  12.700   3.659
 4213ETHO    C132652  12.010  12.712   3.519
 4213ETHO   H1132653  11.998  12.611   3.474
 4213ETHO   H1332654  12.109  12.742   3.477
 4213ETHO    C232655  11.909  12.809   3.469
 4213ETHO   H2132656  11.927  12.911   3.510
 4213ETHO   H2332657  11.805  12.776   3.490
 4214ETHO    O132658  11.915  12.826   3.333
 4214ETHO    C132659  11.844  12.944   3.295
 4214ETHO   H1132660  11.747  12.944   3.350
 4214ETHO   H1332661  11.900  13.033   3.329
 4214ETHO    C232662  11.825  12.944   3.144
 4214ETHO   H2132663  11.754  12.864   3.114
 4214ETHO   H2332664  11.783  13.043   3.115
 4215ETHO    O132665  11.949  12.928   3.076
 4215ETHO    C132666  11.928  12.890   2.944
 4215ETHO   H1132667  11.838  12.941   2.903
 4215ETHO   H1332668  11.897  12.785   2.961
 4215ETHO    C232669  12.052  12.901   2.852
 4215ETHO   H2132670  12.146  12.887   2.909
 4215ETHO   H2332671  12.060  13.006   2.816
 4216ETHO    O132672  12.048  12.804   2.746
 4216ETHO    C132673  12.156  12.822   2.664
 4216ETHO   H1132674  12.160  12.929   2.636
 4216ETHO   H1332675  12.248  12.803   2.725
 4216ETHO    C232676  12.166  12.748   2.537
 4216ETHO   H2132677  12.074  12.750   2.475
 4216ETHO   H2332678  12.187  12.639   2.533
 4217ETHO    O132679  12.270  12.811   2.462
 4217ETHO    C132680  12.286  12.745   2.338
 4217ETHO   H1132681  12.217  12.770   2.254
 4217ETHO   H1332682  12.273  12.637   2.360
 4217ETHO    C232683  12.421  12.768   2.284
 4217ETHO   H2132684  12.432  12.699   2.197
 4217ETHO   H2332685  12.498  12.735   2.357
 4218ETHO    O132686  12.449  12.906   2.256
 4218ETHO    C132687  12.583  12.939   2.243
 4218ETHO   H1132688  12.592  13.049   2.226
 4218ETHO   H1332689  12.624  12.904   2.339
 4218ETHO    C232690  12.667  12.870   2.130
 4218ETHO   H2132691  12.661  12.761   2.147
 4218ETHO   H2332692  12.771  12.910   2.139
 4219ETHO    O132693  12.629  12.901   2.000
 4219ETHO    C132694  12.742  12.887   1.909
 4219ETHO   H1132695  12.797  12.790   1.917
 4219ETHO   H1332696  12.824  12.953   1.945
 4219ETHO    C232697  12.721  12.930   1.765
 4219ETHO   H2132698  12.808  12.899   1.702
 4219ETHO   H2332699  12.731  13.040   1.752
 4220ETHO    O132700  12.603  12.902   1.699
 4220ETHO    C132701  12.596  12.767   1.666
 4220ETHO   H1132702  12.684  12.746   1.601
 4220ETHO   H1332703  12.611  12.698   1.752
 4220ETHO    C232704  12.458  12.741   1.603
 4220ETHO   H2132705  12.381  12.749   1.683
 4220ETHO   H2332706  12.463  12.635   1.570
 4221ETHO    O132707  12.409  12.827   1.502
 4221ETHO    C132708  12.305  12.762   1.425
 4221ETHO   H1132709  12.226  12.703   1.477
 4221ETHO   H1332710  12.359  12.694   1.355
 4221ETHO    C232711  12.227  12.883   1.351
 4221ETHO   H2132712  12.167  12.829   1.275
 4221ETHO   H2332713  12.305  12.941   1.297
 4222ETHO    O132714  12.147  12.970   1.429
 4222ETHO    C132715  12.076  13.077   1.354
 4222ETHO   H1132716  11.991  13.024   1.305
 4222ETHO   H1332717  12.010  13.133   1.424
 4222ETHO    C232718  12.150  13.179   1.260
 4222ETHO   H2132719  12.252  13.200   1.299
 4222ETHO   H2332720  12.166  13.139   1.158
 4223ETHO    O132721  12.098  13.307   1.248
 4223ETHO    C132722  11.992  13.331   1.154
 4223ETHO   H1132723  12.005  13.433   1.110
 4223ETHO   H1332724  11.992  13.251   1.077
 4223ETHO    C232725  11.849  13.324   1.219
 4223ETHO   H2132726  11.772  13.378   1.160
 4223ETHO   H2332727  11.851  13.376   1.317
 4224ETHO    O132728  11.795  13.188   1.215
 4224ETHO    C132729  11.665  13.187   1.273
 4224ETHO   H1132730  11.668  13.236   1.373
 4224ETHO   H1332731  11.602  13.249   1.205
 4224ETHO    C232732  11.596  13.049   1.280
 4224ETHO   H2132733  11.620  12.990   1.189
 4224ETHO   H2332734  11.487  13.066   1.291
 4225ETHO    O132735  11.656  12.982   1.397
 4225ETHO    C132736  11.625  12.839   1.403
 4225ETHO   H1132737  11.518  12.810   1.406
 4225ETHO   H1332738  11.666  12.786   1.314
 4225ETHO    C232739  11.701  12.772   1.520
 4225ETHO   H2132740  11.810  12.783   1.500
 4225ETHO   H2332741  11.669  12.665   1.523
 4226ETHO    O132742  11.661  12.831   1.641
 4226ETHO    C132743  11.761  12.808   1.742
 4226ETHO   H1132744  11.852  12.870   1.724
 4226ETHO   H1332745  11.798  12.705   1.724
 4226ETHO    C232746  11.696  12.813   1.887
 4226ETHO   H2132747  11.761  12.759   1.959
 4226ETHO   H2332748  11.591  12.779   1.888
 4227ETHO    O132749  11.702  12.948   1.924
 4227ETHO    C132750  11.595  12.998   2.003
 4227ETHO   H1132751  11.496  12.990   1.952
 4227ETHO   H1332752  11.586  12.936   2.095
 4227ETHO    C232753  11.634  13.139   2.052
 4227ETHO   H2132754  11.552  13.183   2.112
 4227ETHO   H2332755  11.641  13.207   1.964
 4228ETHO    O132756  11.754  13.143   2.131
 4228ETHO    C132757  11.730  13.124   2.264
 4228ETHO   H1132758  11.695  13.021   2.284
 4228ETHO   H1332759  11.656  13.197   2.304
 4228ETHO    C232760  11.873  13.139   2.324
 4228ETHO   H2132761  11.945  13.099   2.250
 4228ETHO   H2332762  11.867  13.076   2.415
 4229ETHO    O132763  11.904  13.270   2.370
 4229ETHO    C132764  11.928  13.360   2.260
 4229ETHO   H1132765  11.994  13.303   2.190
 4229ETHO   H1332766  11.837  13.387   2.203
 4229ETHO    C232767  12.019  13.477   2.301
 4229ETHO   H2132768  12.084  13.494   2.213
 4229ETHO   H2332769  12.090  13.454   2.384
 4230ETHO    O132770  11.949  13.595   2.323
 4230ETHO    C132771  12.036  13.709   2.362
 4230ETHO   H1132772  12.106  13.724   2.277
 4230ETHO   H1332773  12.094  13.689   2.455
 4230ETHO    C232774  11.927  13.814   2.392
 4230ETHO   H2132775  11.859  13.818   2.305
 4230ETHO   H2332776  11.969  13.916   2.406
 4231ETHO    O132777  11.859  13.786   2.513
 4231ETHO    C132778  11.886  13.875   2.619
 4231ETHO   H1132779  11.872  13.981   2.589
 4231ETHO   H1332780  11.815  13.863   2.703
 4231ETHO    C232781  12.034  13.871   2.674
 4231ETHO   H2132782  12.048  13.964   2.733
 4231ETHO   H2332783  12.110  13.884   2.594
 4232ETHO    O132784  12.054  13.750   2.744
 4232ETHO    C132785  12.195  13.740   2.774
 4232ETHO   H1132786  12.213  13.826   2.842
 4232ETHO   H1332787  12.258  13.764   2.686
 4232ETHO    C232788  12.238  13.611   2.831
 4232ETHO   H2132789  12.190  13.589   2.929
 4232ETHO   H2332790  12.347  13.618   2.852
 4233ETHO    O132791  12.207  13.520   2.728
 4233ETHO    C132792  12.245  13.383   2.760
 4233ETHO   H1132793  12.354  13.369   2.772
 4233ETHO   H1332794  12.210  13.369   2.864
 4233ETHO    C232795  12.197  13.281   2.654
 4233ETHO   H2132796  12.097  13.311   2.615
 4233ETHO   H2332797  12.171  13.192   2.715
 4234ETHO    O132798  12.281  13.260   2.545
 4234ETHO    C132799  12.228  13.164   2.458
 4234ETHO   H1132800  12.248  13.062   2.497
 4234ETHO   H1332801  12.121  13.177   2.431
 4234ETHO    C232802  12.304  13.164   2.323
 4234ETHO   H2132803  12.278  13.071   2.269
 4234ETHO   H2332804  12.412  13.172   2.349
 4235ETHO    O132805  12.263  13.263   2.235
 4235ETHO    C132806  12.361  13.281   2.141
 4235ETHO   H1132807  12.446  13.344   2.173
 4235ETHO   H1332808  12.402  13.179   2.129
 4235ETHO    C232809  12.295  13.327   2.003
 4235ETHO   H2132810  12.214  13.257   1.974
 4235ETHO   H2332811  12.373  13.320   1.924
 4236ETHO    O132812  12.236  13.455   2.020
 4236ETHO    C132813  12.188  13.503   1.896
 4236ETHO   H1132814  12.274  13.547   1.841
 4236ETHO   H1332815  12.139  13.426   1.834
 4236ETHO    C232816  12.107  13.630   1.921
 4236ETHO   H2132817  12.172  13.718   1.943
 4236ETHO   H2332818  12.040  13.605   2.006
 4237ETHO    O132819  12.029  13.659   1.807
 4237ETHO    C132820  11.932  13.765   1.826
 4237ETHO   H1132821  11.889  13.764   1.928
 4237ETHO   H1332822  11.842  13.752   1.762
 4237ETHO    C232823  11.992  13.910   1.810
 4237ETHO   H2132824  12.069  13.931   1.889
 4237ETHO   H2332825  11.904  13.973   1.836
 4238ETHO    O132826  12.035  13.943   1.676
 4238ETHO    C132827  12.089  14.071   1.668
 4238ETHO   H1132828  12.036  14.140   1.738
 4238ETHO   H1332829  12.059  14.105   1.567
 4238ETHO    C232830  12.240  14.073   1.670
 4238ETHO   H2132831  12.276  14.178   1.681
 4238ETHO   H2332832  12.272  14.026   1.574
 4239ETHO    O132833  12.290  14.000   1.787
 4239ETHO    C132834  12.341  13.872   1.751
 4239ETHO   H1132835  12.398  13.867   1.655
 4239ETHO   H1332836  12.261  13.800   1.723
 4239ETHO    C232837  12.430  13.814   1.867
 4239ETHO   H2132838  12.503  13.896   1.884
 4239ETHO   H2332839  12.479  13.726   1.820
 4240ETHO    O132840  12.370  13.796   1.994
 4240ETHO    C132841  12.463  13.752   2.100
 4240ETHO   H1132842  12.529  13.675   2.053
 4240ETHO   H1332843  12.517  13.843   2.134
 4240ETHO    C232844  12.408  13.680   2.229
 4240ETHO   H2132845  12.354  13.590   2.195
 4240ETHO   H2332846  12.327  13.744   2.270
 4240ETHO    OZ32847  12.517  13.654   2.315
 4240ETHO   HZ132848  12.474  13.592   2.375
 4241ETHO    O132849  19.863  15.019  17.894
 4241ETHO   HO132850  19.946  15.016  17.943
 4241ETHO    C132851  19.836  14.914  17.808
 4241ETHO   H1132852  19.833  14.818  17.865
 4241ETHO   H1332853  19.918  14.900  17.733
 4241ETHO    C232854  19.689  14.909  17.746
 4241ETHO   H2132855  19.627  14.928  17.836
 4241ETHO   H2332856  19.660  14.812  17.700
 4242ETHO    O132857  19.664  15.003  17.642
 4242ETHO    C132858  19.753  14.979  17.532
 4242ETHO   H1132859  19.855  15.008  17.564
 4242ETHO   H1332860  19.728  14.876  17.498
 4242ETHO    C232861  19.719  15.077  17.419
 4242ETHO   H2132862  19.807  15.071  17.351
 4242ETHO   H2332863  19.732  15.180  17.460
 4243ETHO    O132864  19.599  15.054  17.349
 4243ETHO    C132865  19.622  14.956  17.245
 4243ETHO   H1132866  19.636  14.857  17.292
 4243ETHO   H1332867  19.718  14.988  17.198
 4243ETHO    C232868  19.516  14.951  17.128
 4243ETHO   H2132869  19.562  14.911  17.036
 4243ETHO   H2332870  19.481  15.054  17.105
 4244ETHO    O132871  19.402  14.868  17.155
 4244ETHO    C132872  19.299  14.925  17.237
 4244ETHO   H1132873  19.233  14.843  17.272
 4244ETHO   H1332874  19.339  14.977  17.327
 4244ETHO    C232875  19.210  15.008  17.148
 4244ETHO   H2132876  19.271  15.100  17.135
 4244ETHO   H2332877  19.117  15.032  17.204
 4245ETHO    O132878  19.163  14.950  17.029
 4245ETHO    C132879  19.059  15.012  16.958
 4245ETHO   H1132880  18.965  15.011  17.017
 4245ETHO   H1332881  19.090  15.112  16.920
 4245ETHO    C232882  19.028  14.930  16.831
 4245ETHO   H2132883  18.919  14.939  16.811
 4245ETHO   H2332884  19.046  14.825  16.861
 4246ETHO    O132885  19.095  14.951  16.708
 4246ETHO    C132886  19.057  14.864  16.607
 4246ETHO   H1132887  19.135  14.787  16.594
 4246ETHO   H1332888  18.964  14.807  16.628
 4246ETHO    C232889  19.011  14.937  16.476
 4246ETHO   H2132890  18.978  14.857  16.406
 4246ETHO   H2332891  19.109  14.986  16.459
 4247ETHO    O132892  18.904  15.027  16.509
 4247ETHO    C132893  18.837  15.093  16.401
 4247ETHO   H1132894  18.909  15.175  16.379
 4247ETHO   H1332895  18.814  15.013  16.328
 4247ETHO    C232896  18.702  15.156  16.449
 4247ETHO   H2132897  18.656  15.226  16.376
 4247ETHO   H2332898  18.724  15.214  16.542
 4248ETHO    O132899  18.619  15.051  16.495
 4248ETHO    C132900  18.484  15.082  16.485
 4248ETHO   H1132901  18.462  15.099  16.378
 4248ETHO   H1332902  18.456  15.166  16.552
 4248ETHO    C232903  18.390  14.967  16.533
 4248ETHO   H2132904  18.418  14.878  16.473
 4248ETHO   H2332905  18.282  14.993  16.521
 4249ETHO    O132906  18.400  14.966  16.676
 4249ETHO    C132907  18.301  14.882  16.742
 4249ETHO   H1132908  18.196  14.897  16.708
 4249ETHO   H1332909  18.319  14.773  16.733
 4249ETHO    C232910  18.312  14.914  16.892
 4249ETHO   H2132911  18.311  15.024  16.904
 4249ETHO   H2332912  18.406  14.864  16.926
 4250ETHO    O132913  18.215  14.863  16.981
 4250ETHO    C132914  18.212  14.941  17.102
 4250ETHO   H1132915  18.158  15.035  17.075
 4250ETHO   H1332916  18.318  14.957  17.130
 4250ETHO    C232917  18.143  14.864  17.208
 4250ETHO   H2132918  18.116  14.765  17.165
 4250ETHO   H2332919  18.055  14.920  17.245
 4251ETHO    O132920  18.222  14.852  17.321
 4251ETHO    C132921  18.161  14.789  17.435
 4251ETHO   H1132922  18.203  14.830  17.529
 4251ETHO   H1332923  18.051  14.805  17.422
 4251ETHO    C232924  18.182  14.635  17.440
 4251ETHO   H2132925  18.127  14.593  17.527
 4251ETHO   H2332926  18.144  14.586  17.348
 4252ETHO    O132927  18.317  14.593  17.473
 4252ETHO    C132928  18.348  14.468  17.423
 4252ETHO   H1132929  18.320  14.461  17.315
 4252ETHO   H1332930  18.280  14.389  17.460
 4252ETHO    C232931  18.490  14.425  17.442
 4252ETHO   H2132932  18.553  14.504  17.396
 4252ETHO   H2332933  18.508  14.336  17.378
 4253ETHO    O132934  18.534  14.392  17.571
 4253ETHO    C132935  18.673  14.394  17.580
 4253ETHO   H1132936  18.710  14.315  17.512
 4253ETHO   H1332937  18.715  14.493  17.552
 4253ETHO    C232938  18.712  14.365  17.725
 4253ETHO   H2132939  18.821  14.359  17.743
 4253ETHO   H2332940  18.671  14.269  17.764
 4254ETHO    O132941  18.672  14.481  17.801
 4254ETHO    C132942  18.730  14.500  17.931
 4254ETHO   H1132943  18.835  14.462  17.926
 4254ETHO   H1332944  18.686  14.423  17.998
 4254ETHO    C232945  18.715  14.640  17.993
 4254ETHO   H2132946  18.751  14.629  18.098
 4254ETHO   H2332947  18.610  14.676  17.999
 4255ETHO    O132948  18.789  14.743  17.922
 4255ETHO    C132949  18.792  14.869  17.988
 4255ETHO   H1132950  18.828  14.856  18.092
 4255ETHO   H1332951  18.866  14.928  17.929
 4255ETHO    C232952  18.650  14.936  17.983
 4255ETHO   H2132953  18.662  15.042  18.013
 4255ETHO   H2332954  18.605  14.930  17.882
 4256ETHO    O132955  18.560  14.876  18.071
 4256ETHO    C132956  18.426  14.918  18.043
 4256ETHO   H1132957  18.413  15.028  18.028
 4256ETHO   H1332958  18.397  14.858  17.955
 4256ETHO    C232959  18.343  14.874  18.161
 4256ETHO   H2132960  18.374  14.770  18.182
 4256ETHO   H2332961  18.234  14.860  18.142
 4257ETHO    O132962  18.373  14.960  18.266
 4257ETHO    C132963  18.323  14.909  18.391
 4257ETHO   H1132964  18.212  14.902  18.388
 4257ETHO   H1332965  18.365  14.810  18.416
 4257ETHO    C232966  18.371  14.990  18.511
 4257ETHO   H2132967  18.482  14.997  18.513
 4257ETHO   H2332968  18.332  14.947  18.606
 4258ETHO    O132969  18.305  15.118  18.522
 4258ETHO    C132970  18.354  15.188  18.638
 4258ETHO   H1132971  18.317  15.128  18.724
 4258ETHO   H1332972  18.464  15.171  18.637
 4258ETHO    C232973  18.305  15.329  18.634
 4258ETHO   H2132974  18.314  15.365  18.739
 4258ETHO   H2332975  18.197  15.327  18.609
 4259ETHO    O132976  18.375  15.421  18.549
 4259ETHO    C132977  18.288  15.501  18.462
 4259ETHO   H1132978  18.207  15.554  18.518
 4259ETHO   H1332979  18.228  15.430  18.401
 4259ETHO    C232980  18.377  15.599  18.377
 4259ETHO   H2132981  18.327  15.634  18.284
 4259ETHO   H2332982  18.477  15.559  18.352
 4260ETHO    O132983  18.400  15.725  18.449
 4260ETHO    C132984  18.485  15.811  18.377
 4260ETHO   H1132985  18.583  15.758  18.371
 4260ETHO   H1332986  18.442  15.837  18.278
 4260ETHO    C232987  18.521  15.938  18.448
 4260ETHO   H2132988  18.429  15.999  18.461
 4260ETHO   H2332989  18.591  15.999  18.387
 4261ETHO    O132990  18.587  15.905  18.569
 4261ETHO    C132991  18.665  16.015  18.622
 4261ETHO   H1132992  18.603  16.099  18.659
 4261ETHO   H1332993  18.724  16.066  18.542
 4261ETHO    C232994  18.750  15.973  18.737
 4261ETHO   H2132995  18.688  15.929  18.819
 4261ETHO   H2332996  18.803  16.061  18.780
 4262ETHO    O132997  18.851  15.877  18.698
 4262ETHO    C132998  18.823  15.754  18.757
 4262ETHO   H1132999  18.785  15.764  18.861
 4262ETHO   H1333000  18.750  15.701  18.693
 4262ETHO    C233001  18.941  15.658  18.766
 4262ETHO   H2133002  19.024  15.723  18.800
 4262ETHO   H2333003  18.922  15.587  18.850
 4263ETHO    O133004  18.970  15.591  18.640
 4263ETHO    C133005  19.103  15.529  18.639
 4263ETHO   H1133006  19.078  15.434  18.691
 4263ETHO   H1333007  19.171  15.603  18.686
 4263ETHO    C233008  19.129  15.487  18.499
 4263ETHO   H2133009  19.171  15.576  18.448
 4263ETHO   H2333010  19.031  15.448  18.464
 4264ETHO    O133011  19.221  15.378  18.505
 4264ETHO    C133012  19.246  15.317  18.375
 4264ETHO   H1133013  19.240  15.207  18.387
 4264ETHO   H1333014  19.159  15.339  18.310
 4264ETHO    C233015  19.375  15.371  18.302
 4264ETHO   H2133016  19.467  15.334  18.352
 4264ETHO   H2333017  19.379  15.482  18.300
 4265ETHO    O133018  19.388  15.350  18.160
 4265ETHO    C133019  19.421  15.207  18.139
 4265ETHO   H1133020  19.395  15.187  18.033
 4265ETHO   H1333021  19.364  15.145  18.211
 4265ETHO    C233022  19.571  15.184  18.156
 4265ETHO   H2133023  19.618  15.269  18.210
 4265ETHO   H2333024  19.623  15.173  18.058
 4266ETHO    O133025  19.604  15.069  18.245
 4266ETHO    C133026  19.737  15.026  18.223
 4266ETHO   H1133027  19.753  15.010  18.114
 4266ETHO   H1333028  19.814  15.094  18.265
 4266ETHO    C233029  19.759  14.887  18.284
 4266ETHO   H2133030  19.729  14.884  18.390
 4266ETHO   H2333031  19.866  14.859  18.270
 4267ETHO    O133032  19.696  14.783  18.217
 4267ETHO    C133033  19.723  14.655  18.272
 4267ETHO   H1133034  19.704  14.640  18.380
 4267ETHO   H1333035  19.832  14.636  18.272
 4267ETHO    C233036  19.649  14.543  18.206
 4267ETHO   H2133037  19.676  14.442  18.244
 4267ETHO   H2333038  19.666  14.540  18.096
 4268ETHO    O133039  19.502  14.548  18.219
 4268ETHO    C133040  19.440  14.473  18.117
 4268ETHO   H1133041  19.473  14.523  18.024
 4268ETHO   H1333042  19.494  14.376  18.124
 4268ETHO    C233043  19.285  14.454  18.147
 4268ETHO   H2133044  19.288  14.424  18.254
 4268ETHO   H2333045  19.242  14.380  18.077
 4269ETHO    O133046  19.223  14.578  18.125
 4269ETHO    C133047  19.085  14.567  18.118
 4269ETHO   H1133048  19.055  14.499  18.035
 4269ETHO   H1333049  19.052  14.669  18.090
 4269ETHO    C233050  19.014  14.531  18.252
 4269ETHO   H2133051  18.908  14.559  18.241
 4269ETHO   H2333052  19.055  14.597  18.332
 4270ETHO    O133053  19.033  14.393  18.279
 4270ETHO    C133054  18.965  14.334  18.395
 4270ETHO   H1133055  19.024  14.243  18.418
 4270ETHO   H1333056  18.985  14.401  18.482
 4270ETHO    C233057  18.820  14.306  18.367
 4270ETHO   H2133058  18.780  14.234  18.442
 4270ETHO   H2333059  18.810  14.249  18.273
 4271ETHO    O133060  18.739  14.417  18.362
 4271ETHO    C133061  18.592  14.396  18.368
 4271ETHO   H1133062  18.564  14.344  18.274
 4271ETHO   H1333063  18.554  14.336  18.453
 4271ETHO    C233064  18.515  14.528  18.375
 4271ETHO   H2133065  18.408  14.505  18.357
 4271ETHO   H2333066  18.551  14.601  18.299
 4272ETHO    O133067  18.516  14.601  18.496
 4272ETHO    C133068  18.414  14.567  18.581
 4272ETHO   H1133069  18.318  14.594  18.532
 4272ETHO   H1333070  18.415  14.457  18.602
 4272ETHO    C233071  18.424  14.646  18.711
 4272ETHO   H2133072  18.332  14.643  18.774
 4272ETHO   H2333073  18.452  14.750  18.685
 4273ETHO    O133074  18.529  14.605  18.798
 4273ETHO    C133075  18.554  14.706  18.891
 4273ETHO   H1133076  18.636  14.656  18.948
 4273ETHO   H1333077  18.598  14.790  18.833
 4273ETHO    C233078  18.438  14.745  18.986
 4273ETHO   H2133079  18.479  14.741  19.089
 4273ETHO   H2333080  18.358  14.667  18.986
 4274ETHO    O133081  18.393  14.877  18.960
 4274ETHO    C133082  18.293  14.917  19.047
 4274ETHO   H1133083  18.315  14.878  19.149
 4274ETHO   H1333084  18.202  14.873  19.000
 4274ETHO    C233085  18.276  15.072  19.041
 4274ETHO   H2133086  18.200  15.093  19.119
 4274ETHO   H2333087  18.250  15.111  18.940
 4275ETHO    O133088  18.396  15.129  19.074
 4275ETHO    C133089  18.393  15.268  19.072
 4275ETHO   H1133090  18.332  15.305  18.987
 4275ETHO   H1333091  18.367  15.317  19.169
 4275ETHO    C233092  18.527  15.339  19.040
 4275ETHO   H2133093  18.605  15.293  19.104
 4275ETHO   H2333094  18.510  15.449  19.037
 4276ETHO    O133095  18.561  15.312  18.903
 4276ETHO    C133096  18.687  15.348  18.868
 4276ETHO   H1133097  18.748  15.260  18.899
 4276ETHO   H1333098  18.723  15.435  18.927
 4276ETHO    C233099  18.714  15.386  18.721
 4276ETHO   H2133100  18.810  15.438  18.698
 4276ETHO   H2333101  18.640  15.459  18.683
 4277ETHO    O133102  18.715  15.266  18.647
 4277ETHO    C133103  18.742  15.293  18.509
 4277ETHO   H1133104  18.668  15.362  18.463
 4277ETHO   H1333105  18.844  15.337  18.503
 4277ETHO    C233106  18.740  15.169  18.420
 4277ETHO   H2133107  18.763  15.197  18.315
 4277ETHO   H2333108  18.639  15.122  18.425
 4278ETHO    O133109  18.841  15.073  18.455
 4278ETHO    C133110  18.865  14.977  18.356
 4278ETHO   H1133111  18.883  15.026  18.258
 4278ETHO   H1333112  18.772  14.917  18.350
 4278ETHO    C233113  18.978  14.875  18.387
 4278ETHO   H2133114  18.963  14.787  18.320
 4278ETHO   H2333115  18.970  14.836  18.491
 4279ETHO    O133116  19.110  14.925  18.368
 4279ETHO    C133117  19.208  14.823  18.403
 4279ETHO   H1133118  19.181  14.773  18.499
 4279ETHO   H1333119  19.219  14.754  18.317
 4279ETHO    C233120  19.346  14.884  18.415
 4279ETHO   H2133121  19.358  14.969  18.344
 4279ETHO   H2333122  19.418  14.802  18.394
 4280ETHO    O133123  19.357  14.935  18.549
 4280ETHO    C133124  19.451  15.043  18.568
 4280ETHO   H1133125  19.470  15.092  18.470
 4280ETHO   H1333126  19.547  14.991  18.592
 4280ETHO    C233127  19.405  15.143  18.669
 4280ETHO   H2133128  19.298  15.159  18.642
 4280ETHO   H2333129  19.461  15.239  18.669
 4281ETHO    O133130  19.416  15.089  18.802
 4281ETHO    C133131  19.357  15.174  18.900
 4281ETHO   H1133132  19.274  15.228  18.850
 4281ETHO   H1333133  19.321  15.113  18.986
 4281ETHO    C233134  19.462  15.267  18.960
 4281ETHO   H2133135  19.486  15.353  18.894
 4281ETHO   H2333136  19.560  15.217  18.974
 4282ETHO    O133137  19.428  15.325  19.087
 4282ETHO    C133138  19.528  15.412  19.140
 4282ETHO   H1133139  19.619  15.397  19.079
 4282ETHO   H1333140  19.493  15.510  19.102
 4282ETHO    C233141  19.549  15.402  19.290
 4282ETHO   H2133142  19.448  15.387  19.334
 4282ETHO   H2333143  19.590  15.492  19.340
 4283ETHO    O133144  19.623  15.283  19.317
 4283ETHO    C133145  19.759  15.304  19.299
 4283ETHO   H1133146  19.788  15.403  19.259
 4283ETHO   H1333147  19.810  15.292  19.397
 4283ETHO    C233148  19.823  15.196  19.218
 4283ETHO   H2133149  19.903  15.243  19.158
 4283ETHO   H2333150  19.740  15.152  19.157
 4284ETHO    O133151  19.876  15.091  19.296
 4284ETHO    C133152  19.950  15.001  19.222
 4284ETHO   H1133153  19.895  14.960  19.135
 4284ETHO   H1333154  20.042  15.058  19.193
 4284ETHO    C233155  19.997  14.880  19.307
 4284ETHO   H2133156  20.046  14.802  19.246
 4284ETHO   H2333157  19.900  14.844  19.346
 4285ETHO    O133158  20.091  14.911  19.416
 4285ETHO    C133159  20.081  14.803  19.511
 4285ETHO   H1133160  20.059  14.714  19.449
 4285ETHO   H1333161  19.988  14.828  19.567
 4285ETHO    C233162  20.201  14.791  19.603
 4285ETHO   H2133163  20.181  14.718  19.683
 4285ETHO   H2333164  20.200  14.890  19.653
 4286ETHO    O133165  20.321  14.760  19.542
 4286ETHO    C133166  20.323  14.622  19.508
 4286ETHO   H1133167  20.271  14.553  19.577
 4286ETHO   H1333168  20.259  14.611  19.418
 4286ETHO    C233169  20.468  14.575  19.471
 4286ETHO   H2133170  20.468  14.465  19.479
 4286ETHO   H2333171  20.547  14.616  19.538
 4287ETHO    O133172  20.506  14.608  19.337
 4287ETHO    C133173  20.648  14.591  19.312
 4287ETHO   H1133174  20.705  14.628  19.400
 4287ETHO   H1333175  20.665  14.653  19.222
 4287ETHO    C233176  20.691  14.444  19.266
 4287ETHO   H2133177  20.790  14.453  19.218
 4287ETHO   H2333178  20.622  14.408  19.186
 4288ETHO    O133179  20.692  14.337  19.368
 4288ETHO    C133180  20.812  14.323  19.448
 4288ETHO   H1133181  20.902  14.313  19.384
 4288ETHO   H1333182  20.835  14.413  19.508
 4288ETHO    C233183  20.805  14.209  19.546
 4288ETHO   H2133184  20.872  14.227  19.633
 4288ETHO   H2333185  20.707  14.213  19.599
 4289ETHO    O133186  20.831  14.074  19.501
 4289ETHO    C133187  20.783  13.975  19.597
 4289ETHO   H1133188  20.680  13.999  19.632
 4289ETHO   H1333189  20.856  13.968  19.680
 4289ETHO    C233190  20.786  13.839  19.534
 4289ETHO   H2133191  20.766  13.767  19.617
 4289ETHO   H2333192  20.885  13.825  19.487
 4290ETHO    O133193  20.682  13.822  19.440
 4290ETHO    C133194  20.648  13.682  19.413
 4290ETHO   H1133195  20.640  13.627  19.508
 4290ETHO   H1333196  20.548  13.681  19.365
 4290ETHO    C233197  20.739  13.610  19.313
 4290ETHO   H2133198  20.709  13.504  19.322
 4290ETHO   H2333199  20.845  13.625  19.346
 4291ETHO    O133200  20.723  13.635  19.174
 4291ETHO    C133201  20.820  13.553  19.103
 4291ETHO   H1133202  20.850  13.460  19.156
 4291ETHO   H1333203  20.912  13.614  19.098
 4291ETHO    C233204  20.778  13.519  18.963
 4291ETHO   H2133205  20.696  13.444  18.968
 4291ETHO   H2333206  20.865  13.468  18.916
 4292ETHO    O133207  20.750  13.639  18.892
 4292ETHO    C133208  20.699  13.606  18.757
 4292ETHO   H1133209  20.655  13.505  18.753
 4292ETHO   H1333210  20.614  13.673  18.733
 4292ETHO    C233211  20.810  13.603  18.650
 4292ETHO   H2133212  20.765  13.569  18.554
 4292ETHO   H2333213  20.892  13.535  18.680
 4293ETHO    O133214  20.869  13.733  18.636
 4293ETHO    C133215  20.937  13.754  18.510
 4293ETHO   H1133216  21.018  13.678  18.508
 4293ETHO   H1333217  20.867  13.736  18.425
 4293ETHO    C233218  20.983  13.900  18.499
 4293ETHO   H2133219  21.053  13.911  18.414
 4293ETHO   H2333220  21.034  13.939  18.590
 4294ETHO    O133221  20.864  13.981  18.473
 4294ETHO    C133222  20.897  14.118  18.454
 4294ETHO   H1133223  20.922  14.157  18.555
 4294ETHO   H1333224  20.980  14.126  18.380
 4294ETHO    C233225  20.779  14.195  18.397
 4294ETHO   H2133226  20.780  14.302  18.427
 4294ETHO   H2333227  20.688  14.155  18.447
 4295ETHO    O133228  20.761  14.202  18.258
 4295ETHO    C133229  20.617  14.216  18.225
 4295ETHO   H1133230  20.561  14.126  18.259
 4295ETHO   H1333231  20.569  14.306  18.269
 4295ETHO    C233232  20.615  14.237  18.070
 4295ETHO   H2133233  20.671  14.157  18.017
 4295ETHO   H2333234  20.510  14.243  18.036
 4296ETHO    O133235  20.670  14.365  18.034
 4296ETHO    C133236  20.633  14.418  17.906
 4296ETHO   H1133237  20.525  14.446  17.910
 4296ETHO   H1333238  20.647  14.340  17.828
 4296ETHO    C233239  20.717  14.543  17.876
 4296ETHO   H2133240  20.694  14.562  17.769
 4296ETHO   H2333241  20.825  14.516  17.872
 4297ETHO    O133242  20.694  14.652  17.961
 4297ETHO    C133243  20.821  14.713  17.989
 4297ETHO   H1133244  20.887  14.642  18.043
 4297ETHO   H1333245  20.874  14.745  17.897
 4297ETHO    C233246  20.807  14.835  18.075
 4297ETHO   H2133247  20.908  14.873  18.098
 4297ETHO   H2333248  20.760  14.810  18.172
 4298ETHO    O133249  20.725  14.932  18.023
 4298ETHO    C133250  20.745  15.065  18.073
 4298ETHO   H1133251  20.715  15.061  18.180
 4298ETHO   H1333252  20.659  15.121  18.031
 4298ETHO    C233253  20.882  15.132  18.047
 4298ETHO   H2133254  20.865  15.241  18.061
 4298ETHO   H2333255  20.914  15.107  17.944
 4299ETHO    O133256  20.992  15.087  18.131
 4299ETHO    C133257  21.107  15.162  18.105
 4299ETHO   H1133258  21.150  15.131  18.007
 4299ETHO   H1333259  21.078  15.270  18.099
 4299ETHO    C233260  21.207  15.146  18.216
 4299ETHO   H2133261  21.182  15.181  18.318
 4299ETHO   H2333262  21.301  15.196  18.184
 4300ETHO    O133263  21.259  15.017  18.214
 4300ETHO    C133264  21.373  14.996  18.298
 4300ETHO   H1133265  21.368  15.029  18.404
 4300ETHO   H1333266  21.453  15.052  18.245
 4300ETHO    C233267  21.404  14.846  18.293
 4300ETHO   H2133268  21.507  14.831  18.331
 4300ETHO   H2333269  21.405  14.807  18.189
 4301ETHO    O133270  21.326  14.756  18.368
 4301ETHO    C133271  21.182  14.753  18.339
 4301ETHO   H1133272  21.127  14.839  18.382
 4301ETHO   H1333273  21.169  14.762  18.229
 4301ETHO    C233274  21.131  14.622  18.390
 4301ETHO   H2133275  21.200  14.539  18.367
 4301ETHO   H2333276  21.035  14.601  18.338
 4302ETHO    O133277  21.116  14.629  18.532
 4302ETHO    C133278  21.032  14.522  18.573
 4302ETHO   H1133279  21.010  14.445  18.495
 4302ETHO   H1333280  20.936  14.569  18.602
 4302ETHO    C233281  21.059  14.464  18.707
 4302ETHO   H2133282  20.963  14.423  18.744
 4302ETHO   H2333283  21.103  14.539  18.777
 4303ETHO    O133284  21.141  14.348  18.694
 4303ETHO    C133285  21.148  14.270  18.820
 4303ETHO   H1133286  21.185  14.331  18.905
 4303ETHO   H1333287  21.048  14.240  18.858
 4303ETHO    C233288  21.251  14.154  18.803
 4303ETHO   H2133289  21.241  14.101  18.706
 4303ETHO   H2333290  21.233  14.089  18.892
 4304ETHO    O133291  21.384  14.210  18.821
 4304ETHO    C133292  21.491  14.116  18.803
 4304ETHO   H1133293  21.487  14.087  18.696
 4304ETHO   H1333294  21.469  14.023  18.860
 4304ETHO    C233295  21.626  14.189  18.822
 4304ETHO   H2133296  21.629  14.278  18.756
 4304ETHO   H2333297  21.701  14.114  18.787
 4305ETHO    O133298  21.656  14.229  18.957
 4305ETHO    C133299  21.787  14.286  18.953
 4305ETHO   H1133300  21.864  14.216  18.914
 4305ETHO   H1333301  21.788  14.373  18.885
 4305ETHO    C233302  21.827  14.348  19.096
 4305ETHO   H2133303  21.937  14.361  19.101
 4305ETHO   H2333304  21.788  14.275  19.170
 4306ETHO    O133305  21.757  14.467  19.115
 4306ETHO    C133306  21.794  14.518  19.240
 4306ETHO   H1133307  21.898  14.553  19.224
 4306ETHO   H1333308  21.809  14.435  19.313
 4306ETHO    C233309  21.702  14.624  19.295
 4306ETHO   H2133310  21.692  14.626  19.405
 4306ETHO   H2333311  21.598  14.598  19.268
 4307ETHO    O133312  21.723  14.752  19.233
 4307ETHO    C133313  21.652  14.859  19.306
 4307ETHO   H1133314  21.566  14.821  19.364
 4307ETHO   H1333315  21.717  14.898  19.387
 4307ETHO    C233316  21.588  14.976  19.230
 4307ETHO   H2133317  21.667  15.041  19.188
 4307ETHO   H2333318  21.535  15.041  19.303
 4308ETHO    O133319  21.493  14.944  19.130
 4308ETHO    C133320  21.409  15.056  19.096
 4308ETHO   H1133321  21.344  15.014  19.017
 4308ETHO   H1333322  21.344  15.077  19.183
 4308ETHO    C233323  21.488  15.175  19.042
 4308ETHO   H2133324  21.419  15.243  18.987
 4308ETHO   H2333325  21.557  15.129  18.969
 4309ETHO    O133326  21.556  15.258  19.136
 4309ETHO    C133327  21.644  15.365  19.085
 4309ETHO   H1133328  21.715  15.328  19.007
 4309ETHO   H1333329  21.567  15.431  19.039
 4309ETHO    C233330  21.714  15.438  19.201
 4309ETHO   H2133331  21.651  15.469  19.288
 4309ETHO   H2333332  21.754  15.537  19.170
 4310ETHO    O133333  21.823  15.345  19.237
 4310ETHO    C133334  21.853  15.362  19.373
 4310ETHO   H1133335  21.883  15.468  19.387
 4310ETHO   H1333336  21.758  15.342  19.427
 4310ETHO    C233337  21.963  15.263  19.423
 4310ETHO   H2133338  21.929  15.158  19.414
 4310ETHO   H2333339  21.978  15.291  19.529
 4311ETHO    O133340  22.088  15.288  19.361
 4311ETHO    C133341  22.180  15.182  19.379
 4311ETHO   H1133342  22.154  15.158  19.484
 4311ETHO   H1333343  22.283  15.220  19.398
 4311ETHO    C233344  22.169  15.053  19.291
 4311ETHO   H2133345  22.267  15.002  19.299
 4311ETHO   H2333346  22.164  15.078  19.183
 4312ETHO    O133347  22.063  14.969  19.341
 4312ETHO    C133348  22.047  14.853  19.262
 4312ETHO   H1133349  21.940  14.826  19.278
 4312ETHO   H1333350  22.065  14.894  19.160
 4312ETHO    C233351  22.136  14.739  19.286
 4312ETHO   H2133352  22.242  14.773  19.281
 4312ETHO   H2333353  22.118  14.659  19.211
 4313ETHO    O133354  22.106  14.676  19.407
 4313ETHO    C133355  22.218  14.625  19.483
 4313ETHO   H1133356  22.195  14.617  19.591
 4313ETHO   H1333357  22.315  14.677  19.465
 4313ETHO    C233358  22.237  14.479  19.440
 4313ETHO   H2133359  22.328  14.449  19.497
 4313ETHO   H2333360  22.263  14.472  19.332
 4314ETHO    O133361  22.121  14.404  19.477
 4314ETHO    C133362  22.136  14.269  19.428
 4314ETHO   H1133363  22.167  14.260  19.322
 4314ETHO   H1333364  22.216  14.212  19.480
 4314ETHO    C233365  22.005  14.181  19.440
 4314ETHO   H2133366  22.036  14.084  19.396
 4314ETHO   H2333367  21.922  14.223  19.378
 4315ETHO    O133368  21.956  14.165  19.578
 4315ETHO    C133369  21.841  14.076  19.586
 4315ETHO   H1133370  21.814  14.066  19.694
 4315ETHO   H1333371  21.882  13.982  19.545
 4315ETHO    C233372  21.714  14.112  19.511
 4315ETHO   H2133373  21.690  14.219  19.528
 4315ETHO   H2333374  21.632  14.058  19.564
 4316ETHO    O133375  21.707  14.073  19.377
 4316ETHO    C133376  21.586  14.121  19.312
 4316ETHO   H1133377  21.495  14.118  19.376
 4316ETHO   H1333378  21.601  14.226  19.281
 4316ETHO    C233379  21.548  14.037  19.181
 4316ETHO   H2133380  21.635  14.046  19.113
 4316ETHO   H2333381  21.466  14.088  19.126
 4317ETHO    O133382  21.521  13.898  19.210
 4317ETHO    C133383  21.426  13.867  19.304
 4317ETHO   H1133384  21.343  13.941  19.298
 4317ETHO   H1333385  21.476  13.872  19.403
 4317ETHO    C233386  21.384  13.731  19.262
 4317ETHO   H2133387  21.328  13.679  19.342
 4317ETHO   H2333388  21.479  13.673  19.259
 4318ETHO    O133389  21.309  13.740  19.137
 4318ETHO    C133390  21.275  13.612  19.091
 4318ETHO   H1133391  21.355  13.535  19.101
 4318ETHO   H1333392  21.182  13.577  19.141
 4318ETHO    C233393  21.248  13.603  18.941
 4318ETHO   H2133394  21.158  13.663  18.915
 4318ETHO   H2333395  21.222  13.497  18.921
 4319ETHO    O133396  21.364  13.640  18.866
 4319ETHO    C133397  21.343  13.628  18.724
 4319ETHO   H1133398  21.356  13.519  18.705
 4319ETHO   H1333399  21.245  13.663  18.686
 4319ETHO    C233400  21.445  13.683  18.623
 4319ETHO   H2133401  21.422  13.624  18.532
 4319ETHO   H2333402  21.553  13.673  18.649
 4320ETHO    O133403  21.417  13.824  18.590
 4320ETHO    C133404  21.484  13.869  18.479
 4320ETHO   H1133405  21.573  13.925  18.516
 4320ETHO   H1333406  21.514  13.789  18.408
 4320ETHO    C233407  21.404  13.972  18.400
 4320ETHO   H2133408  21.469  14.049  18.352
 4320ETHO   H2333409  21.336  14.032  18.464
 4321ETHO    O133410  21.325  13.925  18.283
 4321ETHO    C133411  21.265  14.028  18.208
 4321ETHO   H1133412  21.171  14.058  18.258
 4321ETHO   H1333413  21.337  14.113  18.202
 4321ETHO    C233414  21.235  13.976  18.062
 4321ETHO   H2133415  21.230  14.069  18.002
 4321ETHO   H2333416  21.322  13.921  18.020
 4322ETHO    O133417  21.121  13.893  18.038
 4322ETHO    C133418  20.993  13.963  18.050
 4322ETHO   H1133419  20.939  13.986  17.956
 4322ETHO   H1333420  21.006  14.062  18.098
 4322ETHO    C233421  20.893  13.890  18.142
 4322ETHO   H2133422  20.819  13.966  18.174
 4322ETHO   H2333423  20.926  13.852  18.241
 4323ETHO    O133424  20.808  13.792  18.079
 4323ETHO    C133425  20.697  13.768  18.161
 4323ETHO   H1133426  20.731  13.734  18.262
 4323ETHO   H1333427  20.635  13.860  18.165
 4323ETHO    C233428  20.616  13.665  18.090
 4323ETHO   H2133429  20.546  13.631  18.169
 4323ETHO   H2333430  20.673  13.573  18.064
 4324ETHO    O133431  20.533  13.724  17.988
 4324ETHO    C133432  20.467  13.625  17.916
 4324ETHO   H1133433  20.418  13.551  17.982
 4324ETHO   H1333434  20.530  13.571  17.842
 4324ETHO    C233435  20.347  13.668  17.828
 4324ETHO   H2133436  20.321  13.604  17.741
 4324ETHO   H2333437  20.369  13.762  17.772
 4325ETHO    O133438  20.239  13.693  17.912
 4325ETHO    C133439  20.158  13.802  17.869
 4325ETHO   H1133440  20.087  13.835  17.947
 4325ETHO   H1333441  20.224  13.890  17.852
 4325ETHO    C233442  20.073  13.763  17.746
 4325ETHO   H2133443  20.144  13.746  17.663
 4325ETHO   H2333444  20.005  13.850  17.732
 4326ETHO    O133445  19.986  13.651  17.756
 4326ETHO    C133446  19.898  13.634  17.640
 4326ETHO   H1133447  19.948  13.585  17.553
 4326ETHO   H1333448  19.875  13.737  17.606
 4326ETHO    C233449  19.762  13.569  17.684
 4326ETHO   H2133450  19.746  13.570  17.794
 4326ETHO   H2333451  19.764  13.463  17.652
 4327ETHO    O133452  19.654  13.633  17.635
 4327ETHO    C133453  19.532  13.572  17.666
 4327ETHO   H1133454  19.521  13.487  17.595
 4327ETHO   H1333455  19.523  13.529  17.768
 4327ETHO    C233456  19.416  13.663  17.635
 4327ETHO   H2133457  19.421  13.699  17.530
 4327ETHO   H2333458  19.411  13.750  17.703
 4328ETHO    O133459  19.286  13.599  17.646
 4328ETHO    C133460  19.182  13.662  17.576
 4328ETHO   H1133461  19.221  13.699  17.479
 4328ETHO   H1333462  19.145  13.751  17.631
 4328ETHO    C233463  19.049  13.581  17.561
 4328ETHO   H2133464  18.971  13.655  17.533
 4328ETHO   H2333465  19.025  13.523  17.653
 4329ETHO    O133466  19.054  13.496  17.446
 4329ETHO    C133467  18.929  13.432  17.428
 4329ETHO   H1133468  18.900  13.364  17.511
 4329ETHO   H1333469  18.847  13.506  17.417
 4329ETHO    C233470  18.926  13.361  17.287
 4329ETHO   H2133471  18.834  13.298  17.290
 4329ETHO   H2333472  19.015  13.297  17.275
 4330ETHO    O133473  18.914  13.445  17.177
 4330ETHO    C133474  18.878  13.370  17.061
 4330ETHO   H1133475  18.975  13.355  17.008
 4330ETHO   H1333476  18.845  13.266  17.085
 4330ETHO    C233477  18.769  13.447  16.967
 4330ETHO   H2133478  18.764  13.400  16.867
 4330ETHO   H2333479  18.812  13.550  16.965
 4331ETHO    O133480  18.637  13.452  17.018
 4331ETHO    C133481  18.551  13.549  16.954
 4331ETHO   H1133482  18.594  13.651  16.952
 4331ETHO   H1333483  18.546  13.529  16.845
 4331ETHO    C233484  18.408  13.554  17.022
 4331ETHO   H2133485  18.415  13.586  17.128
 4331ETHO   H2333486  18.371  13.449  17.020
 4332ETHO    O133487  18.316  13.643  16.960
 4332ETHO    C133488  18.238  13.576  16.858
 4332ETHO   H1133489  18.292  13.572  16.761
 4332ETHO   H1333490  18.223  13.470  16.890
 4332ETHO    C233491  18.094  13.627  16.856
 4332ETHO   H2133492  18.088  13.711  16.784
 4332ETHO   H2333493  18.066  13.681  16.949
 4333ETHO    O133494  17.996  13.528  16.833
 4333ETHO    C133495  17.874  13.590  16.812
 4333ETHO   H1133496  17.873  13.687  16.756
 4333ETHO   H1333497  17.829  13.617  16.910
 4333ETHO    C233498  17.767  13.500  16.740
 4333ETHO   H2133499  17.770  13.394  16.774
 4333ETHO   H2333500  17.766  13.501  16.629
 4334ETHO    O133501  17.634  13.535  16.789
 4334ETHO    C133502  17.537  13.561  16.690
 4334ETHO   H1133503  17.581  13.628  16.613
 4334ETHO   H1333504  17.526  13.466  16.635
 4334ETHO    C233505  17.404  13.607  16.750
 4334ETHO   H2133506  17.397  13.551  16.846
 4334ETHO   H2333507  17.318  13.573  16.689
 4335ETHO    O133508  17.396  13.750  16.780
 4335ETHO    C133509  17.269  13.779  16.837
 4335ETHO   H1133510  17.268  13.879  16.886
 4335ETHO   H1333511  17.249  13.703  16.916
 4335ETHO    C233512  17.157  13.780  16.731
 4335ETHO   H2133513  17.188  13.828  16.636
 4335ETHO   H2333514  17.075  13.835  16.782
 4336ETHO    O133515  17.110  13.650  16.703
 4336ETHO    C133516  16.989  13.657  16.625
 4336ETHO   H1133517  16.920  13.705  16.697
 4336ETHO   H1333518  17.004  13.718  16.534
 4336ETHO    C233519  16.933  13.526  16.581
 4336ETHO   H2133520  16.831  13.531  16.625
 4336ETHO   H2333521  16.984  13.431  16.607
 4337ETHO    O133522  16.927  13.527  16.432
 4337ETHO    C133523  16.815  13.445  16.392
 4337ETHO   H1133524  16.716  13.480  16.428
 4337ETHO   H1333525  16.826  13.341  16.432
 4337ETHO    C233526  16.791  13.452  16.243
 4337ETHO   H2133527  16.881  13.423  16.185
 4337ETHO   H2333528  16.765  13.558  16.221
 4338ETHO    O133529  16.688  13.359  16.195
 4338ETHO    C133530  16.677  13.354  16.055
 4338ETHO   H1133531  16.774  13.361  16.003
 4338ETHO   H1333532  16.630  13.257  16.027
 4338ETHO    C233533  16.586  13.466  15.997
 4338ETHO   H2133534  16.621  13.566  16.031
 4338ETHO   H2333535  16.487  13.453  16.045
 4339ETHO    O133536  16.575  13.457  15.856
 4339ETHO    C133537  16.446  13.502  15.814
 4339ETHO   H1133538  16.442  13.607  15.851
 4339ETHO   H1333539  16.381  13.430  15.868
 4339ETHO    C233540  16.413  13.496  15.659
 4339ETHO   H2133541  16.457  13.415  15.596
 4339ETHO   H2333542  16.469  13.584  15.620
 4340ETHO    O133543  16.274  13.501  15.633
 4340ETHO    C133544  16.259  13.547  15.496
 4340ETHO   H1133545  16.181  13.627  15.503
 4340ETHO   H1333546  16.350  13.589  15.447
 4340ETHO    C233547  16.190  13.425  15.418
 4340ETHO   H2133548  16.097  13.389  15.467
 4340ETHO   H2333549  16.258  13.338  15.426
 4341PROX    O133550  16.182  13.475  15.288
 4341PROX    C133551  16.122  13.387  15.195
 4341PROX   H1133552  16.167  13.286  15.204
 4341PROX   H1333553  16.015  13.391  15.222
 4341PROX    C233554  16.132  13.435  15.055
 4341PROX   H2133555  16.230  13.487  15.050
 4341PROX    C333556  16.025  13.537  14.999
 4341PROX   H3133557  15.925  13.496  15.027
 4341PROX   H3233558  16.042  13.635  15.048
 4341PROX   H3333559  16.035  13.550  14.889
 4342PROX    O133560  16.153  13.322  14.970
 4342PROX    C133561  16.042  13.251  14.935
 4342PROX   H1133562  15.968  13.233  15.015
 4342PROX   H1333563  15.990  13.311  14.857
 4342PROX    C233564  16.075  13.111  14.865
 4342PROX   H2133565  16.123  13.052  14.946
 4342PROX    C333566  16.148  13.136  14.736
 4342PROX   H3133567  16.244  13.192  14.745
 4342PROX   H3233568  16.169  13.035  14.696
 4342PROX   H3333569  16.090  13.196  14.662
 4343PROX    O133570  15.956  13.043  14.828
 4343PROX    C133571  15.913  12.942  14.914
 4343PROX   H1133572  15.980  12.853  14.910
 4343PROX   H1333573  15.914  12.988  15.015
 4343PROX    C233574  15.769  12.884  14.879
 4343PROX   H2133575  15.692  12.964  14.879
 4343PROX    C333576  15.723  12.779  14.977
 4343PROX   H3133577  15.800  12.700  14.984
 4343PROX   H3233578  15.729  12.836  15.073
 4343PROX   H3333579  15.619  12.759  14.943
 4344PROX    O133580  15.780  12.816  14.754
 4344PROX    C133581  15.734  12.906  14.649
 4344PROX   H1133582  15.627  12.928  14.670
 4344PROX   H1333583  15.790  13.002  14.649
 4344PROX    C233584  15.746  12.839  14.513
 4344PROX   H2133585  15.715  12.734  14.531
 4344PROX    C333586  15.890  12.843  14.467
 4344PROX   H3133587  15.946  12.935  14.496
 4344PROX   H3233588  15.941  12.754  14.509
 4344PROX   H3333589  15.898  12.821  14.359
 4345PROX    O133590  15.658  12.900  14.419
 4345PROX    C133591  15.665  13.044  14.415
 4345PROX   H1133592  15.607  13.078  14.503
 4345PROX   H1333593  15.769  13.082  14.420
 4345PROX    C233594  15.581  13.093  14.289
 4345PROX   H2133595  15.480  13.050  14.304
 4345PROX    C333596  15.638  13.027  14.161
 4345PROX   H3133597  15.740  13.061  14.132
 4345PROX   H3233598  15.656  12.918  14.175
 4345PROX   H3333599  15.577  13.042  14.070
 4346PROX    O133600  15.577  13.239  14.288
 4346PROX    C133601  15.524  13.291  14.169
 4346PROX   H1133602  15.590  13.281  14.081
 4346PROX   H1333603  15.424  13.244  14.154
 4346PROX    C233604  15.525  13.446  14.192
 4346PROX   H2133605  15.484  13.460  14.294
 4346PROX    C333606  15.436  13.510  14.080
 4346PROX   H3133607  15.333  13.468  14.085
 4346PROX   H3233608  15.415  13.615  14.108
 4346PROX   H3333609  15.482  13.519  13.980
 4347PROX    O133610  15.656  13.497  14.185
 4347PROX    C133611  15.680  13.596  14.281
 4347PROX   H1133612  15.604  13.677  14.274
 4347PROX   H1333613  15.660  13.551  14.381
 4347PROX    C233614  15.824  13.665  14.275
 4347PROX   H2133615  15.829  13.753  14.342
 4347PROX    C333616  15.859  13.716  14.136
 4347PROX   H3133617  15.800  13.809  14.122
 4347PROX   H3233618  15.965  13.750  14.136
 4347PROX   H3333619  15.841  13.636  14.061
 4348PROX    O133620  15.932  13.577  14.311
 4348PROX    C133621  15.939  13.518  14.437
 4348PROX   H1133622  16.046  13.506  14.463
 4348PROX   H1333623  15.894  13.584  14.514
 4348PROX    C233624  15.875  13.380  14.445
 4348PROX   H2133625  15.786  13.376  14.380
 4348PROX    C333626  15.823  13.356  14.585
 4348PROX   H3133627  15.805  13.248  14.606
 4348PROX   H3233628  15.900  13.382  14.661
 4348PROX   H3333629  15.720  13.394  14.604
 4349PROX    O133630  15.971  13.280  14.407
 4349PROX    C133631  15.997  13.283  14.269
 4349PROX   H1133632  15.905  13.305  14.211
 4349PROX   H1333633  16.064  13.367  14.240
 4349PROX    C233634  16.065  13.147  14.219
 4349PROX   H2133635  15.992  13.065  14.238
 4349PROX    C333636  16.199  13.120  14.293
 4349PROX   H3133637  16.229  13.013  14.293
 4349PROX   H3233638  16.272  13.183  14.238
 4349PROX   H3333639  16.196  13.156  14.398
 4350PROX    O133640  16.097  13.156  14.085
 4350PROX    C133641  15.979  13.162  14.001
 4350PROX   H1133642  15.958  13.058  13.970
 4350PROX   H1333643  15.885  13.196  14.048
 4350PROX    C233644  16.000  13.237  13.868
 4350PROX   H2133645  16.089  13.190  13.822
 4350PROX    C333646  16.026  13.386  13.897
 4350PROX   H3133647  15.949  13.430  13.963
 4350PROX   H3233648  16.126  13.397  13.944
 4350PROX   H3333649  16.039  13.447  13.804
 4351PROX    O133650  15.898  13.207  13.774
 4351PROX    C133651  15.786  13.289  13.781
 4351PROX   H1133652  15.761  13.313  13.887
 4351PROX   H1333653  15.808  13.383  13.726
 4351PROX    C233654  15.663  13.230  13.704
 4351PROX   H2133655  15.694  13.221  13.598
 4351PROX    C333656  15.547  13.327  13.712
 4351PROX   H3133657  15.489  13.333  13.807
 4351PROX   H3233658  15.574  13.432  13.687
 4351PROX   H3333659  15.479  13.296  13.630
 4352PROX    O133660  15.627  13.109  13.769
 4352PROX    C133661  15.547  13.026  13.693
 4352PROX   H1133662  15.462  13.089  13.657
 4352PROX   H1333663  15.598  12.994  13.600
 4352PROX    C233664  15.501  12.916  13.787
 4352PROX   H2133665  15.449  12.961  13.874
 4352PROX    C333666  15.618  12.840  13.848
 4352PROX   H3133667  15.671  12.784  13.768
 4352PROX   H3233668  15.679  12.911  13.908
 4352PROX   H3333669  15.572  12.768  13.919
 4353PROX    O133670  15.394  12.846  13.722
 4353PROX    C133671  15.322  12.760  13.809
 4353PROX   H1133672  15.385  12.674  13.840
 4353PROX   H1333673  15.298  12.818  13.900
 4353PROX    C233674  15.192  12.715  13.748
 4353PROX   H2133675  15.224  12.653  13.661
 4353PROX    C333676  15.095  12.832  13.701
 4353PROX   H3133677  15.143  12.904  13.631
 4353PROX   H3233678  15.007  12.794  13.645
 4353PROX   H3333679  15.078  12.875  13.802
 4354PROX    O133680  15.134  12.642  13.848
 4354PROX    C133681  15.021  12.574  13.805
 4354PROX   H1133682  14.932  12.640  13.814
 4354PROX   H1333683  15.034  12.549  13.697
 4354PROX    C233684  15.002  12.441  13.867
 4354PROX   H2133685  15.089  12.376  13.843
 4354PROX    C333686  14.885  12.376  13.788
 4354PROX   H3133687  14.890  12.389  13.678
 4354PROX   H3233688  14.868  12.274  13.828
 4354PROX   H3333689  14.791  12.429  13.816
 4355PROX    O133690  14.973  12.447  14.004
 4355PROX    C133691  14.992  12.328  14.081
 4355PROX   H1133692  14.937  12.342  14.176
 4355PROX   H1333693  14.936  12.250  14.026
 4355PROX    C233694  15.137  12.292  14.106
 4355PROX   H2133695  15.130  12.232  14.199
 4355PROX    C333696  15.225  12.420  14.115
 4355PROX   H3133697  15.249  12.464  14.015
 4355PROX   H3233698  15.169  12.501  14.166
 4355PROX   H3333699  15.315  12.392  14.173
 4356PROX    O133700  15.177  12.205  14.001
 4356PROX    C133701  15.274  12.113  14.053
 4356PROX   H1133702  15.346  12.172  14.114
 4356PROX   H1333703  15.217  12.039  14.113
 4356PROX    C233704  15.370  12.039  13.949
 4356PROX   H2133705  15.305  11.992  13.872
 4356PROX    C333706  15.452  11.925  14.021
 4356PROX   H3133707  15.393  11.872  14.099
 4356PROX   H3233708  15.486  11.842  13.955
 4356PROX   H3333709  15.544  11.970  14.065
 4357PROX    O133710  15.462  12.124  13.881
 4357PROX    C133711  15.410  12.178  13.767
 4357PROX   H1133712  15.384  12.095  13.698
 4357PROX   H1333713  15.319  12.239  13.785
 4357PROX    C233714  15.512  12.282  13.700
 4357PROX   H2133715  15.607  12.229  13.682
 4357PROX    C333716  15.528  12.396  13.803
 4357PROX   H3133717  15.578  12.355  13.894
 4357PROX   H3233718  15.584  12.485  13.768
 4357PROX   H3333719  15.429  12.434  13.836
 4358PROX    O133720  15.462  12.328  13.574
 4358PROX    C133721  15.556  12.403  13.500
 4358PROX   H1133722  15.658  12.389  13.542
 4358PROX   H1333723  15.562  12.358  13.398
 4358PROX    C233724  15.507  12.553  13.487
 4358PROX   H2133725  15.518  12.598  13.588
 4358PROX    C333726  15.371  12.563  13.424
 4358PROX   H3133727  15.317  12.654  13.458
 4358PROX   H3233728  15.376  12.548  13.314
 4358PROX   H3333729  15.301  12.483  13.456
 4359PROX    O133730  15.604  12.620  13.409
 4359PROX    C133731  15.597  12.763  13.409
 4359PROX   H1133732  15.536  12.798  13.323
 4359PROX   H1333733  15.550  12.801  13.503
 4359PROX    C233734  15.742  12.826  13.406
 4359PROX   H2133735  15.732  12.936  13.406
 4359PROX    C333736  15.823  12.801  13.275
 4359PROX   H3133737  15.765  12.823  13.183
 4359PROX   H3233738  15.912  12.866  13.283
 4359PROX   H3333739  15.855  12.695  13.287
 4360PROX    O133740  15.803  12.800  13.536
 4360PROX    C133741  15.889  12.688  13.541
 4360PROX   H1133742  15.841  12.596  13.500
 4360PROX   H1333743  15.984  12.699  13.485
 4360PROX    C233744  15.915  12.658  13.690
 4360PROX   H2133745  15.817  12.622  13.727
 4360PROX    C333746  15.976  12.780  13.766
 4360PROX   H3133747  15.997  12.755  13.872
 4360PROX   H3233748  16.072  12.802  13.714
 4360PROX   H3333749  15.925  12.875  13.741
 4361PROX    O133750  16.007  12.552  13.711
 4361PROX    C133751  15.965  12.426  13.661
 4361PROX   H1133752  15.861  12.406  13.696
 4361PROX   H1333753  15.967  12.431  13.550
 4361PROX    C233754  16.055  12.315  13.705
 4361PROX   H2133755  16.067  12.305  13.815
 4361PROX    C333756  16.202  12.343  13.656
 4361PROX   H3133757  16.187  12.347  13.546
 4361PROX   H3233758  16.245  12.441  13.684
 4361PROX   H3333759  16.256  12.252  13.689
 4362PROX    O133760  16.021  12.190  13.644
 4362PROX    C133761  15.892  12.139  13.681
 4362PROX   H1133762  15.801  12.201  13.674
 4362PROX   H1333763  15.875  12.051  13.615
 4362PROX    C233764  15.889  12.085  13.826
 4362PROX   H2133765  15.985  12.040  13.860
 4362PROX    C333766  15.780  11.977  13.833
 4362PROX   H3133767  15.782  11.912  13.743
 4362PROX   H3233768  15.774  11.925  13.930
 4362PROX   H3333769  15.681  12.026  13.822
 4363PROX    O133770  15.859  12.194  13.911
 4363PROX    C133771  15.854  12.162  14.047
 4363PROX   H1133772  15.797  12.072  14.077
 4363PROX   H1333773  15.956  12.138  14.083
 4363PROX    C233774  15.804  12.290  14.116
 4363PROX   H2133775  15.708  12.326  14.073
 4363PROX    C333776  15.895  12.405  14.121
 4363PROX   H3133777  15.928  12.434  14.018
 4363PROX   H3233778  15.848  12.490  14.175
 4363PROX   H3333779  15.986  12.371  14.175
 4364PROX    O133780  15.783  12.276  14.259
 4364PROX    C133781  15.648  12.237  14.295
 4364PROX   H1133782  15.587  12.322  14.259
 4364PROX   H1333783  15.606  12.155  14.234
 4364PROX    C233784  15.634  12.214  14.442
 4364PROX   H2133785  15.693  12.297  14.487
 4364PROX    C333786  15.678  12.079  14.490
 4364PROX   H3133787  15.786  12.065  14.468
 4364PROX   H3233788  15.660  12.066  14.599
 4364PROX   H3333789  15.626  11.994  14.443
 4365PROX    O133790  15.506  12.249  14.494
 4365PROX    C133791  15.400  12.167  14.435
 4365PROX   H1133792  15.369  12.223  14.344
 4365PROX   H1333793  15.430  12.063  14.411
 4365PROX    C233794  15.281  12.166  14.535
 4365PROX   H2133795  15.258  12.268  14.573
 4365PROX    C333796  15.320  12.074  14.659
 4365PROX   H3133797  15.313  11.969  14.623
 4365PROX   H3233798  15.425  12.086  14.692
 4365PROX   H3333799  15.247  12.096  14.740
 4366PROX    O133800  15.170  12.113  14.469
 4366PROX    C133801  15.056  12.197  14.463
 4366PROX   H1133802  15.029  12.223  14.568
 4366PROX   H1333803  15.083  12.285  14.401
 4366PROX    C233804  14.949  12.109  14.410
 4366PROX   H2133805  14.916  12.049  14.497
 4366PROX    C333806  14.984  12.007  14.302
 4366PROX   H3133807  15.005  12.058  14.206
 4366PROX   H3233808  15.070  11.941  14.328
 4366PROX   H3333809  14.902  11.936  14.279
 4367PROX    O133810  14.834  12.188  14.362
 4367PROX    C133811  14.722  12.106  14.322
 4367PROX   H1133812  14.730  12.096  14.212
 4367PROX   H1333813  14.701  12.008  14.371
 4367PROX    C233814  14.583  12.176  14.355
 4367PROX   H2133815  14.590  12.284  14.327
 4367PROX    C333816  14.540  12.169  14.505
 4367PROX   H3133817  14.446  12.228  14.508
 4367PROX   H3233818  14.517  12.066  14.537
 4367PROX   H3333819  14.617  12.223  14.565
 4368PROX    O133820  14.488  12.114  14.270
 4368PROX    C133821  14.386  12.207  14.225
 4368PROX   H1133822  14.296  12.146  14.201
 4368PROX   H1333823  14.360  12.290  14.294
 4368PROX    C233824  14.422  12.271  14.093
 4368PROX   H2133825  14.514  12.328  14.120
 4368PROX    C333826  14.308  12.362  14.049
 4368PROX   H3133827  14.226  12.297  14.013
 4368PROX   H3233828  14.272  12.417  14.139
 4368PROX   H3333829  14.349  12.427  13.969
 4369PROX    O133830  14.453  12.162  13.999
 4369PROX    C133831  14.499  12.202  13.874
 4369PROX   H1133832  14.402  12.222  13.824
 4369PROX   H1333833  14.563  12.293  13.878
 4369PROX    C233834  14.576  12.086  13.794
 4369PROX   H2133835  14.505  12.000  13.787
 4369PROX    C333836  14.692  12.046  13.874
 4369PROX   H3133837  14.659  12.002  13.970
 4369PROX   H3233838  14.766  11.979  13.825
 4369PROX   H3333839  14.753  12.134  13.903
 4370PROX    O133840  14.618  12.135  13.667
 4370PROX    C133841  14.514  12.169  13.580
 4370PROX   H1133842  14.441  12.086  13.575
 4370PROX   H1333843  14.455  12.250  13.627
 4370PROX    C233844  14.563  12.214  13.444
 4370PROX   H2133845  14.598  12.127  13.384
 4370PROX    C333846  14.693  12.299  13.453
 4370PROX   H3133847  14.718  12.330  13.349
 4370PROX   H3233848  14.671  12.390  13.514
 4370PROX   H3333849  14.784  12.248  13.491
 4371PROX    O133850  14.465  12.291  13.372
 4371PROX    C133851  14.416  12.418  13.429
 4371PROX   H1133852  14.336  12.398  13.503
 4371PROX   H1333853  14.500  12.473  13.478
 4371PROX    C233854  14.368  12.520  13.314
 4371PROX   H2133855  14.315  12.461  13.237
 4371PROX    C333856  14.486  12.593  13.251
 4371PROX   H3133857  14.456  12.651  13.160
 4371PROX   H3233858  14.523  12.667  13.325
 4371PROX   H3333859  14.568  12.522  13.228
 4372PROX    O133860  14.297  12.623  13.374
 4372PROX    C133861  14.165  12.657  13.319
 4372PROX   H1133862  14.179  12.737  13.243
 4372PROX   H1333863  14.117  12.563  13.285
 4372PROX    C233864  14.065  12.702  13.434
 4372PROX   H2133865  14.107  12.651  13.524
 4372PROX    C333866  13.926  12.642  13.399
 4372PROX   H3133867  13.909  12.532  13.398
 4372PROX   H3233868  13.848  12.696  13.456
 4372PROX   H3333869  13.906  12.657  13.291
 4373PROX    O133870  14.057  12.842  13.444
 4373PROX    C133871  14.174  12.906  13.498
 4373PROX   H1133872  14.248  12.847  13.556
 4373PROX   H1333873  14.222  12.939  13.403
 4373PROX    C233874  14.144  13.039  13.580
 4373PROX   H2133875  14.128  13.005  13.685
 4373PROX    C333876  14.021  13.119  13.535
 4373PROX   H3133877  14.030  13.152  13.429
 4373PROX   H3233878  13.931  13.056  13.548
 4373PROX   H3333879  14.002  13.208  13.598
 4374PROX    O133880  14.257  13.131  13.567
 4374PROX    C133881  14.365  13.111  13.652
 4374PROX   H1133882  14.400  13.006  13.644
 4374PROX   H1333883  14.451  13.173  13.619
 4374PROX    C233884  14.324  13.149  13.799
 4374PROX   H2133885  14.252  13.071  13.830
 4374PROX    C333886  14.262  13.293  13.820
 4374PROX   H3133887  14.199  13.320  13.733
 4374PROX   H3233888  14.197  13.291  13.910
 4374PROX   H3333889  14.340  13.370  13.837
 4375PROX    O133890  14.434  13.132  13.888
 4375PROX    C133891  14.397  13.128  14.026
 4375PROX   H1133892  14.495  13.122  14.078
 4375PROX   H1333893  14.343  13.216  14.067
 4375PROX    C233894  14.333  12.985  14.072
 4375PROX   H2133895  14.224  13.003  14.083
 4375PROX    C333896  14.384  12.948  14.210
 4375PROX   H3133897  14.494  12.935  14.206
 4375PROX   H3233898  14.349  13.023  14.283
 4375PROX   H3333899  14.338  12.852  14.243
 4376PROX    O133900  14.353  12.893  13.970
 4376PROX    C133901  14.272  12.780  13.976
 4376PROX   H1133902  14.327  12.709  14.041
 4376PROX   H1333903  14.171  12.806  14.012
 4376PROX    C233904  14.263  12.716  13.836
 4376PROX   H2133905  14.261  12.801  13.765
 4376PROX    C333906  14.122  12.640  13.842
 4376PROX   H3133907  14.045  12.718  13.856
 4376PROX   H3233908  14.104  12.600  13.739
 4376PROX   H3333909  14.113  12.552  13.910
 4377PROX    O133910  14.363  12.619  13.802
 4377PROX    C133911  14.501  12.642  13.835
 4377PROX   H1133912  14.522  12.676  13.939
 4377PROX   H1333913  14.555  12.549  13.809
 4377PROX    C233914  14.557  12.753  13.747
 4377PROX   H2133915  14.501  12.847  13.769
 4377PROX    C333916  14.550  12.726  13.600
 4377PROX   H3133917  14.442  12.709  13.582
 4377PROX   H3233918  14.596  12.799  13.530
 4377PROX   H3333919  14.607  12.633  13.581
 4378PROX    O133920  14.693  12.772  13.766
 4378PROX    C133921  14.745  12.897  13.827
 4378PROX   H1133922  14.855  12.883  13.824
 4378PROX   H1333923  14.718  12.987  13.769
 4378PROX    C233924  14.708  12.908  13.974
 4378PROX   H2133925  14.598  12.914  13.989
 4378PROX    C333926  14.763  13.033  14.031
 4378PROX   H3133927  14.734  13.052  14.136
 4378PROX   H3233928  14.874  13.029  14.036
 4378PROX   H3333929  14.727  13.129  13.987
 4379PROX    O133930  14.758  12.795  14.043
 4379PROX    C133931  14.707  12.774  14.172
 4379PROX   H1133932  14.734  12.859  14.238
 4379PROX   H1333933  14.597  12.758  14.174
 4379PROX    C233934  14.755  12.633  14.234
 4379PROX   H2133935  14.866  12.645  14.230
 4379PROX    C333936  14.699  12.516  14.157
 4379PROX   H3133937  14.588  12.518  14.151
 4379PROX   H3233938  14.740  12.529  14.054
 4379PROX   H3333939  14.725  12.416  14.198
 4380PROX    O133940  14.714  12.628  14.373
 4380PROX    C133941  14.772  12.518  14.441
 4380PROX   H1133942  14.694  12.443  14.466
 4380PROX   H1333943  14.848  12.464  14.381
 4380PROX    C233944  14.839  12.549  14.576
 4380PROX   H2133945  14.763  12.603  14.636
 4380PROX    C333946  14.955  12.637  14.540
 4380PROX   H3133947  15.011  12.580  14.463
 4380PROX   H3233948  14.930  12.736  14.497
 4380PROX   H3333949  15.021  12.650  14.629
 4381PROX    O133950  14.880  12.433  14.641
 4381PROX    C133951  14.893  12.448  14.781
 4381PROX   H1133952  14.921  12.550  14.814
 4381PROX   H1333953  14.800  12.413  14.831
 4381PROX    C233954  15.001  12.355  14.833
 4381PROX   H2133955  15.098  12.381  14.784
 4381PROX    C333956  14.956  12.209  14.815
 4381PROX   H3133957  14.879  12.205  14.735
 4381PROX   H3233958  15.036  12.133  14.801
 4381PROX   H3333959  14.884  12.184  14.895
 4382PROX    O133960  15.007  12.370  14.978
 4382PROX    C133961  15.044  12.497  15.029
 4382PROX   H1133962  14.969  12.578  15.016
 4382PROX   H1333963  15.056  12.486  15.139
 4382PROX    C233964  15.185  12.544  14.981
 4382PROX   H2133965  15.177  12.576  14.875
 4382PROX    C333966  15.296  12.443  14.995
 4382PROX   H3133967  15.281  12.366  14.917
 4382PROX   H3233968  15.396  12.489  14.977
 4382PROX   H3333969  15.294  12.392  15.094
 4383PROX    O133970  15.223  12.655  15.058
 4383PROX    C133971  15.137  12.770  15.050
 4383PROX   H1133972  15.096  12.803  14.952
 4383PROX   H1333973  15.043  12.750  15.107
 4383PROX    C233974  15.210  12.885  15.106
 4383PROX   H2133975  15.299  12.908  15.042
 4383PROX    C333976  15.261  12.877  15.250
 4383PROX   H3133977  15.186  12.862  15.331
 4383PROX   H3233978  15.348  12.809  15.261
 4383PROX   H3333979  15.310  12.976  15.263
 4384PROX    O133980  15.136  13.003  15.084
 4384PROX    C133981  15.025  13.028  15.176
 4384PROX   H1133982  14.955  12.945  15.198
 4384PROX   H1333983  15.086  13.060  15.264
 4384PROX    C233984  14.920  13.136  15.137
 4384PROX   H2133985  14.974  13.224  15.097
 4384PROX    C333986  14.835  13.187  15.253
 4384PROX   H3133987  14.775  13.105  15.298
 4384PROX   H3233988  14.893  13.228  15.339
 4384PROX   H3333989  14.767  13.273  15.234
 4385PROX    O133990  14.830  13.093  15.039
 4385PROX    C133991  14.882  13.122  14.910
 4385PROX   H1133992  14.897  13.231  14.895
 4385PROX   H1333993  14.979  13.069  14.898
 4385PROX    C233994  14.802  13.058  14.796
 4385PROX   H2133995  14.691  13.059  14.801
 4385PROX    C333996  14.838  12.900  14.779
 4385PROX   H3133997  14.943  12.865  14.771
 4385PROX   H3233998  14.799  12.839  14.863
 4385PROX   H3333999  14.780  12.868  14.690
 4386PROX    O134000  14.849  13.105  14.671
 4386PROX    C134001  14.759  13.090  14.560
 4386PROX   H1134002  14.819  13.102  14.468
 4386PROX   H1334003  14.717  12.987  14.559
 4386PROX    C234004  14.652  13.193  14.556
 4386PROX   H2134005  14.583  13.200  14.643
 4386PROX    C334006  14.562  13.164  14.439
 4386PROX   H3134007  14.598  13.071  14.391
 4386PROX   H3234008  14.457  13.156  14.474
 4386PROX   H3334009  14.578  13.248  14.367
 4387PROX    O134010  14.706  13.329  14.530
 4387PROX    C134011  14.729  13.401  14.652
 4387PROX   H1134012  14.637  13.397  14.714
 4387PROX   H1334013  14.815  13.350  14.700
 4387PROX    C234014  14.772  13.548  14.628
 4387PROX   H2134015  14.852  13.536  14.551
 4387PROX    C334016  14.833  13.610  14.753
 4387PROX   H3134017  14.912  13.546  14.798
 4387PROX   H3234018  14.866  13.714  14.734
 4387PROX   H3334019  14.755  13.624  14.830
 4388PROX    O134020  14.662  13.630  14.580
 4388PROX    C134021  14.626  13.604  14.446
 4388PROX   H1134022  14.715  13.596  14.380
 4388PROX   H1334023  14.561  13.514  14.444
 4388PROX    C234024  14.524  13.710  14.395
 4388PROX   H2134025  14.423  13.703  14.441
 4388PROX    C334026  14.500  13.688  14.248
 4388PROX   H3134027  14.590  13.709  14.185
 4388PROX   H3234028  14.468  13.585  14.221
 4388PROX   H3334029  14.411  13.746  14.216
 4389PROX    O134030  14.577  13.841  14.409
 4389PROX    C134031  14.477  13.938  14.411
 4389PROX   H1134032  14.431  13.948  14.310
 4389PROX   H1334033  14.389  13.922  14.478
 4389PROX    C234034  14.538  14.078  14.450
 4389PROX   H2134035  14.630  14.065  14.511
 4389PROX    C334036  14.438  14.161  14.533
 4389PROX   H3134037  14.351  14.197  14.476
 4389PROX   H3234038  14.403  14.094  14.614
 4389PROX   H3334039  14.499  14.246  14.571
 4390PROX    O134040  14.567  14.160  14.341
 4390PROX    C134041  14.687  14.124  14.270
 4390PROX   H1134042  14.767  14.155  14.341
 4390PROX   H1334043  14.684  14.014  14.255
 4390PROX    C234044  14.703  14.206  14.138
 4390PROX   H2134045  14.794  14.175  14.082
 4390PROX    C334046  14.701  14.358  14.155
 4390PROX   H3134047  14.752  14.378  14.252
 4390PROX   H3234048  14.768  14.404  14.078
 4390PROX   H3334049  14.597  14.396  14.149
 4391PROX    O134050  14.588  14.170  14.062
 4391PROX    C134051  14.603  14.179  13.927
 4391PROX   H1134052  14.502  14.211  13.893
 4391PROX   H1334053  14.670  14.264  13.901
 4391PROX    C234054  14.637  14.043  13.862
 4391PROX   H2134055  14.610  14.057  13.756
 4391PROX    C334056  14.563  13.921  13.926
 4391PROX   H3134057  14.603  13.907  14.028
 4391PROX   H3234058  14.455  13.944  13.921
 4391PROX   H3334059  14.582  13.833  13.862
 4392PROX    O134060  14.778  14.033  13.850
 4392PROX    C134061  14.815  13.923  13.770
 4392PROX   H1134062  14.797  13.835  13.834
 4392PROX   H1334063  14.767  13.919  13.669
 4392PROX    C234064  14.969  13.928  13.739
 4392PROX   H2134065  14.999  14.035  13.729
 4392PROX    C334066  15.000  13.852  13.606
 4392PROX   H3134067  14.923  13.773  13.596
 4392PROX   H3234068  14.983  13.933  13.532
 4392PROX   H3334069  15.106  13.818  13.604
 4393PROX    O134070  15.038  13.871  13.850
 4393PROX    C134071  15.083  13.967  13.946
 4393PROX   H1134072  15.185  14.004  13.923
 4393PROX   H1334073  15.019  14.057  13.935
 4393PROX    C234074  15.076  13.905  14.087
 4393PROX   H2134075  15.129  13.808  14.087
 4393PROX    C334076  14.936  13.884  14.133
 4393PROX   H3134077  14.885  13.819  14.059
 4393PROX   H3234078  14.927  13.846  14.238
 4393PROX   H3334079  14.874  13.976  14.136
 4394PROX    O134080  15.145  13.983  14.186
 4394PROX    C134081  15.287  14.002  14.159
 4394PROX   H1134082  15.319  13.931  14.080
 4394PROX   H1334083  15.308  14.101  14.116
 4394PROX    C234084  15.370  13.979  14.291
 4394PROX   H2134085  15.325  14.034  14.376
 4394PROX    C334086  15.522  14.012  14.273
 4394PROX   H3134087  15.586  13.974  14.356
 4394PROX   H3234088  15.561  13.949  14.190
 4394PROX   H3334089  15.536  14.120  14.255
 4395PROX    O134090  15.362  13.840  14.323
 4395PROX    C134091  15.341  13.811  14.456
 4395PROX   H1134092  15.394  13.717  14.477
 4395PROX   H1334093  15.389  13.893  14.515
 4395PROX    C234094  15.193  13.796  14.485
 4395PROX   H2134095  15.127  13.856  14.418
 4395PROX    C334096  15.163  13.835  14.634
 4395PROX   H3134097  15.052  13.830  14.642
 4395PROX   H3234098  15.208  13.765  14.707
 4395PROX   H3334099  15.208  13.936  14.643
 4396PROX    O134100  15.164  13.663  14.465
 4396PROX    C134101  15.157  13.623  14.329
 4396PROX   H1134102  15.099  13.696  14.267
 4396PROX   H1334103  15.260  13.620  14.290
 4396PROX    C234104  15.099  13.484  14.324
 4396PROX   H2134105  15.031  13.474  14.412
 4396PROX    C334106  15.197  13.371  14.324
 4396PROX   H3134107  15.260  13.364  14.232
 4396PROX   H3234108  15.273  13.385  14.403
 4396PROX   H3334109  15.139  13.279  14.346
 4397PROX    O134110  15.016  13.484  14.206
 4397PROX    C134111  14.904  13.395  14.225
 4397PROX   H1134112  14.930  13.288  14.211
 4397PROX   H1334113  14.868  13.397  14.330
 4397PROX    C234114  14.793  13.432  14.122
 4397PROX   H2134115  14.776  13.542  14.119
 4397PROX    C334116  14.653  13.376  14.143
 4397PROX   H3134117  14.616  13.397  14.246
 4397PROX   H3234118  14.576  13.413  14.073
 4397PROX   H3334119  14.648  13.269  14.112
 4398PROX    O134120  14.825  13.390  13.994
 4398PROX    C134121  14.905  13.480  13.917
 4398PROX   H1134122  14.853  13.504  13.821
 4398PROX   H1334123  14.910  13.572  13.979
 4398PROX    C234124  15.052  13.440  13.899
 4398PROX   H2134125  15.092  13.415  13.999
 4398PROX    C334126  15.141  13.560  13.853
 4398PROX   H3134127  15.171  13.622  13.940
 4398PROX   H3234128  15.234  13.522  13.805
 4398PROX   H3334129  15.091  13.621  13.774
 4399PROX    O134130  15.046  13.341  13.801
 4399PROX    C134131  15.036  13.212  13.867
 4399PROX   H1134132  14.947  13.209  13.933
 4399PROX   H1334133  15.017  13.135  13.790
 4399PROX    C234134  15.163  13.172  13.948
 4399PROX   H2134135  15.184  13.242  14.032
 4399PROX    C334136  15.284  13.171  13.867
 4399PROX   H3134137  15.378  13.177  13.927
 4399PROX   H3234138  15.294  13.074  13.815
 4399PROX   H3334139  15.282  13.251  13.790
 4400PROX    O134140  15.136  13.039  14.000
 4400PROX    C134141  15.223  13.012  14.112
 4400PROX   H1134142  15.324  13.007  14.065
 4400PROX   H1334143  15.229  13.095  14.185
 4400PROX    C234144  15.174  12.877  14.171
 4400PROX   H2134145  15.144  12.808  14.090
 4400PROX    C334146  15.063  12.905  14.267
 4400PROX   H3134147  15.091  12.972  14.351
 4400PROX   H3234148  14.977  12.946  14.209
 4400PROX   H3334149  15.025  12.812  14.315
 4401PROX    O134150  15.282  12.826  14.253
 4401PROX    C134151  15.376  12.741  14.182
 4401PROX   H1134152  15.328  12.660  14.123
 4401PROX   H1334153  15.424  12.809  14.109
 4401PROX    C234154  15.480  12.682  14.276
 4401PROX   H2134155  15.512  12.749  14.359
 4401PROX    C334156  15.611  12.644  14.197
 4401PROX   H3134157  15.681  12.605  14.274
 4401PROX   H3234158  15.583  12.561  14.130
 4401PROX   H3334159  15.647  12.726  14.131
 4402PROX    O134160  15.437  12.561  14.337
 4402PROX    C134161  15.336  12.579  14.446
 4402PROX   H1134162  15.263  12.652  14.406
 4402PROX   H1334163  15.282  12.485  14.472
 4402PROX    C234164  15.394  12.644  14.574
 4402PROX   H2134165  15.451  12.738  14.555
 4402PROX    C334166  15.494  12.555  14.644
 4402PROX   H3134167  15.526  12.602  14.740
 4402PROX   H3234168  15.455  12.453  14.661
 4402PROX   H3334169  15.588  12.550  14.586
 4403PROX    O134170  15.292  12.678  14.667
 4403PROX    C134171  15.324  12.791  14.753
 4403PROX   H1134172  15.300  12.764  14.858
 4403PROX   H1334173  15.431  12.820  14.753
 4403PROX    C234174  15.255  12.918  14.704
 4403PROX   H2134175  15.148  12.892  14.722
 4403PROX    C334176  15.259  12.953  14.551
 4403PROX   H3134177  15.194  13.037  14.520
 4403PROX   H3234178  15.366  12.960  14.522
 4403PROX   H3334179  15.221  12.862  14.500
 4404PROX    O134180  15.298  13.031  14.786
 4404PROX    C134181  15.235  13.150  14.748
 4404PROX   H1134182  15.291  13.199  14.664
 4404PROX   H1334183  15.130  13.139  14.713
 4404PROX    C234184  15.237  13.258  14.863
 4404PROX   H2134185  15.182  13.219  14.951
 4404PROX    C334186  15.179  13.389  14.807
 4404PROX   H3134187  15.244  13.427  14.725
 4404PROX   H3234188  15.074  13.386  14.771
 4404PROX   H3334189  15.175  13.469  14.884
 4405PROX    O134190  15.373  13.298  14.900
 4405PROX    C134191  15.452  13.207  14.975
 4405PROX   H1134192  15.390  13.149  15.046
 4405PROX   H1334193  15.485  13.121  14.914
 4405PROX    C234194  15.579  13.269  15.024
 4405PROX   H2134195  15.553  13.351  15.095
 4405PROX    C334196  15.654  13.332  14.902
 4405PROX   H3134197  15.663  13.252  14.825
 4405PROX   H3234198  15.592  13.419  14.870
 4405PROX   H3334199  15.759  13.358  14.925
 4406ETHO    O134200  15.655  13.165  15.084
 4406ETHO    C134201  15.642  13.155  15.226
 4406ETHO   H1134202  15.608  13.052  15.247
 4406ETHO   H1334203  15.565  13.228  15.261
 4406ETHO    C234204  15.765  13.189  15.308
 4406ETHO   H2134205  15.802  13.291  15.283
 4406ETHO   H2334206  15.855  13.129  15.283
 4407ETHO    O134207  15.744  13.181  15.454
 4407ETHO    C134208  15.854  13.238  15.529
 4407ETHO   H1134209  15.947  13.182  15.505
 4407ETHO   H1334210  15.877  13.343  15.499
 4407ETHO    C234211  15.835  13.194  15.675
 4407ETHO   H2134212  15.800  13.089  15.679
 4407ETHO   H2334213  15.752  13.264  15.696
 4408ETHO    O134214  15.937  13.210  15.767
 4408ETHO    C134215  15.892  13.183  15.899
 4408ETHO   H1134216  15.857  13.078  15.901
 4408ETHO   H1334217  15.806  13.248  15.927
 4408ETHO    C234218  16.003  13.189  16.002
 4408ETHO   H2134219  16.099  13.152  15.961
 4408ETHO   H2334220  15.979  13.116  16.082
 4409ETHO    O134221  16.033  13.315  16.054
 4409ETHO    C134222  16.119  13.387  15.969
 4409ETHO   H1134223  16.210  13.327  15.949
 4409ETHO   H1334224  16.064  13.399  15.873
 4409ETHO    C234225  16.157  13.525  16.028
 4409ETHO   H2134226  16.062  13.566  16.069
 4409ETHO   H2334227  16.198  13.593  15.951
 4410ETHO    O134228  16.255  13.526  16.134
 4410ETHO    C134229  16.262  13.649  16.203
 4410ETHO   H1134230  16.167  13.671  16.255
 4410ETHO   H1334231  16.297  13.724  16.128
 4410ETHO    C234232  16.369  13.645  16.318
 4410ETHO   H2134233  16.442  13.572  16.277
 4410ETHO   H2334234  16.340  13.593  16.412
 4411ETHO    O134235  16.416  13.772  16.354
 4411ETHO    C134236  16.533  13.767  16.440
 4411ETHO   H1134237  16.597  13.686  16.399
 4411ETHO   H1334238  16.589  13.861  16.422
 4411ETHO    C234239  16.520  13.747  16.591
 4411ETHO   H2134240  16.452  13.664  16.622
 4411ETHO   H2334241  16.479  13.840  16.636
 4412ETHO    O134242  16.647  13.715  16.656
 4412ETHO    C134243  16.642  13.703  16.795
 4412ETHO   H1134244  16.568  13.770  16.843
 4412ETHO   H1334245  16.741  13.725  16.840
 4412ETHO    C234246  16.606  13.562  16.845
 4412ETHO   H2134247  16.674  13.484  16.805
 4412ETHO   H2334248  16.503  13.537  16.809
 4413ETHO    O134249  16.608  13.566  16.987
 4413ETHO    C134250  16.611  13.441  17.056
 4413ETHO   H1134251  16.507  13.405  17.065
 4413ETHO   H1334252  16.672  13.368  16.999
 4413ETHO    C234253  16.673  13.461  17.190
 4413ETHO   H2134254  16.617  13.533  17.253
 4413ETHO   H2334255  16.674  13.368  17.252
 4414ETHO    O134256  16.805  13.518  17.196
 4414ETHO    C134257  16.902  13.423  17.163
 4414ETHO   H1134258  16.894  13.338  17.234
 4414ETHO   H1334259  16.886  13.394  17.057
 4414ETHO    C234260  17.040  13.489  17.172
 4414ETHO   H2134261  17.051  13.531  17.274
 4414ETHO   H2334262  17.049  13.577  17.105
 4415ETHO    O134263  17.153  13.395  17.164
 4415ETHO    C134264  17.287  13.454  17.164
 4415ETHO   H1134265  17.356  13.368  17.149
 4415ETHO   H1334266  17.301  13.517  17.073
 4415ETHO    C234267  17.323  13.524  17.300
 4415ETHO   H2134268  17.314  13.448  17.380
 4415ETHO   H2334269  17.267  13.619  17.316
 4416ETHO    O134270  17.460  13.558  17.298
 4416ETHO    C134271  17.500  13.601  17.421
 4416ETHO   H1134272  17.486  13.711  17.416
 4416ETHO   H1334273  17.437  13.553  17.499
 4416ETHO    C234274  17.647  13.561  17.446
 4416ETHO   H2134275  17.665  13.452  17.439
 4416ETHO   H2334276  17.682  13.595  17.546
 4417ETHO    O134277  17.738  13.637  17.363
 4417ETHO    C134278  17.870  13.582  17.373
 4417ETHO   H1134279  17.863  13.487  17.316
 4417ETHO   H1334280  17.901  13.552  17.476
 4417ETHO    C234281  17.969  13.684  17.313
 4417ETHO   H2134282  17.930  13.696  17.209
 4417ETHO   H2334283  18.072  13.643  17.312
 4418ETHO    O134284  17.969  13.814  17.369
 4418ETHO    C134285  18.092  13.873  17.388
 4418ETHO   H1134286  18.154  13.847  17.299
 4418ETHO   H1334287  18.078  13.982  17.408
 4418ETHO    C234288  18.163  13.820  17.513
 4418ETHO   H2134289  18.180  13.710  17.506
 4418ETHO   H2334290  18.092  13.838  17.596
 4419ETHO    O134291  18.287  13.887  17.547
 4419ETHO    C134292  18.398  13.824  17.468
 4419ETHO   H1134293  18.375  13.829  17.359
 4419ETHO   H1334294  18.388  13.717  17.497
 4419ETHO    C234295  18.538  13.872  17.498
 4419ETHO   H2134296  18.547  13.982  17.488
 4419ETHO   H2334297  18.610  13.823  17.430
 4420ETHO    O134298  18.589  13.835  17.623
 4420ETHO    C134299  18.729  13.852  17.613
 4420ETHO   H1134300  18.787  13.784  17.547
 4420ETHO   H1334301  18.749  13.953  17.572
 4420ETHO    C234302  18.799  13.845  17.752
 4420ETHO   H2134303  18.784  13.939  17.810
 4420ETHO   H2334304  18.908  13.833  17.734
 4421ETHO    O134305  18.764  13.718  17.813
 4421ETHO    C134306  18.857  13.685  17.915
 4421ETHO   H1134307  18.957  13.662  17.873
 4421ETHO   H1334308  18.819  13.591  17.961
 4421ETHO    C234309  18.850  13.789  18.028
 4421ETHO   H2134310  18.743  13.808  18.049
 4421ETHO   H2334311  18.904  13.881  17.994
 4422ETHO    O134312  18.920  13.739  18.142
 4422ETHO    C134313  18.929  13.839  18.244
 4422ETHO   H1134314  18.995  13.920  18.206
 4422ETHO   H1334315  18.830  13.889  18.254
 4422ETHO    C234316  18.967  13.789  18.389
 4422ETHO   H2134317  19.067  13.741  18.384
 4422ETHO   H2334318  18.888  13.716  18.418
 4423ETHO    O134319  18.959  13.887  18.496
 4423ETHO    C134320  19.084  13.951  18.517
 4423ETHO   H1134321  19.094  14.035  18.445
 4423ETHO   H1334322  19.173  13.885  18.505
 4423ETHO    C234323  19.089  14.006  18.663
 4423ETHO   H2134324  19.197  14.019  18.684
 4423ETHO   H2334325  19.065  13.926  18.736
 4424ETHO    O134326  19.015  14.124  18.692
 4424ETHO    C134327  19.063  14.204  18.800
 4424ETHO   H1134328  19.057  14.142  18.892
 4424ETHO   H1334329  19.169  14.234  18.784
 4424ETHO    C234330  18.981  14.327  18.830
 4424ETHO   H2134331  18.919  14.350  18.741
 4424ETHO   H2334332  19.052  14.413  18.841
 4425ETHO    O134333  18.901  14.301  18.940
 4425ETHO    C134334  18.831  14.416  18.988
 4425ETHO   H1134335  18.816  14.490  18.906
 4425ETHO   H1334336  18.728  14.394  19.023
 4425ETHO    C234337  18.887  14.481  19.106
 4425ETHO   H2134338  18.980  14.534  19.079
 4425ETHO   H2334339  18.914  14.403  19.179
 4426ETHO    O134340  18.789  14.569  19.166
 4426ETHO    C134341  18.855  14.635  19.274
 4426ETHO   H1134342  18.827  14.579  19.365
 4426ETHO   H1334343  18.965  14.653  19.265
 4426ETHO    C234344  18.789  14.773  19.293
 4426ETHO   H2134345  18.809  14.810  19.395
 4426ETHO   H2334346  18.682  14.743  19.292
 4427ETHO    O134347  18.837  14.865  19.196
 4427ETHO    C134348  18.735  14.960  19.164
 4427ETHO   H1134349  18.749  14.995  19.059
 4427ETHO   H1334350  18.639  14.908  19.182
 4427ETHO    C234351  18.734  15.077  19.264
 4427ETHO   H2134352  18.751  15.047  19.370
 4427ETHO   H2334353  18.639  15.134  19.249
 4428ETHO    O134354  18.846  15.153  19.231
 4428ETHO    C134355  18.850  15.272  19.316
 4428ETHO   H1134356  18.847  15.245  19.424
 4428ETHO   H1334357  18.766  15.342  19.296
 4428ETHO    C234358  18.970  15.370  19.292
 4428ETHO   H2134359  19.062  15.309  19.312
 4428ETHO   H2334360  18.978  15.458  19.359
 4429ETHO    O134361  18.964  15.404  19.160
 4429ETHO    C134362  19.093  15.426  19.089
 4429ETHO   H1134363  19.157  15.339  19.114
 4429ETHO   H1334364  19.100  15.419  18.979
 4429ETHO    C234365  19.163  15.551  19.140
 4429ETHO   H2134366  19.266  15.554  19.097
 4429ETHO   H2334367  19.181  15.550  19.250
 4430ETHO    O134368  19.081  15.660  19.100
 4430ETHO    C134369  19.152  15.782  19.085
 4430ETHO   H1134370  19.206  15.779  18.988
 4430ETHO   H1334371  19.217  15.804  19.173
 4430ETHO    C234372  19.046  15.893  19.057
 4430ETHO   H2134373  18.972  15.867  18.978
 4430ETHO   H2334374  19.105  15.983  19.030
 4431ETHO    O134375  18.985  15.924  19.180
 4431ETHO    C134376  18.883  16.023  19.181
 4431ETHO   H1134377  18.793  15.988  19.126
 4431ETHO   H1334378  18.861  16.035  19.289
 4431ETHO    C234379  18.920  16.162  19.129
 4431ETHO   H2134380  19.000  16.206  19.191
 4431ETHO   H2334381  18.833  16.228  19.154
 4432ETHO    O134382  18.947  16.164  18.989
 4432ETHO    C134383  18.999  16.289  18.944
 4432ETHO   H1134384  19.089  16.317  19.004
 4432ETHO   H1334385  18.926  16.371  18.961
 4432ETHO    C234386  19.045  16.281  18.797
 4432ETHO   H2134387  19.099  16.186  18.777
 4432ETHO   H2334388  19.123  16.356  18.772
 4433ETHO    O134389  18.929  16.291  18.711
 4433ETHO    C134390  18.969  16.336  18.580
 4433ETHO   H1134391  18.877  16.340  18.518
 4433ETHO   H1334392  19.006  16.441  18.579
 4433ETHO    C234393  19.072  16.239  18.519
 4433ETHO   H2134394  19.044  16.134  18.542
 4433ETHO   H2334395  19.175  16.256  18.557
 4434ETHO    O134396  19.081  16.253  18.382
 4434ETHO    C134397  19.167  16.159  18.327
 4434ETHO   H1134398  19.131  16.058  18.357
 4434ETHO   H1334399  19.269  16.183  18.366
 4434ETHO    C234400  19.168  16.141  18.173
 4434ETHO   H2134401  19.239  16.059  18.149
 4434ETHO   H2334402  19.207  16.229  18.117
 4435ETHO    O134403  19.039  16.108  18.119
 4435ETHO    C134404  19.047  16.092  17.974
 4435ETHO   H1134405  19.058  16.188  17.921
 4435ETHO   H1334406  19.126  16.021  17.942
 4435ETHO    C234407  18.921  16.013  17.924
 4435ETHO   H2134408  18.921  16.010  17.813
 4435ETHO   H2334409  18.829  16.067  17.956
 4436ETHO    O134410  18.917  15.871  17.952
 4436ETHO    C134411  18.801  15.814  17.895
 4436ETHO   H1134412  18.717  15.828  17.967
 4436ETHO   H1334413  18.759  15.864  17.805
 4436ETHO    C234414  18.821  15.668  17.860
 4436ETHO   H2134415  18.844  15.618  17.956
 4436ETHO   H2334416  18.903  15.660  17.785
 4437ETHO    O134417  18.702  15.607  17.800
 4437ETHO    C134418  18.727  15.473  17.748
 4437ETHO   H1134419  18.820  15.473  17.688
 4437ETHO   H1334420  18.743  15.402  17.831
 4437ETHO    C234421  18.603  15.436  17.665
 4437ETHO   H2134422  18.507  15.439  17.720
 4437ETHO   H2334423  18.613  15.331  17.630
 4438ETHO    O134424  18.601  15.524  17.553
 4438ETHO    C134425  18.534  15.470  17.436
 4438ETHO   H1134426  18.431  15.441  17.462
 4438ETHO   H1334427  18.537  15.555  17.364
 4438ETHO    C234428  18.604  15.351  17.361
 4438ETHO   H2134429  18.531  15.288  17.306
 4438ETHO   H2334430  18.655  15.284  17.434
 4439ETHO    O134431  18.696  15.384  17.263
 4439ETHO    C134432  18.786  15.277  17.254
 4439ETHO   H1134433  18.746  15.176  17.278
 4439ETHO   H1334434  18.862  15.292  17.333
 4439ETHO    C234435  18.846  15.291  17.113
 4439ETHO   H2134436  18.940  15.231  17.114
 4439ETHO   H2334437  18.881  15.396  17.103
 4440ETHO    O134438  18.764  15.227  17.020
 4440ETHO    C134439  18.797  15.281  16.889
 4440ETHO   H1134440  18.907  15.277  16.874
 4440ETHO   H1334441  18.765  15.213  16.807
 4440ETHO    C234442  18.748  15.424  16.853
 4440ETHO   H2134443  18.804  15.449  16.760
 4440ETHO   H2334444  18.783  15.495  16.932
 4441ETHO    O134445  18.609  15.422  16.817
 4441ETHO    C134446  18.558  15.539  16.764
 4441ETHO   H1134447  18.632  15.568  16.687
 4441ETHO   H1334448  18.546  15.612  16.847
 4441ETHO    C234449  18.420  15.512  16.701
 4441ETHO   H2134450  18.411  15.430  16.627
 4441ETHO   H2334451  18.389  15.601  16.641
 4442ETHO    O134452  18.326  15.510  16.809
 4442ETHO    C134453  18.208  15.443  16.769
 4442ETHO   H1134454  18.229  15.355  16.705
 4442ETHO   H1334455  18.150  15.422  16.862
 4442ETHO    C234456  18.110  15.522  16.682
 4442ETHO   H2134457  18.073  15.618  16.723
 4442ETHO   H2334458  18.022  15.455  16.668
 4443ETHO    O134459  18.158  15.549  16.552
 4443ETHO    C134460  18.082  15.651  16.486
 4443ETHO   H1134461  18.101  15.745  16.543
 4443ETHO   H1334462  17.979  15.620  16.460
 4443ETHO    C234463  18.162  15.713  16.363
 4443ETHO   H2134464  18.255  15.766  16.394
 4443ETHO   H2334465  18.104  15.794  16.314
 4444ETHO    O134466  18.197  15.610  16.273
 4444ETHO    C134467  18.233  15.660  16.142
 4444ETHO   H1134468  18.233  15.576  16.070
 4444ETHO   H1334469  18.161  15.738  16.109
 4444ETHO    C234470  18.378  15.718  16.122
 4444ETHO   H2134471  18.400  15.786  16.206
 4444ETHO   H2334472  18.376  15.775  16.026
 4445ETHO    O134473  18.467  15.612  16.105
 4445ETHO    C134474  18.598  15.661  16.090
 4445ETHO   H1134475  18.630  15.693  16.191
 4445ETHO   H1334476  18.592  15.754  16.028
 4445ETHO    C234477  18.705  15.554  16.044
 4445ETHO   H2134478  18.785  15.611  15.992
 4445ETHO   H2334479  18.651  15.481  15.980
 4446ETHO    O134480  18.781  15.490  16.152
 4446ETHO    C134481  18.870  15.384  16.120
 4446ETHO   H1134482  18.882  15.319  16.210
 4446ETHO   H1334483  18.834  15.320  16.037
 4446ETHO    C234484  19.011  15.426  16.076
 4446ETHO   H2134485  19.037  15.370  15.983
 4446ETHO   H2334486  19.000  15.535  16.055
 4447ETHO    O134487  19.110  15.402  16.180
 4447ETHO    C134488  19.239  15.372  16.130
 4447ETHO   H1134489  19.254  15.433  16.039
 4447ETHO   H1334490  19.237  15.263  16.111
 4447ETHO    C234491  19.346  15.392  16.235
 4447ETHO   H2134492  19.325  15.330  16.325
 4447ETHO   H2334493  19.369  15.497  16.265
 4448ETHO    O134494  19.467  15.334  16.186
 4448ETHO    C134495  19.530  15.415  16.085
 4448ETHO   H1134496  19.461  15.493  16.045
 4448ETHO   H1334497  19.607  15.470  16.145
 4448ETHO    C234498  19.608  15.334  15.980
 4448ETHO   H2134499  19.641  15.394  15.892
 4448ETHO   H2334500  19.532  15.266  15.936
 4449ETHO    O134501  19.717  15.271  16.038
 4449ETHO    C134502  19.808  15.211  15.948
 4449ETHO   H1134503  19.866  15.294  15.902
 4449ETHO   H1334504  19.746  15.174  15.863
 4449ETHO    C234505  19.911  15.123  16.007
 4449ETHO   H2134506  19.953  15.177  16.094
 4449ETHO   H2334507  19.992  15.119  15.931
 4450ETHO    O134508  19.873  15.002  16.058
 4450ETHO    C134509  19.791  15.013  16.181
 4450ETHO   H1134510  19.834  15.092  16.247
 4450ETHO   H1334511  19.690  15.043  16.146
 4450ETHO    C234512  19.787  14.882  16.261
 4450ETHO   H2134513  19.761  14.917  16.364
 4450ETHO   H2334514  19.886  14.834  16.270
 4451ETHO    O134515  19.688  14.786  16.221
 4451ETHO    C134516  19.688  14.682  16.315
 4451ETHO   H1134517  19.794  14.650  16.318
 4451ETHO   H1334518  19.666  14.714  16.420
 4451ETHO    C234519  19.598  14.556  16.283
 4451ETHO   H2134520  19.494  14.589  16.264
 4451ETHO   H2334521  19.598  14.487  16.371
 4452ETHO    O134522  19.647  14.482  16.172
 4452ETHO    C134523  19.552  14.382  16.113
 4452ETHO   H1134524  19.450  14.427  16.112
 4452ETHO   H1334525  19.569  14.360  16.006
 4452ETHO    C234526  19.543  14.245  16.176
 4452ETHO   H2134527  19.468  14.185  16.119
 4452ETHO   H2334528  19.511  14.251  16.282
 4453ETHO    O134529  19.671  14.175  16.163
 4453ETHO    C134530  19.688  14.080  16.267
 4453ETHO   H1134531  19.693  14.141  16.360
 4453ETHO   H1334532  19.602  14.010  16.254
 4453ETHO    C234533  19.820  14.003  16.241
 4453ETHO   H2134534  19.893  14.086  16.253
 4453ETHO   H2334535  19.820  13.962  16.137
 4454ETHO    O134536  19.851  13.906  16.340
 4454ETHO    C134537  19.973  13.829  16.303
 4454ETHO   H1134538  20.028  13.871  16.216
 4454ETHO   H1334539  19.947  13.726  16.270
 4454ETHO    C234540  20.071  13.814  16.422
 4454ETHO   H2134541  20.145  13.734  16.400
 4454ETHO   H2334542  20.005  13.765  16.497
 4455ETHO    O134543  20.131  13.941  16.448
 4455ETHO    C134544  20.240  13.934  16.540
 4455ETHO   H1134545  20.246  14.027  16.600
 4455ETHO   H1334546  20.217  13.852  16.612
 4455ETHO    C234547  20.376  13.906  16.475
 4455ETHO   H2134548  20.454  13.940  16.546
 4455ETHO   H2334549  20.383  13.970  16.384
 4456ETHO    O134550  20.393  13.764  16.446
 4456ETHO    C134551  20.504  13.740  16.354
 4456ETHO   H1134552  20.596  13.786  16.394
 4456ETHO   H1334553  20.478  13.787  16.256
 4456ETHO    C234554  20.536  13.592  16.317
 4456ETHO   H2134555  20.443  13.547  16.276
 4456ETHO   H2334556  20.572  13.541  16.409
 4457ETHO    O134557  20.629  13.586  16.206
 4457ETHO    C134558  20.675  13.447  16.183
 4457ETHO   H1134559  20.760  13.455  16.113
 4457ETHO   H1334560  20.722  13.418  16.280
 4457ETHO    C234561  20.566  13.351  16.133
 4457ETHO   H2134562  20.491  13.324  16.211
 4457ETHO   H2334563  20.616  13.254  16.108
 4458ETHO    O134564  20.506  13.404  16.016
 4458ETHO    C134565  20.409  13.316  15.962
 4458ETHO   H1134566  20.375  13.240  16.035
 4458ETHO   H1334567  20.450  13.259  15.875
 4458ETHO    C234568  20.287  13.390  15.904
 4458ETHO   H2134569  20.245  13.447  15.990
 4458ETHO   H2334570  20.205  13.316  15.893
 4459ETHO    O134571  20.298  13.455  15.776
 4459ETHO    C134572  20.182  13.515  15.724
 4459ETHO   H1134573  20.155  13.448  15.639
 4459ETHO   H1334574  20.099  13.524  15.796
 4459ETHO    C234575  20.202  13.655  15.659
 4459ETHO   H2134576  20.145  13.657  15.563
 4459ETHO   H2334577  20.309  13.671  15.637
 4460ETHO    O134578  20.151  13.747  15.758
 4460ETHO    C134579  20.170  13.886  15.707
 4460ETHO   H1134580  20.255  13.892  15.635
 4460ETHO   H1334581  20.211  13.954  15.785
 4460ETHO    C234582  20.039  13.939  15.641
 4460ETHO   H2134583  20.022  13.876  15.551
 4460ETHO   H2334584  20.070  14.041  15.609
 4461ETHO    O134585  19.926  13.933  15.722
 4461ETHO    C134586  19.812  13.995  15.672
 4461ETHO   H1134587  19.835  14.104  15.670
 4461ETHO   H1334588  19.791  13.968  15.566
 4461ETHO    C234589  19.697  13.959  15.769
 4461ETHO   H2134590  19.712  13.984  15.876
 4461ETHO   H2334591  19.678  13.850  15.763
 4462ETHO    O134592  19.572  14.006  15.722
 4462ETHO    C134593  19.473  14.025  15.822
 4462ETHO   H1134594  19.448  13.927  15.868
 4462ETHO   H1334595  19.514  14.096  15.896
 4462ETHO    C234596  19.355  14.089  15.739
 4462ETHO   H2134597  19.295  14.015  15.682
 4462ETHO   H2334598  19.403  14.166  15.675
 4463ETHO    O134599  19.268  14.160  15.825
 4463ETHO    C134600  19.192  14.077  15.917
 4463ETHO   H1134601  19.147  14.000  15.851
 4463ETHO   H1334602  19.260  14.036  15.996
 4463ETHO    C234603  19.069  14.141  15.979
 4463ETHO   H2134604  19.007  14.056  16.014
 4463ETHO   H2334605  19.018  14.194  15.895
 4464ETHO    O134606  19.105  14.225  16.086
 4464ETHO    C134607  19.174  14.346  16.048
 4464ETHO   H1134608  19.277  14.319  16.017
 4464ETHO   H1334609  19.129  14.394  15.958
 4464ETHO    C234610  19.163  14.447  16.155
 4464ETHO   H2134611  19.235  14.527  16.127
 4464ETHO   H2334612  19.196  14.399  16.250
 4465ETHO    O134613  19.030  14.488  16.181
 4465ETHO    C134614  19.026  14.621  16.229
 4465ETHO   H1134615  19.065  14.681  16.144
 4465ETHO   H1334616  19.103  14.628  16.308
 4465ETHO    C234617  18.891  14.673  16.255
 4465ETHO   H2134618  18.817  14.619  16.192
 4465ETHO   H2334619  18.888  14.782  16.234
 4466ETHO    O134620  18.856  14.650  16.391
 4466ETHO    C134621  18.721  14.699  16.428
 4466ETHO   H1134622  18.712  14.801  16.470
 4466ETHO   H1334623  18.651  14.689  16.342
 4466ETHO    C234624  18.657  14.604  16.530
 4466ETHO   H2134625  18.659  14.496  16.501
 4466ETHO   H2334626  18.546  14.613  16.536
 4467ETHO    O134627  18.705  14.615  16.660
 4467ETHO    C134628  18.627  14.548  16.758
 4467ETHO   H1134629  18.637  14.441  16.731
 4467ETHO   H1334630  18.520  14.578  16.751
 4467ETHO    C234631  18.676  14.585  16.900
 4467ETHO   H2134632  18.596  14.544  16.966
 4467ETHO   H2334633  18.677  14.695  16.908
 4468ETHO    O134634  18.801  14.518  16.936
 4468ETHO    C134635  18.855  14.586  17.050
 4468ETHO   H1134636  18.869  14.695  17.037
 4468ETHO   H1334637  18.782  14.572  17.133
 4468ETHO    C234638  18.982  14.513  17.088
 4468ETHO   H2134639  18.958  14.405  17.096
 4468ETHO   H2334640  19.014  14.557  17.185
 4469ETHO    O134641  19.075  14.529  16.981
 4469ETHO    C134642  19.197  14.470  17.023
 4469ETHO   H1134643  19.181  14.374  17.077
 4469ETHO   H1334644  19.238  14.540  17.099
 4469ETHO    C234645  19.299  14.442  16.912
 4469ETHO   H2134646  19.393  14.419  16.967
 4469ETHO   H2334647  19.316  14.538  16.859
 4470ETHO    O134648  19.278  14.332  16.817
 4470ETHO    C134649  19.386  14.248  16.801
 4470ETHO   H1134650  19.475  14.309  16.778
 4470ETHO   H1334651  19.411  14.186  16.890
 4470ETHO    C234652  19.352  14.162  16.680
 4470ETHO   H2134653  19.451  14.129  16.641
 4470ETHO   H2334654  19.295  14.195  16.590
 4471ETHO    O134655  19.272  14.050  16.729
 4471ETHO    C134656  19.250  13.942  16.638
 4471ETHO   H1134657  19.342  13.887  16.607
 4471ETHO   H1334658  19.201  13.979  16.545
 4471ETHO    C234659  19.156  13.843  16.710
 4471ETHO   H2134660  19.127  13.782  16.621
 4471ETHO   H2334661  19.071  13.898  16.755
 4472ETHO    O134662  19.221  13.758  16.814
 4472ETHO    C134663  19.145  13.649  16.855
 4472ETHO   H1134664  19.058  13.687  16.912
 4472ETHO   H1334665  19.097  13.597  16.769
 4472ETHO    C234666  19.221  13.547  16.938
 4472ETHO   H2134667  19.154  13.482  16.998
 4472ETHO   H2334668  19.281  13.594  17.019
 4473ETHO    O134669  19.286  13.453  16.853
 4473ETHO    C134670  19.348  13.343  16.922
 4473ETHO   H1134671  19.414  13.379  17.005
 4473ETHO   H1334672  19.270  13.280  16.969
 4473ETHO    C234673  19.426  13.258  16.819
 4473ETHO   H2134674  19.358  13.251  16.732
 4473ETHO   H2334675  19.449  13.156  16.859
 4474ETHO    O134676  19.543  13.328  16.775
 4474ETHO    C134677  19.644  13.333  16.870
 4474ETHO   H1134678  19.601  13.393  16.953
 4474ETHO   H1334679  19.675  13.231  16.902
 4474ETHO    C234680  19.775  13.397  16.809
 4474ETHO   H2134681  19.849  13.413  16.890
 4474ETHO   H2334682  19.753  13.493  16.759
 4475ETHO    O134683  19.826  13.302  16.719
 4475ETHO    C134684  19.949  13.344  16.661
 4475ETHO   H1134685  19.934  13.441  16.609
 4475ETHO   H1334686  20.015  13.362  16.749
 4475ETHO    C234687  20.011  13.243  16.576
 4475ETHO   H2134688  20.082  13.293  16.507
 4475ETHO   H2334689  19.940  13.182  16.516
 4476ETHO    O134690  20.100  13.155  16.652
 4476ETHO    C134691  20.164  13.066  16.568
 4476ETHO   H1134692  20.224  13.105  16.483
 4476ETHO   H1334693  20.088  12.993  16.532
 4476ETHO    C234694  20.263  12.996  16.672
 4476ETHO   H2134695  20.214  12.959  16.765
 4476ETHO   H2334696  20.341  13.073  16.689
 4477ETHO    O134697  20.327  12.887  16.615
 4477ETHO    C134698  20.465  12.885  16.649
 4477ETHO   H1134699  20.517  12.965  16.592
 4477ETHO   H1334700  20.480  12.901  16.758
 4477ETHO    C234701  20.526  12.742  16.621
 4477ETHO   H2134702  20.636  12.754  16.631
 4477ETHO   H2334703  20.505  12.700  16.521
 4478ETHO    O134704  20.472  12.664  16.722
 4478ETHO    C134705  20.498  12.527  16.697
 4478ETHO   H1134706  20.428  12.501  16.615
 4478ETHO   H1334707  20.451  12.469  16.779
 4478ETHO    C234708  20.641  12.489  16.681
 4478ETHO   H2134709  20.667  12.523  16.579
 4478ETHO   H2334710  20.646  12.379  16.691
 4479ETHO    O134711  20.729  12.541  16.781
 4479ETHO    C134712  20.867  12.495  16.768
 4479ETHO   H1134713  20.909  12.495  16.871
 4479ETHO   H1334714  20.867  12.388  16.735
 4479ETHO    C234715  20.955  12.580  16.670
 4479ETHO   H2134716  21.057  12.539  16.691
 4479ETHO   H2334717  20.929  12.571  16.562
 4480ETHO    O134718  20.950  12.717  16.699
 4480ETHO    C134719  21.020  12.799  16.603
 4480ETHO   H1134720  20.955  12.815  16.515
 4480ETHO   H1334721  21.120  12.759  16.573
 4480ETHO    C234722  21.034  12.933  16.664
 4480ETHO   H2134723  20.937  12.972  16.702
 4480ETHO   H2334724  21.067  13.012  16.593
 4481ETHO    O134725  21.127  12.933  16.772
 4481ETHO    C134726  21.130  13.057  16.841
 4481ETHO   H1134727  21.169  13.133  16.769
 4481ETHO   H1334728  21.026  13.076  16.874
 4481ETHO    C234729  21.235  13.061  16.957
 4481ETHO   H2134730  21.254  13.161  17.001
 4481ETHO   H2334731  21.335  13.024  16.925
 4482ETHO    O134732  21.186  12.978  17.064
 4482ETHO    C134733  21.288  12.967  17.166
 4482ETHO   H1134734  21.386  12.939  17.121
 4482ETHO   H1334735  21.264  12.887  17.239
 4482ETHO    C234736  21.302  13.097  17.249
 4482ETHO   H2134737  21.203  13.148  17.242
 4482ETHO   H2334738  21.376  13.158  17.193
 4483ETHO    O134739  21.357  13.077  17.376
 4483ETHO    C134740  21.326  13.193  17.459
 4483ETHO   H1134741  21.243  13.255  17.420
 4483ETHO   H1334742  21.301  13.149  17.558
 4483ETHO    C234743  21.442  13.293  17.464
 4483ETHO   H2134744  21.525  13.248  17.523
 4483ETHO   H2334745  21.403  13.377  17.525
 4484ETHO    O134746  21.482  13.334  17.336
 4484ETHO    C134747  21.576  13.436  17.329
 4484ETHO   H1134748  21.639  13.439  17.420
 4484ETHO   H1334749  21.520  13.533  17.328
 4484ETHO    C234750  21.675  13.424  17.217
 4484ETHO   H2134751  21.734  13.330  17.230
 4484ETHO   H2334752  21.751  13.504  17.227
 4485ETHO    O134753  21.627  13.428  17.084
 4485ETHO    C134754  21.708  13.500  16.994
 4485ETHO   H1134755  21.812  13.461  17.000
 4485ETHO   H1334756  21.663  13.485  16.894
 4485ETHO    C234757  21.712  13.651  17.028
 4485ETHO   H2134758  21.791  13.694  16.964
 4485ETHO   H2334759  21.730  13.689  17.130
 4486ETHO    O134760  21.588  13.715  16.991
 4486ETHO    C134761  21.612  13.858  16.988
 4486ETHO   H1134762  21.712  13.877  16.944
 4486ETHO   H1334763  21.620  13.891  17.094
 4486ETHO    C234764  21.514  13.944  16.918
 4486ETHO   H2134765  21.563  14.042  16.900
 4486ETHO   H2334766  21.421  13.955  16.978
 4487ETHO    O134767  21.485  13.888  16.787
 4487ETHO    C134768  21.416  13.973  16.698
 4487ETHO   H1134769  21.439  14.079  16.722
 4487ETHO   H1334770  21.454  13.945  16.598
 4487ETHO    C234771  21.264  13.956  16.700
 4487ETHO   H2134772  21.224  14.016  16.616
 4487ETHO   H2334773  21.244  13.848  16.687
 4488ETHO    O134774  21.204  14.015  16.823
 4488ETHO    C134775  21.159  13.904  16.909
 4488ETHO   H1134776  21.058  13.869  16.878
 4488ETHO   H1334777  21.227  13.817  16.912
 4488ETHO    C234778  21.142  13.954  17.053
 4488ETHO   H2134779  21.235  14.011  17.074
 4488ETHO   H2334780  21.150  13.861  17.114
 4489ETHO    O134781  21.032  14.039  17.076
 4489ETHO    C134782  21.010  14.073  17.212
 4489ETHO   H1134783  20.956  13.986  17.255
 4489ETHO   H1334784  21.107  14.086  17.264
 4489ETHO    C234785  20.933  14.206  17.242
 4489ETHO   H2134786  20.968  14.285  17.172
 4489ETHO   H2334787  20.950  14.234  17.348
 4490ETHO    O134788  20.790  14.189  17.223
 4490ETHO    C134789  20.713  14.313  17.250
 4490ETHO   H1134790  20.721  14.341  17.357
 4490ETHO   H1334791  20.750  14.393  17.182
 4490ETHO    C234792  20.554  14.305  17.227
 4490ETHO   H2134793  20.535  14.278  17.120
 4490ETHO   H2334794  20.516  14.407  17.247
 4491ETHO    O134795  20.493  14.232  17.326
 4491ETHO    C134796  20.359  14.211  17.304
 4491ETHO   H1134797  20.352  14.154  17.209
 4491ETHO   H1334798  20.311  14.310  17.313
 4491ETHO    C234799  20.285  14.121  17.407
 4491ETHO   H2134800  20.298  14.167  17.508
 4491ETHO   H2334801  20.329  14.019  17.402
 4492ETHO    O134802  20.145  14.108  17.381
 4492ETHO    C134803  20.080  14.089  17.507
 4492ETHO   H1134804  20.119  14.001  17.561
 4492ETHO   H1334805  20.104  14.178  17.569
 4492ETHO    C234806  19.930  14.074  17.487
 4492ETHO   H2134807  19.886  14.168  17.447
 4492ETHO   H2334808  19.888  14.058  17.588
 4493ETHO    O134809  19.904  13.964  17.401
 4493ETHO    C134810  19.765  13.936  17.401
 4493ETHO   H1134811  19.707  14.018  17.355
 4493ETHO   H1334812  19.737  13.932  17.508
 4493ETHO    C234813  19.728  13.799  17.344
 4493ETHO   H2134814  19.637  13.760  17.395
 4493ETHO   H2334815  19.810  13.725  17.358
 4494ETHO    O134816  19.693  13.814  17.208
 4494ETHO    C134817  19.640  13.692  17.162
 4494ETHO   H1134818  19.725  13.619  17.165
 4494ETHO   H1334819  19.571  13.646  17.236
 4494ETHO    C234820  19.569  13.696  17.025
 4494ETHO   H2134821  19.499  13.782  17.032
 4494ETHO   H2334822  19.510  13.602  17.017
 4495ETHO    O134823  19.670  13.729  16.926
 4495ETHO    C134824  19.609  13.761  16.808
 4495ETHO   H1134825  19.538  13.839  16.843
 4495ETHO   H1334826  19.549  13.677  16.767
 4495ETHO    C234827  19.699  13.819  16.704
 4495ETHO   H2134828  19.641  13.851  16.614
 4495ETHO   H2334829  19.775  13.747  16.666
 4496ETHO    O134830  19.763  13.940  16.754
 4496ETHO    C134831  19.858  13.986  16.661
 4496ETHO   H1134832  19.940  13.916  16.636
 4496ETHO   H1334833  19.801  14.013  16.569
 4496ETHO    C234834  19.927  14.109  16.712
 4496ETHO   H2134835  19.852  14.171  16.766
 4496ETHO   H2334836  19.972  14.168  16.629
 4497ETHO    O134837  20.030  14.069  16.799
 4497ETHO    C134838  20.109  14.176  16.838
 4497ETHO   H1134839  20.046  14.250  16.891
 4497ETHO   H1334840  20.152  14.222  16.747
 4497ETHO    C234841  20.224  14.137  16.933
 4497ETHO   H2134842  20.169  14.085  17.015
 4497ETHO   H2334843  20.282  14.226  16.966
 4498ETHO    O134844  20.311  14.050  16.858
 4498ETHO    C134845  20.422  14.011  16.946
 4498ETHO   H1134846  20.476  14.095  16.994
 4498ETHO   H1334847  20.389  13.934  17.020
 4498ETHO    C234848  20.552  13.956  16.876
 4498ETHO   H2134849  20.629  13.961  16.956
 4498ETHO   H2334850  20.575  14.010  16.781
 4499ETHO    O134851  20.542  13.816  16.831
 4499ETHO    C134852  20.670  13.772  16.781
 4499ETHO   H1134853  20.680  13.795  16.672
 4499ETHO   H1334854  20.752  13.805  16.847
 4499ETHO    C234855  20.673  13.616  16.785
 4499ETHO   H2134856  20.744  13.571  16.712
 4499ETHO   H2334857  20.570  13.573  16.777
 4500ETHO    O134858  20.711  13.572  16.917
 4500ETHO    C134859  20.686  13.437  16.929
 4500ETHO   H1134860  20.580  13.412  16.909
 4500ETHO   H1334861  20.751  13.377  16.862
 4500ETHO    C234862  20.711  13.371  17.065
 4500ETHO   H2134863  20.666  13.270  17.068
 4500ETHO   H2334864  20.678  13.433  17.151
 4501ETHO    O134865  20.851  13.357  17.073
 4501ETHO    C134866  20.891  13.262  17.179
 4501ETHO   H1134867  20.811  13.185  17.190
 4501ETHO   H1334868  20.973  13.203  17.133
 4501ETHO    C234869  20.919  13.334  17.302
 4501ETHO   H2134870  20.980  13.425  17.283
 4501ETHO   H2334871  20.974  13.269  17.374
 4502ETHO    O134872  20.794  13.370  17.362
 4502ETHO    C134873  20.798  13.447  17.481
 4502ETHO   H1134874  20.859  13.537  17.461
 4502ETHO   H1334875  20.850  13.385  17.557
 4502ETHO    C234876  20.664  13.507  17.532
 4502ETHO   H2134877  20.609  13.551  17.446
 4502ETHO   H2334878  20.682  13.588  17.605
 4503ETHO    O134879  20.580  13.405  17.592
 4503ETHO    C134880  20.504  13.327  17.494
 4503ETHO   H1134881  20.578  13.290  17.420
 4503ETHO   H1334882  20.450  13.391  17.421
 4503ETHO    C234883  20.416  13.210  17.541
 4503ETHO   H2134884  20.356  13.181  17.452
 4503ETHO   H2334885  20.349  13.253  17.618
 4504ETHO    O134886  20.494  13.115  17.595
 4504ETHO    C134887  20.432  12.990  17.601
 4504ETHO   H1134888  20.399  12.961  17.499
 4504ETHO   H1334889  20.338  12.999  17.658
 4504ETHO    C234890  20.527  12.877  17.636
 4504ETHO   H2134891  20.468  12.782  17.641
 4504ETHO   H2334892  20.571  12.909  17.733
 4505ETHO    O134893  20.646  12.867  17.553
 4505ETHO    C134894  20.607  12.820  17.427
 4505ETHO   H1134895  20.546  12.728  17.442
 4505ETHO   H1334896  20.557  12.902  17.372
 4505ETHO    C234897  20.722  12.786  17.329
 4505ETHO   H2134898  20.675  12.747  17.236
 4505ETHO   H2334899  20.784  12.703  17.372
 4505ETHO    OZ34900  20.801  12.900  17.291
 4505ETHO   HZ134901  20.825  12.957  17.364
 4506ETHO    O134902   4.090  10.980  11.606
 4506ETHO   HO134903   4.033  10.923  11.657
 4506ETHO    C134904   4.076  11.115  11.658
 4506ETHO   H1134905   4.077  11.110  11.769
 4506ETHO   H1334906   3.980  11.161  11.627
 4506ETHO    C234907   4.198  11.213  11.624
 4506ETHO   H2134908   4.165  11.316  11.649
 4506ETHO   H2334909   4.216  11.217  11.515
 4507ETHO    O134910   4.324  11.194  11.691
 4507ETHO    C134911   4.321  11.237  11.824
 4507ETHO   H1134912   4.315  11.348  11.825
 4507ETHO   H1334913   4.237  11.186  11.876
 4507ETHO    C234914   4.462  11.215  11.896
 4507ETHO   H2134915   4.444  11.259  11.996
 4507ETHO   H2334916   4.538  11.274  11.839
 4508ETHO    O134917   4.491  11.080  11.926
 4508ETHO    C134918   4.615  11.081  11.996
 4508ETHO   H1134919   4.609  11.142  12.089
 4508ETHO   H1334920   4.692  11.140  11.942
 4508ETHO    C234921   4.657  10.941  12.019
 4508ETHO   H2134922   4.762  10.941  12.055
 4508ETHO   H2334923   4.657  10.877  11.928
 4509ETHO    O134924   4.578  10.877  12.123
 4509ETHO    C134925   4.605  10.927  12.259
 4509ETHO   H1134926   4.714  10.930  12.279
 4509ETHO   H1334927   4.564  11.030  12.266
 4509ETHO    C234928   4.530  10.846  12.364
 4509ETHO   H2134929   4.443  10.793  12.320
 4509ETHO   H2334930   4.503  10.927  12.435
 4510ETHO    O134931   4.622  10.759  12.436
 4510ETHO    C134932   4.562  10.672  12.530
 4510ETHO   H1134933   4.504  10.716  12.614
 4510ETHO   H1334934   4.495  10.606  12.472
 4510ETHO    C234935   4.657  10.569  12.590
 4510ETHO   H2134936   4.602  10.505  12.662
 4510ETHO   H2334937   4.740  10.615  12.647
 4511ETHO    O134938   4.704  10.494  12.480
 4511ETHO    C134939   4.819  10.410  12.512
 4511ETHO   H1134940   4.868  10.441  12.606
 4511ETHO   H1334941   4.780  10.308  12.532
 4511ETHO    C234942   4.919  10.390  12.399
 4511ETHO   H2134943   4.880  10.362  12.299
 4511ETHO   H2334944   4.990  10.311  12.431
 4512ETHO    O134945   5.007  10.501  12.370
 4512ETHO    C134946   4.948  10.605  12.290
 4512ETHO   H1134947   4.878  10.561  12.216
 4512ETHO   H1334948   4.902  10.678  12.360
 4512ETHO    C234949   5.066  10.674  12.220
 4512ETHO   H2134950   5.140  10.698  12.300
 4512ETHO   H2334951   5.032  10.769  12.174
 4513ETHO    O134952   5.126  10.593  12.121
 4513ETHO    C134953   5.257  10.647  12.085
 4513ETHO   H1134954   5.324  10.654  12.174
 4513ETHO   H1334955   5.253  10.750  12.043
 4513ETHO    C234956   5.324  10.554  11.984
 4513ETHO   H2134957   5.331  10.457  12.038
 4513ETHO   H2334958   5.430  10.580  11.965
 4514ETHO    O134959   5.237  10.535  11.871
 4514ETHO    C134960   5.307  10.545  11.742
 4514ETHO   H1134961   5.363  10.639  11.758
 4514ETHO   H1334962   5.379  10.462  11.724
 4514ETHO    C234963   5.217  10.562  11.615
 4514ETHO   H2134964   5.279  10.621  11.544
 4514ETHO   H2334965   5.133  10.624  11.653
 4515ETHO    O134966   5.182  10.434  11.559
 4515ETHO    C134967   5.088  10.360  11.643
 4515ETHO   H1134968   5.013  10.436  11.674
 4515ETHO   H1334969   5.124  10.334  11.744
 4515ETHO    C234970   5.009  10.248  11.571
 4515ETHO   H2134971   4.967  10.289  11.477
 4515ETHO   H2334972   4.931  10.205  11.637
 4516ETHO    O134973   5.096  10.147  11.531
 4516ETHO    C134974   5.027  10.033  11.491
 4516ETHO   H1134975   4.954   9.992  11.565
 4516ETHO   H1334976   4.964  10.060  11.404
 4516ETHO    C234977   5.121   9.923  11.444
 4516ETHO   H2134978   5.061   9.847  11.390
 4516ETHO   H2334979   5.195   9.978  11.382
 4517ETHO    O134980   5.194   9.864  11.551
 4517ETHO    C134981   5.256   9.742  11.512
 4517ETHO   H1134982   5.352   9.769  11.464
 4517ETHO   H1334983   5.204   9.702  11.423
 4517ETHO    C234984   5.283   9.626  11.620
 4517ETHO   H2134985   5.314   9.538  11.559
 4517ETHO   H2334986   5.195   9.615  11.687
 4518ETHO    O134987   5.398   9.655  11.700
 4518ETHO    C134988   5.366   9.727  11.820
 4518ETHO   H1134989   5.299   9.814  11.801
 4518ETHO   H1334990   5.318   9.656  11.892
 4518ETHO    C234991   5.501   9.772  11.880
 4518ETHO   H2134992   5.562   9.839  11.816
 4518ETHO   H2334993   5.554   9.675  11.897
 4519ETHO    O134994   5.482   9.821  12.012
 4519ETHO    C134995   5.605   9.872  12.058
 4519ETHO   H1134996   5.616   9.971  12.009
 4519ETHO   H1334997   5.689   9.803  12.032
 4519ETHO    C234998   5.621   9.877  12.211
 4519ETHO   H2134999   5.721   9.922  12.230
 4519ETHO   H2335000   5.630   9.771  12.241
 4520ETHO    O135001   5.520   9.946  12.272
 4520ETHO    C135002   5.546   9.970  12.415
 4520ETHO   H1135003   5.545   9.882  12.483
 4520ETHO   H1335004   5.645  10.018  12.434
 4520ETHO    C235005   5.441  10.062  12.479
 4520ETHO   H2135006   5.338  10.026  12.461
 4520ETHO   H2335007   5.451  10.076  12.589
 4521ETHO    O135008   5.463  10.186  12.408
 4521ETHO    C135009   5.389  10.289  12.467
 4521ETHO   H1135010   5.291  10.246  12.498
 4521ETHO   H1335011   5.441  10.323  12.560
 4521ETHO    C235012   5.357  10.390  12.364
 4521ETHO   H2135013   5.282  10.463  12.401
 4521ETHO   H2335014   5.325  10.359  12.262
 4522ETHO    O135015   5.467  10.478  12.347
 4522ETHO    C135016   5.575  10.427  12.266
 4522ETHO   H1135017   5.637  10.368  12.337
 4522ETHO   H1335018   5.540  10.363  12.183
 4522ETHO    C235019   5.664  10.532  12.196
 4522ETHO   H2135020   5.603  10.610  12.146
 4522ETHO   H2335021   5.712  10.461  12.124
 4523ETHO    O135022   5.758  10.599  12.278
 4523ETHO    C135023   5.876  10.625  12.203
 4523ETHO   H1135024   5.939  10.536  12.181
 4523ETHO   H1335025   5.856  10.666  12.102
 4523ETHO    C235026   5.968  10.722  12.275
 4523ETHO   H2135027   5.918  10.820  12.296
 4523ETHO   H2335028   6.057  10.744  12.213
 4524ETHO    O135029   6.010  10.671  12.403
 4524ETHO    C135030   6.126  10.731  12.451
 4524ETHO   H1135031   6.211  10.717  12.381
 4524ETHO   H1335032   6.151  10.675  12.544
 4524ETHO    C235033   6.116  10.886  12.483
 4524ETHO   H2135034   6.098  10.951  12.395
 4524ETHO   H2335035   6.215  10.921  12.519
 4525ETHO    O135036   6.019  10.922  12.581
 4525ETHO    C135037   6.059  11.038  12.647
 4525ETHO   H1135038   6.164  11.028  12.681
 4525ETHO   H1335039   6.046  11.115  12.568
 4525ETHO    C235040   5.978  11.084  12.769
 4525ETHO   H2135041   6.019  11.177  12.814
 4525ETHO   H2335042   5.979  11.002  12.844
 4526ETHO    O135043   5.838  11.101  12.729
 4526ETHO    C135044   5.762  11.155  12.831
 4526ETHO   H1135045   5.788  11.091  12.918
 4526ETHO   H1335046   5.654  11.138  12.808
 4526ETHO    C235047   5.775  11.312  12.850
 4526ETHO   H2135048   5.672  11.351  12.860
 4526ETHO   H2335049   5.819  11.362  12.761
 4527ETHO    O135050   5.846  11.345  12.968
 4527ETHO    C135051   5.830  11.486  12.990
 4527ETHO   H1135052   5.889  11.541  12.913
 4527ETHO   H1335053   5.720  11.503  12.993
 4527ETHO    C235054   5.883  11.522  13.132
 4527ETHO   H2135055   5.882  11.630  13.157
 4527ETHO   H2335056   5.819  11.463  13.202
 4528ETHO    O135057   6.023  11.481  13.155
 4528ETHO    C135058   6.037  11.439  13.286
 4528ETHO   H1135059   5.972  11.355  13.318
 4528ETHO   H1335060   6.005  11.524  13.351
 4528ETHO    C235061   6.180  11.406  13.332
 4528ETHO   H2135062   6.183  11.406  13.443
 4528ETHO   H2335063   6.252  11.486  13.302
 4529ETHO    O135064   6.243  11.285  13.283
 4529ETHO    C135065   6.360  11.252  13.353
 4529ETHO   H1135066   6.409  11.346  13.386
 4529ETHO   H1335067   6.324  11.203  13.446
 4529ETHO    C235068   6.446  11.158  13.270
 4529ETHO   H2135069   6.395  11.075  13.216
 4529ETHO   H2335070   6.533  11.128  13.332
 4530ETHO    O135071   6.504  11.239  13.171
 4530ETHO    C135072   6.588  11.151  13.094
 4530ETHO   H1135073   6.531  11.064  13.053
 4530ETHO   H1335074   6.672  11.127  13.162
 4530ETHO    C235075   6.664  11.216  12.975
 4530ETHO   H2135076   6.737  11.141  12.939
 4530ETHO   H2335077   6.718  11.309  13.004
 4531ETHO    O135078   6.578  11.260  12.880
 4531ETHO    C135079   6.645  11.335  12.772
 4531ETHO   H1135080   6.746  11.293  12.750
 4531ETHO   H1335081   6.594  11.304  12.678
 4531ETHO    C235082   6.638  11.486  12.800
 4531ETHO   H2135083   6.533  11.522  12.796
 4531ETHO   H2335084   6.694  11.531  12.714
 4532ETHO    O135085   6.715  11.512  12.915
 4532ETHO    C135086   6.719  11.651  12.939
 4532ETHO   H1135087   6.617  11.695  12.931
 4532ETHO   H1335088   6.775  11.702  12.858
 4532ETHO    C235089   6.777  11.674  13.084
 4532ETHO   H2135090   6.814  11.779  13.091
 4532ETHO   H2335091   6.857  11.599  13.103
 4533ETHO    O135092   6.675  11.650  13.179
 4533ETHO    C135093   6.712  11.660  13.315
 4533ETHO   H1135094   6.796  11.590  13.330
 4533ETHO   H1335095   6.748  11.762  13.342
 4533ETHO    C235096   6.591  11.617  13.407
 4533ETHO   H2135097   6.631  11.616  13.511
 4533ETHO   H2335098   6.567  11.514  13.374
 4534ETHO    O135099   6.485  11.710  13.399
 4534ETHO    C135100   6.375  11.681  13.484
 4534ETHO   H1135101   6.390  11.719  13.587
 4534ETHO   H1335102   6.351  11.573  13.475
 4534ETHO    C235103   6.253  11.760  13.429
 4534ETHO   H2135104   6.235  11.724  13.326
 4534ETHO   H2335105   6.284  11.866  13.424
 4535ETHO    O135106   6.145  11.752  13.524
 4535ETHO    C135107   6.040  11.840  13.489
 4535ETHO   H1135108   6.080  11.942  13.476
 4535ETHO   H1335109   6.010  11.818  13.384
 4535ETHO    C235110   5.921  11.848  13.594
 4535ETHO   H2135111   5.847  11.924  13.559
 4535ETHO   H2335112   5.960  11.880  13.693
 4536ETHO    O135113   5.860  11.726  13.613
 4536ETHO    C135114   5.773  11.705  13.721
 4536ETHO   H1135115   5.728  11.604  13.721
 4536ETHO   H1335116   5.826  11.725  13.816
 4536ETHO    C235117   5.652  11.801  13.708
 4536ETHO   H2135118   5.562  11.750  13.749
 4536ETHO   H2335119   5.640  11.811  13.599
 4537ETHO    O135120   5.674  11.920  13.787
 4537ETHO    C135121   5.592  12.030  13.741
 4537ETHO   H1135122   5.601  12.036  13.630
 4537ETHO   H1335123   5.491  12.014  13.784
 4537ETHO    C235124   5.637  12.174  13.784
 4537ETHO   H2135125   5.571  12.254  13.744
 4537ETHO   H2335126   5.738  12.194  13.742
 4538ETHO    O135127   5.636  12.177  13.926
 4538ETHO    C135128   5.675  12.305  13.980
 4538ETHO   H1135129   5.786  12.307  13.993
 4538ETHO   H1335130   5.649  12.386  13.909
 4538ETHO    C235131   5.616  12.315  14.120
 4538ETHO   H2135132   5.645  12.413  14.162
 4538ETHO   H2335133   5.647  12.235  14.190
 4539ETHO    O135134   5.472  12.313  14.122
 4539ETHO    C135135   5.423  12.335  14.255
 4539ETHO   H1135136   5.448  12.443  14.267
 4539ETHO   H1335137   5.463  12.269  14.334
 4539ETHO    C235138   5.267  12.326  14.250
 4539ETHO   H2135139   5.243  12.339  14.143
 4539ETHO   H2335140   5.224  12.403  14.318
 4540ETHO    O135141   5.224  12.196  14.305
 4540ETHO    C135142   5.121  12.146  14.221
 4540ETHO   H1135143   5.145  12.166  14.114
 4540ETHO   H1335144   5.107  12.036  14.234
 4540ETHO    C235145   4.983  12.213  14.257
 4540ETHO   H2135146   4.959  12.201  14.365
 4540ETHO   H2335147   4.908  12.154  14.200
 4541ETHO    O135148   4.977  12.344  14.194
 4541ETHO    C135149   4.903  12.432  14.279
 4541ETHO   H1135150   4.967  12.456  14.366
 4541ETHO   H1335151   4.807  12.386  14.311
 4541ETHO    C235152   4.867  12.554  14.199
 4541ETHO   H2135153   4.791  12.608  14.260
 4541ETHO   H2335154   4.826  12.537  14.097
 4542ETHO    O135155   4.982  12.644  14.188
 4542ETHO    C135156   4.936  12.763  14.125
 4542ETHO   H1135157   4.852  12.805  14.183
 4542ETHO   H1335158   5.019  12.836  14.119
 4542ETHO    C235159   4.889  12.751  13.978
 4542ETHO   H2135160   4.944  12.679  13.913
 4542ETHO   H2335161   4.904  12.852  13.936
 4543ETHO    O135162   4.751  12.734  13.960
 4543ETHO    C135163   4.713  12.732  13.821
 4543ETHO   H1135164   4.756  12.638  13.779
 4543ETHO   H1335165   4.755  12.806  13.750
 4543ETHO    C235166   4.562  12.713  13.797
 4543ETHO   H2135167   4.529  12.621  13.851
 4543ETHO   H2335168   4.535  12.680  13.695
 4544ETHO    O135169   4.474  12.821  13.832
 4544ETHO    C135170   4.342  12.778  13.806
 4544ETHO   H1135171   4.329  12.792  13.696
 4544ETHO   H1335172   4.334  12.668  13.820
 4544ETHO    C235173   4.223  12.851  13.872
 4544ETHO   H2135174   4.121  12.815  13.845
 4544ETHO   H2335175   4.237  12.953  13.830
 4545ETHO    O135176   4.219  12.860  14.017
 4545ETHO    C135177   4.150  12.742  14.065
 4545ETHO   H1135178   4.162  12.661  13.991
 4545ETHO   H1335179   4.043  12.769  14.051
 4545ETHO    C235180   4.191  12.695  14.213
 4545ETHO   H2135181   4.151  12.772  14.283
 4545ETHO   H2335182   4.300  12.676  14.218
 4546ETHO    O135183   4.123  12.578  14.253
 4546ETHO    C135184   3.988  12.600  14.282
 4546ETHO   H1135185   3.963  12.686  14.348
 4546ETHO   H1335186   3.931  12.603  14.187
 4546ETHO    C235187   3.933  12.467  14.351
 4546ETHO   H2135188   3.824  12.470  14.371
 4546ETHO   H2335189   3.989  12.445  14.445
 4547ETHO    O135190   3.957  12.358  14.256
 4547ETHO    C135191   3.949  12.227  14.307
 4547ETHO   H1135192   3.855  12.220  14.367
 4547ETHO   H1335193   3.929  12.153  14.227
 4547ETHO    C235194   4.068  12.176  14.392
 4547ETHO   H2135195   4.028  12.090  14.450
 4547ETHO   H2335196   4.106  12.263  14.451
 4548ETHO    O135197   4.169  12.132  14.296
 4548ETHO    C135198   4.227  12.008  14.336
 4548ETHO   H1135199   4.274  12.024  14.435
 4548ETHO   H1335200   4.147  11.932  14.352
 4548ETHO    C235201   4.328  11.956  14.240
 4548ETHO   H2135202   4.415  11.907  14.289
 4548ETHO   H2335203   4.375  12.045  14.191
 4549ETHO    O135204   4.258  11.885  14.135
 4549ETHO    C135205   4.353  11.817  14.054
 4549ETHO   H1135206   4.307  11.810  13.953
 4549ETHO   H1335207   4.449  11.871  14.038
 4549ETHO    C235208   4.394  11.677  14.106
 4549ETHO   H2135209   4.440  11.688  14.206
 4549ETHO   H2335210   4.464  11.634  14.030
 4550ETHO    O135211   4.277  11.599  14.109
 4550ETHO    C135212   4.304  11.462  14.134
 4550ETHO   H1135213   4.218  11.418  14.187
 4550ETHO   H1335214   4.391  11.454  14.203
 4550ETHO    C235215   4.312  11.382  14.003
 4550ETHO   H2135216   4.365  11.290  14.034
 4550ETHO   H2335217   4.375  11.436  13.928
 4551ETHO    O135218   4.186  11.347  13.945
 4551ETHO    C135219   4.192  11.241  13.851
 4551ETHO   H1135220   4.265  11.272  13.773
 4551ETHO   H1335221   4.244  11.156  13.901
 4551ETHO    C235222   4.054  11.216  13.791
 4551ETHO   H2135223   3.981  11.211  13.874
 4551ETHO   H2335224   4.050  11.118  13.741
 4552ETHO    O135225   4.008  11.318  13.707
 4552ETHO    C135226   3.869  11.311  13.692
 4552ETHO   H1135227   3.813  11.308  13.788
 4552ETHO   H1335228   3.856  11.211  13.644
 4552ETHO    C235229   3.816  11.413  13.600
 4552ETHO   H2135230   3.710  11.388  13.578
 4552ETHO   H2335231   3.877  11.406  13.507
 4553ETHO    O135232   3.830  11.545  13.660
 4553ETHO    C135233   3.778  11.642  13.567
 4553ETHO   H1135234   3.791  11.614  13.461
 4553ETHO   H1335235   3.667  11.633  13.565
 4553ETHO    C235236   3.827  11.786  13.589
 4553ETHO   H2135237   3.772  11.857  13.523
 4553ETHO   H2335238   3.793  11.817  13.690
 4554ETHO    O135239   3.967  11.799  13.568
 4554ETHO    C135240   4.018  11.774  13.438
 4554ETHO   H1135241   3.970  11.840  13.363
 4554ETHO   H1335242   4.006  11.671  13.397
 4554ETHO    C235243   4.171  11.777  13.432
 4554ETHO   H2135244   4.193  11.756  13.325
 4554ETHO   H2335245   4.225  11.704  13.496
 4555ETHO    O135246   4.214  11.911  13.461
 4555ETHO    C135247   4.235  11.933  13.597
 4555ETHO   H1135248   4.143  11.951  13.656
 4555ETHO   H1335249   4.292  11.855  13.652
 4555ETHO    C235250   4.326  12.052  13.613
 4555ETHO   H2135251   4.314  12.105  13.711
 4555ETHO   H2335252   4.296  12.124  13.535
 4556ETHO    O135253   4.454  12.003  13.608
 4556ETHO    C135254   4.551  12.103  13.647
 4556ETHO   H1135255   4.529  12.125  13.754
 4556ETHO   H1335256   4.524  12.191  13.585
 4556ETHO    C235257   4.696  12.073  13.622
 4556ETHO   H2135258   4.718  11.978  13.674
 4556ETHO   H2335259   4.760  12.156  13.658
 4557ETHO    O135260   4.736  12.063  13.488
 4557ETHO    C135261   4.876  12.041  13.474
 4557ETHO   H1135262   4.910  12.137  13.430
 4557ETHO   H1335263   4.932  12.004  13.562
 4557ETHO    C235264   4.908  11.931  13.362
 4557ETHO   H2135265   4.826  11.857  13.370
 4557ETHO   H2335266   5.006  11.887  13.391
 4558ETHO    O135267   4.926  11.980  13.228
 4558ETHO    C135268   4.934  11.871  13.139
 4558ETHO   H1135269   4.993  11.786  13.180
 4558ETHO   H1335270   4.830  11.839  13.114
 4558ETHO    C235271   5.000  11.910  13.003
 4558ETHO   H2135272   4.939  11.992  12.961
 4558ETHO   H2335273   4.996  11.830  12.927
 4559ETHO    O135274   5.136  11.938  13.022
 4559ETHO    C135275   5.190  11.981  12.899
 4559ETHO   H1135276   5.202  11.894  12.830
 4559ETHO   H1335277   5.127  12.058  12.849
 4559ETHO    C235278   5.330  12.045  12.923
 4559ETHO   H2135279   5.330  12.144  12.975
 4559ETHO   H2335280   5.354  12.082  12.821
 4560ETHO    O135281   5.433  11.976  12.996
 4560ETHO    C135282   5.503  11.885  12.907
 4560ETHO   H1135283   5.438  11.800  12.875
 4560ETHO   H1335284   5.535  11.938  12.815
 4560ETHO    C235285   5.634  11.830  12.968
 4560ETHO   H2135286   5.617  11.781  13.066
 4560ETHO   H2335287   5.673  11.766  12.885
 4561ETHO    O135288   5.715  11.948  12.980
 4561ETHO    C135289   5.848  11.908  13.004
 4561ETHO   H1135290   5.872  11.821  12.939
 4561ETHO   H1335291   5.854  11.863  13.105
 4561ETHO    C235292   5.950  12.017  12.975
 4561ETHO   H2135293   5.939  12.050  12.869
 4561ETHO   H2335294   6.052  11.977  12.989
 4562ETHO    O135295   5.931  12.124  13.068
 4562ETHO    C135296   6.014  12.230  13.024
 4562ETHO   H1135297   6.119  12.230  13.060
 4562ETHO   H1335298   6.007  12.250  12.915
 4562ETHO    C235299   5.962  12.357  13.091
 4562ETHO   H2135300   6.037  12.439  13.085
 4562ETHO   H2335301   5.939  12.341  13.199
 4563ETHO    O135302   5.844  12.399  13.029
 4563ETHO    C135303   5.726  12.384  13.108
 4563ETHO   H1135304   5.736  12.436  13.206
 4563ETHO   H1335305   5.712  12.275  13.128
 4563ETHO    C235306   5.600  12.444  13.039
 4563ETHO   H2135307   5.518  12.384  13.084
 4563ETHO   H2335308   5.606  12.421  12.930
 4564ETHO    O135309   5.581  12.585  13.065
 4564ETHO    C135310   5.449  12.621  13.030
 4564ETHO   H1135311   5.432  12.730  13.013
 4564ETHO   H1335312   5.426  12.572  12.933
 4564ETHO    C235313   5.338  12.577  13.130
 4564ETHO   H2135314   5.375  12.494  13.194
 4564ETHO   H2335315   5.247  12.551  13.071
 4565ETHO    O135316   5.304  12.690  13.213
 4565ETHO    C135317   5.185  12.669  13.292
 4565ETHO   H1135318   5.178  12.567  13.335
 4565ETHO   H1335319   5.110  12.671  13.210
 4565ETHO    C235320   5.164  12.764  13.421
 4565ETHO   H2135321   5.061  12.746  13.460
 4565ETHO   H2335322   5.177  12.866  13.380
 4566ETHO    O135323   5.253  12.752  13.530
 4566ETHO    C135324   5.386  12.786  13.502
 4566ETHO   H1135325   5.415  12.729  13.411
 4566ETHO   H1335326   5.386  12.892  13.468
 4566ETHO    C235327   5.492  12.780  13.611
 4566ETHO   H2135328   5.459  12.813  13.711
 4566ETHO   H2335329   5.578  12.844  13.582
 4567ETHO    O135330   5.544  12.644  13.629
 4567ETHO    C135331   5.442  12.557  13.684
 4567ETHO   H1135332   5.364  12.617  13.735
 4567ETHO   H1335333   5.491  12.493  13.761
 4567ETHO    C235334   5.387  12.460  13.572
 4567ETHO   H2135335   5.362  12.502  13.472
 4567ETHO   H2335336   5.290  12.416  13.602
 4568ETHO    O135337   5.483  12.361  13.531
 4568ETHO    C135338   5.429  12.234  13.481
 4568ETHO   H1135339   5.520  12.170  13.476
 4568ETHO   H1335340   5.355  12.198  13.555
 4568ETHO    C235341   5.371  12.232  13.340
 4568ETHO   H2135342   5.360  12.124  13.314
 4568ETHO   H2335343   5.446  12.266  13.266
 4569ETHO    O135344   5.243  12.295  13.328
 4569ETHO    C135345   5.175  12.253  13.201
 4569ETHO   H1135346   5.171  12.142  13.199
 4569ETHO   H1335347   5.229  12.298  13.115
 4569ETHO    C235348   5.028  12.307  13.202
 4569ETHO   H2135349   4.988  12.309  13.306
 4569ETHO   H2335350   4.972  12.227  13.149
 4570ETHO    O135351   5.030  12.428  13.127
 4570ETHO    C135352   4.909  12.509  13.124
 4570ETHO   H1135353   4.900  12.568  13.217
 4570ETHO   H1335354   4.932  12.581  13.043
 4570ETHO    C235355   4.785  12.433  13.088
 4570ETHO   H2135356   4.693  12.494  13.084
 4570ETHO   H2335357   4.754  12.361  13.166
 4571ETHO    O135358   4.807  12.374  12.958
 4571ETHO    C135359   4.697  12.301  12.908
 4571ETHO   H1135360   4.714  12.276  12.801
 4571ETHO   H1335361   4.606  12.366  12.910
 4571ETHO    C235362   4.680  12.180  12.994
 4571ETHO   H2135363   4.780  12.147  13.030
 4571ETHO   H2335364   4.638  12.109  12.920
 4572ETHO    O135365   4.593  12.214  13.104
 4572ETHO    C135366   4.540  12.092  13.164
 4572ETHO   H1135367   4.493  12.024  13.090
 4572ETHO   H1335368   4.625  12.034  13.204
 4572ETHO    C235369   4.439  12.106  13.275
 4572ETHO   H2135370   4.481  12.172  13.354
 4572ETHO   H2335371   4.420  12.002  13.310
 4573ETHO    O135372   4.314  12.150  13.230
 4573ETHO    C135373   4.307  12.290  13.214
 4573ETHO   H1135374   4.369  12.339  13.293
 4573ETHO   H1335375   4.354  12.319  13.118
 4573ETHO    C235376   4.163  12.344  13.193
 4573ETHO   H2135377   4.117  12.283  13.113
 4573ETHO   H2335378   4.169  12.453  13.173
 4574ETHO    O135379   4.084  12.337  13.313
 4574ETHO    C135380   4.025  12.213  13.329
 4574ETHO   H1135381   3.956  12.197  13.243
 4574ETHO   H1335382   4.094  12.129  13.350
 4574ETHO    C235383   3.931  12.197  13.445
 4574ETHO   H2135384   3.899  12.092  13.461
 4574ETHO   H2335385   3.839  12.259  13.433
 4575ETHO    O135386   3.979  12.245  13.571
 4575ETHO    C135387   3.918  12.180  13.679
 4575ETHO   H1135388   3.809  12.196  13.664
 4575ETHO   H1335389   3.932  12.070  13.685
 4575ETHO    C235390   3.944  12.236  13.819
 4575ETHO   H2135391   3.890  12.168  13.889
 4575ETHO   H2335392   3.897  12.336  13.825
 4576ETHO    O135393   4.078  12.228  13.863
 4576ETHO    C135394   4.098  12.286  13.989
 4576ETHO   H1135395   4.032  12.231  14.059
 4576ETHO   H1335396   4.067  12.392  13.985
 4576ETHO    C235397   4.237  12.284  14.046
 4576ETHO   H2135398   4.271  12.182  14.072
 4576ETHO   H2335399   4.210  12.336  14.140
 4577ETHO    O135400   4.338  12.364  13.984
 4577ETHO    C135401   4.441  12.388  14.075
 4577ETHO   H1135402   4.475  12.491  14.053
 4577ETHO   H1335403   4.406  12.392  14.181
 4577ETHO    C235404   4.559  12.285  14.053
 4577ETHO   H2135405   4.524  12.191  14.007
 4577ETHO   H2335406   4.592  12.249  14.153
 4578ETHO    O135407   4.660  12.348  13.980
 4578ETHO    C135408   4.760  12.256  13.947
 4578ETHO   H1135409   4.715  12.199  13.864
 4578ETHO   H1335410   4.786  12.185  14.029
 4578ETHO    C235411   4.882  12.329  13.899
 4578ETHO   H2135412   4.967  12.257  13.906
 4578ETHO   H2335413   4.911  12.420  13.956
 4579ETHO    O135414   4.878  12.374  13.766
 4579ETHO    C135415   5.000  12.430  13.713
 4579ETHO   H1135416   5.030  12.522  13.768
 4579ETHO   H1335417   5.081  12.354  13.715
 4579ETHO    C235418   4.992  12.468  13.567
 4579ETHO   H2135419   4.959  12.373  13.519
 4579ETHO   H2335420   5.094  12.488  13.528
 4580ETHO    O135421   4.896  12.564  13.519
 4580ETHO    C135422   4.764  12.504  13.493
 4580ETHO   H1135423   4.737  12.441  13.580
 4580ETHO   H1335424   4.765  12.424  13.416
 4580ETHO    C235425   4.653  12.600  13.461
 4580ETHO   H2135426   4.672  12.697  13.511
 4580ETHO   H2335427   4.554  12.564  13.496
 4581ETHO    O135428   4.664  12.622  13.316
 4581ETHO    C135429   4.546  12.682  13.262
 4581ETHO   H1135430   4.461  12.611  13.265
 4581ETHO   H1335431   4.522  12.753  13.344
 4581ETHO    C235432   4.581  12.763  13.136
 4581ETHO   H2135433   4.688  12.793  13.137
 4581ETHO   H2335434   4.528  12.861  13.131
 4582ETHO    O135435   4.566  12.693  13.016
 4582ETHO    C135436   4.552  12.780  12.907
 4582ETHO   H1135437   4.658  12.795  12.876
 4582ETHO   H1335438   4.511  12.879  12.934
 4582ETHO    C235439   4.474  12.705  12.805
 4582ETHO   H2135440   4.504  12.598  12.795
 4582ETHO   H2335441   4.505  12.752  12.710
 4583ETHO    O135442   4.328  12.715  12.822
 4583ETHO    C135443   4.277  12.666  12.944
 4583ETHO   H1135444   4.319  12.564  12.950
 4583ETHO   H1335445   4.309  12.732  13.028
 4583ETHO    C235446   4.122  12.648  12.946
 4583ETHO   H2135447   4.099  12.560  13.008
 4583ETHO   H2335448   4.080  12.644  12.843
 4584ETHO    O135449   4.053  12.756  13.014
 4584ETHO    C135450   3.911  12.733  13.017
 4584ETHO   H1135451   3.868  12.706  12.918
 4584ETHO   H1335452   3.892  12.645  13.081
 4584ETHO    C235453   3.842  12.849  13.072
 4584ETHO   H2135454   3.733  12.826  13.073
 4584ETHO   H2335455   3.865  12.941  13.013
 4585ETHO    O135456   3.873  12.866  13.212
 4585ETHO    C135457   3.802  12.972  13.252
 4585ETHO   H1135458   3.852  13.058  13.202
 4585ETHO   H1335459   3.693  12.960  13.238
 4585ETHO    C235460   3.821  12.995  13.409
 4585ETHO   H2135461   3.795  12.898  13.456
 4585ETHO   H2335462   3.745  13.072  13.434
 4586ETHO    O135463   3.943  13.056  13.429
 4586ETHO    C135464   4.042  12.959  13.444
 4586ETHO   H1135465   4.022  12.894  13.533
 4586ETHO   H1335466   4.039  12.889  13.358
 4586ETHO    C235467   4.188  13.014  13.472
 4586ETHO   H2135468   4.193  13.056  13.574
 4586ETHO   H2335469   4.250  12.922  13.481
 4587ETHO    O135470   4.223  13.099  13.363
 4587ETHO    C135471   4.364  13.130  13.356
 4587ETHO   H1135472   4.424  13.049  13.309
 4587ETHO   H1335473   4.386  13.145  13.464
 4587ETHO    C235474   4.396  13.256  13.281
 4587ETHO   H2135475   4.473  13.315  13.334
 4587ETHO   H2335476   4.302  13.316  13.276
 4588ETHO    O135477   4.436  13.230  13.148
 4588ETHO    C135478   4.566  13.169  13.124
 4588ETHO   H1135479   4.639  13.233  13.178
 4588ETHO   H1335480   4.565  13.073  13.179
 4588ETHO    C235481   4.609  13.169  12.978
 4588ETHO   H2135482   4.612  13.271  12.935
 4588ETHO   H2335483   4.527  13.114  12.928
 4589ETHO    O135484   4.743  13.120  12.950
 4589ETHO    C135485   4.753  13.100  12.809
 4589ETHO   H1135486   4.735  13.196  12.756
 4589ETHO   H1335487   4.684  13.022  12.770
 4589ETHO    C235488   4.893  13.041  12.776
 4589ETHO   H2135489   4.966  13.102  12.833
 4589ETHO   H2335490   4.904  13.043  12.666
 4590ETHO    O135491   4.905  12.905  12.822
 4590ETHO    C135492   5.019  12.831  12.775
 4590ETHO   H1135493   5.078  12.881  12.695
 4590ETHO   H1335494   5.083  12.808  12.863
 4590ETHO    C235495   4.970  12.686  12.738
 4590ETHO   H2135496   4.902  12.650  12.818
 4590ETHO   H2335497   5.049  12.608  12.728
 4591ETHO    O135498   4.880  12.698  12.625
 4591ETHO    C135499   4.828  12.573  12.589
 4591ETHO   H1135500   4.718  12.577  12.603
 4591ETHO   H1335501   4.874  12.494  12.651
 4591ETHO    C235502   4.863  12.553  12.440
 4591ETHO   H2135503   4.835  12.644  12.385
 4591ETHO   H2335504   4.810  12.470  12.388
 4592ETHO    O135505   4.995  12.534  12.414
 4592ETHO    C135506   5.030  12.502  12.281
 4592ETHO   H1135507   5.002  12.395  12.265
 4592ETHO   H1335508   4.962  12.557  12.213
 4592ETHO    C235509   5.175  12.518  12.227
 4592ETHO   H2135510   5.200  12.619  12.266
 4592ETHO   H2335511   5.192  12.518  12.117
 4593ETHO    O135512   5.251  12.411  12.282
 4593ETHO    C135513   5.382  12.412  12.222
 4593ETHO   H1135514   5.417  12.516  12.206
 4593ETHO   H1335515   5.359  12.360  12.126
 4593ETHO    C235516   5.482  12.318  12.296
 4593ETHO   H2135517   5.585  12.332  12.257
 4593ETHO   H2335518   5.448  12.213  12.287
 4594ETHO    O135519   5.479  12.347  12.436
 4594ETHO    C135520   5.525  12.235  12.511
 4594ETHO   H1135521   5.446  12.177  12.564
 4594ETHO   H1335522   5.584  12.164  12.449
 4594ETHO    C235523   5.611  12.288  12.631
 4594ETHO   H2135524   5.591  12.229  12.723
 4594ETHO   H2335525   5.589  12.396  12.647
 4595ETHO    O135526   5.752  12.266  12.612
 4595ETHO    C135527   5.833  12.325  12.713
 4595ETHO   H1135528   5.815  12.433  12.729
 4595ETHO   H1335529   5.818  12.274  12.811
 4595ETHO    C235530   5.979  12.315  12.661
 4595ETHO   H2135531   6.041  12.388  12.718
 4595ETHO   H2335532   5.973  12.340  12.553
 4596ETHO    O135533   6.032  12.180  12.678
 4596ETHO    C135534   6.168  12.173  12.652
 4596ETHO   H1135535   6.179  12.191  12.543
 4596ETHO   H1335536   6.224  12.257  12.699
 4596ETHO    C235537   6.223  12.037  12.689
 4596ETHO   H2135538   6.311  12.000  12.632
 4596ETHO   H2335539   6.152  11.953  12.679
 4597ETHO    O135540   6.259  12.028  12.827
 4597ETHO    C135541   6.282  11.889  12.870
 4597ETHO   H1135542   6.195  11.820  12.858
 4597ETHO   H1335543   6.370  11.854  12.813
 4597ETHO    C235544   6.334  11.884  13.010
 4597ETHO   H2135545   6.355  11.781  13.045
 4597ETHO   H2335546   6.265  11.928  13.086
 4598ETHO    O135547   6.441  11.974  13.022
 4598ETHO    C135548   6.518  11.961  13.138
 4598ETHO   H1135549   6.557  11.858  13.148
 4598ETHO   H1335550   6.455  12.000  13.221
 4598ETHO    C235551   6.643  12.053  13.125
 4598ETHO   H2135552   6.688  12.064  13.227
 4598ETHO   H2335553   6.601  12.147  13.084
 4599ETHO    O135554   6.727  11.998  13.032
 4599ETHO    C135555   6.853  12.070  13.026
 4599ETHO   H1135556   6.850  12.140  12.941
 4599ETHO   H1335557   6.849  12.136  13.115
 4599ETHO    C235558   6.984  11.996  13.048
 4599ETHO   H2135559   6.974  11.950  13.149
 4599ETHO   H2335560   7.063  12.074  13.050
 4600ETHO    O135561   7.010  11.900  12.941
 4600ETHO    C135562   6.997  11.956  12.814
 4600ETHO   H1135563   7.029  12.062  12.822
 4600ETHO   H1335564   6.891  11.957  12.782
 4600ETHO    C235565   7.090  11.870  12.726
 4600ETHO   H2135566   7.065  11.912  12.627
 4600ETHO   H2335567   7.046  11.769  12.738
 4601ETHO    O135568   7.231  11.870  12.753
 4601ETHO    C135569   7.298  11.783  12.659
 4601ETHO   H1135570   7.243  11.686  12.660
 4601ETHO   H1335571   7.283  11.831  12.560
 4601ETHO    C235572   7.448  11.757  12.679
 4601ETHO   H2135573   7.502  11.855  12.675
 4601ETHO   H2335574   7.489  11.700  12.593
 4602ETHO    O135575   7.477  11.676  12.791
 4602ETHO    C135576   7.617  11.649  12.811
 4602ETHO   H1135577   7.666  11.658  12.712
 4602ETHO   H1335578   7.613  11.547  12.853
 4602ETHO    C235579   7.670  11.747  12.914
 4602ETHO   H2135580   7.618  11.728  13.011
 4602ETHO   H2335581   7.646  11.854  12.892
 4603ETHO    O135582   7.812  11.738  12.928
 4603ETHO    C135583   7.865  11.819  13.030
 4603ETHO   H1135584   7.829  11.924  13.034
 4603ETHO   H1335585   7.851  11.760  13.123
 4603ETHO    C235586   8.016  11.841  13.020
 4603ETHO   H2135587   8.054  11.741  12.990
 4603ETHO   H2335588   8.049  11.874  13.121
 4604ETHO    O135589   8.051  11.934  12.917
 4604ETHO    C135590   8.192  11.926  12.879
 4604ETHO   H1135591   8.210  11.824  12.840
 4604ETHO   H1335592   8.252  11.941  12.972
 4604ETHO    C235593   8.229  12.036  12.784
 4604ETHO   H2135594   8.237  12.136  12.832
 4604ETHO   H2335595   8.162  12.040  12.695
 4605ETHO    O135596   8.366  12.012  12.742
 4605ETHO    C135597   8.447  12.125  12.742
 4605ETHO   H1135598   8.388  12.219  12.736
 4605ETHO   H1335599   8.499  12.138  12.839
 4605ETHO    C235600   8.568  12.118  12.642
 4605ETHO   H2135601   8.622  12.215  12.638
 4605ETHO   H2335602   8.512  12.106  12.546
 4606PROX    O135603   8.671  12.020  12.660
 4606PROX    C135604   8.757  12.022  12.547
 4606PROX   H1135605   8.684  12.022  12.464
 4606PROX   H1335606   8.821  12.113  12.545
 4606PROX    C235607   8.840  11.896  12.552
 4606PROX   H2135608   8.776  11.806  12.563
 4606PROX    C335609   8.933  11.913  12.669
 4606PROX   H3135610   8.876  11.929  12.763
 4606PROX   H3235611   9.001  11.827  12.687
 4606PROX   H3335612   9.000  11.999  12.647
 4607PROX    O135613   8.914  11.877  12.434
 4607PROX    C135614   8.838  11.806  12.334
 4607PROX   H1135615   8.847  11.697  12.352
 4607PROX   H1335616   8.734  11.843  12.334
 4607PROX    C235617   8.890  11.844  12.195
 4607PROX   H2135618   8.938  11.943  12.209
 4607PROX    C335619   8.789  11.852  12.079
 4607PROX   H3135620   8.845  11.880  11.987
 4607PROX   H3235621   8.734  11.759  12.056
 4607PROX   H3335622   8.713  11.927  12.110
 4608PROX    O135623   8.996  11.750  12.161
 4608PROX    C135624   9.109  11.757  12.240
 4608PROX   H1135625   9.138  11.865  12.234
 4608PROX   H1335626   9.090  11.736  12.347
 4608PROX    C235627   9.218  11.658  12.195
 4608PROX   H2135628   9.195  11.605  12.100
 4608PROX    C335629   9.225  11.549  12.305
 4608PROX   H3135630   9.133  11.503  12.345
 4608PROX   H3235631   9.288  11.462  12.277
 4608PROX   H3335632   9.271  11.600  12.392
 4609PROX    O135633   9.344  11.726  12.187
 4609PROX    C135634   9.361  11.774  12.051
 4609PROX   H1135635   9.401  11.686  11.997
 4609PROX   H1335636   9.264  11.792  12.001
 4609PROX    C235637   9.453  11.899  12.040
 4609PROX   H2135638   9.545  11.875  12.097
 4609PROX    C335639   9.393  12.016  12.110
 4609PROX   H3135640   9.453  12.105  12.082
 4609PROX   H3235641   9.290  12.033  12.071
 4609PROX   H3335642   9.382  12.009  12.220
 4610PROX    O135643   9.484  11.920  11.899
 4610PROX    C135644   9.381  11.971  11.813
 4610PROX   H1135645   9.276  11.942  11.835
 4610PROX   H1335646   9.396  12.080  11.828
 4610PROX    C235647   9.409  11.917  11.671
 4610PROX   H2135648   9.429  11.808  11.677
 4610PROX    C335649   9.539  11.976  11.613
 4610PROX   H3135650   9.595  11.897  11.558
 4610PROX   H3235651   9.510  12.052  11.537
 4610PROX   H3335652   9.610  12.019  11.688
 4611PROX    O135653   9.293  11.932  11.585
 4611PROX    C135654   9.178  11.850  11.625
 4611PROX   H1135655   9.209  11.749  11.660
 4611PROX   H1335656   9.116  11.893  11.707
 4611PROX    C235657   9.082  11.836  11.501
 4611PROX   H2135658   8.987  11.801  11.547
 4611PROX    C335659   9.136  11.740  11.399
 4611PROX   H3135660   9.069  11.744  11.310
 4611PROX   H3235661   9.241  11.760  11.370
 4611PROX   H3335662   9.130  11.634  11.432
 4612PROX    O135663   9.057  11.969  11.447
 4612PROX    C135664   8.921  12.002  11.426
 4612PROX   H1135665   8.921  12.104  11.380
 4612PROX   H1335666   8.875  11.931  11.355
 4612PROX    C235667   8.847  12.023  11.559
 4612PROX   H2135668   8.857  11.935  11.626
 4612PROX    C335669   8.694  12.045  11.540
 4612PROX   H3135670   8.673  12.140  11.487
 4612PROX   H3235671   8.644  11.974  11.471
 4612PROX   H3335672   8.644  12.036  11.639
 4613PROX    O135673   8.910  12.141  11.617
 4613PROX    C135674   8.886  12.154  11.755
 4613PROX   H1135675   8.786  12.203  11.763
 4613PROX   H1335676   8.887  12.050  11.794
 4613PROX    C235677   8.985  12.245  11.818
 4613PROX   H2135678   8.987  12.349  11.779
 4613PROX    C335679   9.121  12.183  11.797
 4613PROX   H3135680   9.154  12.164  11.692
 4613PROX   H3235681   9.201  12.242  11.848
 4613PROX   H3335682   9.125  12.083  11.845
 4614PROX    O135683   8.967  12.249  11.960
 4614PROX    C135684   8.855  12.313  12.000
 4614PROX   H1135685   8.861  12.409  11.944
 4614PROX   H1335686   8.759  12.262  11.976
 4614PROX    C235687   8.843  12.336  12.153
 4614PROX   H2135688   8.934  12.393  12.182
 4614PROX    C335689   8.836  12.210  12.242
 4614PROX   H3135690   8.823  12.240  12.348
 4614PROX   H3235691   8.759  12.136  12.212
 4614PROX   H3335692   8.936  12.161  12.234
 4615PROX    O135693   8.726  12.413  12.190
 4615PROX    C135694   8.758  12.548  12.220
 4615PROX   H1135695   8.829  12.589  12.145
 4615PROX   H1335696   8.665  12.604  12.194
 4615PROX    C235697   8.798  12.577  12.359
 4615PROX   H2135698   8.853  12.496  12.410
 4615PROX    C335699   8.692  12.627  12.449
 4615PROX   H3135700   8.642  12.542  12.500
 4615PROX   H3235701   8.734  12.681  12.536
 4615PROX   H3335702   8.618  12.688  12.393
 4616PROX    O135703   8.884  12.690  12.344
 4616PROX    C135704   9.019  12.653  12.357
 4616PROX   H1135705   9.041  12.660  12.466
 4616PROX   H1335706   9.040  12.551  12.320
 4616PROX    C235707   9.118  12.754  12.294
 4616PROX   H2135708   9.089  12.854  12.331
 4616PROX    C335709   9.096  12.750  12.142
 4616PROX   H3135710   8.988  12.769  12.124
 4616PROX   H3235711   9.135  12.843  12.096
 4616PROX   H3335712   9.139  12.655  12.104
 4617PROX    O135713   9.251  12.724  12.330
 4617PROX    C135714   9.349  12.813  12.270
 4617PROX   H1135715   9.353  12.787  12.162
 4617PROX   H1335716   9.310  12.916  12.281
 4617PROX    C235717   9.489  12.795  12.327
 4617PROX   H2135718   9.508  12.686  12.320
 4617PROX    C335719   9.501  12.830  12.478
 4617PROX   H3135720   9.473  12.935  12.500
 4617PROX   H3235721   9.423  12.774  12.533
 4617PROX   H3335722   9.604  12.813  12.517
 4618PROX    O135723   9.582  12.864  12.250
 4618PROX    C135724   9.710  12.800  12.257
 4618PROX   H1135725   9.760  12.813  12.355
 4618PROX   H1335726   9.700  12.690  12.243
 4618PROX    C235727   9.803  12.864  12.151
 4618PROX   H2135728   9.817  12.972  12.174
 4618PROX    C335729   9.737  12.853  12.005
 4618PROX   H3135730   9.631  12.888  12.011
 4618PROX   H3235731   9.780  12.925  11.931
 4618PROX   H3335732   9.735  12.747  11.972
 4619PROX    O135733   9.932  12.794  12.159
 4619PROX    C135734  10.035  12.848  12.076
 4619PROX   H1135735  10.026  12.801  11.976
 4619PROX   H1335736  10.021  12.957  12.061
 4619PROX    C235737  10.175  12.818  12.138
 4619PROX   H2135738  10.200  12.710  12.152
 4619PROX    C335739  10.205  12.892  12.266
 4619PROX   H3135740  10.221  13.002  12.256
 4619PROX   H3235741  10.127  12.871  12.342
 4619PROX   H3335742  10.296  12.853  12.316
 4620PROX    O135743  10.277  12.868  12.053
 4620PROX    C135744  10.293  12.797  11.928
 4620PROX   H1135745  10.333  12.696  11.953
 4620PROX   H1335746  10.201  12.789  11.866
 4620PROX    C235747  10.396  12.872  11.844
 4620PROX   H2135748  10.480  12.910  11.906
 4620PROX    C335749  10.325  12.987  11.774
 4620PROX   H3135750  10.229  12.960  11.725
 4620PROX   H3235751  10.311  13.049  11.866
 4620PROX   H3335752  10.384  13.043  11.698
 4621PROX    O135753  10.452  12.779  11.745
 4621PROX    C135754  10.593  12.809  11.702
 4621PROX   H1135755  10.600  12.916  11.673
 4621PROX   H1335756  10.666  12.789  11.784
 4621PROX    C235757  10.630  12.721  11.585
 4621PROX   H2135758  10.595  12.623  11.624
 4621PROX    C335759  10.776  12.725  11.540
 4621PROX   H3135760  10.793  12.626  11.493
 4621PROX   H3235761  10.798  12.813  11.476
 4621PROX   H3335762  10.839  12.742  11.630
 4622PROX    O135763  10.538  12.757  11.477
 4622PROX    C135764  10.506  12.645  11.397
 4622PROX   H1135765  10.573  12.646  11.309
 4622PROX   H1335766  10.521  12.543  11.439
 4622PROX    C235767  10.367  12.655  11.337
 4622PROX   H2135768  10.372  12.584  11.251
 4622PROX    C335769  10.331  12.805  11.299
 4622PROX   H3135770  10.238  12.830  11.243
 4622PROX   H3235771  10.326  12.860  11.395
 4622PROX   H3335772  10.410  12.849  11.235
 4623PROX    O135773  10.264  12.611  11.421
 4623PROX    C135774  10.258  12.655  11.557
 4623PROX   H1135775  10.332  12.598  11.618
 4623PROX   H1335776  10.295  12.759  11.570
 4623PROX    C235777  10.108  12.657  11.596
 4623PROX   H2135778  10.065  12.569  11.542
 4623PROX    C335779  10.039  12.783  11.545
 4623PROX   H3135780   9.936  12.805  11.579
 4623PROX   H3235781  10.107  12.866  11.574
 4623PROX   H3335782  10.026  12.779  11.435
 4624PROX    O135783  10.097  12.644  11.739
 4624PROX    C135784  10.116  12.506  11.778
 4624PROX   H1135785  10.060  12.440  11.708
 4624PROX   H1335786  10.220  12.474  11.755
 4624PROX    C235787  10.088  12.471  11.929
 4624PROX   H2135788  10.077  12.565  11.986
 4624PROX    C335789  10.192  12.371  11.987
 4624PROX   H3135790  10.177  12.367  12.097
 4624PROX   H3235791  10.189  12.278  11.927
 4624PROX   H3335792  10.289  12.419  11.962
 4625PROX    O135793   9.971  12.394  11.932
 4625PROX    C135794   9.852  12.469  11.903
 4625PROX   H1135795   9.844  12.534  11.993
 4625PROX   H1335796   9.849  12.528  11.809
 4625PROX    C235797   9.737  12.373  11.897
 4625PROX   H2135798   9.735  12.302  11.982
 4625PROX    C335799   9.732  12.294  11.763
 4625PROX   H3135800   9.637  12.237  11.760
 4625PROX   H3235801   9.735  12.372  11.684
 4625PROX   H3335802   9.813  12.217  11.754
 4626PROX    O135803   9.621  12.454  11.918
 4626PROX    C135804   9.499  12.383  11.955
 4626PROX   H1135805   9.446  12.340  11.867
 4626PROX   H1335806   9.530  12.290  12.009
 4626PROX    C235807   9.401  12.465  12.036
 4626PROX   H2135808   9.466  12.536  12.093
 4626PROX    C335809   9.303  12.396  12.127
 4626PROX   H3135810   9.358  12.358  12.216
 4626PROX   H3235811   9.233  12.471  12.170
 4626PROX   H3335812   9.262  12.306  12.077
 4627PROX    O135813   9.316  12.543  11.953
 4627PROX    C135814   9.385  12.628  11.868
 4627PROX   H1135815   9.459  12.684  11.929
 4627PROX   H1335816   9.447  12.576  11.791
 4627PROX    C235817   9.285  12.710  11.793
 4627PROX   H2135818   9.217  12.750  11.871
 4627PROX    C335819   9.202  12.626  11.694
 4627PROX   H3135820   9.122  12.684  11.643
 4627PROX   H3235821   9.272  12.575  11.624
 4627PROX   H3335822   9.136  12.550  11.741
 4628PROX    O135823   9.350  12.799  11.703
 4628PROX    C135824   9.398  12.917  11.764
 4628PROX   H1135825   9.315  12.980  11.803
 4628PROX   H1335826   9.457  12.900  11.857
 4628PROX    C235827   9.489  13.001  11.673
 4628PROX   H2135828   9.440  13.033  11.578
 4628PROX    C335829   9.618  12.916  11.644
 4628PROX   H3135830   9.605  12.853  11.553
 4628PROX   H3235831   9.714  12.969  11.623
 4628PROX   H3335832   9.647  12.843  11.722
 4629PROX    O135833   9.540  13.110  11.746
 4629PROX    C135834   9.498  13.235  11.698
 4629PROX   H1135835   9.546  13.265  11.602
 4629PROX   H1335836   9.389  13.232  11.678
 4629PROX    C235837   9.541  13.346  11.794
 4629PROX   H2135838   9.487  13.326  11.889
 4629PROX    C335839   9.476  13.481  11.747
 4629PROX   H3135840   9.485  13.482  11.636
 4629PROX   H3235841   9.370  13.481  11.778
 4629PROX   H3335842   9.526  13.572  11.786
 4630PROX    O135843   9.680  13.350  11.805
 4630PROX    C135844   9.725  13.287  11.927
 4630PROX   H1135845   9.711  13.363  12.006
 4630PROX   H1335846   9.666  13.196  11.951
 4630PROX    C235847   9.875  13.255  11.910
 4630PROX   H2135848   9.931  13.345  11.879
 4630PROX    C335849   9.912  13.147  11.797
 4630PROX   H3135850   9.875  13.048  11.833
 4630PROX   H3235851   9.862  13.177  11.702
 4630PROX   H3335852  10.021  13.132  11.781
 4631PROX    O135853   9.923  13.214  12.037
 4631PROX    C135854  10.060  13.249  12.070
 4631PROX   H1135855  10.095  13.175  12.146
 4631PROX   H1335856  10.126  13.237  11.982
 4631PROX    C235857  10.074  13.390  12.131
 4631PROX   H2135858   9.980  13.449  12.134
 4631PROX    C335859  10.184  13.469  12.048
 4631PROX   H3135860  10.179  13.576  12.078
 4631PROX   H3235861  10.286  13.432  12.070
 4631PROX   H3335862  10.161  13.470  11.940
 4632PROX    O135863  10.118  13.366  12.267
 4632PROX    C135864  10.134  13.494  12.339
 4632PROX   H1135865  10.222  13.552  12.302
 4632PROX   H1335866  10.042  13.556  12.331
 4632PROX    C235867  10.143  13.469  12.500
 4632PROX   H2135868  10.097  13.370  12.521
 4632PROX    C335869  10.100  13.585  12.582
 4632PROX   H3135870  10.103  13.556  12.690
 4632PROX   H3235871  10.174  13.667  12.570
 4632PROX   H3335872   9.997  13.625  12.566
 4633PROX    O135873  10.273  13.450  12.528
 4633PROX    C135874  10.335  13.344  12.449
 4633PROX   H1135875  10.270  13.255  12.448
 4633PROX   H1335876  10.353  13.380  12.345
 4633PROX    C235877  10.469  13.291  12.499
 4633PROX   H2135878  10.463  13.256  12.604
 4633PROX    C335879  10.577  13.401  12.488
 4633PROX   H3135880  10.575  13.453  12.390
 4633PROX   H3235881  10.556  13.483  12.560
 4633PROX   H3335882  10.677  13.362  12.514
 4634PROX    O135883  10.501  13.174  12.428
 4634PROX    C135884  10.621  13.111  12.468
 4634PROX   H1135885  10.709  13.165  12.427
 4634PROX   H1335886  10.631  13.100  12.579
 4634PROX    C235887  10.621  12.971  12.398
 4634PROX   H2135888  10.517  12.934  12.391
 4634PROX    C335889  10.698  12.865  12.477
 4634PROX   H3135890  10.808  12.881  12.472
 4634PROX   H3235891  10.665  12.855  12.583
 4634PROX   H3335892  10.670  12.763  12.441
 4635PROX    O135893  10.684  12.976  12.272
 4635PROX    C135894  10.591  13.026  12.166
 4635PROX   H1135895  10.597  12.964  12.074
 4635PROX   H1335896  10.489  13.002  12.201
 4635PROX    C235897  10.604  13.172  12.122
 4635PROX   H2135898  10.610  13.240  12.210
 4635PROX    C335899  10.486  13.218  12.031
 4635PROX   H3135900  10.474  13.155  11.941
 4635PROX   H3235901  10.395  13.211  12.095
 4635PROX   H3335902  10.497  13.322  11.993
 4636PROX    O135903  10.724  13.193  12.042
 4636PROX    C135904  10.832  13.213  12.127
 4636PROX   H1135905  10.833  13.318  12.164
 4636PROX   H1335906  10.843  13.145  12.214
 4636PROX    C235907  10.969  13.198  12.058
 4636PROX   H2135908  11.036  13.269  12.110
 4636PROX    C335909  10.970  13.242  11.911
 4636PROX   H3135910  10.901  13.175  11.855
 4636PROX   H3235911  10.942  13.349  11.902
 4636PROX   H3335912  11.073  13.230  11.873
 4637PROX    O135913  11.019  13.062  12.070
 4637PROX    C135914  10.947  12.964  12.001
 4637PROX   H1135915  10.845  12.951  12.043
 4637PROX   H1335916  10.941  12.983  11.892
 4637PROX    C235917  11.013  12.822  11.997
 4637PROX   H2135918  11.054  12.807  12.099
 4637PROX    C335919  11.134  12.820  11.904
 4637PROX   H3135920  11.192  12.725  11.908
 4637PROX   H3235921  11.105  12.861  11.805
 4637PROX   H3335922  11.217  12.888  11.933
 4638PROX    O135923  10.913  12.732  11.956
 4638PROX    C135924  10.858  12.662  12.069
 4638PROX   H1135925  10.920  12.576  12.100
 4638PROX   H1335926  10.835  12.729  12.154
 4638PROX    C235927  10.715  12.619  12.028
 4638PROX   H2135928  10.661  12.708  11.988
 4638PROX    C335929  10.639  12.587  12.159
 4638PROX   H3135930  10.532  12.560  12.149
 4638PROX   H3235931  10.681  12.497  12.210
 4638PROX   H3335932  10.643  12.664  12.239
 4639PROX    O135933  10.730  12.510  11.939
 4639PROX    C135934  10.603  12.470  11.891
 4639PROX   H1135935  10.532  12.438  11.970
 4639PROX   H1335936  10.570  12.560  11.835
 4639PROX    C235937  10.628  12.347  11.801
 4639PROX   H2135938  10.694  12.386  11.721
 4639PROX    C335939  10.499  12.301  11.727
 4639PROX   H3135940  10.427  12.257  11.799
 4639PROX   H3235941  10.446  12.389  11.685
 4639PROX   H3335942  10.522  12.233  11.642
 4640PROX    O135943  10.698  12.240  11.864
 4640PROX    C135944  10.641  12.192  11.982
 4640PROX   H1135945  10.614  12.267  12.059
 4640PROX   H1335946  10.548  12.139  11.950
 4640PROX    C235947  10.754  12.108  12.054
 4640PROX   H2135948  10.840  12.177  12.067
 4640PROX    C335949  10.791  11.986  11.968
 4640PROX   H3135950  10.706  11.914  11.969
 4640PROX   H3235951  10.804  12.017  11.862
 4640PROX   H3335952  10.888  11.948  12.007
 4641PROX    O135953  10.714  12.069  12.187
 4641PROX    C135954  10.734  12.181  12.279
 4641PROX   H1135955  10.843  12.179  12.301
 4641PROX   H1335956  10.709  12.279  12.233
 4641PROX    C235957  10.655  12.154  12.407
 4641PROX   H2135958  10.687  12.060  12.455
 4641PROX    C335959  10.503  12.152  12.364
 4641PROX   H3135960  10.488  12.076  12.283
 4641PROX   H3235961  10.439  12.128  12.451
 4641PROX   H3335962  10.467  12.245  12.315
 4642PROX    O135963  10.672  12.256  12.498
 4642PROX    C135964  10.615  12.226  12.623
 4642PROX   H1135965  10.535  12.149  12.624
 4642PROX   H1335966  10.701  12.178  12.675
 4642PROX    C235967  10.571  12.352  12.691
 4642PROX   H2135968  10.654  12.426  12.694
 4642PROX    C335969  10.519  12.318  12.829
 4642PROX   H3135970  10.609  12.311  12.894
 4642PROX   H3235971  10.449  12.397  12.863
 4642PROX   H3335972  10.454  12.229  12.836
 4643PROX    O135973  10.461  12.404  12.620
 4643PROX    C135974  10.458  12.548  12.622
 4643PROX   H1135975  10.464  12.581  12.728
 4643PROX   H1335976  10.551  12.579  12.569
 4643PROX    C235977  10.346  12.592  12.533
 4643PROX   H2135978  10.256  12.531  12.557
 4643PROX    C335979  10.369  12.566  12.390
 4643PROX   H3135980  10.280  12.568  12.325
 4643PROX   H3235981  10.440  12.643  12.353
 4643PROX   H3335982  10.402  12.461  12.377
 4644PROX    O135983  10.333  12.734  12.552
 4644PROX    C135984  10.247  12.761  12.661
 4644PROX   H1135985  10.156  12.700  12.643
 4644PROX   H1335986  10.302  12.735  12.754
 4644PROX    C235987  10.198  12.910  12.676
 4644PROX   H2135988  10.121  12.930  12.598
 4644PROX    C335989  10.311  13.014  12.656
 4644PROX   H3135990  10.271  13.117  12.665
 4644PROX   H3235991  10.392  13.001  12.731
 4644PROX   H3335992  10.357  12.990  12.557
 4645PROX    O135993  10.145  12.946  12.802
 4645PROX    C135994  10.040  12.864  12.838
 4645PROX   H1135995  10.066  12.755  12.836
 4645PROX   H1335996  10.014  12.896  12.942
 4645PROX    C235997   9.905  12.886  12.747
 4645PROX   H2135998   9.823  12.877  12.821
 4645PROX    C335999   9.883  12.779  12.635
 4645PROX   H3136000   9.957  12.784  12.552
 4645PROX   H3236001   9.885  12.672  12.667
 4645PROX   H3336002   9.782  12.787  12.591
 4646PROX    O136003   9.907  13.016  12.686
 4646PROX    C136004   9.774  13.069  12.653
 4646PROX   H1136005   9.700  12.996  12.693
 4646PROX   H1336006   9.769  13.168  12.703
 4646PROX    C236007   9.751  13.094  12.498
 4646PROX   H2136008   9.750  12.993  12.453
 4646PROX    C336009   9.861  13.184  12.444
 4646PROX   H3136010   9.955  13.125  12.451
 4646PROX   H3236011   9.853  13.203  12.335
 4646PROX   H3336012   9.855  13.274  12.509
 4647PROX    O136013   9.620  13.154  12.487
 4647PROX    C136014   9.592  13.191  12.353
 4647PROX   H1136015   9.620  13.297  12.332
 4647PROX   H1336016   9.645  13.126  12.280
 4647PROX    C236017   9.436  13.187  12.310
 4647PROX   H2136018   9.397  13.090  12.347
 4647PROX    C336019   9.431  13.212  12.159
 4647PROX   H3136020   9.439  13.122  12.095
 4647PROX   H3236021   9.330  13.253  12.138
 4647PROX   H3336022   9.507  13.287  12.128
 4648PROX    O136023   9.371  13.297  12.371
 4648PROX    C136024   9.317  13.264  12.500
 4648PROX   H1136025   9.388  13.212  12.568
 4648PROX   H1336026   9.299  13.361  12.551
 4648PROX    C236027   9.181  13.197  12.483
 4648PROX   H2136028   9.194  13.126  12.398
 4648PROX    C336029   9.070  13.297  12.436
 4648PROX   H3136030   9.108  13.360  12.352
 4648PROX   H3236031   8.983  13.232  12.414
 4648PROX   H3336032   9.054  13.361  12.526
 4649PROX    O136033   9.148  13.125  12.603
 4649PROX    C136034   9.222  12.999  12.609
 4649PROX   H1136035   9.220  12.941  12.514
 4649PROX   H1336036   9.330  13.024  12.623
 4649PROX    C236037   9.178  12.914  12.723
 4649PROX   H2136038   9.223  12.816  12.694
 4649PROX    C336039   9.025  12.893  12.748
 4649PROX   H3136040   8.978  12.847  12.658
 4649PROX   H3236041   9.015  12.816  12.826
 4649PROX   H3336042   8.971  12.989  12.768
 4650PROX    O136043   9.236  12.962  12.842
 4650PROX    C136044   9.379  12.955  12.850
 4650PROX   H1136045   9.424  12.859  12.817
 4650PROX   H1336046   9.416  13.047  12.801
 4650PROX    C236047   9.420  12.974  12.993
 4650PROX   H2136048   9.360  12.901  13.052
 4650PROX    C336049   9.384  13.121  13.044
 4650PROX   H3136050   9.415  13.127  13.151
 4650PROX   H3236051   9.450  13.193  12.993
 4650PROX   H3336052   9.275  13.144  13.042
 4651PROX    O136053   9.559  12.947  12.997
 4651PROX    C136054   9.596  12.864  13.113
 4651PROX   H1136055   9.693  12.900  13.153
 4651PROX   H1336056   9.529  12.891  13.197
 4651PROX    C236057   9.601  12.711  13.087
 4651PROX   H2136058   9.636  12.660  13.179
 4651PROX    C336059   9.699  12.685  12.971
 4651PROX   H3136060   9.796  12.733  12.996
 4651PROX   H3236061   9.708  12.575  12.969
 4651PROX   H3336062   9.666  12.728  12.873
 4652PROX    O136063   9.482  12.660  13.039
 4652PROX    C136064   9.389  12.591  13.133
 4652PROX   H1136065   9.446  12.540  13.213
 4652PROX   H1336066   9.325  12.667  13.182
 4652PROX    C236067   9.298  12.515  13.036
 4652PROX   H2136068   9.368  12.455  12.974
 4652PROX    C336069   9.215  12.616  12.945
 4652PROX   H3136070   9.145  12.567  12.874
 4652PROX   H3236071   9.142  12.674  13.006
 4652PROX   H3336072   9.284  12.682  12.889
 4653PROX    O136073   9.202  12.435  13.102
 4653PROX    C136074   9.252  12.337  13.183
 4653PROX   H1136075   9.301  12.383  13.271
 4653PROX   H1336076   9.166  12.283  13.229
 4653PROX    C236077   9.343  12.230  13.120
 4653PROX   H2136078   9.429  12.294  13.092
 4653PROX    C336079   9.262  12.168  12.996
 4653PROX   H3136080   9.176  12.100  13.014
 4653PROX   H3236081   9.210  12.246  12.936
 4653PROX   H3336082   9.338  12.116  12.935
 4654PROX    O136083   9.363  12.129  13.215
 4654PROX    C136084   9.485  12.054  13.198
 4654PROX   H1136085   9.478  11.984  13.113
 4654PROX   H1336086   9.572  12.122  13.180
 4654PROX    C236087   9.513  11.963  13.322
 4654PROX   H2136088   9.434  11.886  13.330
 4654PROX    C336089   9.522  12.037  13.455
 4654PROX   H3136090   9.465  12.131  13.470
 4654PROX   H3236091   9.494  11.977  13.544
 4654PROX   H3336092   9.630  12.054  13.470
 4655PROX    O136093   9.641  11.897  13.315
 4655PROX    C136094   9.639  11.800  13.211
 4655PROX   H1136095   9.667  11.703  13.258
 4655PROX   H1336096   9.536  11.776  13.178
 4655PROX    C236097   9.721  11.833  13.077
 4655PROX   H2136098   9.681  11.922  13.025
 4655PROX    C336099   9.731  11.707  12.995
 4655PROX   H3136100   9.632  11.657  12.993
 4655PROX   H3236101   9.767  11.705  12.890
 4655PROX   H3336102   9.788  11.628  13.051
 4656PROX    O136103   9.857  11.864  13.114
 4656PROX    C136104   9.932  11.905  13.002
 4656PROX   H1136105   9.921  11.842  12.911
 4656PROX   H1336106   9.902  12.009  12.974
 4656PROX    C236107  10.083  11.922  13.034
 4656PROX   H2136108  10.111  11.825  13.080
 4656PROX    C336109  10.108  12.056  13.110
 4656PROX   H3136110  10.214  12.061  13.142
 4656PROX   H3236111  10.094  12.139  13.038
 4656PROX   H3336112  10.031  12.074  13.188
 4657PROX    O136113  10.156  11.937  12.917
 4657PROX    C136114  10.282  11.889  12.931
 4657PROX   H1136115  10.343  11.955  12.997
 4657PROX   H1336116  10.299  11.786  12.971
 4657PROX    C236117  10.354  11.882  12.795
 4657PROX   H2136118  10.359  11.991  12.774
 4657PROX    C336119  10.263  11.803  12.699
 4657PROX   H3136120  10.259  11.696  12.728
 4657PROX   H3236121  10.164  11.848  12.675
 4657PROX   H3336122  10.310  11.790  12.600
 4658PROX    O136123  10.483  11.829  12.813
 4658PROX    C136124  10.568  11.842  12.703
 4658PROX   H1136125  10.525  11.882  12.609
 4658PROX   H1336126  10.625  11.932  12.733
 4658PROX    C236127  10.656  11.717  12.682
 4658PROX   H2136128  10.701  11.700  12.782
 4658PROX    C336129  10.774  11.748  12.590
 4658PROX   H3136130  10.820  11.847  12.611
 4658PROX   H3236131  10.850  11.668  12.593
 4658PROX   H3336132  10.728  11.770  12.491
 4659PROX    O136133  10.574  11.604  12.644
 4659PROX    C136134  10.548  11.595  12.505
 4659PROX   H1136135  10.537  11.693  12.453
 4659PROX   H1336136  10.641  11.542  12.473
 4659PROX    C236137  10.427  11.498  12.475
 4659PROX   H2136138  10.447  11.408  12.536
 4659PROX    C336139  10.428  11.459  12.322
 4659PROX   H3136140  10.410  11.544  12.252
 4659PROX   H3236141  10.528  11.421  12.293
 4659PROX   H3336142  10.347  11.389  12.290
 4660PROX    O136143  10.301  11.560  12.514
 4660PROX    C136144  10.196  11.455  12.501
 4660PROX   H1136145  10.156  11.449  12.398
 4660PROX   H1336146  10.240  11.356  12.524
 4660PROX    C236147  10.071  11.470  12.598
 4660PROX   H2136148  10.108  11.480  12.702
 4660PROX    C336149   9.982  11.344  12.577
 4660PROX   H3136150   9.899  11.346  12.651
 4660PROX   H3236151   9.957  11.326  12.470
 4660PROX   H3336152  10.055  11.266  12.609
 4661PROX    O136153   9.995  11.586  12.559
 4661PROX    C136154   9.887  11.615  12.648
 4661PROX   H1136155   9.813  11.533  12.638
 4661PROX   H1336156   9.913  11.643  12.753
 4661PROX    C236157   9.813  11.730  12.582
 4661PROX   H2136158   9.782  11.684  12.486
 4661PROX    C336159   9.903  11.851  12.556
 4661PROX   H3136160   9.987  11.824  12.489
 4661PROX   H3236161   9.858  11.947  12.524
 4661PROX   H3336162   9.934  11.880  12.658
 4662PROX    O136163   9.703  11.773  12.662
 4662PROX    C136164   9.599  11.810  12.574
 4662PROX   H1136165   9.619  11.911  12.532
 4662PROX   H1336166   9.580  11.731  12.498
 4662PROX    C236167   9.464  11.821  12.657
 4662PROX   H2136168   9.476  11.750  12.741
 4662PROX    C336169   9.341  11.781  12.581
 4662PROX   H3136170   9.329  11.811  12.474
 4662PROX   H3236171   9.335  11.671  12.594
 4662PROX   H3336172   9.251  11.807  12.641
 4663PROX    O136173   9.451  11.956  12.707
 4663PROX    C136174   9.533  11.988  12.820
 4663PROX   H1136175   9.482  11.969  12.917
 4663PROX   H1336176   9.617  11.915  12.828
 4663PROX    C236177   9.589  12.136  12.812
 4663PROX   H2136178   9.508  12.199  12.769
 4663PROX    C336179   9.717  12.127  12.729
 4663PROX   H3136180   9.804  12.079  12.778
 4663PROX   H3236181   9.687  12.077  12.634
 4663PROX   H3336182   9.744  12.232  12.703
 4664PROX    O136183   9.613  12.184  12.942
 4664PROX    C136184   9.682  12.309  12.932
 4664PROX   H1136185   9.668  12.353  12.831
 4664PROX   H1336186   9.644  12.382  13.006
 4664PROX    C236187   9.831  12.298  12.970
 4664PROX   H2136188   9.872  12.206  12.923
 4664PROX    C336189   9.836  12.275  13.120
 4664PROX   H3136190   9.943  12.281  13.150
 4664PROX   H3236191   9.772  12.348  13.175
 4664PROX   H3336192   9.791  12.180  13.154
 4665PROX    O136193   9.899  12.419  12.942
 4665PROX    C136194   9.934  12.452  12.807
 4665PROX   H1136195   9.844  12.447  12.742
 4665PROX   H1336196   9.981  12.552  12.805
 4665PROX    C236197  10.044  12.353  12.749
 4665PROX   H2136198  10.010  12.247  12.746
 4665PROX    C336199  10.171  12.370  12.844
 4665PROX   H3136200  10.239  12.284  12.821
 4665PROX   H3236201  10.231  12.461  12.825
 4665PROX   H3336202  10.142  12.344  12.948
 4666PROX    O136203  10.078  12.388  12.620
 4666PROX    C136204  10.153  12.281  12.552
 4666PROX   H1136205  10.216  12.326  12.472
 4666PROX   H1336206  10.212  12.224  12.627
 4666PROX    C236207  10.068  12.177  12.488
 4666PROX   H2136208  10.001  12.144  12.570
 4666PROX    C336209  10.150  12.050  12.437
 4666PROX   H3136210  10.078  11.972  12.402
 4666PROX   H3236211  10.211  12.076  12.348
 4666PROX   H3336212  10.215  12.018  12.521
 4667PROX    O136213   9.997  12.231  12.377
 4667PROX    C136214   9.864  12.271  12.413
 4667PROX   H1136215   9.797  12.183  12.421
 4667PROX   H1336216   9.877  12.325  12.509
 4667PROX    C236217   9.800  12.379  12.317
 4667PROX   H2136218   9.764  12.316  12.233
 4667PROX    C336219   9.902  12.467  12.265
 4667PROX   H3136220   9.974  12.502  12.341
 4667PROX   H3236221   9.957  12.407  12.190
 4667PROX   H3336222   9.848  12.547  12.208
 4668PROX    O136223   9.696  12.449  12.395
 4668PROX    C136224   9.583  12.365  12.420
 4668PROX   H1136225   9.539  12.346  12.319
 4668PROX   H1336226   9.605  12.273  12.477
 4668PROX    C236227   9.473  12.445  12.502
 4668PROX   H2136228   9.452  12.536  12.441
 4668PROX    C336229   9.516  12.496  12.638
 4668PROX   H3136230   9.583  12.585  12.633
 4668PROX   H3236231   9.431  12.518  12.705
 4668PROX   H3336232   9.569  12.406  12.677
 4669PROX    O136233   9.357  12.364  12.514
 4669PROX    C136234   9.240  12.438  12.554
 4669PROX   H1136235   9.255  12.506  12.640
 4669PROX   H1336236   9.196  12.491  12.466
 4669PROX    C236237   9.130  12.343  12.599
 4669PROX   H2136238   9.189  12.284  12.672
 4669PROX    C336239   9.091  12.253  12.487
 4669PROX   H3136240   9.038  12.319  12.415
 4669PROX   H3236241   9.181  12.208  12.441
 4669PROX   H3336242   9.016  12.180  12.526
 4670PROX    O136243   9.016  12.411  12.650
 4670PROX    C136244   8.973  12.357  12.776
 4670PROX   H1136245   8.952  12.254  12.740
 4670PROX   H1336246   9.054  12.364  12.852
 4670PROX    C236247   8.850  12.429  12.827
 4670PROX   H2136248   8.765  12.417  12.757
 4670PROX    C336249   8.876  12.578  12.832
 4670PROX   H3136250   8.948  12.601  12.914
 4670PROX   H3236251   8.909  12.629  12.739
 4670PROX   H3336252   8.782  12.628  12.866
 4671ETHO    O136253   8.819  12.377  12.948
 4671ETHO    C136254   8.683  12.394  12.989
 4671ETHO   H1136255   8.602  12.394  12.912
 4671ETHO   H1336256   8.679  12.490  13.046
 4671ETHO    C236257   8.642  12.298  13.097
 4671ETHO   H2136258   8.538  12.313  13.132
 4671ETHO   H2336259   8.715  12.310  13.181
 4672ETHO    O136260   8.652  12.163  13.041
 4672ETHO    C136261   8.617  12.073  13.141
 4672ETHO   H1136262   8.702  12.071  13.213
 4672ETHO   H1336263   8.529  12.111  13.198
 4672ETHO    C236264   8.587  11.939  13.067
 4672ETHO   H2136265   8.686  11.899  13.039
 4672ETHO   H2336266   8.524  11.953  12.977
 4673ETHO    O136267   8.521  11.849  13.150
 4673ETHO    C136268   8.451  11.751  13.069
 4673ETHO   H1136269   8.527  11.705  13.002
 4673ETHO   H1336270   8.379  11.794  12.997
 4673ETHO    C236271   8.375  11.643  13.155
 4673ETHO   H2136272   8.430  11.631  13.250
 4673ETHO   H2336273   8.382  11.544  13.105
 4674ETHO    O136274   8.247  11.687  13.183
 4674ETHO    C136275   8.164  11.585  13.245
 4674ETHO   H1136276   8.059  11.609  13.219
 4674ETHO   H1336277   8.186  11.485  13.201
 4674ETHO    C236278   8.177  11.582  13.400
 4674ETHO   H2136279   8.101  11.513  13.444
 4674ETHO   H2336280   8.147  11.685  13.431
 4675ETHO    O136281   8.305  11.540  13.446
 4675ETHO    C136282   8.364  11.643  13.523
 4675ETHO   H1136283   8.344  11.744  13.481
 4675ETHO   H1336284   8.474  11.625  13.531
 4675ETHO    C236285   8.310  11.629  13.669
 4675ETHO   H2136286   8.199  11.619  13.669
 4675ETHO   H2336287   8.338  11.730  13.704
 4676ETHO    O136288   8.366  11.530  13.751
 4676ETHO    C136289   8.322  11.544  13.886
 4676ETHO   H1136290   8.356  11.640  13.930
 4676ETHO   H1336291   8.212  11.532  13.890
 4676ETHO    C236292   8.379  11.437  13.980
 4676ETHO   H2136293   8.370  11.474  14.085
 4676ETHO   H2336294   8.487  11.419  13.967
 4677ETHO    O136295   8.305  11.313  13.948
 4677ETHO    C136296   8.308  11.217  14.050
 4677ETHO   H1136297   8.276  11.270  14.142
 4677ETHO   H1336298   8.412  11.180  14.060
 4677ETHO    C236299   8.210  11.101  14.021
 4677ETHO   H2136300   8.240  11.016  14.086
 4677ETHO   H2336301   8.224  11.073  13.915
 4678ETHO    O136302   8.078  11.129  14.048
 4678ETHO    C136303   7.984  11.023  14.048
 4678ETHO   H1136304   7.967  11.010  13.939
 4678ETHO   H1336305   8.035  10.935  14.094
 4678ETHO    C236306   7.852  11.052  14.110
 4678ETHO   H2136307   7.775  10.972  14.100
 4678ETHO   H2336308   7.873  11.056  14.219
 4679ETHO    O136309   7.776  11.161  14.056
 4679ETHO    C136310   7.650  11.174  14.126
 4679ETHO   H1136311   7.588  11.091  14.087
 4679ETHO   H1336312   7.651  11.160  14.236
 4679ETHO    C236313   7.595  11.313  14.102
 4679ETHO   H2136314   7.675  11.390  14.095
 4679ETHO   H2336315   7.525  11.349  14.181
 4680ETHO    O136316   7.519  11.312  13.978
 4680ETHO    C136317   7.455  11.434  13.955
 4680ETHO   H1136318   7.396  11.458  14.046
 4680ETHO   H1336319   7.528  11.515  13.932
 4680ETHO    C236320   7.375  11.441  13.819
 4680ETHO   H2136321   7.442  11.387  13.750
 4680ETHO   H2336322   7.364  11.543  13.777
 4681ETHO    O136323   7.243  11.387  13.833
 4681ETHO    C136324   7.189  11.361  13.704
 4681ETHO   H1136325   7.265  11.381  13.625
 4681ETHO   H1336326   7.160  11.254  13.702
 4681ETHO    C236327   7.056  11.437  13.693
 4681ETHO   H2136328   6.983  11.403  13.769
 4681ETHO   H2336329   7.025  11.421  13.587
 4682ETHO    O136330   7.057  11.571  13.723
 4682ETHO    C136331   6.926  11.625  13.691
 4682ETHO   H1136332   6.861  11.606  13.779
 4682ETHO   H1336333   6.886  11.581  13.597
 4682ETHO    C236334   6.941  11.779  13.663
 4682ETHO   H2136335   7.028  11.790  13.595
 4682ETHO   H2336336   6.976  11.833  13.754
 4683ETHO    O136337   6.830  11.839  13.595
 4683ETHO    C136338   6.718  11.844  13.683
 4683ETHO   H1136339   6.690  11.737  13.688
 4683ETHO   H1336340   6.766  11.874  13.779
 4683ETHO    C236341   6.615  11.927  13.607
 4683ETHO   H2136342   6.520  11.926  13.665
 4683ETHO   H2336343   6.595  11.890  13.505
 4684ETHO    O136344   6.646  12.064  13.606
 4684ETHO    C136345   6.531  12.150  13.582
 4684ETHO   H1136346   6.448  12.138  13.655
 4684ETHO   H1336347   6.491  12.133  13.480
 4684ETHO    C236348   6.573  12.296  13.586
 4684ETHO   H2136349   6.486  12.352  13.545
 4684ETHO   H2336350   6.662  12.317  13.523
 4685ETHO    O136351   6.602  12.339  13.717
 4685ETHO    C136352   6.619  12.477  13.718
 4685ETHO   H1136353   6.683  12.496  13.807
 4685ETHO   H1336354   6.681  12.520  13.637
 4685ETHO    C236355   6.498  12.571  13.734
 4685ETHO   H2136356   6.533  12.664  13.783
 4685ETHO   H2336357   6.423  12.525  13.802
 4686ETHO    O136358   6.436  12.605  13.609
 4686ETHO    C136359   6.345  12.706  13.619
 4686ETHO   H1136360   6.400  12.801  13.603
 4686ETHO   H1336361   6.294  12.705  13.717
 4686ETHO    C236362   6.242  12.687  13.513
 4686ETHO   H2136363   6.152  12.746  13.538
 4686ETHO   H2336364   6.224  12.578  13.510
 4687ETHO    O136365   6.276  12.729  13.382
 4687ETHO    C136366   6.228  12.638  13.289
 4687ETHO   H1136367   6.140  12.588  13.336
 4687ETHO   H1336368   6.192  12.682  13.194
 4687ETHO    C236369   6.334  12.539  13.259
 4687ETHO   H2136370   6.385  12.499  13.349
 4687ETHO   H2336371   6.413  12.594  13.204
 4688ETHO    O136372   6.283  12.429  13.189
 4688ETHO    C136373   6.339  12.303  13.221
 4688ETHO   H1136374   6.444  12.316  13.257
 4688ETHO   H1336375   6.345  12.244  13.127
 4688ETHO    C236376   6.247  12.235  13.332
 4688ETHO   H2136377   6.286  12.133  13.351
 4688ETHO   H2336378   6.144  12.243  13.292
 4689ETHO    O136379   6.267  12.295  13.459
 4689ETHO    C136380   6.173  12.243  13.552
 4689ETHO   H1136381   6.071  12.259  13.512
 4689ETHO   H1336382   6.177  12.132  13.555
 4689ETHO    C236383   6.202  12.309  13.686
 4689ETHO   H2136384   6.176  12.416  13.670
 4689ETHO   H2336385   6.307  12.299  13.721
 4690ETHO    O136386   6.107  12.266  13.785
 4690ETHO    C136387   6.154  12.148  13.851
 4690ETHO   H1136388   6.197  12.073  13.781
 4690ETHO   H1336389   6.229  12.180  13.927
 4690ETHO    C236390   6.041  12.087  13.927
 4690ETHO   H2136391   5.952  12.082  13.861
 4690ETHO   H2336392   6.004  12.149  14.012
 4691ETHO    O136393   6.090  11.955  13.966
 4691ETHO    C136394   5.985  11.885  14.036
 4691ETHO   H1136395   5.961  11.938  14.131
 4691ETHO   H1336396   5.889  11.887  13.979
 4691ETHO    C236397   6.018  11.741  14.083
 4691ETHO   H2136398   5.954  11.721  14.171
 4691ETHO   H2336399   6.122  11.737  14.122
 4692ETHO    O136400   6.002  11.640  13.990
 4692ETHO    C136401   6.013  11.513  14.053
 4692ETHO   H1136402   6.119  11.488  14.031
 4692ETHO   H1336403   6.016  11.525  14.163
 4692ETHO    C236404   5.896  11.421  14.007
 4692ETHO   H2136405   5.808  11.487  13.991
 4692ETHO   H2336406   5.883  11.345  14.087
 4693ETHO    O136407   5.931  11.351  13.883
 4693ETHO    C136408   5.818  11.298  13.813
 4693ETHO   H1136409   5.737  11.374  13.809
 4693ETHO   H1336410   5.783  11.210  13.871
 4693ETHO    C236411   5.849  11.268  13.664
 4693ETHO   H2136412   5.920  11.348  13.634
 4693ETHO   H2336413   5.755  11.296  13.611
 4694ETHO    O136414   5.877  11.133  13.658
 4694ETHO    C136415   5.883  11.075  13.532
 4694ETHO   H1136416   5.782  11.095  13.491
 4694ETHO   H1336417   5.962  11.124  13.472
 4694ETHO    C236418   5.884  10.925  13.542
 4694ETHO   H2136419   5.973  10.890  13.599
 4694ETHO   H2336420   5.891  10.875  13.443
 4695ETHO    O136421   5.765  10.897  13.615
 4695ETHO    C136422   5.660  10.847  13.535
 4695ETHO   H1136423   5.662  10.740  13.566
 4695ETHO   H1336424   5.681  10.854  13.426
 4695ETHO    C236425   5.528  10.915  13.568
 4695ETHO   H2136426   5.501  10.899  13.675
 4695ETHO   H2336427   5.456  10.864  13.501
 4696ETHO    O136428   5.514  11.049  13.527
 4696ETHO    C136429   5.375  11.087  13.515
 4696ETHO   H1136430   5.362  11.142  13.419
 4696ETHO   H1336431   5.306  10.999  13.509
 4696ETHO    C236432   5.321  11.169  13.637
 4696ETHO   H2136433   5.391  11.253  13.658
 4696ETHO   H2336434   5.312  11.103  13.726
 4697ETHO    O136435   5.184  11.215  13.610
 4697ETHO    C136436   5.145  11.301  13.710
 4697ETHO   H1136437   5.208  11.390  13.725
 4697ETHO   H1336438   5.144  11.241  13.804
 4697ETHO    C236439   5.011  11.369  13.688
 4697ETHO   H2136440   5.013  11.413  13.586
 4697ETHO   H2336441   5.008  11.447  13.767
 4698ETHO    O136442   4.894  11.283  13.702
 4698ETHO    C136443   4.770  11.348  13.689
 4698ETHO   H1136444   4.772  11.432  13.762
 4698ETHO   H1336445   4.762  11.388  13.585
 4698ETHO    C236446   4.654  11.248  13.699
 4698ETHO   H2136447   4.656  11.174  13.616
 4698ETHO   H2336448   4.556  11.301  13.696
 4699ETHO    O136449   4.671  11.185  13.826
 4699ETHO    C136450   4.584  11.074  13.828
 4699ETHO   H1136451   4.495  11.089  13.762
 4699ETHO   H1336452   4.544  11.076  13.931
 4699ETHO    C236453   4.660  10.944  13.802
 4699ETHO   H2136454   4.583  10.872  13.837
 4699ETHO   H2336455   4.753  10.935  13.863
 4700ETHO    O136456   4.696  10.921  13.662
 4700ETHO    C136457   4.744  10.790  13.649
 4700ETHO   H1136458   4.849  10.781  13.684
 4700ETHO   H1336459   4.693  10.716  13.715
 4700ETHO    C236460   4.719  10.742  13.507
 4700ETHO   H2136461   4.610  10.754  13.490
 4700ETHO   H2336462   4.741  10.633  13.499
 4701ETHO    O136463   4.791  10.810  13.397
 4701ETHO    C136464   4.796  10.729  13.274
 4701ETHO   H1136465   4.829  10.628  13.305
 4701ETHO   H1336466   4.703  10.707  13.217
 4701ETHO    C236467   4.907  10.770  13.169
 4701ETHO   H2136468   4.887  10.874  13.135
 4701ETHO   H2336469   4.896  10.701  13.083
 4702ETHO    O136470   5.035  10.739  13.213
 4702ETHO    C136471   5.134  10.761  13.114
 4702ETHO   H1136472   5.128  10.678  13.041
 4702ETHO   H1336473   5.113  10.855  13.058
 4702ETHO    C236474   5.275  10.772  13.169
 4702ETHO   H2136475   5.279  10.840  13.257
 4702ETHO   H2336476   5.339  10.821  13.092
 4703ETHO    O136477   5.335  10.646  13.181
 4703ETHO    C136478   5.469  10.662  13.223
 4703ETHO   H1136479   5.532  10.683  13.134
 4703ETHO   H1336480   5.488  10.752  13.284
 4703ETHO    C236481   5.511  10.532  13.288
 4703ETHO   H2136482   5.462  10.446  13.238
 4703ETHO   H2336483   5.495  10.541  13.398
 4704ETHO    O136484   5.652  10.522  13.271
 4704ETHO    C136485   5.696  10.386  13.271
 4704ETHO   H1136486   5.615  10.319  13.309
 4704ETHO   H1336487   5.792  10.375  13.325
 4704ETHO    C236488   5.721  10.336  13.128
 4704ETHO   H2136489   5.622  10.344  13.078
 4704ETHO   H2336490   5.750  10.229  13.130
 4705ETHO    O136491   5.807  10.428  13.064
 4705ETHO    C136492   5.808  10.405  12.924
 4705ETHO   H1136493   5.854  10.304  12.912
 4705ETHO   H1336494   5.702  10.410  12.891
 4705ETHO    C236495   5.894  10.502  12.846
 4705ETHO   H2136496   5.865  10.609  12.833
 4705ETHO   H2336497   5.894  10.453  12.747
 4706ETHO    O136498   6.031  10.501  12.886
 4706ETHO    C136499   6.104  10.596  12.814
 4706ETHO   H1136500   6.048  10.618  12.721
 4706ETHO   H1336501   6.204  10.556  12.789
 4706ETHO    C236502   6.134  10.717  12.903
 4706ETHO   H2136503   6.037  10.768  12.921
 4706ETHO   H2336504   6.189  10.791  12.841
 4707ETHO    O136505   6.205  10.684  13.022
 4707ETHO    C136506   6.221  10.804  13.091
 4707ETHO   H1136507   6.288  10.867  13.029
 4707ETHO   H1336508   6.121  10.853  13.098
 4707ETHO    C236509   6.290  10.786  13.229
 4707ETHO   H2136510   6.243  10.700  13.281
 4707ETHO   H2336511   6.279  10.871  13.300
 4708ETHO    O136512   6.427  10.788  13.205
 4708ETHO    C136513   6.484  10.656  13.179
 4708ETHO   H1136514   6.439  10.609  13.089
 4708ETHO   H1336515   6.469  10.590  13.267
 4708ETHO    C236516   6.633  10.667  13.147
 4708ETHO   H2136517   6.684  10.573  13.180
 4708ETHO   H2336518   6.676  10.739  13.220
 4709ETHO    O136519   6.663  10.686  13.012
 4709ETHO    C136520   6.654  10.821  12.977
 4709ETHO   H1136521   6.554  10.866  12.965
 4709ETHO   H1336522   6.688  10.880  13.066
 4709ETHO    C236523   6.740  10.865  12.858
 4709ETHO   H2136524   6.724  10.968  12.818
 4709ETHO   H2336525   6.734  10.795  12.773
 4710ETHO    O136526   6.873  10.849  12.902
 4710ETHO    C136527   6.969  10.867  12.797
 4710ETHO   H1136528   7.063  10.897  12.848
 4710ETHO   H1336529   6.937  10.949  12.729
 4710ETHO    C236530   6.990  10.732  12.733
 4710ETHO   H2136531   7.054  10.747  12.644
 4710ETHO   H2336532   6.898  10.685  12.691
 4711ETHO    O136533   7.056  10.633  12.817
 4711ETHO    C136534   7.101  10.516  12.764
 4711ETHO   H1136535   7.014  10.447  12.758
 4711ETHO   H1336536   7.148  10.528  12.664
 4711ETHO    C236537   7.216  10.457  12.850
 4711ETHO   H2136538   7.263  10.378  12.787
 4711ETHO   H2336539   7.287  10.541  12.865
 4712ETHO    O136540   7.154  10.415  12.965
 4712ETHO    C136541   7.257  10.419  13.065
 4712ETHO   H1136542   7.309  10.517  13.066
 4712ETHO   H1336543   7.330  10.338  13.042
 4712ETHO    C236544   7.205  10.416  13.211
 4712ETHO   H2136545   7.105  10.459  13.230
 4712ETHO   H2336546   7.288  10.460  13.271
 4713ETHO    O136547   7.183  10.283  13.257
 4713ETHO    C136548   7.126  10.275  13.386
 4713ETHO   H1136549   7.203  10.239  13.457
 4713ETHO   H1336550   7.087  10.377  13.410
 4713ETHO    C236551   7.019  10.167  13.395
 4713ETHO   H2136552   7.000  10.145  13.502
 4713ETHO   H2336553   7.057  10.072  13.350
 4714ETHO    O136554   6.889  10.207  13.327
 4714ETHO    C136555   6.807  10.088  13.310
 4714ETHO   H1136556   6.861   9.992  13.321
 4714ETHO   H1336557   6.773  10.089  13.204
 4714ETHO    C236558   6.689  10.054  13.407
 4714ETHO   H2136559   6.724  10.058  13.512
 4714ETHO   H2336560   6.662   9.947  13.394
 4715ETHO    O136561   6.584  10.148  13.390
 4715ETHO    C136562   6.465  10.092  13.334
 4715ETHO   H1136563   6.492  10.000  13.278
 4715ETHO   H1336564   6.409  10.059  13.423
 4715ETHO    C236565   6.397  10.194  13.245
 4715ETHO   H2136566   6.369  10.292  13.288
 4715ETHO   H2336567   6.294  10.151  13.240
 4716ETHO    O136568   6.465  10.198  13.120
 4716ETHO    C136569   6.381  10.256  13.015
 4716ETHO   H1136570   6.286  10.200  13.019
 4716ETHO   H1336571   6.362  10.364  13.037
 4716ETHO    C236572   6.455  10.231  12.887
 4716ETHO   H2136573   6.402  10.274  12.800
 4716ETHO   H2336574   6.445  10.120  12.884
 4717ETHO    O136575   6.587  10.278  12.882
 4717ETHO    C136576   6.598  10.413  12.844
 4717ETHO   H1136577   6.549  10.440  12.748
 4717ETHO   H1336578   6.566  10.476  12.929
 4717ETHO    C236579   6.743  10.448  12.825
 4717ETHO   H2136580   6.800  10.428  12.919
 4717ETHO   H2336581   6.750  10.558  12.808
 4718ETHO    O136582   6.800  10.378  12.714
 4718ETHO    C136583   6.773  10.427  12.578
 4718ETHO   H1136584   6.663  10.443  12.566
 4718ETHO   H1336585   6.840  10.512  12.553
 4718ETHO    C236586   6.815  10.320  12.476
 4718ETHO   H2136587   6.755  10.227  12.475
 4718ETHO   H2336588   6.915  10.286  12.511
 4719ETHO    O136589   6.833  10.375  12.346
 4719ETHO    C136590   6.709  10.412  12.292
 4719ETHO   H1136591   6.672  10.501  12.346
 4719ETHO   H1336592   6.650  10.317  12.292
 4719ETHO    C236593   6.721  10.443  12.143
 4719ETHO   H2136594   6.808  10.512  12.131
 4719ETHO   H2336595   6.624  10.491  12.117
 4720ETHO    O136596   6.732  10.326  12.061
 4720ETHO    C136597   6.719  10.357  11.917
 4720ETHO   H1136598   6.611  10.365  11.896
 4720ETHO   H1336599   6.750  10.462  11.904
 4720ETHO    C236600   6.792  10.252  11.817
 4720ETHO   H2136601   6.764  10.280  11.714
 4720ETHO   H2336602   6.754  10.150  11.842
 4721ETHO    O136603   6.932  10.264  11.834
 4721ETHO    C136604   6.980  10.169  11.929
 4721ETHO   H1136605   6.983  10.081  11.861
 4721ETHO   H1336606   6.920  10.152  12.022
 4721ETHO    C236607   7.130  10.191  11.962
 4721ETHO   H2136608   7.188  10.215  11.871
 4721ETHO   H2336609   7.196  10.110  12.000
 4722ETHO    O136610   7.152  10.300  12.050
 4722ETHO    C136611   7.085  10.292  12.176
 4722ETHO   H1136612   7.014  10.377  12.184
 4722ETHO   H1336613   7.019  10.203  12.179
 4722ETHO    C236614   7.178  10.303  12.298
 4722ETHO   H2136615   7.268  10.242  12.279
 4722ETHO   H2336616   7.120  10.276  12.388
 4723ETHO    O136617   7.218  10.436  12.311
 4723ETHO    C136618   7.314  10.449  12.407
 4723ETHO   H1136619   7.410  10.398  12.385
 4723ETHO   H1336620   7.273  10.407  12.501
 4723ETHO    C236621   7.351  10.600  12.428
 4723ETHO   H2136622   7.410  10.614  12.521
 4723ETHO   H2336623   7.259  10.657  12.454
 4724ETHO    O136624   7.422  10.652  12.322
 4724ETHO    C136625   7.410  10.795  12.309
 4724ETHO   H1136626   7.452  10.818  12.209
 4724ETHO   H1336627   7.303  10.819  12.293
 4724ETHO    C236628   7.482  10.884  12.410
 4724ETHO   H2136629   7.439  10.862  12.511
 4724ETHO   H2336630   7.460  10.991  12.388
 4725ETHO    O136631   7.622  10.875  12.406
 4725ETHO    C136632   7.680  10.961  12.308
 4725ETHO   H1136633   7.692  11.061  12.355
 4725ETHO   H1336634   7.628  10.975  12.211
 4725ETHO    C236635   7.817  10.900  12.276
 4725ETHO   H2136636   7.876  10.959  12.203
 4725ETHO   H2336637   7.793  10.803  12.227
 4726ETHO    O136638   7.899  10.871  12.383
 4726ETHO    C136639   8.012  10.790  12.343
 4726ETHO   H1136640   7.975  10.685  12.340
 4726ETHO   H1336641   8.043  10.820  12.241
 4726ETHO    C236642   8.123  10.798  12.445
 4726ETHO   H2136643   8.192  10.717  12.414
 4726ETHO   H2336644   8.078  10.772  12.544
 4727ETHO    O136645   8.198  10.916  12.440
 4727ETHO    C136646   8.297  10.909  12.539
 4727ETHO   H1136647   8.252  10.892  12.639
 4727ETHO   H1336648   8.369  10.827  12.514
 4727ETHO    C236649   8.380  11.035  12.556
 4727ETHO   H2136650   8.408  11.061  12.452
 4727ETHO   H2336651   8.468  11.019  12.622
 4728ETHO    O136652   8.301  11.144  12.604
 4728ETHO    C136653   8.350  11.272  12.571
 4728ETHO   H1136654   8.456  11.281  12.603
 4728ETHO   H1336655   8.338  11.293  12.463
 4728ETHO    C236656   8.272  11.364  12.660
 4728ETHO   H2136657   8.311  11.467  12.646
 4728ETHO   H2336658   8.298  11.349  12.767
 4729ETHO    O136659   8.125  11.355  12.666
 4729ETHO    C136660   8.076  11.478  12.728
 4729ETHO   H1136661   8.103  11.482  12.836
 4729ETHO   H1336662   8.117  11.563  12.671
 4729ETHO    C236663   7.924  11.486  12.711
 4729ETHO   H2136664   7.901  11.466  12.604
 4729ETHO   H2336665   7.886  11.589  12.731
 4730ETHO    O136666   7.872  11.392  12.800
 4730ETHO    C136667   7.832  11.275  12.737
 4730ETHO   H1136668   7.819  11.206  12.824
 4730ETHO   H1336669   7.907  11.238  12.664
 4730ETHO    C236670   7.685  11.281  12.685
 4730ETHO   H2136671   7.658  11.191  12.625
 4730ETHO   H2336672   7.694  11.368  12.617
 4731ETHO    O136673   7.581  11.311  12.773
 4731ETHO    C136674   7.496  11.204  12.814
 4731ETHO   H1136675   7.513  11.117  12.746
 4731ETHO   H1336676   7.515  11.176  12.919
 4731ETHO    C236677   7.348  11.271  12.809
 4731ETHO   H2136678   7.360  11.369  12.859
 4731ETHO   H2336679   7.285  11.217  12.882
 4732ETHO    O136680   7.273  11.282  12.690
 4732ETHO    C136681   7.310  11.396  12.610
 4732ETHO   H1136682   7.410  11.390  12.562
 4732ETHO   H1336683   7.320  11.484  12.676
 4732ETHO    C236684   7.204  11.432  12.503
 4732ETHO   H2136685   7.183  11.355  12.425
 4732ETHO   H2336686   7.244  11.517  12.444
 4733ETHO    O136687   7.074  11.473  12.561
 4733ETHO    C136688   6.982  11.517  12.463
 4733ETHO   H1136689   6.905  11.575  12.518
 4733ETHO   H1336690   7.032  11.586  12.392
 4733ETHO    C236691   6.904  11.406  12.396
 4733ETHO   H2136692   6.965  11.348  12.324
 4733ETHO   H2336693   6.813  11.449  12.350
 4734ETHO    O136694   6.859  11.330  12.502
 4734ETHO    C136695   6.785  11.217  12.448
 4734ETHO   H1136696   6.772  11.139  12.525
 4734ETHO   H1336697   6.842  11.174  12.363
 4734ETHO    C236698   6.638  11.247  12.401
 4734ETHO   H2136699   6.653  11.290  12.299
 4734ETHO   H2336700   6.609  11.335  12.463
 4735ETHO    O136701   6.546  11.139  12.403
 4735ETHO    C136702   6.434  11.165  12.315
 4735ETHO   H1136703   6.355  11.095  12.350
 4735ETHO   H1336704   6.395  11.266  12.340
 4735ETHO    C236705   6.442  11.147  12.163
 4735ETHO   H2136706   6.544  11.167  12.124
 4735ETHO   H2336707   6.369  11.209  12.107
 4736ETHO    O136708   6.394  11.018  12.122
 4736ETHO    C136709   6.489  10.915  12.161
 4736ETHO   H1136710   6.531  10.929  12.263
 4736ETHO   H1336711   6.577  10.928  12.094
 4736ETHO    C236712   6.425  10.775  12.157
 4736ETHO   H2136713   6.333  10.776  12.220
 4736ETHO   H2336714   6.496  10.697  12.193
 4737ETHO    O136715   6.378  10.739  12.025
 4737ETHO    C136716   6.321  10.604  12.030
 4737ETHO   H1136717   6.392  10.526  12.064
 4737ETHO   H1336718   6.241  10.595  12.107
 4737ETHO    C236719   6.282  10.559  11.891
 4737ETHO   H2136720   6.236  10.458  11.887
 4737ETHO   H2336721   6.377  10.553  11.834
 4738ETHO    O136722   6.198  10.649  11.819
 4738ETHO    C136723   6.060  10.634  11.858
 4738ETHO   H1136724   6.027  10.534  11.822
 4738ETHO   H1336725   6.043  10.636  11.968
 4738ETHO    C236726   5.972  10.751  11.808
 4738ETHO   H2136727   5.866  10.749  11.843
 4738ETHO   H2336728   5.964  10.751  11.697
 4739ETHO    O136729   6.022  10.869  11.864
 4739ETHO    C136730   5.931  10.923  11.958
 4739ETHO   H1136731   5.835  10.958  11.914
 4739ETHO   H1336732   5.903  10.860  12.045
 4739ETHO    C236733   6.003  11.045  12.025
 4739ETHO   H2136734   6.087  11.086  11.965
 4739ETHO   H2336735   6.053  11.006  12.117
 4740ETHO    O136736   5.906  11.147  12.063
 4740ETHO    C136737   5.971  11.275  12.072
 4740ETHO   H1136738   6.050  11.278  12.150
 4740ETHO   H1336739   6.010  11.302  11.971
 4740ETHO    C236740   5.880  11.398  12.101
 4740ETHO   H2136741   5.812  11.413  12.014
 4740ETHO   H2336742   5.939  11.491  12.084
 4741ETHO    O136743   5.824  11.395  12.231
 4741ETHO    C136744   5.810  11.528  12.279
 4741ETHO   H1136745   5.753  11.594  12.210
 4741ETHO   H1336746   5.915  11.564  12.290
 4741ETHO    C236747   5.754  11.518  12.420
 4741ETHO   H2136748   5.752  11.621  12.463
 4741ETHO   H2336749   5.816  11.450  12.482
 4742ETHO    O136750   5.616  11.478  12.411
 4742ETHO    C136751   5.572  11.417  12.530
 4742ETHO   H1136752   5.636  11.328  12.542
 4742ETHO   H1336753   5.586  11.486  12.616
 4742ETHO    C236754   5.428  11.359  12.531
 4742ETHO   H2136755   5.423  11.296  12.623
 4742ETHO   H2336756   5.418  11.283  12.451
 4743ETHO    O136757   5.322  11.445  12.551
 4743ETHO    C136758   5.287  11.512  12.433
 4743ETHO   H1136759   5.368  11.522  12.357
 4743ETHO   H1336760   5.249  11.613  12.458
 4743ETHO    C236761   5.168  11.439  12.375
 4743ETHO   H2136762   5.207  11.343  12.335
 4743ETHO   H2336763   5.133  11.503  12.291
 4744ETHO    O136764   5.051  11.425  12.456
 4744ETHO    C136765   5.033  11.287  12.499
 4744ETHO   H1136766   5.009  11.220  12.413
 4744ETHO   H1336767   5.111  11.230  12.555
 4744ETHO    C236768   4.917  11.263  12.601
 4744ETHO   H2136769   4.915  11.154  12.622
 4744ETHO   H2336770   4.945  11.303  12.701
 4745ETHO    O136771   4.793  11.314  12.554
 4745ETHO    C136772   4.754  11.277  12.427
 4745ETHO   H1136773   4.774  11.171  12.401
 4745ETHO   H1336774   4.804  11.336  12.347
 4745ETHO    C236775   4.602  11.296  12.409
 4745ETHO   H2136776   4.565  11.265  12.309
 4745ETHO   H2336777   4.584  11.405  12.417
 4746ETHO    O136778   4.508  11.227  12.488
 4746ETHO    C136779   4.478  11.290  12.610
 4746ETHO   H1136780   4.555  11.355  12.658
 4746ETHO   H1336781   4.380  11.340  12.596
 4746ETHO    C236782   4.440  11.185  12.710
 4746ETHO   H2136783   4.440  11.220  12.815
 4746ETHO   H2336784   4.520  11.110  12.689
 4747ETHO    O136785   4.323  11.111  12.700
 4747ETHO    C136786   4.310  11.020  12.808
 4747ETHO   H1136787   4.290  11.073  12.904
 4747ETHO   H1336788   4.399  10.956  12.823
 4747ETHO    C236789   4.190  10.916  12.787
 4747ETHO   H2136790   4.108  10.984  12.755
 4747ETHO   H2336791   4.164  10.885  12.890
 4748ETHO    O136792   4.226  10.812  12.698
 4748ETHO    C136793   4.114  10.730  12.684
 4748ETHO   H1136794   4.084  10.684  12.781
 4748ETHO   H1336795   4.024  10.787  12.652
 4748ETHO    C236796   4.133  10.607  12.600
 4748ETHO   H2136797   4.046  10.539  12.609
 4748ETHO   H2336798   4.214  10.546  12.645
 4749ETHO    O136799   4.155  10.639  12.462
 4749ETHO    C136800   4.179  10.525  12.384
 4749ETHO   H1136801   4.134  10.435  12.431
 4749ETHO   H1336802   4.288  10.514  12.369
 4749ETHO    C236803   4.108  10.529  12.248
 4749ETHO   H2136804   4.123  10.428  12.203
 4749ETHO   H2336805   4.153  10.608  12.184
 4750ETHO    O136806   3.964  10.551  12.255
 4750ETHO    C136807   3.918  10.580  12.123
 4750ETHO   H1136808   3.941  10.683  12.090
 4750ETHO   H1336809   3.951  10.502  12.051
 4750ETHO    C236810   3.765  10.570  12.108
 4750ETHO   H2136811   3.743  10.463  12.129
 4750ETHO   H2336812   3.737  10.602  12.006
 4751ETHO    O136813   3.705  10.658  12.194
 4751ETHO    C136814   3.564  10.655  12.193
 4751ETHO   H1136815   3.531  10.554  12.223
 4751ETHO   H1336816   3.523  10.667  12.090
 4751ETHO    C236817   3.514  10.758  12.297
 4751ETHO   H2136818   3.405  10.752  12.319
 4751ETHO   H2336819   3.554  10.854  12.257
 4752ETHO    O136820   3.575  10.738  12.424
 4752ETHO    C136821   3.550  10.847  12.516
 4752ETHO   H1136822   3.606  10.938  12.485
 4752ETHO   H1336823   3.443  10.879  12.516
 4752ETHO    C236824   3.602  10.815  12.656
 4752ETHO   H2136825   3.533  10.860  12.731
 4752ETHO   H2336826   3.603  10.705  12.669
 4753ETHO    O136827   3.732  10.870  12.675
 4753ETHO    C136828   3.760  10.884  12.811
 4753ETHO   H1136829   3.852  10.943  12.833
 4753ETHO   H1336830   3.681  10.939  12.867
 4753ETHO    C236831   3.792  10.752  12.886
 4753ETHO   H2136832   3.868  10.684  12.842
 4753ETHO   H2336833   3.701  10.690  12.902
 4754ETHO    O136834   3.838  10.798  13.013
 4754ETHO    C136835   3.928  10.713  13.077
 4754ETHO   H1136836   3.880  10.625  13.125
 4754ETHO   H1336837   3.999  10.671  13.002
 4754ETHO    C236838   4.014  10.800  13.176
 4754ETHO   H2136839   4.062  10.882  13.119
 4754ETHO   H2336840   4.092  10.736  13.223
 4755ETHO    O136841   3.936  10.873  13.272
 4755ETHO    C136842   4.018  10.950  13.362
 4755ETHO   H1136843   4.072  10.876  13.425
 4755ETHO   H1336844   4.099  11.005  13.308
 4755ETHO    C236845   3.943  11.045  13.455
 4755ETHO   H2136846   4.011  11.097  13.526
 4755ETHO   H2336847   3.876  10.989  13.524
 4756ETHO    O136848   3.884  11.157  13.385
 4756ETHO    C136849   3.767  11.116  13.318
 4756ETHO   H1136850   3.701  11.066  13.392
 4756ETHO   H1336851   3.779  11.042  13.237
 4756ETHO    C236852   3.697  11.235  13.258
 4756ETHO   H2136853   3.679  11.312  13.336
 4756ETHO   H2336854   3.596  11.202  13.227
 4757ETHO    O136855   3.770  11.275  13.138
 4757ETHO    C136856   3.728  11.401  13.098
 4757ETHO   H1136857   3.617  11.391  13.101
 4757ETHO   H1336858   3.742  11.482  13.173
 4757ETHO    C236859   3.779  11.441  12.962
 4757ETHO   H2136860   3.888  11.422  12.953
 4757ETHO   H2336861   3.766  11.547  12.932
 4758ETHO    O136862   3.708  11.360  12.864
 4758ETHO    C136863   3.769  11.371  12.732
 4758ETHO   H1136864   3.872  11.330  12.723
 4758ETHO   H1336865   3.787  11.481  12.734
 4758ETHO    C236866   3.679  11.319  12.626
 4758ETHO   H2136867   3.576  11.343  12.660
 4758ETHO   H2336868   3.689  11.209  12.614
 4759ETHO    O136869   3.700  11.382  12.494
 4759ETHO    C136870   3.654  11.519  12.500
 4759ETHO   H1136871   3.547  11.524  12.526
 4759ETHO   H1336872   3.706  11.577  12.579
 4759ETHO    C236873   3.685  11.590  12.360
 4759ETHO   H2136874   3.665  11.521  12.276
 4759ETHO   H2336875   3.795  11.603  12.361
 4760ETHO    O136876   3.616  11.708  12.327
 4760ETHO    C136877   3.640  11.751  12.197
 4760ETHO   H1136878   3.621  11.675  12.118
 4760ETHO   H1336879   3.749  11.773  12.192
 4760ETHO    C236880   3.553  11.879  12.161
 4760ETHO   H2136881   3.577  11.901  12.054
 4760ETHO   H2336882   3.574  11.966  12.227
 4761ETHO    O136883   3.414  11.840  12.166
 4761ETHO    C136884   3.354  11.817  12.039
 4761ETHO   H1136885   3.330  11.915  11.993
 4761ETHO   H1336886   3.435  11.767  11.982
 4761ETHO    C236887   3.223  11.731  12.026
 4761ETHO   H2136888   3.234  11.642  12.093
 4761ETHO   H2336889   3.215  11.697  11.921
 4762ETHO    O136890   3.101  11.798  12.061
 4762ETHO    C136891   2.990  11.714  12.044
 4762ETHO   H1136892   2.999  11.623  12.107
 4762ETHO   H1336893   2.989  11.679  11.939
 4762ETHO    C236894   2.867  11.788  12.085
 4762ETHO   H2136895   2.890  11.851  12.174
 4762ETHO   H2336896   2.793  11.714  12.122
 4763ETHO    O136897   2.832  11.868  11.967
 4763ETHO    C136898   2.711  11.934  11.974
 4763ETHO   H1136899   2.629  11.859  11.983
 4763ETHO   H1336900   2.706  11.997  12.065
 4763ETHO    C236901   2.669  12.017  11.851
 4763ETHO   H2136902   2.751  12.090  11.837
 4763ETHO   H2336903   2.574  12.072  11.867
 4764ETHO    O136904   2.660  11.947  11.730
 4764ETHO    C136905   2.557  11.853  11.713
 4764ETHO   H1136906   2.498  11.841  11.806
 4764ETHO   H1336907   2.486  11.891  11.636
 4764ETHO    C236908   2.598  11.709  11.684
 4764ETHO   H2136909   2.505  11.655  11.657
 4764ETHO   H2336910   2.646  11.670  11.776
 4765ETHO    O136911   2.689  11.700  11.573
 4765ETHO    C136912   2.741  11.562  11.571
 4765ETHO   H1136913   2.799  11.547  11.664
 4765ETHO   H1336914   2.654  11.494  11.571
 4765ETHO    C236915   2.838  11.533  11.454
 4765ETHO   H2136916   2.914  11.459  11.485
 4765ETHO   H2336917   2.898  11.622  11.425
 4766ETHO    O136918   2.772  11.476  11.337
 4766ETHO    C136919   2.866  11.437  11.243
 4766ETHO   H1136920   2.912  11.529  11.201
 4766ETHO   H1336921   2.938  11.370  11.295
 4766ETHO    C236922   2.791  11.355  11.134
 4766ETHO   H2136923   2.845  11.346  11.038
 4766ETHO   H2336924   2.697  11.408  11.106
 4767ETHO    O136925   2.770  11.235  11.192
 4767ETHO    C136926   2.688  11.146  11.117
 4767ETHO   H1136927   2.707  11.038  11.133
 4767ETHO   H1336928   2.720  11.166  11.012
 4767ETHO    C236929   2.539  11.170  11.138
 4767ETHO   H2136930   2.481  11.105  11.068
 4767ETHO   H2336931   2.506  11.273  11.112
 4768ETHO    O136932   2.501  11.114  11.257
 4768ETHO    C136933   2.367  11.142  11.287
 4768ETHO   H1136934   2.301  11.132  11.198
 4768ETHO   H1336935   2.363  11.252  11.304
 4768ETHO    C236936   2.315  11.073  11.410
 4768ETHO   H2136937   2.226  11.124  11.453
 4768ETHO   H2336938   2.394  11.082  11.487
 4769ETHO    O136939   2.305  10.930  11.393
 4769ETHO    C136940   2.429  10.865  11.432
 4769ETHO   H1136941   2.433  10.865  11.543
 4769ETHO   H1336942   2.512  10.912  11.376
 4769ETHO    C236943   2.432  10.718  11.380
 4769ETHO   H2136944   2.539  10.688  11.382
 4769ETHO   H2336945   2.396  10.713  11.275
 4770ETHO    O136946   2.355  10.633  11.464
 4770ETHO    C136947   2.388  10.498  11.434
 4770ETHO   H1136948   2.335  10.478  11.338
 4770ETHO   H1336949   2.498  10.488  11.422
 4770ETHO    C236950   2.344  10.402  11.543
 4770ETHO   H2136951   2.354  10.450  11.642
 4770ETHO   H2336952   2.407  10.311  11.549
 4770ETHO    OZ36953   2.212  10.351  11.524
 4770ETHO   HZ136954   2.206  10.283  11.591
 4771ETHO    O136955  15.335   8.353   5.731
 4771ETHO   HO136956  15.267   8.414   5.762
 4771ETHO    C136957  15.471   8.408   5.744
 4771ETHO   H1136958  15.534   8.323   5.709
 4771ETHO   H1336959  15.481   8.419   5.854
 4771ETHO    C236960  15.491   8.532   5.654
 4771ETHO   H2136961  15.471   8.523   5.545
 4771ETHO   H2336962  15.602   8.539   5.658
 4772ETHO    O136963  15.429   8.651   5.703
 4772ETHO    C136964  15.463   8.766   5.624
 4772ETHO   H1136965  15.572   8.787   5.627
 4772ETHO   H1336966  15.431   8.744   5.520
 4772ETHO    C236967  15.388   8.892   5.659
 4772ETHO   H2136968  15.284   8.863   5.687
 4772ETHO   H2336969  15.383   8.968   5.578
 4773ETHO    O136970  15.445   8.951   5.779
 4773ETHO    C136971  15.377   9.067   5.824
 4773ETHO   H1136972  15.271   9.079   5.793
 4773ETHO   H1336973  15.419   9.150   5.764
 4773ETHO    C236974  15.404   9.093   5.971
 4773ETHO   H2136975  15.347   9.184   6.001
 4773ETHO   H2336976  15.512   9.115   5.982
 4774ETHO    O136977  15.359   8.991   6.054
 4774ETHO    C136978  15.381   9.011   6.188
 4774ETHO   H1136979  15.473   8.955   6.213
 4774ETHO   H1336980  15.408   9.117   6.209
 4774ETHO    C236981  15.266   8.960   6.289
 4774ETHO   H2136982  15.301   8.969   6.393
 4774ETHO   H2336983  15.258   8.853   6.258
 4775ETHO    O136984  15.144   9.023   6.256
 4775ETHO    C136985  15.035   8.939   6.284
 4775ETHO   H1136986  15.052   8.835   6.250
 4775ETHO   H1336987  15.031   8.938   6.395
 4775ETHO    C236988  14.912   9.017   6.240
 4775ETHO   H2136989  14.815   8.966   6.260
 4775ETHO   H2336990  14.928   9.032   6.131
 4776ETHO    O136991  14.903   9.150   6.297
 4776ETHO    C136992  14.816   9.240   6.219
 4776ETHO   H1136993  14.842   9.242   6.111
 4776ETHO   H1336994  14.710   9.206   6.215
 4776ETHO    C236995  14.810   9.381   6.288
 4776ETHO   H2136996  14.783   9.373   6.396
 4776ETHO   H2336997  14.727   9.434   6.238
 4777ETHO    O136998  14.929   9.462   6.272
 4777ETHO    C136999  14.928   9.573   6.365
 4777ETHO   H1137000  14.822   9.606   6.380
 4777ETHO   H1337001  14.990   9.541   6.451
 4777ETHO    C237002  14.998   9.685   6.300
 4777ETHO   H2137003  14.931   9.707   6.214
 4777ETHO   H2337004  15.102   9.665   6.265
 4778ETHO    O137005  14.999   9.791   6.400
 4778ETHO    C137006  15.000   9.912   6.336
 4778ETHO   H1137007  14.895   9.938   6.310
 4778ETHO   H1337008  15.055   9.905   6.240
 4778ETHO    C237009  15.046  10.022   6.430
 4778ETHO   H2137010  15.074  10.118   6.382
 4778ETHO   H2337011  15.136   9.979   6.477
 4779ETHO    O137012  14.933  10.047   6.524
 4779ETHO    C137013  14.975  10.133   6.627
 4779ETHO   H1137014  15.069  10.099   6.674
 4779ETHO   H1337015  14.997  10.232   6.582
 4779ETHO    C237016  14.862  10.159   6.732
 4779ETHO   H2137017  14.898  10.231   6.809
 4779ETHO   H2337018  14.837  10.064   6.785
 4780ETHO    O137019  14.748  10.219   6.676
 4780ETHO    C137020  14.653  10.137   6.607
 4780ETHO   H1137021  14.560  10.120   6.665
 4780ETHO   H1337022  14.717  10.046   6.603
 4780ETHO    C237023  14.634  10.196   6.466
 4780ETHO   H2137024  14.579  10.120   6.407
 4780ETHO   H2337025  14.725  10.239   6.420
 4781ETHO    O137026  14.550  10.307   6.469
 4781ETHO    C137027  14.542  10.372   6.341
 4781ETHO   H1137028  14.465  10.452   6.351
 4781ETHO   H1337029  14.644  10.415   6.335
 4781ETHO    C237030  14.495  10.291   6.219
 4781ETHO   H2137031  14.400  10.244   6.251
 4781ETHO   H2337032  14.481  10.364   6.137
 4782ETHO    O137033  14.594  10.195   6.175
 4782ETHO    C137034  14.549  10.125   6.060
 4782ETHO   H1137035  14.543  10.188   5.968
 4782ETHO   H1337036  14.447  10.092   6.088
 4782ETHO    C237037  14.647  10.007   6.036
 4782ETHO   H2137038  14.574   9.937   5.989
 4782ETHO   H2337039  14.676   9.966   6.135
 4783ETHO    O137040  14.756  10.035   5.958
 4783ETHO    C137041  14.852  10.124   6.011
 4783ETHO   H1137042  14.819  10.229   5.995
 4783ETHO   H1337043  14.872  10.109   6.119
 4783ETHO    C237044  14.984  10.102   5.944
 4783ETHO   H2137045  15.039  10.186   5.991
 4783ETHO   H2337046  14.978  10.102   5.833
 4784ETHO    O137047  15.055   9.983   5.988
 4784ETHO    C137048  15.160   9.942   5.897
 4784ETHO   H1137049  15.227  10.027   5.872
 4784ETHO   H1337050  15.105   9.914   5.805
 4784ETHO    C237051  15.243   9.819   5.956
 4784ETHO   H2137052  15.313   9.772   5.883
 4784ETHO   H2337053  15.163   9.748   5.985
 4785ETHO    O137054  15.307   9.854   6.078
 4785ETHO    C137055  15.387   9.741   6.127
 4785ETHO   H1137056  15.329   9.647   6.129
 4785ETHO   H1337057  15.455   9.738   6.039
 4785ETHO    C237058  15.464   9.759   6.257
 4785ETHO   H2137059  15.398   9.800   6.336
 4785ETHO   H2337060  15.490   9.653   6.282
 4786ETHO    O137061  15.587   9.833   6.236
 4786ETHO    C137062  15.653   9.839   6.368
 4786ETHO   H1137063  15.597   9.906   6.436
 4786ETHO   H1337064  15.653   9.738   6.415
 4786ETHO    C237065  15.803   9.897   6.364
 4786ETHO   H2137066  15.849   9.839   6.281
 4786ETHO   H2337067  15.853   9.884   6.462
 4787ETHO    O137068  15.789  10.031   6.330
 4787ETHO    C137069  15.911  10.089   6.277
 4787ETHO   H1137070  15.984  10.006   6.274
 4787ETHO   H1337071  15.894  10.118   6.171
 4787ETHO    C237072  15.977  10.202   6.361
 4787ETHO   H2137073  16.049  10.167   6.438
 4787ETHO   H2337074  15.893  10.258   6.407
 4788ETHO    O137075  16.044  10.291   6.266
 4788ETHO    C137076  16.100  10.405   6.326
 4788ETHO   H1137077  16.029  10.450   6.399
 4788ETHO   H1337078  16.179  10.362   6.392
 4788ETHO    C237079  16.155  10.505   6.214
 4788ETHO   H2137080  16.201  10.443   6.134
 4788ETHO   H2337081  16.232  10.572   6.258
 4789ETHO    O137082  16.052  10.587   6.155
 4789ETHO    C137083  16.112  10.699   6.080
 4789ETHO   H1137084  16.177  10.664   5.997
 4789ETHO   H1337085  16.168  10.767   6.148
 4789ETHO    C237086  15.995  10.790   6.029
 4789ETHO   H2137087  16.044  10.858   5.956
 4789ETHO   H2337088  15.950  10.849   6.112
 4790ETHO    O137089  15.905  10.705   5.957
 4790ETHO    C137090  15.775  10.717   6.008
 4790ETHO   H1137091  15.770  10.646   6.093
 4790ETHO   H1337092  15.757  10.820   6.045
 4790ETHO    C237093  15.671  10.669   5.907
 4790ETHO   H2137094  15.581  10.627   5.958
 4790ETHO   H2337095  15.715  10.589   5.845
 4791ETHO    O137096  15.635  10.779   5.824
 4791ETHO    C137097  15.740  10.824   5.730
 4791ETHO   H1137098  15.748  10.738   5.660
 4791ETHO   H1337099  15.836  10.850   5.780
 4791ETHO    C237100  15.708  10.954   5.662
 4791ETHO   H2137101  15.801  10.982   5.607
 4791ETHO   H2337102  15.667  11.034   5.728
 4792ETHO    O137103  15.612  10.932   5.562
 4792ETHO    C137104  15.591  11.049   5.483
 4792ETHO   H1137105  15.635  11.135   5.538
 4792ETHO   H1337106  15.660  11.043   5.397
 4792ETHO    C237107  15.454  11.071   5.419
 4792ETHO   H2137108  15.461  11.156   5.348
 4792ETHO   H2337109  15.436  10.982   5.356
 4793ETHO    O137110  15.340  11.093   5.505
 4793ETHO    C137111  15.214  11.117   5.447
 4793ETHO   H1137112  15.197  11.034   5.375
 4793ETHO   H1337113  15.225  11.196   5.370
 4793ETHO    C237114  15.099  11.129   5.558
 4793ETHO   H2137115  15.111  11.040   5.624
 4793ETHO   H2337116  15.000  11.135   5.509
 4794ETHO    O137117  15.122  11.242   5.639
 4794ETHO    C137118  15.033  11.252   5.748
 4794ETHO   H1137119  14.929  11.244   5.712
 4794ETHO   H1337120  15.057  11.180   5.829
 4794ETHO    C237121  15.051  11.390   5.815
 4794ETHO   H2137122  15.144  11.393   5.875
 4794ETHO   H2337123  14.968  11.402   5.889
 4795ETHO    O137124  15.049  11.492   5.712
 4795ETHO    C137125  15.142  11.597   5.737
 4795ETHO   H1137126  15.239  11.548   5.763
 4795ETHO   H1337127  15.117  11.657   5.827
 4795ETHO    C237128  15.158  11.686   5.616
 4795ETHO   H2137129  15.200  11.783   5.651
 4795ETHO   H2337130  15.063  11.697   5.561
 4796ETHO    O137131  15.242  11.638   5.516
 4796ETHO    C137132  15.226  11.727   5.401
 4796ETHO   H1137133  15.123  11.747   5.367
 4796ETHO   H1337134  15.255  11.830   5.429
 4796ETHO    C237135  15.316  11.669   5.289
 4796ETHO   H2137136  15.272  11.571   5.262
 4796ETHO   H2337137  15.412  11.667   5.346
 4797ETHO    O137138  15.312  11.750   5.176
 4797ETHO    C137139  15.396  11.700   5.069
 4797ETHO   H1137140  15.361  11.599   5.039
 4797ETHO   H1337141  15.501  11.698   5.104
 4797ETHO    C237142  15.413  11.788   4.941
 4797ETHO   H2137143  15.491  11.747   4.873
 4797ETHO   H2337144  15.447  11.889   4.974
 4798ETHO    O137145  15.294  11.796   4.867
 4798ETHO    C137146  15.308  11.865   4.741
 4798ETHO   H1137147  15.347  11.967   4.764
 4798ETHO   H1337148  15.393  11.812   4.694
 4798ETHO    C237149  15.176  11.866   4.659
 4798ETHO   H2137150  15.197  11.943   4.582
 4798ETHO   H2337151  15.091  11.895   4.724
 4799ETHO    O137152  15.150  11.737   4.607
 4799ETHO    C137153  15.040  11.727   4.513
 4799ETHO   H1137154  15.043  11.806   4.434
 4799ETHO   H1337155  14.948  11.739   4.573
 4799ETHO    C237156  15.043  11.595   4.445
 4799ETHO   H2137157  14.942  11.579   4.400
 4799ETHO   H2337158  15.063  11.502   4.501
 4800ETHO    O137159  15.135  11.602   4.330
 4800ETHO    C137160  15.102  11.520   4.224
 4800ETHO   H1137161  15.070  11.423   4.268
 4800ETHO   H1337162  15.012  11.565   4.177
 4800ETHO    C237163  15.201  11.502   4.111
 4800ETHO   H2137164  15.170  11.434   4.029
 4800ETHO   H2337165  15.294  11.464   4.158
 4801ETHO    O137166  15.217  11.627   4.054
 4801ETHO    C137167  15.292  11.624   3.936
 4801ETHO   H1137168  15.360  11.537   3.942
 4801ETHO   H1337169  15.225  11.607   3.849
 4801ETHO    C237170  15.366  11.753   3.904
 4801ETHO   H2137171  15.324  11.855   3.913
 4801ETHO   H2337172  15.398  11.745   3.798
 4802ETHO    O137173  15.475  11.743   3.989
 4802ETHO    C137174  15.575  11.840   3.958
 4802ETHO   H1137175  15.599  11.848   3.850
 4802ETHO   H1337176  15.544  11.935   4.006
 4802ETHO    C237177  15.706  11.801   4.033
 4802ETHO   H2137178  15.719  11.695   4.002
 4802ETHO   H2337179  15.686  11.808   4.142
 4803ETHO    O137180  15.803  11.899   3.986
 4803ETHO    C137181  15.933  11.832   3.967
 4803ETHO   H1137182  15.953  11.761   4.050
 4803ETHO   H1337183  15.922  11.774   3.873
 4803ETHO    C237184  16.054  11.926   3.957
 4803ETHO   H2137185  16.021  11.988   3.872
 4803ETHO   H2337186  16.141  11.866   3.920
 4804ETHO    O137187  16.067  12.010   4.070
 4804ETHO    C137188  16.130  11.942   4.183
 4804ETHO   H1137189  16.153  11.834   4.167
 4804ETHO   H1337190  16.044  11.932   4.253
 4804ETHO    C237191  16.253  12.019   4.244
 4804ETHO   H2137192  16.339  12.037   4.176
 4804ETHO   H2337193  16.294  11.963   4.331
 4805ETHO    O137194  16.210  12.154   4.279
 4805ETHO    C137195  16.313  12.231   4.321
 4805ETHO   H1137196  16.346  12.186   4.417
 4805ETHO   H1337197  16.393  12.238   4.244
 4805ETHO    C237198  16.260  12.372   4.358
 4805ETHO   H2137199  16.206  12.412   4.270
 4805ETHO   H2337200  16.348  12.438   4.370
 4806ETHO    O137201  16.184  12.387   4.481
 4806ETHO    C137202  16.131  12.521   4.486
 4806ETHO   H1137203  16.160  12.580   4.396
 4806ETHO   H1337204  16.186  12.579   4.564
 4806ETHO    C237205  15.987  12.550   4.519
 4806ETHO   H2137206  15.929  12.472   4.465
 4806ETHO   H2337207  15.953  12.654   4.500
 4807ETHO    O137208  15.968  12.531   4.659
 4807ETHO    C137209  15.853  12.608   4.702
 4807ETHO   H1137210  15.884  12.714   4.713
 4807ETHO   H1337211  15.767  12.605   4.632
 4807ETHO    C237212  15.805  12.547   4.836
 4807ETHO   H2137213  15.735  12.619   4.884
 4807ETHO   H2337214  15.893  12.530   4.901
 4808ETHO    O137215  15.731  12.435   4.801
 4808ETHO    C137216  15.622  12.422   4.890
 4808ETHO   H1137217  15.559  12.513   4.877
 4808ETHO   H1337218  15.659  12.417   4.995
 4808ETHO    C237219  15.532  12.302   4.842
 4808ETHO   H2137220  15.520  12.313   4.733
 4808ETHO   H2337221  15.431  12.314   4.888
 4809ETHO    O137222  15.577  12.178   4.881
 4809ETHO    C137223  15.704  12.146   4.833
 4809ETHO   H1137224  15.718  12.175   4.726
 4809ETHO   H1337225  15.770  12.206   4.899
 4809ETHO    C237226  15.754  12.000   4.847
 4809ETHO   H2137227  15.861  11.993   4.819
 4809ETHO   H2337228  15.686  11.942   4.781
 4810ETHO    O137229  15.731  11.950   4.980
 4810ETHO    C137230  15.828  11.857   5.024
 4810ETHO   H1137231  15.924  11.913   5.034
 4810ETHO   H1337232  15.832  11.775   4.949
 4810ETHO    C237233  15.795  11.805   5.162
 4810ETHO   H2137234  15.858  11.717   5.189
 4810ETHO   H2337235  15.691  11.773   5.180
 4811ETHO    O137236  15.831  11.901   5.261
 4811ETHO    C137237  15.745  11.905   5.377
 4811ETHO   H1137238  15.636  11.925   5.366
 4811ETHO   H1337239  15.738  11.803   5.420
 4811ETHO    C237240  15.805  12.010   5.471
 4811ETHO   H2137241  15.795  12.109   5.420
 4811ETHO   H2337242  15.912  11.990   5.495
 4812ETHO    O137243  15.731  12.025   5.589
 4812ETHO    C137244  15.780  11.938   5.691
 4812ETHO   H1137245  15.886  11.951   5.720
 4812ETHO   H1337246  15.724  11.989   5.773
 4812ETHO    C237247  15.746  11.792   5.691
 4812ETHO   H2137248  15.819  11.740   5.625
 4812ETHO   H2337249  15.640  11.780   5.659
 4813ETHO    O137250  15.774  11.747   5.823
 4813ETHO    C137251  15.772  11.602   5.828
 4813ETHO   H1137252  15.743  11.575   5.932
 4813ETHO   H1337253  15.686  11.570   5.765
 4813ETHO    C237254  15.906  11.537   5.785
 4813ETHO   H2137255  15.936  11.586   5.690
 4813ETHO   H2337256  15.889  11.427   5.779
 4814ETHO    O137257  15.999  11.562   5.886
 4814ETHO    C137258  16.136  11.527   5.846
 4814ETHO   H1137259  16.140  11.422   5.811
 4814ETHO   H1337260  16.165  11.593   5.762
 4814ETHO    C237261  16.242  11.529   5.954
 4814ETHO   H2137262  16.329  11.470   5.918
 4814ETHO   H2337263  16.211  11.489   6.053
 4815ETHO    O137264  16.282  11.665   5.974
 4815ETHO    C137265  16.419  11.674   6.027
 4815ETHO   H1137266  16.489  11.631   5.952
 4815ETHO   H1337267  16.414  11.618   6.123
 4815ETHO    C237268  16.455  11.818   6.061
 4815ETHO   H2137269  16.451  11.881   5.970
 4815ETHO   H2337270  16.562  11.825   6.090
 4816ETHO    O137271  16.375  11.887   6.158
 4816ETHO    C137272  16.414  12.024   6.162
 4816ETHO   H1137273  16.429  12.048   6.269
 4816ETHO   H1337274  16.512  12.034   6.112
 4816ETHO    C237275  16.308  12.124   6.108
 4816ETHO   H2137276  16.344  12.226   6.132
 4816ETHO   H2337277  16.216  12.100   6.167
 4817ETHO    O137278  16.273  12.123   5.971
 4817ETHO    C137279  16.385  12.180   5.899
 4817ETHO   H1137280  16.458  12.096   5.894
 4817ETHO   H1337281  16.423  12.274   5.945
 4817ETHO    C237282  16.347  12.226   5.760
 4817ETHO   H2137283  16.439  12.282   5.735
 4817ETHO   H2337284  16.274  12.309   5.749
 4818ETHO    O137285  16.330  12.117   5.673
 4818ETHO    C137286  16.197  12.062   5.671
 4818ETHO   H1137287  16.170  12.038   5.776
 4818ETHO   H1337288  16.119  12.127   5.628
 4818ETHO    C237289  16.203  11.919   5.612
 4818ETHO   H2137290  16.292  11.854   5.626
 4818ETHO   H2337291  16.114  11.854   5.622
 4819ETHO    O137292  16.213  11.955   5.476
 4819ETHO    C137293  16.168  11.847   5.393
 4819ETHO   H1137294  16.065  11.824   5.429
 4819ETHO   H1337295  16.235  11.760   5.412
 4819ETHO    C237296  16.161  11.887   5.253
 4819ETHO   H2137297  16.096  11.977   5.245
 4819ETHO   H2337298  16.121  11.805   5.191
 4820ETHO    O137299  16.287  11.920   5.199
 4820ETHO    C137300  16.366  11.807   5.160
 4820ETHO   H1137301  16.371  11.729   5.238
 4820ETHO   H1337302  16.322  11.745   5.079
 4820ETHO    C237303  16.508  11.850   5.126
 4820ETHO   H2137304  16.498  11.937   5.057
 4820ETHO   H2337305  16.563  11.760   5.092
 4821ETHO    O137306  16.568  11.905   5.245
 4821ETHO    C137307  16.696  11.954   5.222
 4821ETHO   H1137308  16.697  12.037   5.296
 4821ETHO   H1337309  16.696  12.010   5.127
 4821ETHO    C237310  16.806  11.852   5.239
 4821ETHO   H2137311  16.767  11.800   5.330
 4821ETHO   H2337312  16.896  11.916   5.253
 4822ETHO    O137313  16.823  11.764   5.127
 4822ETHO    C137314  16.934  11.673   5.139
 4822ETHO   H1137315  16.935  11.632   5.243
 4822ETHO   H1337316  16.903  11.589   5.074
 4822ETHO    C237317  17.062  11.744   5.107
 4822ETHO   H2137318  17.142  11.667   5.104
 4822ETHO   H2337319  17.101  11.820   5.178
 4823ETHO    O137320  17.060  11.811   4.975
 4823ETHO    C137321  17.079  11.956   4.995
 4823ETHO   H1137322  16.992  11.989   5.056
 4823ETHO   H1337323  17.166  11.965   5.065
 4823ETHO    C237324  17.095  12.040   4.870
 4823ETHO   H2137325  17.183  11.999   4.816
 4823ETHO   H2337326  17.115  12.145   4.901
 4824ETHO    O137327  16.975  12.027   4.790
 4824ETHO    C137328  16.888  12.141   4.797
 4824ETHO   H1137329  16.855  12.175   4.897
 4824ETHO   H1337330  16.940  12.228   4.751
 4824ETHO    C237331  16.752  12.117   4.731
 4824ETHO   H2137332  16.708  12.219   4.728
 4824ETHO   H2337333  16.686  12.065   4.804
 4825ETHO    O137334  16.760  12.045   4.607
 4825ETHO    C137335  16.654  12.082   4.517
 4825ETHO   H1137336  16.555  12.087   4.567
 4825ETHO   H1337337  16.686  12.183   4.484
 4825ETHO    C237338  16.654  11.993   4.389
 4825ETHO   H2137339  16.612  12.052   4.305
 4825ETHO   H2337340  16.758  11.959   4.372
 4826ETHO    O137341  16.567  11.877   4.404
 4826ETHO    C137342  16.560  11.806   4.285
 4826ETHO   H1137343  16.522  11.872   4.204
 4826ETHO   H1337344  16.490  11.720   4.298
 4826ETHO    C237345  16.674  11.725   4.228
 4826ETHO   H2137346  16.715  11.647   4.296
 4826ETHO   H2337347  16.759  11.789   4.197
 4827ETHO    O137348  16.631  11.649   4.121
 4827ETHO    C137349  16.679  11.705   3.998
 4827ETHO   H1137350  16.666  11.816   3.995
 4827ETHO   H1337351  16.788  11.687   3.989
 4827ETHO    C237352  16.613  11.649   3.872
 4827ETHO   H2137353  16.676  11.670   3.783
 4827ETHO   H2337354  16.510  11.687   3.855
 4828ETHO    O137355  16.599  11.507   3.869
 4828ETHO    C137356  16.556  11.458   3.747
 4828ETHO   H1137357  16.528  11.541   3.679
 4828ETHO   H1337358  16.470  11.389   3.755
 4828ETHO    C237359  16.654  11.367   3.668
 4828ETHO   H2137360  16.672  11.273   3.724
 4828ETHO   H2337361  16.751  11.420   3.658
 4829ETHO    O137362  16.610  11.339   3.530
 4829ETHO    C137363  16.711  11.264   3.462
 4829ETHO   H1137364  16.805  11.322   3.471
 4829ETHO   H1337365  16.728  11.166   3.512
 4829ETHO    C237366  16.667  11.250   3.317
 4829ETHO   H2137367  16.737  11.198   3.249
 4829ETHO   H2337368  16.652  11.354   3.282
 4830ETHO    O137369  16.536  11.189   3.307
 4830ETHO    C137370  16.500  11.172   3.173
 4830ETHO   H1137371  16.507  11.268   3.117
 4830ETHO   H1337372  16.392  11.144   3.166
 4830ETHO    C237373  16.578  11.068   3.090
 4830ETHO   H2137374  16.513  11.007   3.024
 4830ETHO   H2337375  16.623  10.996   3.162
 4831ETHO    O137376  16.672  11.127   3.003
 4831ETHO    C137377  16.773  11.027   2.982
 4831ETHO   H1137378  16.845  11.041   3.066
 4831ETHO   H1337379  16.734  10.923   2.989
 4831ETHO    C237380  16.838  11.045   2.841
 4831ETHO   H2137381  16.939  11.001   2.852
 4831ETHO   H2337382  16.847  11.155   2.830
 4832ETHO    O137383  16.753  10.990   2.745
 4832ETHO    C137384  16.775  10.850   2.719
 4832ETHO   H1137385  16.718  10.781   2.785
 4832ETHO   H1337386  16.883  10.833   2.739
 4832ETHO    C237387  16.745  10.811   2.569
 4832ETHO   H2137388  16.744  10.908   2.515
 4832ETHO   H2337389  16.646  10.761   2.575
 4833ETHO    O137390  16.843  10.738   2.515
 4833ETHO    C137391  16.819  10.720   2.373
 4833ETHO   H1137392  16.728  10.663   2.347
 4833ETHO   H1337393  16.804  10.822   2.333
 4833ETHO    C237394  16.925  10.665   2.280
 4833ETHO   H2137395  16.890  10.658   2.175
 4833ETHO   H2337396  16.951  10.561   2.311
 4834ETHO    O137397  17.043  10.745   2.286
 4834ETHO    C137398  17.150  10.697   2.200
 4834ETHO   H1137399  17.113  10.682   2.096
 4834ETHO   H1337400  17.171  10.596   2.241
 4834ETHO    C237401  17.271  10.793   2.212
 4834ETHO   H2137402  17.238  10.899   2.210
 4834ETHO   H2337403  17.343  10.769   2.131
 4835ETHO    O137404  17.321  10.765   2.340
 4835ETHO    C137405  17.416  10.864   2.378
 4835ETHO   H1137406  17.399  10.960   2.326
 4835ETHO   H1337407  17.419  10.878   2.488
 4835ETHO    C237408  17.556  10.818   2.345
 4835ETHO   H2137409  17.562  10.852   2.239
 4835ETHO   H2337410  17.575  10.709   2.352
 4836ETHO    O137411  17.661  10.894   2.412
 4836ETHO    C137412  17.777  10.892   2.335
 4836ETHO   H1137413  17.763  10.947   2.240
 4836ETHO   H1337414  17.810  10.790   2.305
 4836ETHO    C237415  17.896  10.962   2.414
 4836ETHO   H2137416  17.871  11.061   2.457
 4836ETHO   H2337417  17.974  10.992   2.340
 4837ETHO    O137418  17.955  10.881   2.509
 4837ETHO    C137419  18.064  10.955   2.570
 4837ETHO   H1137420  18.127  11.008   2.495
 4837ETHO   H1337421  18.021  11.038   2.630
 4837ETHO    C237422  18.151  10.861   2.654
 4837ETHO   H2137423  18.088  10.818   2.734
 4837ETHO   H2337424  18.226  10.923   2.707
 4838ETHO    O137425  18.234  10.767   2.581
 4838ETHO    C137426  18.179  10.655   2.518
 4838ETHO   H1137427  18.122  10.592   2.589
 4838ETHO   H1337428  18.110  10.696   2.440
 4838ETHO    C237429  18.282  10.567   2.450
 4838ETHO   H2137430  18.352  10.639   2.403
 4838ETHO   H2337431  18.228  10.499   2.381
 4839ETHO    O137432  18.339  10.488   2.555
 4839ETHO    C137433  18.425  10.392   2.506
 4839ETHO   H1137434  18.370  10.328   2.435
 4839ETHO   H1337435  18.512  10.449   2.467
 4839ETHO    C237436  18.475  10.286   2.617
 4839ETHO   H2137437  18.492  10.187   2.568
 4839ETHO   H2337438  18.391  10.270   2.688
 4840ETHO    O137439  18.595  10.330   2.688
 4840ETHO    C137440  18.678  10.233   2.745
 4840ETHO   H1137441  18.721  10.178   2.659
 4840ETHO   H1337442  18.764  10.283   2.795
 4840ETHO    C237443  18.612  10.154   2.855
 4840ETHO   H2137444  18.583  10.222   2.939
 4840ETHO   H2337445  18.694  10.091   2.894
 4841ETHO    O137446  18.504  10.065   2.801
 4841ETHO    C137447  18.475   9.951   2.885
 4841ETHO   H1137448  18.568   9.909   2.929
 4841ETHO   H1337449  18.434   9.870   2.821
 4841ETHO    C237450  18.378   9.983   2.997
 4841ETHO   H2137451  18.335   9.887   3.030
 4841ETHO   H2337452  18.303  10.054   2.955
 4842ETHO    O137453  18.445  10.048   3.109
 4842ETHO    C137454  18.358  10.083   3.215
 4842ETHO   H1137455  18.286  10.161   3.182
 4842ETHO   H1337456  18.319   9.984   3.248
 4842ETHO    C237457  18.406  10.137   3.355
 4842ETHO   H2137458  18.463  10.061   3.413
 4842ETHO   H2337459  18.312  10.165   3.407
 4843ETHO    O137460  18.477  10.261   3.346
 4843ETHO    C137461  18.544  10.288   3.468
 4843ETHO   H1137462  18.619  10.209   3.490
 4843ETHO   H1337463  18.473  10.282   3.553
 4843ETHO    C237464  18.619  10.418   3.469
 4843ETHO   H2137465  18.686  10.415   3.380
 4843ETHO   H2337466  18.685  10.422   3.558
 4844ETHO    O137467  18.550  10.542   3.489
 4844ETHO    C137468  18.492  10.609   3.372
 4844ETHO   H1137469  18.579  10.635   3.308
 4844ETHO   H1337470  18.423  10.539   3.321
 4844ETHO    C237471  18.427  10.744   3.412
 4844ETHO   H2137472  18.418  10.811   3.323
 4844ETHO   H2337473  18.491  10.792   3.489
 4845ETHO    O137474  18.300  10.722   3.468
 4845ETHO    C137475  18.244  10.835   3.530
 4845ETHO   H1137476  18.231  10.920   3.459
 4845ETHO   H1337477  18.309  10.867   3.614
 4845ETHO    C237478  18.108  10.800   3.589
 4845ETHO   H2137479  18.101  10.697   3.633
 4845ETHO   H2337480  18.027  10.817   3.515
 4846ETHO    O137481  18.086  10.899   3.694
 4846ETHO    C137482  17.950  10.955   3.708
 4846ETHO   H1137483  17.928  11.025   3.624
 4846ETHO   H1337484  17.870  10.879   3.721
 4846ETHO    C237485  17.947  11.034   3.839
 4846ETHO   H2137486  17.845  11.074   3.854
 4846ETHO   H2337487  18.019  11.118   3.828
 4847ETHO    O137488  17.967  10.953   3.958
 4847ETHO    C137489  17.922  11.016   4.086
 4847ETHO   H1137490  17.814  11.041   4.079
 4847ETHO   H1337491  17.982  11.109   4.099
 4847ETHO    C237492  17.955  10.921   4.200
 4847ETHO   H2137493  17.922  10.963   4.298
 4847ETHO   H2337494  18.063  10.897   4.208
 4848ETHO    O137495  17.884  10.795   4.187
 4848ETHO    C137496  17.908  10.707   4.298
 4848ETHO   H1137497  17.846  10.615   4.292
 4848ETHO   H1337498  18.007  10.659   4.285
 4848ETHO    C237499  17.880  10.755   4.444
 4848ETHO   H2137500  17.936  10.844   4.477
 4848ETHO   H2337501  17.924  10.680   4.512
 4849ETHO    O137502  17.743  10.762   4.495
 4849ETHO    C137503  17.684  10.884   4.452
 4849ETHO   H1137504  17.751  10.968   4.482
 4849ETHO   H1337505  17.661  10.890   4.343
 4849ETHO    C237506  17.559  10.905   4.540
 4849ETHO   H2137507  17.540  11.014   4.551
 4849ETHO   H2337508  17.580  10.864   4.642
 4850ETHO    O137509  17.441  10.835   4.492
 4850ETHO    C137510  17.329  10.921   4.498
 4850ETHO   H1137511  17.301  10.953   4.601
 4850ETHO   H1337512  17.341  11.014   4.439
 4850ETHO    C237513  17.201  10.847   4.437
 4850ETHO   H2137514  17.232  10.790   4.347
 4850ETHO   H2337515  17.127  10.921   4.401
 4851ETHO    O137516  17.142  10.764   4.532
 4851ETHO    C137517  17.013  10.716   4.487
 4851ETHO   H1137518  16.950  10.806   4.505
 4851ETHO   H1337519  17.008  10.690   4.379
 4851ETHO    C237520  16.949  10.597   4.566
 4851ETHO   H2137521  16.858  10.567   4.509
 4851ETHO   H2337522  17.025  10.517   4.578
 4852ETHO    O137523  16.909  10.638   4.696
 4852ETHO    C137524  16.852  10.529   4.767
 4852ETHO   H1137525  16.934  10.479   4.824
 4852ETHO   H1337526  16.814  10.456   4.693
 4852ETHO    C237527  16.741  10.554   4.863
 4852ETHO   H2137528  16.769  10.635   4.934
 4852ETHO   H2337529  16.725  10.461   4.921
 4853ETHO    O137530  16.629  10.591   4.787
 4853ETHO    C137531  16.510  10.606   4.867
 4853ETHO   H1137532  16.462  10.511   4.900
 4853ETHO   H1337533  16.532  10.663   4.960
 4853ETHO    C237534  16.401  10.687   4.792
 4853ETHO   H2137535  16.303  10.669   4.842
 4853ETHO   H2337536  16.392  10.643   4.691
 4854ETHO    O137537  16.435  10.827   4.793
 4854ETHO    C137538  16.349  10.892   4.698
 4854ETHO   H1137539  16.248  10.845   4.697
 4854ETHO   H1337540  16.404  10.878   4.603
 4854ETHO    C237541  16.337  11.037   4.742
 4854ETHO   H2137542  16.295  11.102   4.662
 4854ETHO   H2337543  16.440  11.073   4.762
 4855ETHO    O137544  16.265  11.046   4.863
 4855ETHO    C137545  16.302  11.168   4.926
 4855ETHO   H1137546  16.412  11.168   4.946
 4855ETHO   H1337547  16.267  11.255   4.866
 4855ETHO    C237548  16.219  11.184   5.060
 4855ETHO   H2137549  16.115  11.146   5.058
 4855ETHO   H2337550  16.209  11.290   5.092
 4856ETHO    O137551  16.289  11.122   5.172
 4856ETHO    C137552  16.388  11.209   5.234
 4856ETHO   H1137553  16.348  11.294   5.293
 4856ETHO   H1337554  16.462  11.261   5.169
 4856ETHO    C237555  16.466  11.110   5.320
 4856ETHO   H2137556  16.547  11.166   5.371
 4856ETHO   H2337557  16.514  11.031   5.259
 4857ETHO    O137558  16.386  11.047   5.427
 4857ETHO    C137559  16.450  10.940   5.490
 4857ETHO   H1137560  16.465  10.866   5.409
 4857ETHO   H1337561  16.552  10.966   5.526
 4857ETHO    C237562  16.373  10.874   5.607
 4857ETHO   H2137563  16.449  10.815   5.663
 4857ETHO   H2337564  16.292  10.820   5.555
 4858ETHO    O137565  16.331  10.986   5.691
 4858ETHO    C137566  16.354  10.944   5.824
 4858ETHO   H1137567  16.459  10.913   5.841
 4858ETHO   H1337568  16.284  10.859   5.839
 4858ETHO    C237569  16.299  11.047   5.922
 4858ETHO   H2137570  16.364  11.134   5.899
 4858ETHO   H2337571  16.327  11.024   6.027
 4859ETHO    O137572  16.163  11.066   5.905
 4859ETHO    C137573  16.109  11.138   6.015
 4859ETHO   H1137574  16.124  11.073   6.105
 4859ETHO   H1337575  16.173  11.227   6.032
 4859ETHO    C237576  15.959  11.179   6.015
 4859ETHO   H2137577  15.901  11.092   5.977
 4859ETHO   H2337578  15.930  11.257   5.940
 4860ETHO    O137579  15.923  11.222   6.149
 4860ETHO    C137580  15.873  11.359   6.145
 4860ETHO   H1137581  15.951  11.434   6.117
 4860ETHO   H1337582  15.800  11.369   6.063
 4860ETHO    C237583  15.792  11.379   6.280
 4860ETHO   H2137584  15.715  11.299   6.289
 4860ETHO   H2337585  15.753  11.483   6.278
 4861ETHO    O137586  15.871  11.373   6.397
 4861ETHO    C137587  15.960  11.482   6.403
 4861ETHO   H1137588  16.040  11.473   6.326
 4861ETHO   H1337589  15.898  11.571   6.383
 4861ETHO    C237590  16.034  11.495   6.537
 4861ETHO   H2137591  16.115  11.571   6.529
 4861ETHO   H2337592  16.093  11.402   6.550
 4862ETHO    O137593  15.951  11.530   6.650
 4862ETHO    C137594  16.025  11.542   6.766
 4862ETHO   H1137595  16.061  11.439   6.790
 4862ETHO   H1337596  16.108  11.616   6.771
 4862ETHO    C237597  15.930  11.569   6.884
 4862ETHO   H2137598  15.834  11.514   6.871
 4862ETHO   H2337599  15.904  11.677   6.897
 4863ETHO    O137600  15.996  11.503   6.999
 4863ETHO    C137601  15.896  11.503   7.105
 4863ETHO   H1137602  15.816  11.431   7.079
 4863ETHO   H1337603  15.857  11.607   7.109
 4863ETHO    C237604  15.947  11.459   7.240
 4863ETHO   H2137605  16.058  11.461   7.243
 4863ETHO   H2337606  15.929  11.350   7.253
 4864ETHO    O137607  15.901  11.533   7.354
 4864ETHO    C137608  15.928  11.462   7.471
 4864ETHO   H1137609  15.837  11.400   7.490
 4864ETHO   H1337610  16.016  11.399   7.449
 4864ETHO    C237611  15.943  11.550   7.601
 4864ETHO   H2137612  16.012  11.633   7.576
 4864ETHO   H2337613  15.998  11.492   7.678
 4865ETHO    O137614  15.822  11.612   7.643
 4865ETHO    C137615  15.752  11.512   7.727
 4865ETHO   H1137616  15.819  11.481   7.811
 4865ETHO   H1337617  15.736  11.417   7.672
 4865ETHO    C237618  15.618  11.563   7.767
 4865ETHO   H2137619  15.549  11.480   7.793
 4865ETHO   H2337620  15.567  11.620   7.687
 4866ETHO    O137621  15.628  11.649   7.887
 4866ETHO    C137622  15.499  11.700   7.917
 4866ETHO   H1137623  15.436  11.724   7.829
 4866ETHO   H1337624  15.448  11.618   7.972
 4866ETHO    C237625  15.504  11.827   8.003
 4866ETHO   H2137626  15.563  11.802   8.094
 4866ETHO   H2337627  15.401  11.839   8.042
 4867ETHO    O137628  15.549  11.944   7.937
 4867ETHO    C137629  15.456  12.058   7.949
 4867ETHO   H1137630  15.350  12.045   7.919
 4867ETHO   H1337631  15.486  12.139   7.879
 4867ETHO    C237632  15.463  12.124   8.090
 4867ETHO   H2137633  15.411  12.221   8.078
 4867ETHO   H2337634  15.567  12.134   8.128
 4868ETHO    O137635  15.383  12.041   8.182
 4868ETHO    C137636  15.423  12.072   8.319
 4868ETHO   H1137637  15.529  12.047   8.340
 4868ETHO   H1337638  15.419  12.181   8.336
 4868ETHO    C237639  15.330  12.018   8.431
 4868ETHO   H2137640  15.377  12.041   8.529
 4868ETHO   H2337641  15.332  11.908   8.415
 4869ETHO    O137642  15.195  12.072   8.417
 4869ETHO    C137643  15.101  12.009   8.502
 4869ETHO   H1137644  15.007  12.067   8.493
 4869ETHO   H1337645  15.133  12.013   8.609
 4869ETHO    C237646  15.062  11.864   8.465
 4869ETHO   H2137647  15.084  11.861   8.356
 4869ETHO   H2337648  14.954  11.840   8.469
 4870ETHO    O137649  15.151  11.783   8.550
 4870ETHO    C137650  15.067  11.706   8.629
 4870ETHO   H1137651  14.989  11.760   8.686
 4870ETHO   H1337652  15.010  11.636   8.564
 4870ETHO    C237653  15.149  11.623   8.725
 4870ETHO   H2137654  15.257  11.615   8.704
 4870ETHO   H2337655  15.101  11.523   8.727
 4871PROX    O137656  15.139  11.690   8.855
 4871PROX    C137657  15.211  11.617   8.960
 4871PROX   H1137658  15.165  11.516   8.965
 4871PROX   H1337659  15.316  11.595   8.933
 4871PROX    C237660  15.208  11.684   9.091
 4871PROX   H2137661  15.100  11.696   9.113
 4871PROX    C337662  15.295  11.810   9.109
 4871PROX   H3137663  15.302  11.828   9.219
 4871PROX   H3237664  15.393  11.799   9.060
 4871PROX   H3337665  15.243  11.894   9.057
 4872PROX    O137666  15.266  11.596   9.187
 4872PROX    C137667  15.178  11.526   9.267
 4872PROX   H1137668  15.101  11.479   9.203
 4872PROX   H1337669  15.250  11.456   9.314
 4872PROX    C237670  15.122  11.619   9.386
 4872PROX   H2137671  15.090  11.719   9.351
 4872PROX    C337672  15.213  11.628   9.508
 4872PROX   H3137673  15.163  11.674   9.596
 4872PROX   H3237674  15.245  11.530   9.548
 4872PROX   H3337675  15.306  11.688   9.491
 4873PROX    O137676  15.003  11.563   9.436
 4873PROX    C137677  14.895  11.584   9.339
 4873PROX   H1137678  14.878  11.694   9.348
 4873PROX   H1337679  14.927  11.566   9.235
 4873PROX    C237680  14.770  11.495   9.374
 4873PROX   H2137681  14.750  11.525   9.479
 4873PROX    C337682  14.808  11.340   9.374
 4873PROX   H3137683  14.711  11.287   9.365
 4873PROX   H3237684  14.869  11.329   9.282
 4873PROX   H3337685  14.861  11.324   9.470
 4874PROX    O137686  14.666  11.527   9.288
 4874PROX    C137687  14.584  11.635   9.341
 4874PROX   H1137688  14.537  11.579   9.424
 4874PROX   H1337689  14.636  11.718   9.393
 4874PROX    C237690  14.485  11.691   9.235
 4874PROX   H2137691  14.405  11.745   9.290
 4874PROX    C337692  14.411  11.575   9.157
 4874PROX   H3137693  14.357  11.506   9.226
 4874PROX   H3237694  14.338  11.628   9.092
 4874PROX   H3337695  14.485  11.516   9.099
 4875PROX    O137696  14.554  11.787   9.147
 4875PROX    C137697  14.680  11.744   9.094
 4875PROX   H1137698  14.768  11.787   9.147
 4875PROX   H1337699  14.685  11.633   9.084
 4875PROX    C237700  14.671  11.786   8.938
 4875PROX   H2137701  14.566  11.768   8.908
 4875PROX    C337702  14.754  11.694   8.830
 4875PROX   H3137703  14.777  11.742   8.733
 4875PROX   H3237704  14.854  11.669   8.872
 4875PROX   H3337705  14.698  11.602   8.804
 4876PROX    O137706  14.693  11.923   8.923
 4876PROX    C137707  14.820  11.966   8.962
 4876PROX   H1137708  14.851  11.938   9.065
 4876PROX   H1337709  14.894  11.915   8.897
 4876PROX    C237710  14.837  12.117   8.924
 4876PROX   H2137711  14.764  12.186   8.971
 4876PROX    C337712  14.810  12.137   8.770
 4876PROX   H3137713  14.850  12.237   8.742
 4876PROX   H3237714  14.865  12.069   8.701
 4876PROX   H3337715  14.705  12.137   8.735
 4877PROX    O137716  14.965  12.165   8.966
 4877PROX    C137717  15.082  12.098   8.909
 4877PROX   H1137718  15.098  12.011   8.977
 4877PROX   H1337719  15.067  12.070   8.803
 4877PROX    C237720  15.215  12.182   8.935
 4877PROX   H2137721  15.176  12.283   8.911
 4877PROX    C337722  15.328  12.149   8.844
 4877PROX   H3137723  15.404  12.229   8.846
 4877PROX   H3237724  15.374  12.056   8.885
 4877PROX   H3337725  15.288  12.139   8.741
 4878PROX    O137726  15.247  12.170   9.073
 4878PROX    C137727  15.201  12.287   9.146
 4878PROX   H1137728  15.262  12.374   9.112
 4878PROX   H1337729  15.093  12.310   9.134
 4878PROX    C237730  15.228  12.271   9.298
 4878PROX   H2137731  15.179  12.174   9.322
 4878PROX    C337732  15.160  12.371   9.381
 4878PROX   H3137733  15.177  12.479   9.361
 4878PROX   H3237734  15.052  12.351   9.367
 4878PROX   H3337735  15.179  12.350   9.488
 4879PROX    O137736  15.369  12.254   9.318
 4879PROX    C137737  15.398  12.147   9.407
 4879PROX   H1137738  15.384  12.177   9.513
 4879PROX   H1337739  15.335  12.059   9.383
 4879PROX    C237740  15.545  12.094   9.398
 4879PROX   H2137741  15.612  12.174   9.435
 4879PROX    C337742  15.585  12.045   9.252
 4879PROX   H3137743  15.505  11.991   9.195
 4879PROX   H3237744  15.612  12.138   9.198
 4879PROX   H3337745  15.677  11.984   9.261
 4880PROX    O137746  15.559  11.983   9.488
 4880PROX    C137747  15.566  12.012   9.624
 4880PROX   H1137748  15.668  11.975   9.651
 4880PROX   H1337749  15.552  12.120   9.644
 4880PROX    C237750  15.458  11.943   9.704
 4880PROX   H2137751  15.470  11.974   9.810
 4880PROX    C337752  15.478  11.790   9.699
 4880PROX   H3137753  15.567  11.748   9.751
 4880PROX   H3237754  15.384  11.737   9.725
 4880PROX   H3337755  15.508  11.764   9.595
 4881PROX    O137756  15.336  11.998   9.661
 4881PROX    C137757  15.228  11.976   9.751
 4881PROX   H1137758  15.205  11.868   9.748
 4881PROX   H1337759  15.253  12.017   9.851
 4881PROX    C237760  15.104  12.037   9.687
 4881PROX   H2137761  15.104  12.008   9.580
 4881PROX    C337762  15.098  12.194   9.689
 4881PROX   H3137763  15.016  12.239   9.629
 4881PROX   H3237764  15.086  12.234   9.792
 4881PROX   H3337765  15.194  12.232   9.649
 4882PROX    O137766  14.985  11.997   9.763
 4882PROX    C137767  14.935  11.869   9.726
 4882PROX   H1137768  14.986  11.822   9.639
 4882PROX   H1337769  14.957  11.801   9.812
 4882PROX    C237770  14.782  11.866   9.702
 4882PROX   H2137771  14.727  11.925   9.779
 4882PROX    C337772  14.732  11.725   9.731
 4882PROX   H3137773  14.785  11.649   9.668
 4882PROX   H3237774  14.754  11.712   9.839
 4882PROX   H3337775  14.622  11.724   9.717
 4883PROX    O137776  14.749  11.908   9.567
 4883PROX    C137777  14.747  12.061   9.546
 4883PROX   H1137778  14.651  12.105   9.582
 4883PROX   H1337779  14.836  12.103   9.597
 4883PROX    C237780  14.754  12.083   9.393
 4883PROX   H2137781  14.690  12.011   9.337
 4883PROX    C337782  14.893  12.069   9.334
 4883PROX   H3137783  14.920  11.966   9.365
 4883PROX   H3237784  14.906  12.081   9.224
 4883PROX   H3337785  14.960  12.146   9.377
 4884PROX    O137786  14.721  12.219   9.371
 4884PROX    C137787  14.701  12.246   9.229
 4884PROX   H1137788  14.753  12.341   9.205
 4884PROX   H1337789  14.738  12.167   9.161
 4884PROX    C237790  14.552  12.266   9.202
 4884PROX   H2137791  14.501  12.279   9.299
 4884PROX    C337792  14.499  12.150   9.112
 4884PROX   H3137793  14.528  12.053   9.159
 4884PROX   H3237794  14.388  12.155   9.110
 4884PROX   H3337795  14.530  12.157   9.006
 4885PROX    O137796  14.526  12.383   9.127
 4885PROX    C137797  14.520  12.498   9.204
 4885PROX   H1137798  14.440  12.481   9.280
 4885PROX   H1337799  14.619  12.511   9.252
 4885PROX    C237800  14.477  12.626   9.122
 4885PROX   H2137801  14.402  12.597   9.046
 4885PROX    C337802  14.597  12.685   9.040
 4885PROX   H3137803  14.677  12.713   9.112
 4885PROX   H3237804  14.632  12.601   8.976
 4885PROX   H3337805  14.562  12.775   8.985
 4886PROX    O137806  14.403  12.721   9.202
 4886PROX    C137807  14.476  12.794   9.295
 4886PROX   H1137808  14.559  12.734   9.338
 4886PROX   H1337809  14.514  12.880   9.237
 4886PROX    C237810  14.386  12.844   9.409
 4886PROX   H2137811  14.361  12.750   9.463
 4886PROX    C337812  14.255  12.913   9.367
 4886PROX   H3137813  14.215  12.875   9.271
 4886PROX   H3237814  14.184  12.922   9.452
 4886PROX   H3337815  14.275  13.018   9.338
 4887PROX    O137816  14.449  12.940   9.482
 4887PROX    C137817  14.528  12.881   9.581
 4887PROX   H1137818  14.553  12.773   9.568
 4887PROX   H1337819  14.624  12.936   9.592
 4887PROX    C237820  14.458  12.892   9.716
 4887PROX   H2137821  14.375  12.818   9.719
 4887PROX    C337822  14.406  13.034   9.735
 4887PROX   H3137823  14.342  13.071   9.652
 4887PROX   H3237824  14.344  13.045   9.826
 4887PROX   H3337825  14.498  13.096   9.738
 4888PROX    O137826  14.554  12.868   9.817
 4888PROX    C137827  14.578  12.724   9.837
 4888PROX   H1137828  14.491  12.667   9.874
 4888PROX   H1337829  14.596  12.682   9.735
 4888PROX    C237830  14.708  12.699   9.923
 4888PROX   H2137831  14.692  12.738  10.026
 4888PROX    C337832  14.830  12.769   9.855
 4888PROX   H3137833  14.928  12.744   9.902
 4888PROX   H3237834  14.826  12.747   9.746
 4888PROX   H3337835  14.833  12.878   9.873
 4889PROX    O137836  14.744  12.563   9.930
 4889PROX    C137837  14.688  12.505  10.043
 4889PROX   H1137838  14.698  12.562  10.137
 4889PROX   H1337839  14.580  12.480  10.029
 4889PROX    C237840  14.765  12.371  10.067
 4889PROX   H2137841  14.867  12.402  10.097
 4889PROX    C337842  14.793  12.282   9.939
 4889PROX   H3137843  14.854  12.342   9.867
 4889PROX   H3237844  14.855  12.194   9.968
 4889PROX   H3337845  14.708  12.229   9.891
 4890PROX    O137846  14.712  12.300  10.176
 4890PROX    C137847  14.742  12.366  10.306
 4890PROX   H1137848  14.834  12.428  10.314
 4890PROX   H1337849  14.661  12.427  10.350
 4890PROX    C237850  14.760  12.262  10.422
 4890PROX   H2137851  14.854  12.203  10.412
 4890PROX    C337852  14.637  12.170  10.435
 4890PROX   H3137853  14.612  12.116  10.341
 4890PROX   H3237854  14.661  12.089  10.508
 4890PROX   H3337855  14.557  12.237  10.473
 4891PROX    O137856  14.776  12.336  10.542
 4891PROX    C137857  14.822  12.266  10.658
 4891PROX   H1137858  14.789  12.322  10.749
 4891PROX   H1337859  14.776  12.165  10.663
 4891PROX    C237860  14.986  12.270  10.662
 4891PROX   H2137861  15.014  12.218  10.757
 4891PROX    C337862  15.031  12.417  10.675
 4891PROX   H3137863  15.134  12.439  10.708
 4891PROX   H3237864  15.002  12.468  10.580
 4891PROX   H3337865  14.978  12.464  10.761
 4892PROX    O137866  15.041  12.209  10.550
 4892PROX    C137867  15.179  12.237  10.533
 4892PROX   H1137868  15.181  12.316  10.454
 4892PROX   H1337869  15.227  12.275  10.625
 4892PROX    C237870  15.256  12.116  10.466
 4892PROX   H2137871  15.193  12.085  10.380
 4892PROX    C337872  15.264  11.991  10.545
 4892PROX   H3137873  15.320  11.929  10.472
 4892PROX   H3237874  15.313  12.020  10.641
 4892PROX   H3337875  15.165  11.943  10.560
 4893PROX    O137876  15.392  12.147  10.433
 4893PROX    C137877  15.396  12.228  10.313
 4893PROX   H1137878  15.339  12.174  10.234
 4893PROX   H1337879  15.339  12.322  10.331
 4893PROX    C237880  15.541  12.263  10.281
 4893PROX   H2137881  15.606  12.173  10.290
 4893PROX    C337882  15.590  12.368  10.384
 4893PROX   H3137883  15.550  12.338  10.483
 4893PROX   H3237884  15.700  12.351  10.395
 4893PROX   H3337885  15.554  12.470  10.357
 4894PROX    O137886  15.557  12.305  10.146
 4894PROX    C137887  15.479  12.412  10.100
 4894PROX   H1137888  15.371  12.387  10.103
 4894PROX   H1337889  15.494  12.502  10.163
 4894PROX    C237890  15.500  12.440   9.952
 4894PROX   H2137891  15.499  12.343   9.899
 4894PROX    C337892  15.644  12.505   9.938
 4894PROX   H3137893  15.701  12.468   9.849
 4894PROX   H3237894  15.635  12.615   9.930
 4894PROX   H3337895  15.700  12.494  10.033
 4895PROX    O137896  15.396  12.524   9.908
 4895PROX    C137897  15.366  12.514   9.768
 4895PROX   H1137898  15.452  12.528   9.700
 4895PROX   H1337899  15.335  12.409   9.744
 4895PROX    C237900  15.255  12.611   9.734
 4895PROX   H2137901  15.289  12.711   9.768
 4895PROX    C337902  15.126  12.576   9.807
 4895PROX   H3137903  15.094  12.470   9.801
 4895PROX   H3237904  15.144  12.604   9.913
 4895PROX   H3337905  15.046  12.642   9.767
 4896PROX    O137906  15.229  12.612   9.593
 4896PROX    C137907  15.337  12.664   9.517
 4896PROX   H1137908  15.422  12.695   9.582
 4896PROX   H1337909  15.363  12.573   9.460
 4896PROX    C237910  15.298  12.782   9.423
 4896PROX   H2137911  15.200  12.762   9.373
 4896PROX    C337912  15.414  12.804   9.333
 4896PROX   H3137913  15.457  12.707   9.301
 4896PROX   H3237914  15.381  12.861   9.243
 4896PROX   H3337915  15.493  12.855   9.392
 4897PROX    O137916  15.288  12.898   9.493
 4897PROX    C137917  15.153  12.915   9.546
 4897PROX   H1137918  15.092  12.949   9.459
 4897PROX   H1337919  15.105  12.825   9.591
 4897PROX    C237920  15.144  13.020   9.657
 4897PROX   H2137921  15.196  13.108   9.613
 4897PROX    C337922  15.205  12.970   9.789
 4897PROX   H3137923  15.309  12.934   9.780
 4897PROX   H3237924  15.209  13.058   9.857
 4897PROX   H3337925  15.147  12.883   9.825
 4898PROX    O137926  15.006  13.061   9.671
 4898PROX    C137927  14.977  13.156   9.773
 4898PROX   H1137928  15.004  13.112   9.871
 4898PROX   H1337929  15.037  13.247   9.749
 4898PROX    C237930  14.832  13.204   9.779
 4898PROX   H2137931  14.758  13.122   9.787
 4898PROX    C337932  14.811  13.294   9.658
 4898PROX   H3137933  14.705  13.327   9.652
 4898PROX   H3237934  14.867  13.389   9.672
 4898PROX   H3337935  14.842  13.246   9.563
 4899PROX    O137936  14.815  13.283   9.887
 4899PROX    C137937  14.686  13.276   9.945
 4899PROX   H1137938  14.664  13.371   9.998
 4899PROX   H1337939  14.607  13.265   9.868
 4899PROX    C237940  14.660  13.152  10.036
 4899PROX   H2137941  14.642  13.068   9.966
 4899PROX    C337942  14.518  13.170  10.106
 4899PROX   H3137943  14.435  13.213  10.047
 4899PROX   H3237944  14.476  13.079  10.154
 4899PROX   H3337945  14.545  13.243  10.185
 4900PROX    O137946  14.766  13.124  10.125
 4900PROX    C137947  14.737  13.007  10.198
 4900PROX   H1137948  14.655  13.025  10.271
 4900PROX   H1337949  14.706  12.929  10.125
 4900PROX    C237950  14.861  12.951  10.271
 4900PROX   H2137951  14.877  13.026  10.352
 4900PROX    C337952  14.985  12.938  10.189
 4900PROX   H3137953  15.005  13.040  10.148
 4900PROX   H3237954  15.070  12.903  10.250
 4900PROX   H3337955  14.971  12.875  10.099
 4901PROX    O137956  14.813  12.831  10.330
 4901PROX    C137957  14.779  12.843  10.468
 4901PROX   H1137958  14.871  12.852  10.528
 4901PROX   H1337959  14.714  12.929  10.493
 4901PROX    C237960  14.720  12.714  10.506
 4901PROX   H2137961  14.801  12.642  10.480
 4901PROX    C337962  14.591  12.684  10.420
 4901PROX   H3137963  14.606  12.716  10.314
 4901PROX   H3237964  14.557  12.578  10.426
 4901PROX   H3337965  14.508  12.752  10.448
 4902PROX    O137966  14.683  12.712  10.642
 4902PROX    C137967  14.664  12.584  10.695
 4902PROX   H1137968  14.589  12.514  10.653
 4902PROX   H1337969  14.759  12.529  10.680
 4902PROX    C237970  14.629  12.588  10.845
 4902PROX   H2137971  14.528  12.636  10.852
 4902PROX    C337972  14.729  12.674  10.925
 4902PROX   H3137973  14.829  12.628  10.935
 4902PROX   H3237974  14.746  12.775  10.882
 4902PROX   H3337975  14.690  12.680  11.029
 4903PROX    O137976  14.636  12.456  10.883
 4903PROX    C137977  14.615  12.429  11.024
 4903PROX   H1137978  14.714  12.437  11.073
 4903PROX   H1337979  14.537  12.493  11.071
 4903PROX    C237980  14.585  12.279  11.049
 4903PROX   H2137981  14.542  12.273  11.152
 4903PROX    C337982  14.716  12.205  11.035
 4903PROX   H3137983  14.754  12.222  10.932
 4903PROX   H3237984  14.794  12.249  11.102
 4903PROX   H3337985  14.707  12.098  11.062
 4904PROX    O137986  14.480  12.224  10.972
 4904PROX    C137987  14.364  12.304  10.970
 4904PROX   H1137988  14.327  12.312  11.075
 4904PROX   H1337989  14.385  12.409  10.938
 4904PROX    C237990  14.249  12.247  10.887
 4904PROX   H2137991  14.205  12.157  10.935
 4904PROX    C337992  14.294  12.236  10.746
 4904PROX   H3137993  14.385  12.173  10.749
 4904PROX   H3237994  14.218  12.181  10.685
 4904PROX   H3337995  14.305  12.334  10.695
 4905PROX    O137996  14.155  12.341  10.892
 4905PROX    C137997  14.029  12.306  10.834
 4905PROX   H1137998  14.035  12.256  10.735
 4905PROX   H1337999  13.969  12.246  10.906
 4905PROX    C238000  13.955  12.433  10.808
 4905PROX   H2138001  13.954  12.500  10.897
 4905PROX    C338002  13.807  12.422  10.765
 4905PROX   H3138003  13.811  12.366  10.670
 4905PROX   H3238004  13.747  12.372  10.845
 4905PROX   H3338005  13.766  12.525  10.751
 4906PROX    O138006  14.022  12.504  10.708
 4906PROX    C138007  14.059  12.640  10.740
 4906PROX   H1138008  13.966  12.701  10.740
 4906PROX   H1338009  14.116  12.635  10.835
 4906PROX    C238010  14.156  12.690  10.636
 4906PROX   H2138011  14.109  12.655  10.542
 4906PROX    C338012  14.304  12.636  10.638
 4906PROX   H3138013  14.314  12.531  10.671
 4906PROX   H3238014  14.338  12.655  10.533
 4906PROX   H3338015  14.368  12.700  10.703
 4907PROX    O138016  14.156  12.833  10.633
 4907PROX    C138017  14.053  12.890  10.563
 4907PROX   H1138018  13.985  12.808  10.530
 4907PROX   H1338019  14.003  12.959  10.633
 4907PROX    C238020  14.098  12.972  10.435
 4907PROX   H2138021  14.159  12.908  10.367
 4907PROX    C338022  14.188  13.082  10.485
 4907PROX   H3138023  14.278  13.038  10.533
 4907PROX   H3238024  14.232  13.135  10.398
 4907PROX   H3338025  14.145  13.147  10.565
 4908PROX    O138026  13.990  13.030  10.371
 4908PROX    C138027  13.991  12.998  10.229
 4908PROX   H1138028  14.087  13.018  10.178
 4908PROX   H1338029  13.979  12.888  10.214
 4908PROX    C238030  13.875  13.072  10.156
 4908PROX   H2138031  13.858  13.166  10.213
 4908PROX    C338032  13.741  13.004  10.178
 4908PROX   H3138033  13.749  12.898  10.146
 4908PROX   H3238034  13.702  13.014  10.282
 4908PROX   H3338035  13.663  13.054  10.116
 4909PROX    O138036  13.908  13.094  10.019
 4909PROX    C138037  13.927  12.978   9.941
 4909PROX   H1138038  13.906  12.890  10.006
 4909PROX   H1338039  13.853  12.982   9.858
 4909PROX    C238040  14.070  12.981   9.879
 4909PROX   H2138041  14.093  13.088   9.863
 4909PROX    C338042  14.080  12.910   9.742
 4909PROX   H3138043  14.179  12.920   9.692
 4909PROX   H3238044  14.053  12.803   9.749
 4909PROX   H3338045  14.007  12.953   9.671
 4910PROX    O138046  14.158  12.923   9.980
 4910PROX    C138047  14.164  12.784   9.986
 4910PROX   H1138048  14.059  12.749   9.985
 4910PROX   H1338049  14.231  12.754   9.902
 4910PROX    C238050  14.231  12.742  10.112
 4910PROX   H2138051  14.169  12.738  10.205
 4910PROX    C338052  14.352  12.831  10.142
 4910PROX   H3138053  14.398  12.857  10.045
 4910PROX   H3238054  14.312  12.923  10.190
 4910PROX   H3338055  14.428  12.775  10.201
 4911PROX    O138056  14.293  12.612  10.104
 4911PROX    C138057  14.204  12.507  10.124
 4911PROX   H1138058  14.097  12.529  10.104
 4911PROX   H1338059  14.232  12.420  10.060
 4911PROX    C238060  14.228  12.453  10.272
 4911PROX   H2138061  14.225  12.533  10.349
 4911PROX    C338062  14.365  12.388  10.293
 4911PROX   H3138063  14.438  12.466  10.261
 4911PROX   H3238064  14.376  12.368  10.402
 4911PROX   H3338065  14.365  12.296  10.231
 4912PROX    O138066  14.131  12.355  10.298
 4912PROX    C138067  14.030  12.401  10.384
 4912PROX   H1138068  13.965  12.316  10.412
 4912PROX   H1338069  14.082  12.441  10.473
 4912PROX    C238070  13.939  12.513  10.326
 4912PROX   H2138071  14.005  12.602  10.318
 4912PROX    C338072  13.842  12.569  10.432
 4912PROX   H3138073  13.736  12.535  10.426
 4912PROX   H3238074  13.880  12.535  10.530
 4912PROX   H3338075  13.847  12.680  10.444
 4913PROX    O138076  13.876  12.485  10.206
 4913PROX    C138077  13.795  12.593  10.159
 4913PROX   H1138078  13.703  12.586  10.221
 4913PROX   H1338079  13.837  12.696  10.155
 4913PROX    C238080  13.750  12.565  10.009
 4913PROX   H2138081  13.685  12.475  10.011
 4913PROX    C338082  13.863  12.541   9.909
 4913PROX   H3138083  13.823  12.480   9.825
 4913PROX   H3238084  13.896  12.640   9.872
 4913PROX   H3338085  13.951  12.499   9.962
 4914PROX    O138086  13.667  12.669   9.968
 4914PROX    C138087  13.584  12.634   9.862
 4914PROX   H1138088  13.590  12.524   9.848
 4914PROX   H1338089  13.477  12.652   9.885
 4914PROX    C238090  13.622  12.726   9.743
 4914PROX   H2138091  13.732  12.726   9.727
 4914PROX    C338092  13.570  12.865   9.770
 4914PROX   H3138093  13.616  12.932   9.694
 4914PROX   H3238094  13.459  12.867   9.766
 4914PROX   H3338095  13.606  12.905   9.867
 4915PROX    O138096  13.564  12.680   9.622
 4915PROX    C138097  13.623  12.566   9.564
 4915PROX   H1138098  13.732  12.581   9.548
 4915PROX   H1338099  13.614  12.476   9.628
 4915PROX    C238100  13.550  12.519   9.429
 4915PROX   H2138101  13.580  12.595   9.353
 4915PROX    C338102  13.397  12.523   9.428
 4915PROX   H3138103  13.341  12.485   9.340
 4915PROX   H3238104  13.356  12.463   9.512
 4915PROX   H3338105  13.361  12.628   9.438
 4916PROX    O138106  13.607  12.395   9.379
 4916PROX    C138107  13.583  12.365   9.233
 4916PROX   H1138108  13.611  12.258   9.225
 4916PROX   H1338109  13.479  12.375   9.196
 4916PROX    C238110  13.675  12.433   9.132
 4916PROX   H2138111  13.763  12.469   9.189
 4916PROX    C338112  13.613  12.546   9.055
 4916PROX   H3138113  13.591  12.625   9.130
 4916PROX   H3238114  13.663  12.583   8.962
 4916PROX   H3338115  13.515  12.512   9.016
 4917PROX    O138116  13.720  12.335   9.041
 4917PROX    C138117  13.829  12.250   9.081
 4917PROX   H1138118  13.910  12.325   9.093
 4917PROX   H1338119  13.818  12.199   9.179
 4917PROX    C238120  13.849  12.128   8.982
 4917PROX   H2138121  13.871  12.179   8.886
 4917PROX    C338122  13.718  12.043   8.971
 4917PROX   H3138123  13.640  12.121   8.957
 4917PROX   H3238124  13.717  11.977   8.881
 4917PROX   H3338125  13.702  11.983   9.063
 4918PROX    O138126  13.965  12.054   9.023
 4918PROX    C138127  14.035  12.001   8.911
 4918PROX   H1138128  13.977  11.928   8.849
 4918PROX   H1338129  14.073  12.088   8.854
 4918PROX    C238130  14.164  11.922   8.959
 4918PROX   H2138131  14.200  11.967   9.054
 4918PROX    C338132  14.297  11.930   8.881
 4918PROX   H3138133  14.387  11.894   8.935
 4918PROX   H3238134  14.308  11.866   8.791
 4918PROX   H3338135  14.324  12.036   8.861
 4919PROX    O138136  14.113  11.791   8.982
 4919PROX    C138137  14.084  11.760   9.123
 4919PROX   H1138138  14.175  11.768   9.187
 4919PROX   H1338139  14.009  11.831   9.165
 4919PROX    C238140  14.035  11.612   9.133
 4919PROX   H2138141  14.118  11.545   9.100
 4919PROX    C338142  13.904  11.591   9.050
 4919PROX   H3138143  13.837  11.675   9.078
 4919PROX   H3238144  13.925  11.593   8.941
 4919PROX   H3338145  13.855  11.494   9.072
 4920PROX    O138146  13.995  11.571   9.266
 4920PROX    C138147  14.104  11.519   9.333
 4920PROX   H1138148  14.158  11.440   9.277
 4920PROX   H1338149  14.176  11.602   9.354
 4920PROX    C238150  14.066  11.460   9.470
 4920PROX   H2138151  13.967  11.415   9.447
 4920PROX    C338152  14.051  11.562   9.585
 4920PROX   H3138153  14.010  11.527   9.682
 4920PROX   H3238154  14.143  11.622   9.604
 4920PROX   H3338155  13.979  11.642   9.556
 4921PROX    O138156  14.162  11.363   9.498
 4921PROX    C138157  14.106  11.265   9.588
 4921PROX   H1138158  14.094  11.317   9.686
 4921PROX   H1338159  14.016  11.217   9.545
 4921PROX    C238160  14.208  11.151   9.622
 4921PROX   H2138161  14.214  11.096   9.526
 4921PROX    C338162  14.159  11.067   9.746
 4921PROX   H3138163  14.176  11.117   9.844
 4921PROX   H3238164  14.053  11.039   9.728
 4921PROX   H3338165  14.218  10.973   9.740
 4922PROX    O138166  14.336  11.207   9.643
 4922PROX    C138167  14.435  11.104   9.639
 4922PROX   H1138168  14.424  11.032   9.723
 4922PROX   H1338169  14.424  11.043   9.546
 4922PROX    C238170  14.573  11.159   9.642
 4922PROX   H2138171  14.575  11.249   9.577
 4922PROX    C338172  14.675  11.047   9.608
 4922PROX   H3138173  14.641  11.001   9.512
 4922PROX   H3238174  14.785  11.058   9.607
 4922PROX   H3338175  14.652  10.971   9.686
 4923PROX    O138176  14.597  11.211   9.776
 4923PROX    C138177  14.709  11.297   9.770
 4923PROX   H1138178  14.798  11.234   9.750
 4923PROX   H1338179  14.695  11.380   9.698
 4923PROX    C238180  14.730  11.356   9.910
 4923PROX   H2138181  14.762  11.284   9.988
 4923PROX    C338182  14.593  11.407   9.958
 4923PROX   H3138183  14.597  11.444  10.063
 4923PROX   H3238184  14.570  11.498   9.899
 4923PROX   H3338185  14.523  11.321   9.952
 4924PROX    O138186  14.836  11.456   9.904
 4924PROX    C138187  14.877  11.500  10.036
 4924PROX   H1138188  14.797  11.565  10.077
 4924PROX   H1338189  14.885  11.405  10.092
 4924PROX    C238190  15.018  11.562  10.030
 4924PROX   H2138191  15.019  11.654   9.967
 4924PROX    C338192  15.111  11.457   9.961
 4924PROX   H3138193  15.140  11.371  10.025
 4924PROX   H3238194  15.057  11.413   9.875
 4924PROX   H3338195  15.205  11.507   9.930
 4925PROX    O138196  15.057  11.603  10.159
 4925PROX    C138197  15.172  11.685  10.157
 4925PROX   H1138198  15.207  11.711  10.260
 4925PROX   H1338199  15.257  11.627  10.113
 4925PROX    C238200  15.166  11.817  10.081
 4925PROX   H2138201  15.142  11.812   9.973
 4925PROX    C338202  15.308  11.882  10.081
 4925PROX   H3138203  15.377  11.826  10.014
 4925PROX   H3238204  15.307  11.987  10.045
 4925PROX   H3338205  15.347  11.902  10.183
 4926PROX    O138206  15.074  11.905  10.156
 4926PROX    C138207  14.936  11.886  10.136
 4926PROX   H1138208  14.905  11.924  10.037
 4926PROX   H1338209  14.911  11.778  10.144
 4926PROX    C238210  14.860  11.955  10.247
 4926PROX   H2138211  14.864  12.066  10.247
 4926PROX    C338212  14.896  11.903  10.387
 4926PROX   H3138213  14.860  11.798  10.399
 4926PROX   H3238214  15.004  11.927  10.387
 4926PROX   H3338215  14.854  11.965  10.468
 4927PROX    O138216  14.722  11.914  10.228
 4927PROX    C138217  14.656  11.969  10.115
 4927PROX   H1138218  14.654  12.078  10.135
 4927PROX   H1338219  14.704  11.960  10.016
 4927PROX    C238220  14.514  11.919  10.107
 4927PROX   H2138221  14.475  11.894  10.208
 4927PROX    C338222  14.497  11.794  10.021
 4927PROX   H3138223  14.485  11.815   9.913
 4927PROX   H3238224  14.578  11.719  10.034
 4927PROX   H3338225  14.399  11.749  10.051
 4928PROX    O138226  14.428  12.019  10.052
 4928PROX    C138227  14.283  12.007  10.068
 4928PROX   H1138228  14.252  11.902  10.046
 4928PROX   H1338229  14.272  12.025  10.177
 4928PROX    C238230  14.221  12.114   9.979
 4928PROX   H2138231  14.286  12.204   9.975
 4928PROX    C338232  14.076  12.134  10.031
 4928PROX   H3138233  14.073  12.150  10.141
 4928PROX   H3238234  14.032  12.226   9.986
 4928PROX   H3338235  14.005  12.055  10.001
 4929PROX    O138236  14.200  12.065   9.844
 4929PROX    C138237  14.317  12.040   9.769
 4929PROX   H1138238  14.376  12.133   9.757
 4929PROX   H1338239  14.377  11.969   9.829
 4929PROX    C238240  14.299  11.974   9.626
 4929PROX   H2138241  14.192  11.957   9.605
 4929PROX    C338242  14.363  11.832   9.618
 4929PROX   H3138243  14.340  11.765   9.704
 4929PROX   H3238244  14.322  11.771   9.535
 4929PROX   H3338245  14.474  11.826   9.624
 4930PROX    O138246  14.360  12.054   9.524
 4930PROX    C138247  14.279  12.052   9.401
 4930PROX   H1138248  14.339  12.091   9.317
 4930PROX   H1338249  14.245  11.947   9.384
 4930PROX    C238250  14.155  12.140   9.422
 4930PROX   H2138251  14.141  12.166   9.529
 4930PROX    C338252  14.036  12.059   9.375
 4930PROX   H3138253  13.940  12.104   9.409
 4930PROX   H3238254  14.040  12.065   9.264
 4930PROX   H3338255  14.035  11.953   9.408
 4931PROX    O138256  14.173  12.260   9.350
 4931PROX    C138257  14.061  12.347   9.356
 4931PROX   H1138258  13.969  12.310   9.306
 4931PROX   H1338259  14.041  12.363   9.464
 4931PROX    C238260  14.104  12.492   9.306
 4931PROX   H2138261  14.208  12.502   9.343
 4931PROX    C338262  14.008  12.596   9.355
 4931PROX   H3138263  14.021  12.607   9.465
 4931PROX   H3238264  14.036  12.698   9.320
 4931PROX   H3338265  13.902  12.572   9.331
 4932PROX    O138266  14.082  12.507   9.166
 4932PROX    C138267  14.166  12.431   9.092
 4932PROX   H1138268  14.273  12.450   9.115
 4932PROX   H1338269  14.148  12.325   9.119
 4932PROX    C238270  14.139  12.443   8.945
 4932PROX   H2138271  14.039  12.403   8.918
 4932PROX    C338272  14.246  12.360   8.868
 4932PROX   H3138273  14.249  12.365   8.757
 4932PROX   H3238274  14.347  12.390   8.904
 4932PROX   H3338275  14.243  12.252   8.895
 4933PROX    O138276  14.146  12.579   8.904
 4933PROX    C138277  14.023  12.653   8.916
 4933PROX   H1138278  13.997  12.704   8.821
 4933PROX   H1338279  13.944  12.582   8.948
 4933PROX    C238280  14.043  12.767   9.017
 4933PROX   H2138281  14.110  12.724   9.095
 4933PROX    C338282  13.923  12.805   9.082
 4933PROX   H3138283  13.896  12.729   9.158
 4933PROX   H3238284  13.930  12.902   9.136
 4933PROX   H3338285  13.833  12.809   9.017
 4934PROX    O138286  14.110  12.870   8.958
 4934PROX    C138287  14.252  12.875   8.958
 4934PROX   H1138288  14.294  12.881   9.061
 4934PROX   H1338289  14.292  12.779   8.918
 4934PROX    C238290  14.321  12.998   8.884
 4934PROX   H2138291  14.318  13.083   8.955
 4934PROX    C338292  14.252  13.052   8.759
 4934PROX   H3138293  14.141  13.041   8.764
 4934PROX   H3238294  14.274  13.160   8.745
 4934PROX   H3338295  14.285  13.008   8.663
 4935PROX    O138296  14.460  12.955   8.865
 4935PROX    C138297  14.544  13.061   8.832
 4935PROX   H1138298  14.563  13.062   8.722
 4935PROX   H1338299  14.503  13.159   8.866
 4935PROX    C238300  14.679  13.037   8.911
 4935PROX   H2138301  14.730  12.941   8.888
 4935PROX    C338302  14.656  13.033   9.060
 4935PROX   H3138303  14.644  13.133   9.105
 4935PROX   H3238304  14.566  12.969   9.075
 4935PROX   H3338305  14.747  12.997   9.112
 4936ETHO    O138306  14.773  13.140   8.864
 4936ETHO    C138307  14.906  13.128   8.928
 4936ETHO   H1138308  14.949  13.026   8.935
 4936ETHO   H1338309  14.898  13.168   9.032
 4936ETHO    C238310  15.006  13.209   8.847
 4936ETHO   H2138311  15.067  13.281   8.907
 4936ETHO   H2338312  14.956  13.276   8.774
 4937ETHO    O138313  15.109  13.135   8.776
 4937ETHO    C138314  15.044  13.059   8.671
 4937ETHO   H1138315  14.973  12.989   8.720
 4937ETHO   H1338316  14.998  13.125   8.594
 4937ETHO    C238317  15.150  12.981   8.589
 4937ETHO   H2138318  15.098  12.915   8.516
 4937ETHO   H2338319  15.200  12.914   8.662
 4938ETHO    O138320  15.240  13.063   8.518
 4938ETHO    C138321  15.359  13.004   8.483
 4938ETHO   H1138322  15.331  12.904   8.443
 4938ETHO   H1338323  15.428  12.998   8.569
 4938ETHO    C238324  15.427  13.084   8.368
 4938ETHO   H2138325  15.530  13.045   8.352
 4938ETHO   H2338326  15.435  13.189   8.403
 4939ETHO    O138327  15.356  13.072   8.248
 4939ETHO    C138328  15.392  12.952   8.179
 4939ETHO   H1138329  15.482  12.973   8.117
 4939ETHO   H1338330  15.421  12.870   8.249
 4939ETHO    C238331  15.270  12.919   8.089
 4939ETHO   H2138332  15.299  12.857   8.002
 4939ETHO   H2338333  15.241  13.017   8.044
 4940ETHO    O138334  15.154  12.858   8.156
 4940ETHO    C138335  15.179  12.724   8.191
 4940ETHO   H1138336  15.267  12.719   8.259
 4940ETHO   H1338337  15.203  12.671   8.097
 4940ETHO    C238338  15.050  12.649   8.245
 4940ETHO   H2138339  15.015  12.716   8.327
 4940ETHO   H2338340  15.082  12.551   8.285
 4941ETHO    O138341  14.942  12.624   8.153
 4941ETHO    C138342  14.834  12.558   8.217
 4941ETHO   H1138343  14.847  12.449   8.198
 4941ETHO   H1338344  14.849  12.580   8.325
 4941ETHO    C238345  14.693  12.606   8.180
 4941ETHO   H2138346  14.679  12.706   8.225
 4941ETHO   H2338347  14.626  12.534   8.232
 4942ETHO    O138348  14.672  12.608   8.042
 4942ETHO    C138349  14.544  12.660   8.015
 4942ETHO   H1138350  14.537  12.764   8.053
 4942ETHO   H1338351  14.467  12.609   8.077
 4942ETHO    C238352  14.525  12.641   7.862
 4942ETHO   H2138353  14.417  12.666   7.852
 4942ETHO   H2338354  14.529  12.533   7.835
 4943ETHO    O138355  14.619  12.721   7.789
 4943ETHO    C138356  14.616  12.679   7.657
 4943ETHO   H1138357  14.626  12.569   7.646
 4943ETHO   H1338358  14.525  12.703   7.597
 4943ETHO    C238359  14.746  12.732   7.589
 4943ETHO   H2138360  14.742  12.737   7.478
 4943ETHO   H2338361  14.770  12.836   7.618
 4944ETHO    O138362  14.858  12.645   7.618
 4944ETHO    C138363  14.925  12.679   7.738
 4944ETHO   H1138364  14.936  12.789   7.732
 4944ETHO   H1338365  14.857  12.655   7.822
 4944ETHO    C238366  15.066  12.617   7.764
 4944ETHO   H2138367  15.057  12.508   7.782
 4944ETHO   H2338368  15.110  12.665   7.854
 4945ETHO    O138369  15.148  12.632   7.652
 4945ETHO    C138370  15.195  12.765   7.643
 4945ETHO   H1138371  15.112  12.826   7.604
 4945ETHO   H1338372  15.233  12.811   7.737
 4945ETHO    C238373  15.314  12.770   7.541
 4945ETHO   H2138374  15.346  12.873   7.517
 4945ETHO   H2338375  15.274  12.713   7.454
 4946ETHO    O138376  15.431  12.706   7.590
 4946ETHO    C138377  15.524  12.681   7.491
 4946ETHO   H1138378  15.470  12.661   7.396
 4946ETHO   H1338379  15.582  12.771   7.462
 4946ETHO    C238380  15.619  12.559   7.509
 4946ETHO   H2138381  15.673  12.569   7.605
 4946ETHO   H2338382  15.697  12.560   7.430
 4947ETHO    O138383  15.556  12.435   7.500
 4947ETHO    C138384  15.641  12.331   7.562
 4947ETHO   H1138385  15.689  12.379   7.650
 4947ETHO   H1338386  15.719  12.295   7.491
 4947ETHO    C238387  15.553  12.215   7.606
 4947ETHO   H2138388  15.473  12.236   7.681
 4947ETHO   H2338389  15.613  12.131   7.646
 4948ETHO    O138390  15.480  12.158   7.503
 4948ETHO    C138391  15.422  12.031   7.544
 4948ETHO   H1138392  15.500  11.954   7.563
 4948ETHO   H1338393  15.362  12.047   7.636
 4948ETHO    C238394  15.325  11.980   7.442
 4948ETHO   H2138395  15.263  12.066   7.407
 4948ETHO   H2338396  15.253  11.905   7.479
 4949ETHO    O138397  15.400  11.926   7.332
 4949ETHO    C138398  15.320  11.843   7.247
 4949ETHO   H1138399  15.261  11.772   7.308
 4949ETHO   H1338400  15.382  11.779   7.181
 4949ETHO    C238401  15.204  11.908   7.160
 4949ETHO   H2138402  15.154  11.991   7.214
 4949ETHO   H2338403  15.128  11.832   7.131
 4950ETHO    O138404  15.255  11.949   7.029
 4950ETHO    C138405  15.335  12.068   7.039
 4950ETHO   H1138406  15.268  12.157   7.036
 4950ETHO   H1338407  15.393  12.062   7.134
 4950ETHO    C238408  15.420  12.087   6.907
 4950ETHO   H2138409  15.474  12.183   6.920
 4950ETHO   H2338410  15.356  12.081   6.816
 4951ETHO    O138411  15.515  11.980   6.898
 4951ETHO    C138412  15.594  12.005   6.781
 4951ETHO   H1138413  15.654  12.093   6.812
 4951ETHO   H1338414  15.532  12.034   6.693
 4951ETHO    C238415  15.680  11.887   6.732
 4951ETHO   H2138416  15.740  11.846   6.816
 4951ETHO   H2338417  15.751  11.911   6.651
 4952ETHO    O138418  15.588  11.791   6.677
 4952ETHO    C138419  15.666  11.680   6.630
 4952ETHO   H1138420  15.754  11.723   6.578
 4952ETHO   H1338421  15.704  11.632   6.723
 4952ETHO    C238422  15.578  11.588   6.552
 4952ETHO   H2138423  15.480  11.573   6.602
 4952ETHO   H2338424  15.626  11.492   6.524
 4953ETHO    O138425  15.545  11.644   6.423
 4953ETHO    C138426  15.421  11.599   6.369
 4953ETHO   H1138427  15.340  11.625   6.440
 4953ETHO   H1338428  15.423  11.491   6.343
 4953ETHO    C238429  15.380  11.684   6.241
 4953ETHO   H2138430  15.284  11.644   6.199
 4953ETHO   H2338431  15.451  11.658   6.159
 4954ETHO    O138432  15.389  11.827   6.271
 4954ETHO    C138433  15.287  11.898   6.216
 4954ETHO   H1138434  15.191  11.843   6.229
 4954ETHO   H1338435  15.286  11.998   6.263
 4954ETHO    C238436  15.318  11.914   6.068
 4954ETHO   H2138437  15.345  11.820   6.015
 4954ETHO   H2338438  15.401  11.989   6.068
 4955ETHO    O138439  15.199  11.968   6.011
 4955ETHO    C138440  15.220  12.009   5.878
 4955ETHO   H1138441  15.303  12.083   5.870
 4955ETHO   H1338442  15.258  11.930   5.809
 4955ETHO    C238443  15.091  12.062   5.815
 4955ETHO   H2138444  15.106  12.130   5.728
 4955ETHO   H2338445  15.045  12.119   5.899
 4956ETHO    O138446  15.008  11.961   5.766
 4956ETHO    C138447  14.901  12.005   5.683
 4956ETHO   H1138448  14.934  12.089   5.618
 4956ETHO   H1338449  14.850  11.927   5.622
 4956ETHO    C238450  14.784  12.065   5.762
 4956ETHO   H2138451  14.730  12.130   5.689
 4956ETHO   H2338452  14.829  12.138   5.832
 4957ETHO    O138453  14.713  11.957   5.821
 4957ETHO    C138454  14.608  12.001   5.906
 4957ETHO   H1138455  14.643  12.070   5.986
 4957ETHO   H1338456  14.518  12.036   5.850
 4957ETHO    C238457  14.562  11.873   5.989
 4957ETHO   H2138458  14.548  11.910   6.093
 4957ETHO   H2338459  14.646  11.800   5.986
 4958ETHO    O138460  14.440  11.808   5.951
 4958ETHO    C138461  14.409  11.698   6.039
 4958ETHO   H1138462  14.500  11.634   6.043
 4958ETHO   H1338463  14.333  11.640   5.982
 4958ETHO    C238464  14.345  11.736   6.175
 4958ETHO   H2138465  14.408  11.810   6.228
 4958ETHO   H2338466  14.330  11.640   6.229
 4959ETHO    O138467  14.219  11.793   6.162
 4959ETHO    C138468  14.158  11.833   6.285
 4959ETHO   H1138469  14.223  11.902   6.343
 4959ETHO   H1338470  14.066  11.893   6.267
 4959ETHO    C238471  14.100  11.708   6.358
 4959ETHO   H2138472  14.055  11.635   6.288
 4959ETHO   H2338473  14.018  11.738   6.426
 4960ETHO    O138474  14.197  11.654   6.448
 4960ETHO    C138475  14.196  11.511   6.451
 4960ETHO   H1138476  14.235  11.469   6.355
 4960ETHO   H1338477  14.092  11.474   6.464
 4960ETHO    C238478  14.259  11.478   6.590
 4960ETHO   H2138479  14.214  11.527   6.679
 4960ETHO   H2338480  14.366  11.508   6.598
 4961ETHO    O138481  14.254  11.332   6.593
 4961ETHO    C138482  14.326  11.276   6.700
 4961ETHO   H1138483  14.341  11.168   6.679
 4961ETHO   H1338484  14.422  11.330   6.716
 4961ETHO    C238485  14.239  11.260   6.820
 4961ETHO   H2138486  14.250  11.169   6.884
 4961ETHO   H2338487  14.131  11.265   6.798
 4962ETHO    O138488  14.263  11.359   6.913
 4962ETHO    C138489  14.166  11.365   7.012
 4962ETHO   H1138490  14.161  11.262   7.054
 4962ETHO   H1338491  14.072  11.389   6.959
 4962ETHO    C238492  14.200  11.472   7.117
 4962ETHO   H2138493  14.299  11.450   7.164
 4962ETHO   H2338494  14.129  11.456   7.201
 4963ETHO    O138495  14.209  11.605   7.073
 4963ETHO    C138496  14.119  11.691   7.132
 4963ETHO   H1138497  14.015  11.655   7.119
 4963ETHO   H1338498  14.132  11.684   7.242
 4963ETHO    C238499  14.135  11.832   7.070
 4963ETHO   H2138500  14.071  11.904   7.125
 4963ETHO   H2338501  14.090  11.829   6.969
 4964ETHO    O138502  14.273  11.873   7.075
 4964ETHO    C138503  14.298  12.010   7.039
 4964ETHO   H1138504  14.248  12.076   7.113
 4964ETHO   H1338505  14.253  12.042   6.942
 4964ETHO    C238506  14.448  12.046   7.037
 4964ETHO   H2138507  14.460  12.140   6.979
 4964ETHO   H2338508  14.502  11.960   6.992
 4965ETHO    O138509  14.491  12.079   7.169
 4965ETHO    C138510  14.504  11.975   7.261
 4965ETHO   H1138511  14.413  11.976   7.324
 4965ETHO   H1338512  14.502  11.875   7.212
 4965ETHO    C238513  14.630  11.995   7.347
 4965ETHO   H2138514  14.723  11.988   7.286
 4965ETHO   H2338515  14.650  11.921   7.427
 4966ETHO    O138516  14.613  12.128   7.410
 4966ETHO    C138517  14.737  12.172   7.472
 4966ETHO   H1138518  14.761  12.096   7.550
 4966ETHO   H1338519  14.810  12.189   7.390
 4966ETHO    C238520  14.724  12.310   7.540
 4966ETHO   H2138521  14.646  12.367   7.484
 4966ETHO   H2338522  14.816  12.372   7.540
 4967ETHO    O138523  14.679  12.310   7.671
 4967ETHO    C138524  14.786  12.311   7.765
 4967ETHO   H1138525  14.843  12.216   7.756
 4967ETHO   H1338526  14.863  12.384   7.733
 4967ETHO    C238527  14.738  12.316   7.910
 4967ETHO   H2138528  14.695  12.418   7.919
 4967ETHO   H2338529  14.826  12.308   7.978
 4968ETHO    O138530  14.651  12.209   7.943
 4968ETHO    C138531  14.608  12.203   8.081
 4968ETHO   H1138532  14.696  12.220   8.147
 4968ETHO   H1338533  14.549  12.296   8.093
 4968ETHO    C238534  14.535  12.082   8.117
 4968ETHO   H2138535  14.596  11.999   8.159
 4968ETHO   H2338536  14.481  12.034   8.033
 4969ETHO    O138537  14.431  12.113   8.206
 4969ETHO    C138538  14.356  11.997   8.240
 4969ETHO   H1138539  14.421  11.908   8.226
 4969ETHO   H1338540  14.264  12.002   8.177
 4969ETHO    C238541  14.320  11.991   8.383
 4969ETHO   H2138542  14.388  12.047   8.450
 4969ETHO   H2338543  14.299  11.890   8.424
 4970ETHO    O138544  14.195  12.066   8.399
 4970ETHO    C138545  14.137  12.044   8.525
 4970ETHO   H1138546  14.155  11.940   8.559
 4970ETHO   H1338547  14.184  12.112   8.600
 4970ETHO    C238548  13.988  12.081   8.517
 4970ETHO   H2138549  13.944  12.050   8.614
 4970ETHO   H2338550  13.938  12.027   8.434
 4971ETHO    O138551  13.947  12.222   8.509
 4971ETHO    C138552  13.815  12.242   8.553
 4971ETHO   H1138553  13.794  12.350   8.533
 4971ETHO   H1338554  13.804  12.233   8.663
 4971ETHO    C238555  13.712  12.157   8.476
 4971ETHO   H2138556  13.722  12.155   8.366
 4971ETHO   H2338557  13.610  12.199   8.491
 4972ETHO    O138558  13.707  12.020   8.523
 4972ETHO    C138559  13.664  11.931   8.426
 4972ETHO   H1138560  13.718  11.939   8.329
 4972ETHO   H1338561  13.693  11.829   8.458
 4972ETHO    C238562  13.520  11.939   8.391
 4972ETHO   H2138563  13.506  11.934   8.281
 4972ETHO   H2338564  13.478  12.040   8.409
 4973ETHO    O138565  13.447  11.828   8.447
 4973ETHO    C138566  13.309  11.855   8.434
 4973ETHO   H1138567  13.287  11.835   8.327
 4973ETHO   H1338568  13.279  11.962   8.445
 4973ETHO    C238569  13.231  11.771   8.531
 4973ETHO   H2138570  13.255  11.664   8.518
 4973ETHO   H2338571  13.122  11.778   8.510
 4974ETHO    O138572  13.249  11.813   8.666
 4974ETHO    C138573  13.203  11.723   8.763
 4974ETHO   H1138574  13.093  11.713   8.765
 4974ETHO   H1338575  13.248  11.623   8.741
 4974ETHO    C238576  13.245  11.770   8.901
 4974ETHO   H2138577  13.187  11.742   8.991
 4974ETHO   H2338578  13.257  11.881   8.895
 4975ETHO    O138579  13.371  11.716   8.928
 4975ETHO    C138580  13.443  11.776   9.039
 4975ETHO   H1138581  13.366  11.807   9.113
 4975ETHO   H1338582  13.495  11.868   9.005
 4975ETHO    C238583  13.545  11.680   9.096
 4975ETHO   H2138584  13.614  11.659   9.012
 4975ETHO   H2338585  13.506  11.579   9.122
 4976ETHO    O138586  13.624  11.744   9.198
 4976ETHO    C138587  13.647  11.668   9.313
 4976ETHO   H1138588  13.548  11.642   9.356
 4976ETHO   H1338589  13.686  11.567   9.289
 4976ETHO    C238590  13.751  11.755   9.392
 4976ETHO   H2138591  13.794  11.684   9.465
 4976ETHO   H2338592  13.833  11.796   9.329
 4977ETHO    O138593  13.695  11.860   9.472
 4977ETHO    C138594  13.653  11.979   9.405
 4977ETHO   H1138595  13.560  11.946   9.355
 4977ETHO   H1338596  13.731  12.018   9.335
 4977ETHO    C238597  13.639  12.086   9.520
 4977ETHO   H2138598  13.548  12.074   9.583
 4977ETHO   H2338599  13.629  12.181   9.464
 4978ETHO    O138600  13.755  12.088   9.610
 4978ETHO    C138601  13.799  12.223   9.628
 4978ETHO   H1138602  13.829  12.245   9.524
 4978ETHO   H1338603  13.721  12.294   9.661
 4978ETHO    C238604  13.923  12.227   9.721
 4978ETHO   H2138605  13.986  12.140   9.693
 4978ETHO   H2338606  13.886  12.213   9.825
 4979ETHO    O138607  13.986  12.354   9.705
 4979ETHO    C138608  14.123  12.358   9.749
 4979ETHO   H1138609  14.189  12.282   9.702
 4979ETHO   H1338610  14.131  12.348   9.859
 4979ETHO    C238611  14.185  12.494   9.711
 4979ETHO   H2138612  14.162  12.576   9.782
 4979ETHO   H2338613  14.148  12.532   9.614
 4980ETHO    O138614  14.325  12.493   9.707
 4980ETHO    C138615  14.375  12.455   9.577
 4980ETHO   H1138616  14.322  12.361   9.548
 4980ETHO   H1338617  14.356  12.541   9.510
 4980ETHO    C238618  14.524  12.432   9.571
 4980ETHO   H2138619  14.539  12.336   9.516
 4980ETHO   H2338620  14.567  12.408   9.670
 4981ETHO    O138621  14.603  12.529   9.504
 4981ETHO    C138622  14.738  12.522   9.547
 4981ETHO   H1138623  14.745  12.522   9.658
 4981ETHO   H1338624  14.781  12.426   9.511
 4981ETHO    C238625  14.830  12.629   9.480
 4981ETHO   H2138626  14.918  12.645   9.546
 4981ETHO   H2338627  14.771  12.724   9.484
 4982ETHO    O138628  14.876  12.597   9.349
 4982ETHO    C138629  14.898  12.723   9.269
 4982ETHO   H1138630  14.806  12.785   9.262
 4982ETHO   H1338631  14.982  12.784   9.308
 4982ETHO    C238632  14.937  12.670   9.127
 4982ETHO   H2138633  14.915  12.758   9.062
 4982ETHO   H2338634  14.885  12.577   9.095
 4983ETHO    O138635  15.078  12.647   9.115
 4983ETHO    C138636  15.119  12.623   8.973
 4983ETHO   H1138637  15.100  12.517   8.945
 4983ETHO   H1338638  15.057  12.687   8.907
 4983ETHO    C238639  15.270  12.649   8.962
 4983ETHO   H2138640  15.312  12.671   9.062
 4983ETHO   H2338641  15.285  12.738   8.896
 4984ETHO    O138642  15.329  12.530   8.912
 4984ETHO    C138643  15.473  12.527   8.938
 4984ETHO   H1138644  15.525  12.619   8.902
 4984ETHO   H1338645  15.517  12.444   8.879
 4984ETHO    C238646  15.498  12.497   9.084
 4984ETHO   H2138647  15.503  12.387   9.099
 4984ETHO   H2338648  15.414  12.523   9.152
 4985ETHO    O138649  15.628  12.537   9.121
 4985ETHO    C138650  15.651  12.494   9.260
 4985ETHO   H1138651  15.587  12.570   9.310
 4985ETHO   H1338652  15.620  12.390   9.280
 4985ETHO    C238653  15.796  12.504   9.287
 4985ETHO   H2138654  15.813  12.508   9.397
 4985ETHO   H2338655  15.856  12.582   9.235
 4986ETHO    O138656  15.850  12.374   9.244
 4986ETHO    C138657  15.986  12.384   9.217
 4986ETHO   H1138658  16.032  12.395   9.317
 4986ETHO   H1338659  16.006  12.476   9.158
 4986ETHO    C238660  16.027  12.257   9.138
 4986ETHO   H2138661  16.005  12.162   9.191
 4986ETHO   H2338662  16.136  12.252   9.113
 4987ETHO    O138663  15.967  12.258   9.010
 4987ETHO    C138664  15.857  12.171   8.991
 4987ETHO   H1138665  15.888  12.067   9.014
 4987ETHO   H1338666  15.781  12.196   9.068
 4987ETHO    C238667  15.796  12.198   8.842
 4987ETHO   H2138668  15.796  12.306   8.818
 4987ETHO   H2338669  15.694  12.155   8.850
 4988ETHO    O138670  15.888  12.126   8.757
 4988ETHO    C138671  15.893  12.182   8.623
 4988ETHO   H1138672  15.923  12.289   8.628
 4988ETHO   H1338673  15.788  12.174   8.591
 4988ETHO    C238674  15.983  12.112   8.528
 4988ETHO   H2138675  16.079  12.102   8.584
 4988ETHO   H2338676  16.009  12.176   8.441
 4989ETHO    O138677  15.922  11.986   8.492
 4989ETHO    C138678  15.839  11.987   8.371
 4989ETHO   H1138679  15.770  12.072   8.383
 4989ETHO   H1338680  15.905  12.012   8.285
 4989ETHO    C238681  15.742  11.859   8.364
 4989ETHO   H2138682  15.801  11.765   8.352
 4989ETHO   H2338683  15.687  11.858   8.267
 4990ETHO    O138684  15.635  11.839   8.460
 4990ETHO    C138685  15.675  11.820   8.597
 4990ETHO   H1138686  15.717  11.913   8.639
 4990ETHO   H1338687  15.751  11.740   8.581
 4990ETHO    C238688  15.545  11.776   8.672
 4990ETHO   H2138689  15.469  11.764   8.592
 4990ETHO   H2338690  15.511  11.850   8.748
 4991ETHO    O138691  15.556  11.644   8.737
 4991ETHO    C138692  15.636  11.650   8.855
 4991ETHO   H1138693  15.731  11.706   8.843
 4991ETHO   H1338694  15.575  11.699   8.933
 4991ETHO    C238695  15.664  11.512   8.916
 4991ETHO   H2138696  15.579  11.442   8.936
 4991ETHO   H2338697  15.717  11.529   9.012
 4992ETHO    O138698  15.761  11.442   8.845
 4992ETHO    C138699  15.772  11.305   8.875
 4992ETHO   H1138700  15.757  11.303   8.985
 4992ETHO   H1338701  15.693  11.245   8.825
 4992ETHO    C238702  15.911  11.242   8.857
 4992ETHO   H2138703  15.926  11.137   8.889
 4992ETHO   H2338704  15.990  11.306   8.901
 4993ETHO    O138705  15.955  11.256   8.719
 4993ETHO    C138706  15.895  11.147   8.640
 4993ETHO   H1138707  15.896  11.051   8.695
 4993ETHO   H1338708  15.786  11.172   8.642
 4993ETHO    C238709  15.943  11.136   8.495
 4993ETHO   H2138710  15.931  11.241   8.458
 4993ETHO   H2338711  15.872  11.067   8.445
 4994ETHO    O138712  16.076  11.097   8.462
 4994ETHO    C138713  16.109  10.965   8.507
 4994ETHO   H1138714  16.113  10.962   8.618
 4994ETHO   H1338715  16.028  10.897   8.473
 4994ETHO    C238716  16.245  10.926   8.451
 4994ETHO   H2138717  16.265  10.826   8.494
 4994ETHO   H2338718  16.320  10.999   8.490
 4995ETHO    O138719  16.242  10.914   8.314
 4995ETHO    C138720  16.368  10.872   8.274
 4995ETHO   H1138721  16.374  10.764   8.298
 4995ETHO   H1338722  16.440  10.934   8.331
 4995ETHO    C238723  16.395  10.901   8.130
 4995ETHO   H2138724  16.500  10.888   8.098
 4995ETHO   H2338725  16.384  11.010   8.113
 4996ETHO    O138726  16.295  10.842   8.046
 4996ETHO    C138727  16.295  10.706   8.018
 4996ETHO   H1138728  16.278  10.649   8.112
 4996ETHO   H1338729  16.215  10.675   7.948
 4996ETHO    C238730  16.432  10.648   7.966
 4996ETHO   H2138731  16.417  10.538   7.973
 4996ETHO   H2338732  16.511  10.673   8.040
 4997ETHO    O138733  16.461  10.702   7.835
 4997ETHO    C138734  16.575  10.651   7.776
 4997ETHO   H1138735  16.602  10.553   7.820
 4997ETHO   H1338736  16.659  10.713   7.814
 4997ETHO    C238737  16.567  10.636   7.620
 4997ETHO   H2138738  16.465  10.594   7.608
 4997ETHO   H2338739  16.643  10.577   7.565
 4998ETHO    O138740  16.568  10.761   7.558
 4998ETHO    C138741  16.551  10.759   7.412
 4998ETHO   H1138742  16.628  10.687   7.374
 4998ETHO   H1338743  16.447  10.724   7.395
 4998ETHO    C238744  16.582  10.894   7.352
 4998ETHO   H2138745  16.528  10.960   7.423
 4998ETHO   H2338746  16.545  10.916   7.249
 4999ETHO    O138747  16.724  10.921   7.361
 4999ETHO    C138748  16.753  11.038   7.283
 4999ETHO   H1138749  16.720  11.119   7.351
 4999ETHO   H1338750  16.708  11.039   7.181
 4999ETHO    C238751  16.903  11.057   7.270
 4999ETHO   H2138752  16.955  11.013   7.359
 4999ETHO   H2338753  16.922  11.165   7.255
 5000ETHO    O138754  16.943  10.985   7.154
 5000ETHO    C138755  16.931  10.848   7.168
 5000ETHO   H1138756  16.972  10.807   7.263
 5000ETHO   H1338757  16.825  10.823   7.149
 5000ETHO    C238758  17.009  10.768   7.058
 5000ETHO   H2138759  17.000  10.835   6.970
 5000ETHO   H2338760  16.954  10.672   7.053
 5001ETHO    O138761  17.146  10.752   7.091
 5001ETHO    C138762  17.181  10.622   7.140
 5001ETHO   H1138763  17.180  10.562   7.047
 5001ETHO   H1338764  17.113  10.573   7.214
 5001ETHO    C238765  17.322  10.632   7.197
 5001ETHO   H2138766  17.383  10.690   7.124
 5001ETHO   H2338767  17.365  10.530   7.194
 5002ETHO    O138768  17.332  10.692   7.324
 5002ETHO    C138769  17.304  10.830   7.335
 5002ETHO   H1138770  17.366  10.882   7.259
 5002ETHO   H1338771  17.196  10.849   7.316
 5002ETHO    C238772  17.344  10.895   7.470
 5002ETHO   H2138773  17.268  10.870   7.548
 5002ETHO   H2338774  17.346  11.006   7.464
 5003ETHO    O138775  17.470  10.850   7.530
 5003ETHO    C138776  17.515  10.929   7.642
 5003ETHO   H1138777  17.427  10.955   7.706
 5003ETHO   H1338778  17.581  10.877   7.715
 5003ETHO    C238779  17.588  11.058   7.606
 5003ETHO   H2138780  17.618  11.113   7.698
 5003ETHO   H2338781  17.523  11.120   7.541
 5004ETHO    O138782  17.709  11.029   7.528
 5004ETHO    C138783  17.784  11.140   7.477
 5004ETHO   H1138784  17.718  11.203   7.413
 5004ETHO   H1338785  17.813  11.204   7.563
 5004ETHO    C238786  17.902  11.093   7.400
 5004ETHO   H2138787  17.865  10.998   7.356
 5004ETHO   H2338788  17.987  11.060   7.463
 5005ETHO    O138789  17.961  11.186   7.309
 5005ETHO    C138790  18.050  11.123   7.216
 5005ETHO   H1138791  18.112  11.047   7.268
 5005ETHO   H1338792  17.987  11.077   7.135
 5005ETHO    C238793  18.143  11.237   7.154
 5005ETHO   H2138794  18.080  11.322   7.121
 5005ETHO   H2338795  18.203  11.189   7.074
 5006ETHO    O138796  18.238  11.293   7.244
 5006ETHO    C138797  18.302  11.412   7.193
 5006ETHO   H1138798  18.234  11.499   7.176
 5006ETHO   H1338799  18.349  11.392   7.095
 5006ETHO    C238800  18.416  11.456   7.293
 5006ETHO   H2138801  18.386  11.523   7.377
 5006ETHO   H2338802  18.466  11.540   7.240
 5007ETHO    O138803  18.518  11.368   7.335
 5007ETHO    C138804  18.599  11.328   7.223
 5007ETHO   H1138805  18.539  11.262   7.157
 5007ETHO   H1338806  18.632  11.424   7.177
 5007ETHO    C238807  18.720  11.243   7.267
 5007ETHO   H2138808  18.783  11.300   7.340
 5007ETHO   H2338809  18.777  11.242   7.172
 5008ETHO    O138810  18.698  11.109   7.310
 5008ETHO    C138811  18.812  11.030   7.292
 5008ETHO   H1138812  18.897  11.066   7.353
 5008ETHO   H1338813  18.854  11.044   7.190
 5008ETHO    C238814  18.789  10.879   7.316
 5008ETHO   H2138815  18.723  10.867   7.405
 5008ETHO   H2338816  18.889  10.844   7.348
 5009ETHO    O138817  18.728  10.801   7.214
 5009ETHO    C138818  18.709  10.665   7.254
 5009ETHO   H1138819  18.795  10.641   7.319
 5009ETHO   H1338820  18.623  10.659   7.325
 5009ETHO    C238821  18.691  10.567   7.140
 5009ETHO   H2138822  18.767  10.581   7.060
 5009ETHO   H2338823  18.709  10.464   7.177
 5010ETHO    O138824  18.564  10.566   7.088
 5010ETHO    C138825  18.555  10.458   6.994
 5010ETHO   H1138826  18.555  10.361   7.048
 5010ETHO   H1338827  18.642  10.453   6.925
 5010ETHO    C238828  18.428  10.482   6.917
 5010ETHO   H2138829  18.337  10.480   6.981
 5010ETHO   H2338830  18.429  10.391   6.854
 5011ETHO    O138831  18.422  10.596   6.833
 5011ETHO    C138832  18.285  10.629   6.805
 5011ETHO   H1138833  18.215  10.543   6.795
 5011ETHO   H1338834  18.244  10.697   6.883
 5011ETHO    C238835  18.279  10.714   6.679
 5011ETHO   H2138836  18.170  10.708   6.656
 5011ETHO   H2338837  18.338  10.678   6.592
 5012ETHO    O138838  18.322  10.847   6.709
 5012ETHO    C138839  18.294  10.938   6.600
 5012ETHO   H1138840  18.309  10.895   6.498
 5012ETHO   H1338841  18.360  11.027   6.594
 5012ETHO    C238842  18.143  10.988   6.600
 5012ETHO   H2138843  18.133  11.081   6.540
 5012ETHO   H2338844  18.118  11.011   6.706
 5013ETHO    O138845  18.047  10.892   6.547
 5013ETHO    C138846  17.914  10.942   6.546
 5013ETHO   H1138847  17.877  10.958   6.650
 5013ETHO   H1338848  17.898  11.035   6.487
 5013ETHO    C238849  17.825  10.839   6.475
 5013ETHO   H2138850  17.880  10.815   6.381
 5013ETHO   H2338851  17.727  10.886   6.449
 5014ETHO    O138852  17.794  10.730   6.566
 5014ETHO    C138853  17.662  10.739   6.621
 5014ETHO   H1138854  17.587  10.717   6.542
 5014ETHO   H1338855  17.638  10.845   6.645
 5014ETHO    C238856  17.638  10.640   6.735
 5014ETHO   H2138857  17.541  10.662   6.785
 5014ETHO   H2338858  17.719  10.658   6.808
 5015ETHO    O138859  17.634  10.499   6.697
 5015ETHO    C138860  17.612  10.419   6.805
 5015ETHO   H1138861  17.688  10.450   6.880
 5015ETHO   H1338862  17.507  10.424   6.842
 5015ETHO    C238863  17.619  10.281   6.738
 5015ETHO   H2138864  17.721  10.272   6.696
 5015ETHO   H2338865  17.540  10.275   6.660
 5016ETHO    O138866  17.585  10.169   6.827
 5016ETHO    C138867  17.624  10.186   6.961
 5016ETHO   H1138868  17.548  10.251   7.008
 5016ETHO   H1338869  17.726  10.232   6.964
 5016ETHO    C238870  17.620  10.054   7.040
 5016ETHO   H2138871  17.512  10.029   7.036
 5016ETHO   H2338872  17.645  10.075   7.146
 5017ETHO    O138873  17.705   9.957   6.978
 5017ETHO    C138874  17.750   9.852   7.058
 5017ETHO   H1138875  17.818   9.799   6.987
 5017ETHO   H1338876  17.808   9.895   7.142
 5017ETHO    C238877  17.650   9.762   7.116
 5017ETHO   H2138878  17.579   9.731   7.035
 5017ETHO   H2338879  17.694   9.668   7.155
 5018ETHO    O138880  17.575   9.808   7.230
 5018ETHO    C138881  17.498   9.705   7.294
 5018ETHO   H1138882  17.451   9.629   7.227
 5018ETHO   H1338883  17.565   9.664   7.373
 5018ETHO    C238884  17.379   9.776   7.356
 5018ETHO   H2138885  17.302   9.704   7.391
 5018ETHO   H2338886  17.325   9.840   7.283
 5019ETHO    O138887  17.422   9.859   7.464
 5019ETHO    C138888  17.315   9.951   7.491
 5019ETHO   H1138889  17.214   9.907   7.480
 5019ETHO   H1338890  17.324   9.969   7.600
 5019ETHO    C238891  17.320  10.082   7.404
 5019ETHO   H2138892  17.422  10.107   7.367
 5019ETHO   H2338893  17.296  10.164   7.475
 5020ETHO    O138894  17.228  10.073   7.298
 5020ETHO    C138895  17.225  10.189   7.223
 5020ETHO   H1138896  17.242  10.279   7.286
 5020ETHO   H1338897  17.312  10.184   7.153
 5020ETHO    C238898  17.098  10.203   7.136
 5020ETHO   H2138899  17.070  10.106   7.089
 5020ETHO   H2338900  17.120  10.271   7.051
 5021ETHO    O138901  16.997  10.255   7.214
 5021ETHO    C138902  16.867  10.225   7.149
 5021ETHO   H1138903  16.794  10.218   7.232
 5021ETHO   H1338904  16.867  10.129   7.093
 5021ETHO    C238905  16.827  10.339   7.061
 5021ETHO   H2138906  16.833  10.430   7.125
 5021ETHO   H2338907  16.719  10.326   7.039
 5022ETHO    O138908  16.906  10.367   6.955
 5022ETHO    C138909  16.877  10.271   6.847
 5022ETHO   H1138910  16.930  10.175   6.862
 5022ETHO   H1338911  16.768  10.250   6.845
 5022ETHO    C238912  16.937  10.324   6.715
 5022ETHO   H2138913  16.908  10.263   6.626
 5022ETHO   H2338914  17.047  10.336   6.719
 5023ETHO    O138915  16.869  10.443   6.705
 5023ETHO    C138916  16.941  10.547   6.640
 5023ETHO   H1138917  17.021  10.578   6.710
 5023ETHO   H1338918  16.865  10.627   6.629
 5023ETHO    C238919  16.996  10.507   6.503
 5023ETHO   H2138920  16.991  10.599   6.441
 5023ETHO   H2338921  16.923  10.442   6.449
 5024ETHO    O138922  17.127  10.451   6.521
 5024ETHO    C138923  17.170  10.383   6.411
 5024ETHO   H1138924  17.113  10.421   6.323
 5024ETHO   H1338925  17.277  10.405   6.389
 5024ETHO    C238926  17.160  10.232   6.432
 5024ETHO   H2138927  17.156  10.176   6.336
 5024ETHO   H2338928  17.057  10.213   6.470
 5025ETHO    O138929  17.262  10.172   6.516
 5025ETHO    C138930  17.253  10.028   6.506
 5025ETHO   H1138931  17.251  10.005   6.397
 5025ETHO   H1338932  17.153   9.995   6.543
 5025ETHO    C238933  17.363   9.953   6.585
 5025ETHO   H2138934  17.437  10.023   6.627
 5025ETHO   H2338935  17.416   9.879   6.521
 5026ETHO    O138936  17.302   9.885   6.685
 5026ETHO    C138937  17.288   9.963   6.805
 5026ETHO   H1138938  17.393   9.988   6.833
 5026ETHO   H1338939  17.233  10.056   6.779
 5026ETHO    C238940  17.220   9.903   6.926
 5026ETHO   H2138941  17.246   9.960   7.018
 5026ETHO   H2338942  17.254   9.798   6.929
 5027ETHO    O138943  17.077   9.915   6.902
 5027ETHO    C138944  17.025   9.788   6.872
 5027ETHO   H1138945  17.019   9.722   6.961
 5027ETHO   H1338946  17.090   9.723   6.809
 5027ETHO    C238947  16.895   9.779   6.803
 5027ETHO   H2138948  16.817   9.847   6.843
 5027ETHO   H2338949  16.876   9.671   6.819
 5028ETHO    O138950  16.900   9.798   6.658
 5028ETHO    C138951  16.876   9.933   6.612
 5028ETHO   H1138952  16.784   9.972   6.662
 5028ETHO   H1338953  16.968   9.982   6.649
 5028ETHO    C238954  16.871   9.942   6.465
 5028ETHO   H2138955  16.851  10.047   6.436
 5028ETHO   H2338956  16.777   9.891   6.436
 5029ETHO    O138957  16.987   9.887   6.402
 5029ETHO    C138958  16.968   9.875   6.263
 5029ETHO   H1138959  16.882   9.805   6.251
 5029ETHO   H1338960  16.932   9.971   6.218
 5029ETHO    C238961  17.096   9.794   6.206
 5029ETHO   H2138962  17.083   9.760   6.101
 5029ETHO   H2338963  17.110   9.709   6.276
 5030ETHO    O138964  17.213   9.876   6.197
 5030ETHO    C138965  17.323   9.788   6.177
 5030ETHO   H1138966  17.350   9.746   6.276
 5030ETHO   H1338967  17.300   9.711   6.100
 5030ETHO    C238968  17.448   9.871   6.144
 5030ETHO   H2138969  17.437   9.908   6.040
 5030ETHO   H2338970  17.532   9.799   6.145
 5031ETHO    O138971  17.472   9.976   6.240
 5031ETHO    C138972  17.607   9.986   6.292
 5031ETHO   H1138973  17.633   9.888   6.337
 5031ETHO   H1338974  17.676  10.004   6.207
 5031ETHO    C238975  17.607  10.111   6.380
 5031ETHO   H2138976  17.702  10.130   6.434
 5031ETHO   H2338977  17.523  10.112   6.452
 5032ETHO    O138978  17.589  10.224   6.295
 5032ETHO    C138979  17.573  10.348   6.369
 5032ETHO   H1138980  17.656  10.345   6.442
 5032ETHO   H1338981  17.476  10.365   6.420
 5032ETHO    C238982  17.591  10.466   6.279
 5032ETHO   H2138983  17.568  10.567   6.319
 5032ETHO   H2338984  17.529  10.457   6.187
 5033ETHO    O138985  17.726  10.475   6.231
 5033ETHO    C138986  17.738  10.584   6.140
 5033ETHO   H1138987  17.696  10.682   6.171
 5033ETHO   H1338988  17.693  10.544   6.047
 5033ETHO    C238989  17.882  10.608   6.102
 5033ETHO   H2138990  17.938  10.659   6.183
 5033ETHO   H2338991  17.872  10.671   6.011
 5034ETHO    O138992  17.955  10.495   6.065
 5034ETHO    C138993  18.089  10.504   6.015
 5034ETHO   H1138994  18.138  10.409   6.046
 5034ETHO   H1338995  18.136  10.586   6.074
 5034ETHO    C238996  18.108  10.530   5.869
 5034ETHO   H2138997  18.217  10.518   5.851
 5034ETHO   H2338998  18.069  10.633   5.855
 5035ETHO    O138999  18.052  10.436   5.781
 5035ETHO    C139000  17.914  10.458   5.755
 5035ETHO   H1139001  17.871  10.358   5.734
 5035ETHO   H1339002  17.864  10.489   5.849
 5035ETHO    C239003  17.901  10.559   5.635
 5035ETHO   H2139004  17.949  10.654   5.669
 5035ETHO   H2339005  17.792  10.583   5.625
 5035ETHO    OZ39006  17.956  10.503   5.518
 5035ETHO   HZ139007  17.887  10.480   5.455
 5036ETHO    O139008  11.126  11.131  21.388
 5036ETHO   HO139009  11.102  11.112  21.298
 5036ETHO    C139010  11.266  11.134  21.384
 5036ETHO   H1139011  11.310  11.032  21.378
 5036ETHO   H1339012  11.295  11.189  21.476
 5036ETHO    C239013  11.305  11.210  21.260
 5036ETHO   H2139014  11.413  11.235  21.246
 5036ETHO   H2339015  11.246  11.304  21.259
 5037ETHO    O139016  11.260  11.148  21.136
 5037ETHO    C139017  11.277  11.242  21.025
 5037ETHO   H1139018  11.214  11.333  21.032
 5037ETHO   H1339019  11.382  11.278  21.017
 5037ETHO    C239020  11.254  11.176  20.884
 5037ETHO   H2139021  11.257  11.253  20.804
 5037ETHO   H2339022  11.157  11.122  20.878
 5038ETHO    O139023  11.359  11.078  20.858
 5038ETHO    C139024  11.357  11.025  20.727
 5038ETHO   H1139025  11.352  11.115  20.662
 5038ETHO   H1339026  11.264  10.964  20.729
 5038ETHO    C239027  11.463  10.917  20.701
 5038ETHO   H2139028  11.445  10.856  20.609
 5038ETHO   H2339029  11.483  10.844  20.783
 5039ETHO    O139030  11.582  10.987  20.679
 5039ETHO    C139031  11.679  10.896  20.624
 5039ETHO   H1139032  11.693  10.810  20.693
 5039ETHO   H1339033  11.641  10.864  20.525
 5039ETHO    C239034  11.829  10.955  20.609
 5039ETHO   H2139035  11.895  10.869  20.586
 5039ETHO   H2339036  11.858  11.010  20.701
 5040ETHO    O139037  11.830  11.034  20.493
 5040ETHO    C139038  11.959  11.085  20.469
 5040ETHO   H1139039  11.986  11.163  20.544
 5040ETHO   H1339040  12.033  11.002  20.479
 5040ETHO    C239041  11.981  11.143  20.322
 5040ETHO   H2139042  12.080  11.187  20.298
 5040ETHO   H2339043  11.899  11.211  20.292
 5041ETHO    O139044  11.995  11.032  20.236
 5041ETHO    C139045  12.002  11.068  20.096
 5041ETHO   H1139046  11.956  11.168  20.074
 5041ETHO   H1339047  12.111  11.069  20.076
 5041ETHO    C239048  11.927  10.969  20.008
 5041ETHO   H2139049  11.853  10.915  20.072
 5041ETHO   H2339050  12.003  10.900  19.966
 5042ETHO    O139051  11.870  11.033  19.892
 5042ETHO    C139052  11.782  10.950  19.831
 5042ETHO   H1139053  11.825  10.848  19.837
 5042ETHO   H1339054  11.691  10.953  19.895
 5042ETHO    C239055  11.742  10.984  19.679
 5042ETHO   H2139056  11.708  11.089  19.670
 5042ETHO   H2339057  11.659  10.920  19.644
 5043ETHO    O139058  11.863  10.961  19.594
 5043ETHO    C139059  11.845  11.027  19.475
 5043ETHO   H1139060  11.830  11.135  19.497
 5043ETHO   H1339061  11.750  10.988  19.434
 5043ETHO    C239062  11.948  11.001  19.370
 5043ETHO   H2139063  11.938  11.072  19.285
 5043ETHO   H2339064  11.953  10.897  19.332
 5044ETHO    O139065  12.075  11.039  19.414
 5044ETHO    C139066  12.096  11.175  19.442
 5044ETHO   H1139067  12.084  11.226  19.344
 5044ETHO   H1339068  12.025  11.219  19.516
 5044ETHO    C239069  12.236  11.206  19.497
 5044ETHO   H2139070  12.236  11.146  19.590
 5044ETHO   H2339071  12.244  11.314  19.523
 5045ETHO    O139072  12.350  11.167  19.420
 5045ETHO    C139073  12.468  11.219  19.475
 5045ETHO   H1139074  12.478  11.191  19.582
 5045ETHO   H1339075  12.458  11.329  19.477
 5045ETHO    C239076  12.595  11.175  19.403
 5045ETHO   H2139077  12.682  11.228  19.448
 5045ETHO   H2339078  12.599  11.184  19.293
 5046ETHO    O139079  12.624  11.042  19.449
 5046ETHO    C139080  12.719  10.976  19.359
 5046ETHO   H1139081  12.681  10.966  19.255
 5046ETHO   H1339082  12.809  11.040  19.369
 5046ETHO    C239083  12.734  10.829  19.400
 5046ETHO   H2139084  12.814  10.780  19.340
 5046ETHO   H2339085  12.749  10.822  19.510
 5047ETHO    O139086  12.613  10.761  19.364
 5047ETHO    C139087  12.610  10.621  19.395
 5047ETHO   H1139088  12.616  10.605  19.505
 5047ETHO   H1339089  12.695  10.565  19.352
 5047ETHO    C239090  12.475  10.562  19.365
 5047ETHO   H2139091  12.401  10.630  19.412
 5047ETHO   H2339092  12.469  10.459  19.405
 5048ETHO    O139093  12.448  10.550  19.222
 5048ETHO    C139094  12.317  10.489  19.205
 5048ETHO   H1139095  12.305  10.389  19.252
 5048ETHO   H1339096  12.242  10.557  19.252
 5048ETHO    C239097  12.290  10.479  19.049
 5048ETHO   H2139098  12.199  10.419  19.029
 5048ETHO   H2339099  12.372  10.417  19.007
 5049ETHO    O139100  12.268  10.605  18.982
 5049ETHO    C139101  12.249  10.592  18.842
 5049ETHO   H1139102  12.152  10.538  18.835
 5049ETHO   H1339103  12.331  10.528  18.802
 5049ETHO    C239104  12.226  10.731  18.781
 5049ETHO   H2139105  12.156  10.785  18.847
 5049ETHO   H2339106  12.182  10.725  18.679
 5050ETHO    O139107  12.356  10.799  18.770
 5050ETHO    C139108  12.359  10.939  18.810
 5050ETHO   H1139109  12.272  10.992  18.766
 5050ETHO   H1339110  12.352  10.945  18.920
 5050ETHO    C239111  12.490  11.002  18.753
 5050ETHO   H2139112  12.506  11.091  18.817
 5050ETHO   H2339113  12.581  10.941  18.770
 5051ETHO    O139114  12.489  11.032  18.611
 5051ETHO    C139115  12.586  11.136  18.574
 5051ETHO   H1139116  12.542  11.236  18.592
 5051ETHO   H1339117  12.673  11.142  18.643
 5051ETHO    C239118  12.645  11.118  18.428
 5051ETHO   H2139119  12.712  11.204  18.406
 5051ETHO   H2339120  12.566  11.113  18.350
 5052ETHO    O139121  12.716  10.995  18.426
 5052ETHO    C139122  12.799  10.987  18.304
 5052ETHO   H1139123  12.741  10.968  18.212
 5052ETHO   H1339124  12.846  11.088  18.294
 5052ETHO    C239125  12.908  10.877  18.311
 5052ETHO   H2139126  12.954  10.874  18.210
 5052ETHO   H2339127  12.862  10.779  18.335
 5053ETHO    O139128  13.006  10.901  18.410
 5053ETHO    C139129  13.128  10.823  18.392
 5053ETHO   H1139130  13.165  10.838  18.288
 5053ETHO   H1339131  13.212  10.857  18.456
 5053ETHO    C239132  13.133  10.667  18.424
 5053ETHO   H2139133  13.207  10.617  18.357
 5053ETHO   H2339134  13.034  10.632  18.388
 5054ETHO    O139135  13.150  10.622  18.559
 5054ETHO    C139136  13.075  10.701  18.653
 5054ETHO   H1139137  12.975  10.731  18.616
 5054ETHO   H1339138  13.134  10.792  18.677
 5054ETHO    C239139  13.066  10.617  18.787
 5054ETHO   H2139140  12.996  10.533  18.767
 5054ETHO   H2339141  13.008  10.678  18.860
 5055ETHO    O139142  13.191  10.573  18.841
 5055ETHO    C139143  13.276  10.676  18.902
 5055ETHO   H1139144  13.313  10.743  18.821
 5055ETHO   H1339145  13.214  10.725  18.980
 5055ETHO    C239146  13.398  10.617  18.968
 5055ETHO   H2139147  13.357  10.528  19.020
 5055ETHO   H2339148  13.419  10.693  19.046
 5056ETHO    O139149  13.508  10.586  18.881
 5056ETHO    C139150  13.593  10.485  18.939
 5056ETHO   H1139151  13.552  10.468  19.041
 5056ETHO   H1339152  13.696  10.521  18.957
 5056ETHO    C239153  13.586  10.348  18.862
 5056ETHO   H2139154  13.481  10.332  18.829
 5056ETHO   H2339155  13.606  10.265  18.933
 5057ETHO    O139156  13.674  10.333  18.745
 5057ETHO    C139157  13.675  10.190  18.717
 5057ETHO   H1139158  13.698  10.134  18.810
 5057ETHO   H1339159  13.574  10.151  18.693
 5057ETHO    C239160  13.767  10.142  18.607
 5057ETHO   H2139161  13.765  10.031  18.603
 5057ETHO   H2339162  13.732  10.180  18.508
 5058ETHO    O139163  13.899  10.179  18.633
 5058ETHO    C139164  13.981  10.103  18.543
 5058ETHO   H1139165  13.945  10.121  18.440
 5058ETHO   H1339166  13.971   9.993  18.547
 5058ETHO    C239167  14.131  10.137  18.563
 5058ETHO   H2139168  14.132  10.248  18.555
 5058ETHO   H2339169  14.198  10.095  18.485
 5059ETHO    O139170  14.165  10.096  18.693
 5059ETHO    C139171  14.287  10.150  18.742
 5059ETHO   H1139172  14.354  10.148  18.653
 5059ETHO   H1339173  14.279  10.258  18.767
 5059ETHO    C239174  14.330  10.065  18.864
 5059ETHO   H2139175  14.253  10.083  18.942
 5059ETHO   H2339176  14.431  10.106  18.883
 5060ETHO    O139177  14.356   9.926  18.834
 5060ETHO    C139178  14.349   9.863  18.960
 5060ETHO   H1139179  14.246   9.871  19.002
 5060ETHO   H1339180  14.413   9.904  19.041
 5060ETHO    C239181  14.378   9.712  18.956
 5060ETHO   H2139182  14.317   9.665  18.876
 5060ETHO   H2339183  14.356   9.680  19.060
 5061ETHO    O139184  14.517   9.705  18.931
 5061ETHO    C139185  14.569   9.577  18.894
 5061ETHO   H1139186  14.545   9.505  18.975
 5061ETHO   H1339187  14.534   9.551  18.792
 5061ETHO    C239188  14.727   9.589  18.899
 5061ETHO   H2139189  14.771   9.487  18.898
 5061ETHO   H2339190  14.757   9.627  18.999
 5062ETHO    O139191  14.787   9.648  18.783
 5062ETHO    C139192  14.926   9.674  18.807
 5062ETHO   H1139193  14.927   9.719  18.909
 5062ETHO   H1339194  14.966   9.759  18.749
 5062ETHO    C239195  15.013   9.547  18.795
 5062ETHO   H2139196  15.031   9.508  18.692
 5062ETHO   H2339197  14.976   9.461  18.853
 5063ETHO    O139198  15.146   9.584  18.826
 5063ETHO    C139199  15.221   9.490  18.902
 5063ETHO   H1139200  15.160   9.480  18.994
 5063ETHO   H1339201  15.241   9.395  18.848
 5063ETHO    C239202  15.359   9.542  18.946
 5063ETHO   H2139203  15.426   9.539  18.857
 5063ETHO   H2339204  15.399   9.472  19.023
 5064ETHO    O139205  15.370   9.669  19.013
 5064ETHO    C139206  15.503   9.721  19.021
 5064ETHO   H1139207  15.543   9.739  18.918
 5064ETHO   H1339208  15.571   9.645  19.067
 5064ETHO    C239209  15.517   9.848  19.107
 5064ETHO   H2139210  15.622   9.884  19.101
 5064ETHO   H2339211  15.503   9.838  19.217
 5065ETHO    O139212  15.439   9.942  19.046
 5065ETHO    C139213  15.448  10.072  19.115
 5065ETHO   H1139214  15.396  10.061  19.213
 5065ETHO   H1339215  15.548  10.088  19.160
 5065ETHO    C239216  15.400  10.194  19.033
 5065ETHO   H2139217  15.375  10.275  19.105
 5065ETHO   H2339218  15.308  10.173  18.975
 5066ETHO    O139219  15.504  10.243  18.949
 5066ETHO    C139220  15.440  10.329  18.856
 5066ETHO   H1139221  15.513  10.359  18.777
 5066ETHO   H1339222  15.366  10.273  18.794
 5066ETHO    C239223  15.382  10.463  18.909
 5066ETHO   H2139224  15.310  10.455  18.993
 5066ETHO   H2339225  15.328  10.504  18.821
 5067ETHO    O139226  15.484  10.554  18.949
 5067ETHO    C139227  15.439  10.628  19.061
 5067ETHO   H1139228  15.351  10.691  19.039
 5067ETHO   H1339229  15.424  10.559  19.147
 5067ETHO    C239230  15.562  10.712  19.104
 5067ETHO   H2139231  15.581  10.789  19.026
 5067ETHO   H2339232  15.652  10.646  19.104
 5068ETHO    O139233  15.534  10.768  19.234
 5068ETHO    C139234  15.594  10.682  19.336
 5068ETHO   H1139235  15.565  10.575  19.322
 5068ETHO   H1339236  15.702  10.706  19.332
 5068ETHO    C239237  15.554  10.731  19.480
 5068ETHO   H2139238  15.609  10.669  19.554
 5068ETHO   H2339239  15.449  10.702  19.503
 5069ETHO    O139240  15.596  10.868  19.496
 5069ETHO    C139241  15.553  10.916  19.622
 5069ETHO   H1139242  15.631  10.974  19.674
 5069ETHO   H1339243  15.549  10.829  19.691
 5069ETHO    C239244  15.420  10.990  19.614
 5069ETHO   H2139245  15.432  11.066  19.534
 5069ETHO   H2339246  15.394  11.058  19.698
 5070ETHO    O139247  15.311  10.898  19.582
 5070ETHO    C139248  15.188  10.933  19.646
 5070ETHO   H1139249  15.207  10.961  19.752
 5070ETHO   H1339250  15.142  11.017  19.590
 5070ETHO    C239251  15.092  10.819  19.633
 5070ETHO   H2139252  15.144  10.734  19.683
 5070ETHO   H2339253  15.069  10.786  19.529
 5071ETHO    O139254  14.969  10.848  19.686
 5071ETHO    C139255  14.883  10.734  19.681
 5071ETHO   H1139256  14.942  10.640  19.694
 5071ETHO   H1339257  14.820  10.719  19.591
 5071ETHO    C239258  14.787  10.737  19.805
 5071ETHO   H2139259  14.761  10.638  19.848
 5071ETHO   H2339260  14.694  10.787  19.770
 5072ETHO    O139261  14.836  10.819  19.919
 5072ETHO    C139262  14.940  10.747  19.993
 5072ETHO   H1139263  14.911  10.642  20.015
 5072ETHO   H1339264  15.029  10.737  19.926
 5072ETHO    C239265  14.980  10.813  20.126
 5072ETHO   H2139266  15.001  10.921  20.107
 5072ETHO   H2339267  15.066  10.755  20.165
 5073ETHO    O139268  14.872  10.807  20.218
 5073ETHO    C139269  14.905  10.872  20.338
 5073ETHO   H1139270  14.933  10.979  20.322
 5073ETHO   H1339271  14.997  10.831  20.384
 5073ETHO    C239272  14.776  10.863  20.435
 5073ETHO   H2139273  14.684  10.887  20.378
 5073ETHO   H2339274  14.793  10.941  20.513
 5074ETHO    O139275  14.780  10.735  20.496
 5074ETHO    C139276  14.682  10.726  20.598
 5074ETHO   H1139277  14.714  10.798  20.676
 5074ETHO   H1339278  14.585  10.754  20.552
 5074ETHO    C239279  14.675  10.587  20.649
 5074ETHO   H2139280  14.775  10.551  20.684
 5074ETHO   H2339281  14.646  10.514  20.570
 5075ETHO    O139282  14.570  10.586  20.746
 5075ETHO    C139283  14.559  10.461  20.814
 5075ETHO   H1139284  14.658  10.445  20.862
 5075ETHO   H1339285  14.533  10.372  20.753
 5075ETHO    C239286  14.455  10.469  20.924
 5075ETHO   H2139287  14.470  10.557  20.990
 5075ETHO   H2339288  14.478  10.376  20.981
 5076ETHO    O139289  14.314  10.445  20.882
 5076ETHO    C139290  14.229  10.429  20.999
 5076ETHO   H1139291  14.216  10.320  21.016
 5076ETHO   H1339292  14.280  10.469  21.089
 5076ETHO    C239293  14.089  10.492  20.996
 5076ETHO   H2139294  14.039  10.458  21.089
 5076ETHO   H2339295  14.027  10.460  20.909
 5077ETHO    O139296  14.106  10.632  21.003
 5077ETHO    C139297  13.980  10.699  20.967
 5077ETHO   H1139298  13.934  10.647  20.880
 5077ETHO   H1339299  13.911  10.675  21.050
 5077ETHO    C239300  13.987  10.850  20.945
 5077ETHO   H2139301  14.050  10.896  21.024
 5077ETHO   H2339302  13.887  10.894  20.960
 5078ETHO    O139303  14.053  10.874  20.825
 5078ETHO    C139304  13.968  10.870  20.708
 5078ETHO   H1139305  13.889  10.792  20.718
 5078ETHO   H1339306  13.931  10.972  20.683
 5078ETHO    C239307  14.059  10.821  20.595
 5078ETHO   H2139308  14.161  10.861  20.618
 5078ETHO   H2339309  14.031  10.871  20.500
 5079ETHO    O139310  14.075  10.681  20.567
 5079ETHO    C139311  14.170  10.609  20.650
 5079ETHO   H1139312  14.221  10.673  20.726
 5079ETHO   H1339313  14.114  10.545  20.721
 5079ETHO    C239314  14.254  10.526  20.548
 5079ETHO   H2139315  14.197  10.444  20.499
 5079ETHO   H2339316  14.337  10.481  20.607
 5080ETHO    O139317  14.312  10.621  20.457
 5080ETHO    C139318  14.400  10.554  20.370
 5080ETHO   H1139319  14.335  10.479  20.320
 5080ETHO   H1339320  14.469  10.491  20.430
 5080ETHO    C239321  14.479  10.632  20.274
 5080ETHO   H2139322  14.573  10.578  20.255
 5080ETHO   H2339323  14.506  10.735  20.306
 5081ETHO    O139324  14.409  10.632  20.148
 5081ETHO    C139325  14.466  10.720  20.055
 5081ETHO   H1139326  14.428  10.819  20.089
 5081ETHO   H1339327  14.575  10.720  20.076
 5081ETHO    C239328  14.431  10.697  19.909
 5081ETHO   H2139329  14.450  10.791  19.854
 5081ETHO   H2339330  14.326  10.665  19.888
 5082ETHO    O139331  14.499  10.587  19.848
 5082ETHO    C139332  14.465  10.559  19.711
 5082ETHO   H1139333  14.472  10.648  19.645
 5082ETHO   H1339334  14.364  10.513  19.705
 5082ETHO    C239335  14.579  10.477  19.652
 5082ETHO   H2139336  14.619  10.393  19.714
 5082ETHO   H2339337  14.668  10.537  19.624
 5083ETHO    O139338  14.538  10.413  19.528
 5083ETHO    C139339  14.491  10.278  19.547
 5083ETHO   H1139340  14.444  10.265  19.647
 5083ETHO   H1339341  14.409  10.255  19.476
 5083ETHO    C239342  14.595  10.164  19.540
 5083ETHO   H2139343  14.690  10.174  19.596
 5083ETHO   H2339344  14.550  10.066  19.566
 5084ETHO    O139345  14.656  10.146  19.411
 5084ETHO    C139346  14.698  10.010  19.389
 5084ETHO   H1139347  14.610   9.949  19.360
 5084ETHO   H1339348  14.751   9.957  19.470
 5084ETHO    C239349  14.795   9.999  19.272
 5084ETHO   H2139350  14.853   9.904  19.269
 5084ETHO   H2339351  14.869  10.083  19.280
 5085ETHO    O139352  14.728  10.020  19.155
 5085ETHO    C139353  14.807   9.995  19.045
 5085ETHO   H1139354  14.899  10.056  19.056
 5085ETHO   H1339355  14.845   9.891  19.050
 5085ETHO    C239356  14.748  10.030  18.905
 5085ETHO   H2139357  14.643   9.996  18.893
 5085ETHO   H2339358  14.804   9.970  18.830
 5086ETHO    O139359  14.764  10.172  18.873
 5086ETHO    C139360  14.697  10.212  18.753
 5086ETHO   H1139361  14.588  10.191  18.750
 5086ETHO   H1339362  14.754  10.157  18.675
 5086ETHO    C239363  14.725  10.360  18.726
 5086ETHO   H2139364  14.710  10.396  18.622
 5086ETHO   H2339365  14.832  10.371  18.753
 5087ETHO    O139366  14.638  10.432  18.809
 5087ETHO    C139367  14.634  10.576  18.781
 5087ETHO   H1139368  14.720  10.631  18.825
 5087ETHO   H1339369  14.624  10.590  18.671
 5087ETHO    C239370  14.512  10.646  18.845
 5087ETHO   H2139371  14.539  10.753  18.834
 5087ETHO   H2339372  14.495  10.618  18.952
 5088ETHO    O139373  14.394  10.621  18.774
 5088ETHO    C139374  14.275  10.644  18.855
 5088ETHO   H1139375  14.290  10.595  18.954
 5088ETHO   H1339376  14.278  10.754  18.870
 5088ETHO    C239377  14.148  10.591  18.798
 5088ETHO   H2139378  14.081  10.559  18.881
 5088ETHO   H2339379  14.169  10.502  18.735
 5089ETHO    O139380  14.087  10.700  18.730
 5089ETHO    C139381  13.944  10.714  18.752
 5089ETHO   H1139382  13.935  10.717  18.863
 5089ETHO   H1339383  13.909  10.812  18.714
 5089ETHO    C239384  13.860  10.595  18.689
 5089ETHO   H2139385  13.752  10.608  18.709
 5089ETHO   H2339386  13.891  10.500  18.737
 5090ETHO    O139387  13.874  10.602  18.551
 5090ETHO    C139388  13.807  10.493  18.487
 5090ETHO   H1139389  13.835  10.392  18.526
 5090ETHO   H1339390  13.700  10.508  18.513
 5090ETHO    C239391  13.815  10.493  18.336
 5090ETHO   H2139392  13.921  10.478  18.305
 5090ETHO   H2339393  13.756  10.405  18.302
 5091ETHO    O139394  13.748  10.616  18.293
 5091ETHO    C139395  13.764  10.635  18.150
 5091ETHO   H1139396  13.730  10.540  18.105
 5091ETHO   H1339397  13.873  10.647  18.133
 5091ETHO    C239398  13.679  10.754  18.114
 5091ETHO   H2139399  13.576  10.743  18.154
 5091ETHO   H2339400  13.654  10.775  18.007
 5092ETHO    O139401  13.738  10.867  18.180
 5092ETHO    C139402  13.704  10.988  18.105
 5092ETHO   H1139403  13.785  10.992  18.030
 5092ETHO   H1339404  13.605  10.973  18.058
 5092ETHO    C239405  13.730  11.113  18.193
 5092ETHO   H2139406  13.729  11.207  18.134
 5092ETHO   H2339407  13.834  11.104  18.229
 5093ETHO    O139408  13.657  11.136  18.311
 5093ETHO    C139409  13.714  11.239  18.395
 5093ETHO   H1139410  13.691  11.340  18.354
 5093ETHO   H1339411  13.824  11.233  18.404
 5093ETHO    C239412  13.645  11.236  18.534
 5093ETHO   H2139413  13.536  11.216  18.519
 5093ETHO   H2339414  13.656  11.337  18.577
 5094ETHO    O139415  13.724  11.151  18.621
 5094ETHO    C139416  13.671  11.015  18.633
 5094ETHO   H1139417  13.613  10.999  18.540
 5094ETHO   H1339418  13.753  10.941  18.636
 5094ETHO    C239419  13.578  11.002  18.750
 5094ETHO   H2139420  13.522  10.906  18.744
 5094ETHO   H2339421  13.506  11.086  18.744
 5095ETHO    O139422  13.652  11.005  18.874
 5095ETHO    C139423  13.581  10.943  18.980
 5095ETHO   H1139424  13.543  10.841  18.956
 5095ETHO   H1339425  13.513  11.018  19.026
 5095ETHO    C239426  13.665  10.900  19.097
 5095ETHO   H2139427  13.599  10.856  19.175
 5095ETHO   H2339428  13.726  10.983  19.138
 5096ETHO    O139429  13.757  10.798  19.059
 5096ETHO    C139430  13.801  10.709  19.160
 5096ETHO   H1139431  13.711  10.654  19.196
 5096ETHO   H1339432  13.879  10.644  19.115
 5096ETHO    C239433  13.874  10.777  19.276
 5096ETHO   H2139434  13.841  10.716  19.363
 5096ETHO   H2339435  13.849  10.883  19.294
 5097ETHO    O139436  14.015  10.773  19.262
 5097ETHO    C139437  14.081  10.676  19.346
 5097ETHO   H1139438  14.019  10.585  19.336
 5097ETHO   H1339439  14.061  10.697  19.453
 5097ETHO    C239440  14.231  10.672  19.326
 5097ETHO   H2139441  14.262  10.651  19.221
 5097ETHO   H2339442  14.270  10.580  19.374
 5098ETHO    O139443  14.296  10.787  19.377
 5098ETHO    C139444  14.440  10.775  19.356
 5098ETHO   H1139445  14.489  10.687  19.403
 5098ETHO   H1339446  14.454  10.766  19.246
 5098ETHO    C239447  14.505  10.901  19.408
 5098ETHO   H2139448  14.463  10.980  19.343
 5098ETHO   H2339449  14.610  10.909  19.376
 5099ETHO    O139450  14.500  10.908  19.545
 5099ETHO    C139451  14.523  11.039  19.582
 5099ETHO   H1139452  14.457  11.117  19.539
 5099ETHO   H1339453  14.623  11.058  19.538
 5099ETHO    C239454  14.527  11.068  19.733
 5099ETHO   H2139455  14.589  11.159  19.746
 5099ETHO   H2339456  14.577  10.988  19.793
 5100ETHO    O139457  14.396  11.091  19.794
 5100ETHO    C139458  14.409  11.174  19.911
 5100ETHO   H1139459  14.480  11.126  19.982
 5100ETHO   H1339460  14.435  11.279  19.885
 5100ETHO    C239461  14.271  11.175  19.977
 5100ETHO   H2139462  14.266  11.204  20.084
 5100ETHO   H2339463  14.248  11.067  19.979
 5101ETHO    O139464  14.174  11.243  19.903
 5101ETHO    C139465  14.041  11.245  19.963
 5101ETHO   H1139466  14.037  11.318  20.047
 5101ETHO   H1339467  14.010  11.147  20.005
 5101ETHO    C239468  13.928  11.291  19.869
 5101ETHO   H2139469  13.831  11.280  19.922
 5101ETHO   H2339470  13.913  11.218  19.787
 5102ETHO    O139471  13.950  11.422  19.813
 5102ETHO    C139472  13.830  11.459  19.734
 5102ETHO   H1139473  13.861  11.551  19.680
 5102ETHO   H1339474  13.817  11.379  19.659
 5102ETHO    C239475  13.703  11.501  19.803
 5102ETHO   H2139476  13.650  11.411  19.842
 5102ETHO   H2339477  13.630  11.545  19.732
 5103ETHO    O139478  13.733  11.591  19.910
 5103ETHO    C139479  13.765  11.722  19.868
 5103ETHO   H1139480  13.857  11.735  19.808
 5103ETHO   H1339481  13.686  11.760  19.800
 5103ETHO    C239482  13.754  11.810  19.991
 5103ETHO   H2139483  13.808  11.901  19.959
 5103ETHO   H2339484  13.811  11.775  20.080
 5104ETHO    O139485  13.618  11.847  20.016
 5104ETHO    C139486  13.612  11.955  20.105
 5104ETHO   H1139487  13.678  11.936  20.192
 5104ETHO   H1339488  13.657  12.038  20.047
 5104ETHO    C239489  13.474  11.989  20.145
 5104ETHO   H2139490  13.399  11.974  20.065
 5104ETHO   H2339491  13.470  12.094  20.181
 5105ETHO    O139492  13.445  11.905  20.253
 5105ETHO    C139493  13.309  11.928  20.301
 5105ETHO   H1139494  13.293  12.037  20.308
 5105ETHO   H1339495  13.239  11.895  20.222
 5105ETHO    C239496  13.271  11.854  20.425
 5105ETHO   H2139497  13.317  11.753  20.421
 5105ETHO   H2339498  13.160  11.854  20.439
 5106ETHO    O139499  13.328  11.914  20.537
 5106ETHO    C139500  13.267  11.859  20.655
 5106ETHO   H1139501  13.219  11.761  20.632
 5106ETHO   H1339502  13.199  11.940  20.687
 5106ETHO    C239503  13.369  11.856  20.768
 5106ETHO   H2139504  13.312  11.840  20.862
 5106ETHO   H2339505  13.423  11.953  20.777
 5107ETHO    O139506  13.447  11.740  20.738
 5107ETHO    C139507  13.582  11.767  20.720
 5107ETHO   H1139508  13.582  11.851  20.648
 5107ETHO   H1339509  13.626  11.796  20.818
 5107ETHO    C239510  13.669  11.659  20.645
 5107ETHO   H2139511  13.759  11.714  20.611
 5107ETHO   H2339512  13.613  11.632  20.553
 5108ETHO    O139513  13.688  11.538  20.711
 5108ETHO    C139514  13.771  11.443  20.655
 5108ETHO   H1139515  13.851  11.496  20.599
 5108ETHO   H1339516  13.717  11.378  20.583
 5108ETHO    C239517  13.855  11.365  20.751
 5108ETHO   H2139518  13.915  11.416  20.830
 5108ETHO   H2339519  13.941  11.313  20.704
 5109ETHO    O139520  13.776  11.266  20.813
 5109ETHO    C139521  13.853  11.178  20.899
 5109ETHO   H1139522  13.789  11.091  20.925
 5109ETHO   H1339523  13.943  11.141  20.845
 5109ETHO    C239524  13.879  11.238  21.037
 5109ETHO   H2139525  13.935  11.332  21.020
 5109ETHO   H2339526  13.932  11.165  21.101
 5110ETHO    O139527  13.762  11.274  21.108
 5110ETHO    C139528  13.777  11.334  21.240
 5110ETHO   H1139529  13.790  11.444  21.235
 5110ETHO   H1339530  13.875  11.300  21.280
 5110ETHO    C239531  13.678  11.300  21.356
 5110ETHO   H2139532  13.577  11.288  21.313
 5110ETHO   H2339533  13.683  11.382  21.431
 5111ETHO    O139534  13.715  11.179  21.420
 5111ETHO    C139535  13.618  11.138  21.517
 5111ETHO   H1139536  13.594  11.223  21.584
 5111ETHO   H1339537  13.532  11.106  21.455
 5111ETHO    C239538  13.672  11.024  21.608
 5111ETHO   H2139539  13.596  11.004  21.686
 5111ETHO   H2339540  13.770  11.061  21.647
 5112ETHO    O139541  13.699  10.905  21.524
 5112ETHO    C139542  13.727  10.790  21.609
 5112ETHO   H1139543  13.630  10.760  21.655
 5112ETHO   H1339544  13.796  10.820  21.690
 5112ETHO    C239545  13.779  10.667  21.530
 5112ETHO   H2139546  13.801  10.570  21.581
 5112ETHO   H2339547  13.867  10.698  21.471
 5113ETHO    O139548  13.672  10.662  21.426
 5113ETHO    C139549  13.729  10.599  21.310
 5113ETHO   H1139550  13.820  10.648  21.268
 5113ETHO   H1339551  13.756  10.496  21.340
 5113ETHO    C239552  13.629  10.593  21.200
 5113ETHO   H2139553  13.620  10.692  21.151
 5113ETHO   H2339554  13.533  10.554  21.239
 5114ETHO    O139555  13.677  10.501  21.102
 5114ETHO    C139556  13.591  10.492  20.987
 5114ETHO   H1139557  13.607  10.388  20.952
 5114ETHO   H1339558  13.487  10.504  21.023
 5114ETHO    C239559  13.623  10.587  20.869
 5114ETHO   H2139560  13.570  10.564  20.774
 5114ETHO   H2339561  13.730  10.567  20.848
 5115ETHO    O139562  13.615  10.723  20.911
 5115ETHO    C139563  13.478  10.773  20.913
 5115ETHO   H1139564  13.402  10.700  20.877
 5115ETHO   H1339565  13.458  10.792  21.021
 5115ETHO    C239566  13.464  10.914  20.845
 5115ETHO   H2139567  13.553  10.976  20.866
 5115ETHO   H2339568  13.375  10.965  20.887
 5116ETHO    O139569  13.446  10.893  20.705
 5116ETHO    C139570  13.447  11.013  20.632
 5116ETHO   H1139571  13.520  11.084  20.676
 5116ETHO   H1339572  13.481  10.990  20.529
 5116ETHO    C239573  13.307  11.072  20.639
 5116ETHO   H2139574  13.272  11.086  20.743
 5116ETHO   H2339575  13.319  11.174  20.596
 5117ETHO    O139576  13.212  11.008  20.552
 5117ETHO    C139577  13.108  11.090  20.511
 5117ETHO   H1139578  13.144  11.176  20.451
 5117ETHO   H1339579  13.049  11.139  20.592
 5117ETHO    C239580  12.996  11.012  20.431
 5117ETHO   H2139581  12.916  11.072  20.381
 5117ETHO   H2339582  12.948  10.937  20.498
 5118ETHO    O139583  13.054  10.948  20.312
 5118ETHO    C139584  12.963  10.851  20.266
 5118ETHO   H1139585  12.923  10.783  20.344
 5118ETHO   H1339586  12.889  10.911  20.209
 5118ETHO    C239587  13.037  10.773  20.160
 5118ETHO   H2139588  12.969  10.695  20.118
 5118ETHO   H2339589  13.120  10.716  20.207
 5119ETHO    O139590  13.085  10.851  20.054
 5119ETHO    C139591  13.195  10.790  19.984
 5119ETHO   H1139592  13.162  10.688  19.955
 5119ETHO   H1339593  13.274  10.780  20.061
 5119ETHO    C239594  13.235  10.862  19.855
 5119ETHO   H2139595  13.314  10.807  19.799
 5119ETHO   H2339596  13.282  10.955  19.893
 5120ETHO    O139597  13.135  10.882  19.761
 5120ETHO    C139598  13.188  10.930  19.636
 5120ETHO   H1139599  13.265  11.009  19.648
 5120ETHO   H1339600  13.240  10.838  19.602
 5120ETHO    C239601  13.086  10.977  19.529
 5120ETHO   H2139602  12.992  10.919  19.516
 5120ETHO   H2339603  13.134  10.960  19.430
 5121ETHO    O139604  13.058  11.116  19.540
 5121ETHO    C139605  12.963  11.135  19.641
 5121ETHO   H1139606  13.000  11.100  19.740
 5121ETHO   H1339607  12.880  11.070  19.605
 5121ETHO    C239608  12.920  11.283  19.649
 5121ETHO   H2139609  13.002  11.340  19.697
 5121ETHO   H2339610  12.836  11.295  19.722
 5122ETHO    O139611  12.898  11.343  19.523
 5122ETHO    C139612  12.840  11.476  19.540
 5122ETHO   H1139613  12.731  11.471  19.555
 5122ETHO   H1339614  12.887  11.530  19.625
 5122ETHO    C239615  12.855  11.587  19.420
 5122ETHO   H2139616  12.955  11.566  19.375
 5122ETHO   H2339617  12.840  11.684  19.470
 5123ETHO    O139618  12.760  11.557  19.314
 5123ETHO    C139619  12.743  11.663  19.220
 5123ETHO   H1139620  12.759  11.762  19.268
 5123ETHO   H1339621  12.636  11.670  19.192
 5123ETHO    C239622  12.824  11.649  19.092
 5123ETHO   H2139623  12.782  11.726  19.024
 5123ETHO   H2339624  12.809  11.546  19.052
 5124ETHO    O139625  12.959  11.668  19.120
 5124ETHO    C139626  13.033  11.691  19.001
 5124ETHO   H1139627  13.137  11.661  19.025
 5124ETHO   H1339628  13.001  11.608  18.934
 5124ETHO    C239629  13.028  11.828  18.930
 5124ETHO   H2139630  12.922  11.860  18.918
 5124ETHO   H2339631  13.082  11.830  18.833
 5125ETHO    O139632  13.084  11.923  19.020
 5125ETHO    C139633  13.096  12.056  18.966
 5125ETHO   H1139634  13.178  12.099  19.027
 5125ETHO   H1339635  13.147  12.056  18.867
 5125ETHO    C239636  12.969  12.145  18.960
 5125ETHO   H2139637  12.995  12.248  18.929
 5125ETHO   H2339638  12.923  12.134  19.061
 5126ETHO    O139639  12.881  12.095  18.860
 5126ETHO    C139640  12.749  12.151  18.882
 5126ETHO   H1139641  12.720  12.108  18.980
 5126ETHO   H1339642  12.761  12.261  18.889
 5126ETHO    C239643  12.643  12.117  18.773
 5126ETHO   H2139644  12.543  12.140  18.815
 5126ETHO   H2339645  12.649  12.006  18.765
 5127ETHO    O139646  12.669  12.179  18.645
 5127ETHO    C139647  12.580  12.124  18.555
 5127ETHO   H1139648  12.611  12.019  18.535
 5127ETHO   H1339649  12.479  12.115  18.601
 5127ETHO    C239650  12.562  12.209  18.428
 5127ETHO   H2139651  12.559  12.319  18.441
 5127ETHO   H2339652  12.472  12.178  18.370
 5128ETHO    O139653  12.676  12.192  18.347
 5128ETHO    C139654  12.689  12.268  18.229
 5128ETHO   H1139655  12.716  12.372  18.255
 5128ETHO   H1339656  12.589  12.268  18.180
 5128ETHO    C239657  12.798  12.215  18.140
 5128ETHO   H2139658  12.882  12.172  18.199
 5128ETHO   H2339659  12.836  12.295  18.073
 5129ETHO    O139660  12.746  12.112  18.059
 5129ETHO    C139661  12.836  12.022  18.005
 5129ETHO   H1139662  12.909  12.087  17.952
 5129ETHO   H1339663  12.870  11.950  18.083
 5129ETHO    C239664  12.776  11.942  17.893
 5129ETHO   H2139665  12.846  11.867  17.851
 5129ETHO   H2339666  12.750  12.006  17.806
 5130ETHO    O139667  12.656  11.876  17.931
 5130ETHO    C139668  12.651  11.739  17.932
 5130ETHO   H1139669  12.624  11.696  18.031
 5130ETHO   H1339670  12.747  11.694  17.899
 5130ETHO    C239671  12.550  11.676  17.839
 5130ETHO   H2139672  12.452  11.724  17.858
 5130ETHO   H2339673  12.529  11.573  17.875
 5131ETHO    O139674  12.582  11.681  17.695
 5131ETHO    C139675  12.562  11.814  17.646
 5131ETHO   H1139676  12.582  11.895  17.720
 5131ETHO   H1339677  12.613  11.831  17.550
 5131ETHO    C239678  12.411  11.822  17.606
 5131ETHO   H2139679  12.377  11.927  17.600
 5131ETHO   H2339680  12.349  11.771  17.683
 5132ETHO    O139681  12.382  11.760  17.479
 5132ETHO    C139682  12.396  11.847  17.365
 5132ETHO   H1139683  12.500  11.886  17.353
 5132ETHO   H1339684  12.326  11.933  17.372
 5132ETHO    C239685  12.351  11.789  17.234
 5132ETHO   H2139686  12.357  11.864  17.152
 5132ETHO   H2339687  12.248  11.750  17.240
 5133ETHO    O139688  12.435  11.679  17.212
 5133ETHO    C139689  12.429  11.626  17.081
 5133ETHO   H1139690  12.319  11.615  17.069
 5133ETHO   H1339691  12.472  11.696  17.006
 5133ETHO    C239692  12.480  11.480  17.087
 5133ETHO   H2139693  12.447  11.442  16.988
 5133ETHO   H2339694  12.432  11.418  17.165
 5134ETHO    O139695  12.623  11.479  17.091
 5134ETHO    C139696  12.664  11.351  17.135
 5134ETHO   H1139697  12.622  11.271  17.071
 5134ETHO   H1339698  12.635  11.339  17.242
 5134ETHO    C239699  12.814  11.335  17.104
 5134ETHO   H2139700  12.852  11.246  17.160
 5134ETHO   H2339701  12.878  11.418  17.142
 5135ETHO    O139702  12.846  11.294  16.973
 5135ETHO    C139703  12.973  11.241  16.950
 5135ETHO   H1139704  13.047  11.319  16.980
 5135ETHO   H1339705  12.985  11.152  17.014
 5135ETHO    C239706  12.984  11.191  16.799
 5135ETHO   H2139707  13.091  11.161  16.791
 5135ETHO   H2339708  12.959  11.274  16.730
 5136PROX    O139709  12.908  11.074  16.777
 5136PROX    C139710  12.928  11.026  16.641
 5136PROX   H1139711  13.035  11.022  16.612
 5136PROX   H1339712  12.889  10.923  16.626
 5136PROX    C239713  12.836  11.103  16.539
 5136PROX   H2139714  12.860  11.212  16.548
 5136PROX    C339715  12.687  11.101  16.571
 5136PROX   H3139716  12.673  11.133  16.677
 5136PROX   H3239717  12.628  11.159  16.498
 5136PROX   H3339718  12.659  10.994  16.567
 5137PROX    O139719  12.846  11.048  16.407
 5137PROX    C139720  12.953  11.096  16.328
 5137PROX   H1139721  13.044  11.124  16.385
 5137PROX   H1339722  12.992  11.017  16.261
 5137PROX    C239723  12.925  11.222  16.244
 5137PROX   H2139724  12.825  11.215  16.198
 5137PROX    C339725  13.012  11.243  16.108
 5137PROX   H3139726  13.005  11.148  16.051
 5137PROX   H3239727  12.975  11.332  16.053
 5137PROX   H3339728  13.119  11.260  16.131
 5138PROX    O139729  12.947  11.333  16.331
 5138PROX    C139730  12.840  11.424  16.322
 5138PROX   H1139731  12.820  11.451  16.216
 5138PROX   H1339732  12.747  11.375  16.361
 5138PROX    C239733  12.864  11.547  16.409
 5138PROX   H2139734  12.780  11.618  16.396
 5138PROX    C339735  13.000  11.616  16.373
 5138PROX   H3139736  13.086  11.555  16.406
 5138PROX   H3239737  13.002  11.631  16.263
 5138PROX   H3339738  13.008  11.719  16.414
 5139PROX    O139739  12.878  11.520  16.543
 5139PROX    C139740  12.749  11.507  16.602
 5139PROX   H1139741  12.682  11.449  16.534
 5139PROX   H1339742  12.757  11.444  16.694
 5139PROX    C239743  12.690  11.647  16.634
 5139PROX   H2139744  12.770  11.724  16.634
 5139PROX    C339745  12.611  11.637  16.762
 5139PROX   H3139746  12.568  11.730  16.805
 5139PROX   H3239747  12.523  11.573  16.739
 5139PROX   H3339748  12.674  11.588  16.840
 5140PROX    O139749  12.600  11.691  16.538
 5140PROX    C139750  12.575  11.831  16.539
 5140PROX   H1139751  12.565  11.874  16.641
 5140PROX   H1339752  12.658  11.882  16.486
 5140PROX    C239753  12.437  11.855  16.468
 5140PROX   H2139754  12.441  11.814  16.365
 5140PROX    C339755  12.415  12.008  16.437
 5140PROX   H3139756  12.326  12.015  16.372
 5140PROX   H3239757  12.394  12.068  16.528
 5140PROX   H3339758  12.502  12.049  16.380
 5141PROX    O139759  12.330  11.803  16.546
 5141PROX    C139760  12.301  11.671  16.499
 5141PROX   H1139761  12.388  11.609  16.467
 5141PROX   H1339762  12.263  11.621  16.591
 5141PROX    C239763  12.189  11.668  16.398
 5141PROX   H2139764  12.104  11.721  16.444
 5141PROX    C339765  12.140  11.526  16.369
 5141PROX   H3139766  12.206  11.475  16.296
 5141PROX   H3239767  12.150  11.461  16.459
 5141PROX   H3339768  12.036  11.529  16.330
 5142PROX    O139769  12.222  11.728  16.280
 5142PROX    C139770  12.100  11.768  16.212
 5142PROX   H1139771  12.037  11.682  16.179
 5142PROX   H1339772  12.037  11.830  16.279
 5142PROX    C239773  12.124  11.865  16.102
 5142PROX   H2139774  12.025  11.880  16.056
 5142PROX    C339775  12.221  11.816  15.996
 5142PROX   H3139776  12.313  11.784  16.049
 5142PROX   H3239777  12.175  11.730  15.944
 5142PROX   H3339778  12.226  11.888  15.912
 5143PROX    O139779  12.169  11.988  16.165
 5143PROX    C139780  12.154  12.094  16.071
 5143PROX   H1139781  12.236  12.087  15.996
 5143PROX   H1339782  12.065  12.080  16.007
 5143PROX    C239783  12.149  12.225  16.147
 5143PROX   H2139784  12.228  12.226  16.225
 5143PROX    C339785  12.011  12.238  16.222
 5143PROX   H3139786  12.001  12.316  16.300
 5143PROX   H3239787  11.927  12.267  16.155
 5143PROX   H3339788  11.988  12.139  16.267
 5144PROX    O139789  12.157  12.325  16.050
 5144PROX    C139790  12.171  12.457  16.110
 5144PROX   H1139791  12.074  12.503  16.137
 5144PROX   H1339792  12.233  12.465  16.202
 5144PROX    C239793  12.228  12.556  16.001
 5144PROX   H2139794  12.332  12.529  15.971
 5144PROX    C339795  12.218  12.699  16.049
 5144PROX   H3139796  12.114  12.714  16.086
 5144PROX   H3239797  12.281  12.724  16.137
 5144PROX   H3339798  12.241  12.777  15.973
 5145PROX    O139799  12.145  12.559  15.886
 5145PROX    C139800  12.199  12.475  15.782
 5145PROX   H1139801  12.277  12.535  15.732
 5145PROX   H1339802  12.249  12.384  15.821
 5145PROX    C239803  12.080  12.435  15.686
 5145PROX   H2139804  12.034  12.529  15.648
 5145PROX    C339805  11.974  12.361  15.765
 5145PROX   H3139806  11.903  12.437  15.804
 5145PROX   H3239807  11.917  12.290  15.702
 5145PROX   H3339808  12.026  12.315  15.851
 5146PROX    O139809  12.124  12.352  15.579
 5146PROX    C139810  12.023  12.339  15.469
 5146PROX   H1139811  11.922  12.364  15.508
 5146PROX   H1339812  12.046  12.414  15.390
 5146PROX    C239813  12.029  12.200  15.405
 5146PROX   H2139814  12.026  12.125  15.487
 5146PROX    C339815  12.151  12.174  15.314
 5146PROX   H3139816  12.242  12.172  15.378
 5146PROX   H3239817  12.152  12.074  15.265
 5146PROX   H3339818  12.157  12.268  15.255
 5147PROX    O139819  11.914  12.192  15.313
 5147PROX    C139820  11.871  12.063  15.280
 5147PROX   H1139821  11.912  12.025  15.185
 5147PROX   H1339822  11.905  11.996  15.362
 5147PROX    C239823  11.714  12.063  15.270
 5147PROX   H2139824  11.681  12.161  15.228
 5147PROX    C339825  11.659  12.043  15.409
 5147PROX   H3139826  11.674  11.936  15.434
 5147PROX   H3239827  11.712  12.105  15.484
 5147PROX   H3339828  11.549  12.058  15.409
 5148PROX    O139829  11.669  11.965  15.176
 5148PROX    C139830  11.531  11.961  15.176
 5148PROX   H1139831  11.497  11.907  15.267
 5148PROX   H1339832  11.479  12.059  15.178
 5148PROX    C239833  11.486  11.888  15.044
 5148PROX   H2139834  11.546  11.924  14.958
 5148PROX    C339835  11.339  11.922  15.004
 5148PROX   H3139836  11.334  12.033  15.006
 5148PROX   H3239837  11.316  11.882  14.904
 5148PROX   H3339838  11.273  11.877  15.081
 5149PROX    O139839  11.486  11.747  15.067
 5149PROX    C139840  11.619  11.693  15.063
 5149PROX   H1139841  11.697  11.768  15.087
 5149PROX   H1339842  11.610  11.615  15.142
 5149PROX    C239843  11.643  11.628  14.917
 5149PROX   H2139844  11.551  11.575  14.885
 5149PROX    C339845  11.741  11.512  14.924
 5149PROX   H3139846  11.710  11.430  14.992
 5149PROX   H3239847  11.754  11.465  14.824
 5149PROX   H3339848  11.838  11.540  14.968
 5150PROX    O139849  11.687  11.723  14.816
 5150PROX    C139850  11.808  11.802  14.848
 5150PROX   H1139851  11.804  11.859  14.943
 5150PROX   H1339852  11.888  11.728  14.870
 5150PROX    C239853  11.860  11.882  14.725
 5150PROX   H2139854  11.784  11.960  14.706
 5150PROX    C339855  11.871  11.799  14.596
 5150PROX   H3139856  11.955  11.727  14.607
 5150PROX   H3239857  11.778  11.740  14.584
 5150PROX   H3339858  11.890  11.865  14.508
 5151PROX    O139859  11.985  11.943  14.748
 5151PROX    C139860  11.969  12.065  14.828
 5151PROX   H1139861  11.918  12.144  14.768
 5151PROX   H1339862  11.907  12.044  14.918
 5151PROX    C239863  12.114  12.116  14.866
 5151PROX   H2139864  12.164  12.032  14.919
 5151PROX    C339865  12.123  12.232  14.972
 5151PROX   H3139866  12.031  12.222  15.033
 5151PROX   H3239867  12.205  12.217  15.045
 5151PROX   H3339868  12.107  12.329  14.919
 5152PROX    O139869  12.185  12.144  14.745
 5152PROX    C139870  12.322  12.119  14.757
 5152PROX   H1139871  12.377  12.206  14.716
 5152PROX   H1339872  12.346  12.111  14.865
 5152PROX    C239873  12.365  11.992  14.682
 5152PROX   H2139874  12.311  11.989  14.585
 5152PROX    C339875  12.330  11.863  14.752
 5152PROX   H3139876  12.355  11.849  14.859
 5152PROX   H3239877  12.220  11.856  14.744
 5152PROX   H3339878  12.367  11.771  14.702
 5153PROX    O139879  12.505  11.988  14.660
 5153PROX    C139880  12.543  11.895  14.555
 5153PROX   H1139881  12.614  11.821  14.598
 5153PROX   H1339882  12.455  11.840  14.516
 5153PROX    C239883  12.598  11.968  14.431
 5153PROX   H2139884  12.544  12.063  14.408
 5153PROX    C339885  12.573  11.885  14.301
 5153PROX   H3139886  12.605  11.942  14.211
 5153PROX   H3239887  12.620  11.784  14.307
 5153PROX   H3339888  12.465  11.859  14.291
 5154PROX    O139889  12.738  11.997  14.443
 5154PROX    C139890  12.759  12.093  14.542
 5154PROX   H1139891  12.809  12.187  14.510
 5154PROX   H1339892  12.660  12.137  14.567
 5154PROX    C239893  12.824  12.036  14.677
 5154PROX   H2139894  12.774  11.938  14.694
 5154PROX    C339895  12.805  12.139  14.788
 5154PROX   H3139896  12.834  12.235  14.740
 5154PROX   H3239897  12.702  12.145  14.827
 5154PROX   H3339898  12.871  12.121  14.875
 5155PROX    O139899  12.959  12.013  14.651
 5155PROX    C139900  13.007  11.927  14.752
 5155PROX   H1139901  13.100  11.961  14.803
 5155PROX   H1339902  12.939  11.903  14.837
 5155PROX    C239903  13.032  11.793  14.681
 5155PROX   H2139904  13.114  11.815  14.609
 5155PROX    C339905  12.914  11.736  14.597
 5155PROX   H3139906  12.844  11.701  14.676
 5155PROX   H3239907  12.865  11.812  14.532
 5155PROX   H3339908  12.958  11.652  14.540
 5156PROX    O139909  13.080  11.704  14.771
 5156PROX    C139910  13.143  11.584  14.711
 5156PROX   H1139911  13.147  11.590  14.600
 5156PROX   H1339912  13.246  11.579  14.754
 5156PROX    C239913  13.092  11.442  14.761
 5156PROX   H2139914  13.104  11.461  14.870
 5156PROX    C339915  13.190  11.332  14.715
 5156PROX   H3139916  13.292  11.357  14.751
 5156PROX   H3239917  13.166  11.230  14.749
 5156PROX   H3339918  13.204  11.323  14.605
 5157PROX    O139919  12.953  11.430  14.733
 5157PROX    C139920  12.899  11.323  14.811
 5157PROX   H1139921  12.929  11.224  14.772
 5157PROX   H1339922  12.928  11.328  14.918
 5157PROX    C239923  12.745  11.322  14.821
 5157PROX   H2139924  12.725  11.420  14.869
 5157PROX    C339925  12.700  11.222  14.929
 5157PROX   H3139926  12.606  11.264  14.969
 5157PROX   H3239927  12.685  11.124  14.880
 5157PROX   H3339928  12.772  11.219  15.014
 5158PROX    O139929  12.678  11.312  14.690
 5158PROX    C139930  12.536  11.341  14.700
 5158PROX   H1139931  12.474  11.250  14.711
 5158PROX   H1339932  12.519  11.407  14.788
 5158PROX    C239933  12.502  11.433  14.571
 5158PROX   H2139934  12.530  11.370  14.483
 5158PROX    C339935  12.593  11.552  14.564
 5158PROX   H3139936  12.701  11.531  14.576
 5158PROX   H3239937  12.585  11.594  14.462
 5158PROX   H3339938  12.574  11.628  14.643
 5159PROX    O139939  12.359  11.457  14.581
 5159PROX    C139940  12.299  11.487  14.456
 5159PROX   H1139941  12.367  11.560  14.407
 5159PROX   H1339942  12.298  11.397  14.391
 5159PROX    C239943  12.162  11.555  14.483
 5159PROX   H2139944  12.177  11.643  14.549
 5159PROX    C339945  12.052  11.461  14.546
 5159PROX   H3139946  11.955  11.514  14.549
 5159PROX   H3239947  12.050  11.366  14.489
 5159PROX   H3339948  12.089  11.433  14.647
 5160PROX    O139949  12.110  11.607  14.357
 5160PROX    C139950  12.148  11.741  14.334
 5160PROX   H1139951  12.096  11.819  14.393
 5160PROX   H1339952  12.256  11.758  14.355
 5160PROX    C239953  12.135  11.770  14.185
 5160PROX   H2139954  12.031  11.759  14.149
 5160PROX    C339955  12.225  11.677  14.101
 5160PROX   H3139956  12.333  11.700  14.117
 5160PROX   H3239957  12.206  11.575  14.140
 5160PROX   H3339958  12.197  11.667  13.994
 5161PROX    O139959  12.165  11.907  14.166
 5161PROX    C139960  12.167  11.948  14.029
 5161PROX   H1139961  12.260  11.924  13.973
 5161PROX   H1339962  12.079  11.910  13.972
 5161PROX    C239963  12.166  12.103  14.027
 5161PROX   H2139964  12.102  12.147  14.107
 5161PROX    C339965  12.128  12.152  13.884
 5161PROX   H3139966  12.124  12.263  13.884
 5161PROX   H3239967  12.202  12.115  13.810
 5161PROX   H3339968  12.033  12.112  13.844
 5162PROX    O139969  12.300  12.155  14.034
 5162PROX    C139970  12.303  12.276  14.099
 5162PROX   H1139971  12.369  12.349  14.047
 5162PROX   H1339972  12.205  12.327  14.107
 5162PROX    C239973  12.355  12.258  14.245
 5162PROX   H2139974  12.437  12.183  14.238
 5162PROX    C339975  12.248  12.188  14.329
 5162PROX   H3139976  12.148  12.236  14.323
 5162PROX   H3239977  12.235  12.083  14.295
 5162PROX   H3339978  12.282  12.193  14.435
 5163PROX    O139979  12.392  12.376  14.304
 5163PROX    C139980  12.492  12.364  14.412
 5163PROX   H1139981  12.448  12.307  14.496
 5163PROX   H1339982  12.578  12.303  14.378
 5163PROX    C239983  12.541  12.502  14.452
 5163PROX   H2139984  12.464  12.560  14.508
 5163PROX    C339985  12.599  12.582  14.334
 5163PROX   H3139986  12.514  12.602  14.266
 5163PROX   H3239987  12.639  12.685  14.351
 5163PROX   H3339988  12.682  12.530  14.281
 5164PROX    O139989  12.647  12.495  14.543
 5164PROX    C139990  12.614  12.457  14.679
 5164PROX   H1139991  12.575  12.353  14.684
 5164PROX   H1339992  12.711  12.453  14.734
 5164PROX    C239993  12.517  12.556  14.750
 5164PROX   H2139994  12.413  12.552  14.712
 5164PROX    C339995  12.559  12.702  14.725
 5164PROX   H3139996  12.580  12.724  14.619
 5164PROX   H3239997  12.488  12.780  14.760
 5164PROX   H3339998  12.646  12.730  14.788
 5165PROX    O139999  12.513  12.535  14.888
 5165PROX    C140000  12.443  12.412  14.920
 5165PROX   H1140001  12.334  12.416  14.899
 5165PROX   H1340002  12.493  12.326  14.870
 5165PROX    C240003  12.457  12.380  15.077
 5165PROX   H2140004  12.532  12.449  15.123
 5165PROX    C340005  12.493  12.235  15.100
 5165PROX   H3140006  12.424  12.167  15.046
 5165PROX   H3240007  12.594  12.224  15.055
 5165PROX   H3340008  12.506  12.206  15.207
 5166PROX    O140009  12.333  12.399  15.145
 5166PROX    C140010  12.297  12.536  15.166
 5166PROX   H1140011  12.327  12.589  15.073
 5166PROX   H1340012  12.189  12.537  15.189
 5166PROX    C240013  12.370  12.603  15.282
 5166PROX   H2140014  12.479  12.580  15.287
 5166PROX    C340015  12.299  12.549  15.409
 5166PROX   H3140016  12.368  12.559  15.495
 5166PROX   H3240017  12.198  12.595  15.418
 5166PROX   H3340018  12.284  12.439  15.407
 5167PROX    O140019  12.347  12.750  15.289
 5167PROX    C140020  12.422  12.810  15.180
 5167PROX   H1140021  12.521  12.760  15.170
 5167PROX   H1340022  12.373  12.809  15.080
 5167PROX    C240023  12.444  12.960  15.197
 5167PROX   H2140024  12.357  13.012  15.243
 5167PROX    C340025  12.478  13.026  15.070
 5167PROX   H3140026  12.390  13.023  15.002
 5167PROX   H3240027  12.490  13.131  15.105
 5167PROX   H3340028  12.572  12.985  15.026
 5168PROX    O140029  12.552  12.982  15.293
 5168PROX    C140030  12.523  13.094  15.375
 5168PROX   H1140031  12.615  13.152  15.398
 5168PROX   H1340032  12.469  13.168  15.312
 5168PROX    C240033  12.441  13.066  15.503
 5168PROX   H2140034  12.375  12.977  15.490
 5168PROX    C340035  12.339  13.175  15.551
 5168PROX   H3140036  12.251  13.175  15.484
 5168PROX   H3240037  12.309  13.139  15.652
 5168PROX   H3340038  12.387  13.275  15.560
 5169PROX    O140039  12.531  13.042  15.614
 5169PROX    C140040  12.603  12.914  15.597
 5169PROX   H1140041  12.646  12.906  15.495
 5169PROX   H1340042  12.677  12.904  15.679
 5169PROX    C240043  12.514  12.786  15.613
 5169PROX   H2140044  12.463  12.764  15.517
 5169PROX    C340045  12.411  12.798  15.733
 5169PROX   H3140046  12.455  12.860  15.814
 5169PROX   H3240047  12.317  12.836  15.687
 5169PROX   H3340048  12.396  12.696  15.774
 5170PROX    O140049  12.590  12.673  15.641
 5170PROX    C140050  12.672  12.621  15.533
 5170PROX   H1140051  12.618  12.537  15.484
 5170PROX   H1340052  12.689  12.700  15.456
 5170PROX    C240053  12.804  12.562  15.596
 5170PROX   H2140054  12.793  12.473  15.662
 5170PROX    C340055  12.857  12.658  15.699
 5170PROX   H3140056  12.795  12.656  15.792
 5170PROX   H3240057  12.957  12.626  15.735
 5170PROX   H3340058  12.864  12.764  15.664
 5171PROX    O140059  12.893  12.532  15.492
 5171PROX    C140060  13.007  12.441  15.530
 5171PROX   H1140061  13.094  12.505  15.554
 5171PROX   H1340062  12.982  12.383  15.622
 5171PROX    C240063  13.031  12.336  15.415
 5171PROX   H2140064  12.932  12.318  15.369
 5171PROX    C340065  13.077  12.195  15.462
 5171PROX   H3140066  13.168  12.202  15.525
 5171PROX   H3240067  12.998  12.141  15.518
 5171PROX   H3340068  13.101  12.143  15.367
 5172PROX    O140069  13.127  12.375  15.316
 5172PROX    C140070  13.071  12.476  15.226
 5172PROX   H1140071  13.020  12.556  15.284
 5172PROX   H1340072  13.149  12.540  15.179
 5172PROX    C240073  12.974  12.428  15.118
 5172PROX   H2140074  12.891  12.374  15.168
 5172PROX    C340075  13.040  12.330  15.021
 5172PROX   H3140076  13.062  12.232  15.069
 5172PROX   H3240077  12.966  12.305  14.942
 5172PROX   H3340078  13.136  12.365  14.976
 5173PROX    O140079  12.912  12.530  15.041
 5173PROX    C140080  12.801  12.584  15.109
 5173PROX   H1140081  12.714  12.555  15.047
 5173PROX   H1340082  12.789  12.555  15.215
 5173PROX    C240083  12.819  12.734  15.116
 5173PROX   H2140084  12.720  12.786  15.112
 5173PROX    C340085  12.907  12.781  14.999
 5173PROX   H3140086  12.945  12.883  15.023
 5173PROX   H3240087  12.996  12.716  14.984
 5173PROX   H3340088  12.854  12.802  14.904
 5174PROX    O140089  12.879  12.764  15.239
 5174PROX    C140090  12.877  12.904  15.275
 5174PROX   H1140091  12.935  12.972  15.209
 5174PROX   H1340092  12.772  12.937  15.271
 5174PROX    C240093  12.932  12.937  15.420
 5174PROX   H2140094  12.878  12.862  15.482
 5174PROX    C340095  12.900  13.080  15.467
 5174PROX   H3140096  12.924  13.164  15.399
 5174PROX   H3240097  12.790  13.089  15.484
 5174PROX   H3340098  12.959  13.091  15.560
 5175PROX    O140099  13.071  12.928  15.431
 5175PROX    C140100  13.122  12.794  15.429
 5175PROX   H1140101  13.057  12.728  15.489
 5175PROX   H1340102  13.119  12.753  15.325
 5175PROX    C240103  13.265  12.774  15.496
 5175PROX   H2140104  13.328  12.863  15.476
 5175PROX    C340105  13.334  12.656  15.435
 5175PROX   H3140106  13.340  12.665  15.325
 5175PROX   H3240107  13.441  12.648  15.466
 5175PROX   H3340108  13.283  12.560  15.458
 5176PROX    O140109  13.250  12.749  15.634
 5176PROX    C140110  13.190  12.853  15.709
 5176PROX   H1140111  13.219  12.952  15.668
 5176PROX   H1340112  13.080  12.849  15.691
 5176PROX    C240113  13.213  12.838  15.860
 5176PROX   H2140114  13.214  12.731  15.888
 5176PROX    C340115  13.105  12.901  15.944
 5176PROX   H3140116  13.136  12.894  16.050
 5176PROX   H3240117  13.091  13.010  15.925
 5176PROX   H3340118  13.011  12.845  15.921
 5177PROX    O140119  13.335  12.905  15.891
 5177PROX    C140120  13.443  12.832  15.828
 5177PROX   H1140121  13.424  12.723  15.830
 5177PROX   H1340122  13.439  12.860  15.720
 5177PROX    C240123  13.576  12.862  15.887
 5177PROX   H2140124  13.600  12.795  15.973
 5177PROX    C340125  13.583  13.014  15.928
 5177PROX   H3140126  13.672  13.044  15.988
 5177PROX   H3240127  13.597  13.066  15.831
 5177PROX   H3340128  13.488  13.053  15.969
 5178PROX    O140129  13.677  12.838  15.787
 5178PROX    C140130  13.671  12.699  15.741
 5178PROX   H1140131  13.665  12.632  15.829
 5178PROX   H1340132  13.580  12.695  15.677
 5178PROX    C240133  13.789  12.665  15.651
 5178PROX   H2140134  13.886  12.685  15.702
 5178PROX    C340135  13.786  12.756  15.528
 5178PROX   H3140136  13.870  12.728  15.461
 5178PROX   H3240137  13.685  12.748  15.481
 5178PROX   H3340138  13.816  12.855  15.569
 5179PROX    O140139  13.783  12.527  15.603
 5179PROX    C140140  13.901  12.491  15.522
 5179PROX   H1140141  13.879  12.524  15.419
 5179PROX   H1340142  13.992  12.525  15.575
 5179PROX    C240143  13.912  12.336  15.530
 5179PROX   H2140144  13.873  12.311  15.631
 5179PROX    C340145  14.061  12.298  15.517
 5179PROX   H3140146  14.108  12.350  15.430
 5179PROX   H3240147  14.122  12.325  15.606
 5179PROX   H3340148  14.076  12.189  15.502
 5180PROX    O140149  13.829  12.285  15.429
 5180PROX    C140150  13.828  12.145  15.417
 5180PROX   H1140151  13.784  12.112  15.321
 5180PROX   H1340152  13.930  12.106  15.401
 5180PROX    C240153  13.753  12.076  15.542
 5180PROX   H2140154  13.701  12.155  15.600
 5180PROX    C340155  13.847  11.989  15.627
 5180PROX   H3140156  13.922  11.937  15.563
 5180PROX   H3240157  13.913  12.051  15.692
 5180PROX   H3340158  13.793  11.913  15.688
 5181PROX    O140159  13.646  11.995  15.491
 5181PROX    C140160  13.556  12.073  15.408
 5181PROX   H1140161  13.515  12.161  15.462
 5181PROX   H1340162  13.595  12.097  15.307
 5181PROX    C240163  13.428  11.995  15.372
 5181PROX   H2140164  13.454  11.887  15.358
 5181PROX    C340165  13.362  12.049  15.243
 5181PROX   H3140166  13.430  12.027  15.158
 5181PROX   H3240167  13.265  11.997  15.230
 5181PROX   H3340168  13.346  12.159  15.249
 5182PROX    O140169  13.331  12.007  15.474
 5182PROX    C140170  13.253  11.889  15.485
 5182PROX   H1140171  13.148  11.924  15.494
 5182PROX   H1340172  13.249  11.825  15.394
 5182PROX    C240173  13.279  11.808  15.609
 5182PROX   H2140174  13.291  11.882  15.690
 5182PROX    C340175  13.396  11.718  15.594
 5182PROX   H3140176  13.368  11.643  15.517
 5182PROX   H3240177  13.489  11.773  15.570
 5182PROX   H3340178  13.416  11.663  15.688
 5183PROX    O140179  13.158  11.737  15.642
 5183PROX    C140180  13.165  11.674  15.773
 5183PROX   H1140181  13.207  11.573  15.755
 5183PROX   H1340182  13.220  11.728  15.852
 5183PROX    C240183  13.022  11.642  15.819
 5183PROX   H2140184  12.952  11.720  15.780
 5183PROX    C340185  13.007  11.627  15.971
 5183PROX   H3140186  12.915  11.572  16.001
 5183PROX   H3240187  13.090  11.581  16.027
 5183PROX   H3340188  12.985  11.725  16.020
 5184PROX    O140189  12.982  11.514  15.770
 5184PROX    C140190  12.841  11.501  15.748
 5184PROX   H1140191  12.815  11.394  15.739
 5184PROX   H1340192  12.786  11.528  15.841
 5184PROX    C240193  12.806  11.562  15.618
 5184PROX   H2140194  12.899  11.588  15.563
 5184PROX    C340195  12.712  11.684  15.638
 5184PROX   H3140196  12.616  11.639  15.671
 5184PROX   H3240197  12.747  11.751  15.719
 5184PROX   H3340198  12.699  11.750  15.550
 5185PROX    O140199  12.730  11.472  15.539
 5185PROX    C140200  12.742  11.503  15.400
 5185PROX   H1140201  12.751  11.612  15.377
 5185PROX   H1340202  12.833  11.445  15.375
 5185PROX    C240203  12.621  11.446  15.324
 5185PROX   H2140204  12.526  11.485  15.365
 5185PROX    C340205  12.619  11.293  15.332
 5185PROX   H3140206  12.533  11.261  15.270
 5185PROX   H3240207  12.717  11.254  15.297
 5185PROX   H3340208  12.607  11.278  15.442
 5186PROX    O140209  12.622  11.476  15.186
 5186PROX    C140210  12.606  11.610  15.153
 5186PROX   H1140211  12.548  11.658  15.235
 5186PROX   H1340212  12.709  11.651  15.158
 5186PROX    C240213  12.546  11.639  15.015
 5186PROX   H2140214  12.590  11.566  14.943
 5186PROX    C340215  12.584  11.783  14.961
 5186PROX   H3140216  12.583  11.787  14.850
 5186PROX   H3240217  12.508  11.849  15.008
 5186PROX   H3340218  12.680  11.832  14.985
 5187PROX    O140219  12.401  11.626  15.015
 5187PROX    C140220  12.347  11.493  15.031
 5187PROX   H1140221  12.382  11.432  14.945
 5187PROX   H1340222  12.396  11.458  15.124
 5187PROX    C240223  12.194  11.487  15.021
 5187PROX   H2140224  12.168  11.383  14.994
 5187PROX    C340225  12.135  11.568  14.901
 5187PROX   H3140226  12.030  11.536  14.890
 5187PROX   H3240227  12.139  11.679  14.910
 5187PROX   H3340228  12.194  11.547  14.809
 5188PROX    O140229  12.135  11.524  15.144
 5188PROX    C140230  12.177  11.655  15.196
 5188PROX   H1140231  12.285  11.656  15.223
 5188PROX   H1340232  12.164  11.730  15.115
 5188PROX    C240233  12.086  11.697  15.315
 5188PROX   H2140234  12.087  11.616  15.391
 5188PROX    C340235  11.944  11.732  15.274
 5188PROX   H3140236  11.881  11.779  15.353
 5188PROX   H3240237  11.950  11.809  15.194
 5188PROX   H3340238  11.892  11.644  15.232
 5189PROX    O140239  12.146  11.825  15.355
 5189PROX    C140240  12.131  11.842  15.495
 5189PROX   H1140241  12.140  11.952  15.511
 5189PROX   H1340242  12.037  11.800  15.537
 5189PROX    C240243  12.249  11.786  15.579
 5189PROX   H2140244  12.236  11.816  15.685
 5189PROX    C340245  12.386  11.831  15.531
 5189PROX   H3140246  12.403  11.811  15.423
 5189PROX   H3240247  12.404  11.941  15.535
 5189PROX   H3340248  12.464  11.785  15.594
 5190PROX    O140249  12.241  11.641  15.587
 5190PROX    C140250  12.134  11.591  15.664
 5190PROX   H1140251  12.105  11.664  15.742
 5190PROX   H1340252  12.044  11.575  15.600
 5190PROX    C240253  12.163  11.449  15.717
 5190PROX   H2140254  12.172  11.373  15.636
 5190PROX    C340255  12.072  11.403  15.828
 5190PROX   H3140256  12.097  11.301  15.863
 5190PROX   H3240257  12.077  11.472  15.915
 5190PROX   H3340258  11.970  11.401  15.783
 5191PROX    O140259  12.289  11.455  15.775
 5191PROX    C140260  12.361  11.329  15.773
 5191PROX   H1140261  12.301  11.255  15.831
 5191PROX   H1340262  12.384  11.305  15.667
 5191PROX    C240263  12.499  11.355  15.829
 5191PROX   H2140264  12.555  11.429  15.768
 5191PROX    C340265  12.584  11.225  15.838
 5191PROX   H3140266  12.527  11.138  15.875
 5191PROX   H3240267  12.608  11.196  15.733
 5191PROX   H3340268  12.672  11.235  15.905
 5192PROX    O140269  12.490  11.393  15.965
 5192PROX    C140270  12.455  11.529  15.990
 5192PROX   H1140271  12.478  11.587  15.898
 5192PROX   H1340272  12.352  11.546  16.027
 5192PROX    C240273  12.543  11.578  16.102
 5192PROX   H2140274  12.647  11.549  16.078
 5192PROX    C340275  12.498  11.520  16.240
 5192PROX   H3140276  12.394  11.551  16.262
 5192PROX   H3240277  12.504  11.409  16.241
 5192PROX   H3340278  12.580  11.557  16.306
 5193PROX    O140279  12.544  11.724  16.100
 5193PROX    C140280  12.620  11.788  15.996
 5193PROX   H1140281  12.717  11.734  15.997
 5193PROX   H1340282  12.565  11.772  15.901
 5193PROX    C240283  12.660  11.933  16.026
 5193PROX   H2140284  12.711  11.931  16.125
 5193PROX    C340285  12.534  12.025  16.036
 5193PROX   H3140286  12.466  12.020  15.948
 5193PROX   H3240287  12.474  12.005  16.127
 5193PROX   H3340288  12.576  12.127  16.047
 5194PROX    O140289  12.749  11.970  15.923
 5194PROX    C140290  12.829  12.085  15.962
 5194PROX   H1140291  12.771  12.179  15.977
 5194PROX   H1340292  12.893  12.056  16.048
 5194PROX    C240293  12.924  12.134  15.843
 5194PROX   H2140294  12.857  12.200  15.784
 5194PROX    C340295  12.984  12.015  15.764
 5194PROX   H3140296  12.967  11.927  15.830
 5194PROX   H3240297  12.929  11.992  15.670
 5194PROX   H3340298  13.091  12.038  15.749
 5195PROX    O140299  13.029  12.213  15.888
 5195PROX    C140300  12.986  12.340  15.933
 5195PROX   H1140301  12.932  12.391  15.850
 5195PROX   H1340302  12.915  12.324  16.017
 5195PROX    C240303  13.107  12.427  15.979
 5195PROX   H2140304  13.170  12.364  16.045
 5195PROX    C340305  13.051  12.553  16.054
 5195PROX   H3140306  13.018  12.631  15.982
 5195PROX   H3240307  12.979  12.539  16.137
 5195PROX   H3340308  13.141  12.596  16.103
 5196PROX    O140309  13.189  12.480  15.875
 5196PROX    C140310  13.263  12.382  15.796
 5196PROX   H1140311  13.203  12.296  15.758
 5196PROX   H1340312  13.300  12.440  15.709
 5196PROX    C240313  13.384  12.322  15.879
 5196PROX   H2140314  13.339  12.266  15.964
 5196PROX    C340315  13.474  12.439  15.925
 5196PROX   H3140316  13.568  12.390  15.957
 5196PROX   H3240317  13.503  12.517  15.852
 5196PROX   H3340318  13.441  12.497  16.014
 5197PROX    O140319  13.457  12.237  15.793
 5197PROX    C140320  13.411  12.104  15.786
 5197PROX   H1140321  13.300  12.103  15.783
 5197PROX   H1340322  13.467  12.063  15.699
 5197PROX    C240323  13.447  12.023  15.911
 5197PROX   H2140324  13.450  12.090  16.000
 5197PROX    C340325  13.588  11.958  15.902
 5197PROX   H3140326  13.662  12.040  15.886
 5197PROX   H3240327  13.619  11.902  15.993
 5197PROX   H3340328  13.602  11.886  15.819
 5198PROX    O140329  13.351  11.917  15.920
 5198PROX    C140330  13.259  11.946  16.023
 5198PROX   H1140331  13.225  12.052  16.015
 5198PROX   H1340332  13.170  11.880  16.013
 5198PROX    C240333  13.315  11.926  16.167
 5198PROX   H2140334  13.414  11.970  16.189
 5198PROX    C340335  13.325  11.771  16.193
 5198PROX   H3140336  13.374  11.755  16.291
 5198PROX   H3240337  13.224  11.725  16.187
 5198PROX   H3340338  13.388  11.726  16.113
 5199PROX    O140339  13.230  11.976  16.273
 5199PROX    C140340  13.244  12.117  16.285
 5199PROX   H1140341  13.351  12.140  16.306
 5199PROX   H1340342  13.222  12.170  16.191
 5199PROX    C240343  13.144  12.173  16.385
 5199PROX   H2140344  13.162  12.129  16.486
 5199PROX    C340345  13.001  12.131  16.349
 5199PROX   H3140346  12.987  12.021  16.346
 5199PROX   H3240347  12.935  12.186  16.420
 5199PROX   H3340348  12.965  12.169  16.251
 5200PROX    O140349  13.147  12.316  16.393
 5200PROX    C140350  13.220  12.352  16.508
 5200PROX   H1140351  13.191  12.303  16.603
 5200PROX   H1340352  13.324  12.317  16.486
 5200PROX    C240353  13.230  12.507  16.522
 5200PROX   H2140354  13.124  12.542  16.527
 5200PROX    C340355  13.287  12.567  16.387
 5200PROX   H3140356  13.288  12.678  16.383
 5200PROX   H3240357  13.391  12.534  16.372
 5200PROX   H3340358  13.219  12.537  16.305
 5201ETHO    O140359  13.304  12.544  16.638
 5201ETHO    C140360  13.260  12.670  16.688
 5201ETHO   H1140361  13.155  12.653  16.718
 5201ETHO   H1340362  13.270  12.748  16.609
 5201ETHO    C240363  13.341  12.695  16.818
 5201ETHO   H2140364  13.345  12.599  16.872
 5201ETHO   H2340365  13.295  12.777  16.878
 5202ETHO    O140366  13.476  12.718  16.791
 5202ETHO    C140367  13.570  12.744  16.890
 5202ETHO   H1140368  13.589  12.646  16.938
 5202ETHO   H1340369  13.659  12.793  16.845
 5202ETHO    C240370  13.506  12.837  17.000
 5202ETHO   H2140371  13.450  12.923  16.959
 5202ETHO   H2340372  13.596  12.868  17.058
 5203ETHO    O140373  13.431  12.762  17.102
 5203ETHO    C140374  13.364  12.849  17.193
 5203ETHO   H1140375  13.263  12.865  17.151
 5203ETHO   H1340376  13.430  12.938  17.208
 5203ETHO    C240377  13.327  12.770  17.326
 5203ETHO   H2140378  13.289  12.669  17.300
 5203ETHO   H2340379  13.232  12.813  17.366
 5204ETHO    O140380  13.432  12.773  17.427
 5204ETHO    C140381  13.394  12.721  17.553
 5204ETHO   H1140382  13.290  12.750  17.581
 5204ETHO   H1340383  13.400  12.610  17.547
 5204ETHO    C240384  13.500  12.765  17.652
 5204ETHO   H2140385  13.461  12.762  17.757
 5204ETHO   H2340386  13.529  12.870  17.632
 5205ETHO    O140387  13.612  12.681  17.628
 5205ETHO    C140388  13.720  12.697  17.721
 5205ETHO   H1140389  13.690  12.698  17.828
 5205ETHO   H1340390  13.761  12.799  17.703
 5205ETHO    C240391  13.814  12.580  17.700
 5205ETHO   H2140392  13.820  12.556  17.592
 5205ETHO   H2340393  13.794  12.490  17.762
 5206ETHO    O140394  13.948  12.615  17.733
 5206ETHO    C140395  13.965  12.644  17.871
 5206ETHO   H1140396  13.949  12.752  17.888
 5206ETHO   H1340397  13.916  12.576  17.944
 5206ETHO    C240398  14.110  12.630  17.899
 5206ETHO   H2140399  14.129  12.664  18.003
 5206ETHO   H2340400  14.170  12.702  17.839
 5207ETHO    O140401  14.172  12.498  17.876
 5207ETHO    C140402  14.129  12.399  17.968
 5207ETHO   H1140403  14.018  12.406  17.973
 5207ETHO   H1340404  14.177  12.408  18.068
 5207ETHO    C240405  14.170  12.264  17.915
 5207ETHO   H2140406  14.280  12.249  17.918
 5207ETHO   H2340407  14.144  12.254  17.807
 5208ETHO    O140408  14.108  12.154  17.983
 5208ETHO    C140409  13.977  12.123  17.932
 5208ETHO   H1140410  13.908  12.208  17.947
 5208ETHO   H1340411  14.005  12.103  17.826
 5208ETHO    C240412  13.906  11.996  17.980
 5208ETHO   H2140413  13.836  11.965  17.900
 5208ETHO   H2340414  13.979  11.915  17.999
 5209ETHO    O140415  13.827  12.040  18.099
 5209ETHO    C140416  13.760  11.926  18.158
 5209ETHO   H1140417  13.685  11.887  18.086
 5209ETHO   H1340418  13.835  11.850  18.186
 5209ETHO    C240419  13.690  11.962  18.286
 5209ETHO   H2140420  13.647  11.865  18.319
 5209ETHO   H2340421  13.608  12.036  18.268
 5210ETHO    O140422  13.774  11.997  18.406
 5210ETHO    C140423  13.697  12.027  18.520
 5210ETHO   H1140424  13.630  12.109  18.489
 5210ETHO   H1340425  13.641  11.934  18.545
 5210ETHO    C240426  13.791  12.064  18.643
 5210ETHO   H2140427  13.857  11.979  18.671
 5210ETHO   H2340428  13.719  12.095  18.723
 5211ETHO    O140429  13.870  12.179  18.618
 5211ETHO    C140430  13.998  12.173  18.675
 5211ETHO   H1140431  14.000  12.154  18.784
 5211ETHO   H1340432  14.036  12.081  18.627
 5211ETHO    C240433  14.090  12.293  18.635
 5211ETHO   H2140434  14.097  12.291  18.525
 5211ETHO   H2340435  14.191  12.283  18.681
 5212ETHO    O140436  14.031  12.414  18.680
 5212ETHO    C140437  14.067  12.525  18.605
 5212ETHO   H1140438  14.021  12.505  18.506
 5212ETHO   H1340439  14.175  12.544  18.620
 5212ETHO    C240440  13.993  12.645  18.670
 5212ETHO   H2140441  14.029  12.663  18.773
 5212ETHO   H2340442  13.884  12.631  18.683
 5213ETHO    O140443  14.024  12.764  18.592
 5213ETHO    C140444  13.926  12.793  18.497
 5213ETHO   H1140445  13.897  12.698  18.449
 5213ETHO   H1340446  13.833  12.838  18.538
 5213ETHO    C240447  13.984  12.891  18.397
 5213ETHO   H2140448  14.026  12.981  18.447
 5213ETHO   H2340449  13.903  12.926  18.329
 5214ETHO    O140450  14.082  12.832  18.321
 5214ETHO    C140451  14.175  12.935  18.272
 5214ETHO   H1140452  14.236  12.949  18.363
 5214ETHO   H1340453  14.122  13.029  18.244
 5214ETHO    C240454  14.257  12.888  18.154
 5214ETHO   H2140455  14.328  12.973  18.144
 5214ETHO   H2340456  14.199  12.869  18.061
 5215ETHO    O140457  14.339  12.777  18.198
 5215ETHO    C140458  14.434  12.740  18.093
 5215ETHO   H1140459  14.467  12.639  18.123
 5215ETHO   H1340460  14.373  12.733  18.001
 5215ETHO    C240461  14.559  12.834  18.086
 5215ETHO   H2140462  14.593  12.848  18.191
 5215ETHO   H2340463  14.533  12.933  18.043
 5216ETHO    O140464  14.661  12.764  18.012
 5216ETHO    C140465  14.768  12.856  17.990
 5216ETHO   H1140466  14.739  12.958  17.957
 5216ETHO   H1340467  14.826  12.811  17.906
 5216ETHO    C240468  14.854  12.872  18.124
 5216ETHO   H2140469  14.784  12.923  18.194
 5216ETHO   H2340470  14.942  12.939  18.113
 5217ETHO    O140471  14.904  12.749  18.176
 5217ETHO    C140472  14.999  12.776  18.271
 5217ETHO   H1140473  15.093  12.821  18.231
 5217ETHO   H1340474  14.959  12.856  18.337
 5217ETHO    C240475  15.035  12.649  18.343
 5217ETHO   H2140476  15.110  12.669  18.423
 5217ETHO   H2340477  15.065  12.572  18.269
 5218ETHO    O140478  14.920  12.600  18.394
 5218ETHO    C140479  14.950  12.474  18.451
 5218ETHO   H1140480  15.023  12.490  18.533
 5218ETHO   H1340481  14.993  12.403  18.377
 5218ETHO    C240482  14.828  12.393  18.512
 5218ETHO   H2140483  14.771  12.350  18.427
 5218ETHO   H2340484  14.768  12.464  18.572
 5219ETHO    O140485  14.861  12.281  18.604
 5219ETHO    C140486  14.745  12.206  18.642
 5219ETHO   H1140487  14.670  12.283  18.673
 5219ETHO   H1340488  14.695  12.149  18.561
 5219ETHO    C240489  14.797  12.113  18.748
 5219ETHO   H2140490  14.711  12.058  18.791
 5219ETHO   H2340491  14.850  12.165  18.831
 5220ETHO    O140492  14.880  12.005  18.702
 5220ETHO    C140493  14.921  11.915  18.803
 5220ETHO   H1140494  15.027  11.926  18.835
 5220ETHO   H1340495  14.844  11.919  18.883
 5220ETHO    C240496  14.911  11.780  18.735
 5220ETHO   H2140497  14.807  11.758  18.703
 5220ETHO   H2340498  14.929  11.704  18.814
 5221ETHO    O140499  15.013  11.760  18.631
 5221ETHO    C140500  14.983  11.646  18.558
 5221ETHO   H1140501  14.880  11.658  18.517
 5221ETHO   H1340502  15.049  11.663  18.471
 5221ETHO    C240503  15.013  11.521  18.631
 5221ETHO   H2140504  15.105  11.539  18.691
 5221ETHO   H2340505  15.028  11.429  18.571
 5222ETHO    O140506  14.899  11.470  18.706
 5222ETHO    C140507  14.926  11.351  18.773
 5222ETHO   H1140508  14.932  11.273  18.694
 5222ETHO   H1340509  15.027  11.364  18.818
 5222ETHO    C240510  14.821  11.325  18.878
 5222ETHO   H2140511  14.815  11.415  18.942
 5222ETHO   H2340512  14.857  11.235  18.932
 5223ETHO    O140513  14.698  11.308  18.810
 5223ETHO    C140514  14.687  11.183  18.740
 5223ETHO   H1140515  14.699  11.092  18.803
 5223ETHO   H1340516  14.761  11.176  18.657
 5223ETHO    C240517  14.542  11.171  18.686
 5223ETHO   H2140518  14.466  11.206  18.759
 5223ETHO   H2340519  14.520  11.064  18.670
 5224ETHO    O140520  14.537  11.240  18.552
 5224ETHO    C140521  14.405  11.253  18.498
 5224ETHO   H1140522  14.331  11.180  18.537
 5224ETHO   H1340523  14.376  11.359  18.516
 5224ETHO    C240524  14.414  11.235  18.342
 5224ETHO   H2140525  14.483  11.153  18.314
 5224ETHO   H2340526  14.449  11.332  18.299
 5225ETHO    O140527  14.287  11.203  18.279
 5225ETHO    C140528  14.296  11.178  18.133
 5225ETHO   H1140529  14.381  11.112  18.103
 5225ETHO   H1340530  14.297  11.275  18.079
 5225ETHO    C240531  14.169  11.103  18.086
 5225ETHO   H2140532  14.139  11.108  17.979
 5225ETHO   H2340533  14.085  11.150  18.142
 5226ETHO    O140534  14.168  10.968  18.126
 5226ETHO    C140535  14.078  10.891  18.045
 5226ETHO   H1140536  14.021  10.822  18.111
 5226ETHO   H1340537  14.002  10.958  17.999
 5226ETHO    C240538  14.143  10.800  17.938
 5226ETHO   H2140539  14.055  10.768  17.878
 5226ETHO   H2340540  14.182  10.707  17.985
 5227ETHO    O140541  14.241  10.873  17.865
 5227ETHO    C140542  14.286  10.796  17.753
 5227ETHO   H1140543  14.206  10.734  17.707
 5227ETHO   H1340544  14.364  10.725  17.789
 5227ETHO    C240545  14.344  10.873  17.636
 5227ETHO   H2140546  14.267  10.935  17.585
 5227ETHO   H2340547  14.376  10.799  17.559
 5228ETHO    O140548  14.457  10.958  17.679
 5228ETHO    C140549  14.492  11.040  17.574
 5228ETHO   H1140550  14.513  10.978  17.484
 5228ETHO   H1340551  14.412  11.112  17.545
 5228ETHO    C240552  14.614  11.126  17.605
 5228ETHO   H2140553  14.570  11.187  17.686
 5228ETHO   H2340554  14.632  11.188  17.514
 5229ETHO    O140555  14.732  11.052  17.650
 5229ETHO    C140556  14.803  10.990  17.548
 5229ETHO   H1140557  14.826  11.053  17.459
 5229ETHO   H1340558  14.745  10.900  17.518
 5229ETHO    C240559  14.936  10.939  17.600
 5229ETHO   H2140560  14.974  11.027  17.656
 5229ETHO   H2340561  15.005  10.902  17.522
 5230ETHO    O140562  14.916  10.836  17.698
 5230ETHO    C140563  15.036  10.804  17.771
 5230ETHO   H1140564  15.105  10.745  17.707
 5230ETHO   H1340565  15.082  10.899  17.804
 5230ETHO    C240566  14.991  10.712  17.887
 5230ETHO   H2140567  15.065  10.629  17.893
 5230ETHO   H2340568  14.888  10.673  17.873
 5231ETHO    O140569  14.984  10.784  18.010
 5231ETHO    C140570  14.926  10.708  18.113
 5231ETHO   H1140571  14.819  10.738  18.110
 5231ETHO   H1340572  14.927  10.598  18.096
 5231ETHO    C240573  14.977  10.759  18.242
 5231ETHO   H2140574  15.079  10.718  18.251
 5231ETHO   H2340575  14.929  10.717  18.333
 5232ETHO    O140576  14.966  10.900  18.253
 5232ETHO    C140577  15.027  10.953  18.371
 5232ETHO   H1140578  15.021  10.878  18.452
 5232ETHO   H1340579  15.135  10.969  18.350
 5232ETHO    C240580  14.957  11.094  18.409
 5232ETHO   H2140581  14.992  11.138  18.505
 5232ETHO   H2340582  14.852  11.064  18.428
 5233ETHO    O140583  14.971  11.184  18.305
 5233ETHO    C140584  14.878  11.296  18.326
 5233ETHO   H1140585  14.772  11.264  18.318
 5233ETHO   H1340586  14.905  11.358  18.414
 5233ETHO    C240587  14.888  11.383  18.197
 5233ETHO   H2140588  14.814  11.466  18.194
 5233ETHO   H2340589  14.882  11.316  18.109
 5234ETHO    O140590  15.020  11.443  18.196
 5234ETHO    C140591  15.007  11.579  18.145
 5234ETHO   H1140592  14.965  11.644  18.225
 5234ETHO   H1340593  14.947  11.581  18.052
 5234ETHO    C240594  15.151  11.640  18.116
 5234ETHO   H2140595  15.218  11.603  18.196
 5234ETHO   H2340596  15.159  11.750  18.129
 5235ETHO    O140597  15.199  11.593  17.985
 5235ETHO    C140598  15.167  11.683  17.876
 5235ETHO   H1140599  15.056  11.685  17.872
 5235ETHO   H1340600  15.202  11.782  17.911
 5235ETHO    C240601  15.225  11.637  17.745
 5235ETHO   H2140602  15.332  11.612  17.756
 5235ETHO   H2340603  15.220  11.724  17.676
 5236ETHO    O140604  15.152  11.526  17.682
 5236ETHO    C140605  15.212  11.480  17.567
 5236ETHO   H1140606  15.276  11.393  17.595
 5236ETHO   H1340607  15.280  11.551  17.515
 5236ETHO    C240608  15.108  11.426  17.468
 5236ETHO   H2140609  15.033  11.361  17.518
 5236ETHO   H2340610  15.147  11.347  17.400
 5237ETHO    O140611  15.029  11.527  17.412
 5237ETHO    C140612  15.040  11.531  17.269
 5237ETHO   H1140613  15.144  11.512  17.238
 5237ETHO   H1340614  14.975  11.450  17.230
 5237ETHO    C240615  14.982  11.665  17.225
 5237ETHO   H2140616  14.996  11.668  17.115
 5237ETHO   H2340617  15.033  11.753  17.270
 5238ETHO    O140618  14.847  11.672  17.272
 5238ETHO    C140619  14.783  11.785  17.221
 5238ETHO   H1140620  14.792  11.785  17.110
 5238ETHO   H1340621  14.829  11.872  17.271
 5238ETHO    C240622  14.630  11.788  17.251
 5238ETHO   H2140623  14.590  11.889  17.226
 5238ETHO   H2340624  14.621  11.759  17.358
 5239ETHO    O140625  14.554  11.696  17.173
 5239ETHO    C140626  14.416  11.726  17.167
 5239ETHO   H1140627  14.376  11.719  17.271
 5239ETHO   H1340628  14.399  11.821  17.112
 5239ETHO    C240629  14.339  11.620  17.075
 5239ETHO   H2140630  14.236  11.656  17.053
 5239ETHO   H2340631  14.335  11.526  17.134
 5240ETHO    O140632  14.403  11.607  16.950
 5240ETHO    C140633  14.323  11.533  16.863
 5240ETHO   H1140634  14.224  11.579  16.842
 5240ETHO   H1340635  14.287  11.439  16.910
 5240ETHO    C240636  14.417  11.498  16.746
 5240ETHO   H2140637  14.373  11.408  16.699
 5240ETHO   H2340638  14.518  11.467  16.779
 5241ETHO    O140639  14.422  11.604  16.651
 5241ETHO    C140640  14.534  11.609  16.566
 5241ETHO   H1140641  14.625  11.582  16.623
 5241ETHO   H1340642  14.514  11.532  16.488
 5241ETHO    C240643  14.546  11.745  16.495
 5241ETHO   H2140644  14.616  11.737  16.409
 5241ETHO   H2340645  14.446  11.765  16.453
 5242ETHO    O140646  14.574  11.852  16.590
 5242ETHO    C140647  14.606  11.973  16.523
 5242ETHO   H1140648  14.646  11.959  16.420
 5242ETHO   H1340649  14.681  12.026  16.585
 5242ETHO    C240650  14.479  12.053  16.535
 5242ETHO   H2140651  14.498  12.149  16.482
 5242ETHO   H2340652  14.443  12.065  16.639
 5243ETHO    O140653  14.363  11.993  16.460
 5243ETHO    C140654  14.284  12.093  16.404
 5243ETHO   H1140655  14.240  12.156  16.483
 5243ETHO   H1340656  14.342  12.161  16.338
 5243ETHO    C240657  14.153  12.049  16.331
 5243ETHO   H2140658  14.190  11.987  16.247
 5243ETHO   H2340659  14.107  12.137  16.281
 5244ETHO    O140660  14.079  11.963  16.415
 5244ETHO    C140661  13.968  11.914  16.347
 5244ETHO   H1140662  13.941  11.824  16.407
 5244ETHO   H1340663  14.003  11.875  16.249
 5244ETHO    C240664  13.843  12.001  16.331
 5244ETHO   H2140665  13.766  11.951  16.269
 5244ETHO   H2340666  13.867  12.096  16.279
 5245ETHO    O140667  13.788  12.023  16.463
 5245ETHO    C140668  13.651  12.052  16.473
 5245ETHO   H1140669  13.630  12.099  16.572
 5245ETHO   H1340670  13.623  12.117  16.388
 5245ETHO    C240671  13.579  11.918  16.463
 5245ETHO   H2140672  13.617  11.858  16.377
 5245ETHO   H2340673  13.473  11.941  16.442
 5246ETHO    O140674  13.585  11.843  16.580
 5246ETHO    C140675  13.489  11.735  16.575
 5246ETHO   H1140676  13.455  11.716  16.679
 5246ETHO   H1340677  13.403  11.752  16.508
 5246ETHO    C240678  13.561  11.616  16.515
 5246ETHO   H2140679  13.652  11.592  16.574
 5246ETHO   H2340680  13.592  11.643  16.412
 5247ETHO    O140681  13.483  11.496  16.506
 5247ETHO    C140682  13.402  11.482  16.388
 5247ETHO   H1140683  13.327  11.564  16.390
 5247ETHO   H1340684  13.464  11.491  16.296
 5247ETHO    C240685  13.318  11.354  16.394
 5247ETHO   H2140686  13.250  11.358  16.307
 5247ETHO   H2340687  13.260  11.348  16.489
 5248ETHO    O140688  13.413  11.248  16.386
 5248ETHO    C140689  13.352  11.120  16.384
 5248ETHO   H1140690  13.296  11.096  16.477
 5248ETHO   H1340691  13.294  11.112  16.289
 5248ETHO    C240692  13.462  11.019  16.351
 5248ETHO   H2140693  13.538  11.009  16.431
 5248ETHO   H2340694  13.514  11.046  16.257
 5249ETHO    O140695  13.408  10.884  16.327
 5249ETHO    C140696  13.375  10.826  16.450
 5249ETHO   H1140697  13.323  10.886  16.527
 5249ETHO   H1340698  13.475  10.808  16.496
 5249ETHO    C240699  13.288  10.697  16.448
 5249ETHO   H2140700  13.283  10.656  16.551
 5249ETHO   H2340701  13.343  10.623  16.386
 5250ETHO    O140702  13.164  10.731  16.391
 5250ETHO    C140703  13.096  10.619  16.354
 5250ETHO   H1140704  13.148  10.577  16.265
 5250ETHO   H1340705  13.089  10.546  16.437
 5250ETHO    C240706  12.955  10.651  16.317
 5250ETHO   H2140707  12.907  10.694  16.408
 5250ETHO   H2340708  12.889  10.563  16.301
 5251ETHO    O140709  12.966  10.738  16.198
 5251ETHO    C140710  12.841  10.797  16.163
 5251ETHO   H1140711  12.822  10.866  16.248
 5251ETHO   H1340712  12.759  10.723  16.156
 5251ETHO    C240713  12.848  10.886  16.030
 5251ETHO   H2140714  12.934  10.956  16.028
 5251ETHO   H2340715  12.756  10.948  16.028
 5252ETHO    O140716  12.855  10.806  15.905
 5252ETHO    C140717  12.974  10.726  15.895
 5252ETHO   H1140718  13.064  10.791  15.896
 5252ETHO   H1340719  12.975  10.652  15.978
 5252ETHO    C240720  12.967  10.638  15.763
 5252ETHO   H2140721  12.862  10.600  15.757
 5252ETHO   H2340722  13.031  10.547  15.771
 5253ETHO    O140723  12.996  10.715  15.648
 5253ETHO    C140724  12.959  10.640  15.530
 5253ETHO   H1140725  12.850  10.636  15.514
 5253ETHO   H1340726  12.985  10.534  15.552
 5253ETHO    C240727  13.035  10.698  15.421
 5253ETHO   H2140728  13.044  10.630  15.334
 5253ETHO   H2340729  13.140  10.721  15.450
 5254ETHO    O140730  12.972  10.818  15.382
 5254ETHO    C140731  13.053  10.908  15.312
 5254ETHO   H1140732  13.148  10.940  15.360
 5254ETHO   H1340733  13.076  10.853  15.218
 5254ETHO    C240734  12.974  11.042  15.299
 5254ETHO   H2140735  12.953  11.083  15.400
 5254ETHO   H2340736  12.874  11.017  15.258
 5255ETHO    O140737  13.055  11.141  15.226
 5255ETHO    C140738  12.990  11.272  15.221
 5255ETHO   H1140739  12.975  11.305  15.325
 5255ETHO   H1340740  12.893  11.268  15.166
 5255ETHO    C240741  13.086  11.374  15.164
 5255ETHO   H2140742  13.113  11.329  15.066
 5255ETHO   H2340743  13.175  11.394  15.228
 5256ETHO    O140744  13.017  11.500  15.146
 5256ETHO    C140745  13.105  11.610  15.133
 5256ETHO   H1140746  13.165  11.618  15.226
 5256ETHO   H1340747  13.169  11.594  15.044
 5256ETHO    C240748  13.037  11.752  15.118
 5256ETHO   H2140749  12.979  11.758  15.023
 5256ETHO   H2340750  13.124  11.820  15.102
 5257ETHO    O140751  12.948  11.782  15.220
 5257ETHO    C140752  12.906  11.913  15.216
 5257ETHO   H1140753  12.997  11.975  15.208
 5257ETHO   H1340754  12.846  11.926  15.124
 5257ETHO    C240755  12.821  11.939  15.338
 5257ETHO   H2140756  12.883  11.922  15.428
 5257ETHO   H2340757  12.746  11.857  15.337
 5258ETHO    O140758  12.756  12.066  15.330
 5258ETHO    C140759  12.707  12.094  15.461
 5258ETHO   H1140760  12.643  12.011  15.494
 5258ETHO   H1340761  12.789  12.105  15.535
 5258ETHO    C240762  12.631  12.228  15.454
 5258ETHO   H2140763  12.528  12.216  15.414
 5258ETHO   H2340764  12.682  12.294  15.382
 5259ETHO    O140765  12.628  12.308  15.572
 5259ETHO    C140766  12.572  12.249  15.687
 5259ETHO   H1140767  12.472  12.209  15.660
 5259ETHO   H1340768  12.634  12.165  15.725
 5259ETHO    C240769  12.535  12.342  15.803
 5259ETHO   H2140770  12.487  12.282  15.883
 5259ETHO   H2340771  12.464  12.420  15.767
 5260ETHO    O140772  12.648  12.405  15.864
 5260ETHO    C140773  12.618  12.494  15.975
 5260ETHO   H1140774  12.543  12.570  15.945
 5260ETHO   H1340775  12.713  12.549  15.994
 5260ETHO    C240776  12.589  12.429  16.114
 5260ETHO   H2140777  12.519  12.345  16.098
 5260ETHO   H2340778  12.548  12.510  16.178
 5261ETHO    O140779  12.707  12.373  16.173
 5261ETHO    C140780  12.684  12.327  16.304
 5261ETHO   H1140781  12.581  12.328  16.346
 5261ETHO   H1340782  12.719  12.222  16.298
 5261ETHO    C240783  12.769  12.402  16.412
 5261ETHO   H2140784  12.725  12.502  16.429
 5261ETHO   H2340785  12.876  12.398  16.383
 5262ETHO    O140786  12.753  12.330  16.531
 5262ETHO    C140787  12.834  12.389  16.640
 5262ETHO   H1140788  12.805  12.495  16.652
 5262ETHO   H1340789  12.941  12.370  16.619
 5262ETHO    C240790  12.812  12.321  16.779
 5262ETHO   H2140791  12.710  12.278  16.790
 5262ETHO   H2340792  12.842  12.398  16.853
 5263ETHO    O140793  12.910  12.218  16.778
 5263ETHO    C140794  12.858  12.103  16.710
 5263ETHO   H1140795  12.775  12.056  16.767
 5263ETHO   H1340796  12.817  12.138  16.612
 5263ETHO    C240797  12.961  11.987  16.690
 5263ETHO   H2140798  13.059  12.023  16.654
 5263ETHO   H2340799  12.920  11.913  16.619
 5264ETHO    O140800  12.983  11.905  16.810
 5264ETHO    C140801  13.097  11.820  16.794
 5264ETHO   H1140802  13.189  11.882  16.789
 5264ETHO   H1340803  13.081  11.772  16.696
 5264ETHO    C240804  13.119  11.710  16.896
 5264ETHO   H2140805  13.212  11.657  16.866
 5264ETHO   H2340806  13.027  11.648  16.893
 5265ETHO    O140807  13.153  11.754  17.028
 5265ETHO    C140808  13.153  11.647  17.117
 5265ETHO   H1140809  13.050  11.606  17.127
 5265ETHO   H1340810  13.223  11.569  17.081
 5265ETHO    C240811  13.214  11.704  17.246
 5265ETHO   H2140812  13.295  11.769  17.208
 5265ETHO   H2340813  13.248  11.617  17.307
 5266ETHO    O140814  13.123  11.794  17.317
 5266ETHO    C140815  13.025  11.725  17.400
 5266ETHO   H1140816  13.061  11.666  17.487
 5266ETHO   H1340817  12.964  11.656  17.338
 5266ETHO    C240818  12.932  11.831  17.462
 5266ETHO   H2140819  12.841  11.778  17.498
 5266ETHO   H2340820  12.904  11.899  17.378
 5267ETHO    O140821  12.974  11.918  17.571
 5267ETHO    C140822  13.097  11.988  17.540
 5267ETHO   H1140823  13.185  11.920  17.534
 5267ETHO   H1340824  13.072  12.037  17.444
 5267ETHO    C240825  13.113  12.090  17.639
 5267ETHO   H2140826  13.013  12.130  17.668
 5267ETHO   H2340827  13.176  12.174  17.602
 5268ETHO    O140828  13.173  12.029  17.756
 5268ETHO    C140829  13.211  12.137  17.848
 5268ETHO   H1140830  13.258  12.212  17.781
 5268ETHO   H1340831  13.112  12.176  17.881
 5268ETHO    C240832  13.286  12.097  17.974
 5268ETHO   H2140833  13.349  12.179  18.013
 5268ETHO   H2340834  13.354  12.011  17.955
 5269ETHO    O140835  13.185  12.066  18.071
 5269ETHO    C140836  13.242  12.007  18.194
 5269ETHO   H1140837  13.247  11.897  18.180
 5269ETHO   H1340838  13.345  12.043  18.211
 5269ETHO    C240839  13.157  12.043  18.314
 5269ETHO   H2140840  13.144  12.152  18.332
 5269ETHO   H2340841  13.222  12.013  18.399
 5270ETHO    O140842  13.035  11.967  18.322
 5270ETHO    C140843  12.982  11.976  18.454
 5270ETHO   H1140844  13.067  11.984  18.525
 5270ETHO   H1340845  12.932  12.075  18.447
 5270ETHO    C240846  12.872  11.879  18.508
 5270ETHO   H2140847  12.784  11.868  18.441
 5270ETHO   H2340848  12.837  11.929  18.601
 5271ETHO    O140849  12.928  11.749  18.535
 5271ETHO    C140850  12.851  11.682  18.638
 5271ETHO   H1140851  12.746  11.690  18.603
 5271ETHO   H1340852  12.871  11.734  18.734
 5271ETHO    C240853  12.897  11.538  18.645
 5271ETHO   H2140854  13.006  11.522  18.630
 5271ETHO   H2340855  12.849  11.487  18.559
 5272ETHO    O140856  12.862  11.478  18.772
 5272ETHO    C140857  12.868  11.334  18.773
 5272ETHO   H1140858  12.792  11.306  18.696
 5272ETHO   H1340859  12.965  11.285  18.749
 5272ETHO    C240860  12.818  11.281  18.902
 5272ETHO   H2140861  12.879  11.324  18.984
 5272ETHO   H2340862  12.822  11.170  18.902
 5273ETHO    O140863  12.677  11.303  18.909
 5273ETHO    C140864  12.618  11.264  19.035
 5273ETHO   H1140865  12.682  11.302  19.118
 5273ETHO   H1340866  12.611  11.153  19.040
 5273ETHO    C240867  12.477  11.319  19.060
 5273ETHO   H2140868  12.430  11.276  19.151
 5273ETHO   H2340869  12.406  11.291  18.980
 5274ETHO    O140870  12.487  11.461  19.076
 5274ETHO    C140871  12.362  11.516  19.101
 5274ETHO   H1140872  12.284  11.461  19.042
 5274ETHO   H1340873  12.324  11.509  19.205
 5274ETHO    C240874  12.360  11.663  19.058
 5274ETHO   H2140875  12.420  11.672  18.965
 5274ETHO   H2340876  12.257  11.693  19.027
 5275ETHO    O140877  12.405  11.747  19.158
 5275ETHO    C140878  12.303  11.763  19.256
 5275ETHO   H1140879  12.264  11.666  19.293
 5275ETHO   H1340880  12.224  11.831  19.218
 5275ETHO    C240881  12.371  11.840  19.373
 5275ETHO   H2140882  12.402  11.938  19.331
 5275ETHO   H2340883  12.457  11.776  19.405
 5276ETHO    O140884  12.290  11.863  19.494
 5276ETHO    C140885  12.166  11.928  19.471
 5276ETHO   H1140886  12.181  12.024  19.418
 5276ETHO   H1340887  12.109  11.861  19.403
 5276ETHO    C240888  12.099  11.972  19.604
 5276ETHO   H2140889  12.014  12.042  19.586
 5276ETHO   H2340890  12.175  12.032  19.658
 5277ETHO    O140891  12.065  11.859  19.688
 5277ETHO    C140892  11.985  11.899  19.801
 5277ETHO   H1140893  11.887  11.936  19.764
 5277ETHO   H1340894  12.039  11.982  19.850
 5277ETHO    C240895  11.960  11.793  19.911
 5277ETHO   H2140896  11.899  11.708  19.875
 5277ETHO   H2340897  11.912  11.848  19.994
 5278ETHO    O140898  12.076  11.740  19.966
 5278ETHO    C140899  12.039  11.648  20.073
 5278ETHO   H1140900  12.109  11.648  20.159
 5278ETHO   H1340901  11.932  11.669  20.093
 5278ETHO    C240902  12.049  11.512  20.004
 5278ETHO   H2140903  11.992  11.506  19.908
 5278ETHO   H2340904  12.003  11.431  20.063
 5279ETHO    O140905  12.187  11.481  19.981
 5279ETHO    C140906  12.204  11.348  19.935
 5279ETHO   H1140907  12.117  11.338  19.867
 5279ETHO   H1340908  12.194  11.267  20.010
 5279ETHO    C240909  12.339  11.315  19.857
 5279ETHO   H2140910  12.357  11.395  19.782
 5279ETHO   H2340911  12.328  11.227  19.792
 5280ETHO    O140912  12.453  11.311  19.939
 5280ETHO    C140913  12.465  11.185  20.006
 5280ETHO   H1140914  12.539  11.215  20.083
 5280ETHO   H1340915  12.369  11.160  20.055
 5280ETHO    C240916  12.521  11.064  19.920
 5280ETHO   H2140917  12.565  10.986  19.986
 5280ETHO   H2340918  12.612  11.094  19.863
 5281ETHO    O140919  12.428  11.017  19.831
 5281ETHO    C140920  12.496  10.929  19.739
 5281ETHO   H1140921  12.550  10.855  19.801
 5281ETHO   H1340922  12.566  10.983  19.671
 5281ETHO    C240923  12.393  10.868  19.648
 5281ETHO   H2140924  12.453  10.804  19.579
 5281ETHO   H2340925  12.352  10.948  19.584
 5282ETHO    O140926  12.285  10.798  19.710
 5282ETHO    C140927  12.171  10.791  19.621
 5282ETHO   H1140928  12.138  10.897  19.615
 5282ETHO   H1340929  12.197  10.744  19.523
 5282ETHO    C240930  12.066  10.716  19.709
 5282ETHO   H2140931  12.061  10.767  19.808
 5282ETHO   H2340932  11.969  10.725  19.655
 5283ETHO    O140933  12.101  10.581  19.714
 5283ETHO    C140934  12.063  10.503  19.604
 5283ETHO   H1140935  11.952  10.503  19.610
 5283ETHO   H1340936  12.097  10.540  19.505
 5283ETHO    C240937  12.125  10.361  19.629
 5283ETHO   H2140938  12.072  10.297  19.555
 5283ETHO   H2340939  12.110  10.319  19.730
 5284ETHO    O140940  12.261  10.372  19.596
 5284ETHO    C140941  12.327  10.249  19.565
 5284ETHO   H1140942  12.256  10.165  19.581
 5284ETHO   H1340943  12.367  10.250  19.462
 5284ETHO    C240944  12.452  10.231  19.657
 5284ETHO   H2140945  12.457  10.120  19.667
 5284ETHO   H2340946  12.436  10.284  19.753
 5285ETHO    O140947  12.580  10.280  19.606
 5285ETHO    C140948  12.680  10.245  19.695
 5285ETHO   H1140949  12.675  10.305  19.788
 5285ETHO   H1340950  12.683  10.142  19.737
 5285ETHO    C240951  12.824  10.256  19.632
 5285ETHO   H2140952  12.820  10.351  19.575
 5285ETHO   H2340953  12.839  10.177  19.556
 5286ETHO    O140954  12.936  10.252  19.722
 5286ETHO    C140955  13.050  10.303  19.652
 5286ETHO   H1140956  13.040  10.414  19.646
 5286ETHO   H1340957  13.058  10.264  19.549
 5286ETHO    C240958  13.184  10.268  19.724
 5286ETHO   H2140959  13.181  10.273  19.835
 5286ETHO   H2340960  13.261  10.340  19.689
 5287ETHO    O140961  13.231  10.144  19.679
 5287ETHO    C140962  13.361  10.111  19.721
 5287ETHO   H1140963  13.435  10.185  19.684
 5287ETHO   H1340964  13.361  10.110  19.832
 5287ETHO    C240965  13.402   9.972  19.675
 5287ETHO   H2140966  13.321   9.900  19.702
 5287ETHO   H2340967  13.496   9.934  19.718
 5288ETHO    O140968  13.423   9.964  19.535
 5288ETHO    C140969  13.501   9.853  19.487
 5288ETHO   H1140970  13.463   9.756  19.526
 5288ETHO   H1340971  13.602   9.861  19.533
 5288ETHO    C240972  13.506   9.879  19.342
 5288ETHO   H2140973  13.407   9.892  19.295
 5288ETHO   H2340974  13.547   9.788  19.293
 5289ETHO    O140975  13.596   9.989  19.304
 5289ETHO    C140976  13.604  10.023  19.168
 5289ETHO   H1140977  13.618   9.925  19.119
 5289ETHO   H1340978  13.508  10.071  19.140
 5289ETHO    C240979  13.721  10.113  19.150
 5289ETHO   H2140980  13.735  10.120  19.040
 5289ETHO   H2340981  13.812  10.063  19.189
 5290ETHO    O140982  13.701  10.241  19.209
 5290ETHO    C140983  13.823  10.302  19.234
 5290ETHO   H1140984  13.869  10.237  19.312
 5290ETHO   H1340985  13.797  10.402  19.275
 5290ETHO    C240986  13.925  10.320  19.115
 5290ETHO   H2140987  13.969  10.422  19.120
 5290ETHO   H2340988  13.873  10.321  19.018
 5291ETHO    O140989  14.023  10.217  19.105
 5291ETHO    C140990  14.147  10.248  19.162
 5291ETHO   H1140991  14.219  10.265  19.079
 5291ETHO   H1340992  14.130  10.333  19.232
 5291ETHO    C240993  14.218  10.144  19.247
 5291ETHO   H2140994  14.323  10.180  19.252
 5291ETHO   H2340995  14.218  10.042  19.204
 5292ETHO    O140996  14.157  10.144  19.373
 5292ETHO    C140997  14.199  10.034  19.454
 5292ETHO   H1140998  14.309  10.040  19.456
 5292ETHO   H1340999  14.171   9.938  19.406
 5292ETHO    C241000  14.164  10.040  19.605
 5292ETHO   H2141001  14.212   9.958  19.662
 5292ETHO   H2341002  14.053  10.035  19.610
 5293ETHO    O141003  14.212  10.157  19.674
 5293ETHO    C141004  14.180  10.148  19.815
 5293ETHO   H1141005  14.078  10.107  19.830
 5293ETHO   H1341006  14.232  10.058  19.852
 5293ETHO    C241007  14.222  10.274  19.893
 5293ETHO   H2141008  14.310  10.320  19.843
 5293ETHO   H2341009  14.256  10.235  19.991
 5294ETHO    O141010  14.125  10.378  19.898
 5294ETHO    C141011  14.171  10.482  19.996
 5294ETHO   H1141012  14.280  10.465  20.010
 5294ETHO   H1341013  14.149  10.581  19.952
 5294ETHO    C241014  14.108  10.480  20.135
 5294ETHO   H2141015  14.162  10.548  20.205
 5294ETHO   H2341016  14.113  10.374  20.167
 5295ETHO    O141017  13.968  10.514  20.126
 5295ETHO    C141018  13.905  10.523  20.248
 5295ETHO   H1141019  13.894  10.422  20.292
 5295ETHO   H1341020  13.968  10.588  20.312
 5295ETHO    C241021  13.759  10.582  20.240
 5295ETHO   H2141022  13.758  10.677  20.184
 5295ETHO   H2341023  13.720  10.610  20.340
 5296ETHO    O141024  13.672  10.485  20.186
 5296ETHO    C141025  13.553  10.529  20.125
 5296ETHO   H1141026  13.500  10.597  20.194
 5296ETHO   H1341027  13.571  10.591  20.035
 5296ETHO    C241028  13.459  10.413  20.086
 5296ETHO   H2141029  13.485  10.384  19.982
 5296ETHO   H2341030  13.360  10.464  20.089
 5297ETHO    O141031  13.469  10.296  20.174
 5297ETHO    C141032  13.386  10.192  20.133
 5297ETHO   H1141033  13.369  10.206  20.024
 5297ETHO   H1341034  13.286  10.200  20.180
 5297ETHO    C241035  13.446  10.054  20.140
 5297ETHO   H2141036  13.529  10.058  20.066
 5297ETHO   H2341037  13.371   9.976  20.113
 5298ETHO    O141038  13.493  10.020  20.269
 5298ETHO    C141039  13.595   9.921  20.270
 5298ETHO   H1141040  13.695   9.965  20.252
 5298ETHO   H1341041  13.579   9.853  20.183
 5298ETHO    C241042  13.610   9.842  20.406
 5298ETHO   H2141043  13.647   9.919  20.477
 5298ETHO   H2341044  13.691   9.766  20.395
 5299ETHO    O141045  13.491   9.776  20.450
 5299ETHO    C141046  13.459   9.649  20.402
 5299ETHO   H1141047  13.377   9.607  20.464
 5299ETHO   H1341048  13.543   9.582  20.431
 5299ETHO    C241049  13.412   9.625  20.257
 5299ETHO   H2141050  13.493   9.582  20.194
 5299ETHO   H2341051  13.384   9.725  20.216
 5300ETHO    O141052  13.306   9.539  20.257
 5300ETHO    C141053  13.232   9.560  20.137
 5300ETHO   H1141054  13.140   9.498  20.140
 5300ETHO   H1341055  13.196   9.665  20.141
 5300ETHO    C241056  13.290   9.518  19.997
 5300ETHO   H2141057  13.215   9.493  19.919
 5300ETHO   H2341058  13.343   9.421  20.003
 5300ETHO    OZ41059  13.359   9.628  19.936
 5300ETHO   HZ141060  13.402   9.593  19.857
 5301ETHO    O141061   8.152   9.984   5.743
 5301ETHO   HO141062   8.220   9.998   5.676
 5301ETHO    C141063   8.065  10.102   5.715
 5301ETHO   H1141064   8.068  10.133   5.608
 5301ETHO   H1341065   8.099  10.188   5.776
 5301ETHO    C241066   7.921  10.072   5.766
 5301ETHO   H2141067   7.920  10.099   5.874
 5301ETHO   H2341068   7.889   9.967   5.750
 5302ETHO    O141069   7.822  10.137   5.683
 5302ETHO    C141070   7.685  10.094   5.712
 5302ETHO   H1141071   7.674   9.986   5.688
 5302ETHO   H1341072   7.665  10.107   5.820
 5302ETHO    C241073   7.590  10.167   5.626
 5302ETHO   H2141074   7.483  10.140   5.639
 5302ETHO   H2341075   7.613  10.147   5.519
 5303ETHO    O141076   7.601  10.313   5.655
 5303ETHO    C141077   7.530  10.388   5.561
 5303ETHO   H1141078   7.427  10.346   5.567
 5303ETHO   H1341079   7.552  10.363   5.455
 5303ETHO    C241080   7.534  10.542   5.577
 5303ETHO   H2141081   7.510  10.569   5.682
 5303ETHO   H2341082   7.454  10.598   5.523
 5304ETHO    O141083   7.658  10.604   5.565
 5304ETHO    C141084   7.690  10.619   5.429
 5304ETHO   H1141085   7.698  10.527   5.367
 5304ETHO   H1341086   7.609  10.684   5.390
 5304ETHO    C241087   7.827  10.685   5.409
 5304ETHO   H2141088   7.828  10.772   5.478
 5304ETHO   H2341089   7.838  10.729   5.307
 5305ETHO    O141090   7.938  10.608   5.434
 5305ETHO    C141091   8.058  10.679   5.403
 5305ETHO   H1141092   8.055  10.738   5.309
 5305ETHO   H1341093   8.077  10.753   5.483
 5305ETHO    C241094   8.180  10.595   5.390
 5305ETHO   H2141095   8.188  10.563   5.284
 5305ETHO   H2341096   8.174  10.502   5.450
 5306ETHO    O141097   8.296  10.676   5.426
 5306ETHO    C141098   8.339  10.668   5.562
 5306ETHO   H1141099   8.255  10.700   5.627
 5306ETHO   H1341100   8.366  10.565   5.593
 5306ETHO    C241101   8.464  10.756   5.586
 5306ETHO   H2141102   8.557  10.712   5.542
 5306ETHO   H2341103   8.479  10.749   5.696
 5307ETHO    O141104   8.467  10.893   5.570
 5307ETHO    C141105   8.448  10.932   5.436
 5307ETHO   H1141106   8.503  10.860   5.372
 5307ETHO   H1341107   8.337  10.929   5.422
 5307ETHO    C241108   8.498  11.074   5.429
 5307ETHO   H2141109   8.501  11.104   5.322
 5307ETHO   H2341110   8.600  11.073   5.473
 5308ETHO    O141111   8.410  11.164   5.500
 5308ETHO    C141112   8.434  11.302   5.476
 5308ETHO   H1141113   8.436  11.311   5.366
 5308ETHO   H1341114   8.529  11.319   5.532
 5308ETHO    C241115   8.331  11.401   5.531
 5308ETHO   H2141116   8.234  11.366   5.491
 5308ETHO   H2341117   8.361  11.496   5.482
 5309ETHO    O141118   8.337  11.425   5.671
 5309ETHO    C141119   8.210  11.457   5.719
 5309ETHO   H1141120   8.191  11.554   5.668
 5309ETHO   H1341121   8.138  11.377   5.690
 5309ETHO    C241122   8.220  11.481   5.868
 5309ETHO   H2141123   8.140  11.554   5.894
 5309ETHO   H2341124   8.316  11.535   5.887
 5310ETHO    O141125   8.203  11.359   5.944
 5310ETHO    C141126   8.316  11.276   5.935
 5310ETHO   H1141127   8.410  11.334   5.951
 5310ETHO   H1341128   8.321  11.227   5.835
 5310ETHO    C241129   8.306  11.160   6.034
 5310ETHO   H2141130   8.381  11.087   5.999
 5310ETHO   H2341131   8.213  11.100   6.029
 5311ETHO    O141132   8.332  11.202   6.165
 5311ETHO    C141133   8.341  11.089   6.256
 5311ETHO   H1141134   8.236  11.058   6.274
 5311ETHO   H1341135   8.400  11.013   6.200
 5311ETHO    C241136   8.393  11.125   6.392
 5311ETHO   H2141137   8.353  11.228   6.398
 5311ETHO   H2341138   8.350  11.064   6.474
 5312ETHO    O141139   8.537  11.131   6.399
 5312ETHO    C141140   8.580  11.148   6.534
 5312ETHO   H1141141   8.505  11.210   6.588
 5312ETHO   H1341142   8.677  11.203   6.533
 5312ETHO    C241143   8.591  11.004   6.595
 5312ETHO   H2141144   8.505  10.942   6.562
 5312ETHO   H2341145   8.588  11.022   6.705
 5313ETHO    O141146   8.718  10.943   6.569
 5313ETHO    C141147   8.716  10.849   6.467
 5313ETHO   H1141148   8.670  10.759   6.511
 5313ETHO   H1341149   8.657  10.893   6.383
 5313ETHO    C241150   8.856  10.800   6.410
 5313ETHO   H2141151   8.919  10.889   6.392
 5313ETHO   H2341152   8.835  10.751   6.313
 5314ETHO    O141153   8.925  10.714   6.490
 5314ETHO    C141154   9.025  10.643   6.418
 5314ETHO   H1141155   9.105  10.719   6.404
 5314ETHO   H1341156   8.994  10.619   6.314
 5314ETHO    C241157   9.063  10.518   6.498
 5314ETHO   H2141158   9.142  10.457   6.448
 5314ETHO   H2341159   8.981  10.447   6.520
 5315ETHO    O141160   9.121  10.569   6.615
 5315ETHO    C141161   9.132  10.465   6.713
 5315ETHO   H1141162   9.030  10.435   6.747
 5315ETHO   H1341163   9.183  10.378   6.666
 5315ETHO    C241164   9.208  10.514   6.840
 5315ETHO   H2141165   9.166  10.602   6.892
 5315ETHO   H2341166   9.205  10.439   6.923
 5316ETHO    O141167   9.349  10.546   6.808
 5316ETHO    C141168   9.441  10.435   6.799
 5316ETHO   H1141169   9.421  10.365   6.883
 5316ETHO   H1341170   9.432  10.392   6.697
 5316ETHO    C241171   9.586  10.495   6.796
 5316ETHO   H2141172   9.591  10.546   6.698
 5316ETHO   H2341173   9.654  10.408   6.804
 5317ETHO    O141174   9.608  10.589   6.896
 5317ETHO    C141175   9.744  10.623   6.902
 5317ETHO   H1141176   9.800  10.544   6.957
 5317ETHO   H1341177   9.792  10.625   6.802
 5317ETHO    C241178   9.755  10.755   6.987
 5317ETHO   H2141179   9.668  10.817   6.958
 5317ETHO   H2341180   9.846  10.811   6.959
 5318ETHO    O141181   9.750  10.721   7.127
 5318ETHO    C141182   9.764  10.842   7.205
 5318ETHO   H1141183   9.853  10.884   7.153
 5318ETHO   H1341184   9.680  10.909   7.177
 5318ETHO    C241185   9.793  10.826   7.355
 5318ETHO   H2141186   9.812  10.933   7.381
 5318ETHO   H2341187   9.884  10.771   7.386
 5319ETHO    O141188   9.686  10.778   7.439
 5319ETHO    C141189   9.738  10.742   7.564
 5319ETHO   H1141190   9.797  10.829   7.600
 5319ETHO   H1341191   9.813  10.660   7.564
 5319ETHO    C241192   9.630  10.707   7.662
 5319ETHO   H2141193   9.548  10.778   7.639
 5319ETHO   H2341194   9.661  10.727   7.767
 5320ETHO    O141195   9.586  10.578   7.635
 5320ETHO    C141196   9.487  10.537   7.727
 5320ETHO   H1141197   9.533  10.519   7.827
 5320ETHO   H1341198   9.427  10.631   7.737
 5320ETHO    C241199   9.411  10.410   7.685
 5320ETHO   H2141200   9.343  10.383   7.769
 5320ETHO   H2341201   9.489  10.331   7.685
 5321ETHO    O141202   9.329  10.405   7.567
 5321ETHO    C141203   9.286  10.268   7.542
 5321ETHO   H1141204   9.262  10.222   7.640
 5321ETHO   H1341205   9.369  10.221   7.485
 5321ETHO    C241206   9.158  10.253   7.454
 5321ETHO   H2141207   9.165  10.329   7.373
 5321ETHO   H2341208   9.067  10.266   7.516
 5322ETHO    O141209   9.167  10.128   7.393
 5322ETHO    C141210   9.042  10.092   7.328
 5322ETHO   H1141211   8.979  10.066   7.416
 5322ETHO   H1341212   8.994  10.182   7.283
 5322ETHO    C241213   9.057   9.980   7.227
 5322ETHO   H2141214   9.110   9.890   7.264
 5322ETHO   H2341215   8.959   9.942   7.190
 5323ETHO    O141216   9.125  10.038   7.120
 5323ETHO    C141217   9.130   9.948   7.015
 5323ETHO   H1141218   9.032   9.904   6.989
 5323ETHO   H1341219   9.200   9.867   7.046
 5323ETHO    C241220   9.174  10.035   6.899
 5323ETHO   H2141221   9.207   9.973   6.813
 5323ETHO   H2341222   9.261  10.102   6.917
 5324ETHO    O141223   9.071  10.125   6.859
 5324ETHO    C141224   8.978  10.070   6.767
 5324ETHO   H1141225   9.029  10.038   6.673
 5324ETHO   H1341226   8.935   9.980   6.814
 5324ETHO    C241227   8.860  10.167   6.743
 5324ETHO   H2141228   8.804  10.134   6.652
 5324ETHO   H2341229   8.882  10.275   6.756
 5325ETHO    O141230   8.762  10.139   6.842
 5325ETHO    C141231   8.797  10.172   6.980
 5325ETHO   H1141232   8.844  10.273   6.983
 5325ETHO   H1341233   8.870  10.092   7.008
 5325ETHO    C241234   8.675  10.166   7.072
 5325ETHO   H2141235   8.604  10.246   7.041
 5325ETHO   H2341236   8.731  10.196   7.163
 5326ETHO    O141237   8.611  10.034   7.092
 5326ETHO    C141238   8.621   9.988   7.223
 5326ETHO   H1141239   8.605   9.878   7.227
 5326ETHO   H1341240   8.718  10.013   7.270
 5326ETHO    C241241   8.513  10.071   7.296
 5326ETHO   H2141242   8.516  10.176   7.259
 5326ETHO   H2341243   8.542  10.067   7.403
 5327ETHO    O141244   8.371  10.026   7.302
 5327ETHO    C141245   8.301  10.101   7.394
 5327ETHO   H1141246   8.326  10.208   7.375
 5327ETHO   H1341247   8.335  10.070   7.495
 5327ETHO    C241248   8.148  10.079   7.372
 5327ETHO   H2141249   8.123  10.123   7.273
 5327ETHO   H2341250   8.091  10.139   7.447
 5328ETHO    O141251   8.123   9.940   7.386
 5328ETHO    C141252   7.996   9.912   7.320
 5328ETHO   H1141253   7.918   9.979   7.362
 5328ETHO   H1341254   7.992   9.952   7.217
 5328ETHO    C241255   7.968   9.760   7.314
 5328ETHO   H2141256   7.871   9.754   7.260
 5328ETHO   H2341257   7.960   9.706   7.411
 5329ETHO    O141258   8.062   9.706   7.228
 5329ETHO    C141259   8.050   9.569   7.220
 5329ETHO   H1141260   7.946   9.542   7.190
 5329ETHO   H1341261   8.070   9.514   7.315
 5329ETHO    C241262   8.142   9.512   7.110
 5329ETHO   H2141263   8.154   9.403   7.126
 5329ETHO   H2341264   8.241   9.559   7.127
 5330ETHO    O141265   8.092   9.545   6.984
 5330ETHO    C141266   8.016   9.441   6.929
 5330ETHO   H1141267   8.074   9.347   6.940
 5330ETHO   H1341268   7.922   9.427   6.986
 5330ETHO    C241269   7.980   9.462   6.781
 5330ETHO   H2141270   7.948   9.363   6.743
 5330ETHO   H2341271   8.071   9.494   6.725
 5331ETHO    O141272   7.871   9.548   6.767
 5331ETHO    C141273   7.847   9.585   6.638
 5331ETHO   H1141274   7.798   9.685   6.637
 5331ETHO   H1341275   7.937   9.608   6.578
 5331ETHO    C241276   7.774   9.467   6.574
 5331ETHO   H2141277   7.820   9.367   6.587
 5331ETHO   H2341278   7.780   9.479   6.463
 5332ETHO    O141279   7.641   9.456   6.621
 5332ETHO    C141280   7.628   9.359   6.728
 5332ETHO   H1141281   7.696   9.271   6.723
 5332ETHO   H1341282   7.666   9.407   6.820
 5332ETHO    C241283   7.482   9.332   6.763
 5332ETHO   H2141284   7.420   9.423   6.748
 5332ETHO   H2341285   7.484   9.293   6.867
 5333ETHO    O141286   7.420   9.233   6.684
 5333ETHO    C141287   7.279   9.241   6.691
 5333ETHO   H1141288   7.242   9.238   6.795
 5333ETHO   H1341289   7.243   9.333   6.639
 5333ETHO    C241290   7.219   9.120   6.615
 5333ETHO   H2141291   7.262   9.107   6.513
 5333ETHO   H2341292   7.109   9.136   6.604
 5334ETHO    O141293   7.224   9.001   6.693
 5334ETHO    C141294   7.176   8.884   6.615
 5334ETHO   H1141295   7.074   8.895   6.572
 5334ETHO   H1341296   7.173   8.801   6.690
 5334ETHO    C241297   7.257   8.825   6.502
 5334ETHO   H2141298   7.203   8.740   6.455
 5334ETHO   H2341299   7.348   8.792   6.557
 5335ETHO    O141300   7.294   8.909   6.394
 5335ETHO    C141301   7.356   8.846   6.288
 5335ETHO   H1141302   7.445   8.789   6.321
 5335ETHO   H1341303   7.295   8.771   6.235
 5335ETHO    C241304   7.392   8.950   6.180
 5335ETHO   H2141305   7.451   8.889   6.109
 5335ETHO   H2341306   7.452   9.032   6.226
 5336ETHO    O141307   7.283   9.006   6.106
 5336ETHO    C141308   7.218   9.126   6.170
 5336ETHO   H1141309   7.280   9.218   6.165
 5336ETHO   H1341310   7.198   9.120   6.279
 5336ETHO    C241311   7.084   9.159   6.108
 5336ETHO   H2141312   7.009   9.078   6.119
 5336ETHO   H2341313   7.104   9.174   5.999
 5337ETHO    O141314   7.020   9.275   6.164
 5337ETHO    C141315   6.887   9.294   6.110
 5337ETHO   H1141316   6.862   9.204   6.049
 5337ETHO   H1341317   6.812   9.284   6.191
 5337ETHO    C241318   6.852   9.427   6.043
 5337ETHO   H2141319   6.749   9.427   6.001
 5337ETHO   H2341320   6.922   9.445   5.958
 5338ETHO    O141321   6.851   9.542   6.133
 5338ETHO    C141322   6.844   9.669   6.057
 5338ETHO   H1141323   6.750   9.665   5.998
 5338ETHO   H1341324   6.921   9.686   5.978
 5338ETHO    C241325   6.826   9.798   6.138
 5338ETHO   H2141326   6.754   9.793   6.222
 5338ETHO   H2341327   6.803   9.882   6.068
 5339ETHO    O141328   6.950   9.832   6.202
 5339ETHO    C141329   6.948   9.972   6.240
 5339ETHO   H1141330   6.925  10.039   6.155
 5339ETHO   H1341331   6.876   9.973   6.325
 5339ETHO    C241332   7.081  10.015   6.293
 5339ETHO   H2141333   7.157   9.987   6.216
 5339ETHO   H2341334   7.099   9.960   6.388
 5340ETHO    O141335   7.073  10.154   6.333
 5340ETHO    C141336   7.191  10.198   6.405
 5340ETHO   H1141337   7.201  10.155   6.507
 5340ETHO   H1341338   7.198  10.306   6.431
 5340ETHO    C241339   7.314  10.172   6.322
 5340ETHO   H2141340   7.384  10.244   6.370
 5340ETHO   H2341341   7.304  10.204   6.216
 5341ETHO    O141342   7.362  10.040   6.352
 5341ETHO    C141343   7.489  10.022   6.280
 5341ETHO   H1141344   7.477  10.068   6.180
 5341ETHO   H1341345   7.571  10.072   6.337
 5341ETHO    C241346   7.508   9.876   6.279
 5341ETHO   H2141347   7.416   9.826   6.244
 5341ETHO   H2341348   7.527   9.846   6.385
 5342ETHO    O141349   7.619   9.824   6.206
 5342ETHO    C141350   7.600   9.834   6.066
 5342ETHO   H1141351   7.517   9.764   6.042
 5342ETHO   H1341352   7.569   9.935   6.031
 5342ETHO    C241353   7.721   9.790   5.992
 5342ETHO   H2141354   7.704   9.793   5.883
 5342ETHO   H2341355   7.741   9.687   6.028
 5343ETHO    O141356   7.839   9.866   6.022
 5343ETHO    C141357   7.947   9.786   5.972
 5343ETHO   H1141358   7.934   9.677   5.993
 5343ETHO   H1341359   7.961   9.797   5.862
 5343ETHO    C241360   8.077   9.843   6.041
 5343ETHO   H2141361   8.101   9.942   5.997
 5343ETHO   H2341362   8.155   9.766   6.022
 5344ETHO    O141363   8.042   9.850   6.180
 5344ETHO    C141364   8.121   9.955   6.240
 5344ETHO   H1141365   8.229   9.944   6.214
 5344ETHO   H1341366   8.076  10.049   6.202
 5344ETHO    C241367   8.101   9.967   6.391
 5344ETHO   H2141368   8.146  10.064   6.418
 5344ETHO   H2341369   8.142   9.888   6.457
 5345ETHO    O141370   7.963   9.981   6.429
 5345ETHO    C141371   7.946  10.009   6.568
 5345ETHO   H1141372   8.038  10.054   6.612
 5345ETHO   H1341373   7.932   9.909   6.615
 5345ETHO    C241374   7.825  10.095   6.600
 5345ETHO   H2141375   7.822  10.120   6.708
 5345ETHO   H2341376   7.731  10.043   6.573
 5346ETHO    O141377   7.837  10.219   6.536
 5346ETHO    C141378   7.703  10.277   6.521
 5346ETHO   H1141379   7.645  10.213   6.451
 5346ETHO   H1341380   7.650  10.287   6.618
 5346ETHO    C241381   7.709  10.426   6.463
 5346ETHO   H2141382   7.780  10.482   6.527
 5346ETHO   H2341383   7.604  10.458   6.481
 5347ETHO    O141384   7.760  10.439   6.328
 5347ETHO    C141385   7.802  10.577   6.305
 5347ETHO   H1141386   7.867  10.569   6.215
 5347ETHO   H1341387   7.859  10.617   6.392
 5347ETHO    C241388   7.677  10.667   6.276
 5347ETHO   H2141389   7.721  10.768   6.257
 5347ETHO   H2341390   7.609  10.658   6.362
 5348ETHO    O141391   7.606  10.623   6.164
 5348ETHO    C141392   7.474  10.678   6.158
 5348ETHO   H1141393   7.422  10.641   6.249
 5348ETHO   H1341394   7.480  10.788   6.172
 5348ETHO    C241395   7.408  10.635   6.026
 5348ETHO   H2141396   7.312  10.690   6.021
 5348ETHO   H2341397   7.463  10.675   5.938
 5349ETHO    O141398   7.392  10.496   6.021
 5349ETHO    C141399   7.357  10.448   5.888
 5349ETHO   H1141400   7.448  10.409   5.837
 5349ETHO   H1341401   7.322  10.527   5.819
 5349ETHO    C241402   7.258  10.331   5.889
 5349ETHO   H2141403   7.275  10.270   5.980
 5349ETHO   H2341404   7.282  10.260   5.807
 5350ETHO    O141405   7.124  10.376   5.887
 5350ETHO    C141406   7.030  10.270   5.885
 5350ETHO   H1141407   7.054  10.210   5.975
 5350ETHO   H1341408   6.928  10.307   5.907
 5350ETHO    C241409   7.030  10.181   5.757
 5350ETHO   H2141410   6.959  10.096   5.770
 5350ETHO   H2341411   7.129  10.132   5.753
 5351ETHO    O141412   7.020  10.249   5.632
 5351ETHO    C141413   6.893  10.306   5.623
 5351ETHO   H1141414   6.891  10.399   5.684
 5351ETHO   H1341415   6.827  10.229   5.669
 5351ETHO    C241416   6.845  10.337   5.476
 5351ETHO   H2141417   6.743  10.381   5.481
 5351ETHO   H2341418   6.845  10.240   5.422
 5352ETHO    O141419   6.930  10.429   5.406
 5352ETHO    C141420   6.880  10.460   5.276
 5352ETHO   H1141421   6.861  10.370   5.214
 5352ETHO   H1341422   6.783  10.513   5.287
 5352ETHO    C241423   6.978  10.555   5.217
 5352ETHO   H2141424   7.011  10.632   5.290
 5352ETHO   H2341425   6.929  10.609   5.133
 5353ETHO    O141426   7.088  10.478   5.167
 5353ETHO    C141427   7.216  10.542   5.170
 5353ETHO   H1141428   7.205  10.621   5.093
 5353ETHO   H1341429   7.228  10.581   5.274
 5353ETHO    C241430   7.321  10.443   5.119
 5353ETHO   H2141431   7.412  10.491   5.077
 5353ETHO   H2341432   7.275  10.382   5.038
 5354ETHO    O141433   7.371  10.358   5.217
 5354ETHO    C141434   7.283  10.249   5.236
 5354ETHO   H1141435   7.283  10.229   5.345
 5354ETHO   H1341436   7.176  10.273   5.221
 5354ETHO    C241437   7.330  10.124   5.169
 5354ETHO   H2141438   7.332  10.140   5.059
 5354ETHO   H2341439   7.253  10.045   5.181
 5355ETHO    O141440   7.451  10.075   5.227
 5355ETHO    C141441   7.519   9.979   5.145
 5355ETHO   H1141442   7.450   9.897   5.115
 5355ETHO   H1341443   7.542  10.036   5.052
 5355ETHO    C241444   7.644   9.911   5.212
 5355ETHO   H2141445   7.732   9.897   5.145
 5355ETHO   H2341446   7.680   9.979   5.292
 5356ETHO    O141447   7.611   9.780   5.271
 5356ETHO    C141448   7.713   9.679   5.262
 5356ETHO   H1141449   7.759   9.684   5.160
 5356ETHO   H1341450   7.665   9.580   5.282
 5356ETHO    C241451   7.837   9.690   5.344
 5356ETHO   H2141452   7.881   9.792   5.346
 5356ETHO   H2341453   7.910   9.621   5.296
 5357ETHO    O141454   7.816   9.645   5.475
 5357ETHO    C141455   7.935   9.664   5.550
 5357ETHO   H1141456   8.024   9.687   5.487
 5357ETHO   H1341457   7.930   9.750   5.621
 5357ETHO    C241458   7.963   9.535   5.624
 5357ETHO   H2141459   8.067   9.542   5.662
 5357ETHO   H2341460   7.964   9.448   5.555
 5358ETHO    O141461   7.880   9.524   5.744
 5358ETHO    C141462   7.891   9.401   5.810
 5358ETHO   H1141463   7.998   9.389   5.835
 5358ETHO   H1341464   7.860   9.322   5.739
 5358ETHO    C241465   7.798   9.393   5.932
 5358ETHO   H2141466   7.842   9.470   5.998
 5358ETHO   H2341467   7.804   9.294   5.982
 5359ETHO    O141468   7.658   9.415   5.899
 5359ETHO    C141469   7.582   9.400   6.018
 5359ETHO   H1141470   7.596   9.301   6.065
 5359ETHO   H1341471   7.615   9.473   6.094
 5359ETHO    C241472   7.429   9.419   5.996
 5359ETHO   H2141473   7.392   9.400   6.099
 5359ETHO   H2341474   7.398   9.349   5.917
 5360ETHO    O141475   7.404   9.557   5.961
 5360ETHO    C141476   7.276   9.606   6.014
 5360ETHO   H1141477   7.289   9.632   6.121
 5360ETHO   H1341478   7.199   9.527   6.005
 5360ETHO    C241479   7.233   9.730   5.943
 5360ETHO   H2141480   7.316   9.802   5.925
 5360ETHO   H2341481   7.166   9.791   6.008
 5361ETHO    O141482   7.168   9.697   5.827
 5361ETHO    C141483   7.127   9.815   5.756
 5361ETHO   H1141484   7.090   9.896   5.823
 5361ETHO   H1341485   7.207   9.851   5.689
 5361ETHO    C241486   7.007   9.775   5.664
 5361ETHO   H2141487   7.036   9.689   5.600
 5361ETHO   H2341488   6.999   9.860   5.592
 5362ETHO    O141489   6.885   9.758   5.728
 5362ETHO    C141490   6.780   9.755   5.624
 5362ETHO   H1141491   6.810   9.685   5.542
 5362ETHO   H1341492   6.771   9.857   5.583
 5362ETHO    C241493   6.655   9.710   5.699
 5362ETHO   H2141494   6.668   9.608   5.742
 5362ETHO   H2341495   6.584   9.704   5.614
 5363ETHO    O141496   6.623   9.807   5.798
 5363ETHO    C141497   6.496   9.784   5.852
 5363ETHO   H1141498   6.420   9.771   5.772
 5363ETHO   H1341499   6.492   9.702   5.928
 5363ETHO    C241500   6.445   9.898   5.942
 5363ETHO   H2141501   6.335   9.884   5.944
 5363ETHO   H2341502   6.458  10.003   5.908
 5364ETHO    O141503   6.491   9.913   6.075
 5364ETHO    C141504   6.436  10.022   6.145
 5364ETHO   H1141505   6.326  10.029   6.141
 5364ETHO   H1341506   6.470  10.119   6.102
 5364ETHO    C241507   6.493  10.031   6.288
 5364ETHO   H2141508   6.602  10.049   6.283
 5364ETHO   H2341509   6.493   9.927   6.327
 5365ETHO    O141510   6.422  10.120   6.373
 5365ETHO    C141511   6.511  10.167   6.479
 5365ETHO   H1141512   6.599  10.214   6.430
 5365ETHO   H1341513   6.460  10.246   6.538
 5365ETHO    C241514   6.568  10.067   6.588
 5365ETHO   H2141515   6.482  10.007   6.625
 5365ETHO   H2341516   6.616  10.122   6.671
 5366ETHO    O141517   6.678   9.988   6.552
 5366ETHO    C141518   6.673   9.863   6.620
 5366ETHO   H1141519   6.753   9.800   6.575
 5366ETHO   H1341520   6.584   9.805   6.589
 5366ETHO    C241521   6.684   9.872   6.768
 5366ETHO   H2141522   6.663   9.773   6.813
 5366ETHO   H2341523   6.610   9.937   6.819
 5367ETHO    O141524   6.823   9.925   6.798
 5367ETHO    C141525   6.904   9.844   6.875
 5367ETHO   H1141526   6.940   9.892   6.968
 5367ETHO   H1341527   6.852   9.752   6.910
 5367ETHO    C241528   7.019   9.791   6.793
 5367ETHO   H2141529   6.991   9.773   6.687
 5367ETHO   H2341530   7.043   9.692   6.837
 5368ETHO    O141531   7.129   9.870   6.823
 5368ETHO    C141532   7.213   9.884   6.706
 5368ETHO   H1141533   7.209   9.801   6.632
 5368ETHO   H1341534   7.172   9.973   6.653
 5368ETHO    C241535   7.362   9.919   6.728
 5368ETHO   H2141536   7.369  10.005   6.798
 5368ETHO   H2341537   7.401   9.957   6.632
 5369ETHO    O141538   7.437   9.810   6.771
 5369ETHO    C141539   7.566   9.847   6.825
 5369ETHO   H1141540   7.636   9.884   6.746
 5369ETHO   H1341541   7.557   9.934   6.894
 5369ETHO    C241542   7.631   9.734   6.898
 5369ETHO   H2141543   7.737   9.749   6.929
 5369ETHO   H2341544   7.624   9.641   6.838
 5370ETHO    O141545   7.556   9.718   7.024
 5370ETHO    C141546   7.602   9.612   7.105
 5370ETHO   H1141547   7.662   9.538   7.048
 5370ETHO   H1341548   7.665   9.657   7.184
 5370ETHO    C241549   7.486   9.536   7.161
 5370ETHO   H2141550   7.405   9.603   7.197
 5370ETHO   H2341551   7.532   9.478   7.244
 5371ETHO    O141552   7.425   9.434   7.074
 5371ETHO    C141553   7.307   9.379   7.129
 5371ETHO   H1141554   7.228   9.446   7.091
 5371ETHO   H1341555   7.310   9.388   7.240
 5371ETHO    C241556   7.271   9.229   7.102
 5371ETHO   H2141557   7.302   9.190   7.002
 5371ETHO   H2341558   7.161   9.230   7.109
 5372ETHO    O141559   7.317   9.135   7.196
 5372ETHO    C141560   7.229   9.021   7.208
 5372ETHO   H1141561   7.121   9.045   7.196
 5372ETHO   H1341562   7.254   8.943   7.133
 5372ETHO    C241563   7.250   8.961   7.346
 5372ETHO   H2141564   7.357   8.930   7.355
 5372ETHO   H2341565   7.194   8.865   7.337
 5373ETHO    O141566   7.198   9.050   7.444
 5373ETHO    C141567   7.215   8.994   7.575
 5373ETHO   H1141568   7.325   8.985   7.591
 5373ETHO   H1341569   7.170   8.892   7.578
 5373ETHO    C241570   7.162   9.077   7.696
 5373ETHO   H2141571   7.141   9.013   7.784
 5373ETHO   H2341572   7.064   9.121   7.669
 5374ETHO    O141573   7.256   9.178   7.730
 5374ETHO    C141574   7.207   9.246   7.844
 5374ETHO   H1141575   7.115   9.303   7.817
 5374ETHO   H1341576   7.184   9.175   7.927
 5374ETHO    C241577   7.308   9.342   7.905
 5374ETHO   H2141578   7.390   9.274   7.936
 5374ETHO   H2341579   7.275   9.398   7.995
 5375ETHO    O141580   7.354   9.439   7.809
 5375ETHO    C141581   7.458   9.516   7.867
 5375ETHO   H1141582   7.549   9.451   7.868
 5375ETHO   H1341583   7.435   9.548   7.971
 5375ETHO    C241584   7.483   9.644   7.788
 5375ETHO   H2141585   7.497   9.635   7.678
 5375ETHO   H2341586   7.576   9.686   7.833
 5376ETHO    O141587   7.379   9.743   7.812
 5376ETHO    C141588   7.387   9.848   7.717
 5376ETHO   H1141589   7.474   9.913   7.741
 5376ETHO   H1341590   7.393   9.806   7.614
 5376ETHO    C241591   7.266   9.951   7.733
 5376ETHO   H2141592   7.275  10.018   7.645
 5376ETHO   H2341593   7.288  10.005   7.828
 5377ETHO    O141594   7.134   9.886   7.721
 5377ETHO    C141595   7.025   9.975   7.707
 5377ETHO   H1141596   7.059  10.059   7.644
 5377ETHO   H1341597   7.012  10.027   7.805
 5377ETHO    C241598   6.890   9.910   7.673
 5377ETHO   H2141599   6.802   9.934   7.736
 5377ETHO   H2341600   6.909   9.801   7.664
 5378ETHO    O141601   6.853   9.949   7.541
 5378ETHO    C141602   6.905   9.861   7.441
 5378ETHO   H1141603   7.016   9.864   7.448
 5378ETHO   H1341604   6.882   9.755   7.466
 5378ETHO    C241605   6.859   9.897   7.297
 5378ETHO   H2141606   6.911   9.838   7.218
 5378ETHO   H2341607   6.878  10.006   7.289
 5379ETHO    O141608   6.719   9.880   7.289
 5379ETHO    C141609   6.662   9.950   7.182
 5379ETHO   H1141610   6.715  10.048   7.179
 5379ETHO   H1341611   6.683   9.889   7.091
 5379ETHO    C241612   6.512   9.983   7.207
 5379ETHO   H2141613   6.480  10.081   7.166
 5379ETHO   H2341614   6.486   9.989   7.315
 5380ETHO    O141615   6.419   9.892   7.149
 5380ETHO    C141616   6.281   9.942   7.147
 5380ETHO   H1141617   6.254   9.976   7.250
 5380ETHO   H1341618   6.281  10.030   7.080
 5380ETHO    C241619   6.176   9.845   7.103
 5380ETHO   H2141620   6.228   9.772   7.037
 5380ETHO   H2341621   6.104   9.911   7.049
 5381ETHO    O141622   6.113   9.778   7.210
 5381ETHO    C141623   5.981   9.827   7.231
 5381ETHO   H1141624   5.937   9.852   7.132
 5381ETHO   H1341625   5.929   9.742   7.280
 5381ETHO    C241626   5.971   9.954   7.316
 5381ETHO   H2141627   5.873   9.946   7.367
 5381ETHO   H2341628   6.052   9.963   7.392
 5382ETHO    O141629   5.967  10.071   7.232
 5382ETHO    C141630   5.956  10.195   7.306
 5382ETHO   H1141631   5.904  10.166   7.399
 5382ETHO   H1341632   5.883  10.258   7.251
 5382ETHO    C241633   6.095  10.263   7.321
 5382ETHO   H2141634   6.070  10.366   7.354
 5382ETHO   H2341635   6.138  10.262   7.219
 5383ETHO    O141636   6.181  10.197   7.414
 5383ETHO    C141637   6.306  10.256   7.425
 5383ETHO   H1141638   6.349  10.235   7.325
 5383ETHO   H1341639   6.299  10.366   7.435
 5383ETHO    C241640   6.408  10.201   7.526
 5383ETHO   H2141641   6.416  10.090   7.524
 5383ETHO   H2341642   6.365  10.231   7.624
 5384ETHO    O141643   6.539  10.251   7.504
 5384ETHO    C141644   6.630  10.242   7.619
 5384ETHO   H1141645   6.620  10.149   7.678
 5384ETHO   H1341646   6.612  10.329   7.686
 5384ETHO    C241647   6.779  10.241   7.573
 5384ETHO   H2141648   6.799  10.170   7.490
 5384ETHO   H2341649   6.832  10.203   7.662
 5385ETHO    O141650   6.829  10.366   7.534
 5385ETHO    C141651   6.970  10.364   7.532
 5385ETHO   H1141652   7.011  10.332   7.630
 5385ETHO   H1341653   7.011  10.288   7.462
 5385ETHO    C241654   7.030  10.501   7.487
 5385ETHO   H2141655   6.973  10.539   7.400
 5385ETHO   H2341656   7.137  10.482   7.465
 5386ETHO    O141657   7.027  10.608   7.587
 5386ETHO    C141658   7.102  10.721   7.540
 5386ETHO   H1141659   7.035  10.807   7.564
 5386ETHO   H1341660   7.112  10.720   7.430
 5386ETHO    C241661   7.232  10.740   7.619
 5386ETHO   H2141662   7.226  10.709   7.726
 5386ETHO   H2341663   7.242  10.851   7.622
 5387ETHO    O141664   7.343  10.674   7.562
 5387ETHO    C141665   7.457  10.674   7.640
 5387ETHO   H1141666   7.469  10.770   7.695
 5387ETHO   H1341667   7.434  10.597   7.717
 5387ETHO    C241668   7.580  10.659   7.554
 5387ETHO   H2141669   7.590  10.754   7.498
 5387ETHO   H2341670   7.578  10.576   7.480
 5388ETHO    O141671   7.693  10.642   7.632
 5388ETHO    C141672   7.810  10.648   7.553
 5388ETHO   H1141673   7.816  10.745   7.500
 5388ETHO   H1341674   7.797  10.571   7.474
 5388ETHO    C241675   7.931  10.628   7.647
 5388ETHO   H2141676   8.023  10.609   7.587
 5388ETHO   H2341677   7.926  10.538   7.712
 5389ETHO    O141678   7.963  10.744   7.728
 5389ETHO    C141679   7.891  10.747   7.849
 5389ETHO   H1141680   7.786  10.765   7.820
 5389ETHO   H1341681   7.912  10.654   7.907
 5389ETHO    C241682   7.962  10.853   7.941
 5389ETHO   H2141683   7.902  10.867   8.034
 5389ETHO   H2341684   7.942  10.952   7.895
 5390ETHO    O141685   8.094  10.830   7.982
 5390ETHO    C141686   8.155  10.916   8.074
 5390ETHO   H1141687   8.103  10.908   8.172
 5390ETHO   H1341688   8.255  10.878   8.102
 5390ETHO    C241689   8.183  11.058   8.017
 5390ETHO   H2141690   8.230  11.058   7.916
 5390ETHO   H2341691   8.250  11.106   8.092
 5391ETHO    O141692   8.063  11.134   8.021
 5391ETHO    C141693   8.080  11.251   7.949
 5391ETHO   H1141694   8.166  11.316   7.979
 5391ETHO   H1341695   8.066  11.216   7.845
 5391ETHO    C241696   7.966  11.351   7.975
 5391ETHO   H2141697   7.876  11.286   7.985
 5391ETHO   H2341698   7.948  11.397   7.876
 5392ETHO    O141699   7.989  11.445   8.076
 5392ETHO    C141700   7.884  11.541   8.094
 5392ETHO   H1141701   7.872  11.601   8.001
 5392ETHO   H1341702   7.794  11.479   8.116
 5392ETHO    C241703   7.931  11.614   8.220
 5392ETHO   H2141704   7.961  11.540   8.297
 5392ETHO   H2341705   7.850  11.682   8.253
 5393ETHO    O141706   8.043  11.695   8.185
 5393ETHO    C141707   8.081  11.766   8.300
 5393ETHO   H1141708   8.074  11.704   8.392
 5393ETHO   H1341709   8.009  11.848   8.322
 5393ETHO    C241710   8.215  11.834   8.292
 5393ETHO   H2141711   8.207  11.930   8.349
 5393ETHO   H2341712   8.237  11.870   8.190
 5394ETHO    O141713   8.311  11.737   8.338
 5394ETHO    C141714   8.436  11.796   8.357
 5394ETHO   H1141715   8.483  11.837   8.265
 5394ETHO   H1341716   8.429  11.885   8.422
 5394ETHO    C241717   8.520  11.705   8.449
 5394ETHO   H2141718   8.464  11.657   8.532
 5394ETHO   H2341719   8.592  11.772   8.501
 5395ETHO    O141720   8.593  11.592   8.397
 5395ETHO    C141721   8.665  11.631   8.284
 5395ETHO   H1141722   8.743  11.707   8.308
 5395ETHO   H1341723   8.596  11.661   8.202
 5395ETHO    C241724   8.729  11.510   8.217
 5395ETHO   H2141725   8.786  11.543   8.128
 5395ETHO   H2341726   8.648  11.446   8.174
 5396ETHO    O141727   8.815  11.429   8.302
 5396ETHO    C141728   8.935  11.502   8.320
 5396ETHO   H1141729   9.007  11.467   8.243
 5396ETHO   H1341730   8.915  11.607   8.290
 5396ETHO    C241731   8.978  11.500   8.466
 5396ETHO   H2141732   9.026  11.401   8.477
 5396ETHO   H2341733   8.884  11.513   8.524
 5397ETHO    O141734   9.061  11.611   8.500
 5397ETHO    C141735   9.116  11.597   8.632
 5397ETHO   H1141736   9.185  11.510   8.639
 5397ETHO   H1341737   9.033  11.605   8.705
 5397ETHO    C241738   9.212  11.714   8.665
 5397ETHO   H2141739   9.210  11.722   8.776
 5397ETHO   H2341740   9.175  11.808   8.620
 5398ETHO    O141741   9.339  11.693   8.611
 5398ETHO    C141742   9.438  11.646   8.705
 5398ETHO   H1141743   9.405  11.551   8.753
 5398ETHO   H1341744   9.519  11.613   8.636
 5398ETHO    C241745   9.477  11.750   8.808
 5398ETHO   H2141746   9.447  11.849   8.768
 5398ETHO   H2341747   9.587  11.742   8.816
 5399ETHO    O141748   9.406  11.710   8.933
 5399ETHO    C141749   9.418  11.804   9.039
 5399ETHO   H1141750   9.384  11.903   9.002
 5399ETHO   H1341751   9.527  11.825   9.044
 5399ETHO    C241752   9.360  11.754   9.175
 5399ETHO   H2141753   9.405  11.657   9.205
 5399ETHO   H2341754   9.252  11.730   9.164
 5400ETHO    O141755   9.376  11.858   9.274
 5400ETHO    C141756   9.302  11.847   9.393
 5400ETHO   H1141757   9.198  11.884   9.375
 5400ETHO   H1341758   9.287  11.737   9.404
 5400ETHO    C241759   9.379  11.917   9.497
 5400ETHO   H2141760   9.473  11.865   9.526
 5400ETHO   H2341761   9.314  11.916   9.586
 5401PROX    O141762   9.393  12.056   9.471
 5401PROX    C141763   9.486  12.120   9.555
 5401PROX   H1141764   9.459  12.112   9.663
 5401PROX   H1341765   9.588  12.081   9.537
 5401PROX    C241766   9.501  12.267   9.526
 5401PROX   H2141767   9.401  12.310   9.552
 5401PROX    C341768   9.527  12.306   9.379
 5401PROX   H3141769   9.450  12.263   9.311
 5401PROX   H3241770   9.513  12.415   9.366
 5401PROX   H3341771   9.630  12.267   9.359
 5402PROX    O141772   9.600  12.319   9.612
 5402PROX    C141773   9.538  12.377   9.730
 5402PROX   H1141774   9.457  12.448   9.704
 5402PROX   H1341775   9.498  12.294   9.793
 5402PROX    C241776   9.644  12.447   9.831
 5402PROX   H2141777   9.731  12.383   9.854
 5402PROX    C341778   9.569  12.479   9.963
 5402PROX   H3141779   9.530  12.389  10.016
 5402PROX   H3241780   9.625  12.538  10.038
 5402PROX   H3341781   9.485  12.547   9.936
 5403PROX    O141782   9.695  12.563   9.768
 5403PROX    C141783   9.783  12.528   9.660
 5403PROX   H1141784   9.834  12.431   9.681
 5403PROX   H1341785   9.716  12.511   9.573
 5403PROX    C241786   9.897  12.635   9.631
 5403PROX   H2141787   9.865  12.736   9.665
 5403PROX    C341788   9.934  12.622   9.478
 5403PROX   H3141789   9.845  12.660   9.424
 5403PROX   H3241790  10.019  12.688   9.453
 5403PROX   H3341791   9.959  12.519   9.442
 5404PROX    O141792  10.016  12.604   9.694
 5404PROX    C141793  10.009  12.612   9.843
 5404PROX   H1141794  10.001  12.722   9.860
 5404PROX   H1341795   9.931  12.543   9.881
 5404PROX    C241796  10.148  12.574   9.906
 5404PROX   H2141797  10.133  12.567  10.016
 5404PROX    C341798  10.232  12.694   9.862
 5404PROX   H3141799  10.217  12.716   9.754
 5404PROX   H3241800  10.206  12.780   9.926
 5404PROX   H3341801  10.341  12.675   9.876
 5405PROX    O141802  10.187  12.451   9.854
 5405PROX    C141803  10.294  12.394   9.929
 5405PROX   H1141804  10.362  12.477   9.959
 5405PROX   H1341805  10.244  12.348  10.017
 5405PROX    C241806  10.365  12.302   9.835
 5405PROX   H2141807  10.393  12.376   9.757
 5405PROX    C341808  10.271  12.200   9.766
 5405PROX   H3141809  10.177  12.245   9.728
 5405PROX   H3241810  10.329  12.154   9.683
 5405PROX   H3341811  10.237  12.118   9.833
 5406PROX    O141812  10.488  12.264   9.891
 5406PROX    C141813  10.563  12.195   9.794
 5406PROX   H1141814  10.524  12.095   9.765
 5406PROX   H1341815  10.567  12.258   9.702
 5406PROX    C241816  10.709  12.173   9.841
 5406PROX   H2141817  10.748  12.273   9.873
 5406PROX    C341818  10.807  12.121   9.739
 5406PROX   H3141819  10.775  12.019   9.706
 5406PROX   H3241820  10.804  12.186   9.650
 5406PROX   H3341821  10.912  12.120   9.776
 5407PROX    O141822  10.711  12.084   9.950
 5407PROX    C141823  10.834  12.093  10.027
 5407PROX   H1141824  10.907  12.168   9.990
 5407PROX   H1341825  10.814  12.112  10.134
 5407PROX    C241826  10.902  11.957  10.020
 5407PROX   H2141827  10.905  11.933   9.912
 5407PROX    C341828  10.829  11.835  10.082
 5407PROX   H3141829  10.808  11.838  10.191
 5407PROX   H3241830  10.733  11.826  10.027
 5407PROX   H3341831  10.893  11.747  10.061
 5408PROX    O141832  11.035  11.973  10.070
 5408PROX    C141833  11.050  11.990  10.210
 5408PROX   H1141834  10.982  12.069  10.249
 5408PROX   H1341835  11.024  11.894  10.259
 5408PROX    C241836  11.204  12.016  10.236
 5408PROX   H2141837  11.267  11.930  10.205
 5408PROX    C341838  11.258  12.029  10.382
 5408PROX   H3141839  11.209  12.110  10.442
 5408PROX   H3241840  11.225  11.941  10.442
 5408PROX   H3341841  11.369  12.033  10.388
 5409PROX    O141842  11.251  12.135  10.164
 5409PROX    C141843  11.371  12.113  10.097
 5409PROX   H1141844  11.405  12.218  10.087
 5409PROX   H1341845  11.442  12.062  10.164
 5409PROX    C241846  11.349  12.036   9.963
 5409PROX   H2141847  11.244  12.028   9.927
 5409PROX    C341848  11.406  11.889   9.974
 5409PROX   H3141849  11.405  11.852   9.869
 5409PROX   H3241850  11.510  11.885  10.011
 5409PROX   H3341851  11.340  11.828  10.040
 5410PROX    O141852  11.431  12.094   9.861
 5410PROX    C141853  11.375  12.214   9.811
 5410PROX   H1141854  11.325  12.267   9.895
 5410PROX   H1341855  11.447  12.284   9.763
 5410PROX    C241856  11.271  12.198   9.707
 5410PROX   H2141857  11.193  12.125   9.738
 5410PROX    C341858  11.331  12.151   9.579
 5410PROX   H3141859  11.398  12.062   9.584
 5410PROX   H3241860  11.257  12.138   9.497
 5410PROX   H3341861  11.391  12.236   9.539
 5411PROX    O141862  11.215  12.327   9.679
 5411PROX    C141863  11.078  12.311   9.642
 5411PROX   H1141864  11.052  12.229   9.572
 5411PROX   H1341865  11.018  12.289   9.734
 5411PROX    C241866  11.041  12.441   9.565
 5411PROX   H2141867  11.120  12.465   9.490
 5411PROX    C341868  11.032  12.555   9.669
 5411PROX   H3141869  11.120  12.557   9.735
 5411PROX   H3241870  11.025  12.651   9.613
 5411PROX   H3341871  10.942  12.549   9.735
 5412PROX    O141872  10.913  12.425   9.497
 5412PROX    C141873  10.881  12.537   9.405
 5412PROX   H1141874  10.880  12.634   9.459
 5412PROX   H1341875  10.972  12.549   9.343
 5412PROX    C241876  10.761  12.518   9.309
 5412PROX   H2141877  10.779  12.420   9.260
 5412PROX    C341878  10.772  12.625   9.206
 5412PROX   H3141879  10.681  12.640   9.144
 5412PROX   H3241880  10.805  12.729   9.226
 5412PROX   H3341881  10.858  12.592   9.144
 5413PROX    O141882  10.634  12.502   9.370
 5413PROX    C141883  10.589  12.613   9.446
 5413PROX   H1141884  10.673  12.680   9.474
 5413PROX   H1341885  10.526  12.677   9.381
 5413PROX    C241886  10.503  12.564   9.569
 5413PROX   H2141887  10.501  12.453   9.569
 5413PROX    C341888  10.355  12.600   9.547
 5413PROX   H3141889  10.340  12.709   9.534
 5413PROX   H3241890  10.322  12.547   9.455
 5413PROX   H3341891  10.292  12.578   9.635
 5414PROX    O141892  10.549  12.617   9.694
 5414PROX    C141893  10.647  12.541   9.747
 5414PROX   H1141894  10.603  12.441   9.765
 5414PROX   H1341895  10.730  12.535   9.673
 5414PROX    C241896  10.692  12.593   9.880
 5414PROX   H2141897  10.607  12.600   9.950
 5414PROX    C341898  10.743  12.741   9.882
 5414PROX   H3141899  10.789  12.742   9.983
 5414PROX   H3241900  10.817  12.759   9.800
 5414PROX   H3341901  10.661  12.814   9.870
 5415PROX    O141902  10.791  12.502   9.933
 5415PROX    C141903  10.807  12.501  10.071
 5415PROX   H1141904  10.761  12.590  10.120
 5415PROX   H1341905  10.743  12.419  10.109
 5415PROX    C241906  10.959  12.464  10.113
 5415PROX   H2141907  10.996  12.384  10.045
 5415PROX    C341908  10.963  12.395  10.255
 5415PROX   H3141909  10.923  12.292  10.248
 5415PROX   H3241910  11.072  12.392  10.274
 5415PROX   H3341911  10.902  12.449  10.330
 5416PROX    O141912  11.046  12.575  10.123
 5416PROX    C141913  11.086  12.627   9.994
 5416PROX   H1141914  11.157  12.562   9.939
 5416PROX   H1341915  11.001  12.657   9.929
 5416PROX    C241916  11.163  12.761  10.017
 5416PROX   H2141917  11.263  12.735  10.057
 5416PROX    C341918  11.095  12.850  10.120
 5416PROX   H3141919  10.995  12.879  10.081
 5416PROX   H3241920  11.082  12.807  10.222
 5416PROX   H3341921  11.152  12.940  10.152
 5417PROX    O141922  11.173  12.834   9.890
 5417PROX    C141923  11.241  12.962   9.900
 5417PROX   H1141924  11.187  13.029   9.970
 5417PROX   H1341925  11.346  12.962   9.938
 5417PROX    C241926  11.239  13.033   9.767
 5417PROX   H2141927  11.260  12.965   9.681
 5417PROX    C341928  11.342  13.137   9.757
 5417PROX   H3141929  11.443  13.092   9.750
 5417PROX   H3241930  11.317  13.201   9.669
 5417PROX   H3341931  11.333  13.214   9.837
 5418PROX    O141932  11.117  13.098   9.736
 5418PROX    C141933  11.012  13.010   9.710
 5418PROX   H1141934  11.025  12.956   9.614
 5418PROX   H1341935  10.989  12.933   9.787
 5418PROX    C241936  10.886  13.098   9.689
 5418PROX   H2141937  10.912  13.152   9.595
 5418PROX    C341938  10.854  13.202   9.799
 5418PROX   H3141939  10.756  13.248   9.777
 5418PROX   H3241940  10.843  13.137   9.888
 5418PROX   H3341941  10.931  13.278   9.822
 5419PROX    O141942  10.775  13.013   9.675
 5419PROX    C141943  10.670  13.064   9.592
 5419PROX   H1141944  10.657  13.171   9.618
 5419PROX   H1341945  10.705  13.051   9.488
 5419PROX    C241946  10.532  12.987   9.622
 5419PROX   H2141947  10.554  12.878   9.622
 5419PROX    C341948  10.433  13.015   9.508
 5419PROX   H3141949  10.340  12.967   9.546
 5419PROX   H3241950  10.399  13.121   9.500
 5419PROX   H3341951  10.464  12.976   9.410
 5420PROX    O141952  10.456  13.027   9.735
 5420PROX    C141953  10.505  12.996   9.868
 5420PROX   H1141954  10.482  12.888   9.882
 5420PROX   H1341955  10.616  13.010   9.873
 5420PROX    C241956  10.433  13.081   9.980
 5420PROX   H2141957  10.326  13.067   9.956
 5420PROX    C341958  10.475  13.224   9.963
 5420PROX   H3141959  10.470  13.248   9.854
 5420PROX   H3241960  10.395  13.286  10.009
 5420PROX   H3341961  10.580  13.243   9.993
 5421PROX    O141962  10.462  13.019  10.102
 5421PROX    C141963  10.375  13.058  10.210
 5421PROX   H1141964  10.384  13.168  10.216
 5421PROX   H1341965  10.272  13.025  10.185
 5421PROX    C241966  10.404  12.972  10.337
 5421PROX   H2141967  10.385  12.867  10.306
 5421PROX    C341968  10.313  13.020  10.452
 5421PROX   H3141969  10.210  13.038  10.416
 5421PROX   H3241970  10.312  12.945  10.535
 5421PROX   H3341971  10.358  13.111  10.497
 5422PROX    O141972  10.535  12.988  10.374
 5422PROX    C141973  10.576  12.906  10.487
 5422PROX   H1141974  10.550  12.947  10.587
 5422PROX   H1341975  10.532  12.804  10.491
 5422PROX    C241976  10.726  12.875  10.475
 5422PROX   H2141977  10.770  12.977  10.463
 5422PROX    C341978  10.755  12.791  10.348
 5422PROX   H3141979  10.711  12.689  10.353
 5422PROX   H3241980  10.693  12.830  10.265
 5422PROX   H3341981  10.860  12.788  10.312
 5423PROX    O141982  10.785  12.814  10.592
 5423PROX    C141983  10.930  12.839  10.604
 5423PROX   H1141984  10.967  12.851  10.500
 5423PROX   H1341985  10.945  12.937  10.655
 5423PROX    C241986  11.000  12.727  10.674
 5423PROX   H2141987  11.106  12.748  10.696
 5423PROX    C341988  11.009  12.599  10.585
 5423PROX   H3141989  11.077  12.615  10.498
 5423PROX   H3241990  11.040  12.511  10.646
 5423PROX   H3341991  10.907  12.590  10.542
 5424PROX    O141992  10.943  12.703  10.808
 5424PROX    C141993  11.005  12.762  10.916
 5424PROX   H1141994  11.086  12.689  10.935
 5424PROX   H1341995  11.049  12.858  10.881
 5424PROX    C241996  10.921  12.764  11.039
 5424PROX   H2141997  10.846  12.846  11.034
 5424PROX    C341998  11.005  12.763  11.161
 5424PROX   H3141999  10.951  12.751  11.257
 5424PROX   H3242000  11.074  12.677  11.153
 5424PROX   H3342001  11.066  12.855  11.166
 5425PROX    O142002  10.845  12.644  11.047
 5425PROX    C142003  10.719  12.649  10.978
 5425PROX   H1142004  10.652  12.725  11.024
 5425PROX   H1342005  10.730  12.673  10.870
 5425PROX    C242006  10.655  12.512  10.992
 5425PROX   H2142007  10.624  12.497  11.098
 5425PROX    C342008  10.760  12.404  10.951
 5425PROX   H3142009  10.712  12.306  10.975
 5425PROX   H3242010  10.783  12.414  10.842
 5425PROX   H3342011  10.855  12.409  11.007
 5426PROX    O142012  10.544  12.507  10.904
 5426PROX    C142013  10.480  12.382  10.897
 5426PROX   H1142014  10.533  12.313  10.828
 5426PROX   H1342015  10.471  12.335  10.997
 5426PROX    C242016  10.344  12.409  10.831
 5426PROX   H2142017  10.360  12.459  10.734
 5426PROX    C342018  10.251  12.497  10.909
 5426PROX   H3142019  10.150  12.488  10.864
 5426PROX   H3242020  10.252  12.466  11.016
 5426PROX   H3342021  10.289  12.601  10.909
 5427PROX    O142022  10.263  12.290  10.827
 5427PROX    C142023  10.309  12.186  10.738
 5427PROX   H1142024  10.272  12.229  10.642
 5427PROX   H1342025  10.419  12.177  10.739
 5427PROX    C242026  10.245  12.055  10.778
 5427PROX   H2142027  10.136  12.072  10.791
 5427PROX    C342028  10.303  12.008  10.913
 5427PROX   H3142029  10.393  11.949  10.882
 5427PROX   H3242030  10.335  12.094  10.975
 5427PROX   H3342031  10.234  11.951  10.979
 5428PROX    O142032  10.257  11.963  10.670
 5428PROX    C142033  10.184  11.838  10.695
 5428PROX   H1142034  10.233  11.776  10.617
 5428PROX   H1342035  10.200  11.779  10.787
 5428PROX    C242036  10.032  11.844  10.659
 5428PROX   H2142037   9.999  11.739  10.643
 5428PROX    C342038  10.000  11.919  10.532
 5428PROX   H3142039   9.900  11.883  10.497
 5428PROX   H3242040  10.000  12.028  10.554
 5428PROX   H3342041  10.076  11.893  10.455
 5429PROX    O142042   9.952  11.895  10.765
 5429PROX    C142043   9.819  11.846  10.772
 5429PROX   H1142044   9.764  11.851  10.676
 5429PROX   H1342045   9.834  11.740  10.801
 5429PROX    C242046   9.742  11.913  10.886
 5429PROX   H2142047   9.818  11.925  10.966
 5429PROX    C342048   9.630  11.820  10.934
 5429PROX   H3142049   9.670  11.727  10.979
 5429PROX   H3242050   9.571  11.871  11.013
 5429PROX   H3342051   9.560  11.794  10.851
 5430PROX    O142052   9.689  12.037  10.845
 5430PROX    C142053   9.787  12.141  10.815
 5430PROX   H1142054   9.885  12.103  10.779
 5430PROX   H1342055   9.752  12.218  10.743
 5430PROX    C242056   9.810  12.220  10.944
 5430PROX   H2142057   9.711  12.268  10.965
 5430PROX    C342058   9.923  12.329  10.919
 5430PROX   H3142059  10.025  12.286  10.918
 5430PROX   H3242060   9.920  12.372  10.816
 5430PROX   H3342061   9.909  12.412  10.992
 5431PROX    O142062   9.844  12.130  11.048
 5431PROX    C142063   9.863  12.183  11.173
 5431PROX   H1142064   9.956  12.243  11.184
 5431PROX   H1342065   9.770  12.237  11.203
 5431PROX    C242066   9.884  12.059  11.271
 5431PROX   H2142067   9.944  11.981  11.219
 5431PROX    C342068   9.747  11.997  11.316
 5431PROX   H3142069   9.687  12.075  11.368
 5431PROX   H3242070   9.689  11.961  11.228
 5431PROX   H3342071   9.754  11.907  11.380
 5432PROX    O142072   9.952  12.101  11.383
 5432PROX    C142073  10.089  12.136  11.356
 5432PROX   H1142074  10.124  12.090  11.261
 5432PROX   H1342075  10.105  12.245  11.341
 5432PROX    C242076  10.183  12.085  11.471
 5432PROX   H2142077  10.170  11.975  11.468
 5432PROX    C342078  10.149  12.139  11.611
 5432PROX   H3142079  10.197  12.080  11.692
 5432PROX   H3242080  10.180  12.245  11.625
 5432PROX   H3342081  10.039  12.144  11.626
 5433PROX    O142082  10.316  12.120  11.445
 5433PROX    C142083  10.379  12.050  11.338
 5433PROX   H1142084  10.372  11.940  11.352
 5433PROX   H1342085  10.333  12.070  11.239
 5433PROX    C242086  10.524  12.096  11.338
 5433PROX   H2142087  10.567  12.091  11.441
 5433PROX    C342088  10.523  12.244  11.291
 5433PROX   H3142089  10.480  12.304  11.373
 5433PROX   H3242090  10.628  12.279  11.274
 5433PROX   H3342091  10.468  12.266  11.197
 5434PROX    O142092  10.601  12.007  11.248
 5434PROX    C142093  10.567  12.012  11.107
 5434PROX   H1142094  10.511  11.918  11.086
 5434PROX   H1342095  10.505  12.100  11.080
 5434PROX    C242096  10.697  12.004  11.017
 5434PROX   H2142097  10.765  12.084  11.055
 5434PROX    C342098  10.654  12.027  10.869
 5434PROX   H3142099  10.573  12.102  10.862
 5434PROX   H3242100  10.743  12.047  10.805
 5434PROX   H3342101  10.605  11.935  10.832
 5435PROX    O142102  10.771  11.883  11.030
 5435PROX    C142103  10.912  11.906  11.031
 5435PROX   H1142104  10.941  11.978  10.950
 5435PROX   H1342105  10.944  11.953  11.126
 5435PROX    C242106  10.986  11.770  11.018
 5435PROX   H2142107  10.936  11.695  11.083
 5435PROX    C342108  11.135  11.775  11.044
 5435PROX   H3142109  11.166  11.868  11.096
 5435PROX   H3242110  11.171  11.686  11.100
 5435PROX   H3342111  11.186  11.781  10.945
 5436PROX    O142112  10.962  11.721  10.896
 5436PROX    C142113  11.004  11.583  10.880
 5436PROX   H1142114  11.109  11.562  10.909
 5436PROX   H1342115  10.940  11.528  10.952
 5436PROX    C242116  10.974  11.518  10.742
 5436PROX   H2142117  10.870  11.547  10.715
 5436PROX    C342118  10.988  11.364  10.745
 5436PROX   H3142119  10.971  11.316  10.646
 5436PROX   H3242120  11.093  11.341  10.773
 5436PROX   H3342121  10.925  11.314  10.821
 5437PROX    O142122  11.066  11.563  10.646
 5437PROX    C142123  11.071  11.704  10.619
 5437PROX   H1142124  11.108  11.764  10.705
 5437PROX   H1342125  11.144  11.731  10.540
 5437PROX    C242126  10.941  11.752  10.555
 5437PROX   H2142127  10.867  11.758  10.638
 5437PROX    C342128  10.898  11.661  10.443
 5437PROX   H3142129  10.875  11.554  10.462
 5437PROX   H3242130  10.813  11.705  10.386
 5437PROX   H3342131  10.989  11.666  10.379
 5438PROX    O142132  10.957  11.889  10.504
 5438PROX    C142133  10.959  11.986  10.604
 5438PROX   H1142134  10.905  11.959  10.697
 5438PROX   H1342135  11.068  11.990  10.622
 5438PROX    C242136  10.924  12.122  10.551
 5438PROX   H2142137  10.946  12.132  10.443
 5438PROX    C342138  11.007  12.234  10.615
 5438PROX   H3142139  11.005  12.216  10.725
 5438PROX   H3242140  11.115  12.232  10.589
 5438PROX   H3342141  10.961  12.333  10.596
 5439PROX    O142142  10.787  12.142  10.572
 5439PROX    C142143  10.723  12.215  10.469
 5439PROX   H1142144  10.762  12.318  10.482
 5439PROX   H1342145  10.756  12.179  10.369
 5439PROX    C242146  10.575  12.202  10.478
 5439PROX   H2142147  10.544  12.228  10.582
 5439PROX    C342148  10.549  12.049  10.464
 5439PROX   H3142149  10.575  12.004  10.562
 5439PROX   H3242150  10.439  12.031  10.462
 5439PROX   H3342151  10.605  12.009  10.377
 5440PROX    O142152  10.512  12.287  10.382
 5440PROX    C142153  10.384  12.333  10.413
 5440PROX   H1142154  10.313  12.248  10.408
 5440PROX   H1342155  10.384  12.375  10.516
 5440PROX    C242156  10.343  12.438  10.306
 5440PROX   H2142157  10.357  12.397  10.203
 5440PROX    C342158  10.426  12.561  10.319
 5440PROX   H3142159  10.377  12.654  10.285
 5440PROX   H3242160  10.453  12.579  10.425
 5440PROX   H3342161  10.520  12.550  10.260
 5441PROX    O142162  10.206  12.470  10.323
 5441PROX    C142163  10.115  12.378  10.269
 5441PROX   H1142164  10.087  12.419  10.169
 5441PROX   H1342165  10.166  12.282  10.246
 5441PROX    C242166  10.002  12.357  10.358
 5441PROX   H2142167   9.948  12.452  10.380
 5441PROX    C342168  10.058  12.313  10.496
 5441PROX   H3142169  10.147  12.373  10.526
 5441PROX   H3242170   9.981  12.315  10.575
 5441PROX   H3342171  10.094  12.208  10.495
 5442PROX    O142172   9.917  12.256  10.310
 5442PROX    C142173   9.794  12.240  10.382
 5442PROX   H1142174   9.818  12.188  10.477
 5442PROX   H1342175   9.748  12.340  10.396
 5442PROX    C242176   9.691  12.145  10.314
 5442PROX   H2142177   9.740  12.048  10.290
 5442PROX    C342178   9.625  12.212  10.189
 5442PROX   H3142179   9.575  12.306  10.223
 5442PROX   H3242180   9.703  12.244  10.117
 5442PROX   H3342181   9.543  12.145  10.155
 5443PROX    O142182   9.583  12.132  10.401
 5443PROX    C142183   9.590  12.013  10.489
 5443PROX   H1142184   9.688  12.013  10.542
 5443PROX   H1342185   9.517  12.027  10.572
 5443PROX    C242186   9.564  11.882  10.420
 5443PROX   H2142187   9.649  11.865  10.350
 5443PROX    C342188   9.423  11.882  10.347
 5443PROX   H3142189   9.340  11.908  10.416
 5443PROX   H3242190   9.426  11.963  10.270
 5443PROX   H3342191   9.409  11.789  10.288
 5444PROX    O142192   9.553  11.779  10.522
 5444PROX    C142193   9.612  11.648  10.495
 5444PROX   H1142194   9.622  11.638  10.385
 5444PROX   H1342195   9.716  11.650  10.535
 5444PROX    C242196   9.536  11.526  10.548
 5444PROX   H2142197   9.434  11.522  10.503
 5444PROX    C342198   9.535  11.531  10.698
 5444PROX   H3142199   9.499  11.633  10.724
 5444PROX   H3242200   9.463  11.464  10.752
 5444PROX   H3342201   9.634  11.515  10.746
 5445PROX    O142202   9.613  11.410  10.518
 5445PROX    C142203   9.559  11.324  10.418
 5445PROX   H1142204   9.607  11.226  10.439
 5445PROX   H1342205   9.455  11.292  10.436
 5445PROX    C242206   9.578  11.377  10.273
 5445PROX   H2142207   9.657  11.452  10.251
 5445PROX    C342208   9.451  11.426  10.221
 5445PROX   H3142209   9.367  11.355  10.234
 5445PROX   H3242210   9.417  11.518  10.272
 5445PROX   H3342211   9.465  11.451  10.114
 5446PROX    O142212   9.601  11.268  10.193
 5446PROX    C142213   9.743  11.244  10.179
 5446PROX   H1142214   9.798  11.278  10.270
 5446PROX   H1342215   9.757  11.134  10.183
 5446PROX    C242216   9.809  11.300  10.049
 5446PROX   H2142217   9.835  11.408  10.055
 5446PROX    C342218   9.718  11.293   9.924
 5446PROX   H3142219   9.618  11.341   9.930
 5446PROX   H3242220   9.765  11.345   9.838
 5446PROX   H3342221   9.712  11.188   9.889
 5447PROX    O142222   9.930  11.234  10.019
 5447PROX    C142223  10.022  11.220  10.133
 5447PROX   H1142224  10.033  11.316  10.187
 5447PROX   H1342225   9.990  11.143  10.206
 5447PROX    C242226  10.166  11.197  10.082
 5447PROX   H2142227  10.163  11.108  10.017
 5447PROX    C342228  10.254  11.176  10.200
 5447PROX   H3142229  10.227  11.078  10.246
 5447PROX   H3242230  10.360  11.180  10.168
 5447PROX   H3342231  10.237  11.253  10.279
 5448PROX    O142232  10.208  11.311  10.002
 5448PROX    C142233  10.179  11.293   9.864
 5448PROX   H1142234  10.247  11.221   9.814
 5448PROX   H1342235  10.078  11.246   9.860
 5448PROX    C242236  10.166  11.431   9.791
 5448PROX   H2142237  10.259  11.491   9.800
 5448PROX    C342238  10.054  11.519   9.859
 5448PROX   H3142239   9.955  11.470   9.851
 5448PROX   H3242240  10.076  11.534   9.967
 5448PROX   H3342241  10.057  11.618   9.808
 5449PROX    O142242  10.133  11.399   9.658
 5449PROX    C142243  10.241  11.349   9.582
 5449PROX   H1142244  10.322  11.313   9.648
 5449PROX   H1342245  10.213  11.266   9.514
 5449PROX    C242246  10.310  11.460   9.491
 5449PROX   H2142247  10.240  11.517   9.426
 5449PROX    C342248  10.403  11.390   9.392
 5449PROX   H3142249  10.465  11.315   9.445
 5449PROX   H3242250  10.353  11.328   9.315
 5449PROX   H3342251  10.468  11.461   9.337
 5450PROX    O142252  10.393  11.539   9.568
 5450PROX    C142253  10.407  11.680   9.525
 5450PROX   H1142254  10.456  11.673   9.426
 5450PROX   H1342255  10.309  11.732   9.512
 5450PROX    C242256  10.493  11.761   9.634
 5450PROX   H2142257  10.574  11.694   9.672
 5450PROX    C342258  10.399  11.791   9.761
 5450PROX   H3142259  10.307  11.844   9.728
 5450PROX   H3242260  10.372  11.699   9.816
 5450PROX   H3342261  10.457  11.862   9.823
 5451PROX    O142262  10.562  11.879   9.571
 5451PROX    C142263  10.484  11.956   9.482
 5451PROX   H1142264  10.455  11.890   9.397
 5451PROX   H1342265  10.394  11.999   9.532
 5451PROX    C242266  10.560  12.086   9.444
 5451PROX   H2142267  10.620  12.123   9.529
 5451PROX    C342268  10.466  12.202   9.403
 5451PROX   H3142269  10.419  12.170   9.308
 5451PROX   H3242270  10.406  12.225   9.494
 5451PROX   H3342271  10.530  12.287   9.370
 5452PROX    O142272  10.653  12.063   9.336
 5452PROX    C142273  10.783  12.030   9.380
 5452PROX   H1142274  10.834  12.124   9.409
 5452PROX   H1342275  10.773  11.963   9.468
 5452PROX    C242276  10.876  11.955   9.279
 5452PROX   H2142277  10.887  12.027   9.195
 5452PROX    C342278  10.789  11.831   9.228
 5452PROX   H3142279  10.805  11.758   9.310
 5452PROX   H3242280  10.683  11.861   9.215
 5452PROX   H3342281  10.833  11.801   9.130
 5453PROX    O142282  10.999  11.918   9.339
 5453PROX    C142283  11.069  11.836   9.250
 5453PROX   H1142284  11.035  11.731   9.243
 5453PROX   H1342285  11.063  11.883   9.149
 5453PROX    C242286  11.222  11.834   9.292
 5453PROX   H2142287  11.232  11.810   9.400
 5453PROX    C342288  11.293  11.973   9.254
 5453PROX   H3142289  11.243  12.050   9.318
 5453PROX   H3242290  11.398  11.967   9.289
 5453PROX   H3342291  11.280  11.994   9.146
 5454PROX    O142292  11.286  11.724   9.227
 5454PROX    C142293  11.422  11.701   9.256
 5454PROX   H1142294  11.472  11.787   9.206
 5454PROX   H1342295  11.443  11.729   9.362
 5454PROX    C242296  11.466  11.559   9.216
 5454PROX   H2142297  11.573  11.556   9.248
 5454PROX    C342298  11.455  11.547   9.064
 5454PROX   H3142299  11.531  11.611   9.015
 5454PROX   H3242300  11.479  11.441   9.039
 5454PROX   H3342301  11.372  11.597   9.011
 5455PROX    O142302  11.385  11.454   9.278
 5455PROX    C142303  11.357  11.471   9.416
 5455PROX   H1142304  11.458  11.465   9.462
 5455PROX   H1342305  11.307  11.571   9.425
 5455PROX    C242306  11.256  11.367   9.463
 5455PROX   H2142307  11.276  11.263   9.428
 5455PROX    C342308  11.108  11.396   9.414
 5455PROX   H3142309  11.104  11.389   9.304
 5455PROX   H3242310  11.042  11.317   9.454
 5455PROX   H3342311  11.091  11.495   9.464
 5456PROX    O142312  11.251  11.374   9.607
 5456PROX    C142313  11.178  11.270   9.674
 5456PROX   H1142314  11.076  11.302   9.704
 5456PROX   H1342315  11.167  11.174   9.619
 5456PROX    C242316  11.248  11.224   9.808
 5456PROX   H2142317  11.345  11.178   9.780
 5456PROX    C342318  11.172  11.112   9.892
 5456PROX   H3142319  11.231  11.059   9.969
 5456PROX   H3242320  11.069  11.137   9.924
 5456PROX   H3342321  11.149  11.029   9.821
 5457PROX    O142322  11.288  11.340   9.881
 5457PROX    C142323  11.214  11.381   9.995
 5457PROX   H1142324  11.107  11.379   9.965
 5457PROX   H1342325  11.232  11.305  10.074
 5457PROX    C242326  11.251  11.526  10.042
 5457PROX   H2142327  11.359  11.524  10.070
 5457PROX    C342328  11.185  11.584  10.163
 5457PROX   H3142329  11.077  11.609  10.147
 5457PROX   H3242330  11.186  11.502  10.238
 5457PROX   H3342331  11.235  11.673  10.207
 5458PROX    O142332  11.236  11.614   9.931
 5458PROX    C142333  11.098  11.659   9.906
 5458PROX   H1142334  11.018  11.594   9.950
 5458PROX   H1342335  11.087  11.761   9.947
 5458PROX    C242336  11.063  11.680   9.756
 5458PROX   H2142337  11.075  11.583   9.705
 5458PROX    C342338  11.151  11.790   9.691
 5458PROX   H3142339  11.120  11.802   9.585
 5458PROX   H3242340  11.136  11.878   9.756
 5458PROX   H3342341  11.257  11.757   9.692
 5459PROX    O142342  10.925  11.721   9.751
 5459PROX    C142343  10.862  11.683   9.628
 5459PROX   H1142344  10.766  11.739   9.635
 5459PROX   H1342345  10.920  11.711   9.538
 5459PROX    C242346  10.827  11.533   9.618
 5459PROX   H2142347  10.921  11.480   9.645
 5459PROX    C342348  10.788  11.499   9.473
 5459PROX   H3142349  10.692  11.549   9.446
 5459PROX   H3242350  10.871  11.530   9.407
 5459PROX   H3342351  10.780  11.388   9.469
 5460PROX    O142352  10.721  11.501   9.697
 5460PROX    C142353  10.737  11.511   9.833
 5460PROX   H1142354  10.845  11.513   9.860
 5460PROX   H1342355  10.703  11.610   9.871
 5460PROX    C242356  10.664  11.399   9.906
 5460PROX   H2142357  10.671  11.309   9.841
 5460PROX    C342358  10.513  11.431   9.916
 5460PROX   H3142359  10.454  11.340   9.940
 5460PROX   H3242360  10.482  11.515   9.982
 5460PROX   H3342361  10.474  11.453   9.815
 5461PROX    O142362  10.724  11.380  10.028
 5461PROX    C142363  10.687  11.258  10.089
 5461PROX   H1142364  10.579  11.251  10.115
 5461PROX   H1342365  10.711  11.172  10.023
 5461PROX    C242366  10.771  11.248  10.218
 5461PROX   H2142367  10.762  11.344  10.274
 5461PROX    C342368  10.920  11.221  10.196
 5461PROX   H3142369  10.921  11.142  10.118
 5461PROX   H3242370  10.973  11.308  10.150
 5461PROX   H3342371  10.977  11.195  10.288
 5462PROX    O142372  10.728  11.146  10.306
 5462PROX    C142373  10.616  11.175  10.383
 5462PROX   H1142374  10.532  11.217  10.323
 5462PROX   H1342375  10.580  11.084  10.436
 5462PROX    C242376  10.656  11.268  10.503
 5462PROX   H2142377  10.726  11.349  10.474
 5462PROX    C342378  10.714  11.177  10.610
 5462PROX   H3142379  10.730  11.228  10.708
 5462PROX   H3242380  10.656  11.082  10.612
 5462PROX   H3342381  10.812  11.148  10.567
 5463PROX    O142382  10.542  11.329  10.554
 5463PROX    C142383  10.570  11.436  10.646
 5463PROX   H1142384  10.477  11.439  10.706
 5463PROX   H1342385  10.664  11.424  10.704
 5463PROX    C242386  10.576  11.574  10.579
 5463PROX   H2142387  10.654  11.570  10.499
 5463PROX    C342388  10.597  11.693  10.674
 5463PROX   H3142389  10.511  11.697  10.744
 5463PROX   H3242390  10.683  11.679  10.743
 5463PROX   H3342391  10.602  11.794  10.627
 5464PROX    O142392  10.451  11.584  10.512
 5464PROX    C142393  10.461  11.681  10.410
 5464PROX   H1142394  10.439  11.778  10.459
 5464PROX   H1342395  10.556  11.679  10.352
 5464PROX    C242396  10.345  11.651  10.312
 5464PROX   H2142397  10.254  11.661  10.375
 5464PROX    C342398  10.359  11.508  10.261
 5464PROX   H3142399  10.263  11.478  10.213
 5464PROX   H3242400  10.450  11.497  10.199
 5464PROX   H3342401  10.378  11.448  10.353
 5465PROX    O142402  10.347  11.756  10.209
 5465PROX    C142403  10.247  11.740  10.106
 5465PROX   H1142404  10.284  11.686  10.016
 5465PROX   H1342405  10.163  11.679  10.145
 5465PROX    C242406  10.186  11.879  10.064
 5465PROX   H2142407  10.268  11.924  10.005
 5465PROX    C342408  10.150  11.977  10.181
 5465PROX   H3142409  10.105  12.075  10.151
 5465PROX   H3242410  10.081  11.926  10.251
 5465PROX   H3342411  10.238  12.017  10.235
 5466ETHO    O142412  10.073  11.852   9.978
 5466ETHO    C142413  10.058  11.935   9.865
 5466ETHO   H1142414  10.140  11.917   9.792
 5466ETHO   H1342415  10.067  12.042   9.894
 5466ETHO    C242416   9.926  11.898   9.793
 5466ETHO   H2142417   9.845  11.934   9.861
 5466ETHO   H2342418   9.925  11.787   9.791
 5467ETHO    O142419   9.918  11.954   9.660
 5467ETHO    C142420   9.896  12.099   9.655
 5467ETHO   H1142421   9.802  12.123   9.708
 5467ETHO   H1342422   9.985  12.147   9.700
 5467ETHO    C242423   9.891  12.151   9.507
 5467ETHO   H2142424   9.857  12.254   9.531
 5467ETHO   H2342425   9.810  12.110   9.444
 5468ETHO    O142426  10.020  12.160   9.443
 5468ETHO    C142427  10.008  12.227   9.315
 5468ETHO   H1142428  10.102  12.275   9.281
 5468ETHO   H1342429   9.931  12.306   9.323
 5468ETHO    C242430   9.958  12.144   9.195
 5468ETHO   H2142431   9.933  12.216   9.114
 5468ETHO   H2342432   9.866  12.095   9.234
 5469ETHO    O142433  10.059  12.045   9.159
 5469ETHO    C142434   9.998  11.953   9.072
 5469ETHO   H1142435   9.910  11.902   9.116
 5469ETHO   H1342436   9.965  12.008   8.981
 5469ETHO    C242437  10.074  11.830   9.028
 5469ETHO   H2142438  10.169  11.862   8.980
 5469ETHO   H2342439  10.014  11.779   8.949
 5470ETHO    O142440  10.106  11.733   9.133
 5470ETHO    C142441  10.159  11.609   9.082
 5470ETHO   H1142442  10.220  11.554   9.157
 5470ETHO   H1342443  10.231  11.625   8.999
 5470ETHO    C242444  10.033  11.526   9.033
 5470ETHO   H2142445  10.074  11.425   9.009
 5470ETHO   H2342446  10.002  11.565   8.934
 5471ETHO    O142447   9.940  11.512   9.131
 5471ETHO    C142448   9.813  11.561   9.090
 5471ETHO   H1142449   9.750  11.565   9.182
 5471ETHO   H1342450   9.819  11.663   9.047
 5471ETHO    C242451   9.751  11.465   8.985
 5471ETHO   H2142452   9.641  11.481   8.995
 5471ETHO   H2342453   9.776  11.362   9.018
 5472ETHO    O142454   9.786  11.470   8.846
 5472ETHO    C142455   9.713  11.368   8.767
 5472ETHO   H1142456   9.602  11.371   8.764
 5472ETHO   H1342457   9.731  11.272   8.819
 5472ETHO    C242458   9.761  11.371   8.625
 5472ETHO   H2142459   9.749  11.268   8.586
 5472ETHO   H2342460   9.871  11.386   8.617
 5473ETHO    O142461   9.684  11.459   8.542
 5473ETHO    C142462   9.603  11.393   8.447
 5473ETHO   H1142463   9.662  11.325   8.382
 5473ETHO   H1342464   9.534  11.323   8.498
 5473ETHO    C242465   9.522  11.486   8.364
 5473ETHO   H2142466   9.456  11.544   8.432
 5473ETHO   H2342467   9.597  11.550   8.311
 5474ETHO    O142468   9.444  11.404   8.276
 5474ETHO    C142469   9.344  11.475   8.210
 5474ETHO   H1142470   9.262  11.496   8.282
 5474ETHO   H1342471   9.397  11.566   8.173
 5474ETHO    C242472   9.291  11.399   8.094
 5474ETHO   H2142473   9.193  11.443   8.064
 5474ETHO   H2342474   9.275  11.292   8.119
 5475ETHO    O142475   9.379  11.399   7.984
 5475ETHO    C142476   9.333  11.300   7.891
 5475ETHO   H1142477   9.375  11.209   7.939
 5475ETHO   H1342478   9.223  11.290   7.901
 5475ETHO    C242479   9.371  11.306   7.746
 5475ETHO   H2142480   9.476  11.339   7.736
 5475ETHO   H2342481   9.301  11.376   7.695
 5476ETHO    O142482   9.357  11.180   7.686
 5476ETHO    C142483   9.397  11.181   7.547
 5476ETHO   H1142484   9.344  11.266   7.500
 5476ETHO   H1342485   9.506  11.197   7.541
 5476ETHO    C242486   9.362  11.046   7.483
 5476ETHO   H2142487   9.421  10.968   7.536
 5476ETHO   H2342488   9.379  11.051   7.374
 5477ETHO    O142489   9.219  11.009   7.489
 5477ETHO    C142490   9.204  10.864   7.476
 5477ETHO   H1142491   9.204  10.826   7.580
 5477ETHO   H1342492   9.298  10.822   7.435
 5477ETHO    C242493   9.076  10.823   7.404
 5477ETHO   H2142494   9.000  10.872   7.468
 5477ETHO   H2342495   9.060  10.713   7.401
 5478ETHO    O142496   9.060  10.862   7.266
 5478ETHO    C142497   8.932  10.828   7.216
 5478ETHO   H1142498   8.848  10.860   7.282
 5478ETHO   H1342499   8.912  10.889   7.125
 5478ETHO    C242500   8.900  10.678   7.180
 5478ETHO   H2142501   8.987  10.620   7.142
 5478ETHO   H2342502   8.831  10.684   7.093
 5479ETHO    O142503   8.829  10.614   7.288
 5479ETHO    C142504   8.847  10.466   7.290
 5479ETHO   H1142505   8.950  10.453   7.331
 5479ETHO   H1342506   8.840  10.420   7.189
 5479ETHO    C242507   8.743  10.402   7.375
 5479ETHO   H2142508   8.664  10.345   7.321
 5479ETHO   H2342509   8.699  10.474   7.447
 5480ETHO    O142510   8.793  10.297   7.443
 5480ETHO    C142511   8.719  10.255   7.552
 5480ETHO   H1142512   8.713  10.340   7.624
 5480ETHO   H1342513   8.617  10.243   7.511
 5480ETHO    C242514   8.763  10.120   7.611
 5480ETHO   H2142515   8.716  10.114   7.712
 5480ETHO   H2342516   8.872  10.107   7.625
 5481ETHO    O142517   8.729  10.010   7.523
 5481ETHO    C142518   8.747   9.878   7.581
 5481ETHO   H1142519   8.703   9.811   7.504
 5481ETHO   H1342520   8.694   9.870   7.678
 5481ETHO    C242521   8.897   9.830   7.593
 5481ETHO   H2142522   8.949   9.872   7.681
 5481ETHO   H2342523   8.955   9.857   7.502
 5482ETHO    O142524   8.905   9.689   7.599
 5482ETHO    C142525   9.043   9.645   7.582
 5482ETHO   H1142526   9.087   9.674   7.484
 5482ETHO   H1342527   9.091   9.695   7.669
 5482ETHO    C242528   9.036   9.492   7.601
 5482ETHO   H2142529   9.127   9.437   7.570
 5482ETHO   H2342530   8.947   9.463   7.541
 5483ETHO    O142531   9.001   9.459   7.734
 5483ETHO    C142532   9.001   9.320   7.762
 5483ETHO   H1142533   8.972   9.312   7.869
 5483ETHO   H1342534   9.102   9.275   7.750
 5483ETHO    C242535   8.907   9.238   7.669
 5483ETHO   H2142536   8.935   9.236   7.561
 5483ETHO   H2342537   8.806   9.281   7.687
 5484ETHO    O142538   8.898   9.097   7.701
 5484ETHO    C142539   8.802   9.073   7.803
 5484ETHO   H1142540   8.819   9.146   7.886
 5484ETHO   H1342541   8.696   9.082   7.771
 5484ETHO    C242542   8.839   8.942   7.866
 5484ETHO   H2142543   8.789   8.934   7.965
 5484ETHO   H2342544   8.949   8.947   7.881
 5485ETHO    O142545   8.807   8.833   7.783
 5485ETHO    C142546   8.669   8.799   7.791
 5485ETHO   H1142547   8.598   8.885   7.789
 5485ETHO   H1342548   8.653   8.730   7.706
 5485ETHO    C242549   8.650   8.711   7.917
 5485ETHO   H2142550   8.743   8.656   7.945
 5485ETHO   H2342551   8.579   8.629   7.893
 5486ETHO    O142552   8.621   8.770   8.044
 5486ETHO    C142553   8.536   8.694   8.123
 5486ETHO   H1142554   8.457   8.657   8.054
 5486ETHO   H1342555   8.590   8.602   8.153
 5486ETHO    C242556   8.478   8.771   8.241
 5486ETHO   H2142557   8.376   8.736   8.269
 5486ETHO   H2342558   8.470   8.876   8.207
 5487ETHO    O142559   8.567   8.759   8.356
 5487ETHO    C142560   8.536   8.859   8.457
 5487ETHO   H1142561   8.554   8.962   8.421
 5487ETHO   H1342562   8.435   8.845   8.501
 5487ETHO    C242563   8.627   8.838   8.579
 5487ETHO   H2142564   8.618   8.920   8.653
 5487ETHO   H2342565   8.727   8.838   8.530
 5488ETHO    O142566   8.606   8.704   8.627
 5488ETHO    C142567   8.730   8.642   8.669
 5488ETHO   H1142568   8.790   8.705   8.738
 5488ETHO   H1342569   8.786   8.622   8.576
 5488ETHO    C242570   8.702   8.508   8.741
 5488ETHO   H2142571   8.642   8.438   8.679
 5488ETHO   H2342572   8.639   8.542   8.826
 5489ETHO    O142573   8.812   8.444   8.802
 5489ETHO    C142574   8.773   8.316   8.862
 5489ETHO   H1142575   8.682   8.333   8.923
 5489ETHO   H1342576   8.749   8.236   8.788
 5489ETHO    C242577   8.883   8.262   8.957
 5489ETHO   H2142578   8.977   8.232   8.905
 5489ETHO   H2342579   8.864   8.165   9.006
 5490ETHO    O142580   8.923   8.352   9.063
 5490ETHO    C142581   9.015   8.291   9.153
 5490ETHO   H1142582   9.086   8.231   9.092
 5490ETHO   H1342583   8.961   8.217   9.216
 5490ETHO    C242584   9.082   8.385   9.252
 5490ETHO   H2142585   9.115   8.472   9.192
 5490ETHO   H2342586   9.165   8.334   9.305
 5491ETHO    O142587   8.986   8.428   9.353
 5491ETHO    C142588   9.037   8.390   9.487
 5491ETHO   H1142589   9.071   8.284   9.493
 5491ETHO   H1342590   9.127   8.452   9.509
 5491ETHO    C242591   8.934   8.420   9.599
 5491ETHO   H2142592   8.903   8.527   9.596
 5491ETHO   H2342593   8.994   8.394   9.689
 5492ETHO    O142594   8.815   8.345   9.588
 5492ETHO    C142595   8.843   8.210   9.619
 5492ETHO   H1142596   8.912   8.209   9.706
 5492ETHO   H1342597   8.881   8.155   9.531
 5492ETHO    C242598   8.718   8.120   9.663
 5492ETHO   H2142599   8.653   8.172   9.737
 5492ETHO   H2342600   8.771   8.032   9.707
 5493ETHO    O142601   8.641   8.070   9.551
 5493ETHO    C142602   8.542   8.161   9.517
 5493ETHO   H1142603   8.483   8.191   9.606
 5493ETHO   H1342604   8.601   8.253   9.493
 5493ETHO    C242605   8.451   8.134   9.395
 5493ETHO   H2142606   8.505   8.079   9.315
 5493ETHO   H2342607   8.416   8.235   9.365
 5494ETHO    O142608   8.337   8.058   9.443
 5494ETHO    C142609   8.266   7.994   9.344
 5494ETHO   H1142610   8.182   7.940   9.395
 5494ETHO   H1342611   8.334   7.920   9.298
 5494ETHO    C242612   8.198   8.085   9.247
 5494ETHO   H2142613   8.147   8.034   9.163
 5494ETHO   H2342614   8.276   8.147   9.197
 5495ETHO    O142615   8.095   8.162   9.317
 5495ETHO    C142616   8.024   8.248   9.229
 5495ETHO   H1142617   8.014   8.214   9.124
 5495ETHO   H1342618   7.927   8.276   9.276
 5495ETHO    C242619   8.111   8.382   9.219
 5495ETHO   H2142620   8.051   8.450   9.154
 5495ETHO   H2342621   8.207   8.348   9.175
 5496ETHO    O142622   8.144   8.449   9.343
 5496ETHO    C142623   8.255   8.532   9.322
 5496ETHO   H1142624   8.352   8.480   9.311
 5496ETHO   H1342625   8.237   8.583   9.225
 5496ETHO    C242626   8.255   8.631   9.436
 5496ETHO   H2142627   8.157   8.678   9.460
 5496ETHO   H2342628   8.323   8.712   9.405
 5497ETHO    O142629   8.295   8.556   9.551
 5497ETHO    C142630   8.269   8.617   9.675
 5497ETHO   H1142631   8.292   8.725   9.690
 5497ETHO   H1342632   8.160   8.610   9.694
 5497ETHO    C242633   8.352   8.535   9.772
 5497ETHO   H2142634   8.336   8.429   9.742
 5497ETHO   H2342635   8.311   8.546   9.875
 5498ETHO    O142636   8.486   8.580   9.776
 5498ETHO    C142637   8.570   8.488   9.849
 5498ETHO   H1142638   8.524   8.472   9.949
 5498ETHO   H1342639   8.596   8.393   9.797
 5498ETHO    C242640   8.702   8.563   9.866
 5498ETHO   H2142641   8.676   8.664   9.906
 5498ETHO   H2342642   8.751   8.569   9.767
 5499ETHO    O142643   8.781   8.504   9.965
 5499ETHO    C142644   8.881   8.589  10.018
 5499ETHO   H1142645   8.826   8.664  10.077
 5499ETHO   H1342646   8.928   8.653   9.940
 5499ETHO    C242647   8.988   8.521  10.106
 5499ETHO   H2142648   8.957   8.486  10.207
 5499ETHO   H2342649   9.043   8.610  10.145
 5500ETHO    O142650   9.078   8.428  10.047
 5500ETHO    C142651   9.017   8.306  10.002
 5500ETHO   H1142652   8.906   8.313   9.991
 5500ETHO   H1342653   9.069   8.274   9.909
 5500ETHO    C242654   9.065   8.191  10.100
 5500ETHO   H2142655   9.169   8.211  10.134
 5500ETHO   H2342656   9.053   8.093  10.049
 5501ETHO    O142657   8.996   8.192  10.224
 5501ETHO    C142658   9.031   8.081  10.300
 5501ETHO   H1142659   9.139   8.056  10.293
 5501ETHO   H1342660   8.988   7.982  10.277
 5501ETHO    C242661   8.993   8.122  10.445
 5501ETHO   H2142662   8.986   8.018  10.485
 5501ETHO   H2342663   8.888   8.160  10.444
 5502ETHO    O142664   9.095   8.196  10.508
 5502ETHO    C142665   9.055   8.233  10.639
 5502ETHO   H1142666   8.955   8.281  10.631
 5502ETHO   H1342667   9.047   8.151  10.714
 5502ETHO    C242668   9.144   8.346  10.704
 5502ETHO   H2142669   9.099   8.394  10.794
 5502ETHO   H2342670   9.157   8.423  10.626
 5503ETHO    O142671   9.276   8.303  10.747
 5503ETHO    C142672   9.367   8.407  10.728
 5503ETHO   H1142673   9.360   8.448  10.625
 5503ETHO   H1342674   9.473   8.375  10.741
 5503ETHO    C242675   9.350   8.523  10.834
 5503ETHO   H2142676   9.340   8.475  10.934
 5503ETHO   H2342677   9.256   8.578  10.811
 5504ETHO    O142678   9.448   8.625  10.822
 5504ETHO    C142679   9.421   8.719  10.925
 5504ETHO   H1142680   9.329   8.773  10.895
 5504ETHO   H1342681   9.404   8.665  11.021
 5504ETHO    C242682   9.539   8.815  10.923
 5504ETHO   H2142683   9.519   8.918  10.959
 5504ETHO   H2342684   9.571   8.834  10.819
 5505ETHO    O142685   9.642   8.752  10.992
 5505ETHO    C142686   9.772   8.805  10.957
 5505ETHO   H1142687   9.769   8.882  10.877
 5505ETHO   H1342688   9.839   8.720  10.931
 5505ETHO    C242689   9.844   8.901  11.057
 5505ETHO   H2142690   9.947   8.914  11.017
 5505ETHO   H2342691   9.852   8.842  11.151
 5506ETHO    O142692   9.791   9.029  11.075
 5506ETHO    C142693   9.863   9.100  11.178
 5506ETHO   H1142694   9.840   9.041  11.270
 5506ETHO   H1342695   9.968   9.087  11.144
 5506ETHO    C242696   9.820   9.253  11.183
 5506ETHO   H2142697   9.892   9.301  11.253
 5506ETHO   H2342698   9.832   9.310  11.088
 5507ETHO    O142699   9.684   9.260  11.231
 5507ETHO    C142700   9.639   9.401  11.225
 5507ETHO   H1142701   9.660   9.450  11.128
 5507ETHO   H1342702   9.692   9.455  11.307
 5507ETHO    C242703   9.495   9.423  11.259
 5507ETHO   H2142704   9.455   9.364  11.344
 5507ETHO   H2342705   9.429   9.410  11.171
 5508ETHO    O142706   9.478   9.561  11.296
 5508ETHO    C142707   9.341   9.586  11.330
 5508ETHO   H1142708   9.284   9.575  11.235
 5508ETHO   H1342709   9.301   9.507  11.397
 5508ETHO    C242710   9.307   9.731  11.377
 5508ETHO   H2142711   9.201   9.740  11.407
 5508ETHO   H2342712   9.324   9.801  11.292
 5509ETHO    O142713   9.382   9.762  11.496
 5509ETHO    C142714   9.517   9.815  11.475
 5509ETHO   H1142715   9.579   9.739  11.422
 5509ETHO   H1342716   9.557   9.832  11.577
 5509ETHO    C242717   9.512   9.962  11.423
 5509ETHO   H2142718   9.617   9.998  11.438
 5509ETHO   H2342719   9.441  10.023  11.482
 5510ETHO    O142720   9.483   9.973  11.283
 5510ETHO    C142721   9.501  10.107  11.242
 5510ETHO   H1142722   9.437  10.169  11.309
 5510ETHO   H1342723   9.608  10.138  11.242
 5510ETHO    C242724   9.460  10.129  11.092
 5510ETHO   H2142725   9.445  10.237  11.071
 5510ETHO   H2342726   9.366  10.076  11.065
 5511ETHO    O142727   9.549  10.079  10.993
 5511ETHO    C142728   9.502  10.084  10.861
 5511ETHO   H1142729   9.570  10.028  10.794
 5511ETHO   H1342730   9.398  10.045  10.854
 5511ETHO    C242731   9.504  10.218  10.794
 5511ETHO   H2142732   9.477  10.199  10.688
 5511ETHO   H2342733   9.603  10.267  10.780
 5512ETHO    O142734   9.416  10.320  10.844
 5512ETHO    C142735   9.446  10.445  10.776
 5512ETHO   H1142736   9.519  10.506  10.833
 5512ETHO   H1342737   9.501  10.424  10.682
 5512ETHO    C242738   9.324  10.538  10.747
 5512ETHO   H2142739   9.261  10.496  10.666
 5512ETHO   H2342740   9.359  10.629  10.693
 5513ETHO    O142741   9.246  10.553  10.865
 5513ETHO    C142742   9.154  10.667  10.859
 5513ETHO   H1142743   9.115  10.667  10.755
 5513ETHO   H1342744   9.071  10.652  10.931
 5513ETHO    C242745   9.208  10.807  10.886
 5513ETHO   H2142746   9.281  10.788  10.968
 5513ETHO   H2342747   9.129  10.882  10.910
 5514ETHO    O142748   9.284  10.854  10.776
 5514ETHO    C142749   9.368  10.954  10.812
 5514ETHO   H1142750   9.448  10.908  10.874
 5514ETHO   H1342751   9.318  11.039  10.864
 5514ETHO    C242752   9.441  11.003  10.687
 5514ETHO   H2142753   9.503  11.093  10.707
 5514ETHO   H2342754   9.367  11.029  10.608
 5515ETHO    O142755   9.523  10.907  10.629
 5515ETHO    C142756   9.535  10.918  10.484
 5515ETHO   H1142757   9.444  10.868  10.444
 5515ETHO   H1342758   9.520  11.026  10.467
 5515ETHO    C242759   9.665  10.876  10.412
 5515ETHO   H2142760   9.650  10.893  10.303
 5515ETHO   H2342761   9.668  10.765  10.409
 5516ETHO    O142762   9.776  10.930  10.481
 5516ETHO    C142763   9.892  10.899  10.408
 5516ETHO   H1142764   9.896  10.933  10.302
 5516ETHO   H1342765   9.887  10.788  10.408
 5516ETHO    C242766  10.016  10.959  10.474
 5516ETHO   H2142767  10.100  10.895  10.439
 5516ETHO   H2342768  10.012  10.934  10.582
 5517ETHO    O142769  10.034  11.092  10.455
 5517ETHO    C142770   9.938  11.174  10.530
 5517ETHO   H1142771   9.837  11.160  10.486
 5517ETHO   H1342772   9.918  11.131  10.630
 5517ETHO    C242773   9.974  11.320  10.525
 5517ETHO   H2142774  10.084  11.323  10.540
 5517ETHO   H2342775   9.910  11.370  10.601
 5518ETHO    O142776   9.943  11.396  10.406
 5518ETHO    C142777   9.973  11.536  10.419
 5518ETHO   H1142778  10.080  11.542  10.447
 5518ETHO   H1342779   9.914  11.584  10.500
 5518ETHO    C242780   9.956  11.613  10.284
 5518ETHO   H2142781  10.002  11.558  10.199
 5518ETHO   H2342782  10.011  11.710  10.287
 5519ETHO    O142783   9.820  11.653  10.258
 5519ETHO    C142784   9.803  11.702  10.126
 5519ETHO   H1142785   9.880  11.781  10.115
 5519ETHO   H1342786   9.843  11.623  10.058
 5519ETHO    C242787   9.660  11.749  10.095
 5519ETHO   H2142788   9.629  11.842  10.147
 5519ETHO   H2342789   9.582  11.676  10.125
 5520ETHO    O142790   9.633  11.767   9.958
 5520ETHO    C142791   9.611  11.647   9.885
 5520ETHO   H1142792   9.532  11.589   9.937
 5520ETHO   H1342793   9.713  11.603   9.880
 5520ETHO    C242794   9.564  11.657   9.739
 5520ETHO   H2142795   9.631  11.725   9.683
 5520ETHO   H2342796   9.461  11.701   9.741
 5521ETHO    O142797   9.547  11.525   9.681
 5521ETHO    C142798   9.472  11.522   9.558
 5521ETHO   H1142799   9.363  11.529   9.578
 5521ETHO   H1342800   9.507  11.604   9.493
 5521ETHO    C242801   9.501  11.397   9.476
 5521ETHO   H2142802   9.487  11.307   9.539
 5521ETHO   H2342803   9.609  11.410   9.450
 5522ETHO    O142804   9.415  11.401   9.361
 5522ETHO    C142805   9.452  11.299   9.265
 5522ETHO   H1142806   9.558  11.272   9.286
 5522ETHO   H1342807   9.397  11.202   9.270
 5522ETHO    C242808   9.411  11.344   9.121
 5522ETHO   H2142809   9.445  11.269   9.046
 5522ETHO   H2342810   9.450  11.444   9.094
 5523ETHO    O142811   9.274  11.342   9.108
 5523ETHO    C142812   9.232  11.425   9.000
 5523ETHO   H1142813   9.245  11.532   9.023
 5523ETHO   H1342814   9.292  11.400   8.909
 5523ETHO    C242815   9.085  11.400   8.969
 5523ETHO   H2142816   9.061  11.471   8.886
 5523ETHO   H2342817   9.031  11.437   9.058
 5524ETHO    O142818   9.054  11.262   8.939
 5524ETHO    C142819   8.928  11.250   8.873
 5524ETHO   H1142820   8.848  11.271   8.947
 5524ETHO   H1342821   8.927  11.323   8.790
 5524ETHO    C242822   8.902  11.111   8.814
 5524ETHO   H2142823   8.792  11.100   8.801
 5524ETHO   H2342824   8.932  11.031   8.885
 5525ETHO    O142825   8.947  11.076   8.684
 5525ETHO    C142826   8.876  11.148   8.581
 5525ETHO   H1142827   8.892  11.257   8.595
 5525ETHO   H1342828   8.769  11.128   8.607
 5525ETHO    C242829   8.905  11.097   8.445
 5525ETHO   H2142830   8.808  11.090   8.390
 5525ETHO   H2342831   8.930  10.990   8.459
 5526ETHO    O142832   9.000  11.178   8.371
 5526ETHO    C142833   9.035  11.120   8.243
 5526ETHO   H1142834   9.145  11.116   8.262
 5526ETHO   H1342835   8.999  11.016   8.232
 5526ETHO    C242836   8.990  11.201   8.134
 5526ETHO   H2142837   8.986  11.312   8.128
 5526ETHO   H2342838   8.882  11.182   8.116
 5527ETHO    O142839   9.065  11.164   8.013
 5527ETHO    C142840   8.998  11.066   7.937
 5527ETHO   H1142841   8.937  11.128   7.869
 5527ETHO   H1342842   8.942  10.996   8.003
 5527ETHO    C242843   9.079  10.981   7.838
 5527ETHO   H2142844   9.156  10.914   7.882
 5527ETHO   H2342845   9.146  11.056   7.791
 5528ETHO    O142846   9.017  10.919   7.734
 5528ETHO    C142847   8.962  10.795   7.777
 5528ETHO   H1142848   9.042  10.719   7.792
 5528ETHO   H1342849   8.895  10.813   7.863
 5528ETHO    C242850   8.855  10.747   7.680
 5528ETHO   H2142851   8.829  10.648   7.722
 5528ETHO   H2342852   8.895  10.733   7.577
 5529ETHO    O142853   8.730  10.818   7.670
 5529ETHO    C142854   8.630  10.740   7.602
 5529ETHO   H1142855   8.614  10.644   7.654
 5529ETHO   H1342856   8.662  10.723   7.497
 5529ETHO    C242857   8.499  10.820   7.607
 5529ETHO   H2142858   8.498  10.886   7.696
 5529ETHO   H2342859   8.417  10.746   7.617
 5530ETHO    O142860   8.473  10.895   7.489
 5530ETHO    C142861   8.367  10.982   7.493
 5530ETHO   H1142862   8.279  10.923   7.527
 5530ETHO   H1342863   8.390  11.062   7.567
 5530ETHO    C242864   8.343  11.059   7.371
 5530ETHO   H2142865   8.444  11.100   7.348
 5530ETHO   H2342866   8.274  11.146   7.369
 5531ETHO    O142867   8.297  10.965   7.281
 5531ETHO    C142868   8.274  11.013   7.154
 5531ETHO   H1142869   8.364  11.073   7.127
 5531ETHO   H1342870   8.184  11.077   7.143
 5531ETHO    C242871   8.253  10.892   7.058
 5531ETHO   H2142872   8.329  10.813   7.076
 5531ETHO   H2342873   8.273  10.923   6.954
 5532ETHO    O142874   8.124  10.845   7.066
 5532ETHO    C142875   8.106  10.751   6.961
 5532ETHO   H1142876   8.112  10.804   6.863
 5532ETHO   H1342877   8.186  10.675   6.950
 5532ETHO    C242878   7.969  10.672   6.981
 5532ETHO   H2142879   7.955  10.658   7.090
 5532ETHO   H2342880   7.978  10.566   6.949
 5533ETHO    O142881   7.854  10.743   6.923
 5533ETHO    C142882   7.791  10.664   6.816
 5533ETHO   H1142883   7.863  10.597   6.766
 5533ETHO   H1342884   7.715  10.596   6.860
 5533ETHO    C242885   7.712  10.753   6.718
 5533ETHO   H2142886   7.639  10.821   6.768
 5533ETHO   H2342887   7.657  10.676   6.660
 5534ETHO    O142888   7.802  10.825   6.645
 5534ETHO    C142889   7.737  10.916   6.556
 5534ETHO   H1142890   7.662  10.869   6.488
 5534ETHO   H1342891   7.677  10.990   6.613
 5534ETHO    C242892   7.844  10.993   6.473
 5534ETHO   H2142893   7.939  10.997   6.530
 5534ETHO   H2342894   7.810  11.098   6.460
 5535ETHO    O142895   7.851  10.918   6.347
 5535ETHO    C142896   7.959  10.964   6.267
 5535ETHO   H1142897   7.956  11.073   6.287
 5535ETHO   H1342898   8.055  10.923   6.303
 5535ETHO    C242899   7.943  10.930   6.115
 5535ETHO   H2142900   7.997  11.007   6.057
 5535ETHO   H2342901   7.835  10.942   6.090
 5536ETHO    O142902   7.992  10.799   6.090
 5536ETHO    C142903   7.950  10.761   5.959
 5536ETHO   H1142904   7.843  10.779   5.938
 5536ETHO   H1342905   7.966  10.653   5.943
 5536ETHO    C242906   8.039  10.812   5.843
 5536ETHO   H2142907   8.011  10.750   5.755
 5536ETHO   H2342908   8.146  10.800   5.870
 5537ETHO    O142909   8.009  10.940   5.799
 5537ETHO    C142910   8.094  10.981   5.697
 5537ETHO   H1142911   8.192  11.002   5.744
 5537ETHO   H1342912   8.112  10.901   5.622
 5537ETHO    C242913   8.035  11.103   5.627
 5537ETHO   H2142914   8.106  11.161   5.564
 5537ETHO   H2342915   7.988  11.175   5.697
 5538ETHO    O142916   7.938  11.056   5.530
 5538ETHO    C142917   7.859  11.163   5.481
 5538ETHO   H1142918   7.929  11.236   5.435
 5538ETHO   H1342919   7.807  11.222   5.560
 5538ETHO    C242920   7.750  11.112   5.380
 5538ETHO   H2142921   7.673  11.190   5.361
 5538ETHO   H2342922   7.690  11.025   5.415
 5539ETHO    O142923   7.812  11.076   5.258
 5539ETHO    C142924   7.722  11.089   5.145
 5539ETHO   H1142925   7.680  11.190   5.125
 5539ETHO   H1342926   7.784  11.065   5.056
 5539ETHO    C242927   7.608  10.988   5.133
 5539ETHO   H2142928   7.562  10.996   5.033
 5539ETHO   H2342929   7.649  10.886   5.148
 5540ETHO    O142930   7.500  10.996   5.216
 5540ETHO    C142931   7.403  10.896   5.176
 5540ETHO   H1142932   7.434  10.792   5.202
 5540ETHO   H1342933   7.381  10.897   5.068
 5540ETHO    C242934   7.264  10.916   5.232
 5540ETHO   H2142935   7.257  10.949   5.338
 5540ETHO   H2342936   7.215  10.817   5.225
 5541ETHO    O142937   7.180  11.008   5.154
 5541ETHO    C142938   7.050  11.026   5.205
 5541ETHO   H1142939   7.002  10.926   5.201
 5541ETHO   H1342940   7.077  11.056   5.308
 5541ETHO    C242941   6.961  11.135   5.140
 5541ETHO   H2142942   7.016  11.231   5.148
 5541ETHO   H2342943   6.871  11.137   5.204
 5542ETHO    O142944   6.925  11.101   5.002
 5542ETHO    C142945   6.823  11.187   4.961
 5542ETHO   H1142946   6.864  11.286   4.931
 5542ETHO   H1342947   6.752  11.200   5.046
 5542ETHO    C242948   6.746  11.145   4.837
 5542ETHO   H2142949   6.668  11.224   4.828
 5542ETHO   H2342950   6.703  11.047   4.867
 5543ETHO    O142951   6.839  11.130   4.728
 5543ETHO    C142952   6.773  11.073   4.614
 5543ETHO   H1142953   6.844  11.024   4.543
 5543ETHO   H1342954   6.691  11.004   4.643
 5543ETHO    C242955   6.699  11.187   4.536
 5543ETHO   H2142956   6.624  11.234   4.604
 5543ETHO   H2342957   6.650  11.141   4.448
 5544ETHO    O142958   6.784  11.285   4.486
 5544ETHO    C142959   6.714  11.399   4.434
 5544ETHO   H1142960   6.647  11.444   4.510
 5544ETHO   H1342961   6.645  11.369   4.351
 5544ETHO    C242962   6.817  11.499   4.367
 5544ETHO   H2142963   6.904  11.520   4.432
 5544ETHO   H2342964   6.770  11.600   4.366
 5545ETHO    O142965   6.845  11.449   4.238
 5545ETHO    C142966   6.851  11.559   4.148
 5545ETHO   H1142967   6.749  11.596   4.125
 5545ETHO   H1342968   6.917  11.639   4.187
 5545ETHO    C242969   6.922  11.514   4.016
 5545ETHO   H2142970   6.928  11.605   3.953
 5545ETHO   H2342971   6.858  11.441   3.961
 5546ETHO    O142972   7.058  11.460   4.024
 5546ETHO    C142973   7.107  11.433   3.893
 5546ETHO   H1142974   7.218  11.447   3.890
 5546ETHO   H1342975   7.063  11.499   3.815
 5546ETHO    C242976   7.073  11.294   3.845
 5546ETHO   H2142977   7.083  11.279   3.735
 5546ETHO   H2342978   6.965  11.275   3.860
 5547ETHO    O142979   7.148  11.197   3.908
 5547ETHO    C142980   7.245  11.130   3.829
 5547ETHO   H1142981   7.198  11.056   3.761
 5547ETHO   H1342982   7.293  11.209   3.767
 5547ETHO    C242983   7.343  11.058   3.929
 5547ETHO   H2142984   7.436  11.037   3.871
 5547ETHO   H2342985   7.375  11.119   4.015
 5548ETHO    O142986   7.288  10.938   3.972
 5548ETHO    C142987   7.390  10.854   4.029
 5548ETHO   H1142988   7.461  10.811   3.956
 5548ETHO   H1342989   7.444  10.907   4.111
 5548ETHO    C242990   7.325  10.740   4.097
 5548ETHO   H2142991   7.287  10.690   4.005
 5548ETHO   H2342992   7.235  10.770   4.154
 5549ETHO    O142993   7.417  10.653   4.163
 5549ETHO    C142994   7.363  10.611   4.291
 5549ETHO   H1142995   7.352  10.700   4.357
 5549ETHO   H1342996   7.260  10.569   4.285
 5549ETHO    C242997   7.473  10.523   4.358
 5549ETHO   H2142998   7.437  10.504   4.462
 5549ETHO   H2342999   7.575  10.566   4.371
 5550ETHO    O143000   7.472  10.392   4.298
 5550ETHO    C143001   7.580  10.310   4.332
 5550ETHO   H1143002   7.577  10.221   4.265
 5550ETHO   H1343003   7.677  10.358   4.309
 5550ETHO    C243004   7.577  10.266   4.486
 5550ETHO   H2143005   7.642  10.176   4.495
 5550ETHO   H2343006   7.471  10.241   4.507
 5551ETHO    O143007   7.622  10.361   4.572
 5551ETHO    C143008   7.605  10.324   4.707
 5551ETHO   H1143009   7.665  10.232   4.723
 5551ETHO   H1343010   7.503  10.288   4.731
 5551ETHO    C243011   7.639  10.434   4.810
 5551ETHO   H2143012   7.738  10.476   4.780
 5551ETHO   H2343013   7.659  10.392   4.911
 5552ETHO    O143014   7.541  10.537   4.831
 5552ETHO    C143015   7.550  10.642   4.734
 5552ETHO   H1143016   7.652  10.686   4.740
 5552ETHO   H1343017   7.546  10.594   4.634
 5552ETHO    C243018   7.442  10.752   4.742
 5552ETHO   H2143019   7.494  10.847   4.720
 5552ETHO   H2343020   7.391  10.773   4.839
 5553ETHO    O143021   7.340  10.728   4.646
 5553ETHO    C143022   7.246  10.837   4.626
 5553ETHO   H1143023   7.301  10.929   4.598
 5553ETHO   H1343024   7.205  10.857   4.728
 5553ETHO    C243025   7.139  10.811   4.521
 5553ETHO   H2143026   7.189  10.807   4.422
 5553ETHO   H2343027   7.074  10.900   4.509
 5554ETHO    O143028   7.069  10.692   4.551
 5554ETHO    C143029   6.974  10.717   4.653
 5554ETHO   H1143030   6.999  10.638   4.726
 5554ETHO   H1343031   6.972  10.822   4.691
 5554ETHO    C243032   6.834  10.689   4.588
 5554ETHO   H2143033   6.760  10.687   4.671
 5554ETHO   H2343034   6.842  10.584   4.551
 5555ETHO    O143035   6.804  10.786   4.489
 5555ETHO    C143036   6.672  10.765   4.442
 5555ETHO   H1143037   6.642  10.860   4.393
 5555ETHO   H1343038   6.605  10.738   4.527
 5555ETHO    C243039   6.661  10.662   4.327
 5555ETHO   H2143040   6.692  10.562   4.364
 5555ETHO   H2343041   6.738  10.680   4.249
 5556ETHO    O143042   6.538  10.662   4.267
 5556ETHO    C143043   6.522  10.556   4.171
 5556ETHO   H1143044   6.616  10.544   4.113
 5556ETHO   H1343045   6.489  10.457   4.210
 5556ETHO    C243046   6.419  10.592   4.070
 5556ETHO   H2143047   6.328  10.630   4.120
 5556ETHO   H2343048   6.391  10.511   3.999
 5557ETHO    O143049   6.466  10.698   3.981
 5557ETHO    C143050   6.369  10.728   3.878
 5557ETHO   H1143051   6.269  10.711   3.924
 5557ETHO   H1343052   6.366  10.658   3.792
 5557ETHO    C243053   6.382  10.872   3.833
 5557ETHO   H2143054   6.393  10.936   3.923
 5557ETHO   H2343055   6.291  10.906   3.778
 5558ETHO    O143056   6.496  10.888   3.746
 5558ETHO    C143057   6.508  11.023   3.695
 5558ETHO   H1143058   6.423  11.027   3.623
 5558ETHO   H1343059   6.487  11.100   3.773
 5558ETHO    C243060   6.638  11.040   3.621
 5558ETHO   H2143061   6.716  11.010   3.693
 5558ETHO   H2343062   6.657  11.149   3.610
 5559ETHO    O143063   6.657  10.961   3.497
 5559ETHO    C143064   6.566  11.003   3.391
 5559ETHO   H1143065   6.466  10.980   3.432
 5559ETHO   H1343066   6.573  11.112   3.374
 5559ETHO    C243067   6.597  10.928   3.261
 5559ETHO   H2143068   6.707  10.942   3.250
 5559ETHO   H2343069   6.542  10.959   3.170
 5560ETHO    O143070   6.583  10.783   3.275
 5560ETHO    C143071   6.644  10.718   3.167
 5560ETHO   H1143072   6.623  10.776   3.074
 5560ETHO   H1343073   6.755  10.723   3.176
 5560ETHO    C243074   6.602  10.568   3.158
 5560ETHO   H2143075   6.626  10.530   3.259
 5560ETHO   H2343076   6.669  10.525   3.081
 5561ETHO    O143077   6.469  10.562   3.115
 5561ETHO    C143078   6.403  10.450   3.166
 5561ETHO   H1143079   6.465  10.359   3.156
 5561ETHO   H1343080   6.394  10.451   3.277
 5561ETHO    C243081   6.258  10.428   3.107
 5561ETHO   H2143082   6.192  10.513   3.136
 5561ETHO   H2343083   6.228  10.327   3.142
 5562ETHO    O143084   6.271  10.427   2.963
 5562ETHO    C143085   6.141  10.435   2.895
 5562ETHO   H1143086   6.109  10.541   2.895
 5562ETHO   H1343087   6.060  10.385   2.951
 5562ETHO    C243088   6.138  10.386   2.743
 5562ETHO   H2143089   6.036  10.343   2.737
 5562ETHO   H2343090   6.216  10.308   2.733
 5563ETHO    O143091   6.144  10.493   2.653
 5563ETHO    C143092   6.272  10.552   2.646
 5563ETHO   H1143093   6.346  10.469   2.638
 5563ETHO   H1343094   6.280  10.612   2.739
 5563ETHO    C243095   6.283  10.628   2.511
 5563ETHO   H2143096   6.243  10.565   2.429
 5563ETHO   H2343097   6.391  10.649   2.499
 5564ETHO    O143098   6.213  10.750   2.522
 5564ETHO    C143099   6.174  10.793   2.398
 5564ETHO   H1143100   6.107  10.719   2.349
 5564ETHO   H1343101   6.271  10.798   2.345
 5564ETHO    C243102   6.124  10.931   2.388
 5564ETHO   H2143103   6.142  10.988   2.294
 5564ETHO   H2343104   6.183  10.993   2.458
 5565ETHO    O143105   5.986  10.936   2.421
 5565ETHO    C143106   5.936  11.073   2.435
 5565ETHO   H1143107   6.003  11.125   2.507
 5565ETHO   H1343108   5.939  11.118   2.334
 5565ETHO    C243109   5.790  11.071   2.477
 5565ETHO   H2143110   5.721  11.025   2.403
 5565ETHO   H2343111   5.762  11.177   2.495
 5565ETHO    OZ43112   5.764  10.993   2.595
 5565ETHO   HZ143113   5.787  10.905   2.566
 5566ETHO    O143114  21.170   9.157  13.687
 5566ETHO   HO143115  21.088   9.107  13.680
 5566ETHO    C143116  21.227   9.139  13.817
 5566ETHO   H1143117  21.328   9.184  13.826
 5566ETHO   H1343118  21.234   9.033  13.849
 5566ETHO    C243119  21.153   9.207  13.931
 5566ETHO   H2143120  21.142   9.315  13.908
 5566ETHO   H2343121  21.221   9.190  14.018
 5567ETHO    O143122  21.024   9.147  13.938
 5567ETHO    C143123  20.923   9.231  13.875
 5567ETHO   H1143124  20.928   9.341  13.891
 5567ETHO   H1343125  20.936   9.211  13.766
 5567ETHO    C243126  20.789   9.178  13.914
 5567ETHO   H2143127  20.713   9.254  13.885
 5567ETHO   H2343128  20.784   9.154  14.022
 5568ETHO    O143129  20.762   9.058  13.836
 5568ETHO    C143130  20.635   8.996  13.860
 5568ETHO   H1143131  20.550   9.055  13.820
 5568ETHO   H1343132  20.610   8.987  13.968
 5568ETHO    C243133  20.643   8.864  13.780
 5568ETHO   H2143134  20.697   8.879  13.684
 5568ETHO   H2343135  20.541   8.823  13.762
 5569ETHO    O143136  20.704   8.773  13.869
 5569ETHO    C143137  20.700   8.640  13.821
 5569ETHO   H1143138  20.595   8.609  13.803
 5569ETHO   H1343139  20.745   8.651  13.719
 5569ETHO    C243140  20.775   8.552  13.919
 5569ETHO   H2143141  20.877   8.597  13.918
 5569ETHO   H2343142  20.776   8.451  13.874
 5570ETHO    O143143  20.722   8.538  14.049
 5570ETHO    C143144  20.816   8.477  14.134
 5570ETHO   H1143145  20.851   8.377  14.102
 5570ETHO   H1343146  20.907   8.538  14.152
 5570ETHO    C243147  20.752   8.469  14.277
 5570ETHO   H2143148  20.830   8.432  14.348
 5570ETHO   H2343149  20.665   8.399  14.274
 5571ETHO    O143150  20.697   8.591  14.325
 5571ETHO    C143151  20.798   8.649  14.407
 5571ETHO   H1143152  20.831   8.592  14.496
 5571ETHO   H1343153  20.886   8.652  14.339
 5571ETHO    C243154  20.773   8.794  14.442
 5571ETHO   H2143155  20.754   8.794  14.551
 5571ETHO   H2343156  20.677   8.829  14.399
 5572ETHO    O143157  20.883   8.869  14.408
 5572ETHO    C143158  20.889   8.906  14.263
 5572ETHO   H1143159  20.833   8.830  14.204
 5572ETHO   H1343160  20.854   9.011  14.254
 5572ETHO    C243161  21.038   8.910  14.215
 5572ETHO   H2143162  21.080   8.976  14.294
 5572ETHO   H2343163  21.042   8.954  14.113
 5573ETHO    O143164  21.113   8.787  14.215
 5573ETHO    C143165  21.246   8.816  14.179
 5573ETHO   H1143166  21.244   8.866  14.080
 5573ETHO   H1343167  21.296   8.718  14.169
 5573ETHO    C243168  21.321   8.907  14.283
 5573ETHO   H2143169  21.428   8.877  14.277
 5573ETHO   H2343170  21.279   8.887  14.384
 5574ETHO    O143171  21.317   9.049  14.248
 5574ETHO    C143172  21.333   9.129  14.370
 5574ETHO   H1143173  21.258   9.092  14.443
 5574ETHO   H1343174  21.435   9.110  14.412
 5574ETHO    C243175  21.318   9.277  14.337
 5574ETHO   H2143176  21.344   9.300  14.232
 5574ETHO   H2343177  21.393   9.337  14.393
 5575ETHO    O143178  21.190   9.329  14.370
 5575ETHO    C143179  21.102   9.313  14.262
 5575ETHO   H1143180  21.113   9.212  14.217
 5575ETHO   H1343181  21.124   9.389  14.184
 5575ETHO    C243182  20.961   9.317  14.321
 5575ETHO   H2143183  20.959   9.391  14.404
 5575ETHO   H2343184  20.942   9.220  14.372
 5576ETHO    O143185  20.864   9.346  14.216
 5576ETHO    C143186  20.731   9.319  14.267
 5576ETHO   H1143187  20.711   9.210  14.259
 5576ETHO   H1343188  20.726   9.350  14.374
 5576ETHO    C243189  20.631   9.406  14.192
 5576ETHO   H2143190  20.639   9.370  14.087
 5576ETHO   H2343191  20.537   9.368  14.237
 5577ETHO    O143192  20.662   9.544  14.217
 5577ETHO    C143193  20.572   9.627  14.151
 5577ETHO   H1143194  20.550   9.583  14.051
 5577ETHO   H1343195  20.636   9.715  14.131
 5577ETHO    C243196  20.451   9.675  14.224
 5577ETHO   H2143197  20.422   9.767  14.168
 5577ETHO   H2343198  20.463   9.710  14.329
 5578ETHO    O143199  20.347   9.574  14.219
 5578ETHO    C143200  20.232   9.634  14.280
 5578ETHO   H1143201  20.258   9.656  14.386
 5578ETHO   H1343202  20.203   9.729  14.230
 5578ETHO    C243203  20.121   9.527  14.279
 5578ETHO   H2143204  20.090   9.521  14.172
 5578ETHO   H2343205  20.042   9.577  14.339
 5579ETHO    O143206  20.155   9.397  14.328
 5579ETHO    C143207  20.042   9.314  14.349
 5579ETHO   H1143208  19.969   9.324  14.265
 5579ETHO   H1343209  19.993   9.349  14.442
 5579ETHO    C243210  20.080   9.162  14.361
 5579ETHO   H2143211  19.992   9.103  14.396
 5579ETHO   H2343212  20.159   9.146  14.437
 5580ETHO    O143213  20.116   9.101  14.234
 5580ETHO    C143214  20.130   8.961  14.241
 5580ETHO   H1143215  20.236   8.930  14.233
 5580ETHO   H1343216  20.096   8.925  14.341
 5580ETHO    C243217  20.046   8.891  14.141
 5580ETHO   H2143218  20.031   8.783  14.160
 5580ETHO   H2343219  19.948   8.943  14.139
 5581ETHO    O143220  20.107   8.909  14.013
 5581ETHO    C143221  20.039   8.831  13.918
 5581ETHO   H1143222  20.066   8.726  13.942
 5581ETHO   H1343223  19.931   8.849  13.934
 5581ETHO    C243224  20.095   8.868  13.786
 5581ETHO   H2143225  20.056   8.970  13.765
 5581ETHO   H2343226  20.059   8.790  13.716
 5582ETHO    O143227  20.233   8.866  13.769
 5582ETHO    C143228  20.273   8.926  13.648
 5582ETHO   H1143229  20.217   9.021  13.633
 5582ETHO   H1343230  20.379   8.956  13.654
 5582ETHO    C243231  20.251   8.823  13.533
 5582ETHO   H2143232  20.272   8.868  13.433
 5582ETHO   H2343233  20.147   8.786  13.523
 5583ETHO    O143234  20.338   8.713  13.558
 5583ETHO    C143235  20.305   8.601  13.469
 5583ETHO   H1143236  20.211   8.549  13.497
 5583ETHO   H1343237  20.288   8.632  13.363
 5583ETHO    C243238  20.423   8.501  13.470
 5583ETHO   H2143239  20.391   8.397  13.447
 5583ETHO   H2343240  20.473   8.503  13.569
 5584ETHO    O143241  20.521   8.554  13.379
 5584ETHO    C143242  20.553   8.450  13.290
 5584ETHO   H1143243  20.463   8.417  13.234
 5584ETHO   H1343244  20.592   8.363  13.346
 5584ETHO    C243245  20.659   8.503  13.196
 5584ETHO   H2143246  20.728   8.419  13.175
 5584ETHO   H2343247  20.704   8.596  13.237
 5585ETHO    O143248  20.591   8.543  13.082
 5585ETHO    C143249  20.676   8.590  12.978
 5585ETHO   H1143250  20.725   8.685  13.011
 5585ETHO   H1343251  20.751   8.512  12.953
 5585ETHO    C243252  20.600   8.629  12.853
 5585ETHO   H2143253  20.676   8.654  12.776
 5585ETHO   H2343254  20.523   8.708  12.870
 5586ETHO    O143255  20.536   8.514  12.798
 5586ETHO    C143256  20.465   8.534  12.673
 5586ETHO   H1143257  20.544   8.548  12.596
 5586ETHO   H1343258  20.415   8.633  12.679
 5586ETHO    C243259  20.368   8.414  12.655
 5586ETHO   H2143260  20.432   8.324  12.668
 5586ETHO   H2343261  20.325   8.409  12.553
 5587ETHO    O143262  20.265   8.412  12.755
 5587ETHO    C143263  20.184   8.299  12.751
 5587ETHO   H1143264  20.141   8.275  12.652
 5587ETHO   H1343265  20.234   8.207  12.789
 5587ETHO    C243266  20.070   8.304  12.857
 5587ETHO   H2143267  20.019   8.206  12.868
 5587ETHO   H2343268  20.116   8.339  12.952
 5588ETHO    O143269  19.963   8.395  12.849
 5588ETHO    C143270  19.875   8.368  12.736
 5588ETHO   H1143271  19.832   8.266  12.732
 5588ETHO   H1343272  19.940   8.382  12.647
 5588ETHO    C243273  19.752   8.458  12.730
 5588ETHO   H2143274  19.710   8.447  12.627
 5588ETHO   H2343275  19.768   8.566  12.751
 5589ETHO    O143276  19.652   8.425  12.824
 5589ETHO    C143277  19.533   8.512  12.816
 5589ETHO   H1143278  19.466   8.482  12.900
 5589ETHO   H1343279  19.560   8.616  12.844
 5589ETHO    C243280  19.466   8.518  12.680
 5589ETHO   H2143281  19.362   8.556  12.674
 5589ETHO   H2343282  19.459   8.414  12.640
 5590ETHO    O143283  19.531   8.593  12.578
 5590ETHO    C143284  19.489   8.570  12.451
 5590ETHO   H1143285  19.379   8.583  12.444
 5590ETHO   H1343286  19.508   8.465  12.418
 5590ETHO    C243287  19.558   8.664  12.348
 5590ETHO   H2143288  19.545   8.771  12.373
 5590ETHO   H2343289  19.516   8.650  12.246
 5591ETHO    O143290  19.696   8.627  12.334
 5591ETHO    C143291  19.775   8.706  12.243
 5591ETHO   H1143292  19.733   8.678  12.143
 5591ETHO   H1343293  19.751   8.812  12.264
 5591ETHO    C243294  19.921   8.667  12.254
 5591ETHO   H2143295  19.975   8.714  12.169
 5591ETHO   H2343296  19.939   8.558  12.259
 5592ETHO    O143297  19.963   8.717  12.380
 5592ETHO    C143298  20.055   8.627  12.447
 5592ETHO   H1143299  20.143   8.595  12.387
 5592ETHO   H1343300  19.990   8.540  12.474
 5592ETHO    C243301  20.092   8.690  12.580
 5592ETHO   H2143302  20.113   8.619  12.663
 5592ETHO   H2343303  20.010   8.758  12.610
 5593ETHO    O143304  20.203   8.775  12.565
 5593ETHO    C143305  20.214   8.856  12.685
 5593ETHO   H1143306  20.142   8.940  12.669
 5593ETHO   H1343307  20.187   8.798  12.775
 5593ETHO    C243308  20.348   8.914  12.715
 5593ETHO   H2143309  20.431   8.840  12.708
 5593ETHO   H2343310  20.328   8.943  12.820
 5594ETHO    O143311  20.383   9.032  12.646
 5594ETHO    C143312  20.513   9.084  12.688
 5594ETHO   H1143313  20.585   9.022  12.630
 5594ETHO   H1343314  20.525   9.072  12.798
 5594ETHO    C243315  20.531   9.233  12.643
 5594ETHO   H2143316  20.624   9.262  12.698
 5594ETHO   H2343317  20.445   9.299  12.665
 5595ETHO    O143318  20.550   9.242  12.498
 5595ETHO    C143319  20.605   9.370  12.460
 5595ETHO   H1143320  20.545   9.455  12.501
 5595ETHO   H1343321  20.715   9.360  12.474
 5595ETHO    C243322  20.593   9.393  12.306
 5595ETHO   H2143323  20.614   9.499  12.278
 5595ETHO   H2343324  20.488   9.365  12.284
 5596ETHO    O143325  20.671   9.315  12.219
 5596ETHO    C143326  20.613   9.189  12.191
 5596ETHO   H1143327  20.583   9.151  12.291
 5596ETHO   H1343328  20.522   9.204  12.129
 5596ETHO    C243329  20.709   9.088  12.131
 5596ETHO   H2143330  20.771   9.123  12.045
 5596ETHO   H2343331  20.650   8.999  12.100
 5597ETHO    O143332  20.805   9.045  12.226
 5597ETHO    C143333  20.897   8.947  12.170
 5597ETHO   H1143334  20.942   8.881  12.246
 5597ETHO   H1343335  20.835   8.880  12.106
 5597ETHO    C243336  21.021   9.010  12.100
 5597ETHO   H2143337  20.990   9.084  12.024
 5597ETHO   H2343338  21.078   8.929  12.050
 5598ETHO    O143339  21.101   9.067  12.204
 5598ETHO    C143340  21.220   9.127  12.152
 5598ETHO   H1143341  21.300   9.057  12.121
 5598ETHO   H1343342  21.187   9.183  12.062
 5598ETHO    C243343  21.277   9.223  12.252
 5598ETHO   H2143344  21.207   9.303  12.283
 5598ETHO   H2343345  21.367   9.270  12.208
 5599ETHO    O143346  21.320   9.149  12.360
 5599ETHO    C143347  21.360   9.243  12.467
 5599ETHO   H1143348  21.264   9.263  12.519
 5599ETHO   H1343349  21.384   9.342  12.422
 5599ETHO    C243350  21.476   9.208  12.554
 5599ETHO   H2143351  21.466   9.101  12.579
 5599ETHO   H2343352  21.484   9.269  12.646
 5600ETHO    O143353  21.602   9.230  12.488
 5600ETHO    C143354  21.652   9.125  12.414
 5600ETHO   H1143355  21.705   9.051  12.478
 5600ETHO   H1343356  21.567   9.063  12.377
 5600ETHO    C243357  21.750   9.175  12.306
 5600ETHO   H2143358  21.822   9.095  12.280
 5600ETHO   H2343359  21.818   9.254  12.345
 5601ETHO    O143360  21.686   9.216  12.184
 5601ETHO    C143361  21.645   9.351  12.186
 5601ETHO   H1143362  21.736   9.411  12.205
 5601ETHO   H1343363  21.578   9.370  12.273
 5601ETHO    C243364  21.578   9.399  12.059
 5601ETHO   H2143365  21.517   9.490  12.081
 5601ETHO   H2343366  21.513   9.327  12.005
 5602ETHO    O143367  21.676   9.424  11.965
 5602ETHO    C143368  21.624   9.442  11.835
 5602ETHO   H1143369  21.579   9.344  11.809
 5602ETHO   H1343370  21.551   9.526  11.835
 5602ETHO    C243371  21.733   9.472  11.729
 5602ETHO   H2143372  21.706   9.440  11.626
 5602ETHO   H2343373  21.822   9.414  11.759
 5603ETHO    O143374  21.767   9.609  11.709
 5603ETHO    C143375  21.842   9.661  11.816
 5603ETHO   H1143376  21.921   9.717  11.762
 5603ETHO   H1343377  21.894   9.584  11.877
 5603ETHO    C243378  21.760   9.758  11.903
 5603ETHO   H2143379  21.670   9.704  11.938
 5603ETHO   H2343380  21.722   9.840  11.839
 5604ETHO    O143381  21.829   9.826  12.008
 5604ETHO    C143382  21.737   9.910  12.071
 5604ETHO   H1143383  21.708   9.989  11.997
 5604ETHO   H1343384  21.647   9.854  12.104
 5604ETHO    C243385  21.809   9.970  12.190
 5604ETHO   H2143386  21.777  10.074  12.211
 5604ETHO   H2343387  21.917   9.978  12.164
 5605ETHO    O143388  21.802   9.896  12.314
 5605ETHO    C143389  21.909   9.800  12.316
 5605ETHO   H1143390  22.005   9.856  12.311
 5605ETHO   H1343391  21.895   9.727  12.233
 5605ETHO    C243392  21.930   9.723  12.449
 5605ETHO   H2143393  22.014   9.650  12.440
 5605ETHO   H2343394  21.841   9.659  12.468
 5606ETHO    O143395  21.958   9.821  12.543
 5606ETHO    C143396  21.849   9.854  12.632
 5606ETHO   H1143397  21.765   9.883  12.565
 5606ETHO   H1343398  21.809   9.766  12.686
 5606ETHO    C243399  21.882   9.962  12.734
 5606ETHO   H2143400  21.795   9.965  12.803
 5606ETHO   H2343401  21.887  10.061  12.685
 5607ETHO    O143402  21.996   9.929  12.803
 5607ETHO    C143403  22.038  10.011  12.909
 5607ETHO   H1143404  22.065  10.109  12.865
 5607ETHO   H1343405  21.964  10.039  12.987
 5607ETHO    C243406  22.154   9.953  12.996
 5607ETHO   H2143407  22.185  10.024  13.075
 5607ETHO   H2343408  22.242   9.930  12.931
 5608ETHO    O143409  22.113   9.830  13.051
 5608ETHO    C143410  22.159   9.817  13.182
 5608ETHO   H1143411  22.268   9.839  13.186
 5608ETHO   H1343412  22.119   9.888  13.257
 5608ETHO    C243413  22.119   9.682  13.243
 5608ETHO   H2143414  22.178   9.664  13.336
 5608ETHO   H2343415  22.141   9.602  13.169
 5609ETHO    O143416  21.978   9.667  13.272
 5609ETHO    C143417  21.955   9.549  13.346
 5609ETHO   H1143418  22.015   9.465  13.304
 5609ETHO   H1343419  22.000   9.570  13.445
 5609ETHO    C243420  21.805   9.526  13.351
 5609ETHO   H2143421  21.771   9.432  13.399
 5609ETHO   H2343422  21.763   9.527  13.248
 5610ETHO    O143423  21.758   9.645  13.413
 5610ETHO    C143424  21.623   9.632  13.451
 5610ETHO   H1143425  21.586   9.725  13.500
 5610ETHO   H1343426  21.617   9.545  13.519
 5610ETHO    C243427  21.524   9.611  13.333
 5610ETHO   H2143428  21.557   9.682  13.254
 5610ETHO   H2343429  21.421   9.632  13.368
 5611ETHO    O143430  21.524   9.478  13.275
 5611ETHO    C143431  21.457   9.464  13.147
 5611ETHO   H1143432  21.349   9.489  13.146
 5611ETHO   H1343433  21.507   9.543  13.086
 5611ETHO    C243434  21.481   9.330  13.082
 5611ETHO   H2143435  21.591   9.314  13.088
 5611ETHO   H2343436  21.441   9.341  12.979
 5612ETHO    O143437  21.439   9.224  13.161
 5612ETHO    C143438  21.296   9.213  13.157
 5612ETHO   H1143439  21.245   9.301  13.203
 5612ETHO   H1343440  21.276   9.123  13.220
 5612ETHO    C243441  21.238   9.176  13.019
 5612ETHO   H2143442  21.158   9.099  13.024
 5612ETHO   H2343443  21.321   9.125  12.965
 5613ETHO    O143444  21.202   9.287  12.934
 5613ETHO    C143445  21.164   9.236  12.806
 5613ETHO   H1143446  21.256   9.197  12.757
 5613ETHO   H1343447  21.077   9.169  12.823
 5613ETHO    C243448  21.106   9.346  12.714
 5613ETHO   H2143449  21.176   9.429  12.691
 5613ETHO   H2343450  21.072   9.297  12.620
 5614ETHO    O143451  21.008   9.414  12.789
 5614ETHO    C143452  20.931   9.499  12.705
 5614ETHO   H1143453  20.891   9.452  12.612
 5614ETHO   H1343454  20.992   9.588  12.676
 5614ETHO    C243455  20.810   9.549  12.781
 5614ETHO   H2143456  20.851   9.609  12.865
 5614ETHO   H2343457  20.762   9.471  12.843
 5615ETHO    O143458  20.725   9.616  12.689
 5615ETHO    C143459  20.624   9.699  12.749
 5615ETHO   H1143460  20.540   9.638  12.789
 5615ETHO   H1343461  20.662   9.750  12.840
 5615ETHO    C243462  20.583   9.808  12.650
 5615ETHO   H2143463  20.518   9.889  12.691
 5615ETHO   H2343464  20.537   9.754  12.564
 5616ETHO    O143465  20.704   9.866  12.598
 5616ETHO    C143466  20.683   9.987  12.508
 5616ETHO   H1143467  20.775  10.046  12.490
 5616ETHO   H1343468  20.608  10.044  12.567
 5616ETHO    C243469  20.626   9.953  12.372
 5616ETHO   H2143470  20.596   9.846  12.378
 5616ETHO   H2343471  20.705   9.951  12.294
 5617ETHO    O143472  20.493  10.001  12.342
 5617ETHO    C143473  20.484  10.043  12.210
 5617ETHO   H1143474  20.380  10.082  12.201
 5617ETHO   H1343475  20.559  10.120  12.183
 5617ETHO    C243476  20.501   9.933  12.106
 5617ETHO   H2143477  20.600   9.883  12.112
 5617ETHO   H2343478  20.481   9.972  12.004
 5618ETHO    O143479  20.412   9.826  12.131
 5618ETHO    C143480  20.451   9.710  12.065
 5618ETHO   H1143481  20.494   9.738  11.967
 5618ETHO   H1343482  20.546   9.668  12.106
 5618ETHO    C243483  20.342   9.596  12.056
 5618ETHO   H2143484  20.386   9.511  12.000
 5618ETHO   H2343485  20.266   9.650  11.995
 5619ETHO    O143486  20.301   9.555  12.189
 5619ETHO    C143487  20.191   9.460  12.186
 5619ETHO   H1143488  20.096   9.516  12.194
 5619ETHO   H1343489  20.187   9.405  12.090
 5619ETHO    C243490  20.196   9.365  12.308
 5619ETHO   H2143491  20.297   9.319  12.303
 5619ETHO   H2343492  20.127   9.278  12.303
 5620ETHO    O143493  20.155   9.433  12.424
 5620ETHO    C143494  20.180   9.361  12.551
 5620ETHO   H1143495  20.135   9.259  12.545
 5620ETHO   H1343496  20.291   9.372  12.557
 5620ETHO    C243497  20.116   9.435  12.673
 5620ETHO   H2143498  20.011   9.462  12.650
 5620ETHO   H2343499  20.114   9.360  12.755
 5621ETHO    O143500  20.194   9.543  12.722
 5621ETHO    C143501  20.117   9.617  12.818
 5621ETHO   H1143502  20.057   9.553  12.886
 5621ETHO   H1343503  20.043   9.677  12.760
 5621ETHO    C243504  20.207   9.708  12.900
 5621ETHO   H2143505  20.137   9.753  12.974
 5621ETHO   H2343506  20.266   9.783  12.843
 5622ETHO    O143507  20.318   9.652  12.967
 5622ETHO    C143508  20.278   9.561  13.065
 5622ETHO   H1143509  20.203   9.608  13.132
 5622ETHO   H1343510  20.234   9.469  13.020
 5622ETHO    C243511  20.397   9.510  13.149
 5622ETHO   H2143512  20.465   9.480  13.067
 5622ETHO   H2343513  20.366   9.419  13.205
 5623ETHO    O143514  20.473   9.591  13.236
 5623ETHO    C143515  20.593   9.521  13.280
 5623ETHO   H1143516  20.665   9.500  13.198
 5623ETHO   H1343517  20.565   9.423  13.325
 5623ETHO    C243518  20.656   9.611  13.389
 5623ETHO   H2143519  20.728   9.551  13.449
 5623ETHO   H2343520  20.579   9.649  13.459
 5624ETHO    O143521  20.738   9.709  13.330
 5624ETHO    C143522  20.768   9.808  13.428
 5624ETHO   H1143523  20.677   9.857  13.469
 5624ETHO   H1343524  20.811   9.760  13.518
 5624ETHO    C243525  20.856   9.917  13.362
 5624ETHO   H2143526  20.877   9.990  13.443
 5624ETHO   H2343527  20.816   9.977  13.278
 5625ETHO    O143528  20.973   9.842  13.320
 5625ETHO    C143529  21.062   9.915  13.240
 5625ETHO   H1143530  21.120   9.975  13.313
 5625ETHO   H1343531  21.006   9.987  13.178
 5625ETHO    C243532  21.151   9.822  13.163
 5625ETHO   H2143533  21.204   9.750  13.228
 5625ETHO   H2343534  21.229   9.868  13.097
 5626ETHO    O143535  21.080   9.744  13.061
 5626ETHO    C143536  21.168   9.642  13.002
 5626ETHO   H1143537  21.189   9.572  13.085
 5626ETHO   H1343538  21.093   9.597  12.934
 5626ETHO    C243539  21.282   9.693  12.919
 5626ETHO   H2143540  21.253   9.778  12.852
 5626ETHO   H2343541  21.333   9.616  12.857
 5627ETHO    O143542  21.388   9.734  13.005
 5627ETHO    C143543  21.492   9.792  12.935
 5627ETHO   H1143544  21.463   9.889  12.889
 5627ETHO   H1343545  21.529   9.735  12.847
 5627ETHO    C243546  21.616   9.831  13.021
 5627ETHO   H2143547  21.706   9.850  12.958
 5627ETHO   H2343548  21.650   9.745  13.083
 5628ETHO    O143549  21.599   9.945  13.095
 5628ETHO    C143550  21.704   9.961  13.192
 5628ETHO   H1143551  21.714   9.862  13.240
 5628ETHO   H1343552  21.801   9.964  13.137
 5628ETHO    C243553  21.685  10.087  13.274
 5628ETHO   H2143554  21.763  10.104  13.351
 5628ETHO   H2343555  21.592  10.075  13.334
 5629ETHO    O143556  21.669  10.182  13.177
 5629ETHO    C143557  21.592  10.291  13.229
 5629ETHO   H1143558  21.663  10.373  13.251
 5629ETHO   H1343559  21.554  10.265  13.330
 5629ETHO    C243560  21.484  10.345  13.137
 5629ETHO   H2143561  21.428  10.424  13.192
 5629ETHO   H2343562  21.400  10.281  13.101
 5630ETHO    O143563  21.539  10.422  13.026
 5630ETHO    C143564  21.590  10.551  13.065
 5630ETHO   H1143565  21.526  10.589  13.148
 5630ETHO   H1343566  21.692  10.549  13.110
 5630ETHO    C243567  21.578  10.649  12.952
 5630ETHO   H2143568  21.621  10.611  12.857
 5630ETHO   H2343569  21.637  10.735  12.989
 5631ETHO    O143570  21.445  10.700  12.923
 5631ETHO    C143571  21.367  10.613  12.846
 5631ETHO   H1143572  21.328  10.533  12.913
 5631ETHO   H1343573  21.425  10.555  12.771
 5631ETHO    C243574  21.270  10.693  12.763
 5631ETHO   H2143575  21.223  10.624  12.690
 5631ETHO   H2343576  21.331  10.769  12.710
 5632ETHO    O143577  21.171  10.757  12.846
 5632ETHO    C143578  21.068  10.821  12.768
 5632ETHO   H1143579  21.120  10.900  12.710
 5632ETHO   H1343580  21.021  10.742  12.706
 5632ETHO    C243581  20.970  10.892  12.856
 5632ETHO   H2143582  20.891  10.943  12.796
 5632ETHO   H2343583  21.028  10.970  12.909
 5633ETHO    O143584  20.908  10.811  12.955
 5633ETHO    C143585  20.826  10.708  12.899
 5633ETHO   H1143586  20.770  10.738  12.809
 5633ETHO   H1343587  20.900  10.634  12.861
 5633ETHO    C243588  20.736  10.651  13.006
 5633ETHO   H2143589  20.642  10.711  13.010
 5633ETHO   H2343590  20.792  10.675  13.098
 5634ETHO    O143591  20.700  10.515  12.990
 5634ETHO    C143592  20.621  10.488  12.873
 5634ETHO   H1143593  20.515  10.508  12.899
 5634ETHO   H1343594  20.656  10.545  12.784
 5634ETHO    C243595  20.619  10.332  12.847
 5634ETHO   H2143596  20.723  10.294  12.833
 5634ETHO   H2343597  20.568  10.323  12.748
 5635ETHO    O143598  20.555  10.249  12.945
 5635ETHO    C143599  20.606  10.115  12.937
 5635ETHO   H1143600  20.530  10.050  12.986
 5635ETHO   H1343601  20.633  10.082  12.834
 5635ETHO    C243602  20.740  10.078  13.011
 5635ETHO   H2143603  20.744   9.968  12.995
 5635ETHO   H2343604  20.743  10.107  13.118
 5636ETHO    O143605  20.861  10.125  12.954
 5636ETHO    C143606  20.927  10.027  12.878
 5636ETHO   H1143607  20.878  10.013  12.779
 5636ETHO   H1343608  20.943   9.936  12.941
 5636ETHO    C243609  21.070  10.077  12.841
 5636ETHO   H2143610  21.136   9.990  12.819
 5636ETHO   H2343611  21.121  10.125  12.928
 5637ETHO    O143612  21.056  10.151  12.715
 5637ETHO    C143613  21.010  10.283  12.730
 5637ETHO   H1143614  20.914  10.296  12.786
 5637ETHO   H1343615  21.089  10.329  12.793
 5637ETHO    C243616  20.996  10.365  12.600
 5637ETHO   H2143617  20.941  10.461  12.614
 5637ETHO   H2343618  20.929  10.311  12.530
 5638ETHO    O143619  21.117  10.391  12.534
 5638ETHO    C143620  21.101  10.419  12.399
 5638ETHO   H1143621  21.011  10.477  12.367
 5638ETHO   H1343622  21.091  10.322  12.346
 5638ETHO    C243623  21.236  10.485  12.348
 5638ETHO   H2143624  21.313  10.419  12.393
 5638ETHO   H2343625  21.243  10.589  12.387
 5639ETHO    O143626  21.253  10.487  12.207
 5639ETHO    C143627  21.387  10.511  12.172
 5639ETHO   H1143628  21.433  10.589  12.235
 5639ETHO   H1343629  21.443  10.419  12.201
 5639ETHO    C243630  21.409  10.549  12.024
 5639ETHO   H2143631  21.341  10.491  11.957
 5639ETHO   H2343632  21.517  10.537  12.003
 5640ETHO    O143633  21.379  10.683  12.012
 5640ETHO    C143634  21.412  10.728  11.883
 5640ETHO   H1143635  21.359  10.657  11.816
 5640ETHO   H1343636  21.520  10.720  11.858
 5640ETHO    C243637  21.379  10.878  11.869
 5640ETHO   H2143638  21.286  10.891  11.930
 5640ETHO   H2343639  21.344  10.890  11.764
 5641ETHO    O143640  21.489  10.960  11.900
 5641ETHO    C143641  21.490  10.986  12.039
 5641ETHO   H1143642  21.405  11.056  12.055
 5641ETHO   H1343643  21.461  10.891  12.090
 5641ETHO    C243644  21.616  11.054  12.107
 5641ETHO   H2143645  21.581  11.088  12.207
 5641ETHO   H2343646  21.642  11.133  12.033
 5642ETHO    O143647  21.736  10.969  12.121
 5642ETHO    C143648  21.843  11.041  12.164
 5642ETHO   H1143649  21.859  11.136  12.108
 5642ETHO   H1343650  21.939  10.996  12.132
 5642ETHO    C243651  21.853  11.054  12.320
 5642ETHO   H2143652  21.958  11.061  12.356
 5642ETHO   H2343653  21.802  10.965  12.363
 5643ETHO    O143654  21.787  11.172  12.370
 5643ETHO    C143655  21.821  11.217  12.502
 5643ETHO   H1143656  21.792  11.132  12.568
 5643ETHO   H1343657  21.931  11.226  12.514
 5643ETHO    C243658  21.753  11.352  12.532
 5643ETHO   H2143659  21.654  11.346  12.482
 5643ETHO   H2343660  21.815  11.437  12.496
 5644ETHO    O143661  21.739  11.368  12.675
 5644ETHO    C143662  21.649  11.479  12.716
 5644ETHO   H1143663  21.689  11.542  12.798
 5644ETHO   H1343664  21.627  11.535  12.623
 5644ETHO    C243665  21.513  11.414  12.759
 5644ETHO   H2143666  21.453  11.482  12.823
 5644ETHO   H2343667  21.538  11.326  12.823
 5645ETHO    O143668  21.449  11.370  12.641
 5645ETHO    C143669  21.338  11.289  12.681
 5645ETHO   H1143670  21.324  11.286  12.791
 5645ETHO   H1343671  21.242  11.333  12.648
 5645ETHO    C243672  21.371  11.147  12.642
 5645ETHO   H2143673  21.300  11.085  12.701
 5645ETHO   H2343674  21.464  11.103  12.685
 5646ETHO    O143675  21.356  11.125  12.498
 5646ETHO    C143676  21.405  10.996  12.450
 5646ETHO   H1143677  21.507  11.008  12.410
 5646ETHO   H1343678  21.401  10.931  12.541
 5646ETHO    C243679  21.317  10.930  12.339
 5646ETHO   H2143680  21.296  10.998  12.253
 5646ETHO   H2343681  21.370  10.844  12.293
 5647ETHO    O143682  21.197  10.868  12.385
 5647ETHO    C143683  21.105  10.842  12.276
 5647ETHO   H1143684  21.138  10.771  12.198
 5647ETHO   H1343685  21.071  10.931  12.219
 5647ETHO    C243686  20.972  10.779  12.330
 5647ETHO   H2143687  20.980  10.679  12.378
 5647ETHO   H2343688  20.906  10.758  12.242
 5648ETHO    O143689  20.911  10.868  12.423
 5648ETHO    C143690  20.848  10.978  12.352
 5648ETHO   H1143691  20.915  11.054  12.306
 5648ETHO   H1343692  20.775  10.955  12.272
 5648ETHO    C243693  20.759  11.065  12.439
 5648ETHO   H2143694  20.715  11.144  12.376
 5648ETHO   H2343695  20.810  11.102  12.531
 5649ETHO    O143696  20.642  10.992  12.485
 5649ETHO    C143697  20.603  11.044  12.612
 5649ETHO   H1143698  20.596  11.155  12.607
 5649ETHO   H1343699  20.678  11.023  12.691
 5649ETHO    C243700  20.469  10.985  12.668
 5649ETHO   H2143701  20.380  10.989  12.602
 5649ETHO   H2343702  20.441  11.038  12.762
 5650ETHO    O143703  20.497  10.848  12.688
 5650ETHO    C143704  20.379  10.774  12.737
 5650ETHO   H1143705  20.290  10.800  12.676
 5650ETHO   H1343706  20.397  10.672  12.696
 5650ETHO    C243707  20.349  10.762  12.887
 5650ETHO   H2143708  20.318  10.857  12.934
 5650ETHO   H2343709  20.439  10.724  12.939
 5651ETHO    O143710  20.242  10.670  12.908
 5651ETHO    C143711  20.208  10.649  13.046
 5651ETHO   H1143712  20.166  10.741  13.093
 5651ETHO   H1343713  20.299  10.626  13.105
 5651ETHO    C243714  20.108  10.530  13.063
 5651ETHO   H2143715  20.017  10.560  13.008
 5651ETHO   H2343716  20.080  10.534  13.170
 5652ETHO    O143717  20.156  10.398  13.024
 5652ETHO    C143718  20.051  10.301  13.056
 5652ETHO   H1143719  20.014  10.307  13.161
 5652ETHO   H1343720  19.966  10.335  12.994
 5652ETHO    C243721  20.110  10.162  13.029
 5652ETHO   H2143722  20.213  10.163  13.069
 5652ETHO   H2343723  20.126  10.155  12.920
 5653ETHO    O143724  20.038  10.049  13.065
 5653ETHO    C143725  19.897  10.067  13.044
 5653ETHO   H1143726  19.870  10.107  12.943
 5653ETHO   H1343727  19.869  10.139  13.123
 5653ETHO    C243728  19.802   9.948  13.066
 5653ETHO   H2143729  19.706   9.985  13.109
 5653ETHO   H2343730  19.843   9.896  13.155
 5654ETHO    O143731  19.788   9.871  12.944
 5654ETHO    C143732  19.713   9.743  12.975
 5654ETHO   H1143733  19.766   9.682  13.051
 5654ETHO   H1343734  19.618   9.772  13.023
 5654ETHO    C243735  19.691   9.656  12.855
 5654ETHO   H2143736  19.659   9.553  12.881
 5654ETHO   H2343737  19.779   9.642  12.788
 5655ETHO    O143738  19.591   9.716  12.773
 5655ETHO    C143739  19.579   9.644  12.655
 5655ETHO   H1143740  19.676   9.654  12.600
 5655ETHO   H1343741  19.574   9.535  12.673
 5655ETHO    C243742  19.453   9.675  12.573
 5655ETHO   H2143743  19.466   9.598  12.494
 5655ETHO   H2343744  19.456   9.779  12.535
 5656ETHO    O143745  19.325   9.658  12.626
 5656ETHO    C143746  19.228   9.724  12.550
 5656ETHO   H1143747  19.245   9.834  12.550
 5656ETHO   H1343748  19.244   9.694  12.445
 5656ETHO    C243749  19.081   9.690  12.588
 5656ETHO   H2143750  19.082   9.715  12.696
 5656ETHO   H2343751  19.081   9.580  12.574
 5657ETHO    O143752  18.982   9.762  12.522
 5657ETHO    C143753  18.857   9.738  12.580
 5657ETHO   H1143754  18.856   9.628  12.570
 5657ETHO   H1343755  18.859   9.767  12.687
 5657ETHO    C243756  18.747   9.799  12.496
 5657ETHO   H2143757  18.647   9.758  12.522
 5657ETHO   H2343758  18.760   9.750  12.398
 5658ETHO    O143759  18.749   9.942  12.494
 5658ETHO    C143760  18.685  10.000  12.610
 5658ETHO   H1143761  18.765   9.984  12.685
 5658ETHO   H1343762  18.609   9.925  12.643
 5658ETHO    C243763  18.641  10.145  12.588
 5658ETHO   H2143764  18.556  10.145  12.517
 5658ETHO   H2343765  18.729  10.202  12.550
 5659ETHO    O143766  18.590  10.215  12.700
 5659ETHO    C143767  18.569  10.356  12.672
 5659ETHO   H1143768  18.585  10.415  12.765
 5659ETHO   H1343769  18.652  10.388  12.606
 5659ETHO    C243770  18.438  10.375  12.607
 5659ETHO   H2143771  18.419  10.335  12.505
 5659ETHO   H2343772  18.412  10.482  12.591
 5660ETHO    O143773  18.327  10.337  12.688
 5660ETHO    C143774  18.204  10.341  12.613
 5660ETHO   H1143775  18.182  10.249  12.554
 5660ETHO   H1343776  18.202  10.419  12.534
 5660ETHO    C243777  18.093  10.364  12.718
 5660ETHO   H2143778  18.062  10.469  12.738
 5660ETHO   H2343779  18.129  10.310  12.809
 5661ETHO    O143780  17.986  10.300  12.655
 5661ETHO    C143781  17.888  10.288  12.758
 5661ETHO   H1143782  17.938  10.218  12.829
 5661ETHO   H1343783  17.871  10.389  12.800
 5661ETHO    C243784  17.755  10.224  12.703
 5661ETHO   H2143785  17.712  10.159  12.783
 5661ETHO   H2343786  17.774  10.159  12.615
 5662ETHO    O143787  17.648  10.315  12.667
 5662ETHO    C143788  17.562  10.335  12.783
 5662ETHO   H1143789  17.620  10.318  12.877
 5662ETHO   H1343790  17.479  10.262  12.796
 5662ETHO    C243791  17.496  10.475  12.781
 5662ETHO   H2143792  17.570  10.551  12.747
 5662ETHO   H2343793  17.457  10.501  12.882
 5663ETHO    O143794  17.386  10.481  12.689
 5663ETHO    C143795  17.338  10.613  12.668
 5663ETHO   H1143796  17.337  10.664  12.767
 5663ETHO   H1343797  17.403  10.673  12.602
 5663ETHO    C243798  17.201  10.600  12.611
 5663ETHO   H2143799  17.198  10.501  12.561
 5663ETHO   H2343800  17.188  10.679  12.535
 5664ETHO    O143801  17.097  10.623  12.709
 5664ETHO    C143802  16.975  10.605  12.641
 5664ETHO   H1143803  16.971  10.502  12.601
 5664ETHO   H1343804  16.975  10.687  12.566
 5664ETHO    C243805  16.853  10.602  12.735
 5664ETHO   H2143806  16.860  10.513  12.802
 5664ETHO   H2343807  16.760  10.587  12.677
 5665ETHO    O143808  16.832  10.724  12.813
 5665ETHO    C143809  16.708  10.708  12.891
 5665ETHO   H1143810  16.622  10.680  12.827
 5665ETHO   H1343811  16.728  10.626  12.963
 5665ETHO    C243812  16.666  10.829  12.969
 5665ETHO   H2143813  16.753  10.848  13.035
 5665ETHO   H2343814  16.579  10.823  13.039
 5666PROX    O143815  16.641  10.948  12.899
 5666PROX    C143816  16.539  10.932  12.801
 5666PROX   H1143817  16.578  10.872  12.715
 5666PROX   H1343818  16.446  10.893  12.847
 5666PROX    C243819  16.511  11.079  12.754
 5666PROX   H2143820  16.607  11.134  12.747
 5666PROX    C343821  16.430  11.149  12.863
 5666PROX   H3143822  16.487  11.147  12.958
 5666PROX   H3243823  16.411  11.255  12.834
 5666PROX   H3343824  16.333  11.098  12.880
 5667PROX    O143825  16.450  11.071  12.633
 5667PROX    C143826  16.456  11.192  12.561
 5667PROX   H1143827  16.410  11.270  12.625
 5667PROX   H1343828  16.556  11.234  12.536
 5667PROX    C243829  16.371  11.183  12.429
 5667PROX   H2143830  16.278  11.133  12.465
 5667PROX    C343831  16.419  11.098  12.311
 5667PROX   H3143832  16.521  11.131  12.282
 5667PROX   H3243833  16.425  10.993  12.347
 5667PROX   H3343834  16.352  11.096  12.222
 5668PROX    O143835  16.340  11.314  12.389
 5668PROX    C143836  16.207  11.329  12.328
 5668PROX   H1143837  16.209  11.377  12.228
 5668PROX   H1343838  16.164  11.228  12.311
 5668PROX    C243839  16.109  11.387  12.433
 5668PROX   H2143840  16.014  11.376  12.377
 5668PROX    C343841  16.121  11.536  12.478
 5668PROX   H3143842  16.196  11.538  12.560
 5668PROX   H3243843  16.167  11.608  12.406
 5668PROX   H3343844  16.020  11.563  12.517
 5669PROX    O143845  16.115  11.309  12.549
 5669PROX    C143846  15.993  11.292  12.627
 5669PROX   H1143847  15.923  11.373  12.598
 5669PROX   H1343848  15.937  11.202  12.596
 5669PROX    C243849  16.020  11.291  12.777
 5669PROX   H2143850  16.112  11.231  12.795
 5669PROX    C343851  15.904  11.224  12.853
 5669PROX   H3143852  15.927  11.192  12.957
 5669PROX   H3243853  15.818  11.295  12.852
 5669PROX   H3343854  15.869  11.142  12.786
 5670PROX    O143855  16.038  11.429  12.813
 5670PROX    C143856  16.090  11.442  12.945
 5670PROX   H1143857  16.006  11.447  13.018
 5670PROX   H1343858  16.147  11.350  12.970
 5670PROX    C243859  16.189  11.559  12.954
 5670PROX   H2143860  16.127  11.652  12.957
 5670PROX    C343861  16.300  11.564  12.852
 5670PROX   H3143862  16.347  11.464  12.840
 5670PROX   H3243863  16.263  11.584  12.750
 5670PROX   H3343864  16.372  11.648  12.860
 5671PROX    O143865  16.251  11.557  13.080
 5671PROX    C143866  16.182  11.641  13.187
 5671PROX   H1143867  16.077  11.668  13.161
 5671PROX   H1343868  16.186  11.578  13.278
 5671PROX    C243869  16.261  11.771  13.203
 5671PROX   H2143870  16.349  11.780  13.136
 5671PROX    C343871  16.314  11.786  13.350
 5671PROX   H3143872  16.242  11.819  13.428
 5671PROX   H3243873  16.351  11.689  13.390
 5671PROX   H3343874  16.391  11.865  13.352
 5672PROX    O143875  16.172  11.882  13.191
 5672PROX    C143876  16.227  11.998  13.138
 5672PROX   H1143877  16.172  12.083  13.183
 5672PROX   H1343878  16.334  12.006  13.167
 5672PROX    C243879  16.222  12.007  12.981
 5672PROX   H2143880  16.285  11.921  12.948
 5672PROX    C343881  16.278  12.137  12.934
 5672PROX   H3143882  16.286  12.148  12.824
 5672PROX   H3243883  16.210  12.220  12.962
 5672PROX   H3343884  16.378  12.165  12.975
 5673PROX    O143885  16.083  11.978  12.944
 5673PROX    C143886  16.065  11.943  12.807
 5673PROX   H1143887  16.116  12.025  12.751
 5673PROX   H1343888  16.112  11.845  12.785
 5673PROX    C243889  15.920  11.950  12.762
 5673PROX   H2143890  15.895  12.049  12.805
 5673PROX    C343891  15.818  11.851  12.824
 5673PROX   H3143892  15.836  11.835  12.932
 5673PROX   H3243893  15.716  11.883  12.793
 5673PROX   H3343894  15.847  11.752  12.784
 5674PROX    O143895  15.907  11.972  12.622
 5674PROX    C143896  15.786  12.050  12.589
 5674PROX   H1143897  15.695  11.999  12.629
 5674PROX   H1343898  15.790  12.148  12.639
 5674PROX    C243899  15.769  12.063  12.438
 5674PROX   H2143900  15.667  12.095  12.410
 5674PROX    C343901  15.793  11.923  12.376
 5674PROX   H3143902  15.708  11.859  12.406
 5674PROX   H3243903  15.788  11.913  12.265
 5674PROX   H3343904  15.896  11.885  12.394
 5675PROX    O143905  15.863  12.161  12.401
 5675PROX    C143906  15.856  12.195  12.259
 5675PROX   H1143907  15.850  12.100  12.201
 5675PROX   H1343908  15.774  12.267  12.240
 5675PROX    C243909  15.982  12.267  12.216
 5675PROX   H2143910  16.067  12.196  12.220
 5675PROX    C343911  16.014  12.395  12.288
 5675PROX   H3143912  16.046  12.374  12.393
 5675PROX   H3243913  16.077  12.467  12.233
 5675PROX   H3343914  15.918  12.451  12.286
 5676PROX    O143915  15.965  12.309  12.085
 5676PROX    C143916  15.993  12.223  11.973
 5676PROX   H1143917  15.936  12.128  11.973
 5676PROX   H1343918  15.955  12.281  11.886
 5676PROX    C243919  16.148  12.219  11.948
 5676PROX   H2143920  16.207  12.228  12.042
 5676PROX    C343921  16.200  12.319  11.853
 5676PROX   H3143922  16.188  12.426  11.883
 5676PROX   H3243923  16.309  12.299  11.841
 5676PROX   H3343924  16.154  12.307  11.753
 5677PROX    O143925  16.180  12.100  11.878
 5677PROX    C143926  16.157  11.980  11.951
 5677PROX   H1143927  16.176  11.994  12.059
 5677PROX   H1343928  16.058  11.936  11.927
 5677PROX    C243929  16.272  11.878  11.921
 5677PROX   H2143930  16.363  11.921  11.968
 5677PROX    C343931  16.293  11.853  11.772
 5677PROX   H3143932  16.339  11.939  11.718
 5677PROX   H3243933  16.353  11.764  11.744
 5677PROX   H3343934  16.192  11.842  11.726
 5678PROX    O143935  16.242  11.750  11.978
 5678PROX    C143936  16.357  11.668  12.016
 5678PROX   H1143937  16.318  11.565  12.027
 5678PROX   H1343938  16.432  11.665  11.934
 5678PROX    C243939  16.428  11.710  12.142
 5678PROX   H2143940  16.470  11.812  12.130
 5678PROX    C343941  16.549  11.625  12.178
 5678PROX   H3143942  16.604  11.660  12.268
 5678PROX   H3243943  16.516  11.520  12.196
 5678PROX   H3343944  16.615  11.626  12.089
 5679PROX    O143945  16.342  11.710  12.262
 5679PROX    C143946  16.269  11.827  12.288
 5679PROX   H1143947  16.253  11.891  12.199
 5679PROX   H1343948  16.165  11.799  12.317
 5679PROX    C243949  16.339  11.901  12.413
 5679PROX   H2143950  16.446  11.920  12.390
 5679PROX    C343951  16.334  11.821  12.542
 5679PROX   H3143952  16.387  11.725  12.522
 5679PROX   H3243953  16.378  11.883  12.622
 5679PROX   H3343954  16.232  11.800  12.580
 5680PROX    O143955  16.282  12.032  12.424
 5680PROX    C143956  16.364  12.127  12.484
 5680PROX   H1143957  16.300  12.174  12.561
 5680PROX   H1343958  16.462  12.093  12.525
 5680PROX    C243959  16.403  12.228  12.380
 5680PROX   H2143960  16.312  12.288  12.357
 5680PROX    C343961  16.432  12.164  12.242
 5680PROX   H3143962  16.340  12.110  12.211
 5680PROX   H3243963  16.445  12.241  12.164
 5680PROX   H3343964  16.518  12.094  12.243
 5681PROX    O143965  16.513  12.308  12.417
 5681PROX    C143966  16.487  12.394  12.529
 5681PROX   H1143967  16.441  12.333  12.610
 5681PROX   H1343968  16.580  12.448  12.558
 5681PROX    C243969  16.395  12.512  12.487
 5681PROX   H2143970  16.292  12.472  12.478
 5681PROX    C343971  16.440  12.588  12.366
 5681PROX   H3143972  16.439  12.519  12.279
 5681PROX   H3243973  16.378  12.680  12.352
 5681PROX   H3343974  16.546  12.613  12.389
 5682PROX    O143975  16.402  12.606  12.592
 5682PROX    C143976  16.317  12.584  12.705
 5682PROX   H1143977  16.307  12.477  12.733
 5682PROX   H1343978  16.353  12.651  12.785
 5682PROX    C243979  16.168  12.628  12.676
 5682PROX   H2143980  16.117  12.574  12.594
 5682PROX    C343981  16.166  12.776  12.629
 5682PROX   H3143982  16.066  12.824  12.617
 5682PROX   H3243983  16.219  12.838  12.705
 5682PROX   H3343984  16.212  12.790  12.529
 5683PROX    O143985  16.091  12.610  12.800
 5683PROX    C143986  16.059  12.471  12.821
 5683PROX   H1143987  15.998  12.426  12.739
 5683PROX   H1343988  16.149  12.407  12.835
 5683PROX    C243989  15.988  12.454  12.960
 5683PROX   H2143990  15.903  12.526  12.954
 5683PROX    C343991  16.080  12.510  13.066
 5683PROX   H3143992  16.123  12.610  13.046
 5683PROX   H3243993  16.024  12.525  13.161
 5683PROX   H3343994  16.164  12.438  13.078
 5684PROX    O143995  15.940  12.322  12.970
 5684PROX    C143996  15.886  12.285  13.099
 5684PROX   H1143997  15.973  12.275  13.167
 5684PROX   H1343998  15.812  12.363  13.130
 5684PROX    C243999  15.810  12.156  13.100
 5684PROX   H2144000  15.873  12.065  13.085
 5684PROX    C344001  15.697  12.169  13.000
 5684PROX   H3144002  15.729  12.227  12.911
 5684PROX   H3244003  15.646  12.081  12.955
 5684PROX   H3344004  15.622  12.229  13.056
 5685PROX    O144005  15.760  12.137  13.224
 5685PROX    C144006  15.860  12.088  13.316
 5685PROX   H1144007  15.964  12.090  13.278
 5685PROX   H1344008  15.865  12.142  13.413
 5685PROX    C244009  15.821  11.943  13.363
 5685PROX   H2144010  15.901  11.920  13.437
 5685PROX    C344011  15.835  11.836  13.249
 5685PROX   H3144012  15.738  11.846  13.196
 5685PROX   H3244013  15.921  11.874  13.189
 5685PROX   H3344014  15.854  11.735  13.290
 5686PROX    O144015  15.691  11.950  13.427
 5686PROX    C144016  15.646  11.826  13.484
 5686PROX   H1144017  15.610  11.748  13.414
 5686PROX   H1344018  15.728  11.784  13.547
 5686PROX    C244019  15.533  11.847  13.598
 5686PROX   H2144020  15.553  11.945  13.648
 5686PROX    C344021  15.528  11.738  13.706
 5686PROX   H3144022  15.618  11.738  13.771
 5686PROX   H3244023  15.435  11.759  13.763
 5686PROX   H3344024  15.522  11.635  13.666
 5687PROX    O144025  15.406  11.854  13.537
 5687PROX    C144026  15.386  11.965  13.447
 5687PROX   H1144027  15.413  12.066  13.484
 5687PROX   H1344028  15.454  11.942  13.362
 5687PROX    C244029  15.238  11.974  13.402
 5687PROX   H2144030  15.175  11.977  13.493
 5687PROX    C344031  15.204  11.857  13.306
 5687PROX   H3144032  15.204  11.759  13.357
 5687PROX   H3244033  15.101  11.873  13.267
 5687PROX   H3344034  15.281  11.843  13.227
 5688PROX    O144035  15.228  12.094  13.331
 5688PROX    C144036  15.309  12.111  13.216
 5688PROX   H1144037  15.418  12.110  13.240
 5688PROX   H1344038  15.289  12.032  13.140
 5688PROX    C244039  15.279  12.259  13.167
 5688PROX   H2144040  15.300  12.322  13.255
 5688PROX    C344041  15.140  12.276  13.114
 5688PROX   H3144042  15.123  12.216  13.022
 5688PROX   H3244043  15.058  12.250  13.185
 5688PROX   H3344044  15.120  12.381  13.085
 5689PROX    O144045  15.363  12.283  13.061
 5689PROX    C144046  15.402  12.421  13.055
 5689PROX   H1144047  15.314  12.490  13.058
 5689PROX   H1344048  15.463  12.430  13.147
 5689PROX    C244049  15.492  12.452  12.932
 5689PROX   H2144050  15.522  12.357  12.883
 5689PROX    C344051  15.602  12.553  12.986
 5689PROX   H3144052  15.682  12.500  13.042
 5689PROX   H3244053  15.659  12.604  12.905
 5689PROX   H3344054  15.565  12.639  13.046
 5690PROX    O144055  15.409  12.526  12.849
 5690PROX    C144056  15.325  12.443  12.765
 5690PROX   H1144057  15.392  12.397  12.689
 5690PROX   H1344058  15.289  12.355  12.822
 5690PROX    C244059  15.209  12.520  12.707
 5690PROX   H2144060  15.245  12.592  12.631
 5690PROX    C344061  15.135  12.603  12.804
 5690PROX   H3144062  15.088  12.545  12.887
 5690PROX   H3244063  15.197  12.677  12.859
 5690PROX   H3344064  15.048  12.651  12.754
 5691PROX    O144065  15.115  12.430  12.647
 5691PROX    C144066  15.062  12.327  12.732
 5691PROX   H1144067  15.121  12.236  12.709
 5691PROX   H1344068  15.071  12.341  12.842
 5691PROX    C244069  14.911  12.300  12.707
 5691PROX   H2144070  14.894  12.283  12.598
 5691PROX    C344071  14.824  12.424  12.742
 5691PROX   H3144072  14.719  12.387  12.740
 5691PROX   H3244073  14.832  12.460  12.847
 5691PROX   H3344074  14.837  12.508  12.671
 5692PROX    O144075  14.867  12.185  12.774
 5692PROX    C144076  14.899  12.066  12.707
 5692PROX   H1144077  14.846  12.065  12.609
 5692PROX   H1344078  15.009  12.058  12.692
 5692PROX    C244079  14.858  11.945  12.788
 5692PROX   H2144080  14.761  11.973  12.833
 5692PROX    C344081  14.975  11.911  12.888
 5692PROX   H3144082  15.012  12.006  12.932
 5692PROX   H3244083  14.941  11.835  12.961
 5692PROX   H3344084  15.061  11.868  12.832
 5693PROX    O144085  14.833  11.832  12.695
 5693PROX    C144086  14.734  11.745  12.748
 5693PROX   H1144087  14.663  11.804  12.809
 5693PROX   H1344088  14.683  11.712  12.654
 5693PROX    C244089  14.789  11.616  12.824
 5693PROX   H2144090  14.817  11.655  12.924
 5693PROX    C344091  14.917  11.562  12.761
 5693PROX   H3144092  14.987  11.646  12.747
 5693PROX   H3244093  14.964  11.497  12.837
 5693PROX   H3344094  14.913  11.502  12.667
 5694PROX    O144095  14.684  11.509  12.841
 5694PROX    C144096  14.655  11.444  12.716
 5694PROX   H1144097  14.706  11.483  12.626
 5694PROX   H1344098  14.683  11.337  12.722
 5694PROX    C244099  14.502  11.466  12.704
 5694PROX   H2144100  14.452  11.412  12.787
 5694PROX    C344101  14.463  11.386  12.574
 5694PROX   H3144102  14.458  11.278  12.599
 5694PROX   H3244103  14.360  11.414  12.544
 5694PROX   H3344104  14.535  11.408  12.492
 5695PROX    O144105  14.476  11.603  12.712
 5695PROX    C144106  14.336  11.636  12.747
 5695PROX   H1144107  14.268  11.585  12.675
 5695PROX   H1344108  14.315  11.601  12.850
 5695PROX    C244109  14.303  11.789  12.751
 5695PROX   H2144110  14.393  11.836  12.798
 5695PROX    C344111  14.174  11.816  12.837
 5695PROX   H3144112  14.181  11.766  12.936
 5695PROX   H3244113  14.155  11.924  12.850
 5695PROX   H3344114  14.090  11.776  12.776
 5696PROX    O144115  14.288  11.843  12.623
 5696PROX    C144116  14.320  11.981  12.619
 5696PROX   H1144117  14.249  12.039  12.555
 5696PROX   H1344118  14.292  12.026  12.717
 5696PROX    C244119  14.477  12.023  12.614
 5696PROX   H2144120  14.552  11.962  12.667
 5696PROX    C344121  14.488  12.171  12.661
 5696PROX   H3144122  14.590  12.203  12.691
 5696PROX   H3244123  14.443  12.241  12.588
 5696PROX   H3344124  14.430  12.185  12.755
 5697PROX    O144125  14.519  12.011  12.475
 5697PROX    C144126  14.511  11.873  12.435
 5697PROX   H1144127  14.511  11.806  12.524
 5697PROX   H1344128  14.421  11.852  12.373
 5697PROX    C244129  14.642  11.826  12.366
 5697PROX   H2144130  14.720  11.857  12.438
 5697PROX    C344131  14.659  11.897  12.228
 5697PROX   H3144132  14.579  11.876  12.154
 5697PROX   H3244133  14.665  12.006  12.246
 5697PROX   H3344134  14.761  11.880  12.186
 5698PROX    O144135  14.643  11.683  12.341
 5698PROX    C144136  14.775  11.635  12.337
 5698PROX   H1144137  14.845  11.695  12.275
 5698PROX   H1344138  14.817  11.638  12.440
 5698PROX    C244139  14.769  11.491  12.287
 5698PROX   H2144140  14.669  11.452  12.316
 5698PROX    C344141  14.887  11.401  12.345
 5698PROX   H3144142  14.859  11.301  12.306
 5698PROX   H3244143  14.984  11.438  12.305
 5698PROX   H3344144  14.883  11.385  12.455
 5699PROX    O144145  14.780  11.481  12.144
 5699PROX    C144146  14.654  11.513  12.085
 5699PROX   H1144147  14.583  11.428  12.094
 5699PROX   H1344148  14.622  11.612  12.124
 5699PROX    C244149  14.667  11.530  11.929
 5699PROX   H2144150  14.561  11.526  11.895
 5699PROX    C344151  14.760  11.430  11.862
 5699PROX   H3144152  14.840  11.396  11.931
 5699PROX   H3244153  14.697  11.343  11.833
 5699PROX   H3344154  14.800  11.465  11.764
 5700PROX    O144155  14.695  11.668  11.905
 5700PROX    C144156  14.834  11.703  11.937
 5700PROX   H1144157  14.842  11.749  12.038
 5700PROX   H1344158  14.907  11.620  11.943
 5700PROX    C244159  14.878  11.820  11.841
 5700PROX   H2144160  14.821  11.911  11.869
 5700PROX    C344161  14.842  11.792  11.696
 5700PROX   H3144162  14.918  11.720  11.659
 5700PROX   H3244163  14.740  11.748  11.690
 5700PROX   H3344164  14.852  11.874  11.622
 5701PROX    O144165  15.020  11.850  11.854
 5701PROX    C144166  15.042  11.985  11.823
 5701PROX   H1144167  14.993  12.014  11.727
 5701PROX   H1344168  14.984  12.043  11.897
 5701PROX    C244169  15.192  12.018  11.851
 5701PROX   H2144170  15.226  11.950  11.932
 5701PROX    C344171  15.207  12.167  11.904
 5701PROX   H3144172  15.177  12.245  11.831
 5701PROX   H3244173  15.164  12.180  12.006
 5701PROX   H3344174  15.314  12.189  11.923
 5702PROX    O144175  15.275  12.020  11.736
 5702PROX    C144176  15.329  11.896  11.701
 5702PROX   H1144177  15.388  11.861  11.788
 5702PROX   H1344178  15.246  11.829  11.668
 5702PROX    C244179  15.434  11.902  11.595
 5702PROX   H2144180  15.400  11.944  11.498
 5702PROX    C344181  15.480  11.762  11.555
 5702PROX   H3144182  15.511  11.698  11.641
 5702PROX   H3244183  15.405  11.709  11.493
 5702PROX   H3344184  15.562  11.789  11.485
 5703PROX    O144185  15.555  11.965  11.649
 5703PROX    C144186  15.538  12.096  11.696
 5703PROX   H1144187  15.467  12.157  11.637
 5703PROX   H1344188  15.515  12.091  11.805
 5703PROX    C244189  15.674  12.165  11.680
 5703PROX   H2144190  15.689  12.195  11.574
 5703PROX    C344191  15.796  12.075  11.720
 5703PROX   H3144192  15.802  12.052  11.828
 5703PROX   H3244193  15.814  11.982  11.662
 5703PROX   H3344194  15.885  12.139  11.700
 5704PROX    O144195  15.684  12.273  11.772
 5704PROX    C144196  15.652  12.399  11.704
 5704PROX   H1144197  15.747  12.451  11.680
 5704PROX   H1344198  15.593  12.373  11.613
 5704PROX    C244199  15.553  12.485  11.782
 5704PROX   H2144200  15.451  12.441  11.785
 5704PROX    C344201  15.525  12.616  11.705
 5704PROX   H3144202  15.473  12.690  11.770
 5704PROX   H3244203  15.617  12.668  11.669
 5704PROX   H3344204  15.457  12.594  11.620
 5705PROX    O144205  15.606  12.527  11.911
 5705PROX    C144206  15.590  12.419  12.008
 5705PROX   H1144207  15.521  12.341  11.970
 5705PROX   H1344208  15.687  12.368  12.028
 5705PROX    C244209  15.533  12.467  12.142
 5705PROX   H2144210  15.438  12.518  12.116
 5705PROX    C344211  15.625  12.561  12.219
 5705PROX   H3144212  15.554  12.605  12.293
 5705PROX   H3244213  15.713  12.522  12.274
 5705PROX   H3344214  15.660  12.641  12.150
 5706PROX    O144215  15.512  12.361  12.235
 5706PROX    C144216  15.403  12.277  12.210
 5706PROX   H1144217  15.321  12.305  12.279
 5706PROX   H1344218  15.358  12.289  12.109
 5706PROX    C244219  15.437  12.125  12.234
 5706PROX   H2144220  15.468  12.106  12.339
 5706PROX    C344221  15.550  12.077  12.137
 5706PROX   H3144222  15.649  12.122  12.157
 5706PROX   H3244223  15.565  11.969  12.159
 5706PROX   H3344224  15.525  12.100  12.031
 5707PROX    O144225  15.325  12.042  12.216
 5707PROX    C144226  15.232  12.042  12.323
 5707PROX   H1144227  15.296  12.013  12.409
 5707PROX   H1344228  15.188  12.141  12.349
 5707PROX    C244229  15.118  11.939  12.288
 5707PROX   H2144230  15.072  11.970  12.192
 5707PROX    C344231  15.001  11.952  12.384
 5707PROX   H3144232  15.043  11.979  12.483
 5707PROX   H3244233  14.941  12.038  12.348
 5707PROX   H3344234  14.940  11.860  12.395
 5708PROX    O144235  15.176  11.808  12.294
 5708PROX    C144236  15.216  11.769  12.164
 5708PROX   H1144237  15.131  11.772  12.092
 5708PROX   H1344238  15.306  11.820  12.125
 5708PROX    C244239  15.255  11.626  12.164
 5708PROX   H2144240  15.177  11.568  12.218
 5708PROX    C344241  15.385  11.602  12.242
 5708PROX   H3144242  15.473  11.664  12.215
 5708PROX   H3244243  15.355  11.613  12.348
 5708PROX   H3344244  15.422  11.497  12.240
 5709PROX    O144245  15.271  11.577  12.026
 5709PROX    C144246  15.192  11.453  12.020
 5709PROX   H1144247  15.240  11.383  12.092
 5709PROX   H1344248  15.088  11.480  12.049
 5709PROX    C244249  15.204  11.409  11.878
 5709PROX   H2144250  15.309  11.404  11.843
 5709PROX    C344251  15.125  11.495  11.776
 5709PROX   H3144252  15.015  11.487  11.794
 5709PROX   H3244253  15.157  11.600  11.789
 5709PROX   H3344254  15.152  11.462  11.673
 5710PROX    O144255  15.140  11.278  11.860
 5710PROX    C144256  15.219  11.173  11.904
 5710PROX   H1144257  15.267  11.196  12.002
 5710PROX   H1344258  15.143  11.095  11.926
 5710PROX    C244259  15.299  11.120  11.799
 5710PROX   H2144260  15.361  11.201  11.755
 5710PROX    C344261  15.220  11.053  11.684
 5710PROX   H3144262  15.171  10.958  11.713
 5710PROX   H3244263  15.142  11.127  11.658
 5710PROX   H3344264  15.295  11.031  11.605
 5711PROX    O144265  15.387  11.018  11.844
 5711PROX    C144266  15.511  11.065  11.889
 5711PROX   H1144267  15.557  11.121  11.805
 5711PROX   H1344268  15.503  11.128  11.980
 5711PROX    C244269  15.605  10.952  11.936
 5711PROX   H2144270  15.704  11.000  11.947
 5711PROX    C344271  15.610  10.846  11.828
 5711PROX   H3144272  15.667  10.896  11.746
 5711PROX   H3244273  15.673  10.763  11.867
 5711PROX   H3344274  15.512  10.821  11.782
 5712PROX    O144275  15.560  10.898  12.060
 5712PROX    C144276  15.632  10.793  12.129
 5712PROX   H1144277  15.670  10.715  12.059
 5712PROX   H1344278  15.725  10.831  12.177
 5712PROX    C244279  15.549  10.712  12.233
 5712PROX   H2144280  15.520  10.789  12.308
 5712PROX    C344281  15.632  10.601  12.301
 5712PROX   H3144282  15.575  10.544  12.377
 5712PROX   H3244283  15.671  10.530  12.226
 5712PROX   H3344284  15.720  10.652  12.345
 5713PROX    O144285  15.425  10.653  12.178
 5713PROX    C144286  15.332  10.744  12.122
 5713PROX   H1144287  15.340  10.845  12.167
 5713PROX   H1344288  15.364  10.746  12.016
 5713PROX    C244289  15.191  10.686  12.138
 5713PROX   H2144290  15.165  10.698  12.245
 5713PROX    C344291  15.161  10.545  12.096
 5713PROX   H3144292  15.223  10.476  12.158
 5713PROX   H3244293  15.053  10.525  12.114
 5713PROX   H3344294  15.184  10.534  11.988
 5714PROX    O144295  15.094  10.759  12.056
 5714PROX    C144296  15.077  10.901  12.089
 5714PROX   H1144297  15.177  10.948  12.101
 5714PROX   H1344298  15.027  10.937  11.997
 5714PROX    C244299  14.987  10.920  12.215
 5714PROX   H2144300  14.911  10.840  12.216
 5714PROX    C344301  14.908  11.049  12.202
 5714PROX   H3144302  14.978  11.134  12.211
 5714PROX   H3244303  14.861  11.059  12.101
 5714PROX   H3344304  14.823  11.067  12.271
 5715PROX    O144305  15.068  10.921  12.327
 5715PROX    C144306  15.003  10.922  12.455
 5715PROX   H1144307  14.936  11.010  12.461
 5715PROX   H1344308  14.940  10.833  12.478
 5715PROX    C244309  15.102  10.953  12.567
 5715PROX   H2144310  15.142  11.055  12.545
 5715PROX    C344311  15.217  10.853  12.573
 5715PROX   H3144312  15.310  10.890  12.621
 5715PROX   H3244313  15.182  10.756  12.614
 5715PROX   H3344314  15.250  10.833  12.469
 5716PROX    O144315  15.020  10.968  12.688
 5716PROX    C144316  15.092  10.990  12.809
 5716PROX   H1144317  15.120  10.888  12.842
 5716PROX   H1344318  15.187  11.041  12.780
 5716PROX    C244319  15.008  11.070  12.903
 5716PROX   H2144320  14.924  11.002  12.932
 5716PROX    C344321  14.948  11.199  12.845
 5716PROX   H3144322  14.881  11.255  12.914
 5716PROX   H3244323  15.031  11.266  12.814
 5716PROX   H3344324  14.887  11.177  12.755
 5717PROX    O144325  15.077  11.079  13.022
 5717PROX    C144326  15.200  11.156  13.016
 5717PROX   H1144327  15.273  11.087  12.969
 5717PROX   H1344328  15.185  11.248  12.955
 5717PROX    C244329  15.236  11.189  13.166
 5717PROX   H2144330  15.232  11.091  13.219
 5717PROX    C344331  15.143  11.300  13.224
 5717PROX   H3144332  15.156  11.394  13.165
 5717PROX   H3244333  15.040  11.266  13.201
 5717PROX   H3344334  15.155  11.313  13.334
 5718PROX    O144335  15.371  11.227  13.171
 5718PROX    C144336  15.464  11.126  13.210
 5718PROX   H1144337  15.456  11.112  13.320
 5718PROX   H1344338  15.448  11.028  13.159
 5718PROX    C244339  15.613  11.166  13.165
 5718PROX   H2144340  15.607  11.205  13.061
 5718PROX    C344341  15.712  11.047  13.159
 5718PROX   H3144342  15.816  11.083  13.146
 5718PROX   H3244343  15.718  10.988  13.253
 5718PROX   H3344344  15.691  10.977  13.076
 5719PROX    O144345  15.677  11.267  13.243
 5719PROX    C144346  15.599  11.391  13.234
 5719PROX   H1144347  15.495  11.372  13.269
 5719PROX   H1344348  15.643  11.452  13.317
 5719PROX    C244349  15.597  11.463  13.100
 5719PROX   H2144350  15.558  11.412  13.009
 5719PROX    C344351  15.739  11.528  13.057
 5719PROX   H3144352  15.784  11.567  13.151
 5719PROX   H3244353  15.815  11.464  13.006
 5719PROX   H3344354  15.735  11.619  12.994
 5720PROX    O144355  15.523  11.590  13.112
 5720PROX    C144356  15.381  11.570  13.110
 5720PROX   H1144357  15.350  11.466  13.130
 5720PROX   H1344358  15.324  11.632  13.182
 5720PROX    C244359  15.333  11.593  12.961
 5720PROX   H2144360  15.408  11.665  12.923
 5720PROX    C344361  15.200  11.656  12.966
 5720PROX   H3144362  15.174  11.675  12.860
 5720PROX   H3244363  15.131  11.580  13.008
 5720PROX   H3344364  15.208  11.757  13.012
 5721PROX    O144365  15.340  11.469  12.890
 5721PROX    C144366  15.312  11.483  12.750
 5721PROX   H1144367  15.201  11.477  12.744
 5721PROX   H1344368  15.355  11.581  12.722
 5721PROX    C244369  15.379  11.374  12.655
 5721PROX   H2144370  15.333  11.277  12.680
 5721PROX    C344371  15.532  11.379  12.677
 5721PROX   H3144372  15.580  11.295  12.622
 5721PROX   H3244373  15.580  11.471  12.638
 5721PROX   H3344374  15.548  11.378  12.787
 5722PROX    O144375  15.355  11.409  12.520
 5722PROX    C144376  15.321  11.293  12.445
 5722PROX   H1144377  15.229  11.252  12.493
 5722PROX   H1344378  15.271  11.326  12.351
 5722PROX    C244379  15.436  11.190  12.420
 5722PROX   H2144380  15.531  11.243  12.399
 5722PROX    C344381  15.404  11.105  12.289
 5722PROX   H3144382  15.413  11.178  12.205
 5722PROX   H3244383  15.484  11.028  12.282
 5722PROX   H3344384  15.303  11.060  12.281
 5723PROX    O144385  15.444  11.106  12.531
 5723PROX    C144386  15.575  11.045  12.541
 5723PROX   H1144387  15.586  10.974  12.456
 5723PROX   H1344388  15.657  11.121  12.543
 5723PROX    C244389  15.587  10.962  12.672
 5723PROX   H2144390  15.528  10.868  12.669
 5723PROX    C344391  15.528  11.035  12.797
 5723PROX   H3144392  15.545  10.968  12.884
 5723PROX   H3244393  15.590  11.122  12.823
 5723PROX   H3344394  15.422  11.068  12.789
 5724PROX    O144395  15.727  10.928  12.695
 5724PROX    C144396  15.792  10.827  12.612
 5724PROX   H1144397  15.830  10.749  12.681
 5724PROX   H1344398  15.727  10.771  12.540
 5724PROX    C244399  15.914  10.884  12.530
 5724PROX   H2144400  15.962  10.801  12.473
 5724PROX    C344401  16.023  10.931  12.633
 5724PROX   H3144402  16.114  10.953  12.573
 5724PROX   H3244403  15.984  11.017  12.692
 5724PROX   H3344404  16.051  10.859  12.712
 5725PROX    O144405  15.868  10.984  12.436
 5725PROX    C144406  15.948  10.984  12.315
 5725PROX   H1144407  16.047  11.027  12.344
 5725PROX   H1344408  15.954  10.884  12.267
 5725PROX    C244409  15.889  11.080  12.207
 5725PROX   H2144410  15.794  11.034  12.171
 5725PROX    C344411  15.992  11.083  12.091
 5725PROX   H3144412  16.095  11.117  12.116
 5725PROX   H3244413  16.016  10.981  12.053
 5725PROX   H3344414  15.956  11.144  12.005
 5726PROX    O144415  15.869  11.214  12.255
 5726PROX    C144416  15.779  11.288  12.176
 5726PROX   H1144417  15.793  11.262  12.069
 5726PROX   H1344418  15.673  11.262  12.199
 5726PROX    C244419  15.809  11.433  12.193
 5726PROX   H2144420  15.919  11.452  12.189
 5726PROX    C344421  15.763  11.480  12.335
 5726PROX   H3144422  15.808  11.425  12.421
 5726PROX   H3244423  15.785  11.587  12.354
 5726PROX   H3344424  15.653  11.469  12.343
 5727PROX    O144425  15.752  11.503  12.078
 5727PROX    C144426  15.818  11.636  12.072
 5727PROX   H1144427  15.787  11.701  12.156
 5727PROX   H1344428  15.928  11.624  12.065
 5727PROX    C244429  15.785  11.706  11.941
 5727PROX   H2144430  15.854  11.793  11.937
 5727PROX    C344431  15.640  11.761  11.916
 5727PROX   H3144432  15.624  11.844  11.988
 5727PROX   H3244433  15.625  11.798  11.812
 5727PROX   H3344434  15.562  11.688  11.946
 5728PROX    O144435  15.812  11.612  11.837
 5728PROX    C144436  15.952  11.613  11.804
 5728PROX   H1144437  15.992  11.715  11.824
 5728PROX   H1344438  16.024  11.562  11.872
 5728PROX    C244439  15.992  11.593  11.654
 5728PROX   H2144440  16.103  11.582  11.654
 5728PROX    C344441  15.936  11.708  11.564
 5728PROX   H3144442  16.007  11.794  11.558
 5728PROX   H3244443  15.922  11.661  11.465
 5728PROX   H3344444  15.832  11.734  11.594
 5729PROX    O144445  15.934  11.484  11.600
 5729PROX    C144446  15.979  11.363  11.659
 5729PROX   H1144447  16.080  11.328  11.627
 5729PROX   H1344448  15.979  11.371  11.770
 5729PROX    C244449  15.882  11.249  11.629
 5729PROX   H2144450  15.863  11.238  11.521
 5729PROX    C344451  15.751  11.278  11.697
 5729PROX   H3144452  15.674  11.211  11.651
 5729PROX   H3244453  15.761  11.283  11.807
 5729PROX   H3344454  15.714  11.380  11.672
 5730PROX    O144455  15.922  11.127  11.688
 5730PROX    C144456  16.022  11.053  11.617
 5730PROX   H1144457  15.977  11.022  11.520
 5730PROX   H1344458  16.116  11.111  11.608
 5730PROX    C244459  16.067  10.913  11.681
 5730PROX   H2144460  16.127  10.875  11.596
 5730PROX    C344461  15.942  10.829  11.715
 5730PROX   H3144462  15.885  10.870  11.802
 5730PROX   H3244463  15.882  10.825  11.621
 5730PROX   H3344464  15.983  10.727  11.731
 5731ETHO    O144465  16.149  10.923  11.801
 5731ETHO    C144466  16.272  10.996  11.783
 5731ETHO   H1144467  16.238  11.102  11.793
 5731ETHO   H1344468  16.314  10.981  11.681
 5731ETHO    C244469  16.375  10.977  11.899
 5731ETHO   H2144470  16.334  10.989  12.002
 5731ETHO   H2344471  16.447  11.060  11.882
 5732ETHO    O144472  16.447  10.860  11.887
 5732ETHO    C144473  16.562  10.856  11.974
 5732ETHO   H1144474  16.636  10.935  11.947
 5732ETHO   H1344475  16.540  10.867  12.082
 5732ETHO    C244476  16.637  10.729  11.952
 5732ETHO   H2144477  16.574  10.638  11.960
 5732ETHO   H2344478  16.714  10.721  12.032
 5733ETHO    O144479  16.692  10.720  11.814
 5733ETHO    C144480  16.764  10.592  11.808
 5733ETHO   H1144481  16.705  10.498  11.818
 5733ETHO   H1344482  16.853  10.586  11.875
 5733ETHO    C244483  16.825  10.582  11.668
 5733ETHO   H2144484  16.907  10.656  11.655
 5733ETHO   H2344485  16.751  10.602  11.588
 5734ETHO    O144486  16.885  10.456  11.657
 5734ETHO    C144487  16.896  10.414  11.527
 5734ETHO   H1144488  16.797  10.391  11.483
 5734ETHO   H1344489  16.943  10.492  11.464
 5734ETHO    C244490  16.991  10.291  11.503
 5734ETHO   H2144491  16.957  10.235  11.413
 5734ETHO   H2344492  16.974  10.231  11.595
 5735ETHO    O144493  17.130  10.324  11.491
 5735ETHO    C144494  17.214  10.218  11.522
 5735ETHO   H1144495  17.300  10.231  11.452
 5735ETHO   H1344496  17.156  10.123  11.512
 5735ETHO    C244497  17.275  10.216  11.660
 5735ETHO   H2144498  17.341  10.127  11.665
 5735ETHO   H2344499  17.200  10.221  11.741
 5736ETHO    O144500  17.371  10.321  11.671
 5736ETHO    C144501  17.414  10.333  11.803
 5736ETHO   H1144502  17.435  10.442  11.812
 5736ETHO   H1344503  17.338  10.300  11.876
 5736ETHO    C244504  17.543  10.253  11.833
 5736ETHO   H2144505  17.528  10.146  11.806
 5736ETHO   H2344506  17.570  10.249  11.940
 5737ETHO    O144507  17.658  10.312  11.773
 5737ETHO    C144508  17.693  10.443  11.823
 5737ETHO   H1144509  17.653  10.444  11.926
 5737ETHO   H1344510  17.630  10.523  11.777
 5737ETHO    C244511  17.842  10.480  11.822
 5737ETHO   H2144512  17.850  10.591  11.820
 5737ETHO   H2344513  17.888  10.446  11.727
 5738ETHO    O144514  17.912  10.427  11.942
 5738ETHO    C144515  17.921  10.285  11.934
 5738ETHO   H1144516  17.819  10.241  11.934
 5738ETHO   H1344517  17.988  10.250  11.853
 5738ETHO    C244518  17.974  10.235  12.073
 5738ETHO   H2144519  17.946  10.315  12.145
 5738ETHO   H2344520  17.932  10.134  12.092
 5739ETHO    O144521  18.115  10.224  12.067
 5739ETHO    C144522  18.161  10.230  12.199
 5739ETHO   H1144523  18.143  10.326  12.251
 5739ETHO   H1344524  18.113  10.156  12.266
 5739ETHO    C244525  18.311  10.204  12.220
 5739ETHO   H2144526  18.333  10.248  12.320
 5739ETHO   H2344527  18.374  10.266  12.153
 5740ETHO    O144528  18.336  10.068  12.226
 5740ETHO    C144529  18.471  10.026  12.234
 5740ETHO   H1144530  18.534  10.106  12.191
 5740ETHO   H1344531  18.508  10.009  12.337
 5740ETHO    C244532  18.485   9.892  12.165
 5740ETHO   H2144533  18.447   9.911  12.062
 5740ETHO   H2344534  18.425   9.816  12.220
 5741ETHO    O144535  18.614   9.834  12.165
 5741ETHO    C144536  18.601   9.704  12.105
 5741ETHO   H1144537  18.558   9.632  12.178
 5741ETHO   H1344538  18.536   9.700  12.015
 5741ETHO    C244539  18.747   9.668  12.066
 5741ETHO   H2144540  18.760   9.559  12.052
 5741ETHO   H2344541  18.812   9.689  12.154
 5742ETHO    O144542  18.804   9.740  11.951
 5742ETHO    C144543  18.948   9.715  11.941
 5742ETHO   H1144544  18.959   9.605  11.944
 5742ETHO   H1344545  18.992   9.768  12.028
 5742ETHO    C244546  19.001   9.759  11.804
 5742ETHO   H2144547  19.112   9.767  11.806
 5742ETHO   H2344548  18.946   9.855  11.796
 5743ETHO    O144549  18.958   9.663  11.707
 5743ETHO    C144550  18.998   9.700  11.570
 5743ETHO   H1144551  18.938   9.646  11.494
 5743ETHO   H1344552  18.962   9.804  11.559
 5743ETHO    C244553  19.157   9.686  11.540
 5743ETHO   H2144554  19.185   9.579  11.537
 5743ETHO   H2344555  19.230   9.734  11.609
 5744ETHO    O144556  19.205   9.728  11.410
 5744ETHO    C144557  19.212   9.873  11.397
 5744ETHO   H1144558  19.241   9.917  11.495
 5744ETHO   H1344559  19.108   9.911  11.382
 5744ETHO    C244560  19.321   9.912  11.300
 5744ETHO   H2144561  19.301  10.020  11.289
 5744ETHO   H2344562  19.309   9.879  11.195
 5745ETHO    O144563  19.456   9.900  11.345
 5745ETHO    C144564  19.497   9.758  11.358
 5745ETHO   H1144565  19.456   9.716  11.452
 5745ETHO   H1344566  19.460   9.698  11.273
 5745ETHO    C244567  19.649   9.755  11.361
 5745ETHO   H2144568  19.689   9.812  11.274
 5745ETHO   H2344569  19.687   9.651  11.357
 5746ETHO    O144570  19.701   9.823  11.473
 5746ETHO    C144571  19.843   9.833  11.466
 5746ETHO   H1144572  19.868   9.906  11.386
 5746ETHO   H1344573  19.892   9.738  11.436
 5746ETHO    C244574  19.896   9.874  11.617
 5746ETHO   H2144575  19.849   9.798  11.683
 5746ETHO   H2344576  19.864   9.980  11.628
 5747ETHO    O144577  20.036   9.881  11.634
 5747ETHO    C144578  20.079   9.869  11.771
 5747ETHO   H1144579  20.050   9.952  11.839
 5747ETHO   H1344580  20.037   9.778  11.818
 5747ETHO    C244581  20.230   9.856  11.764
 5747ETHO   H2144582  20.268   9.829  11.865
 5747ETHO   H2344583  20.264   9.958  11.734
 5748ETHO    O144584  20.277   9.763  11.672
 5748ETHO    C144585  20.406   9.794  11.632
 5748ETHO   H1144586  20.460   9.842  11.717
 5748ETHO   H1344587  20.413   9.848  11.535
 5748ETHO    C244588  20.472   9.650  11.617
 5748ETHO   H2144589  20.545   9.668  11.535
 5748ETHO   H2344590  20.405   9.574  11.572
 5749ETHO    O144591  20.545   9.605  11.734
 5749ETHO    C144592  20.582   9.468  11.728
 5749ETHO   H1144593  20.491   9.405  11.739
 5749ETHO   H1344594  20.631   9.439  11.633
 5749ETHO    C244595  20.664   9.422  11.854
 5749ETHO   H2144596  20.636   9.317  11.877
 5749ETHO   H2344597  20.646   9.495  11.936
 5750ETHO    O144598  20.805   9.446  11.819
 5750ETHO    C144599  20.896   9.394  11.913
 5750ETHO   H1144600  20.886   9.451  12.008
 5750ETHO   H1344601  20.859   9.295  11.946
 5750ETHO    C244602  21.051   9.399  11.885
 5750ETHO   H2144603  21.108   9.402  11.980
 5750ETHO   H2344604  21.069   9.485  11.817
 5751ETHO    O144605  21.078   9.273  11.824
 5751ETHO    C144606  21.188   9.265  11.732
 5751ETHO   H1144607  21.169   9.326  11.641
 5751ETHO   H1344608  21.276   9.311  11.782
 5751ETHO    C244609  21.205   9.117  11.696
 5751ETHO   H2144610  21.220   9.069  11.795
 5751ETHO   H2344611  21.299   9.104  11.639
 5752ETHO    O144612  21.088   9.053  11.639
 5752ETHO    C144613  21.115   9.018  11.503
 5752ETHO   H1144614  21.126   9.115  11.449
 5752ETHO   H1344615  21.209   8.962  11.485
 5752ETHO    C244616  21.002   8.933  11.458
 5752ETHO   H2144617  20.987   8.851  11.531
 5752ETHO   H2344618  21.026   8.890  11.358
 5753ETHO    O144619  20.883   9.009  11.447
 5753ETHO    C144620  20.859   9.055  11.316
 5753ETHO   H1144621  20.838   8.970  11.247
 5753ETHO   H1344622  20.959   9.091  11.285
 5753ETHO    C244623  20.765   9.177  11.292
 5753ETHO   H2144624  20.785   9.212  11.189
 5753ETHO   H2344625  20.782   9.259  11.366
 5754ETHO    O144626  20.627   9.136  11.296
 5754ETHO    C144627  20.533   9.239  11.272
 5754ETHO   H1144628  20.575   9.336  11.307
 5754ETHO   H1344629  20.510   9.240  11.164
 5754ETHO    C244630  20.399   9.206  11.341
 5754ETHO   H2144631  20.392   9.096  11.354
 5754ETHO   H2344632  20.315   9.245  11.280
 5755ETHO    O144633  20.387   9.278  11.462
 5755ETHO    C144634  20.248   9.312  11.488
 5755ETHO   H1144635  20.177   9.234  11.452
 5755ETHO   H1344636  20.221   9.399  11.424
 5755ETHO    C244637  20.217   9.332  11.642
 5755ETHO   H2144638  20.116   9.376  11.655
 5755ETHO   H2344639  20.294   9.409  11.661
 5756ETHO    O144640  20.231   9.205  11.710
 5756ETHO    C144641  20.179   9.210  11.841
 5756ETHO   H1144642  20.222   9.304  11.882
 5756ETHO   H1344643  20.069   9.224  11.836
 5756ETHO    C244644  20.211   9.088  11.923
 5756ETHO   H2144645  20.314   9.047  11.915
 5756ETHO   H2344646  20.162   8.999  11.879
 5757ETHO    O144647  20.177   9.099  12.060
 5757ETHO    C144648  20.184   8.975  12.123
 5757ETHO   H1144649  20.291   8.945  12.134
 5757ETHO   H1344650  20.142   8.893  12.062
 5757ETHO    C244651  20.124   8.991  12.263
 5757ETHO   H2144652  20.186   9.052  12.332
 5757ETHO   H2344653  20.113   8.890  12.308
 5758ETHO    O144654  19.995   9.044  12.252
 5758ETHO    C144655  19.946   9.053  12.386
 5758ETHO   H1144656  19.923   8.955  12.432
 5758ETHO   H1344657  20.021   9.100  12.453
 5758ETHO    C244658  19.820   9.138  12.372
 5758ETHO   H2144659  19.743   9.104  12.300
 5758ETHO   H2344660  19.847   9.236  12.326
 5759ETHO    O144661  19.760   9.156  12.494
 5759ETHO    C144662  19.634   9.215  12.473
 5759ETHO   H1144663  19.627   9.269  12.376
 5759ETHO   H1344664  19.631   9.292  12.552
 5759ETHO    C244665  19.512   9.126  12.489
 5759ETHO   H2144666  19.501   9.069  12.394
 5759ETHO   H2344667  19.431   9.201  12.503
 5760ETHO    O144668  19.530   9.035  12.595
 5760ETHO    C144669  19.422   8.948  12.608
 5760ETHO   H1144670  19.394   8.913  12.506
 5760ETHO   H1344671  19.462   8.857  12.655
 5760ETHO    C244672  19.293   8.980  12.684
 5760ETHO   H2144673  19.229   8.891  12.665
 5760ETHO   H2344674  19.240   9.069  12.644
 5761ETHO    O144675  19.331   8.994  12.818
 5761ETHO    C144676  19.228   9.021  12.913
 5761ETHO   H1144677  19.175   9.118  12.896
 5761ETHO   H1344678  19.157   8.938  12.892
 5761ETHO    C244679  19.270   9.014  13.057
 5761ETHO   H2144680  19.341   8.929  13.062
 5761ETHO   H2344681  19.191   8.980  13.126
 5762ETHO    O144682  19.329   9.137  13.100
 5762ETHO    C144683  19.230   9.236  13.135
 5762ETHO   H1144684  19.152   9.246  13.056
 5762ETHO   H1344685  19.184   9.207  13.231
 5762ETHO    C244686  19.295   9.372  13.144
 5762ETHO   H2144687  19.222   9.454  13.131
 5762ETHO   H2344688  19.361   9.388  13.056
 5763ETHO    O144689  19.375   9.386  13.261
 5763ETHO    C144690  19.284   9.428  13.363
 5763ETHO   H1144691  19.224   9.514  13.327
 5763ETHO   H1344692  19.229   9.334  13.388
 5763ETHO    C244693  19.388   9.469  13.472
 5763ETHO   H2144694  19.452   9.382  13.497
 5763ETHO   H2344695  19.338   9.498  13.567
 5764ETHO    O144696  19.464   9.597  13.438
 5764ETHO    C144697  19.538   9.646  13.551
 5764ETHO   H1144698  19.616   9.575  13.586
 5764ETHO   H1344699  19.468   9.677  13.631
 5764ETHO    C244700  19.606   9.776  13.500
 5764ETHO   H2144701  19.690   9.757  13.430
 5764ETHO   H2344702  19.646   9.830  13.589
 5765ETHO    O144703  19.512   9.855  13.425
 5765ETHO    C144704  19.554   9.985  13.398
 5765ETHO   H1144705  19.640  10.010  13.464
 5765ETHO   H1344706  19.601   9.993  13.297
 5765ETHO    C244707  19.430  10.080  13.401
 5765ETHO   H2144708  19.341  10.016  13.385
 5765ETHO   H2344709  19.441  10.158  13.323
 5766ETHO    O144710  19.423  10.131  13.528
 5766ETHO    C144711  19.325  10.070  13.611
 5766ETHO   H1144712  19.353   9.963  13.608
 5766ETHO   H1344713  19.224  10.075  13.565
 5766ETHO    C244714  19.324  10.134  13.748
 5766ETHO   H2144715  19.235  10.096  13.803
 5766ETHO   H2344716  19.301  10.242  13.737
 5767ETHO    O144717  19.443  10.119  13.826
 5767ETHO    C144718  19.452  10.217  13.930
 5767ETHO   H1144719  19.473  10.318  13.891
 5767ETHO   H1344720  19.353  10.220  13.980
 5767ETHO    C244721  19.565  10.184  14.023
 5767ETHO   H2144722  19.553  10.253  14.109
 5767ETHO   H2344723  19.662  10.189  13.970
 5768ETHO    O144724  19.537  10.063  14.088
 5768ETHO    C144725  19.648  10.013  14.162
 5768ETHO   H1144726  19.685  10.097  14.225
 5768ETHO   H1344727  19.734   9.981  14.098
 5768ETHO    C244728  19.609   9.895  14.257
 5768ETHO   H2144729  19.534   9.925  14.333
 5768ETHO   H2344730  19.696   9.867  14.322
 5769ETHO    O144731  19.571   9.787  14.181
 5769ETHO    C144732  19.447   9.735  14.232
 5769ETHO   H1144733  19.467   9.714  14.340
 5769ETHO   H1344734  19.378   9.822  14.226
 5769ETHO    C244735  19.401   9.611  14.168
 5769ETHO   H2144736  19.372   9.630  14.063
 5769ETHO   H2344737  19.309   9.579  14.221
 5770ETHO    O144738  19.497   9.502  14.162
 5770ETHO    C144739  19.436   9.372  14.149
 5770ETHO   H1144740  19.402   9.372  14.043
 5770ETHO   H1344741  19.349   9.349  14.214
 5770ETHO    C244742  19.547   9.270  14.175
 5770ETHO   H2144743  19.637   9.311  14.124
 5770ETHO   H2344744  19.523   9.170  14.132
 5771ETHO    O144745  19.563   9.256  14.321
 5771ETHO    C144746  19.470   9.168  14.381
 5771ETHO   H1144747  19.366   9.182  14.344
 5771ETHO   H1344748  19.494   9.061  14.362
 5771ETHO    C244749  19.455   9.189  14.533
 5771ETHO   H2144750  19.421   9.094  14.578
 5771ETHO   H2344751  19.559   9.201  14.569
 5772ETHO    O144752  19.365   9.291  14.572
 5772ETHO    C144753  19.432   9.414  14.559
 5772ETHO   H1144754  19.447   9.442  14.453
 5772ETHO   H1344755  19.533   9.402  14.604
 5772ETHO    C244756  19.372   9.532  14.631
 5772ETHO   H2144757  19.445   9.616  14.633
 5772ETHO   H2344758  19.351   9.502  14.736
 5773ETHO    O144759  19.261   9.581  14.562
 5773ETHO    C144760  19.220   9.700  14.626
 5773ETHO   H1144761  19.155   9.675  14.712
 5773ETHO   H1344762  19.308   9.758  14.661
 5773ETHO    C244763  19.130   9.780  14.530
 5773ETHO   H2144764  19.077   9.864  14.580
 5773ETHO   H2344765  19.056   9.707  14.489
 5774ETHO    O144766  19.202   9.846  14.424
 5774ETHO    C144767  19.122   9.938  14.333
 5774ETHO   H1144768  19.185   9.994  14.261
 5774ETHO   H1344769  19.077  10.012  14.402
 5774ETHO    C244770  19.023   9.859  14.245
 5774ETHO   H2144771  18.965   9.932  14.184
 5774ETHO   H2344772  18.948   9.810  14.311
 5775ETHO    O144773  19.077   9.772  14.149
 5775ETHO    C144774  18.977   9.707  14.080
 5775ETHO   H1144775  18.902   9.668  14.153
 5775ETHO   H1344776  18.924   9.770  14.006
 5775ETHO    C244777  19.037   9.585  14.001
 5775ETHO   H2144778  18.949   9.527  13.964
 5775ETHO   H2344779  19.100   9.530  14.073
 5776ETHO    O144780  19.117   9.632  13.895
 5776ETHO    C144781  19.181   9.523  13.832
 5776ETHO   H1144782  19.272   9.575  13.796
 5776ETHO   H1344783  19.197   9.446  13.910
 5776ETHO    C244784  19.097   9.480  13.716
 5776ETHO   H2144785  19.159   9.417  13.648
 5776ETHO   H2344786  19.066   9.567  13.653
 5777ETHO    O144787  18.977   9.415  13.763
 5777ETHO    C144788  19.016   9.280  13.784
 5777ETHO   H1144789  19.057   9.236  13.690
 5777ETHO   H1344790  19.092   9.265  13.864
 5777ETHO    C244791  18.882   9.214  13.830
 5777ETHO   H2144792  18.893   9.104  13.823
 5777ETHO   H2344793  18.809   9.253  13.755
 5778ETHO    O144794  18.852   9.257  13.957
 5778ETHO    C144795  18.769   9.166  14.034
 5778ETHO   H1144796  18.698   9.109  13.972
 5778ETHO   H1344797  18.829   9.080  14.071
 5778ETHO    C244798  18.693   9.239  14.155
 5778ETHO   H2144799  18.773   9.284  14.218
 5778ETHO   H2344800  18.651   9.156  14.216
 5779ETHO    O144801  18.594   9.336  14.123
 5779ETHO    C144802  18.479   9.274  14.067
 5779ETHO   H1144803  18.440   9.197  14.137
 5779ETHO   H1344804  18.514   9.220  13.977
 5779ETHO    C244805  18.372   9.367  14.025
 5779ETHO   H2144806  18.414   9.442  13.954
 5779ETHO   H2344807  18.332   9.419  14.115
 5780ETHO    O144808  18.272   9.305  13.951
 5780ETHO    C144809  18.160   9.270  14.034
 5780ETHO   H1144810  18.198   9.202  14.113
 5780ETHO   H1344811  18.120   9.366  14.074
 5780ETHO    C244812  18.036   9.211  13.968
 5780ETHO   H2144813  17.968   9.191  14.054
 5780ETHO   H2344814  18.072   9.116  13.923
 5781ETHO    O144815  17.971   9.317  13.895
 5781ETHO    C144816  17.892   9.263  13.795
 5781ETHO   H1144817  17.824   9.194  13.850
 5781ETHO   H1344818  17.951   9.201  13.724
 5781ETHO    C244819  17.842   9.386  13.718
 5781ETHO   H2144820  17.789   9.449  13.793
 5781ETHO   H2344821  17.751   9.360  13.658
 5782ETHO    O144822  17.935   9.447  13.634
 5782ETHO    C144823  17.894   9.581  13.605
 5782ETHO   H1144824  17.793   9.583  13.559
 5782ETHO   H1344825  17.881   9.642  13.697
 5782ETHO    C244826  17.989   9.673  13.515
 5782ETHO   H2144827  18.099   9.661  13.526
 5782ETHO   H2344828  17.966   9.778  13.543
 5783ETHO    O144829  17.961   9.640  13.380
 5783ETHO    C144830  17.987   9.752  13.290
 5783ETHO   H1144831  18.096   9.765  13.304
 5783ETHO   H1344832  17.933   9.842  13.327
 5783ETHO    C244833  17.949   9.720  13.145
 5783ETHO   H2144834  17.947   9.810  13.079
 5783ETHO   H2344835  17.844   9.683  13.142
 5784ETHO    O144836  18.048   9.632  13.101
 5784ETHO    C144837  18.027   9.575  12.970
 5784ETHO   H1144838  18.119   9.516  12.951
 5784ETHO   H1344839  17.947   9.499  12.975
 5784ETHO    C244840  18.017   9.672  12.846
 5784ETHO   H2144841  17.993   9.608  12.758
 5784ETHO   H2344842  18.115   9.724  12.841
 5785ETHO    O144843  17.913   9.773  12.847
 5785ETHO    C144844  17.913   9.839  12.718
 5785ETHO   H1144845  17.818   9.896  12.707
 5785ETHO   H1344846  17.914   9.766  12.634
 5785ETHO    C244847  18.028   9.933  12.676
 5785ETHO   H2144848  18.056  10.005  12.757
 5785ETHO   H2344849  17.996   9.994  12.588
 5786ETHO    O144850  18.145   9.869  12.646
 5786ETHO    C144851  18.258   9.952  12.653
 5786ETHO   H1144852  18.326   9.902  12.580
 5786ETHO   H1344853  18.238  10.056  12.622
 5786ETHO    C244854  18.323   9.948  12.786
 5786ETHO   H2144855  18.430   9.975  12.772
 5786ETHO   H2344856  18.309   9.843  12.821
 5787ETHO    O144857  18.264  10.040  12.876
 5787ETHO    C144858  18.330  10.040  13.004
 5787ETHO   H1144859  18.375   9.940  13.023
 5787ETHO   H1344860  18.416  10.110  13.001
 5787ETHO    C244861  18.241  10.081  13.129
 5787ETHO   H2144862  18.296  10.063  13.223
 5787ETHO   H2344863  18.152  10.014  13.128
 5788ETHO    O144864  18.210  10.220  13.123
 5788ETHO    C144865  18.071  10.241  13.158
 5788ETHO   H1144866  18.016  10.181  13.083
 5788ETHO   H1344867  18.057  10.198  13.260
 5788ETHO    C244868  18.026  10.389  13.166
 5788ETHO   H2144869  18.111  10.451  13.202
 5788ETHO   H2344870  17.946  10.391  13.243
 5789ETHO    O144871  17.982  10.439  13.041
 5789ETHO    C144872  17.942  10.575  13.060
 5789ETHO   H1144873  17.904  10.587  13.163
 5789ETHO   H1344874  18.027  10.643  13.036
 5789ETHO    C244875  17.828  10.602  12.953
 5789ETHO   H2144876  17.753  10.519  12.953
 5789ETHO   H2344877  17.875  10.604  12.852
 5790ETHO    O144878  17.769  10.724  12.983
 5790ETHO    C144879  17.731  10.794  12.864
 5790ETHO   H1144880  17.697  10.722  12.787
 5790ETHO   H1344881  17.829  10.831  12.827
 5790ETHO    C244882  17.636  10.917  12.875
 5790ETHO   H2144883  17.630  10.994  12.795
 5790ETHO   H2344884  17.674  10.978  12.960
 5791ETHO    O144885  17.502  10.886  12.914
 5791ETHO    C144886  17.419  11.003  12.943
 5791ETHO   H1144887  17.342  10.964  13.013
 5791ETHO   H1344888  17.474  11.080  13.001
 5791ETHO    C244889  17.363  11.070  12.812
 5791ETHO   H2144890  17.279  11.133  12.848
 5791ETHO   H2344891  17.323  10.986  12.751
 5792ETHO    O144892  17.473  11.144  12.760
 5792ETHO    C144893  17.436  11.197  12.633
 5792ETHO   H1144894  17.334  11.240  12.639
 5792ETHO   H1344895  17.441  11.116  12.557
 5792ETHO    C244896  17.547  11.302  12.591
 5792ETHO   H2144897  17.549  11.394  12.654
 5792ETHO   H2344898  17.512  11.342  12.493
 5793ETHO    O144899  17.679  11.258  12.565
 5793ETHO    C144900  17.772  11.365  12.547
 5793ETHO   H1144901  17.753  11.408  12.446
 5793ETHO   H1344902  17.742  11.436  12.626
 5793ETHO    C244903  17.917  11.316  12.541
 5793ETHO   H2144904  17.923  11.206  12.561
 5793ETHO   H2344905  17.983  11.368  12.614
 5794ETHO    O144906  17.980  11.327  12.416
 5794ETHO    C144907  18.121  11.288  12.415
 5794ETHO   H1144908  18.170  11.326  12.507
 5794ETHO   H1344909  18.165  11.343  12.330
 5794ETHO    C244910  18.153  11.136  12.384
 5794ETHO   H2144911  18.256  11.120  12.346
 5794ETHO   H2344912  18.082  11.099  12.307
 5795ETHO    O144913  18.115  11.049  12.484
 5795ETHO    C144914  18.204  11.052  12.588
 5795ETHO   H1144915  18.308  11.030  12.554
 5795ETHO   H1344916  18.198  11.152  12.636
 5795ETHO    C244917  18.163  10.952  12.698
 5795ETHO   H2144918  18.065  10.987  12.736
 5795ETHO   H2344919  18.230  10.977  12.783
 5796ETHO    O144920  18.150  10.812  12.661
 5796ETHO    C144921  18.281  10.753  12.647
 5796ETHO   H1144922  18.337  10.817  12.576
 5796ETHO   H1344923  18.244  10.657  12.604
 5796ETHO    C244924  18.354  10.726  12.780
 5796ETHO   H2144925  18.440  10.658  12.761
 5796ETHO   H2344926  18.286  10.678  12.854
 5797ETHO    O144927  18.420  10.843  12.836
 5797ETHO    C144928  18.541  10.877  12.761
 5797ETHO   H1144929  18.615  10.812  12.813
 5797ETHO   H1344930  18.536  10.844  12.655
 5797ETHO    C244931  18.587  11.022  12.773
 5797ETHO   H2144932  18.494  11.082  12.764
 5797ETHO   H2344933  18.656  11.063  12.696
 5798ETHO    O144934  18.650  11.055  12.900
 5798ETHO    C144935  18.665  11.188  12.915
 5798ETHO   H1144936  18.705  11.232  12.822
 5798ETHO   H1344937  18.570  11.240  12.943
 5798ETHO    C244938  18.772  11.223  13.020
 5798ETHO   H2144939  18.747  11.174  13.117
 5798ETHO   H2344940  18.775  11.330  13.049
 5799ETHO    O144941  18.902  11.178  12.972
 5799ETHO    C144942  19.008  11.204  13.068
 5799ETHO   H1144943  18.988  11.298  13.125
 5799ETHO   H1344944  19.005  11.121  13.141
 5799ETHO    C244945  19.143  11.214  12.998
 5799ETHO   H2144946  19.214  11.290  13.035
 5799ETHO   H2344947  19.131  11.255  12.895
 5800ETHO    O144948  19.205  11.087  12.986
 5800ETHO    C144949  19.348  11.093  12.960
 5800ETHO   H1144950  19.369  11.091  12.851
 5800ETHO   H1344951  19.388  11.189  12.998
 5800ETHO    C244952  19.416  10.967  13.024
 5800ETHO   H2144953  19.517  10.961  12.979
 5800ETHO   H2344954  19.351  10.880  13.001
 5801ETHO    O144955  19.422  10.971  13.169
 5801ETHO    C144956  19.506  10.867  13.231
 5801ETHO   H1144957  19.610  10.870  13.193
 5801ETHO   H1344958  19.467  10.767  13.202
 5801ETHO    C244959  19.503  10.889  13.384
 5801ETHO   H2144960  19.560  10.980  13.412
 5801ETHO   H2344961  19.557  10.808  13.438
 5802ETHO    O144962  19.372  10.889  13.439
 5802ETHO    C144963  19.377  10.925  13.571
 5802ETHO   H1144964  19.417  11.028  13.574
 5802ETHO   H1344965  19.271  10.929  13.605
 5802ETHO    C244966  19.438  10.825  13.670
 5802ETHO   H2144967  19.382  10.729  13.660
 5802ETHO   H2344968  19.429  10.867  13.772
 5803ETHO    O144969  19.573  10.781  13.659
 5803ETHO    C144970  19.660  10.882  13.728
 5803ETHO   H1144971  19.679  10.856  13.834
 5803ETHO   H1344972  19.613  10.982  13.722
 5803ETHO    C244973  19.796  10.886  13.658
 5803ETHO   H2144974  19.786  10.878  13.547
 5803ETHO   H2344975  19.841  10.793  13.697
 5804ETHO    O144976  19.875  10.995  13.699
 5804ETHO    C144977  19.867  11.100  13.604
 5804ETHO   H1144978  19.941  11.096  13.521
 5804ETHO   H1344979  19.767  11.106  13.557
 5804ETHO    C244980  19.900  11.244  13.653
 5804ETHO   H2144981  19.872  11.313  13.571
 5804ETHO   H2344982  19.843  11.274  13.744
 5805ETHO    O144983  20.038  11.250  13.670
 5805ETHO    C144984  20.082  11.359  13.744
 5805ETHO   H1144985  20.017  11.449  13.738
 5805ETHO   H1344986  20.184  11.390  13.715
 5805ETHO    C244987  20.078  11.319  13.893
 5805ETHO   H2144988  19.974  11.296  13.923
 5805ETHO   H2344989  20.123  11.395  13.960
 5806ETHO    O144990  20.150  11.204  13.910
 5806ETHO    C144991  20.290  11.230  13.922
 5806ETHO   H1144992  20.319  11.267  13.821
 5806ETHO   H1344993  20.304  11.313  13.995
 5806ETHO    C244994  20.382  11.114  13.968
 5806ETHO   H2144995  20.357  11.014  13.926
 5806ETHO   H2344996  20.369  11.101  14.078
 5807ETHO    O144997  20.517  11.151  13.947
 5807ETHO    C144998  20.599  11.045  13.974
 5807ETHO   H1144999  20.593  10.962  13.901
 5807ETHO   H1345000  20.575  11.005  14.075
 5807ETHO    C245001  20.741  11.107  13.987
 5807ETHO   H2145002  20.746  11.189  13.912
 5807ETHO   H2345003  20.821  11.034  13.959
 5808ETHO    O145004  20.754  11.159  14.118
 5808ETHO    C145005  20.880  11.224  14.132
 5808ETHO   H1145006  20.919  11.205  14.234
 5808ETHO   H1345007  20.953  11.167  14.070
 5808ETHO    C245008  20.878  11.366  14.103
 5808ETHO   H2145009  20.976  11.414  14.123
 5808ETHO   H2345010  20.808  11.420  14.172
 5809ETHO    O145011  20.833  11.411  13.978
 5809ETHO    C145012  20.940  11.423  13.881
 5809ETHO   H1145013  21.009  11.337  13.886
 5809ETHO   H1345014  20.999  11.512  13.910
 5809ETHO    C245015  20.884  11.426  13.735
 5809ETHO   H2145016  20.951  11.464  13.655
 5809ETHO   H2345017  20.792  11.489  13.728
 5810ETHO    O145018  20.861  11.290  13.700
 5810ETHO    C145019  20.790  11.277  13.582
 5810ETHO   H1145020  20.691  11.327  13.584
 5810ETHO   H1345021  20.847  11.310  13.492
 5810ETHO    C245022  20.780  11.123  13.581
 5810ETHO   H2145023  20.689  11.098  13.522
 5810ETHO   H2345024  20.767  11.081  13.683
 5811ETHO    O145025  20.887  11.056  13.510
 5811ETHO    C145026  21.003  11.018  13.589
 5811ETHO   H1145027  20.977  10.939  13.662
 5811ETHO   H1345028  21.038  11.106  13.648
 5811ETHO    C245029  21.129  10.971  13.511
 5811ETHO   H2145030  21.196  10.922  13.585
 5811ETHO   H2345031  21.187  11.057  13.470
 5812ETHO    O145032  21.101  10.878  13.408
 5812ETHO    C145033  21.215  10.851  13.329
 5812ETHO   H1145034  21.240  10.943  13.274
 5812ETHO   H1345035  21.301  10.810  13.387
 5812ETHO    C245036  21.177  10.744  13.219
 5812ETHO   H2145037  21.088  10.770  13.159
 5812ETHO   H2345038  21.261  10.745  13.145
 5813ETHO    O145039  21.158  10.613  13.275
 5813ETHO    C145040  21.131  10.522  13.174
 5813ETHO   H1145041  21.051  10.567  13.112
 5813ETHO   H1345042  21.212  10.515  13.098
 5813ETHO    C245043  21.101  10.385  13.232
 5813ETHO   H2145044  21.187  10.349  13.293
 5813ETHO   H2345045  21.079  10.313  13.150
 5814ETHO    O145046  20.980  10.403  13.305
 5814ETHO    C145047  20.938  10.284  13.365
 5814ETHO   H1145048  20.834  10.288  13.402
 5814ETHO   H1345049  20.940  10.198  13.295
 5814ETHO    C245050  21.025  10.249  13.490
 5814ETHO   H2145051  20.959  10.188  13.556
 5814ETHO   H2345052  21.045  10.347  13.537
 5815ETHO    O145053  21.145  10.179  13.470
 5815ETHO    C145054  21.220  10.161  13.593
 5815ETHO   H1145055  21.284  10.252  13.598
 5815ETHO   H1345056  21.158  10.154  13.685
 5815ETHO    C245057  21.319  10.040  13.589
 5815ETHO   H2145058  21.392  10.067  13.668
 5815ETHO   H2345059  21.360  10.024  13.487
 5816ETHO    O145060  21.265   9.924  13.640
 5816ETHO    C145061  21.354   9.813  13.657
 5816ETHO   H1145062  21.422   9.846  13.738
 5816ETHO   H1345063  21.414   9.776  13.571
 5816ETHO    C245064  21.288   9.681  13.711
 5816ETHO   H2145065  21.191   9.705  13.761
 5816ETHO   H2345066  21.355   9.646  13.792
 5817ETHO    O145067  21.253   9.602  13.595
 5817ETHO    C145068  21.154   9.662  13.516
 5817ETHO   H1145069  21.071   9.704  13.577
 5817ETHO   H1345070  21.205   9.744  13.459
 5817ETHO    C245071  21.094   9.550  13.422
 5817ETHO   H2145072  21.180   9.506  13.367
 5817ETHO   H2345073  21.030   9.601  13.347
 5818ETHO    O145074  21.027   9.441  13.482
 5818ETHO    C145075  20.984   9.356  13.374
 5818ETHO   H1145076  21.073   9.321  13.319
 5818ETHO   H1345077  20.919   9.414  13.306
 5818ETHO    C245078  20.904   9.240  13.427
 5818ETHO   H2145079  20.942   9.192  13.520
 5818ETHO   H2345080  20.925   9.162  13.352
 5819ETHO    O145081  20.767   9.274  13.437
 5819ETHO    C145082  20.698   9.150  13.461
 5819ETHO   H1145083  20.701   9.089  13.368
 5819ETHO   H1345084  20.753   9.107  13.547
 5819ETHO    C245085  20.554   9.172  13.500
 5819ETHO   H2145086  20.495   9.083  13.531
 5819ETHO   H2345087  20.500   9.223  13.417
 5820ETHO    O145088  20.550   9.254  13.618
 5820ETHO    C145089  20.418   9.304  13.629
 5820ETHO   H1145090  20.351   9.220  13.656
 5820ETHO   H1345091  20.374   9.351  13.539
 5820ETHO    C245092  20.436   9.398  13.747
 5820ETHO   H2145093  20.511   9.476  13.720
 5820ETHO   H2345094  20.488   9.343  13.828
 5821ETHO    O145095  20.319   9.445  13.804
 5821ETHO    C145096  20.244   9.526  13.712
 5821ETHO   H1145097  20.285   9.627  13.690
 5821ETHO   H1345098  20.232   9.487  13.609
 5821ETHO    C245099  20.096   9.548  13.756
 5821ETHO   H2145100  20.095   9.590  13.859
 5821ETHO   H2345101  20.035   9.455  13.758
 5822ETHO    O145102  20.024   9.639  13.675
 5822ETHO    C145103  19.896   9.672  13.727
 5822ETHO   H1145104  19.872   9.595  13.804
 5822ETHO   H1345105  19.825   9.680  13.641
 5822ETHO    C245106  19.880   9.807  13.807
 5822ETHO   H2145107  19.981   9.821  13.850
 5822ETHO   H2345108  19.788   9.803  13.869
 5823ETHO    O145109  19.864   9.906  13.713
 5823ETHO    C145110  19.856  10.035  13.776
 5823ETHO   H1145111  19.768  10.036  13.843
 5823ETHO   H1345112  19.945  10.048  13.841
 5823ETHO    C245113  19.850  10.164  13.686
 5823ETHO   H2145114  19.865  10.250  13.755
 5823ETHO   H2345115  19.750  10.165  13.639
 5824ETHO    O145116  19.945  10.175  13.585
 5824ETHO    C145117  19.942  10.302  13.530
 5824ETHO   H1145118  19.855  10.303  13.461
 5824ETHO   H1345119  19.923  10.379  13.608
 5824ETHO    C245120  20.073  10.339  13.462
 5824ETHO   H2145121  20.045  10.415  13.386
 5824ETHO   H2345122  20.116  10.251  13.409
 5825ETHO    O145123  20.182  10.377  13.549
 5825ETHO    C145124  20.297  10.402  13.468
 5825ETHO   H1145125  20.332  10.307  13.421
 5825ETHO   H1345126  20.261  10.471  13.389
 5825ETHO    C245127  20.419  10.469  13.536
 5825ETHO   H2145128  20.503  10.472  13.463
 5825ETHO   H2345129  20.457  10.423  13.630
 5826ETHO    O145130  20.376  10.596  13.571
 5826ETHO    C145131  20.467  10.682  13.629
 5826ETHO   H1145132  20.528  10.644  13.714
 5826ETHO   H1345133  20.550  10.694  13.557
 5826ETHO    C245134  20.415  10.826  13.670
 5826ETHO   H2145135  20.466  10.862  13.762
 5826ETHO   H2345136  20.308  10.811  13.696
 5827ETHO    O145137  20.438  10.912  13.553
 5827ETHO    C145138  20.387  11.038  13.583
 5827ETHO   H1145139  20.465  11.088  13.644
 5827ETHO   H1345140  20.295  11.037  13.644
 5827ETHO    C245141  20.364  11.115  13.457
 5827ETHO   H2145142  20.457  11.110  13.396
 5827ETHO   H2345143  20.338  11.220  13.479
 5828ETHO    O145144  20.269  11.079  13.363
 5828ETHO    C145145  20.265  11.171  13.249
 5828ETHO   H1145146  20.270  11.275  13.287
 5828ETHO   H1345147  20.165  11.157  13.202
 5828ETHO    C245148  20.370  11.132  13.133
 5828ETHO   H2145149  20.327  11.200  13.057
 5828ETHO   H2345150  20.353  11.022  13.121
 5829ETHO    O145151  20.496  11.166  13.169
 5829ETHO    C145152  20.583  11.188  13.062
 5829ETHO   H1145153  20.524  11.243  12.985
 5829ETHO   H1345154  20.609  11.089  13.020
 5829ETHO    C245155  20.708  11.274  13.091
 5829ETHO   H2145156  20.790  11.245  13.021
 5829ETHO   H2345157  20.737  11.237  13.192
 5830ETHO    O145158  20.683  11.415  13.076
 5830ETHO    C145159  20.773  11.493  13.155
 5830ETHO   H1145160  20.762  11.472  13.263
 5830ETHO   H1345161  20.873  11.471  13.111
 5830ETHO    C245162  20.749  11.644  13.135
 5830ETHO   H2145163  20.740  11.680  13.030
 5830ETHO   H2345164  20.840  11.700  13.168
 5830ETHO    OZ45165  20.631  11.675  13.204
 5830ETHO   HZ145166  20.558  11.647  13.149
 5831ETHO    O145167   6.552   7.818  18.870
 5831ETHO   HO145168   6.578   7.853  18.785
 5831ETHO    C145169   6.490   7.694  18.864
 5831ETHO   H1145170   6.563   7.610  18.863
 5831ETHO   H1345171   6.439   7.690  18.765
 5831ETHO    C245172   6.387   7.681  18.975
 5831ETHO   H2145173   6.315   7.605  18.938
 5831ETHO   H2345174   6.333   7.777  18.991
 5832ETHO    O145175   6.434   7.632  19.101
 5832ETHO    C145176   6.322   7.600  19.187
 5832ETHO   H1145177   6.221   7.594  19.141
 5832ETHO   H1345178   6.325   7.496  19.227
 5832ETHO    C245179   6.297   7.708  19.291
 5832ETHO   H2145180   6.376   7.721  19.368
 5832ETHO   H2345181   6.211   7.685  19.357
 5833ETHO    O145182   6.267   7.833  19.223
 5833ETHO    C145183   6.135   7.864  19.230
 5833ETHO   H1145184   6.100   7.881  19.334
 5833ETHO   H1345185   6.075   7.781  19.188
 5833ETHO    C245186   6.100   7.989  19.153
 5833ETHO   H2145187   6.146   8.086  19.182
 5833ETHO   H2345188   5.993   8.017  19.157
 5834ETHO    O145189   6.127   7.979  19.010
 5834ETHO    C145190   6.209   8.082  18.970
 5834ETHO   H1145191   6.178   8.179  19.016
 5834ETHO   H1345192   6.313   8.051  18.991
 5834ETHO    C245193   6.193   8.118  18.819
 5834ETHO   H2145194   6.189   8.029  18.753
 5834ETHO   H2345195   6.277   8.185  18.793
 5835ETHO    O145196   6.077   8.187  18.784
 5835ETHO    C145197   6.088   8.261  18.655
 5835ETHO   H1145198   6.134   8.361  18.666
 5835ETHO   H1345199   6.147   8.203  18.580
 5835ETHO    C245200   5.944   8.276  18.595
 5835ETHO   H2145201   5.885   8.182  18.596
 5835ETHO   H2345202   5.952   8.312  18.490
 5836ETHO    O145203   5.872   8.372  18.667
 5836ETHO    C145204   5.752   8.402  18.591
 5836ETHO   H1145205   5.791   8.464  18.507
 5836ETHO   H1345206   5.696   8.312  18.558
 5836ETHO    C245207   5.656   8.488  18.680
 5836ETHO   H2145208   5.644   8.440  18.779
 5836ETHO   H2345209   5.555   8.488  18.632
 5837ETHO    O145210   5.717   8.618  18.689
 5837ETHO    C145211   5.615   8.708  18.716
 5837ETHO   H1145212   5.570   8.744  18.621
 5837ETHO   H1345213   5.539   8.668  18.786
 5837ETHO    C245214   5.668   8.832  18.778
 5837ETHO   H2145215   5.591   8.909  18.802
 5837ETHO   H2345216   5.745   8.877  18.712
 5838ETHO    O145217   5.725   8.806  18.904
 5838ETHO    C145218   5.764   8.914  18.979
 5838ETHO   H1145219   5.689   8.996  18.969
 5838ETHO   H1345220   5.853   8.951  18.923
 5838ETHO    C245221   5.805   8.893  19.129
 5838ETHO   H2145222   5.722   8.868  19.199
 5838ETHO   H2345223   5.852   8.987  19.164
 5839ETHO    O145224   5.901   8.796  19.135
 5839ETHO    C145225   5.940   8.765  19.267
 5839ETHO   H1145226   5.981   8.859  19.310
 5839ETHO   H1345227   5.848   8.741  19.324
 5839ETHO    C245228   6.056   8.661  19.272
 5839ETHO   H2145229   6.039   8.579  19.198
 5839ETHO   H2345230   6.066   8.636  19.380
 5840ETHO    O145231   6.186   8.716  19.248
 5840ETHO    C145232   6.204   8.730  19.109
 5840ETHO   H1145233   6.141   8.815  19.076
 5840ETHO   H1345234   6.162   8.644  19.051
 5840ETHO    C245235   6.344   8.764  19.068
 5840ETHO   H2145236   6.356   8.755  18.958
 5840ETHO   H2345237   6.413   8.686  19.106
 5841ETHO    O145238   6.379   8.897  19.092
 5841ETHO    C145239   6.523   8.904  19.098
 5841ETHO   H1145240   6.544   9.009  19.124
 5841ETHO   H1345241   6.555   8.850  19.190
 5841ETHO    C245242   6.609   8.856  18.973
 5841ETHO   H2145243   6.715   8.884  18.990
 5841ETHO   H2345244   6.609   8.746  18.956
 5842ETHO    O145245   6.576   8.916  18.847
 5842ETHO    C145246   6.577   9.058  18.860
 5842ETHO   H1145247   6.638   9.094  18.945
 5842ETHO   H1345248   6.477   9.103  18.880
 5842ETHO    C245249   6.629   9.132  18.728
 5842ETHO   H2145250   6.730   9.098  18.697
 5842ETHO   H2345251   6.649   9.238  18.753
 5843ETHO    O145252   6.529   9.136  18.626
 5843ETHO    C145253   6.558   9.049  18.513
 5843ETHO   H1145254   6.664   9.069  18.490
 5843ETHO   H1345255   6.547   8.943  18.546
 5843ETHO    C245256   6.482   9.100  18.390
 5843ETHO   H2145257   6.545   9.087  18.299
 5843ETHO   H2345258   6.457   9.208  18.398
 5844ETHO    O145259   6.367   9.018  18.389
 5844ETHO    C145260   6.250   9.079  18.333
 5844ETHO   H1145261   6.259   9.055  18.224
 5844ETHO   H1345262   6.274   9.187  18.334
 5844ETHO    C245263   6.121   9.035  18.394
 5844ETHO   H2145264   6.129   8.924  18.401
 5844ETHO   H2345265   6.041   9.067  18.325
 5845ETHO    O145266   6.097   9.095  18.522
 5845ETHO    C145267   6.126   9.003  18.620
 5845ETHO   H1145268   6.044   8.929  18.638
 5845ETHO   H1345269   6.228   8.963  18.601
 5845ETHO    C245270   6.138   9.061  18.764
 5845ETHO   H2145271   6.156   8.981  18.839
 5845ETHO   H2345272   6.225   9.130  18.772
 5846ETHO    O145273   6.022   9.131  18.804
 5846ETHO    C145274   6.049   9.185  18.927
 5846ETHO   H1145275   6.059   9.101  18.998
 5846ETHO   H1345276   6.135   9.255  18.932
 5846ETHO    C245277   5.929   9.259  18.979
 5846ETHO   H2145278   5.947   9.293  19.083
 5846ETHO   H2345279   5.846   9.187  18.991
 5847ETHO    O145280   5.888   9.366  18.893
 5847ETHO    C145281   5.764   9.421  18.941
 5847ETHO   H1145282   5.691   9.352  18.990
 5847ETHO   H1345283   5.802   9.493  19.017
 5847ETHO    C245284   5.687   9.506  18.844
 5847ETHO   H2145285   5.763   9.570  18.793
 5847ETHO   H2345286   5.618   9.571  18.900
 5848ETHO    O145287   5.622   9.418  18.746
 5848ETHO    C145288   5.550   9.502  18.656
 5848ETHO   H1145289   5.455   9.535  18.705
 5848ETHO   H1345290   5.618   9.588  18.642
 5848ETHO    C245291   5.519   9.449  18.515
 5848ETHO   H2145292   5.447   9.365  18.514
 5848ETHO   H2345293   5.614   9.418  18.468
 5849ETHO    O145294   5.467   9.556  18.430
 5849ETHO    C145295   5.477   9.519  18.294
 5849ETHO   H1145296   5.431   9.419  18.277
 5849ETHO   H1345297   5.586   9.515  18.272
 5849ETHO    C245298   5.395   9.619  18.207
 5849ETHO   H2145299   5.417   9.615  18.098
 5849ETHO   H2345300   5.425   9.721  18.242
 5850ETHO    O145301   5.255   9.589  18.221
 5850ETHO    C145302   5.185   9.714  18.213
 5850ETHO   H1145303   5.235   9.783  18.284
 5850ETHO   H1345304   5.199   9.752  18.110
 5850ETHO    C245305   5.031   9.704  18.247
 5850ETHO   H2145306   5.034   9.712  18.358
 5850ETHO   H2345307   5.000   9.599  18.227
 5851ETHO    O145308   4.952   9.805  18.195
 5851ETHO    C145309   4.841   9.835  18.276
 5851ETHO   H1145310   4.870   9.841  18.383
 5851ETHO   H1345311   4.757   9.763  18.264
 5851ETHO    C245312   4.783   9.975  18.245
 5851ETHO   H2145313   4.701   9.986  18.318
 5851ETHO   H2345314   4.737   9.982  18.143
 5852ETHO    O145315   4.879  10.071  18.273
 5852ETHO    C145316   4.829  10.205  18.248
 5852ETHO   H1145317   4.842  10.225  18.140
 5852ETHO   H1345318   4.720  10.207  18.272
 5852ETHO    C245319   4.914  10.303  18.336
 5852ETHO   H2145320   4.853  10.395  18.340
 5852ETHO   H2345321   4.924  10.265  18.440
 5853ETHO    O145322   5.044  10.326  18.280
 5853ETHO    C145323   5.131  10.383  18.375
 5853ETHO   H1145324   5.122  10.323  18.468
 5853ETHO   H1345325   5.085  10.481  18.399
 5853ETHO    C245326   5.273  10.392  18.321
 5853ETHO   H2145327   5.295  10.302  18.260
 5853ETHO   H2345328   5.345  10.377  18.405
 5854ETHO    O145329   5.294  10.501  18.240
 5854ETHO    C145330   5.426  10.500  18.188
 5854ETHO   H1145331   5.488  10.505  18.280
 5854ETHO   H1345332   5.445  10.406  18.132
 5854ETHO    C245333   5.463  10.623  18.100
 5854ETHO   H2145334   5.565  10.656  18.129
 5854ETHO   H2345335   5.401  10.708  18.138
 5855ETHO    O145336   5.444  10.616  17.958
 5855ETHO    C145337   5.458  10.739  17.889
 5855ETHO   H1145338   5.394  10.822  17.924
 5855ETHO   H1345339   5.435  10.722  17.781
 5855ETHO    C245340   5.608  10.765  17.884
 5855ETHO   H2145341   5.630  10.828  17.795
 5855ETHO   H2345342   5.663  10.674  17.852
 5856ETHO    O145343   5.665  10.816  18.003
 5856ETHO    C145344   5.781  10.898  17.981
 5856ETHO   H1145345   5.837  10.851  17.897
 5856ETHO   H1345346   5.734  10.995  17.953
 5856ETHO    C245347   5.870  10.912  18.104
 5856ETHO   H2145348   5.901  10.807  18.124
 5856ETHO   H2345349   5.825  10.947  18.199
 5857ETHO    O145350   5.993  10.980  18.083
 5857ETHO    C145351   6.073  10.996  18.201
 5857ETHO   H1145352   6.160  10.929  18.184
 5857ETHO   H1345353   6.020  10.978  18.296
 5857ETHO    C245354   6.115  11.145  18.201
 5857ETHO   H2145355   6.165  11.155  18.103
 5857ETHO   H2345356   6.193  11.168  18.277
 5858ETHO    O145357   6.008  11.237  18.220
 5858ETHO    C145358   6.022  11.354  18.136
 5858ETHO   H1145359   6.112  11.415  18.161
 5858ETHO   H1345360   6.029  11.317  18.032
 5858ETHO    C245361   5.903  11.450  18.137
 5858ETHO   H2145362   5.921  11.535  18.069
 5858ETHO   H2345363   5.892  11.490  18.240
 5859ETHO    O145364   5.786  11.368  18.112
 5859ETHO    C145365   5.668  11.441  18.130
 5859ETHO   H1145366   5.665  11.533  18.067
 5859ETHO   H1345367   5.665  11.481  18.234
 5859ETHO    C245368   5.549  11.346  18.097
 5859ETHO   H2145369   5.450  11.396  18.101
 5859ETHO   H2345370   5.541  11.274  18.182
 5860ETHO    O145371   5.556  11.288  17.966
 5860ETHO    C145372   5.472  11.176  17.953
 5860ETHO   H1145373   5.514  11.087  18.005
 5860ETHO   H1345374   5.374  11.200  17.999
 5860ETHO    C245375   5.466  11.150  17.802
 5860ETHO   H2145376   5.452  11.242  17.742
 5860ETHO   H2345377   5.374  11.094  17.775
 5861ETHO    O145378   5.584  11.080  17.767
 5861ETHO    C145379   5.693  11.160  17.750
 5861ETHO   H1145380   5.663  11.257  17.707
 5861ETHO   H1345381   5.746  11.186  17.844
 5861ETHO    C245382   5.791  11.099  17.650
 5861ETHO   H2145383   5.837  11.002  17.677
 5861ETHO   H2345384   5.873  11.171  17.631
 5862ETHO    O145385   5.714  11.073  17.532
 5862ETHO    C145386   5.799  11.023  17.424
 5862ETHO   H1145387   5.867  11.102  17.385
 5862ETHO   H1345388   5.858  10.937  17.462
 5862ETHO    C245389   5.712  10.977  17.309
 5862ETHO   H2145390   5.634  10.904  17.338
 5862ETHO   H2345391   5.786  10.919  17.249
 5863ETHO    O145392   5.651  11.084  17.239
 5863ETHO    C145393   5.578  11.039  17.124
 5863ETHO   H1145394   5.634  10.964  17.064
 5863ETHO   H1345395   5.486  10.989  17.162
 5863ETHO    C245396   5.541  11.166  17.038
 5863ETHO   H2145397   5.505  11.121  16.943
 5863ETHO   H2345398   5.635  11.219  17.016
 5864ETHO    O145399   5.439  11.252  17.081
 5864ETHO    C145400   5.443  11.382  17.014
 5864ETHO   H1145401   5.421  11.365  16.906
 5864ETHO   H1345402   5.547  11.422  17.016
 5864ETHO    C245403   5.345  11.488  17.060
 5864ETHO   H2145404   5.241  11.449  17.062
 5864ETHO   H2345405   5.355  11.576  16.993
 5865ETHO    O145406   5.395  11.520  17.195
 5865ETHO    C145407   5.326  11.635  17.241
 5865ETHO   H1145408   5.364  11.724  17.186
 5865ETHO   H1345409   5.218  11.628  17.215
 5865ETHO    C245410   5.331  11.647  17.388
 5865ETHO   H2145411   5.307  11.753  17.411
 5865ETHO   H2345412   5.434  11.630  17.426
 5866ETHO    O145413   5.236  11.571  17.469
 5866ETHO    C145414   5.265  11.434  17.475
 5866ETHO   H1145415   5.372  11.424  17.501
 5866ETHO   H1345416   5.248  11.378  17.381
 5866ETHO    C245417   5.182  11.381  17.592
 5866ETHO   H2145418   5.199  11.440  17.685
 5866ETHO   H2345419   5.210  11.278  17.625
 5867ETHO    O145420   5.051  11.372  17.549
 5867ETHO    C145421   4.967  11.360  17.667
 5867ETHO   H1145422   4.976  11.255  17.701
 5867ETHO   H1345423   5.002  11.414  17.758
 5867ETHO    C245424   4.815  11.381  17.640
 5867ETHO   H2145425   4.810  11.434  17.543
 5867ETHO   H2345426   4.771  11.444  17.720
 5868ETHO    O145427   4.748  11.250  17.642
 5868ETHO    C145428   4.609  11.261  17.619
 5868ETHO   H1145429   4.607  11.326  17.529
 5868ETHO   H1345430   4.572  11.314  17.709
 5868ETHO    C245431   4.540  11.132  17.591
 5868ETHO   H2145432   4.586  11.071  17.511
 5868ETHO   H2345433   4.436  11.160  17.562
 5869ETHO    O145434   4.536  11.043  17.707
 5869ETHO    C145435   4.562  10.904  17.670
 5869ETHO   H1145436   4.654  10.881  17.612
 5869ETHO   H1345437   4.576  10.855  17.768
 5869ETHO    C245438   4.437  10.845  17.606
 5869ETHO   H2145439   4.453  10.739  17.574
 5869ETHO   H2345440   4.399  10.911  17.525
 5870ETHO    O145441   4.337  10.840  17.704
 5870ETHO    C145442   4.216  10.789  17.648
 5870ETHO   H1145443   4.226  10.685  17.612
 5870ETHO   H1345444   4.188  10.851  17.560
 5870ETHO    C245445   4.104  10.808  17.752
 5870ETHO   H2145446   3.999  10.791  17.720
 5870ETHO   H2345447   4.118  10.914  17.782
 5871ETHO    O145448   4.131  10.718  17.866
 5871ETHO    C145449   4.009  10.677  17.928
 5871ETHO   H1145450   4.044  10.642  18.028
 5871ETHO   H1345451   3.949  10.770  17.917
 5871ETHO    C245452   3.932  10.572  17.854
 5871ETHO   H2145453   3.915  10.583  17.745
 5871ETHO   H2345454   3.833  10.555  17.903
 5872ETHO    O145455   4.013  10.463  17.872
 5872ETHO    C145456   3.948  10.354  17.922
 5872ETHO   H1145457   3.905  10.360  18.024
 5872ETHO   H1345458   3.863  10.330  17.855
 5872ETHO    C245459   4.043  10.242  17.931
 5872ETHO   H2145460   4.125  10.269  18.001
 5872ETHO   H2345461   4.094  10.238  17.832
 5873ETHO    O145462   3.985  10.125  17.978
 5873ETHO    C145463   4.090  10.030  18.012
 5873ETHO   H1145464   4.165  10.026  17.930
 5873ETHO   H1345465   4.133  10.072  18.105
 5873ETHO    C245466   4.040   9.888  18.026
 5873ETHO   H2145467   3.932   9.884  18.051
 5873ETHO   H2345468   4.076   9.843  18.121
 5874ETHO    O145469   4.071   9.801  17.915
 5874ETHO    C145470   3.967   9.824  17.817
 5874ETHO   H1145471   3.873   9.804  17.873
 5874ETHO   H1345472   3.963   9.933  17.795
 5874ETHO    C245473   3.984   9.728  17.698
 5874ETHO   H2145474   3.895   9.748  17.635
 5874ETHO   H2345475   3.973   9.623  17.732
 5875ETHO    O145476   4.106   9.760  17.627
 5875ETHO    C145477   4.133   9.667  17.527
 5875ETHO   H1145478   4.054   9.675  17.449
 5875ETHO   H1345479   4.153   9.570  17.576
 5875ETHO    C245480   4.273   9.716  17.481
 5875ETHO   H2145481   4.259   9.824  17.460
 5875ETHO   H2345482   4.290   9.658  17.387
 5876ETHO    O145483   4.390   9.702  17.568
 5876ETHO    C145484   4.512   9.703  17.482
 5876ETHO   H1145485   4.521   9.604  17.432
 5876ETHO   H1345486   4.493   9.766  17.393
 5876ETHO    C245487   4.635   9.740  17.554
 5876ETHO   H2145488   4.719   9.760  17.484
 5876ETHO   H2345489   4.664   9.650  17.612
 5877ETHO    O145490   4.599   9.860  17.622
 5877ETHO    C145491   4.713   9.909  17.692
 5877ETHO   H1145492   4.793   9.934  17.619
 5877ETHO   H1345493   4.748   9.833  17.764
 5877ETHO    C245494   4.690  10.041  17.760
 5877ETHO   H2145495   4.757  10.063  17.845
 5877ETHO   H2345496   4.593  10.032  17.814
 5878ETHO    O145497   4.690  10.146  17.662
 5878ETHO    C145498   4.655  10.272  17.718
 5878ETHO   H1145499   4.565  10.254  17.781
 5878ETHO   H1345500   4.735  10.304  17.787
 5878ETHO    C245501   4.638  10.374  17.601
 5878ETHO   H2145502   4.594  10.330  17.508
 5878ETHO   H2345503   4.576  10.463  17.626
 5879ETHO    O145504   4.761  10.436  17.563
 5879ETHO    C145505   4.845  10.339  17.506
 5879ETHO   H1145506   4.788  10.272  17.438
 5879ETHO   H1345507   4.885  10.283  17.593
 5879ETHO    C245508   4.956  10.407  17.426
 5879ETHO   H2145509   5.040  10.337  17.407
 5879ETHO   H2345510   4.987  10.503  17.473
 5880ETHO    O145511   4.917  10.452  17.299
 5880ETHO    C145512   5.021  10.522  17.232
 5880ETHO   H1145513   5.047  10.619  17.278
 5880ETHO   H1345514   5.117  10.467  17.238
 5880ETHO    C245515   4.988  10.558  17.090
 5880ETHO   H2145516   5.065  10.619  17.038
 5880ETHO   H2345517   4.899  10.623  17.105
 5881ETHO    O145518   4.965  10.441  17.014
 5881ETHO    C145519   4.899  10.478  16.895
 5881ETHO   H1145520   4.965  10.549  16.839
 5881ETHO   H1345521   4.804  10.527  16.926
 5881ETHO    C245522   4.868  10.354  16.820
 5881ETHO   H2145523   4.805  10.376  16.731
 5881ETHO   H2345524   4.817  10.287  16.892
 5882ETHO    O145525   4.996  10.298  16.779
 5882ETHO    C145526   4.982  10.161  16.734
 5882ETHO   H1145527   4.944  10.092  16.812
 5882ETHO   H1345528   4.909  10.152  16.651
 5882ETHO    C245529   5.118  10.094  16.702
 5882ETHO   H2145530   5.107   9.992  16.660
 5882ETHO   H2345531   5.173  10.087  16.798
 5883ETHO    O145532   5.194  10.168  16.608
 5883ETHO    C145533   5.158  10.134  16.471
 5883ETHO   H1145534   5.076  10.060  16.455
 5883ETHO   H1345535   5.115  10.217  16.412
 5883ETHO    C245536   5.279  10.073  16.395
 5883ETHO   H2145537   5.240  10.050  16.294
 5883ETHO   H2345538   5.314   9.983  16.449
 5884ETHO    O145539   5.383  10.171  16.382
 5884ETHO    C145540   5.511  10.119  16.362
 5884ETHO   H1145541   5.500  10.053  16.274
 5884ETHO   H1345542   5.580  10.200  16.330
 5884ETHO    C245543   5.568  10.049  16.490
 5884ETHO   H2145544   5.610   9.949  16.464
 5884ETHO   H2345545   5.486  10.022  16.559
 5885ETHO    O145546   5.664  10.127  16.560
 5885ETHO    C145547   5.732  10.066  16.664
 5885ETHO   H1145548   5.753  10.148  16.737
 5885ETHO   H1345549   5.657  10.005  16.720
 5885ETHO    C245550   5.850   9.977  16.634
 5885ETHO   H2145551   5.875   9.924  16.728
 5885ETHO   H2345552   5.822   9.911  16.549
 5886ETHO    O145553   5.961  10.054  16.606
 5886ETHO    C145554   6.076   9.969  16.594
 5886ETHO   H1145555   6.052   9.876  16.537
 5886ETHO   H1345556   6.109   9.932  16.693
 5886ETHO    C245557   6.181  10.056  16.511
 5886ETHO   H2145558   6.124  10.082  16.419
 5886ETHO   H2345559   6.259   9.979  16.489
 5887ETHO    O145560   6.228  10.173  16.573
 5887ETHO    C145561   6.311  10.239  16.474
 5887ETHO   H1145562   6.398  10.172  16.454
 5887ETHO   H1345563   6.256  10.242  16.378
 5887ETHO    C245564   6.366  10.375  16.526
 5887ETHO   H2145565   6.471  10.387  16.492
 5887ETHO   H2345566   6.384  10.378  16.636
 5888ETHO    O145567   6.282  10.489  16.493
 5888ETHO    C145568   6.172  10.504  16.580
 5888ETHO   H1145569   6.206  10.543  16.678
 5888ETHO   H1345570   6.132  10.404  16.607
 5888ETHO    C245571   6.054  10.581  16.524
 5888ETHO   H2145572   5.956  10.543  16.561
 5888ETHO   H2345573   6.043  10.583  16.414
 5889ETHO    O145574   6.059  10.720  16.560
 5889ETHO    C145575   5.951  10.799  16.499
 5889ETHO   H1145576   5.984  10.835  16.399
 5889ETHO   H1345577   5.866  10.729  16.489
 5889ETHO    C245578   5.914  10.910  16.602
 5889ETHO   H2145579   5.821  10.957  16.565
 5889ETHO   H2345580   6.000  10.980  16.595
 5890ETHO    O145581   5.888  10.869  16.734
 5890ETHO    C145582   5.852  10.975  16.826
 5890ETHO   H1145583   5.759  10.936  16.871
 5890ETHO   H1345584   5.820  11.068  16.774
 5890ETHO    C245585   5.948  10.997  16.943
 5890ETHO   H2145586   5.914  11.088  16.997
 5890ETHO   H2345587   6.048  11.011  16.896
 5891ETHO    O145588   5.940  10.884  17.030
 5891ETHO    C145589   6.062  10.873  17.101
 5891ETHO   H1145590   6.152  10.903  17.042
 5891ETHO   H1345591   6.061  10.948  17.183
 5891ETHO    C245592   6.090  10.738  17.165
 5891ETHO   H2145593   6.188  10.741  17.217
 5891ETHO   H2345594   6.084  10.654  17.092
 5892ETHO    O145595   5.992  10.724  17.266
 5892ETHO    C145596   5.973  10.588  17.312
 5892ETHO   H1145597   6.067  10.543  17.350
 5892ETHO   H1345598   5.940  10.516  17.234
 5892ETHO    C245599   5.869  10.596  17.423
 5892ETHO   H2145600   5.779  10.650  17.388
 5892ETHO   H2345601   5.915  10.655  17.506
 5893ETHO    O145602   5.833  10.462  17.466
 5893ETHO    C145603   5.921  10.410  17.568
 5893ETHO   H1145604   6.017  10.377  17.522
 5893ETHO   H1345605   5.944  10.485  17.646
 5893ETHO    C245606   5.853  10.293  17.636
 5893ETHO   H2145607   5.922  10.257  17.715
 5893ETHO   H2345608   5.836  10.204  17.572
 5894ETHO    O145609   5.735  10.347  17.691
 5894ETHO    C145610   5.680  10.261  17.789
 5894ETHO   H1145611   5.756  10.247  17.869
 5894ETHO   H1345612   5.673  10.159  17.745
 5894ETHO    C245613   5.555  10.325  17.835
 5894ETHO   H2145614   5.571  10.434  17.849
 5894ETHO   H2345615   5.517  10.276  17.927
 5895ETHO    O145616   5.455  10.307  17.741
 5895ETHO    C145617   5.321  10.321  17.791
 5895ETHO   H1145618   5.321  10.275  17.892
 5895ETHO   H1345619   5.302  10.430  17.789
 5895ETHO    C245620   5.224  10.256  17.685
 5895ETHO   H2145621   5.246  10.281  17.579
 5895ETHO   H2345622   5.132  10.317  17.697
 5896ETHO    O145623   5.193  10.123  17.714
 5896ETHO    C145624   5.110  10.063  17.611
 5896ETHO   H1145625   5.132  10.100  17.508
 5896ETHO   H1345626   5.011  10.105  17.640
 5896ETHO    C245627   5.109   9.905  17.609
 5896ETHO   H2145628   5.214   9.872  17.589
 5896ETHO   H2345629   5.043   9.883  17.523
 5897ETHO    O145630   5.058   9.837  17.725
 5897ETHO    C145631   5.055   9.699  17.702
 5897ETHO   H1145632   4.995   9.686  17.610
 5897ETHO   H1345633   5.158   9.666  17.678
 5897ETHO    C245634   4.992   9.617  17.818
 5897ETHO   H2145635   5.018   9.671  17.912
 5897ETHO   H2345636   5.049   9.522  17.817
 5898ETHO    O145637   4.850   9.596  17.808
 5898ETHO    C145638   4.798   9.508  17.903
 5898ETHO   H1145639   4.847   9.409  17.907
 5898ETHO   H1345640   4.831   9.547  18.002
 5898ETHO    C245641   4.651   9.484  17.890
 5898ETHO   H2145642   4.592   9.577  17.903
 5898ETHO   H2345643   4.605   9.411  17.961
 5899ETHO    O145644   4.628   9.419  17.767
 5899ETHO    C145645   4.493   9.375  17.742
 5899ETHO   H1145646   4.459   9.298  17.815
 5899ETHO   H1345647   4.418   9.457  17.743
 5899ETHO    C245648   4.487   9.319  17.602
 5899ETHO   H2145649   4.556   9.232  17.607
 5899ETHO   H2345650   4.521   9.392  17.525
 5900ETHO    O145651   4.358   9.282  17.562
 5900ETHO    C145652   4.351   9.287  17.420
 5900ETHO   H1145653   4.378   9.391  17.392
 5900ETHO   H1345654   4.427   9.222  17.371
 5900ETHO    C245655   4.216   9.231  17.362
 5900ETHO   H2145656   4.210   9.129  17.405
 5900ETHO   H2345657   4.233   9.229  17.252
 5901ETHO    O145658   4.115   9.318  17.399
 5901ETHO    C145659   3.991   9.248  17.394
 5901ETHO   H1145660   4.002   9.152  17.447
 5901ETHO   H1345661   3.961   9.219  17.291
 5901ETHO    C245662   3.881   9.329  17.454
 5901ETHO   H2145663   3.921   9.380  17.545
 5901ETHO   H2345664   3.793   9.272  17.490
 5902ETHO    O145665   3.840   9.427  17.365
 5902ETHO    C145666   3.779   9.534  17.431
 5902ETHO   H1145667   3.688   9.489  17.476
 5902ETHO   H1345668   3.848   9.575  17.509
 5902ETHO    C245669   3.751   9.654  17.339
 5902ETHO   H2145670   3.709   9.732  17.406
 5902ETHO   H2345671   3.675   9.623  17.265
 5903ETHO    O145672   3.870   9.699  17.272
 5903ETHO    C145673   3.842   9.834  17.226
 5903ETHO   H1145674   3.827   9.895  17.318
 5903ETHO   H1345675   3.756   9.827  17.156
 5903ETHO    C245676   3.957   9.908  17.149
 5903ETHO   H2145677   4.035   9.920  17.227
 5903ETHO   H2345678   3.929  10.012  17.119
 5904ETHO    O145679   3.989   9.839  17.032
 5904ETHO    C145680   4.088   9.907  16.953
 5904ETHO   H1145681   4.135   9.831  16.887
 5904ETHO   H1345682   4.036   9.992  16.903
 5904ETHO    C245683   4.203   9.980  17.028
 5904ETHO   H2145684   4.281   9.999  16.951
 5904ETHO   H2345685   4.239   9.908  17.104
 5905ETHO    O145686   4.163  10.107  17.078
 5905ETHO    C145687   4.271  10.169  17.149
 5905ETHO   H1145688   4.367  10.139  17.102
 5905ETHO   H1345689   4.272  10.137  17.255
 5905ETHO    C245690   4.260  10.320  17.134
 5905ETHO   H2145691   4.349  10.369  17.179
 5905ETHO   H2345692   4.169  10.352  17.189
 5906ETHO    O145693   4.246  10.365  17.002
 5906ETHO    C145694   4.218  10.502  17.004
 5906ETHO   H1145695   4.127  10.527  17.062
 5906ETHO   H1345696   4.307  10.555  17.043
 5906ETHO    C245697   4.194  10.568  16.865
 5906ETHO   H2145698   4.181  10.674  16.897
 5906ETHO   H2345699   4.106  10.525  16.812
 5907ETHO    O145700   4.313  10.548  16.781
 5907ETHO    C145701   4.294  10.600  16.654
 5907ETHO   H1145702   4.259  10.706  16.647
 5907ETHO   H1345703   4.213  10.531  16.621
 5907ETHO    C245704   4.415  10.584  16.560
 5907ETHO   H2145705   4.499  10.627  16.618
 5907ETHO   H2345706   4.404  10.644  16.467
 5908ETHO    O145707   4.440  10.456  16.514
 5908ETHO    C145708   4.536  10.384  16.582
 5908ETHO   H1145709   4.633  10.438  16.572
 5908ETHO   H1345710   4.523  10.373  16.691
 5908ETHO    C245711   4.539  10.244  16.543
 5908ETHO   H2145712   4.623  10.194  16.595
 5908ETHO   H2345713   4.558  10.233  16.434
 5909ETHO    O145714   4.426  10.174  16.582
 5909ETHO    C145715   4.410  10.040  16.524
 5909ETHO   H1145716   4.373  10.056  16.421
 5909ETHO   H1345717   4.510   9.997  16.503
 5909ETHO    C245718   4.316   9.951  16.608
 5909ETHO   H2145719   4.308   9.857  16.550
 5909ETHO   H2345720   4.217  10.000  16.611
 5910ETHO    O145721   4.358   9.923  16.742
 5910ETHO    C145722   4.433   9.810  16.758
 5910ETHO   H1145723   4.383   9.718  16.722
 5910ETHO   H1345724   4.529   9.812  16.701
 5910ETHO    C245725   4.471   9.771  16.905
 5910ETHO   H2145726   4.518   9.671  16.897
 5910ETHO   H2345727   4.376   9.756  16.961
 5911ETHO    O145728   4.549   9.874  16.960
 5911ETHO    C145729   4.580   9.843  17.099
 5911ETHO   H1145730   4.489   9.811  17.154
 5911ETHO   H1345731   4.649   9.756  17.096
 5911ETHO    C245732   4.642   9.966  17.166
 5911ETHO   H2145733   4.564  10.045  17.161
 5911ETHO   H2345734   4.664   9.937  17.270
 5912ETHO    O145735   4.769  10.002  17.112
 5912ETHO    C145736   4.823  10.129  17.155
 5912ETHO   H1145737   4.800  10.138  17.263
 5912ETHO   H1345738   4.780  10.211  17.094
 5912ETHO    C245739   4.975  10.142  17.135
 5912ETHO   H2145740   4.994  10.250  17.152
 5912ETHO   H2345741   5.003  10.118  17.031
 5913ETHO    O145742   5.059  10.080  17.227
 5913ETHO    C145743   5.190  10.094  17.182
 5913ETHO   H1145744   5.205  10.034  17.090
 5913ETHO   H1345745   5.195  10.204  17.167
 5913ETHO    C245746   5.299  10.042  17.276
 5913ETHO   H2145747   5.386  10.013  17.212
 5913ETHO   H2345748   5.248   9.952  17.317
 5914ETHO    O145749   5.344  10.134  17.370
 5914ETHO    C145750   5.432  10.237  17.322
 5914ETHO   H1145751   5.423  10.317  17.398
 5914ETHO   H1345752   5.403  10.267  17.219
 5914ETHO    C245753   5.584  10.213  17.313
 5914ETHO   H2145754   5.602  10.123  17.376
 5914ETHO   H2345755   5.630  10.294  17.372
 5915ETHO    O145756   5.639  10.191  17.182
 5915ETHO    C145757   5.778  10.167  17.194
 5915ETHO   H1145758   5.824  10.245  17.258
 5915ETHO   H1345759   5.788  10.065  17.237
 5915ETHO    C245760   5.864  10.188  17.068
 5915ETHO   H2145761   5.806  10.153  16.980
 5915ETHO   H2345762   5.955  10.131  17.096
 5916ETHO    O145763   5.891  10.326  17.035
 5916ETHO    C145764   5.998  10.342  16.942
 5916ETHO   H1145765   5.980  10.444  16.902
 5916ETHO   H1345766   5.999  10.275  16.854
 5916ETHO    C245767   6.131  10.318  17.006
 5916ETHO   H2145768   6.174  10.217  16.989
 5916ETHO   H2345769   6.131  10.332  17.116
 5917ETHO    O145770   6.232  10.406  16.954
 5917ETHO    C145771   6.363  10.367  16.999
 5917ETHO   H1145772   6.350  10.339  17.105
 5917ETHO   H1345773   6.390  10.273  16.946
 5917ETHO    C245774   6.473  10.478  16.984
 5917ETHO   H2145775   6.567  10.470  17.043
 5917ETHO   H2345776   6.416  10.563  17.026
 5918ETHO    O145777   6.500  10.486  16.840
 5918ETHO    C145778   6.513  10.619  16.793
 5918ETHO   H1145779   6.557  10.691  16.865
 5918ETHO   H1345780   6.410  10.654  16.770
 5918ETHO    C245781   6.583  10.632  16.656
 5918ETHO   H2145782   6.569  10.738  16.626
 5918ETHO   H2345783   6.537  10.561  16.584
 5919ETHO    O145784   6.723  10.614  16.657
 5919ETHO    C145785   6.764  10.488  16.700
 5919ETHO   H1145786   6.766  10.476  16.810
 5919ETHO   H1345787   6.691  10.419  16.651
 5919ETHO    C245788   6.918  10.466  16.657
 5919ETHO   H2145789   6.959  10.373  16.702
 5919ETHO   H2345790   6.966  10.558  16.697
 5920ETHO    O145791   6.917  10.458  16.519
 5920ETHO    C145792   7.031  10.515  16.456
 5920ETHO   H1145793   7.112  10.483  16.525
 5920ETHO   H1345794   7.041  10.467  16.356
 5920ETHO    C245795   7.011  10.660  16.425
 5920ETHO   H2145796   7.024  10.720  16.517
 5920ETHO   H2345797   6.907  10.675  16.389
 5921ETHO    O145798   7.096  10.714  16.327
 5921ETHO    C145799   7.106  10.859  16.341
 5921ETHO   H1145800   7.007  10.902  16.368
 5921ETHO   H1345801   7.176  10.891  16.421
 5921ETHO    C245802   7.158  10.924  16.213
 5921ETHO   H2145803   7.126  11.030  16.214
 5921ETHO   H2345804   7.109  10.863  16.134
 5922ETHO    O145805   7.300  10.932  16.199
 5922ETHO    C145806   7.369  10.814  16.160
 5922ETHO   H1145807   7.325  10.720  16.200
 5922ETHO   H1345808   7.368  10.807  16.049
 5922ETHO    C245809   7.515  10.829  16.203
 5922ETHO   H2145810   7.571  10.735  16.185
 5922ETHO   H2345811   7.510  10.848  16.313
 5923ETHO    O145812   7.585  10.939  16.134
 5923ETHO    C145813   7.703  10.974  16.204
 5923ETHO   H1145814   7.669  10.980  16.310
 5923ETHO   H1345815   7.738  11.074  16.173
 5923ETHO    C245816   7.815  10.881  16.177
 5923ETHO   H2145817   7.800  10.776  16.211
 5923ETHO   H2345818   7.899  10.919  16.239
 5924ETHO    O145819   7.857  10.887  16.040
 5924ETHO    C145820   7.985  10.817  16.014
 5924ETHO   H1145821   8.064  10.852  16.084
 5924ETHO   H1345822   7.970  10.708  16.029
 5924ETHO    C245823   8.037  10.829  15.869
 5924ETHO   H2145824   7.942  10.817  15.812
 5924ETHO   H2345825   8.114  10.751  15.847
 5925ETHO    O145826   8.090  10.959  15.839
 5925ETHO    C145827   8.112  10.964  15.699
 5925ETHO   H1145828   8.016  10.955  15.645
 5925ETHO   H1345829   8.169  10.879  15.656
 5925ETHO    C245830   8.173  11.101  15.662
 5925ETHO   H2145831   8.136  11.188  15.719
 5925ETHO   H2345832   8.150  11.123  15.556
 5926ETHO    O145833   8.319  11.093  15.673
 5926ETHO    C145834   8.377  11.224  15.691
 5926ETHO   H1145835   8.331  11.286  15.611
 5926ETHO   H1345836   8.359  11.256  15.796
 5926ETHO    C245837   8.528  11.237  15.681
 5926ETHO   H2145838   8.576  11.197  15.773
 5926ETHO   H2345839   8.573  11.335  15.656
 5927ETHO    O145840   8.565  11.151  15.575
 5927ETHO    C145841   8.703  11.165  15.543
 5927ETHO   H1145842   8.757  11.120  15.629
 5927ETHO   H1345843   8.729  11.271  15.526
 5927ETHO    C245844   8.722  11.089  15.404
 5927ETHO   H2145845   8.831  11.093  15.389
 5927ETHO   H2345846   8.680  11.148  15.320
 5928ETHO    O145847   8.674  10.956  15.410
 5928ETHO    C145848   8.727  10.873  15.301
 5928ETHO   H1145849   8.838  10.873  15.294
 5928ETHO   H1345850   8.695  10.775  15.343
 5928ETHO    C245851   8.666  10.900  15.164
 5928ETHO   H2145852   8.556  10.911  15.172
 5928ETHO   H2345853   8.695  10.810  15.106
 5929ETHO    O145854   8.724  11.011  15.096
 5929ETHO    C145855   8.669  11.028  14.964
 5929ETHO   H1145856   8.615  11.125  14.964
 5929ETHO   H1345857   8.594  10.950  14.938
 5929ETHO    C245858   8.772  11.019  14.854
 5929ETHO   H2145859   8.729  11.027  14.752
 5929ETHO   H2345860   8.826  10.922  14.856
 5930ETHO    O145861   8.873  11.127  14.857
 5930ETHO    C145862   8.964  11.111  14.749
 5930ETHO   H1145863   8.975  11.010  14.705
 5930ETHO   H1345864   8.921  11.161  14.660
 5930ETHO    C245865   9.100  11.172  14.772
 5930ETHO   H2145866   9.090  11.278  14.803
 5930ETHO   H2345867   9.149  11.160  14.673
 5931PROX    O145868   9.184  11.091  14.856
 5931PROX    C145869   9.321  11.136  14.876
 5931PROX   H1145870   9.378  11.153  14.782
 5931PROX   H1345871   9.320  11.235  14.927
 5931PROX    C245872   9.394  11.021  14.955
 5931PROX   H2145873   9.391  10.927  14.896
 5931PROX    C345874   9.335  10.996  15.092
 5931PROX   H3145875   9.374  10.905  15.141
 5931PROX   H3245876   9.361  11.079  15.161
 5931PROX   H3345877   9.226  10.975  15.087
 5932PROX    O145878   9.532  11.060  14.970
 5932PROX    C145879   9.617  10.943  14.980
 5932PROX   H1145880   9.687  10.948  15.066
 5932PROX   H1345881   9.560  10.849  14.995
 5932PROX    C245882   9.706  10.938  14.858
 5932PROX   H2145883   9.744  11.041  14.840
 5932PROX    C345884   9.634  10.899  14.729
 5932PROX   H3145885   9.576  10.805  14.740
 5932PROX   H3245886   9.559  10.979  14.711
 5932PROX   H3345887   9.703  10.890  14.642
 5933PROX    O145888   9.821  10.859  14.868
 5933PROX    C145889   9.933  10.931  14.919
 5933PROX   H1145890   9.955  11.013  14.847
 5933PROX   H1345891   9.911  10.972  15.020
 5933PROX    C245892  10.064  10.851  14.924
 5933PROX   H2145893  10.048  10.748  14.962
 5933PROX    C345894  10.162  10.924  15.015
 5933PROX   H3145895  10.264  10.879  15.013
 5933PROX   H3245896  10.174  11.031  14.987
 5933PROX   H3345897  10.127  10.910  15.119
 5934PROX    O145898  10.145  10.847  14.801
 5934PROX    C145899  10.069  10.794  14.685
 5934PROX   H1145900   9.976  10.852  14.666
 5934PROX   H1345901  10.131  10.812  14.595
 5934PROX    C245902  10.048  10.641  14.697
 5934PROX   H2145903   9.993  10.620  14.792
 5934PROX    C345904  10.186  10.565  14.717
 5934PROX   H3145905  10.250  10.633  14.777
 5934PROX   H3245906  10.177  10.469  14.772
 5934PROX   H3345907  10.240  10.556  14.620
 5935PROX    O145908   9.973  10.578  14.594
 5935PROX    C145909   9.842  10.629  14.572
 5935PROX   H1145910   9.776  10.613  14.660
 5935PROX   H1345911   9.848  10.738  14.551
 5935PROX    C245912   9.785  10.554  14.449
 5935PROX   H2145913   9.857  10.579  14.368
 5935PROX    C345914   9.644  10.609  14.413
 5935PROX   H3145915   9.608  10.569  14.316
 5935PROX   H3245916   9.575  10.592  14.498
 5935PROX   H3345917   9.648  10.719  14.398
 5936PROX    O145918   9.786  10.405  14.471
 5936PROX    C145919   9.788  10.333  14.344
 5936PROX   H1145920   9.688  10.350  14.297
 5936PROX   H1345921   9.874  10.374  14.288
 5936PROX    C245922   9.815  10.187  14.367
 5936PROX   H2145923   9.748  10.147  14.446
 5936PROX    C345924   9.958  10.173  14.422
 5936PROX   H3145925  10.026  10.208  14.341
 5936PROX   H3245926   9.980  10.227  14.517
 5936PROX   H3345927   9.987  10.069  14.450
 5937PROX    O145928   9.799  10.103  14.249
 5937PROX    C145929   9.887  10.131  14.143
 5937PROX   H1145930   9.908  10.238  14.124
 5937PROX   H1345931   9.986  10.084  14.164
 5937PROX    C245932   9.827  10.064  14.018
 5937PROX   H2145933   9.795   9.961  14.043
 5937PROX    C345934   9.917  10.081  13.886
 5937PROX   H3145935   9.916  10.188  13.858
 5937PROX   H3245936  10.018  10.047  13.918
 5937PROX   H3345937   9.879  10.019  13.802
 5938PROX    O145938   9.699  10.134  13.996
 5938PROX    C145939   9.626  10.074  13.899
 5938PROX   H1145940   9.669  10.091  13.798
 5938PROX   H1345941   9.621   9.966  13.923
 5938PROX    C245942   9.482  10.139  13.890
 5938PROX   H2145943   9.419  10.092  13.968
 5938PROX    C345944   9.434  10.118  13.747
 5938PROX   H3145945   9.476  10.022  13.711
 5938PROX   H3245946   9.323  10.117  13.735
 5938PROX   H3345947   9.473  10.191  13.672
 5939PROX    O145948   9.496  10.279  13.924
 5939PROX    C145949   9.379  10.355  13.890
 5939PROX   H1145950   9.392  10.393  13.787
 5939PROX   H1345951   9.285  10.295  13.896
 5939PROX    C245952   9.371  10.478  13.982
 5939PROX   H2145953   9.462  10.543  13.973
 5939PROX    C345954   9.351  10.437  14.132
 5939PROX   H3145955   9.264  10.368  14.136
 5939PROX   H3245956   9.437  10.383  14.177
 5939PROX   H3345957   9.335  10.532  14.186
 5940PROX    O145958   9.264  10.560  13.951
 5940PROX    C145959   9.265  10.621  13.824
 5940PROX   H1145960   9.366  10.631  13.778
 5940PROX   H1345961   9.204  10.556  13.758
 5940PROX    C245962   9.196  10.760  13.831
 5940PROX   H2145963   9.089  10.743  13.856
 5940PROX    C345964   9.183  10.841  13.696
 5940PROX   H3145965   9.109  10.791  13.630
 5940PROX   H3245966   9.155  10.941  13.736
 5940PROX   H3345967   9.282  10.850  13.648
 5941PROX    O145968   9.248  10.845  13.931
 5941PROX    C145969   9.376  10.900  13.895
 5941PROX   H1145970   9.436  10.824  13.842
 5941PROX   H1345971   9.362  10.997  13.842
 5941PROX    C245972   9.454  10.929  14.025
 5941PROX   H2145973   9.429  10.843  14.090
 5941PROX    C345974   9.430  11.064  14.091
 5941PROX   H3145975   9.497  11.083  14.178
 5941PROX   H3245976   9.448  11.144  14.016
 5941PROX   H3345977   9.327  11.077  14.132
 5942PROX    O145978   9.595  10.927  14.002
 5942PROX    C145979   9.667  10.882  14.125
 5942PROX   H1145980   9.695  10.973  14.182
 5942PROX   H1345981   9.603  10.823  14.195
 5942PROX    C245982   9.787  10.795  14.090
 5942PROX   H2145983   9.857  10.848  14.021
 5942PROX    C345984   9.751  10.675  14.009
 5942PROX   H3145985   9.682  10.619  14.076
 5942PROX   H3245986   9.700  10.696  13.913
 5942PROX   H3345987   9.846  10.624  13.981
 5943PROX    O145988   9.851  10.754  14.210
 5943PROX    C145989   9.908  10.856  14.290
 5943PROX   H1145990   9.836  10.925  14.339
 5943PROX   H1345991   9.954  10.806  14.378
 5943PROX    C245992  10.021  10.935  14.216
 5943PROX   H2145993  10.077  10.865  14.150
 5943PROX    C345994  10.130  10.996  14.310
 5943PROX   H3145995  10.082  11.064  14.383
 5943PROX   H3245996  10.182  10.911  14.359
 5943PROX   H3345997  10.204  11.057  14.253
 5944PROX    O145998   9.958  11.033  14.125
 5944PROX    C145999  10.033  11.061  14.010
 5944PROX   H1146000  10.131  11.102  14.043
 5944PROX   H1346001  10.038  10.968  13.949
 5944PROX    C246002   9.960  11.178  13.924
 5944PROX   H2146003   9.917  11.244  14.002
 5944PROX    C346004   9.840  11.130  13.836
 5944PROX   H3146005   9.786  11.227  13.828
 5944PROX   H3246006   9.875  11.103  13.734
 5944PROX   H3346007   9.781  11.050  13.885
 5945PROX    O146008  10.057  11.238  13.849
 5945PROX    C146009  10.008  11.357  13.790
 5945PROX   H1146010   9.971  11.338  13.687
 5945PROX   H1346011   9.935  11.402  13.861
 5945PROX    C246012  10.118  11.461  13.768
 5945PROX   H2146013  10.182  11.466  13.858
 5945PROX    C346014  10.076  11.600  13.737
 5945PROX   H3146015  10.168  11.660  13.721
 5945PROX   H3246016  10.011  11.612  13.648
 5945PROX   H3346017  10.032  11.635  13.833
 5946PROX    O146018  10.195  11.424  13.648
 5946PROX    C146019  10.271  11.310  13.666
 5946PROX   H1146020  10.346  11.328  13.746
 5946PROX   H1346021  10.213  11.217  13.684
 5946PROX    C246022  10.346  11.285  13.541
 5946PROX   H2146023  10.409  11.194  13.553
 5946PROX    C346024  10.434  11.397  13.486
 5946PROX   H3146025  10.533  11.395  13.535
 5946PROX   H3246026  10.458  11.384  13.378
 5946PROX   H3346027  10.381  11.494  13.500
 5947PROX    O146028  10.258  11.267  13.432
 5947PROX    C146029  10.225  11.130  13.417
 5947PROX   H1146030  10.293  11.071  13.351
 5947PROX   H1346031  10.214  11.085  13.518
 5947PROX    C246032  10.084  11.115  13.358
 5947PROX   H2146033  10.085  11.170  13.262
 5947PROX    C346034   9.976  11.170  13.447
 5947PROX   H3146035  10.020  11.267  13.477
 5947PROX   H3246036   9.877  11.181  13.398
 5947PROX   H3346037   9.974  11.108  13.539
 5948PROX    O146038  10.051  10.976  13.336
 5948PROX    C146039   9.962  10.960  13.224
 5948PROX   H1146040   9.859  10.998  13.243
 5948PROX   H1346041   9.995  11.011  13.131
 5948PROX    C246042   9.943  10.812  13.185
 5948PROX   H2146043   9.882  10.765  13.266
 5948PROX    C346044  10.076  10.737  13.150
 5948PROX   H3146045  10.164  10.746  13.217
 5948PROX   H3246046  10.055  10.630  13.131
 5948PROX   H3346047  10.113  10.781  13.055
 5949PROX    O146048   9.873  10.803  13.062
 5949PROX    C146049   9.785  10.686  13.067
 5949PROX   H1146050   9.782  10.645  12.964
 5949PROX   H1346051   9.828  10.605  13.128
 5949PROX    C246052   9.640  10.705  13.118
 5949PROX   H2146053   9.631  10.749  13.219
 5949PROX    C346054   9.581  10.562  13.133
 5949PROX   H3146055   9.564  10.525  13.030
 5949PROX   H3246056   9.654  10.492  13.177
 5949PROX   H3346057   9.487  10.556  13.191
 5950PROX    O146058   9.563  10.781  13.027
 5950PROX    C146059   9.603  10.919  13.028
 5950PROX   H1146060   9.671  10.933  13.115
 5950PROX   H1346061   9.640  10.950  12.927
 5950PROX    C246062   9.490  11.016  13.056
 5950PROX   H2146063   9.417  11.018  12.972
 5950PROX    C346064   9.551  11.159  13.056
 5950PROX   H3146065   9.492  11.240  13.105
 5950PROX   H3246066   9.648  11.163  13.111
 5950PROX   H3346067   9.575  11.188  12.952
 5951PROX    O146068   9.436  10.972  13.172
 5951PROX    C146069   9.339  11.048  13.239
 5951PROX   H1146070   9.393  11.136  13.278
 5951PROX   H1346071   9.263  11.071  13.160
 5951PROX    C246072   9.273  10.964  13.348
 5951PROX   H2146073   9.255  10.861  13.312
 5951PROX    C346074   9.150  11.026  13.395
 5951PROX   H3146075   9.178  11.127  13.430
 5951PROX   H3246076   9.077  11.035  13.311
 5951PROX   H3346077   9.098  10.968  13.474
 5952PROX    O146078   9.364  10.957  13.463
 5952PROX    C146079   9.467  10.854  13.453
 5952PROX   H1146080   9.423  10.753  13.469
 5952PROX   H1346081   9.498  10.855  13.347
 5952PROX    C246082   9.592  10.877  13.543
 5952PROX   H2146083   9.559  10.895  13.647
 5952PROX    C346084   9.675  10.988  13.483
 5952PROX   H3146085   9.614  11.080  13.467
 5952PROX   H3246086   9.751  11.005  13.562
 5952PROX   H3346087   9.727  10.947  13.394
 5953PROX    O146088   9.672  10.767  13.540
 5953PROX    C146089   9.632  10.657  13.620
 5953PROX   H1146090   9.599  10.690  13.721
 5953PROX   H1346091   9.547  10.601  13.576
 5953PROX    C246092   9.743  10.553  13.622
 5953PROX   H2146093   9.787  10.548  13.520
 5953PROX    C346094   9.714  10.408  13.669
 5953PROX   H3146095   9.803  10.343  13.651
 5953PROX   H3246096   9.695  10.403  13.778
 5953PROX   H3346097   9.631  10.365  13.608
 5954PROX    O146098   9.836  10.598  13.715
 5954PROX    C146099   9.978  10.572  13.677
 5954PROX   H1146100  10.012  10.488  13.740
 5954PROX   H1346101  10.000  10.545  13.572
 5954PROX    C246102  10.058  10.703  13.706
 5954PROX   H2146103  10.030  10.733  13.809
 5954PROX    C346104  10.005  10.822  13.622
 5954PROX   H3146105  10.004  10.793  13.514
 5954PROX   H3246106   9.903  10.843  13.661
 5954PROX   H3346107  10.078  10.906  13.625
 5955PROX    O146108  10.200  10.673  13.705
 5955PROX    C146109  10.274  10.780  13.754
 5955PROX   H1146110  10.372  10.745  13.715
 5955PROX   H1346111  10.251  10.877  13.704
 5955PROX    C246112  10.281  10.778  13.910
 5955PROX   H2146113  10.182  10.800  13.956
 5955PROX    C346114  10.372  10.887  13.957
 5955PROX   H3146115  10.476  10.874  13.921
 5955PROX   H3246116  10.337  10.986  13.920
 5955PROX   H3346117  10.382  10.895  14.068
 5956PROX    O146118  10.320  10.654  13.968
 5956PROX    C146119  10.233  10.542  13.947
 5956PROX   H1146120  10.126  10.573  13.948
 5956PROX   H1346121  10.255  10.511  13.842
 5956PROX    C246122  10.255  10.423  14.035
 5956PROX   H2146123  10.361  10.410  14.065
 5956PROX    C346124  10.225  10.295  13.952
 5956PROX   H3146125  10.183  10.210  14.009
 5956PROX   H3246126  10.144  10.327  13.882
 5956PROX   H3346127  10.316  10.263  13.896
 5957PROX    O146128  10.170  10.429  14.149
 5957PROX    C146129  10.209  10.524  14.251
 5957PROX   H1146130  10.233  10.620  14.201
 5957PROX   H1346131  10.129  10.540  14.327
 5957PROX    C246132  10.337  10.472  14.333
 5957PROX   H2146133  10.405  10.424  14.260
 5957PROX    C346134  10.313  10.352  14.427
 5957PROX   H3146135  10.252  10.271  14.381
 5957PROX   H3246136  10.404  10.294  14.451
 5957PROX   H3346137  10.256  10.393  14.513
 5958PROX    O146138  10.408  10.575  14.404
 5958PROX    C146139  10.485  10.652  14.312
 5958PROX   H1146140  10.569  10.589  14.274
 5958PROX   H1346141  10.417  10.684  14.231
 5958PROX    C246142  10.544  10.783  14.378
 5958PROX   H2146143  10.632  10.740  14.429
 5958PROX    C346144  10.462  10.862  14.470
 5958PROX   H3146145  10.413  10.948  14.418
 5958PROX   H3246146  10.379  10.799  14.508
 5958PROX   H3346147  10.527  10.907  14.548
 5959PROX    O146148  10.593  10.866  14.269
 5959PROX    C146149  10.719  10.836  14.221
 5959PROX   H1146150  10.800  10.856  14.295
 5959PROX   H1346151  10.725  10.731  14.185
 5959PROX    C246152  10.759  10.934  14.106
 5959PROX   H2146153  10.685  10.930  14.024
 5959PROX    C346154  10.893  10.898  14.039
 5959PROX   H3146155  10.976  10.941  14.099
 5959PROX   H3246156  10.899  10.787  14.030
 5959PROX   H3346157  10.897  10.940  13.936
 5960PROX    O146158  10.772  11.068  14.162
 5960PROX    C146159  10.647  11.139  14.147
 5960PROX   H1146160  10.613  11.134  14.041
 5960PROX   H1346161  10.574  11.077  14.203
 5960PROX    C246162  10.648  11.279  14.206
 5960PROX   H2146163  10.686  11.280  14.310
 5960PROX    C346164  10.501  11.335  14.198
 5960PROX   H3146165  10.429  11.257  14.230
 5960PROX   H3246166  10.501  11.421  14.268
 5960PROX   H3346167  10.473  11.368  14.096
 5961PROX    O146168  10.732  11.354  14.117
 5961PROX    C146169  10.738  11.489  14.163
 5961PROX   H1146170  10.658  11.557  14.125
 5961PROX   H1346171  10.727  11.505  14.273
 5961PROX    C246172  10.881  11.555  14.128
 5961PROX   H2146173  10.897  11.545  14.018
 5961PROX    C346174  11.000  11.486  14.197
 5961PROX   H3146175  11.089  11.546  14.168
 5961PROX   H3246176  10.983  11.480  14.306
 5961PROX   H3346177  11.008  11.381  14.162
 5962PROX    O146178  10.887  11.693  14.162
 5962PROX    C146179  10.827  11.781  14.068
 5962PROX   H1146180  10.733  11.737  14.028
 5962PROX   H1346181  10.805  11.874  14.124
 5962PROX    C246182  10.924  11.819  13.955
 5962PROX   H2146183  10.941  11.729  13.892
 5962PROX    C346184  11.058  11.866  14.010
 5962PROX   H3146185  11.113  11.787  14.066
 5962PROX   H3246186  11.129  11.903  13.934
 5962PROX   H3346187  11.040  11.952  14.079
 5963PROX    O146188  10.882  11.931  13.884
 5963PROX    C146189  10.748  11.913  13.826
 5963PROX   H1146190  10.737  11.829  13.754
 5963PROX   H1346191  10.666  11.909  13.901
 5963PROX    C246192  10.712  12.039  13.749
 5963PROX   H2146193  10.799  12.068  13.685
 5963PROX    C346194  10.674  12.150  13.852
 5963PROX   H3146195  10.623  12.104  13.939
 5963PROX   H3246196  10.760  12.210  13.889
 5963PROX   H3346197  10.598  12.218  13.808
 5964PROX    O146198  10.597  11.999  13.676
 5964PROX    C146199  10.565  12.097  13.572
 5964PROX   H1146200  10.547  12.195  13.621
 5964PROX   H1346201  10.644  12.107  13.495
 5964PROX    C246202  10.431  12.069  13.509
 5964PROX   H2146203  10.417  12.131  13.418
 5964PROX    C346204  10.309  12.078  13.609
 5964PROX   H3146205  10.208  12.073  13.563
 5964PROX   H3246206  10.309  12.013  13.699
 5964PROX   H3346207  10.306  12.182  13.648
 5965PROX    O146208  10.430  11.927  13.469
 5965PROX    C146209  10.336  11.886  13.371
 5965PROX   H1146210  10.233  11.917  13.399
 5965PROX   H1346211  10.374  11.937  13.281
 5965PROX    C246212  10.332  11.733  13.363
 5965PROX   H2146213  10.321  11.686  13.463
 5965PROX    C346214  10.459  11.691  13.288
 5965PROX   H3146215  10.547  11.719  13.350
 5965PROX   H3246216  10.458  11.583  13.264
 5965PROX   H3346217  10.467  11.741  13.189
 5966PROX    O146218  10.220  11.696  13.285
 5966PROX    C146219  10.122  11.625  13.359
 5966PROX   H1146220  10.153  11.523  13.387
 5966PROX   H1346221  10.088  11.684  13.447
 5966PROX    C246222   9.997  11.595  13.265
 5966PROX   H2146223   9.955  11.697  13.250
 5966PROX    C346224   9.891  11.499  13.305
 5966PROX   H3146225   9.940  11.417  13.361
 5966PROX   H3246226   9.821  11.550  13.375
 5966PROX   H3346227   9.821  11.463  13.226
 5967PROX    O146228  10.043  11.554  13.134
 5967PROX    C146229  10.130  11.439  13.132
 5967PROX   H1146230  10.233  11.479  13.143
 5967PROX   H1346231  10.118  11.367  13.216
 5967PROX    C246232  10.110  11.364  12.997
 5967PROX   H2146233  10.167  11.417  12.918
 5967PROX    C346234   9.967  11.339  12.956
 5967PROX   H3146235   9.977  11.290  12.857
 5967PROX   H3246236   9.916  11.262  13.017
 5967PROX   H3346237   9.911  11.435  12.945
 5968PROX    O146238  10.168  11.236  13.020
 5968PROX    C146239  10.303  11.249  13.055
 5968PROX   H1146240  10.351  11.340  13.015
 5968PROX   H1346241  10.306  11.254  13.166
 5968PROX    C246242  10.393  11.129  13.003
 5968PROX   H2146243  10.419  11.145  12.896
 5968PROX    C346244  10.340  10.988  13.040
 5968PROX   H3146245  10.343  10.959  13.147
 5968PROX   H3246246  10.231  10.977  13.020
 5968PROX   H3346247  10.395  10.908  12.986
 5969PROX    O146248  10.511  11.118  13.083
 5969PROX    C146249  10.613  11.219  13.078
 5969PROX   H1146250  10.685  11.204  12.995
 5969PROX   H1346251  10.563  11.316  13.057
 5969PROX    C246252  10.682  11.235  13.214
 5969PROX   H2146253  10.782  11.189  13.204
 5969PROX    C346254  10.606  11.167  13.330
 5969PROX   H3146255  10.498  11.193  13.327
 5969PROX   H3246256  10.612  11.056  13.322
 5969PROX   H3346257  10.654  11.215  13.418
 5970PROX    O146258  10.697  11.376  13.246
 5970PROX    C146259  10.817  11.428  13.181
 5970PROX   H1146260  10.911  11.386  13.223
 5970PROX   H1346261  10.808  11.407  13.072
 5970PROX    C246262  10.842  11.582  13.188
 5970PROX   H2146263  10.744  11.633  13.173
 5970PROX    C346264  10.936  11.622  13.081
 5970PROX   H3146265  10.938  11.732  13.066
 5970PROX   H3246266  11.033  11.577  13.111
 5970PROX   H3346267  10.905  11.575  12.986
 5971PROX    O146268  10.909  11.619  13.301
 5971PROX    C146269  10.815  11.635  13.411
 5971PROX   H1146270  10.759  11.729  13.391
 5971PROX   H1346271  10.733  11.562  13.394
 5971PROX    C246272  10.881  11.628  13.550
 5971PROX   H2146273  10.809  11.643  13.633
 5971PROX    C346274  10.998  11.727  13.564
 5971PROX   H3146275  11.041  11.697  13.662
 5971PROX   H3246276  11.081  11.712  13.492
 5971PROX   H3346277  10.963  11.832  13.559
 5972PROX    O146278  10.950  11.501  13.564
 5972PROX    C146279  10.865  11.381  13.578
 5972PROX   H1146280  10.796  11.378  13.492
 5972PROX   H1346281  10.928  11.291  13.563
 5972PROX    C246282  10.787  11.378  13.712
 5972PROX   H2146283  10.850  11.412  13.798
 5972PROX    C346284  10.734  11.241  13.731
 5972PROX   H3146285  10.808  11.162  13.754
 5972PROX   H3246286  10.682  11.242  13.830
 5972PROX   H3346287  10.664  11.212  13.650
 5973PROX    O146288  10.667  11.459  13.713
 5973PROX    C146289  10.638  11.515  13.846
 5973PROX   H1146290  10.622  11.430  13.916
 5973PROX   H1346291  10.720  11.580  13.883
 5973PROX    C246292  10.503  11.592  13.840
 5973PROX   H2146293  10.422  11.516  13.840
 5973PROX    C346294  10.472  11.675  13.718
 5973PROX   H3146295  10.542  11.762  13.718
 5973PROX   H3246296  10.515  11.621  13.631
 5973PROX   H3346297  10.364  11.689  13.696
 5974PROX    O146298  10.495  11.661  13.958
 5974PROX    C146299  10.396  11.764  13.960
 5974PROX   H1146300  10.416  11.849  13.891
 5974PROX   H1346301  10.292  11.729  13.947
 5974PROX    C246302  10.412  11.826  14.102
 5974PROX   H2146303  10.516  11.861  14.118
 5974PROX    C346304  10.368  11.730  14.208
 5974PROX   H3146305  10.449  11.659  14.235
 5974PROX   H3246306  10.359  11.790  14.301
 5974PROX   H3346307  10.269  11.682  14.192
 5975PROX    O146308  10.319  11.930  14.108
 5975PROX    C146309  10.365  12.059  14.067
 5975PROX   H1146310  10.430  12.108  14.142
 5975PROX   H1346311  10.416  12.052  13.969
 5975PROX    C246312  10.243  12.153  14.056
 5975PROX   H2146313  10.276  12.243  14.001
 5975PROX    C346314  10.191  12.185  14.192
 5975PROX   H3146315  10.134  12.279  14.205
 5975PROX   H3246316  10.137  12.095  14.228
 5975PROX   H3346317  10.273  12.191  14.267
 5976PROX    O146318  10.146  12.090  13.979
 5976PROX    C146319  10.041  12.177  13.924
 5976PROX   H1146320  10.001  12.249  13.998
 5976PROX   H1346321  10.085  12.227  13.835
 5976PROX    C246322   9.928  12.082  13.878
 5976PROX   H2146323   9.906  12.011  13.961
 5976PROX    C346324   9.968  12.002  13.753
 5976PROX   H3146325   9.886  11.927  13.751
 5976PROX   H3246326   9.974  12.061  13.659
 5976PROX   H3346327  10.063  11.949  13.776
 5977PROX    O146328   9.811  12.164  13.852
 5977PROX    C146329   9.693  12.087  13.851
 5977PROX   H1146330   9.603  12.145  13.823
 5977PROX   H1346331   9.700  12.003  13.778
 5977PROX    C246332   9.646  12.020  13.985
 5977PROX   H2146333   9.713  11.933  13.997
 5977PROX    C346334   9.501  11.970  13.994
 5977PROX   H3146335   9.427  12.052  14.002
 5977PROX   H3246336   9.479  11.905  13.906
 5977PROX   H3346337   9.494  11.894  14.074
 5978PROX    O146338   9.668  12.116  14.091
 5978PROX    C146339   9.720  12.060  14.210
 5978PROX   H1146340   9.659  11.972  14.239
 5978PROX   H1346341   9.817  12.023  14.171
 5978PROX    C246342   9.748  12.153  14.330
 5978PROX   H2146343   9.647  12.193  14.354
 5978PROX    C346344   9.825  12.284  14.293
 5978PROX   H3146345   9.924  12.242  14.265
 5978PROX   H3246346   9.786  12.331  14.200
 5978PROX   H3346347   9.824  12.357  14.377
 5979PROX    O146348   9.806  12.085  14.438
 5979PROX    C146349   9.781  12.150  14.563
 5979PROX   H1146350   9.838  12.245  14.569
 5979PROX   H1346351   9.672  12.169  14.555
 5979PROX    C246352   9.823  12.062  14.689
 5979PROX   H2146353   9.771  11.964  14.676
 5979PROX    C346354   9.776  12.125  14.817
 5979PROX   H3146355   9.671  12.161  14.828
 5979PROX   H3246356   9.801  12.057  14.901
 5979PROX   H3346357   9.842  12.213  14.830
 5980PROX    O146358   9.960  12.050  14.689
 5980PROX    C146359  10.010  11.924  14.728
 5980PROX   H1146360  10.031  11.938  14.836
 5980PROX   H1346361   9.938  11.842  14.706
 5980PROX    C246362  10.142  11.888  14.654
 5980PROX   H2146363  10.213  11.970  14.679
 5980PROX    C346364  10.133  11.894  14.509
 5980PROX   H3146365  10.064  11.975  14.478
 5980PROX   H3246366  10.226  11.913  14.451
 5980PROX   H3346367  10.095  11.795  14.475
 5981PROX    O146368  10.192  11.765  14.701
 5981PROX    C146369  10.283  11.768  14.810
 5981PROX   H1146370  10.379  11.771  14.753
 5981PROX   H1346371  10.275  11.866  14.861
 5981PROX    C246372  10.277  11.642  14.891
 5981PROX   H2146373  10.171  11.637  14.925
 5981PROX    C346374  10.385  11.655  15.000
 5981PROX   H3146375  10.484  11.688  14.961
 5981PROX   H3246376  10.355  11.728  15.078
 5981PROX   H3346377  10.400  11.555  15.045
 5982PROX    O146378  10.301  11.533  14.805
 5982PROX    C146379  10.295  11.411  14.873
 5982PROX   H1146380  10.401  11.384  14.893
 5982PROX   H1346381  10.242  11.432  14.968
 5982PROX    C246382  10.217  11.297  14.795
 5982PROX   H2146383  10.216  11.207  14.860
 5982PROX    C346384  10.288  11.237  14.668
 5982PROX   H3146385  10.277  11.303  14.580
 5982PROX   H3246386  10.394  11.238  14.702
 5982PROX   H3346387  10.251  11.136  14.641
 5983PROX    O146388  10.088  11.339  14.748
 5983PROX    C146389   9.978  11.346  14.849
 5983PROX   H1146390   9.937  11.243  14.854
 5983PROX   H1346391  10.015  11.386  14.946
 5983PROX    C246392   9.864  11.441  14.793
 5983PROX   H2146393   9.828  11.396  14.698
 5983PROX    C346394   9.908  11.580  14.766
 5983PROX   H3146395  10.009  11.575  14.721
 5983PROX   H3246396   9.845  11.607  14.678
 5983PROX   H3346397   9.896  11.644  14.856
 5984PROX    O146398   9.760  11.441  14.887
 5984PROX    C146399   9.634  11.376  14.840
 5984PROX   H1146400   9.647  11.281  14.784
 5984PROX   H1346401   9.556  11.364  14.918
 5984PROX    C246402   9.553  11.475  14.750
 5984PROX   H2146403   9.624  11.503  14.668
 5984PROX    C346404   9.511  11.607  14.827
 5984PROX   H3146405   9.489  11.690  14.756
 5984PROX   H3246406   9.425  11.579  14.891
 5984PROX   H3346407   9.600  11.633  14.888
 5985PROX    O146408   9.439  11.412  14.702
 5985PROX    C146409   9.418  11.442  14.559
 5985PROX   H1146410   9.309  11.458  14.545
 5985PROX   H1346411   9.467  11.540  14.546
 5985PROX    C246412   9.475  11.327  14.467
 5985PROX   H2146413   9.461  11.367  14.365
 5985PROX    C346414   9.395  11.197  14.482
 5985PROX   H3146415   9.432  11.143  14.571
 5985PROX   H3246416   9.284  11.206  14.483
 5985PROX   H3346417   9.423  11.135  14.394
 5986PROX    O146418   9.611  11.321  14.487
 5986PROX    C146419   9.680  11.246  14.398
 5986PROX   H1146420   9.640  11.144  14.379
 5986PROX   H1346421   9.681  11.302  14.302
 5986PROX    C246422   9.834  11.224  14.432
 5986PROX   H2146423   9.876  11.180  14.338
 5986PROX    C346424   9.850  11.114  14.542
 5986PROX   H3146425   9.811  11.149  14.640
 5986PROX   H3246426   9.797  11.019  14.518
 5986PROX   H3346427   9.959  11.091  14.549
 5987PROX    O146428   9.884  11.348  14.468
 5987PROX    C146429  10.015  11.377  14.413
 5987PROX   H1146430  10.055  11.456  14.479
 5987PROX   H1346431  10.084  11.290  14.413
 5987PROX    C246432  10.008  11.439  14.269
 5987PROX   H2146433   9.940  11.380  14.204
 5987PROX    C346434  10.149  11.428  14.198
 5987PROX   H3146435  10.148  11.478  14.099
 5987PROX   H3246436  10.230  11.475  14.257
 5987PROX   H3346437  10.165  11.318  14.188
 5988PROX    O146438   9.965  11.575  14.272
 5988PROX    C146439   9.847  11.600  14.359
 5988PROX   H1146440   9.783  11.509  14.354
 5988PROX   H1346441   9.871  11.615  14.467
 5988PROX    C246442   9.761  11.720  14.305
 5988PROX   H2146443   9.825  11.801  14.263
 5988PROX    C346444   9.675  11.771  14.425
 5988PROX   H3146445   9.599  11.845  14.392
 5988PROX   H3246446   9.626  11.685  14.476
 5988PROX   H3346447   9.741  11.822  14.498
 5989PROX    O146448   9.681  11.675  14.203
 5989PROX    C146449   9.754  11.627  14.087
 5989PROX   H1146450   9.816  11.714  14.056
 5989PROX   H1346451   9.823  11.542  14.106
 5989PROX    C246452   9.655  11.569  13.984
 5989PROX   H2146453   9.575  11.646  13.973
 5989PROX    C346454   9.582  11.437  14.023
 5989PROX   H3146455   9.506  11.404  13.949
 5989PROX   H3246456   9.649  11.349  14.027
 5989PROX   H3346457   9.542  11.448  14.126
 5990PROX    O146458   9.709  11.555  13.855
 5990PROX    C146459   9.613  11.535  13.748
 5990PROX   H1146460   9.565  11.436  13.756
 5990PROX   H1346461   9.534  11.612  13.753
 5990PROX    C246462   9.689  11.552  13.614
 5990PROX   H2146463   9.768  11.475  13.602
 5990PROX    C346464   9.755  11.697  13.616
 5990PROX   H3146465   9.821  11.703  13.706
 5990PROX   H3246466   9.824  11.712  13.531
 5990PROX   H3346467   9.677  11.776  13.626
 5991PROX    O146468   9.591  11.547  13.516
 5991PROX    C146469   9.549  11.407  13.492
 5991PROX   H1146470   9.546  11.388  13.383
 5991PROX   H1346471   9.622  11.341  13.543
 5991PROX    C246472   9.405  11.390  13.551
 5991PROX   H2146473   9.389  11.471  13.625
 5991PROX    C346474   9.395  11.256  13.614
 5991PROX   H3146475   9.395  11.176  13.537
 5991PROX   H3246476   9.475  11.240  13.689
 5991PROX   H3346477   9.300  11.251  13.671
 5992PROX    O146478   9.311  11.400  13.445
 5992PROX    C146479   9.185  11.442  13.489
 5992PROX   H1146480   9.104  11.426  13.415
 5992PROX   H1346481   9.152  11.389  13.581
 5992PROX    C246482   9.186  11.595  13.515
 5992PROX   H2146483   9.085  11.629  13.485
 5992PROX    C346484   9.277  11.679  13.431
 5992PROX   H3146485   9.383  11.671  13.462
 5992PROX   H3246486   9.266  11.657  13.323
 5992PROX   H3346487   9.241  11.783  13.442
 5993PROX    O146488   9.183  11.620  13.657
 5993PROX    C146489   9.195  11.761  13.686
 5993PROX   H1146490   9.304  11.782  13.691
 5993PROX   H1346491   9.129  11.821  13.619
 5993PROX    C246492   9.148  11.801  13.833
 5993PROX   H2146493   9.039  11.783  13.846
 5993PROX    C346494   9.173  11.949  13.855
 5993PROX   H3146495   9.100  12.014  13.803
 5993PROX   H3246496   9.167  11.962  13.965
 5993PROX   H3346497   9.281  11.964  13.833
 5994PROX    O146498   9.231  11.737  13.932
 5994PROX    C146499   9.180  11.609  13.969
 5994PROX   H1146500   9.069  11.602  13.977
 5994PROX   H1346501   9.227  11.532  13.904
 5994PROX    C246502   9.240  11.573  14.111
 5994PROX   H2146503   9.349  11.588  14.095
 5994PROX    C346504   9.215  11.429  14.145
 5994PROX   H3146505   9.256  11.366  14.063
 5994PROX   H3246506   9.264  11.389  14.236
 5994PROX   H3346507   9.105  11.417  14.158
 5995PROX    O146508   9.189  11.665  14.206
 5995PROX    C146509   9.249  11.657  14.326
 5995PROX   H1146510   9.203  11.584  14.395
 5995PROX   H1346511   9.356  11.641  14.305
 5995PROX    C246512   9.227  11.800  14.390
 5995PROX   H2146513   9.117  11.808  14.378
 5995PROX    C346514   9.300  11.907  14.308
 5995PROX   H3146515   9.258  11.930  14.208
 5995PROX   H3246516   9.325  12.003  14.358
 5995PROX   H3346517   9.396  11.854  14.293
 5996ETHO    O146518   9.266  11.799  14.531
 5996ETHO    C146519   9.208  11.910  14.599
 5996ETHO   H1146520   9.103  11.937  14.574
 5996ETHO   H1346521   9.264  12.003  14.574
 5996ETHO    C246522   9.217  11.887  14.753
 5996ETHO   H2146523   9.217  11.988  14.800
 5996ETHO   H2346524   9.315  11.846  14.786
 5997ETHO    O146525   9.113  11.806  14.820
 5997ETHO    C146526   9.094  11.673  14.766
 5997ETHO   H1146527   8.999  11.676  14.709
 5997ETHO   H1346528   9.175  11.650  14.693
 5997ETHO    C246529   9.124  11.556  14.871
 5997ETHO   H2146530   9.223  11.583  14.912
 5997ETHO   H2346531   9.121  11.460  14.815
 5998ETHO    O146532   9.026  11.555  14.979
 5998ETHO    C146533   9.015  11.440  15.046
 5998ETHO   H1146534   9.106  11.418  15.106
 5998ETHO   H1346535   8.980  11.363  14.974
 5998ETHO    C246536   8.919  11.457  15.162
 5998ETHO   H2146537   8.887  11.563  15.170
 5998ETHO   H2346538   8.976  11.440  15.255
 5999ETHO    O146539   8.805  11.371  15.172
 5999ETHO    C146540   8.712  11.404  15.067
 5999ETHO   H1146541   8.726  11.510  15.036
 5999ETHO   H1346542   8.731  11.331  14.985
 5999ETHO    C246543   8.567  11.394  15.112
 5999ETHO   H2146544   8.545  11.301  15.169
 5999ETHO   H2346545   8.491  11.398  15.031
 6000ETHO    O146546   8.542  11.490  15.218
 6000ETHO    C146547   8.441  11.446  15.304
 6000ETHO   H1146548   8.476  11.358  15.361
 6000ETHO   H1346549   8.354  11.422  15.239
 6000ETHO    C246550   8.402  11.557  15.403
 6000ETHO   H2146551   8.393  11.652  15.347
 6000ETHO   H2346552   8.481  11.555  15.482
 6001ETHO    O146553   8.283  11.531  15.473
 6001ETHO    C146554   8.257  11.623  15.579
 6001ETHO   H1146555   8.344  11.644  15.645
 6001ETHO   H1346556   8.242  11.724  15.534
 6001ETHO    C246557   8.138  11.581  15.669
 6001ETHO   H2146558   8.060  11.523  15.614
 6001ETHO   H2346559   8.077  11.666  15.706
 6002ETHO    O146560   8.199  11.525  15.790
 6002ETHO    C146561   8.095  11.484  15.885
 6002ETHO   H1146562   8.028  11.416  15.828
 6002ETHO   H1346563   8.032  11.574  15.906
 6002ETHO    C246564   8.152  11.425  16.019
 6002ETHO   H2146565   8.231  11.351  15.998
 6002ETHO   H2346566   8.074  11.367  16.073
 6003ETHO    O146567   8.206  11.524  16.107
 6003ETHO    C146568   8.108  11.609  16.170
 6003ETHO   H1146569   8.171  11.684  16.221
 6003ETHO   H1346570   8.036  11.652  16.097
 6003ETHO    C246571   8.028  11.539  16.276
 6003ETHO   H2146572   8.093  11.488  16.350
 6003ETHO   H2346573   7.969  11.618  16.328
 6004ETHO    O146574   7.922  11.459  16.225
 6004ETHO    C146575   7.835  11.399  16.329
 6004ETHO   H1146576   7.817  11.476  16.407
 6004ETHO   H1346577   7.740  11.387  16.273
 6004ETHO    C246578   7.888  11.268  16.390
 6004ETHO   H2146579   7.993  11.277  16.426
 6004ETHO   H2346580   7.893  11.196  16.306
 6005ETHO    O146581   7.796  11.231  16.491
 6005ETHO    C146582   7.844  11.110  16.551
 6005ETHO   H1146583   7.874  11.038  16.471
 6005ETHO   H1346584   7.939  11.136  16.603
 6005ETHO    C246585   7.739  11.031  16.628
 6005ETHO   H2146586   7.703  11.113  16.693
 6005ETHO   H2346587   7.785  10.946  16.684
 6006ETHO    O146588   7.629  10.976  16.556
 6006ETHO    C146589   7.538  10.894  16.634
 6006ETHO   H1146590   7.465  10.866  16.555
 6006ETHO   H1346591   7.588  10.806  16.679
 6006ETHO    C246592   7.456  10.976  16.742
 6006ETHO   H2146593   7.423  11.073  16.700
 6006ETHO   H2346594   7.512  10.995  16.836
 6007ETHO    O146595   7.339  10.895  16.760
 6007ETHO    C146596   7.251  10.949  16.858
 6007ETHO   H1146597   7.218  11.050  16.826
 6007ETHO   H1346598   7.312  10.957  16.950
 6007ETHO    C246599   7.138  10.850  16.865
 6007ETHO   H2146600   7.181  10.752  16.894
 6007ETHO   H2346601   7.078  10.841  16.772
 6008ETHO    O146602   7.063  10.886  16.981
 6008ETHO    C146603   6.951  10.806  16.984
 6008ETHO   H1146604   6.980  10.699  16.979
 6008ETHO   H1346605   6.929  10.801  17.092
 6008ETHO    C246606   6.837  10.849  16.902
 6008ETHO   H2146607   6.764  10.768  16.885
 6008ETHO   H2346608   6.863  10.875  16.797
 6009ETHO    O146609   6.768  10.956  16.959
 6009ETHO    C146610   6.681  11.018  16.866
 6009ETHO   H1146611   6.589  10.955  16.873
 6009ETHO   H1346612   6.724  11.017  16.764
 6009ETHO    C246613   6.664  11.157  16.920
 6009ETHO   H2146614   6.605  11.208  16.841
 6009ETHO   H2346615   6.755  11.210  16.955
 6010ETHO    O146616   6.576  11.166  17.037
 6010ETHO    C146617   6.566  11.298  17.083
 6010ETHO   H1146618   6.556  11.372  17.000
 6010ETHO   H1346619   6.467  11.303  17.134
 6010ETHO    C246620   6.679  11.342  17.184
 6010ETHO   H2146621   6.673  11.452  17.200
 6010ETHO   H2346622   6.777  11.317  17.138
 6011ETHO    O146623   6.668  11.260  17.298
 6011ETHO    C146624   6.764  11.301  17.391
 6011ETHO   H1146625   6.861  11.332  17.347
 6011ETHO   H1346626   6.788  11.212  17.454
 6011ETHO    C246627   6.712  11.417  17.479
 6011ETHO   H2146628   6.674  11.500  17.415
 6011ETHO   H2346629   6.791  11.455  17.547
 6012ETHO    O146630   6.614  11.352  17.554
 6012ETHO    C146631   6.527  11.439  17.624
 6012ETHO   H1146632   6.587  11.518  17.675
 6012ETHO   H1346633   6.467  11.493  17.549
 6012ETHO    C246634   6.427  11.375  17.721
 6012ETHO   H2146635   6.392  11.283  17.670
 6012ETHO   H2346636   6.341  11.446  17.729
 6013ETHO    O146637   6.483  11.358  17.846
 6013ETHO    C146638   6.420  11.251  17.914
 6013ETHO   H1146639   6.474  11.161  17.877
 6013ETHO   H1346640   6.312  11.241  17.893
 6013ETHO    C246641   6.453  11.262  18.068
 6013ETHO   H2146642   6.563  11.265  18.084
 6013ETHO   H2346643   6.429  11.170  18.126
 6014ETHO    O146644   6.393  11.381  18.120
 6014ETHO    C146645   6.433  11.392  18.251
 6014ETHO   H1146646   6.398  11.304  18.310
 6014ETHO   H1346647   6.544  11.398  18.248
 6014ETHO    C246648   6.371  11.520  18.306
 6014ETHO   H2146649   6.392  11.524  18.415
 6014ETHO   H2346650   6.261  11.512  18.304
 6015ETHO    O146651   6.424  11.635  18.242
 6015ETHO    C146652   6.389  11.754  18.311
 6015ETHO   H1146653   6.329  11.730  18.401
 6015ETHO   H1346654   6.485  11.802  18.340
 6015ETHO    C246655   6.324  11.855  18.215
 6015ETHO   H2146656   6.383  11.864  18.121
 6015ETHO   H2346657   6.310  11.955  18.261
 6016ETHO    O146658   6.193  11.814  18.171
 6016ETHO    C146659   6.139  11.905  18.081
 6016ETHO   H1146660   6.177  12.007  18.104
 6016ETHO   H1346661   6.176  11.879  17.979
 6016ETHO    C246662   5.992  11.879  18.080
 6016ETHO   H2146663   5.963  11.776  18.052
 6016ETHO   H2346664   5.953  11.935  17.992
 6017ETHO    O146665   5.931  11.903  18.203
 6017ETHO    C146666   5.795  11.934  18.188
 6017ETHO   H1146667   5.782  12.017  18.115
 6017ETHO   H1346668   5.749  11.840  18.150
 6017ETHO    C246669   5.735  11.975  18.315
 6017ETHO   H2146670   5.774  12.072  18.351
 6017ETHO   H2346671   5.751  11.902  18.397
 6018ETHO    O146672   5.595  11.986  18.301
 6018ETHO    C146673   5.529  12.002  18.424
 6018ETHO   H1146674   5.584  12.083  18.477
 6018ETHO   H1346675   5.541  11.915  18.491
 6018ETHO    C246676   5.381  12.062  18.418
 6018ETHO   H2146677   5.373  12.134  18.334
 6018ETHO   H2346678   5.365  12.118  18.513
 6019ETHO    O146679   5.284  11.952  18.397
 6019ETHO    C146680   5.155  12.006  18.363
 6019ETHO   H1146681   5.136  12.093  18.429
 6019ETHO   H1346682   5.166  12.049  18.261
 6019ETHO    C246683   5.047  11.905  18.375
 6019ETHO   H2146684   5.075  11.817  18.314
 6019ETHO   H2346685   4.951  11.947  18.339
 6020ETHO    O146686   5.020  11.870  18.512
 6020ETHO    C146687   4.948  11.971  18.586
 6020ETHO   H1146688   4.866  12.011  18.522
 6020ETHO   H1346689   5.008  12.063  18.602
 6020ETHO    C246690   4.880  11.922  18.714
 6020ETHO   H2146691   4.797  11.852  18.691
 6020ETHO   H2346692   4.835  12.011  18.763
 6021ETHO    O146693   4.980  11.875  18.803
 6021ETHO    C146694   4.940  11.890  18.935
 6021ETHO   H1146695   5.039  11.879  18.985
 6021ETHO   H1346696   4.908  11.996  18.951
 6021ETHO    C246697   4.832  11.791  18.995
 6021ETHO   H2146698   4.740  11.811  18.936
 6021ETHO   H2346699   4.818  11.820  19.101
 6022ETHO    O146700   4.858  11.653  18.983
 6022ETHO    C146701   4.961  11.615  19.075
 6022ETHO   H1146702   4.933  11.638  19.180
 6022ETHO   H1346703   5.055  11.665  19.046
 6022ETHO    C246704   4.984  11.465  19.067
 6022ETHO   H2146705   5.061  11.439  19.143
 6022ETHO   H2346706   5.025  11.427  18.971
 6023ETHO    O146707   4.869  11.378  19.086
 6023ETHO    C146708   4.904  11.244  19.113
 6023ETHO   H1146709   4.945  11.202  19.019
 6023ETHO   H1346710   4.988  11.235  19.185
 6023ETHO    C246711   4.792  11.164  19.176
 6023ETHO   H2146712   4.753  11.226  19.260
 6023ETHO   H2346713   4.832  11.069  19.219
 6024ETHO    O146714   4.694  11.127  19.090
 6024ETHO    C146715   4.596  11.056  19.168
 6024ETHO   H1146716   4.549  11.121  19.244
 6024ETHO   H1346717   4.638  10.960  19.204
 6024ETHO    C246718   4.472  11.016  19.097
 6024ETHO   H2146719   4.428  11.109  19.056
 6024ETHO   H2346720   4.404  10.968  19.171
 6025ETHO    O146721   4.500  10.920  19.003
 6025ETHO    C146722   4.381  10.882  18.927
 6025ETHO   H1146723   4.295  10.862  18.995
 6025ETHO   H1346724   4.341  10.957  18.855
 6025ETHO    C246725   4.402  10.753  18.855
 6025ETHO   H2146726   4.497  10.750  18.798
 6025ETHO   H2346727   4.314  10.740  18.788
 6026ETHO    O146728   4.411  10.654  18.957
 6026ETHO    C146729   4.413  10.520  18.895
 6026ETHO   H1146730   4.394  10.447  18.977
 6026ETHO   H1346731   4.327  10.512  18.825
 6026ETHO    C246732   4.540  10.488  18.822
 6026ETHO   H2146733   4.541  10.556  18.735
 6026ETHO   H2346734   4.532  10.387  18.776
 6027ETHO    O146735   4.661  10.492  18.900
 6027ETHO    C146736   4.774  10.530  18.829
 6027ETHO   H1146737   4.778  10.476  18.733
 6027ETHO   H1346738   4.754  10.638  18.810
 6027ETHO    C246739   4.902  10.526  18.910
 6027ETHO   H2146740   4.889  10.587  19.002
 6027ETHO   H2346741   4.978  10.591  18.861
 6028ETHO    O146742   4.957  10.397  18.937
 6028ETHO    C146743   5.059  10.411  19.029
 6028ETHO   H1146744   5.134  10.485  18.994
 6028ETHO   H1346745   5.010  10.445  19.123
 6028ETHO    C246746   5.145  10.275  19.066
 6028ETHO   H2146747   5.067  10.198  19.081
 6028ETHO   H2346748   5.203  10.299  19.159
 6029ETHO    O146749   5.224  10.245  18.951
 6029ETHO    C146750   5.161  10.135  18.884
 6029ETHO   H1146751   5.053  10.161  18.888
 6029ETHO   H1346752   5.173  10.045  18.947
 6029ETHO    C246753   5.202  10.129  18.730
 6029ETHO   H2146754   5.180  10.222  18.674
 6029ETHO   H2346755   5.124  10.064  18.684
 6030ETHO    O146756   5.335  10.086  18.708
 6030ETHO    C146757   5.367   9.960  18.759
 6030ETHO   H1146758   5.368   9.981  18.868
 6030ETHO   H1346759   5.294   9.881  18.729
 6030ETHO    C246760   5.511   9.921  18.717
 6030ETHO   H2146761   5.537   9.833  18.779
 6030ETHO   H2346762   5.588   9.996  18.748
 6031ETHO    O146763   5.530   9.892  18.582
 6031ETHO    C146764   5.672   9.889  18.547
 6031ETHO   H1146765   5.716   9.815  18.617
 6031ETHO   H1346766   5.718   9.990  18.552
 6031ETHO    C246767   5.687   9.851  18.405
 6031ETHO   H2146768   5.602   9.782  18.385
 6031ETHO   H2346769   5.786   9.810  18.378
 6032ETHO    O146770   5.663   9.961  18.309
 6032ETHO    C146771   5.536  10.018  18.300
 6032ETHO   H1146772   5.450   9.948  18.288
 6032ETHO   H1346773   5.526  10.077  18.394
 6032ETHO    C246774   5.520  10.114  18.185
 6032ETHO   H2146775   5.413  10.143  18.177
 6032ETHO   H2346776   5.555  10.070  18.089
 6033ETHO    O146777   5.585  10.240  18.222
 6033ETHO    C146778   5.724  10.236  18.191
 6033ETHO   H1146779   5.751  10.163  18.111
 6033ETHO   H1346780   5.777  10.201  18.282
 6033ETHO    C246781   5.761  10.379  18.156
 6033ETHO   H2146782   5.757  10.447  18.244
 6033ETHO   H2346783   5.680  10.411  18.086
 6034ETHO    O146784   5.882  10.387  18.085
 6034ETHO    C146785   5.907  10.521  18.033
 6034ETHO   H1146786   5.840  10.527  17.945
 6034ETHO   H1346787   5.875  10.593  18.111
 6034ETHO    C246788   6.057  10.540  17.981
 6034ETHO   H2146789   6.065  10.638  17.931
 6034ETHO   H2346790   6.078  10.461  17.905
 6035ETHO    O146791   6.159  10.532  18.079
 6035ETHO    C146792   6.207  10.661  18.124
 6035ETHO   H1146793   6.122  10.725  18.157
 6035ETHO   H1346794   6.272  10.705  18.045
 6035ETHO    C246795   6.306  10.645  18.241
 6035ETHO   H2146796   6.347  10.736  18.290
 6035ETHO   H2346797   6.399  10.593  18.210
 6036ETHO    O146798   6.241  10.564  18.339
 6036ETHO    C146799   6.148  10.636  18.423
 6036ETHO   H1146800   6.202  10.688  18.505
 6036ETHO   H1346801   6.100  10.715  18.362
 6036ETHO    C246802   6.030  10.548  18.478
 6036ETHO   H2146803   5.959  10.622  18.521
 6036ETHO   H2346804   5.987  10.505  18.385
 6037ETHO    O146805   6.082  10.459  18.577
 6037ETHO    C146806   5.978  10.393  18.657
 6037ETHO   H1146807   5.918  10.480  18.690
 6037ETHO   H1346808   6.018  10.339  18.745
 6037ETHO    C246809   5.874  10.299  18.573
 6037ETHO   H2146810   5.839  10.351  18.482
 6037ETHO   H2346811   5.780  10.296  18.631
 6038ETHO    O146812   5.912  10.167  18.557
 6038ETHO    C146813   6.020  10.158  18.460
 6038ETHO   H1146814   5.990  10.214  18.369
 6038ETHO   H1346815   6.114  10.201  18.501
 6038ETHO    C246816   6.037  10.011  18.424
 6038ETHO   H2146817   6.124  10.008  18.355
 6038ETHO   H2346818   5.947   9.979  18.369
 6039ETHO    O146819   6.053   9.914  18.526
 6039ETHO    C146820   6.072   9.781  18.468
 6039ETHO   H1146821   6.149   9.778  18.388
 6039ETHO   H1346822   5.976   9.735  18.432
 6039ETHO    C246823   6.122   9.680  18.581
 6039ETHO   H2146824   6.126   9.577  18.538
 6039ETHO   H2346825   6.057   9.684  18.671
 6040ETHO    O146826   6.251   9.715  18.625
 6040ETHO    C146827   6.310   9.622  18.712
 6040ETHO   H1146828   6.292   9.520  18.671
 6040ETHO   H1346829   6.420   9.638  18.707
 6040ETHO    C246830   6.262   9.638  18.858
 6040ETHO   H2146831   6.310   9.552  18.909
 6040ETHO   H2346832   6.151   9.629  18.868
 6041ETHO    O146833   6.288   9.757  18.921
 6041ETHO    C146834   6.334   9.754  19.056
 6041ETHO   H1146835   6.264   9.697  19.120
 6041ETHO   H1346836   6.430   9.699  19.054
 6041ETHO    C246837   6.369   9.899  19.094
 6041ETHO   H2146838   6.402   9.895  19.200
 6041ETHO   H2346839   6.277   9.962  19.085
 6042ETHO    O146840   6.466   9.965  19.014
 6042ETHO    C146841   6.485  10.103  19.054
 6042ETHO   H1146842   6.382  10.140  19.075
 6042ETHO   H1346843   6.541  10.093  19.149
 6042ETHO    C246844   6.549  10.195  18.936
 6042ETHO   H2146845   6.541  10.290  18.993
 6042ETHO   H2346846   6.492  10.191  18.840
 6043ETHO    O146847   6.683  10.158  18.925
 6043ETHO    C146848   6.743  10.224  18.819
 6043ETHO   H1146849   6.679  10.235  18.728
 6043ETHO   H1346850   6.767  10.329  18.846
 6043ETHO    C246851   6.878  10.159  18.796
 6043ETHO   H2146852   6.935  10.150  18.891
 6043ETHO   H2346853   6.935  10.207  18.713
 6044ETHO    O146854   6.853  10.030  18.750
 6044ETHO    C146855   6.973   9.977  18.691
 6044ETHO   H1146856   7.044   9.983  18.775
 6044ETHO   H1346857   7.001  10.040  18.604
 6044ETHO    C246858   6.955   9.831  18.646
 6044ETHO   H2146859   6.912   9.768  18.726
 6044ETHO   H2346860   7.056   9.787  18.626
 6045ETHO    O146861   6.889   9.828  18.521
 6045ETHO    C146862   6.747   9.820  18.535
 6045ETHO   H1146863   6.719   9.739  18.606
 6045ETHO   H1346864   6.706   9.919  18.567
 6045ETHO    C246865   6.680   9.788  18.393
 6045ETHO   H2146866   6.573   9.772  18.416
 6045ETHO   H2346867   6.720   9.691  18.357
 6046ETHO    O146868   6.694   9.879  18.287
 6046ETHO    C146869   6.614   9.990  18.309
 6046ETHO   H1146870   6.646  10.052  18.396
 6046ETHO   H1346871   6.516   9.952  18.346
 6046ETHO    C246872   6.592  10.089  18.186
 6046ETHO   H2146873   6.515  10.165  18.209
 6046ETHO   H2346874   6.553  10.031  18.099
 6047ETHO    O146875   6.716  10.142  18.156
 6047ETHO    C146876   6.717  10.210  18.031
 6047ETHO   H1146877   6.706  10.137  17.948
 6047ETHO   H1346878   6.633  10.282  18.023
 6047ETHO    C246879   6.852  10.272  18.021
 6047ETHO   H2146880   6.878  10.329  18.113
 6047ETHO   H2346881   6.849  10.349  17.942
 6048ETHO    O146882   6.965  10.188  17.997
 6048ETHO    C146883   7.092  10.249  18.022
 6048ETHO   H1146884   7.120  10.234  18.129
 6048ETHO   H1346885   7.088  10.347  17.972
 6048ETHO    C246886   7.199  10.153  17.955
 6048ETHO   H2146887   7.162  10.050  17.979
 6048ETHO   H2346888   7.304  10.154  17.989
 6049ETHO    O146889   7.202  10.179  17.816
 6049ETHO    C146890   7.272  10.078  17.752
 6049ETHO   H1146891   7.378  10.087  17.783
 6049ETHO   H1346892   7.221   9.982  17.778
 6049ETHO    C246893   7.258  10.099  17.600
 6049ETHO   H2146894   7.342  10.045  17.550
 6049ETHO   H2346895   7.290  10.203  17.576
 6050ETHO    O146896   7.123  10.064  17.566
 6050ETHO    C146897   7.120  10.056  17.426
 6050ETHO   H1146898   7.067   9.969  17.384
 6050ETHO   H1346899   7.222  10.064  17.382
 6050ETHO    C246900   7.033  10.175  17.369
 6050ETHO   H2146901   6.932  10.175  17.415
 6050ETHO   H2346902   7.030  10.161  17.259
 6051ETHO    O146903   7.105  10.297  17.399
 6051ETHO    C146904   7.027  10.410  17.383
 6051ETHO   H1146905   6.996  10.415  17.277
 6051ETHO   H1346906   6.929  10.400  17.435
 6051ETHO    C246907   7.076  10.547  17.431
 6051ETHO   H2146908   7.086  10.535  17.541
 6051ETHO   H2346909   7.008  10.634  17.418
 6052ETHO    O146910   7.201  10.583  17.374
 6052ETHO    C146911   7.178  10.692  17.286
 6052ETHO   H1146912   7.097  10.661  17.216
 6052ETHO   H1346913   7.148  10.783  17.343
 6052ETHO    C246914   7.308  10.702  17.204
 6052ETHO   H2146915   7.396  10.723  17.267
 6052ETHO   H2346916   7.305  10.786  17.131
 6053ETHO    O146917   7.334  10.589  17.123
 6053ETHO    C146918   7.433  10.616  17.020
 6053ETHO   H1146919   7.404  10.710  16.967
 6053ETHO   H1346920   7.535  10.637  17.057
 6053ETHO    C246921   7.461  10.506  16.912
 6053ETHO   H2146922   7.485  10.404  16.951
 6053ETHO   H2346923   7.548  10.525  16.845
 6054ETHO    O146924   7.345  10.498  16.833
 6054ETHO    C146925   7.370  10.462  16.690
 6054ETHO   H1146926   7.277  10.489  16.635
 6054ETHO   H1346927   7.449  10.531  16.655
 6054ETHO    C246928   7.406  10.314  16.665
 6054ETHO   H2146929   7.390  10.288  16.558
 6054ETHO   H2346930   7.350  10.241  16.729
 6055ETHO    O146931   7.549  10.302  16.690
 6055ETHO    C146932   7.599  10.167  16.708
 6055ETHO   H1146933   7.554  10.125  16.800
 6055ETHO   H1346934   7.708  10.164  16.727
 6055ETHO    C246935   7.566  10.074  16.591
 6055ETHO   H2146936   7.466  10.101  16.551
 6055ETHO   H2346937   7.569   9.971  16.633
 6056ETHO    O146938   7.670  10.069  16.490
 6056ETHO    C146939   7.669  10.177  16.403
 6056ETHO   H1146940   7.569  10.182  16.355
 6056ETHO   H1346941   7.684  10.269  16.462
 6056ETHO    C246942   7.788  10.173  16.301
 6056ETHO   H2146943   7.878  10.146  16.360
 6056ETHO   H2346944   7.803  10.275  16.261
 6057ETHO    O146945   7.764  10.075  16.208
 6057ETHO    C146946   7.698  10.135  16.100
 6057ETHO   H1146947   7.768  10.208  16.055
 6057ETHO   H1346948   7.606  10.188  16.131
 6057ETHO    C246949   7.650  10.031  15.987
 6057ETHO   H2146950   7.738   9.969  15.961
 6057ETHO   H2346951   7.615  10.079  15.893
 6058ETHO    O146952   7.542   9.957  16.044
 6058ETHO    C146953   7.542   9.825  15.993
 6058ETHO   H1146954   7.541   9.823  15.881
 6058ETHO   H1346955   7.637   9.778  16.027
 6058ETHO    C246956   7.432   9.740  16.061
 6058ETHO   H2146957   7.419   9.766  16.169
 6058ETHO   H2346958   7.450   9.630  16.062
 6059ETHO    O146959   7.307   9.767  16.000
 6059ETHO    C146960   7.207   9.697  16.069
 6059ETHO   H1146961   7.251   9.626  16.143
 6059ETHO   H1346962   7.145   9.647  15.992
 6059ETHO    C246963   7.108   9.792  16.148
 6059ETHO   H2146964   7.167   9.854  16.219
 6059ETHO   H2346965   7.036   9.726  16.201
 6060ETHO    O146966   7.023   9.869  16.062
 6060ETHO    C146967   6.907   9.925  16.128
 6060ETHO   H1146968   6.853   9.967  16.040
 6060ETHO   H1346969   6.843   9.839  16.159
 6060ETHO    C246970   6.948  10.031  16.237
 6060ETHO   H2146971   6.982  10.123  16.185
 6060ETHO   H2346972   7.031   9.992  16.299
 6061ETHO    O146973   6.849  10.071  16.331
 6061ETHO    C146974   6.907  10.117  16.452
 6061ETHO   H1146975   6.992  10.187  16.436
 6061ETHO   H1346976   6.946  10.030  16.509
 6061ETHO    C246977   6.795  10.178  16.532
 6061ETHO   H2146978   6.762  10.269  16.477
 6061ETHO   H2346979   6.835  10.209  16.631
 6062ETHO    O146980   6.697  10.079  16.565
 6062ETHO    C146981   6.614  10.128  16.673
 6062ETHO   H1146982   6.688  10.131  16.756
 6062ETHO   H1346983   6.575  10.218  16.620
 6062ETHO    C246984   6.495  10.039  16.706
 6062ETHO   H2146985   6.430  10.027  16.617
 6062ETHO   H2346986   6.440  10.095  16.785
 6063ETHO    O146987   6.524   9.913  16.762
 6063ETHO    C146988   6.416   9.852  16.826
 6063ETHO   H1146989   6.366   9.919  16.899
 6063ETHO   H1346990   6.334   9.830  16.754
 6063ETHO    C246991   6.472   9.727  16.888
 6063ETHO   H2146992   6.516   9.656  16.815
 6063ETHO   H2346993   6.387   9.677  16.939
 6064ETHO    O146994   6.569   9.745  16.993
 6064ETHO    C146995   6.615   9.624  17.044
 6064ETHO   H1146996   6.554   9.542  17.000
 6064ETHO   H1346997   6.717   9.598  17.008
 6064ETHO    C246998   6.613   9.630  17.199
 6064ETHO   H2146999   6.584   9.733  17.228
 6064ETHO   H2347000   6.714   9.596  17.231
 6065ETHO    O147001   6.507   9.546  17.230
 6065ETHO    C147002   6.384   9.618  17.247
 6065ETHO   H1147003   6.381   9.701  17.174
 6065ETHO   H1347004   6.293   9.555  17.236
 6065ETHO    C247005   6.381   9.689  17.390
 6065ETHO   H2147006   6.284   9.744  17.392
 6065ETHO   H2347007   6.468   9.757  17.404
 6066ETHO    O147008   6.390   9.594  17.494
 6066ETHO    C147009   6.392   9.659  17.615
 6066ETHO   H1147010   6.476   9.732  17.615
 6066ETHO   H1347011   6.406   9.580  17.692
 6066ETHO    C247012   6.271   9.740  17.661
 6066ETHO   H2147013   6.241   9.825  17.596
 6066ETHO   H2347014   6.291   9.784  17.762
 6067ETHO    O147015   6.146   9.667  17.663
 6067ETHO    C147016   6.045   9.728  17.744
 6067ETHO   H1147017   6.054   9.718  17.854
 6067ETHO   H1347018   6.061   9.831  17.706
 6067ETHO    C247019   5.897   9.692  17.715
 6067ETHO   H2147020   5.876   9.677  17.607
 6067ETHO   H2347021   5.832   9.776  17.748
 6068ETHO    O147022   5.844   9.584  17.791
 6068ETHO    C147023   5.910   9.464  17.772
 6068ETHO   H1147024   6.010   9.462  17.819
 6068ETHO   H1347025   5.903   9.425  17.668
 6068ETHO    C247026   5.824   9.362  17.860
 6068ETHO   H2147027   5.836   9.376  17.970
 6068ETHO   H2347028   5.872   9.264  17.835
 6069ETHO    O147029   5.683   9.354  17.825
 6069ETHO    C147030   5.610   9.293  17.932
 6069ETHO   H1147031   5.624   9.183  17.929
 6069ETHO   H1347032   5.653   9.338  18.024
 6069ETHO    C247033   5.454   9.315  17.938
 6069ETHO   H2147034   5.428   9.410  17.990
 6069ETHO   H2347035   5.429   9.340  17.832
 6070ETHO    O147036   5.369   9.212  17.987
 6070ETHO    C147037   5.229   9.257  17.989
 6070ETHO   H1147038   5.191   9.248  17.885
 6070ETHO   H1347039   5.225   9.366  18.010
 6070ETHO    C247040   5.139   9.172  18.082
 6070ETHO   H2147041   5.151   9.064  18.058
 6070ETHO   H2347042   5.033   9.187  18.054
 6071ETHO    O147043   5.163   9.206  18.220
 6071ETHO    C147044   5.076   9.308  18.258
 6071ETHO   H1147045   5.075   9.392  18.185
 6071ETHO   H1347046   4.975   9.264  18.269
 6071ETHO    C247047   5.116   9.357  18.388
 6071ETHO   H2147048   5.046   9.438  18.419
 6071ETHO   H2347049   5.213   9.410  18.394
 6072ETHO    O147050   5.112   9.256  18.489
 6072ETHO    C147051   5.133   9.303  18.617
 6072ETHO   H1147052   5.034   9.327  18.660
 6072ETHO   H1347053   5.190   9.399  18.621
 6072ETHO    C247054   5.226   9.209  18.695
 6072ETHO   H2147055   5.326   9.247  18.663
 6072ETHO   H2347056   5.187   9.108  18.673
 6073ETHO    O147057   5.215   9.223  18.836
 6073ETHO    C147058   5.337   9.242  18.902
 6073ETHO   H1147059   5.412   9.290  18.836
 6073ETHO   H1347060   5.324   9.293  19.000
 6073ETHO    C247061   5.401   9.112  18.942
 6073ETHO   H2147062   5.511   9.127  18.950
 6073ETHO   H2347063   5.383   9.033  18.866
 6074ETHO    O147064   5.353   9.076  19.070
 6074ETHO    C147065   5.340   8.937  19.081
 6074ETHO   H1147066   5.434   8.891  19.044
 6074ETHO   H1347067   5.255   8.908  19.015
 6074ETHO    C247068   5.311   8.905  19.227
 6074ETHO   H2147069   5.379   8.956  19.298
 6074ETHO   H2347070   5.327   8.795  19.235
 6075ETHO    O147071   5.174   8.922  19.263
 6075ETHO    C147072   5.150   8.919  19.400
 6075ETHO   H1147073   5.166   8.814  19.432
 6075ETHO   H1347074   5.224   8.985  19.451
 6075ETHO    C247075   5.008   8.933  19.451
 6075ETHO   H2147076   4.966   9.023  19.401
 6075ETHO   H2347077   5.000   8.951  19.560
 6076ETHO    O147078   4.919   8.823  19.420
 6076ETHO    C147079   4.787   8.834  19.478
 6076ETHO   H1147080   4.732   8.925  19.447
 6076ETHO   H1347081   4.802   8.846  19.587
 6076ETHO    C247082   4.683   8.717  19.467
 6076ETHO   H2147083   4.592   8.720  19.531
 6076ETHO   H2347084   4.736   8.626  19.503
 6077ETHO    O147085   4.657   8.711  19.325
 6077ETHO    C147086   4.539   8.635  19.294
 6077ETHO   H1147087   4.569   8.528  19.304
 6077ETHO   H1347088   4.455   8.661  19.361
 6077ETHO    C247089   4.491   8.660  19.152
 6077ETHO   H2147090   4.485   8.770  19.145
 6077ETHO   H2347091   4.563   8.616  19.080
 6078ETHO    O147092   4.358   8.615  19.129
 6078ETHO    C147093   4.357   8.472  19.107
 6078ETHO   H1147094   4.396   8.445  19.006
 6078ETHO   H1347095   4.423   8.419  19.179
 6078ETHO    C247096   4.211   8.431  19.142
 6078ETHO   H2147097   4.210   8.440  19.253
 6078ETHO   H2347098   4.202   8.324  19.112
 6079ETHO    O147099   4.105   8.509  19.093
 6079ETHO    C147100   3.974   8.473  19.132
 6079ETHO   H1147101   3.953   8.366  19.111
 6079ETHO   H1347102   3.957   8.487  19.240
 6079ETHO    C247103   3.868   8.564  19.070
 6079ETHO   H2147104   3.773   8.505  19.068
 6079ETHO   H2347105   3.898   8.587  18.965
 6080ETHO    O147106   3.857   8.683  19.138
 6080ETHO    C147107   3.749   8.753  19.080
 6080ETHO   H1147108   3.772   8.750  18.972
 6080ETHO   H1347109   3.655   8.702  19.111
 6080ETHO    C247110   3.745   8.903  19.108
 6080ETHO   H2147111   3.763   8.924  19.216
 6080ETHO   H2347112   3.645   8.939  19.073
 6081ETHO    O147113   3.852   8.973  19.041
 6081ETHO    C147114   3.871   9.101  19.092
 6081ETHO   H1147115   3.909   9.088  19.196
 6081ETHO   H1347116   3.779   9.162  19.084
 6081ETHO    C247117   3.988   9.166  19.018
 6081ETHO   H2147118   4.068   9.089  19.023
 6081ETHO   H2347119   4.016   9.263  19.063
 6082ETHO    O147120   3.962   9.183  18.877
 6082ETHO    C147121   4.068   9.249  18.815
 6082ETHO   H1147122   4.075   9.357  18.841
 6082ETHO   H1347123   4.167   9.201  18.830
 6082ETHO    C247124   4.033   9.244  18.667
 6082ETHO   H2147125   4.102   9.306  18.607
 6082ETHO   H2347126   3.931   9.284  18.652
 6083ETHO    O147127   4.032   9.112  18.616
 6083ETHO    C147128   4.024   9.116  18.478
 6083ETHO   H1147129   4.113   9.175  18.446
 6083ETHO   H1347130   3.929   9.166  18.449
 6083ETHO    C247131   4.030   8.969  18.420
 6083ETHO   H2147132   3.999   8.965  18.313
 6083ETHO   H2347133   3.954   8.915  18.481
 6084ETHO    O147134   4.161   8.908  18.435
 6084ETHO    C147135   4.154   8.774  18.399
 6084ETHO   H1147136   4.116   8.719  18.487
 6084ETHO   H1347137   4.101   8.756  18.303
 6084ETHO    C247138   4.287   8.698  18.377
 6084ETHO   H2147139   4.274   8.591  18.352
 6084ETHO   H2347140   4.343   8.707  18.472
 6085ETHO    O147141   4.357   8.770  18.279
 6085ETHO    C147142   4.477   8.710  18.260
 6085ETHO   H1147143   4.464   8.605  18.226
 6085ETHO   H1347144   4.537   8.708  18.354
 6085ETHO    C247145   4.570   8.781  18.157
 6085ETHO   H2147146   4.668   8.729  18.162
 6085ETHO   H2347147   4.594   8.884  18.192
 6086ETHO    O147148   4.529   8.788  18.017
 6086ETHO    C147149   4.466   8.913  17.998
 6086ETHO   H1147150   4.386   8.937  18.071
 6086ETHO   H1347151   4.543   8.993  17.992
 6086ETHO    C247152   4.395   8.920  17.860
 6086ETHO   H2147153   4.354   9.023  17.852
 6086ETHO   H2347154   4.314   8.845  17.851
 6087ETHO    O147155   4.489   8.915  17.750
 6087ETHO    C147156   4.427   8.921  17.623
 6087ETHO   H1147157   4.395   9.027  17.610
 6087ETHO   H1347158   4.341   8.852  17.620
 6087ETHO    C247159   4.524   8.886  17.502
 6087ETHO   H2147160   4.468   8.858  17.410
 6087ETHO   H2347161   4.585   8.800  17.536
 6088ETHO    O147162   4.591   9.001  17.461
 6088ETHO    C147163   4.655   8.986  17.334
 6088ETHO   H1147164   4.598   8.930  17.257
 6088ETHO   H1347165   4.673   9.092  17.308
 6088ETHO    C247166   4.790   8.914  17.354
 6088ETHO   H2147167   4.820   8.910  17.461
 6088ETHO   H2347168   4.870   8.965  17.296
 6089ETHO    O147169   4.774   8.781  17.303
 6089ETHO    C147170   4.798   8.758  17.167
 6089ETHO   H1147171   4.716   8.704  17.115
 6089ETHO   H1347172   4.812   8.850  17.106
 6089ETHO    C247173   4.932   8.676  17.162
 6089ETHO   H2147174   5.003   8.733  17.225
 6089ETHO   H2347175   4.976   8.664  17.061
 6090ETHO    O147176   4.907   8.550  17.229
 6090ETHO    C147177   5.018   8.460  17.212
 6090ETHO   H1147178   5.052   8.450  17.107
 6090ETHO   H1347179   5.103   8.494  17.275
 6090ETHO    C247180   4.980   8.319  17.256
 6090ETHO   H2147181   5.050   8.245  17.213
 6090ETHO   H2347182   4.878   8.307  17.214
 6091ETHO    O147183   4.971   8.304  17.401
 6091ETHO    C147184   4.916   8.183  17.446
 6091ETHO   H1147185   4.836   8.155  17.374
 6091ETHO   H1347186   4.995   8.106  17.440
 6091ETHO    C247187   4.845   8.190  17.581
 6091ETHO   H2147188   4.889   8.267  17.648
 6091ETHO   H2347189   4.846   8.090  17.630
 6092ETHO    O147190   4.712   8.237  17.573
 6092ETHO    C147191   4.632   8.220  17.679
 6092ETHO   H1147192   4.549   8.294  17.673
 6092ETHO   H1347193   4.687   8.240  17.774
 6092ETHO    C247194   4.579   8.076  17.696
 6092ETHO   H2147195   4.517   8.080  17.787
 6092ETHO   H2347196   4.654   7.998  17.723
 6093ETHO    O147197   4.499   8.041  17.583
 6093ETHO    C147198   4.374   7.992  17.627
 6093ETHO   H1147199   4.325   8.078  17.678
 6093ETHO   H1347200   4.387   7.909  17.700
 6093ETHO    C247201   4.295   7.928  17.513
 6093ETHO   H2147202   4.208   7.879  17.563
 6093ETHO   H2347203   4.365   7.848  17.479
 6094ETHO    O147204   4.260   8.020  17.407
 6094ETHO    C147205   4.213   7.950  17.295
 6094ETHO   H1147206   4.166   8.023  17.226
 6094ETHO   H1347207   4.132   7.880  17.323
 6094ETHO    C247208   4.321   7.883  17.212
 6094ETHO   H2147209   4.418   7.924  17.247
 6094ETHO   H2347210   4.304   7.896  17.103
 6095ETHO    O147211   4.324   7.744  17.234
 6095ETHO    C147212   4.399   7.677  17.135
 6095ETHO   H1147213   4.385   7.569  17.158
 6095ETHO   H1347214   4.343   7.697  17.041
 6095ETHO    C247215   4.543   7.731  17.124
 6095ETHO   H2147216   4.548   7.840  17.105
 6095ETHO   H2347217   4.592   7.674  17.042
 6095ETHO    OZ47218   4.622   7.689  17.237
 6095ETHO   HZ147219   4.609   7.755  17.305
 6096ETHO    O147220  11.626   5.672   4.294
 6096ETHO   HO147221  11.595   5.746   4.347
 6096ETHO    C147222  11.757   5.698   4.239
 6096ETHO   H1147223  11.754   5.734   4.134
 6096ETHO   H1347224  11.815   5.603   4.238
 6096ETHO    C247225  11.822   5.807   4.326
 6096ETHO   H2147226  11.766   5.903   4.323
 6096ETHO   H2347227  11.918   5.833   4.278
 6097ETHO    O147228  11.845   5.783   4.465
 6097ETHO    C147229  11.948   5.685   4.476
 6097ETHO   H1147230  11.944   5.598   4.408
 6097ETHO   H1347231  12.040   5.741   4.450
 6097ETHO    C247232  11.947   5.630   4.618
 6097ETHO   H2147233  11.935   5.711   4.692
 6097ETHO   H2347234  12.043   5.578   4.641
 6098ETHO    O147235  11.847   5.538   4.643
 6098ETHO    C147236  11.864   5.476   4.775
 6098ETHO   H1147237  11.848   5.557   4.849
 6098ETHO   H1347238  11.960   5.420   4.778
 6098ETHO    C247239  11.753   5.366   4.792
 6098ETHO   H2147240  11.754   5.331   4.898
 6098ETHO   H2347241  11.775   5.285   4.719
 6099ETHO    O147242  11.612   5.403   4.775
 6099ETHO    C147243  11.524   5.303   4.820
 6099ETHO   H1147244  11.544   5.212   4.759
 6099ETHO   H1347245  11.545   5.286   4.928
 6099ETHO    C247246  11.368   5.338   4.819
 6099ETHO   H2147247  11.316   5.241   4.803
 6099ETHO   H2347248  11.339   5.400   4.732
 6100ETHO    O147249  11.322   5.376   4.948
 6100ETHO    C147250  11.183   5.409   4.951
 6100ETHO   H1147251  11.129   5.337   4.887
 6100ETHO   H1347252  11.141   5.402   5.053
 6100ETHO    C247253  11.160   5.559   4.904
 6100ETHO   H2147254  11.051   5.578   4.893
 6100ETHO   H2347255  11.216   5.569   4.809
 6101ETHO    O147256  11.220   5.653   4.995
 6101ETHO    C147257  11.214   5.791   4.955
 6101ETHO   H1147258  11.289   5.815   4.877
 6101ETHO   H1347259  11.110   5.795   4.916
 6101ETHO    C247260  11.220   5.899   5.061
 6101ETHO   H2147261  11.325   5.904   5.097
 6101ETHO   H2347262  11.146   5.867   5.138
 6102ETHO    O147263  11.178   6.027   5.006
 6102ETHO    C147264  11.203   6.127   5.102
 6102ETHO   H1147265  11.174   6.105   5.207
 6102ETHO   H1347266  11.313   6.142   5.101
 6102ETHO    C247267  11.131   6.264   5.070
 6102ETHO   H2147268  11.106   6.320   5.162
 6102ETHO   H2347269  11.037   6.236   5.019
 6103ETHO    O147270  11.194   6.344   4.977
 6103ETHO    C147271  11.135   6.472   4.984
 6103ETHO   H1147272  11.192   6.528   5.060
 6103ETHO   H1347273  11.026   6.468   5.006
 6103ETHO    C247274  11.154   6.544   4.856
 6103ETHO   H2147275  11.247   6.527   4.798
 6103ETHO   H2347276  11.161   6.655   4.863
 6104ETHO    O147277  11.045   6.500   4.778
 6104ETHO    C147278  11.052   6.568   4.654
 6104ETHO   H1147279  11.061   6.677   4.673
 6104ETHO   H1347280  11.136   6.536   4.589
 6104ETHO    C247281  10.918   6.552   4.579
 6104ETHO   H2147282  10.911   6.636   4.505
 6104ETHO   H2347283  10.836   6.559   4.654
 6105ETHO    O147284  10.902   6.423   4.511
 6105ETHO    C147285  10.784   6.408   4.436
 6105ETHO   H1147286  10.780   6.498   4.371
 6105ETHO   H1347287  10.698   6.414   4.506
 6105ETHO    C247288  10.759   6.271   4.369
 6105ETHO   H2147289  10.655   6.253   4.335
 6105ETHO   H2347290  10.765   6.194   4.448
 6106ETHO    O147291  10.852   6.251   4.263
 6106ETHO    C147292  10.824   6.138   4.183
 6106ETHO   H1147293  10.820   6.047   4.248
 6106ETHO   H1347294  10.723   6.149   4.139
 6106ETHO    C247295  10.916   6.136   4.064
 6106ETHO   H2147296  10.871   6.062   3.994
 6106ETHO   H2347297  10.913   6.234   4.012
 6107ETHO    O147298  11.047   6.080   4.086
 6107ETHO    C147299  11.128   6.083   3.973
 6107ETHO   H1147300  11.144   6.186   3.936
 6107ETHO   H1347301  11.088   6.033   3.882
 6107ETHO    C247302  11.269   6.033   4.016
 6107ETHO   H2147303  11.333   6.019   3.925
 6107ETHO   H2347304  11.254   5.939   4.073
 6108ETHO    O147305  11.350   6.125   4.091
 6108ETHO    C147306  11.484   6.069   4.115
 6108ETHO   H1147307  11.464   5.972   4.167
 6108ETHO   H1347308  11.548   6.067   4.025
 6108ETHO    C247309  11.566   6.168   4.214
 6108ETHO   H2147310  11.644   6.112   4.269
 6108ETHO   H2347311  11.495   6.203   4.292
 6109ETHO    O147312  11.614   6.288   4.146
 6109ETHO    C147313  11.758   6.290   4.142
 6109ETHO   H1147314  11.786   6.316   4.038
 6109ETHO   H1347315  11.800   6.187   4.146
 6109ETHO    C247316  11.835   6.375   4.241
 6109ETHO   H2147317  11.938   6.333   4.246
 6109ETHO   H2347318  11.810   6.371   4.349
 6110ETHO    O147319  11.830   6.507   4.202
 6110ETHO    C147320  11.716   6.575   4.254
 6110ETHO   H1147321  11.627   6.544   4.195
 6110ETHO   H1347322  11.692   6.561   4.362
 6110ETHO    C247323  11.709   6.721   4.220
 6110ETHO   H2147324  11.757   6.739   4.121
 6110ETHO   H2347325  11.603   6.752   4.214
 6111ETHO    O147326  11.769   6.818   4.310
 6111ETHO    C147327  11.751   6.950   4.249
 6111ETHO   H1147328  11.793   6.958   4.147
 6111ETHO   H1347329  11.642   6.970   4.237
 6111ETHO    C247330  11.791   7.055   4.358
 6111ETHO   H2147331  11.792   7.159   4.319
 6111ETHO   H2347332  11.894   7.032   4.393
 6112ETHO    O147333  11.696   7.051   4.461
 6112ETHO    C147334  11.727   7.138   4.563
 6112ETHO   H1147335  11.836   7.142   4.582
 6112ETHO   H1347336  11.692   7.238   4.531
 6112ETHO    C247337  11.663   7.105   4.698
 6112ETHO   H2147338  11.553   7.086   4.691
 6112ETHO   H2347339  11.681   7.192   4.764
 6113ETHO    O147340  11.717   6.990   4.769
 6113ETHO    C147341  11.706   6.867   4.707
 6113ETHO   H1147342  11.630   6.879   4.627
 6113ETHO   H1347343  11.799   6.845   4.652
 6113ETHO    C247344  11.675   6.764   4.812
 6113ETHO   H2147345  11.769   6.739   4.865
 6113ETHO   H2347346  11.649   6.670   4.757
 6114ETHO    O147347  11.576   6.807   4.905
 6114ETHO    C147348  11.492   6.701   4.947
 6114ETHO   H1147349  11.560   6.618   4.976
 6114ETHO   H1347350  11.429   6.660   4.865
 6114ETHO    C247351  11.419   6.745   5.075
 6114ETHO   H2147352  11.495   6.780   5.148
 6114ETHO   H2347353  11.362   6.662   5.123
 6115ETHO    O147354  11.318   6.845   5.045
 6115ETHO    C147355  11.248   6.884   5.164
 6115ETHO   H1147356  11.174   6.808   5.198
 6115ETHO   H1347357  11.316   6.896   5.251
 6115ETHO    C247358  11.159   7.010   5.143
 6115ETHO   H2147359  11.076   7.013   5.217
 6115ETHO   H2347360  11.126   6.989   5.039
 6116ETHO    O147361  11.227   7.137   5.133
 6116ETHO    C147362  11.356   7.127   5.064
 6116ETHO   H1147363  11.351   7.084   4.962
 6116ETHO   H1347364  11.421   7.061   5.127
 6116ETHO    C247365  11.425   7.262   5.048
 6116ETHO   H2147366  11.525   7.244   5.003
 6116ETHO   H2347367  11.450   7.317   5.142
 6117ETHO    O147368  11.359   7.352   4.962
 6117ETHO    C147369  11.250   7.421   5.034
 6117ETHO   H1147370  11.171   7.344   5.045
 6117ETHO   H1347371  11.282   7.460   5.133
 6117ETHO    C247372  11.205   7.541   4.952
 6117ETHO   H2147373  11.168   7.616   5.025
 6117ETHO   H2347374  11.295   7.591   4.909
 6118ETHO    O147375  11.112   7.499   4.852
 6118ETHO    C147376  11.059   7.613   4.796
 6118ETHO   H1147377  11.135   7.694   4.784
 6118ETHO   H1347378  10.983   7.653   4.866
 6118ETHO    C247379  10.989   7.573   4.672
 6118ETHO   H2147380  10.904   7.642   4.654
 6118ETHO   H2347381  10.955   7.468   4.685
 6119ETHO    O147382  11.077   7.592   4.563
 6119ETHO    C147383  11.009   7.577   4.438
 6119ETHO   H1147384  10.977   7.471   4.438
 6119ETHO   H1347385  10.921   7.644   4.446
 6119ETHO    C247386  11.084   7.617   4.306
 6119ETHO   H2147387  11.144   7.709   4.320
 6119ETHO   H2347388  11.021   7.621   4.214
 6120ETHO    O147389  11.180   7.516   4.266
 6120ETHO    C147390  11.246   7.554   4.146
 6120ETHO   H1147391  11.295   7.650   4.173
 6120ETHO   H1347392  11.180   7.563   4.057
 6120ETHO    C247393  11.360   7.451   4.130
 6120ETHO   H2147394  11.417   7.477   4.038
 6120ETHO   H2347395  11.327   7.345   4.139
 6121ETHO    O147396  11.455   7.470   4.231
 6121ETHO    C147397  11.521   7.356   4.274
 6121ETHO   H1147398  11.569   7.302   4.190
 6121ETHO   H1347399  11.595   7.398   4.345
 6121ETHO    C247400  11.436   7.248   4.353
 6121ETHO   H2147401  11.489   7.151   4.354
 6121ETHO   H2347402  11.336   7.227   4.311
 6122ETHO    O147403  11.416   7.269   4.491
 6122ETHO    C147404  11.330   7.381   4.519
 6122ETHO   H1147405  11.229   7.338   4.534
 6122ETHO   H1347406  11.326   7.450   4.432
 6122ETHO    C247407  11.371   7.462   4.644
 6122ETHO   H2147408  11.372   7.388   4.727
 6122ETHO   H2347409  11.286   7.526   4.676
 6123ETHO    O147410  11.501   7.521   4.625
 6123ETHO    C147411  11.611   7.467   4.683
 6123ETHO   H1147412  11.601   7.356   4.676
 6123ETHO   H1347413  11.701   7.493   4.623
 6123ETHO    C247414  11.624   7.515   4.823
 6123ETHO   H2147415  11.717   7.477   4.870
 6123ETHO   H2347416  11.534   7.483   4.880
 6124ETHO    O147417  11.624   7.659   4.819
 6124ETHO    C147418  11.610   7.703   4.950
 6124ETHO   H1147419  11.677   7.646   5.018
 6124ETHO   H1347420  11.506   7.698   4.988
 6124ETHO    C247421  11.644   7.847   4.981
 6124ETHO   H2147422  11.746   7.868   4.941
 6124ETHO   H2347423  11.646   7.847   5.092
 6125ETHO    O147424  11.552   7.942   4.937
 6125ETHO    C147425  11.582   8.067   4.995
 6125ETHO   H1147426  11.594   8.056   5.105
 6125ETHO   H1347427  11.687   8.090   4.965
 6125ETHO    C247428  11.485   8.169   4.936
 6125ETHO   H2147429  11.489   8.141   4.828
 6125ETHO   H2347430  11.525   8.272   4.948
 6126ETHO    O147431  11.351   8.159   4.992
 6126ETHO    C147432  11.251   8.192   4.906
 6126ETHO   H1147433  11.284   8.283   4.851
 6126ETHO   H1347434  11.231   8.124   4.820
 6126ETHO    C247435  11.107   8.212   4.962
 6126ETHO   H2147436  11.031   8.244   4.887
 6126ETHO   H2347437  11.113   8.298   5.032
 6127ETHO    O147438  11.059   8.093   5.034
 6127ETHO    C147439  10.926   8.109   5.085
 6127ETHO   H1147440  10.934   8.064   5.186
 6127ETHO   H1347441  10.903   8.218   5.087
 6127ETHO    C247442  10.816   8.030   5.006
 6127ETHO   H2147443  10.728   8.054   5.069
 6127ETHO   H2347444  10.849   7.924   5.008
 6128ETHO    O147445  10.792   8.101   4.886
 6128ETHO    C147446  10.761   8.020   4.776
 6128ETHO   H1147447  10.683   7.946   4.806
 6128ETHO   H1347448  10.703   8.072   4.697
 6128ETHO    C247449  10.890   7.963   4.713
 6128ETHO   H2147450  10.857   7.873   4.657
 6128ETHO   H2347451  10.961   7.943   4.795
 6129ETHO    O147452  10.961   8.045   4.616
 6129ETHO    C147453  11.085   7.985   4.568
 6129ETHO   H1147454  11.064   7.881   4.536
 6129ETHO   H1347455  11.146   7.974   4.660
 6129ETHO    C247456  11.165   8.069   4.460
 6129ETHO   H2147457  11.108   8.074   4.365
 6129ETHO   H2347458  11.250   8.002   4.432
 6130ETHO    O147459  11.225   8.186   4.513
 6130ETHO    C147460  11.146   8.303   4.483
 6130ETHO   H1147461  11.133   8.318   4.374
 6130ETHO   H1347462  11.043   8.295   4.525
 6130ETHO    C247463  11.219   8.423   4.537
 6130ETHO   H2147464  11.295   8.396   4.613
 6130ETHO   H2347465  11.142   8.481   4.591
 6131ETHO    O147466  11.280   8.490   4.429
 6131ETHO    C147467  11.419   8.458   4.429
 6131ETHO   H1147468  11.442   8.355   4.393
 6131ETHO   H1347469  11.461   8.472   4.531
 6131ETHO    C247470  11.503   8.550   4.341
 6131ETHO   H2147471  11.611   8.552   4.370
 6131ETHO   H2347472  11.466   8.654   4.347
 6132ETHO    O147473  11.488   8.518   4.204
 6132ETHO    C147474  11.540   8.618   4.115
 6132ETHO   H1147475  11.462   8.697   4.117
 6132ETHO   H1347476  11.638   8.656   4.151
 6132ETHO    C247477  11.561   8.584   3.966
 6132ETHO   H2147478  11.616   8.488   3.966
 6132ETHO   H2347479  11.602   8.676   3.920
 6133ETHO    O147480  11.431   8.564   3.900
 6133ETHO    C147481  11.446   8.565   3.756
 6133ETHO   H1147482  11.538   8.505   3.737
 6133ETHO   H1347483  11.467   8.667   3.718
 6133ETHO    C247484  11.331   8.510   3.673
 6133ETHO   H2147485  11.361   8.534   3.569
 6133ETHO   H2347486  11.239   8.571   3.677
 6134ETHO    O147487  11.308   8.373   3.690
 6134ETHO    C147488  11.250   8.342   3.818
 6134ETHO   H1147489  11.330   8.350   3.895
 6134ETHO   H1347490  11.169   8.413   3.844
 6134ETHO    C247491  11.187   8.205   3.821
 6134ETHO   H2147492  11.101   8.213   3.751
 6134ETHO   H2347493  11.143   8.189   3.922
 6135ETHO    O147494  11.278   8.097   3.795
 6135ETHO    C147495  11.205   7.982   3.754
 6135ETHO   H1147496  11.188   7.979   3.644
 6135ETHO   H1347497  11.107   7.983   3.807
 6135ETHO    C247498  11.289   7.858   3.798
 6135ETHO   H2147499  11.207   7.784   3.808
 6135ETHO   H2347500  11.314   7.885   3.903
 6136ETHO    O147501  11.400   7.816   3.720
 6136ETHO    C147502  11.450   7.701   3.781
 6136ETHO   H1147503  11.521   7.736   3.859
 6136ETHO   H1347504  11.368   7.639   3.824
 6136ETHO    C247505  11.537   7.622   3.687
 6136ETHO   H2147506  11.606   7.562   3.750
 6136ETHO   H2347507  11.603   7.695   3.636
 6137ETHO    O147508  11.478   7.522   3.599
 6137ETHO    C147509  11.577   7.466   3.511
 6137ETHO   H1147510  11.641   7.545   3.466
 6137ETHO   H1347511  11.639   7.402   3.578
 6137ETHO    C247512  11.515   7.391   3.399
 6137ETHO   H2147513  11.596   7.347   3.338
 6137ETHO   H2347514  11.447   7.458   3.341
 6138ETHO    O147515  11.428   7.287   3.451
 6138ETHO    C147516  11.356   7.207   3.357
 6138ETHO   H1147517  11.256   7.180   3.399
 6138ETHO   H1347518  11.332   7.260   3.262
 6138ETHO    C247519  11.434   7.079   3.319
 6138ETHO   H2147520  11.541   7.097   3.298
 6138ETHO   H2347521  11.385   7.033   3.230
 6139ETHO    O147522  11.426   6.990   3.430
 6139ETHO    C147523  11.503   6.866   3.403
 6139ETHO   H1147524  11.447   6.821   3.319
 6139ETHO   H1347525  11.599   6.898   3.358
 6139ETHO    C247526  11.517   6.769   3.525
 6139ETHO   H2147527  11.562   6.677   3.482
 6139ETHO   H2347528  11.413   6.745   3.555
 6140ETHO    O147529  11.582   6.812   3.640
 6140ETHO    C147530  11.724   6.823   3.616
 6140ETHO   H1147531  11.732   6.910   3.548
 6140ETHO   H1347532  11.764   6.741   3.553
 6140ETHO    C247533  11.818   6.851   3.727
 6140ETHO   H2147534  11.920   6.853   3.683
 6140ETHO   H2347535  11.815   6.774   3.807
 6141ETHO    O147536  11.785   6.971   3.790
 6141ETHO    C147537  11.887   7.026   3.876
 6141ETHO   H1147538  11.917   6.953   3.954
 6141ETHO   H1347539  11.967   7.051   3.804
 6141ETHO    C247540  11.843   7.163   3.923
 6141ETHO   H2147541  11.758   7.155   3.995
 6141ETHO   H2347542  11.807   7.229   3.842
 6142ETHO    O147543  11.947   7.212   3.999
 6142ETHO    C147544  11.918   7.336   4.061
 6142ETHO   H1147545  11.820   7.331   4.113
 6142ETHO   H1347546  11.897   7.401   3.974
 6142ETHO    C247547  12.027   7.399   4.160
 6142ETHO   H2147548  12.105   7.461   4.110
 6142ETHO   H2347549  12.078   7.315   4.213
 6143ETHO    O147550  11.963   7.464   4.271
 6143ETHO    C147551  11.923   7.598   4.228
 6143ETHO   H1147552  12.011   7.664   4.211
 6143ETHO   H1347553  11.852   7.586   4.144
 6143ETHO    C247554  11.828   7.670   4.332
 6143ETHO   H2147555  11.795   7.769   4.292
 6143ETHO   H2347556  11.740   7.605   4.352
 6144ETHO    O147557  11.881   7.697   4.460
 6144ETHO    C147558  11.794   7.760   4.551
 6144ETHO   H1147559  11.813   7.720   4.653
 6144ETHO   H1347560  11.693   7.738   4.510
 6144ETHO    C247561  11.818   7.912   4.547
 6144ETHO   H2147562  11.728   7.951   4.601
 6144ETHO   H2347563  11.827   7.947   4.442
 6145ETHO    O147564  11.934   7.950   4.624
 6145ETHO    C147565  11.951   8.091   4.620
 6145ETHO   H1147566  11.962   8.126   4.515
 6145ETHO   H1347567  11.856   8.129   4.664
 6145ETHO    C247568  12.064   8.143   4.705
 6145ETHO   H2147569  12.154   8.078   4.694
 6145ETHO   H2347570  12.036   8.152   4.812
 6146ETHO    O147571  12.098   8.268   4.654
 6146ETHO    C147572  12.194   8.341   4.726
 6146ETHO   H1147573  12.289   8.294   4.691
 6146ETHO   H1347574  12.186   8.320   4.834
 6146ETHO    C247575  12.193   8.491   4.698
 6146ETHO   H2147576  12.217   8.503   4.590
 6146ETHO   H2347577  12.280   8.526   4.758
 6147ETHO    O147578  12.074   8.553   4.741
 6147ETHO    C147579  12.048   8.662   4.657
 6147ETHO   H1147580  12.139   8.725   4.663
 6147ETHO   H1347581  12.032   8.616   4.557
 6147ETHO    C247582  11.926   8.743   4.699
 6147ETHO   H2147583  11.842   8.670   4.708
 6147ETHO   H2347584  11.914   8.819   4.619
 6148ETHO    O147585  11.945   8.814   4.822
 6148ETHO    C147586  11.865   8.935   4.829
 6148ETHO   H1147587  11.890   9.000   4.742
 6148ETHO   H1347588  11.755   8.919   4.827
 6148ETHO    C247589  11.903   9.003   4.961
 6148ETHO   H2147590  11.852   9.102   4.955
 6148ETHO   H2347591  12.014   9.009   4.957
 6149ETHO    O147592  11.861   8.931   5.076
 6149ETHO    C147593  11.910   8.999   5.191
 6149ETHO   H1147594  12.017   9.025   5.173
 6149ETHO   H1347595  11.853   9.091   5.219
 6149ETHO    C247596  11.897   8.912   5.317
 6149ETHO   H2147597  11.789   8.898   5.339
 6149ETHO   H2347598  11.938   8.959   5.409
 6150ETHO    O147599  11.944   8.781   5.307
 6150ETHO    C147600  11.958   8.708   5.428
 6150ETHO   H1147601  12.003   8.771   5.508
 6150ETHO   H1347602  11.858   8.673   5.462
 6150ETHO    C247603  12.040   8.579   5.414
 6150ETHO   H2147604  12.057   8.514   5.503
 6150ETHO   H2347605  11.979   8.516   5.346
 6151ETHO    O147606  12.165   8.593   5.345
 6151ETHO    C147607  12.237   8.471   5.334
 6151ETHO   H1147608  12.184   8.386   5.286
 6151ETHO   H1347609  12.266   8.444   5.438
 6151ETHO    C247610  12.362   8.489   5.250
 6151ETHO   H2147611  12.422   8.572   5.292
 6151ETHO   H2347612  12.335   8.513   5.145
 6152ETHO    O147613  12.438   8.369   5.240
 6152ETHO    C147614  12.531   8.337   5.345
 6152ETHO   H1147615  12.599   8.426   5.350
 6152ETHO   H1347616  12.476   8.331   5.442
 6152ETHO    C247617  12.589   8.199   5.307
 6152ETHO   H2147618  12.501   8.132   5.310
 6152ETHO   H2347619  12.661   8.172   5.387
 6153ETHO    O147620  12.656   8.212   5.183
 6153ETHO    C147621  12.708   8.088   5.149
 6153ETHO   H1147622  12.632   8.011   5.173
 6153ETHO   H1347623  12.805   8.072   5.201
 6153ETHO    C247624  12.727   8.087   4.990
 6153ETHO   H2147625  12.807   8.012   4.969
 6153ETHO   H2347626  12.773   8.185   4.965
 6154ETHO    O147627  12.603   8.080   4.920
 6154ETHO    C147628  12.565   7.949   4.905
 6154ETHO   H1147629  12.654   7.888   4.878
 6154ETHO   H1347630  12.516   7.907   4.996
 6154ETHO    C247631  12.460   7.937   4.797
 6154ETHO   H2147632  12.494   7.970   4.696
 6154ETHO   H2347633  12.383   8.011   4.827
 6155ETHO    O147634  12.413   7.810   4.799
 6155ETHO    C147635  12.310   7.802   4.697
 6155ETHO   H1147636  12.235   7.884   4.704
 6155ETHO   H1347637  12.257   7.706   4.720
 6155ETHO    C247638  12.367   7.792   4.550
 6155ETHO   H2147639  12.374   7.684   4.525
 6155ETHO   H2347640  12.473   7.826   4.552
 6156ETHO    O147641  12.307   7.875   4.444
 6156ETHO    C147642  12.173   7.845   4.426
 6156ETHO   H1147643  12.163   7.741   4.388
 6156ETHO   H1347644  12.111   7.851   4.519
 6156ETHO    C247645  12.105   7.935   4.323
 6156ETHO   H2147646  12.112   8.041   4.354
 6156ETHO   H2347647  12.000   7.901   4.334
 6157ETHO    O147648  12.159   7.907   4.194
 6157ETHO    C147649  12.100   7.982   4.089
 6157ETHO   H1147650  12.168   7.991   4.002
 6157ETHO   H1347651  12.099   8.088   4.123
 6157ETHO    C247652  11.962   7.921   4.050
 6157ETHO   H2147653  11.920   7.897   4.150
 6157ETHO   H2347654  11.976   7.835   3.981
 6158ETHO    O147655  11.881   8.009   3.979
 6158ETHO    C147656  11.750   7.954   3.966
 6158ETHO   H1147657  11.749   7.869   3.896
 6158ETHO   H1347658  11.706   7.912   4.059
 6158ETHO    C247659  11.660   8.069   3.910
 6158ETHO   H2147660  11.672   8.159   3.974
 6158ETHO   H2347661  11.553   8.042   3.904
 6159ETHO    O147662  11.704   8.087   3.773
 6159ETHO    C147663  11.636   8.193   3.710
 6159ETHO   H1147664  11.662   8.295   3.745
 6159ETHO   H1347665  11.527   8.185   3.734
 6159ETHO    C247666  11.660   8.202   3.559
 6159ETHO   H2147667  11.609   8.287   3.509
 6159ETHO   H2347668  11.622   8.114   3.502
 6160ETHO    O147669  11.795   8.216   3.536
 6160ETHO    C147670  11.831   8.205   3.396
 6160ETHO   H1147671  11.770   8.138   3.332
 6160ETHO   H1347672  11.804   8.298   3.342
 6160ETHO    C247673  11.973   8.157   3.385
 6160ETHO   H2147674  12.006   8.161   3.279
 6160ETHO   H2347675  11.978   8.051   3.416
 6161ETHO    O147676  12.067   8.231   3.465
 6161ETHO    C147677  12.196   8.174   3.482
 6161ETHO   H1147678  12.193   8.082   3.420
 6161ETHO   H1347679  12.220   8.145   3.587
 6161ETHO    C247680  12.308   8.263   3.424
 6161ETHO   H2147681  12.261   8.308   3.334
 6161ETHO   H2347682  12.388   8.194   3.390
 6162ETHO    O147683  12.362   8.366   3.510
 6162ETHO    C147684  12.367   8.486   3.432
 6162ETHO   H1147685  12.414   8.470   3.333
 6162ETHO   H1347686  12.261   8.513   3.418
 6162ETHO    C247687  12.411   8.616   3.501
 6162ETHO   H2147688  12.414   8.690   3.419
 6162ETHO   H2347689  12.511   8.614   3.549
 6163ETHO    O147690  12.310   8.663   3.598
 6163ETHO    C147691  12.313   8.578   3.715
 6163ETHO   H1147692  12.240   8.498   3.690
 6163ETHO   H1347693  12.406   8.522   3.737
 6163ETHO    C247694  12.277   8.657   3.839
 6163ETHO   H2147695  12.180   8.709   3.823
 6163ETHO   H2347696  12.353   8.735   3.861
 6164ETHO    O147697  12.270   8.557   3.942
 6164ETHO    C147698  12.275   8.625   4.062
 6164ETHO   H1147699  12.380   8.650   4.088
 6164ETHO   H1347700  12.203   8.709   4.064
 6164ETHO    C247701  12.231   8.536   4.176
 6164ETHO   H2147702  12.125   8.504   4.165
 6164ETHO   H2347703  12.234   8.599   4.268
 6165ETHO    O147704  12.305   8.417   4.204
 6165ETHO    C147705  12.255   8.342   4.311
 6165ETHO   H1147706  12.223   8.422   4.382
 6165ETHO   H1347707  12.162   8.298   4.270
 6165ETHO    C247708  12.347   8.230   4.360
 6165ETHO   H2147709  12.347   8.142   4.292
 6165ETHO   H2347710  12.299   8.183   4.448
 6166ETHO    O147711  12.478   8.274   4.399
 6166ETHO    C147712  12.542   8.165   4.464
 6166ETHO   H1147713  12.537   8.081   4.391
 6166ETHO   H1347714  12.494   8.142   4.561
 6166ETHO    C247715  12.689   8.196   4.507
 6166ETHO   H2147716  12.739   8.221   4.411
 6166ETHO   H2347717  12.731   8.101   4.545
 6167ETHO    O147718  12.704   8.306   4.588
 6167ETHO    C147719  12.823   8.290   4.668
 6167ETHO   H1147720  12.817   8.208   4.742
 6167ETHO   H1347721  12.916   8.280   4.607
 6167ETHO    C247722  12.851   8.422   4.747
 6167ETHO   H2147723  12.937   8.399   4.814
 6167ETHO   H2347724  12.759   8.446   4.804
 6168ETHO    O147725  12.887   8.528   4.659
 6168ETHO    C147726  12.876   8.648   4.732
 6168ETHO   H1147727  12.905   8.624   4.836
 6168ETHO   H1347728  12.770   8.673   4.711
 6168ETHO    C247729  12.956   8.769   4.673
 6168ETHO   H2147730  13.047   8.729   4.624
 6168ETHO   H2347731  12.968   8.842   4.756
 6169ETHO    O147732  12.879   8.839   4.574
 6169ETHO    C147733  12.913   8.977   4.566
 6169ETHO   H1147734  12.878   9.029   4.658
 6169ETHO   H1347735  13.023   8.990   4.563
 6169ETHO    C247736  12.846   9.061   4.449
 6169ETHO   H2147737  12.837   9.166   4.484
 6169ETHO   H2347738  12.751   9.031   4.400
 6170ETHO    O147739  12.932   9.076   4.335
 6170ETHO    C147740  12.965   8.943   4.276
 6170ETHO   H1147741  12.881   8.871   4.285
 6170ETHO   H1347742  13.043   8.898   4.340
 6170ETHO    C247743  13.012   8.956   4.129
 6170ETHO   H2147744  13.038   8.851   4.105
 6170ETHO   H2347745  13.084   9.040   4.119
 6171ETHO    O147746  12.901   8.985   4.049
 6171ETHO    C147747  12.950   9.007   3.911
 6171ETHO   H1147748  12.977   9.111   3.885
 6171ETHO   H1347749  13.042   8.949   3.888
 6171ETHO    C247750  12.852   8.960   3.809
 6171ETHO   H2147751  12.883   8.981   3.704
 6171ETHO   H2347752  12.760   9.023   3.813
 6172ETHO    O147753  12.834   8.822   3.823
 6172ETHO    C147754  12.703   8.781   3.800
 6172ETHO   H1147755  12.664   8.808   3.699
 6172ETHO   H1347756  12.649   8.834   3.881
 6172ETHO    C247757  12.676   8.629   3.831
 6172ETHO   H2147758  12.569   8.603   3.842
 6172ETHO   H2347759  12.713   8.596   3.930
 6173ETHO    O147760  12.732   8.551   3.719
 6173ETHO    C147761  12.727   8.414   3.743
 6173ETHO   H1147762  12.740   8.389   3.851
 6173ETHO   H1347763  12.625   8.371   3.730
 6173ETHO    C247764  12.807   8.341   3.635
 6173ETHO   H2147765  12.797   8.397   3.540
 6173ETHO   H2347766  12.770   8.238   3.617
 6174ETHO    O147767  12.937   8.319   3.683
 6174ETHO    C147768  13.014   8.245   3.593
 6174ETHO   H1147769  12.959   8.161   3.545
 6174ETHO   H1347770  13.068   8.307   3.519
 6174ETHO    C247771  13.123   8.185   3.679
 6174ETHO   H2147772  13.185   8.135   3.601
 6174ETHO   H2347773  13.078   8.105   3.741
 6175ETHO    O147774  13.195   8.279   3.758
 6175ETHO    C147775  13.283   8.209   3.847
 6175ETHO   H1147776  13.218   8.136   3.901
 6175ETHO   H1347777  13.356   8.152   3.785
 6175ETHO    C247778  13.352   8.310   3.944
 6175ETHO   H2147779  13.394   8.392   3.882
 6175ETHO   H2347780  13.443   8.261   3.987
 6176ETHO    O147781  13.265   8.347   4.049
 6176ETHO    C147782  13.285   8.484   4.093
 6176ETHO   H1147783  13.382   8.488   4.148
 6176ETHO   H1347784  13.278   8.555   4.008
 6176ETHO    C247785  13.172   8.522   4.190
 6176ETHO   H2147786  13.166   8.630   4.215
 6176ETHO   H2347787  13.071   8.499   4.150
 6177ETHO    O147788  13.185   8.446   4.305
 6177ETHO    C147789  13.237   8.519   4.414
 6177ETHO   H1147790  13.184   8.616   4.419
 6177ETHO   H1347791  13.345   8.538   4.396
 6177ETHO    C247792  13.216   8.457   4.554
 6177ETHO   H2147793  13.114   8.414   4.557
 6177ETHO   H2347794  13.214   8.543   4.623
 6178ETHO    O147795  13.310   8.357   4.586
 6178ETHO    C147796  13.421   8.413   4.653
 6178ETHO   H1147797  13.502   8.421   4.577
 6178ETHO   H1347798  13.398   8.516   4.685
 6178ETHO    C247799  13.460   8.320   4.765
 6178ETHO   H2147800  13.564   8.351   4.789
 6178ETHO   H2347801  13.478   8.221   4.718
 6179ETHO    O147802  13.390   8.322   4.884
 6179ETHO    C147803  13.269   8.237   4.878
 6179ETHO   H1147804  13.300   8.132   4.858
 6179ETHO   H1347805  13.205   8.278   4.797
 6179ETHO    C247806  13.195   8.226   5.011
 6179ETHO   H2147807  13.250   8.191   5.100
 6179ETHO   H2347808  13.109   8.156   4.998
 6180ETHO    O147809  13.143   8.360   5.039
 6180ETHO    C147810  13.130   8.387   5.175
 6180ETHO   H1147811  13.031   8.347   5.206
 6180ETHO   H1347812  13.212   8.338   5.232
 6180ETHO    C247813  13.139   8.542   5.187
 6180ETHO   H2147814  13.061   8.589   5.123
 6180ETHO   H2347815  13.239   8.567   5.144
 6181ETHO    O147816  13.119   8.575   5.325
 6181ETHO    C147817  13.147   8.708   5.352
 6181ETHO   H1147818  13.077   8.779   5.303
 6181ETHO   H1347819  13.243   8.744   5.309
 6181ETHO    C247820  13.156   8.725   5.505
 6181ETHO   H2147821  13.184   8.825   5.545
 6181ETHO   H2347822  13.229   8.660   5.557
 6182ETHO    O147823  13.029   8.685   5.538
 6182ETHO    C147824  13.000   8.701   5.678
 6182ETHO   H1147825  13.071   8.648   5.745
 6182ETHO   H1347826  13.000   8.811   5.695
 6182ETHO    C247827  12.862   8.649   5.714
 6182ETHO   H2147828  12.859   8.540   5.697
 6182ETHO   H2347829  12.785   8.697   5.650
 6183ETHO    O147830  12.846   8.678   5.855
 6183ETHO    C147831  12.726   8.623   5.900
 6183ETHO   H1147832  12.723   8.512   5.901
 6183ETHO   H1347833  12.644   8.668   5.840
 6183ETHO    C247834  12.679   8.663   6.041
 6183ETHO   H2147835  12.752   8.618   6.112
 6183ETHO   H2347836  12.582   8.612   6.060
 6184ETHO    O147837  12.678   8.803   6.075
 6184ETHO    C147838  12.586   8.825   6.184
 6184ETHO   H1147839  12.490   8.800   6.133
 6184ETHO   H1347840  12.603   8.757   6.270
 6184ETHO    C247841  12.586   8.971   6.227
 6184ETHO   H2147842  12.494   8.993   6.285
 6184ETHO   H2347843  12.589   9.040   6.139
 6185ETHO    O147844  12.700   9.001   6.306
 6185ETHO    C147845  12.715   9.136   6.341
 6185ETHO   H1147846  12.751   9.193   6.252
 6185ETHO   H1347847  12.619   9.181   6.373
 6185ETHO    C247848  12.821   9.163   6.453
 6185ETHO   H2147849  12.900   9.239   6.434
 6185ETHO   H2347850  12.879   9.069   6.463
 6186ETHO    O147851  12.754   9.204   6.570
 6186ETHO    C147852  12.832   9.297   6.647
 6186ETHO   H1147853  12.939   9.265   6.648
 6186ETHO   H1347854  12.828   9.396   6.595
 6186ETHO    C247855  12.791   9.311   6.798
 6186ETHO   H2147856  12.682   9.329   6.805
 6186ETHO   H2347857  12.834   9.405   6.838
 6187ETHO    O147858  12.819   9.196   6.878
 6187ETHO    C147859  12.947   9.206   6.944
 6187ETHO   H1147860  13.020   9.199   6.861
 6187ETHO   H1347861  12.962   9.304   6.996
 6187ETHO    C247862  12.969   9.102   7.054
 6187ETHO   H2147863  13.079   9.099   7.068
 6187ETHO   H2347864  12.919   9.008   7.021
 6188ETHO    O147865  12.911   9.142   7.180
 6188ETHO    C147866  12.977   9.257   7.237
 6188ETHO   H1147867  12.934   9.352   7.200
 6188ETHO   H1347868  13.086   9.252   7.218
 6188ETHO    C247869  12.950   9.268   7.390
 6188ETHO   H2147870  13.026   9.344   7.418
 6188ETHO   H2347871  12.950   9.166   7.434
 6189ETHO    O147872  12.823   9.332   7.414
 6189ETHO    C147873  12.776   9.298   7.546
 6189ETHO   H1147874  12.705   9.212   7.539
 6189ETHO   H1347875  12.859   9.267   7.612
 6189ETHO    C247876  12.719   9.416   7.620
 6189ETHO   H2147877  12.662   9.377   7.707
 6189ETHO   H2347878  12.637   9.454   7.556
 6190ETHO    O147879  12.811   9.514   7.677
 6190ETHO    C147880  12.832   9.634   7.603
 6190ETHO   H1147881  12.834   9.595   7.499
 6190ETHO   H1347882  12.929   9.678   7.634
 6190ETHO    C247883  12.714   9.738   7.635
 6190ETHO   H2147884  12.619   9.679   7.638
 6190ETHO   H2347885  12.700   9.812   7.554
 6191ETHO    O147886  12.722   9.815   7.758
 6191ETHO    C147887  12.603   9.896   7.779
 6191ETHO   H1147888  12.615   9.986   7.715
 6191ETHO   H1347889  12.514   9.841   7.741
 6191ETHO    C247890  12.574   9.936   7.919
 6191ETHO   H2147891  12.548   9.851   7.985
 6191ETHO   H2347892  12.486  10.003   7.908
 6192ETHO    O147893  12.679  10.006   7.971
 6192ETHO    C147894  12.700   9.970   8.111
 6192ETHO   H1147895  12.682   9.863   8.136
 6192ETHO   H1347896  12.630  10.028   8.175
 6192ETHO    C247897  12.848   9.997   8.155
 6192ETHO   H2147898  12.916   9.972   8.070
 6192ETHO   H2347899  12.877   9.931   8.240
 6193ETHO    O147900  12.873  10.137   8.192
 6193ETHO    C147901  12.828  10.165   8.320
 6193ETHO   H1147902  12.727  10.123   8.342
 6193ETHO   H1347903  12.884  10.112   8.400
 6193ETHO    C247904  12.838  10.316   8.361
 6193ETHO   H2147905  12.755  10.376   8.319
 6193ETHO   H2347906  12.932  10.359   8.320
 6194ETHO    O147907  12.858  10.336   8.502
 6194ETHO    C147908  12.733  10.332   8.572
 6194ETHO   H1147909  12.694  10.227   8.567
 6194ETHO   H1347910  12.659  10.390   8.512
 6194ETHO    C247911  12.731  10.393   8.716
 6194ETHO   H2147912  12.822  10.354   8.768
 6194ETHO   H2347913  12.637  10.360   8.764
 6195ETHO    O147914  12.738  10.533   8.737
 6195ETHO    C147915  12.830  10.615   8.668
 6195ETHO   H1147916  12.900  10.553   8.609
 6195ETHO   H1347917  12.770  10.672   8.593
 6195ETHO    C247918  12.902  10.712   8.764
 6195ETHO   H2147919  12.842  10.729   8.856
 6195ETHO   H2347920  12.914  10.815   8.722
 6196PROX    O147921  13.031  10.659   8.795
 6196PROX    C147922  13.106  10.753   8.878
 6196PROX   H1147923  13.132  10.839   8.813
 6196PROX   H1347924  13.054  10.789   8.969
 6196PROX    C247925  13.239  10.688   8.933
 6196PROX   H2147926  13.304  10.653   8.850
 6196PROX    C347927  13.215  10.580   9.041
 6196PROX   H3147928  13.165  10.626   9.129
 6196PROX   H3247929  13.152  10.496   9.004
 6196PROX   H3347930  13.311  10.540   9.080
 6197PROX    O147931  13.311  10.788   9.006
 6197PROX    C147932  13.413  10.847   8.929
 6197PROX   H1147933  13.479  10.777   8.873
 6197PROX   H1347934  13.363  10.896   8.843
 6197PROX    C247935  13.503  10.949   9.010
 6197PROX   H2147936  13.446  10.985   9.098
 6197PROX    C347937  13.551  11.075   8.924
 6197PROX   H3147938  13.463  11.133   8.889
 6197PROX   H3247939  13.601  11.141   8.997
 6197PROX   H3347940  13.612  11.046   8.836
 6198PROX    O147941  13.629  10.888   9.043
 6198PROX    C147942  13.628  10.783   9.134
 6198PROX   H1147943  13.538  10.723   9.107
 6198PROX   H1347944  13.714  10.717   9.111
 6198PROX    C247945  13.642  10.840   9.275
 6198PROX   H2147946  13.558  10.910   9.295
 6198PROX    C347947  13.766  10.922   9.297
 6198PROX   H3147948  13.858  10.867   9.267
 6198PROX   H3247949  13.756  11.009   9.228
 6198PROX   H3347950  13.773  10.959   9.401
 6199PROX    O147951  13.648  10.738   9.371
 6199PROX    C147952  13.527  10.672   9.377
 6199PROX   H1147953  13.444  10.746   9.384
 6199PROX   H1347954  13.521  10.602   9.292
 6199PROX    C247955  13.512  10.592   9.506
 6199PROX   H2147956  13.499  10.659   9.593
 6199PROX    C347957  13.636  10.513   9.554
 6199PROX   H3147958  13.725  10.574   9.577
 6199PROX   H3247959  13.618  10.441   9.637
 6199PROX   H3347960  13.668  10.448   9.470
 6200PROX    O147961  13.400  10.495   9.487
 6200PROX    C147962  13.273  10.559   9.468
 6200PROX   H1147963  13.268  10.632   9.551
 6200PROX   H1347964  13.266  10.599   9.364
 6200PROX    C247965  13.146  10.468   9.477
 6200PROX   H2147966  13.130  10.446   9.585
 6200PROX    C347967  13.169  10.335   9.399
 6200PROX   H3147968  13.210  10.361   9.298
 6200PROX   H3247969  13.252  10.277   9.445
 6200PROX   H3347970  13.075  10.278   9.389
 6201PROX    O147971  13.038  10.536   9.415
 6201PROX    C147972  12.988  10.639   9.505
 6201PROX   H1147973  12.905  10.592   9.563
 6201PROX   H1347974  13.054  10.691   9.577
 6201PROX    C247975  12.924  10.751   9.415
 6201PROX   H2147976  12.853  10.802   9.484
 6201PROX    C347977  12.845  10.688   9.297
 6201PROX   H3147978  12.919  10.659   9.219
 6201PROX   H3247979  12.780  10.601   9.320
 6201PROX   H3347980  12.784  10.775   9.266
 6202PROX    O147981  13.031  10.834   9.366
 6202PROX    C147982  12.997  10.971   9.361
 6202PROX   H1147983  12.938  10.984   9.268
 6202PROX   H1347984  12.946  11.008   9.452
 6202PROX    C247985  13.119  11.069   9.339
 6202PROX   H2147986  13.066  11.163   9.314
 6202PROX    C347987  13.216  11.024   9.237
 6202PROX   H3147988  13.261  10.925   9.257
 6202PROX   H3247989  13.179  11.025   9.132
 6202PROX   H3347990  13.299  11.098   9.242
 6203PROX    O147991  13.190  11.101   9.459
 6203PROX    C147992  13.253  10.982   9.520
 6203PROX   H1147993  13.174  10.909   9.550
 6203PROX   H1347994  13.323  10.929   9.452
 6203PROX    C247995  13.333  11.016   9.645
 6203PROX   H2147996  13.405  11.095   9.616
 6203PROX    C347997  13.410  10.898   9.698
 6203PROX   H3147998  13.461  10.909   9.796
 6203PROX   H3247999  13.336  10.815   9.707
 6203PROX   H3348000  13.485  10.857   9.627
 6204PROX    O148001  13.240  11.054   9.752
 6204PROX    C148002  13.204  11.192   9.751
 6204PROX   H1148003  13.288  11.264   9.764
 6204PROX   H1348004  13.163  11.228   9.654
 6204PROX    C248005  13.106  11.222   9.860
 6204PROX   H2148006  13.030  11.142   9.874
 6204PROX    C348007  13.054  11.368   9.835
 6204PROX   H3148008  12.994  11.398   9.923
 6204PROX   H3248009  13.127  11.451   9.820
 6204PROX   H3348010  12.990  11.367   9.744
 6205PROX    O148011  13.173  11.232   9.985
 6205PROX    C148012  13.189  11.111  10.055
 6205PROX   H1148013  13.086  11.075  10.075
 6205PROX   H1348014  13.247  11.036   9.997
 6205PROX    C248015  13.260  11.138  10.186
 6205PROX   H2148016  13.212  11.223  10.240
 6205PROX    C348017  13.406  11.166  10.172
 6205PROX   H3148018  13.457  11.084  10.116
 6205PROX   H3248019  13.429  11.256  10.111
 6205PROX   H3348020  13.451  11.174  10.273
 6206PROX    O148021  13.246  11.018  10.264
 6206PROX    C148022  13.116  11.003  10.327
 6206PROX   H1148023  13.070  11.099  10.359
 6206PROX   H1348024  13.047  10.946  10.261
 6206PROX    C248025  13.150  10.906  10.456
 6206PROX   H2148026  13.251  10.938  10.490
 6206PROX    C348027  13.153  10.763  10.401
 6206PROX   H3148028  13.206  10.749  10.304
 6206PROX   H3248029  13.202  10.693  10.473
 6206PROX   H3348030  13.052  10.722  10.381
 6207PROX    O148031  13.059  10.924  10.561
 6207PROX    C148032  13.079  11.044  10.637
 6207PROX   H1148033  13.170  11.032  10.700
 6207PROX   H1348034  13.102  11.132  10.574
 6207PROX    C248035  12.959  11.084  10.728
 6207PROX   H2148036  12.993  11.150  10.810
 6207PROX    C348037  12.905  10.958  10.804
 6207PROX   H3148038  12.985  10.916  10.870
 6207PROX   H3248039  12.824  10.994  10.871
 6207PROX   H3348040  12.865  10.881  10.735
 6208PROX    O148041  12.859  11.165  10.660
 6208PROX    C148042  12.798  11.090  10.559
 6208PROX   H1148043  12.871  11.043  10.490
 6208PROX   H1348044  12.734  11.011  10.604
 6208PROX    C248045  12.698  11.178  10.478
 6208PROX   H2148046  12.647  11.238  10.556
 6208PROX    C348047  12.596  11.101  10.407
 6208PROX   H3148048  12.554  11.158  10.322
 6208PROX   H3248049  12.646  11.016  10.356
 6208PROX   H3348050  12.523  11.060  10.480
 6209PROX    O148051  12.765  11.252  10.380
 6209PROX    C148052  12.837  11.362  10.437
 6209PROX   H1148053  12.772  11.426  10.501
 6209PROX   H1348054  12.918  11.325  10.503
 6209PROX    C248055  12.886  11.457  10.327
 6209PROX   H2148056  12.802  11.489  10.261
 6209PROX    C348057  12.976  11.372  10.234
 6209PROX   H3148058  13.003  11.423  10.139
 6209PROX   H3248059  13.062  11.345  10.299
 6209PROX   H3348060  12.921  11.280  10.204
 6210PROX    O148061  12.941  11.583  10.379
 6210PROX    C148062  13.020  11.654  10.282
 6210PROX   H1148063  13.119  11.606  10.267
 6210PROX   H1348064  12.960  11.656  10.188
 6210PROX    C248065  13.050  11.800  10.326
 6210PROX   H2148066  13.126  11.834  10.253
 6210PROX    C348067  13.094  11.821  10.478
 6210PROX   H3148068  13.124  11.926  10.498
 6210PROX   H3248069  13.005  11.792  10.537
 6210PROX   H3348070  13.177  11.750  10.497
 6211PROX    O148071  12.938  11.881  10.299
 6211PROX    C148072  12.969  12.025  10.297
 6211PROX   H1148073  12.909  12.069  10.380
 6211PROX   H1348074  13.071  12.053  10.332
 6211PROX    C248075  12.923  12.103  10.167
 6211PROX   H2148076  12.929  12.211  10.193
 6211PROX    C348077  12.775  12.067  10.131
 6211PROX   H3148078  12.767  11.957  10.120
 6211PROX   H3248079  12.706  12.099  10.211
 6211PROX   H3348080  12.737  12.102  10.032
 6212PROX    O148081  13.017  12.082  10.062
 6212PROX    C148082  13.006  11.956   9.992
 6212PROX   H1148083  12.967  11.873  10.056
 6212PROX   H1348084  12.934  11.954   9.907
 6212PROX    C248085  13.149  11.916   9.934
 6212PROX   H2148086  13.178  11.987   9.853
 6212PROX    C348087  13.143  11.768   9.896
 6212PROX   H3148088  13.237  11.740   9.844
 6212PROX   H3248089  13.122  11.703   9.984
 6212PROX   H3348090  13.055  11.758   9.828
 6213PROX    O148091  13.242  11.912  10.052
 6213PROX    C148092  13.379  11.931  10.017
 6213PROX   H1148093  13.424  11.847   9.959
 6213PROX   H1348094  13.397  12.030   9.970
 6213PROX    C248095  13.471  11.932  10.146
 6213PROX   H2148096  13.420  11.983  10.231
 6213PROX    C348097  13.594  12.007  10.113
 6213PROX   H3148098  13.575  12.116  10.100
 6213PROX   H3248099  13.661  11.993  10.201
 6213PROX   H3348100  13.647  11.965  10.024
 6214PROX    O148101  13.509  11.800  10.182
 6214PROX    C148102  13.396  11.732  10.245
 6214PROX   H1148103  13.332  11.797  10.309
 6214PROX   H1348104  13.328  11.690  10.169
 6214PROX    C248105  13.452  11.612  10.322
 6214PROX   H2148106  13.536  11.653  10.382
 6214PROX    C348107  13.496  11.506  10.222
 6214PROX   H3148108  13.556  11.553  10.141
 6214PROX   H3248109  13.548  11.417  10.265
 6214PROX   H3348110  13.413  11.458  10.166
 6215PROX    O148111  13.353  11.561  10.410
 6215PROX    C148112  13.410  11.500  10.520
 6215PROX   H1148113  13.512  11.458  10.506
 6215PROX   H1348114  13.426  11.571  10.604
 6215PROX    C248115  13.316  11.388  10.551
 6215PROX   H2148116  13.298  11.330  10.458
 6215PROX    C348117  13.182  11.438  10.613
 6215PROX   H3148118  13.130  11.508  10.544
 6215PROX   H3248119  13.113  11.352  10.626
 6215PROX   H3348120  13.193  11.491  10.710
 6216PROX    O148121  13.366  11.312  10.661
 6216PROX    C148122  13.442  11.210  10.601
 6216PROX   H1148123  13.380  11.137  10.545
 6216PROX   H1348124  13.532  11.248  10.548
 6216PROX    C248125  13.499  11.122  10.717
 6216PROX   H2148126  13.416  11.077  10.774
 6216PROX    C348127  13.594  11.211  10.806
 6216PROX   H3148128  13.546  11.306  10.837
 6216PROX   H3248129  13.625  11.167  10.903
 6216PROX   H3348130  13.689  11.239  10.755
 6217PROX    O148131  13.577  11.017  10.663
 6217PROX    C148132  13.510  10.891  10.654
 6217PROX   H1148133  13.505  10.840  10.752
 6217PROX   H1348134  13.404  10.911  10.628
 6217PROX    C248135  13.574  10.817  10.533
 6217PROX   H2148136  13.681  10.793  10.554
 6217PROX    C348137  13.578  10.900  10.400
 6217PROX   H3148138  13.477  10.913  10.355
 6217PROX   H3248139  13.621  11.001  10.414
 6217PROX   H3348140  13.646  10.850  10.328
 6218PROX    O148141  13.507  10.696  10.520
 6218PROX    C148142  13.573  10.602  10.438
 6218PROX   H1148143  13.674  10.641  10.411
 6218PROX   H1348144  13.602  10.510  10.493
 6218PROX    C248145  13.485  10.567  10.315
 6218PROX   H2148146  13.424  10.655  10.285
 6218PROX    C348147  13.387  10.452  10.352
 6218PROX   H3148148  13.316  10.486  10.430
 6218PROX   H3248149  13.312  10.427  10.274
 6218PROX   H3348150  13.438  10.359  10.387
 6219PROX    O148151  13.556  10.519  10.200
 6219PROX    C148152  13.586  10.620  10.107
 6219PROX   H1148153  13.489  10.660  10.070
 6219PROX   H1348154  13.631  10.713  10.148
 6219PROX    C248155  13.677  10.559   9.992
 6219PROX   H2148156  13.636  10.468   9.943
 6219PROX    C348157  13.815  10.507  10.039
 6219PROX   H3148158  13.795  10.421  10.106
 6219PROX   H3248159  13.877  10.468   9.956
 6219PROX   H3348160  13.881  10.579  10.092
 6220PROX    O148161  13.700  10.657   9.889
 6220PROX    C148162  13.758  10.779   9.925
 6220PROX   H1148163  13.684  10.844   9.977
 6220PROX   H1348164  13.833  10.758  10.004
 6220PROX    C248165  13.818  10.861   9.807
 6220PROX   H2148166  13.736  10.874   9.732
 6220PROX    C348167  13.926  10.773   9.733
 6220PROX   H3148168  13.886  10.681   9.685
 6220PROX   H3248169  13.972  10.836   9.654
 6220PROX   H3348170  14.007  10.735   9.799
 6221PROX    O148171  13.858  10.992   9.857
 6221PROX    C148172  13.762  11.092   9.827
 6221PROX   H1148173  13.755  11.084   9.716
 6221PROX   H1348174  13.669  11.061   9.879
 6221PROX    C248175  13.820  11.232   9.871
 6221PROX   H2148176  13.926  11.228   9.838
 6221PROX    C348177  13.810  11.259  10.024
 6221PROX   H3148178  13.706  11.238  10.058
 6221PROX   H3248179  13.864  11.182  10.084
 6221PROX   H3348180  13.835  11.365  10.050
 6222PROX    O148181  13.756  11.337   9.796
 6222PROX    C148182  13.626  11.363   9.844
 6222PROX   H1148183  13.566  11.270   9.858
 6222PROX   H1348184  13.629  11.414   9.943
 6222PROX    C248185  13.547  11.449   9.745
 6222PROX   H2148186  13.614  11.517   9.688
 6222PROX    C348187  13.436  11.526   9.808
 6222PROX   H3148188  13.378  11.579   9.729
 6222PROX   H3248189  13.372  11.477   9.884
 6222PROX   H3348190  13.487  11.608   9.862
 6223PROX    O148191  13.491  11.368   9.642
 6223PROX    C148192  13.573  11.337   9.528
 6223PROX   H1148193  13.632  11.427   9.498
 6223PROX   H1348194  13.647  11.260   9.558
 6223PROX    C248195  13.487  11.304   9.401
 6223PROX   H2148196  13.413  11.227   9.432
 6223PROX    C348197  13.572  11.251   9.286
 6223PROX   H3148198  13.516  11.269   9.192
 6223PROX   H3248199  13.668  11.305   9.280
 6223PROX   H3348200  13.597  11.143   9.285
 6224PROX    O148201  13.422  11.431   9.360
 6224PROX    C148202  13.319  11.466   9.446
 6224PROX   H1148203  13.299  11.383   9.517
 6224PROX   H1348204  13.336  11.563   9.497
 6224PROX    C248205  13.183  11.473   9.375
 6224PROX   H2148206  13.171  11.383   9.311
 6224PROX    C348207  13.186  11.604   9.285
 6224PROX   H3148208  13.272  11.616   9.216
 6224PROX   H3248209  13.088  11.606   9.233
 6224PROX   H3348210  13.185  11.690   9.356
 6225PROX    O148211  13.082  11.497   9.474
 6225PROX    C148212  12.955  11.445   9.434
 6225PROX   H1148213  12.942  11.451   9.324
 6225PROX   H1348214  12.958  11.336   9.456
 6225PROX    C248215  12.850  11.525   9.518
 6225PROX   H2148216  12.886  11.564   9.616
 6225PROX    C348217  12.725  11.442   9.553
 6225PROX   H3148218  12.671  11.509   9.623
 6225PROX   H3248219  12.656  11.424   9.468
 6225PROX   H3348220  12.746  11.348   9.610
 6226PROX    O148221  12.804  11.638   9.448
 6226PROX    C148222  12.889  11.748   9.452
 6226PROX   H1148223  12.988  11.714   9.488
 6226PROX   H1348224  12.924  11.774   9.349
 6226PROX    C248225  12.843  11.863   9.538
 6226PROX   H2148226  12.744  11.897   9.502
 6226PROX    C348227  12.943  11.973   9.535
 6226PROX   H3148228  12.919  12.051   9.611
 6226PROX   H3248229  13.046  11.948   9.568
 6226PROX   H3348230  12.941  12.027   9.438
 6227PROX    O148231  12.838  11.818   9.674
 6227PROX    C148232  12.701  11.798   9.718
 6227PROX   H1148233  12.648  11.894   9.699
 6227PROX   H1348234  12.650  11.717   9.662
 6227PROX    C248235  12.688  11.768   9.866
 6227PROX   H2148236  12.715  11.856   9.929
 6227PROX    C348237  12.766  11.650   9.908
 6227PROX   H3148238  12.716  11.552   9.890
 6227PROX   H3248239  12.866  11.651   9.859
 6227PROX   H3348240  12.803  11.666  10.012
 6228PROX    O148241  12.552  11.750   9.901
 6228PROX    C148242  12.480  11.861   9.961
 6228PROX   H1148243  12.508  11.881  10.066
 6228PROX   H1348244  12.499  11.955   9.905
 6228PROX    C248245  12.327  11.844   9.952
 6228PROX   H2148246  12.289  11.743   9.979
 6228PROX    C348247  12.278  11.865   9.802
 6228PROX   H3148248  12.276  11.974   9.778
 6228PROX   H3248249  12.339  11.801   9.734
 6228PROX   H3348250  12.173  11.834   9.786
 6229PROX    O148251  12.267  11.944  10.028
 6229PROX    C148252  12.261  11.921  10.171
 6229PROX   H1148253  12.170  11.866  10.203
 6229PROX   H1348254  12.351  11.864  10.202
 6229PROX    C248255  12.266  12.052  10.251
 6229PROX   H2148256  12.190  12.125  10.216
 6229PROX    C348257  12.406  12.125  10.244
 6229PROX   H3148258  12.488  12.056  10.275
 6229PROX   H3248259  12.413  12.150  10.136
 6229PROX   H3348260  12.404  12.214  10.311
 6230PROX    O148261  12.258  12.027  10.389
 6230PROX    C148262  12.130  11.990  10.436
 6230PROX   H1148263  12.087  12.060  10.510
 6230PROX   H1348264  12.059  11.983  10.352
 6230PROX    C248265  12.134  11.843  10.491
 6230PROX   H2148266  12.190  11.777  10.421
 6230PROX    C348267  11.989  11.799  10.504
 6230PROX   H3148268  11.936  11.834  10.413
 6230PROX   H3248269  11.987  11.689  10.521
 6230PROX   H3348270  11.931  11.843  10.588
 6231PROX    O148271  12.193  11.840  10.620
 6231PROX    C148272  12.238  11.713  10.662
 6231PROX   H1148273  12.158  11.636  10.660
 6231PROX   H1348274  12.320  11.675  10.597
 6231PROX    C248275  12.308  11.712  10.797
 6231PROX   H2148276  12.225  11.703  10.869
 6231PROX    C348277  12.387  11.844  10.837
 6231PROX   H3148278  12.326  11.934  10.812
 6231PROX   H3248279  12.411  11.845  10.946
 6231PROX   H3348280  12.482  11.865  10.783
 6232PROX    O148281  12.389  11.592  10.794
 6232PROX    C148282  12.434  11.558  10.925
 6232PROX   H1148283  12.517  11.631  10.938
 6232PROX   H1348284  12.354  11.578  10.999
 6232PROX    C248285  12.480  11.406  10.933
 6232PROX   H2148286  12.552  11.400  10.849
 6232PROX    C348287  12.368  11.304  10.916
 6232PROX   H3148288  12.289  11.297  10.994
 6232PROX   H3248289  12.302  11.334  10.831
 6232PROX   H3348290  12.410  11.202  10.901
 6233PROX    O148291  12.544  11.365  11.058
 6233PROX    C148292  12.668  11.431  11.082
 6233PROX   H1148293  12.670  11.536  11.045
 6233PROX   H1348294  12.690  11.437  11.191
 6233PROX    C248295  12.794  11.362  11.020
 6233PROX   H2148296  12.754  11.320  10.925
 6233PROX    C348297  12.858  11.257  11.116
 6233PROX   H3148298  12.789  11.173  11.137
 6233PROX   H3248299  12.949  11.213  11.069
 6233PROX   H3348300  12.872  11.300  11.217
 6234PROX    O148301  12.891  11.458  10.986
 6234PROX    C148302  12.858  11.529  10.867
 6234PROX   H1148303  12.917  11.488  10.782
 6234PROX   H1348304  12.749  11.524  10.845
 6234PROX    C248305  12.893  11.679  10.880
 6234PROX   H2148306  12.997  11.684  10.917
 6234PROX    C348307  12.809  11.752  10.988
 6234PROX   H3148308  12.843  11.704  11.082
 6234PROX   H3248309  12.818  11.862  10.993
 6234PROX   H3348310  12.700  11.736  10.974
 6235PROX    O148311  12.866  11.745  10.750
 6235PROX    C148312  12.730  11.727  10.694
 6235PROX   H1148313  12.714  11.626  10.651
 6235PROX   H1348314  12.653  11.738  10.773
 6235PROX    C248315  12.708  11.831  10.586
 6235PROX   H2148316  12.781  11.797  10.510
 6235PROX    C348317  12.728  11.973  10.632
 6235PROX   H3148318  12.678  12.004  10.726
 6235PROX   H3248319  12.837  11.984  10.652
 6235PROX   H3348320  12.702  12.041  10.548
 6236PROX    O148321  12.571  11.814  10.535
 6236PROX    C148322  12.566  11.800  10.392
 6236PROX   H1148323  12.478  11.855  10.351
 6236PROX   H1348324  12.651  11.857  10.349
 6236PROX    C248325  12.560  11.654  10.362
 6236PROX   H2148326  12.630  11.599  10.429
 6236PROX    C348327  12.589  11.633  10.215
 6236PROX   H3148328  12.585  11.529  10.179
 6236PROX   H3248329  12.517  11.677  10.143
 6236PROX   H3348330  12.685  11.684  10.189
 6237PROX    O148331  12.435  11.603  10.389
 6237PROX    C148332  12.430  11.459  10.387
 6237PROX   H1148333  12.468  11.416  10.292
 6237PROX   H1348334  12.497  11.427  10.469
 6237PROX    C248335  12.286  11.396  10.412
 6237PROX   H2148336  12.227  11.455  10.485
 6237PROX    C348337  12.300  11.255  10.467
 6237PROX   H3148338  12.201  11.209  10.488
 6237PROX   H3248339  12.357  11.189  10.398
 6237PROX   H3348340  12.356  11.259  10.563
 6238PROX    O148341  12.215  11.380  10.299
 6238PROX    C148342  12.117  11.483  10.295
 6238PROX   H1148343  12.041  11.475  10.376
 6238PROX   H1348344  12.163  11.582  10.314
 6238PROX    C248345  12.048  11.468  10.164
 6238PROX   H2148346  12.119  11.420  10.094
 6238PROX    C348347  12.002  11.601  10.107
 6238PROX   H3148348  11.932  11.658  10.171
 6238PROX   H3248349  12.083  11.671  10.078
 6238PROX   H3348350  11.955  11.583  10.008
 6239PROX    O148351  11.931  11.386  10.178
 6239PROX    C148352  11.954  11.256  10.239
 6239PROX   H1148353  12.061  11.230  10.222
 6239PROX   H1348354  11.932  11.261  10.348
 6239PROX    C248355  11.874  11.141  10.173
 6239PROX   H2148356  11.767  11.171  10.170
 6239PROX    C348357  11.898  11.014  10.255
 6239PROX   H3148358  11.845  10.924  10.217
 6239PROX   H3248359  12.004  10.979  10.249
 6239PROX   H3348360  11.869  11.025  10.362
 6240PROX    O148361  11.921  11.126  10.038
 6240PROX    C148362  11.827  11.177   9.942
 6240PROX   H1148363  11.756  11.097   9.910
 6240PROX   H1348364  11.768  11.258   9.990
 6240PROX    C248365  11.887  11.236   9.822
 6240PROX   H2148366  11.967  11.298   9.867
 6240PROX    C348367  11.786  11.328   9.744
 6240PROX   H3148368  11.781  11.434   9.778
 6240PROX   H3248369  11.831  11.335   9.643
 6240PROX   H3348370  11.687  11.278   9.749
 6241PROX    O148371  11.937  11.133   9.743
 6241PROX    C148372  12.076  11.156   9.704
 6241PROX   H1148373  12.085  11.253   9.650
 6241PROX   H1348374  12.136  11.154   9.797
 6241PROX    C248375  12.113  11.038   9.608
 6241PROX   H2148376  12.042  11.039   9.523
 6241PROX    C348377  12.098  10.902   9.688
 6241PROX   H3148378  12.187  10.887   9.753
 6241PROX   H3248379  12.004  10.902   9.745
 6241PROX   H3348380  12.104  10.823   9.609
 6242PROX    O148381  12.240  11.071   9.554
 6242PROX    C148382  12.285  10.967   9.463
 6242PROX   H1148383  12.265  10.862   9.492
 6242PROX   H1348384  12.233  10.984   9.367
 6242PROX    C248385  12.437  10.973   9.438
 6242PROX   H2148386  12.461  11.077   9.408
 6242PROX    C348387  12.481  10.881   9.324
 6242PROX   H3148388  12.421  10.915   9.236
 6242PROX   H3248389  12.588  10.905   9.306
 6242PROX   H3348390  12.477  10.770   9.337
 6243PROX    O148391  12.498  10.945   9.559
 6243PROX    C148392  12.640  10.993   9.567
 6243PROX   H1148393  12.692  10.956   9.476
 6243PROX   H1348394  12.629  11.103   9.562
 6243PROX    C248395  12.697  10.947   9.701
 6243PROX   H2148396  12.634  10.970   9.789
 6243PROX    C348397  12.828  11.029   9.744
 6243PROX   H3148398  12.800  11.126   9.790
 6243PROX   H3248399  12.893  10.969   9.812
 6243PROX   H3348400  12.888  11.042   9.651
 6244PROX    O148401  12.735  10.809   9.689
 6244PROX    C148402  12.628  10.720   9.718
 6244PROX   H1148403  12.624  10.686   9.824
 6244PROX   H1348404  12.532  10.776   9.720
 6244PROX    C248405  12.604  10.597   9.623
 6244PROX   H2148406  12.655  10.619   9.527
 6244PROX    C348407  12.455  10.571   9.602
 6244PROX   H3148408  12.455  10.493   9.522
 6244PROX   H3248409  12.409  10.531   9.694
 6244PROX   H3348410  12.414  10.669   9.568
 6245PROX    O148411  12.663  10.481   9.681
 6245PROX    C148412  12.679  10.380   9.576
 6245PROX   H1148413  12.576  10.346   9.550
 6245PROX   H1348414  12.718  10.424   9.482
 6245PROX    C248415  12.772  10.265   9.613
 6245PROX   H2148416  12.866  10.322   9.631
 6245PROX    C348417  12.802  10.158   9.509
 6245PROX   H3148418  12.894  10.103   9.540
 6245PROX   H3248419  12.716  10.088   9.500
 6245PROX   H3348420  12.831  10.201   9.411
 6246PROX    O148421  12.723  10.208   9.733
 6246PROX    C148422  12.820  10.225   9.833
 6246PROX   H1148423  12.843  10.333   9.841
 6246PROX   H1348424  12.766  10.204   9.928
 6246PROX    C248425  12.942  10.142   9.809
 6246PROX   H2148426  12.999  10.174   9.720
 6246PROX    C348427  12.918   9.990   9.805
 6246PROX   H3148428  12.855   9.955   9.888
 6246PROX   H3248429  12.867   9.961   9.710
 6246PROX   H3348430  13.018   9.942   9.813
 6247PROX    O148431  13.030  10.151   9.920
 6247PROX    C148432  13.170  10.175   9.882
 6247PROX   H1148433  13.234  10.140   9.966
 6247PROX   H1348434  13.181  10.120   9.786
 6247PROX    C248435  13.191  10.323   9.861
 6247PROX   H2148436  13.101  10.370   9.816
 6247PROX    C348437  13.313  10.339   9.771
 6247PROX   H3148438  13.389  10.270   9.812
 6247PROX   H3248439  13.289  10.340   9.662
 6247PROX   H3348440  13.345  10.443   9.795
 6248PROX    O148441  13.228  10.386   9.990
 6248PROX    C148442  13.117  10.426  10.064
 6248PROX   H1148443  13.027  10.362  10.047
 6248PROX   H1348444  13.139  10.439  10.172
 6248PROX    C248445  13.072  10.567  10.019
 6248PROX   H2148446  13.023  10.566   9.920
 6248PROX    C348447  13.187  10.669  10.009
 6248PROX   H3148448  13.161  10.768   9.968
 6248PROX   H3248449  13.224  10.692  10.111
 6248PROX   H3348450  13.274  10.622   9.959
 6249PROX    O148451  12.976  10.616  10.111
 6249PROX    C148452  12.914  10.741  10.071
 6249PROX   H1148453  12.983  10.827  10.081
 6249PROX   H1348454  12.874  10.734   9.968
 6249PROX    C248455  12.791  10.759  10.163
 6249PROX   H2148456  12.726  10.672  10.139
 6249PROX    C348457  12.728  10.893  10.120
 6249PROX   H3148458  12.629  10.898  10.169
 6249PROX   H3248459  12.782  10.985  10.154
 6249PROX   H3348460  12.704  10.906  10.012
 6250PROX    O148461  12.838  10.765  10.297
 6250PROX    C148462  12.732  10.741  10.387
 6250PROX   H1148463  12.716  10.841  10.433
 6250PROX   H1348464  12.635  10.712  10.343
 6250PROX    C248465  12.768  10.642  10.493
 6250PROX   H2148466  12.870  10.663  10.531
 6250PROX    C348467  12.750  10.493  10.451
 6250PROX   H3148468  12.645  10.472  10.424
 6250PROX   H3248469  12.816  10.462  10.367
 6250PROX   H3348470  12.790  10.436  10.538
 6251PROX    O148471  12.687  10.674  10.610
 6251PROX    C148472  12.733  10.612  10.730
 6251PROX   H1148473  12.698  10.506  10.723
 6251PROX   H1348474  12.844  10.619  10.739
 6251PROX    C248475  12.657  10.668  10.852
 6251PROX   H2148476  12.673  10.778  10.859
 6251PROX    C348477  12.709  10.596  10.972
 6251PROX   H3148478  12.690  10.487  10.967
 6251PROX   H3248479  12.818  10.613  10.980
 6251PROX   H3348480  12.650  10.637  11.057
 6252PROX    O148481  12.517  10.638  10.845
 6252PROX    C148482  12.433  10.738  10.906
 6252PROX   H1148483  12.342  10.689  10.947
 6252PROX   H1348484  12.489  10.785  10.989
 6252PROX    C248485  12.393  10.844  10.802
 6252PROX   H2148486  12.335  10.797  10.720
 6252PROX    C348487  12.508  10.930  10.746
 6252PROX   H3148488  12.575  10.954  10.830
 6252PROX   H3248489  12.568  10.868  10.675
 6252PROX   H3348490  12.466  11.023  10.703
 6253PROX    O148491  12.313  10.944  10.867
 6253PROX    C148492  12.173  10.945  10.821
 6253PROX   H1148493  12.142  10.839  10.837
 6253PROX   H1348494  12.111  11.016  10.880
 6253PROX    C248495  12.147  10.986  10.678
 6253PROX   H2148496  12.233  11.051  10.652
 6253PROX    C348497  12.009  11.061  10.664
 6253PROX   H3148498  11.991  11.084  10.557
 6253PROX   H3248499  11.926  10.997  10.702
 6253PROX   H3348500  12.011  11.154  10.725
 6254PROX    O148501  12.155  10.871  10.587
 6254PROX    C148502  12.218  10.911  10.463
 6254PROX   H1148503  12.170  11.003  10.423
 6254PROX   H1348504  12.324  10.940  10.483
 6254PROX    C248505  12.221  10.799  10.358
 6254PROX   H2148506  12.125  10.743  10.367
 6254PROX    C348507  12.333  10.691  10.374
 6254PROX   H3148508  12.325  10.633  10.469
 6254PROX   H3248509  12.330  10.612  10.295
 6254PROX   H3348510  12.437  10.731  10.371
 6255PROX    O148511  12.218  10.860  10.230
 6255PROX    C148512  12.329  10.941  10.199
 6255PROX   H1148513  12.303  11.044  10.231
 6255PROX   H1348514  12.419  10.899  10.250
 6255PROX    C248515  12.354  10.939  10.052
 6255PROX   H2148516  12.256  10.959  10.004
 6255PROX    C348517  12.387  10.796  10.005
 6255PROX   H3148518  12.422  10.793   9.900
 6255PROX   H3248519  12.469  10.756  10.069
 6255PROX   H3348520  12.305  10.723  10.021
 6256PROX    O148521  12.466  11.020  10.015
 6256PROX    C148522  12.432  11.156  10.006
 6256PROX   H1148523  12.333  11.153   9.955
 6256PROX   H1348524  12.437  11.216  10.100
 6256PROX    C248525  12.538  11.233   9.926
 6256PROX   H2148526  12.577  11.170   9.844
 6256PROX    C348527  12.656  11.272  10.013
 6256PROX   H3148528  12.738  11.302   9.945
 6256PROX   H3248529  12.626  11.359  10.075
 6256PROX   H3348530  12.686  11.192  10.084
 6257PROX    O148531  12.479  11.356   9.877
 6257PROX    C148532  12.409  11.340   9.758
 6257PROX   H1148533  12.489  11.317   9.685
 6257PROX   H1348534  12.332  11.261   9.770
 6257PROX    C248535  12.338  11.472   9.722
 6257PROX   H2148536  12.421  11.545   9.716
 6257PROX    C348537  12.237  11.510   9.830
 6257PROX   H3148538  12.206  11.617   9.830
 6257PROX   H3248539  12.149  11.442   9.827
 6257PROX   H3348540  12.289  11.492   9.926
 6258PROX    O148541  12.271  11.461   9.599
 6258PROX    C148542  12.355  11.438   9.488
 6258PROX   H1148543  12.440  11.509   9.493
 6258PROX   H1348544  12.400  11.337   9.499
 6258PROX    C248545  12.275  11.446   9.360
 6258PROX   H2148546  12.255  11.551   9.329
 6258PROX    C348547  12.134  11.391   9.380
 6258PROX   H3148548  12.090  11.428   9.475
 6258PROX   H3248549  12.069  11.415   9.294
 6258PROX   H3348550  12.138  11.280   9.385
 6259PROX    O148551  12.341  11.373   9.260
 6259PROX    C148552  12.449  11.451   9.198
 6259PROX   H1148553  12.411  11.549   9.161
 6259PROX   H1348554  12.511  11.494   9.280
 6259PROX    C248555  12.529  11.367   9.101
 6259PROX   H2148556  12.474  11.379   9.005
 6259PROX    C348557  12.538  11.222   9.144
 6259PROX   H3148558  12.598  11.172   9.065
 6259PROX   H3248559  12.595  11.201   9.237
 6259PROX   H3348560  12.441  11.171   9.164
 6260PROX    O148561  12.658  11.424   9.099
 6260PROX    C148562  12.675  11.490   8.980
 6260PROX   H1148563  12.663  11.422   8.893
 6260PROX   H1348564  12.598  11.570   8.972
 6260PROX    C248565  12.818  11.552   8.988
 6260PROX   H2148566  12.884  11.479   9.039
 6260PROX    C348567  12.815  11.677   9.073
 6260PROX   H3148568  12.913  11.728   9.065
 6260PROX   H3248569  12.738  11.748   9.036
 6260PROX   H3348570  12.807  11.657   9.182
 6261ETHO    O148571  12.865  11.589   8.861
 6261ETHO    C148572  12.911  11.473   8.796
 6261ETHO   H1148573  12.845  11.386   8.819
 6261ETHO   H1348574  13.010  11.454   8.843
 6261ETHO    C248575  12.910  11.483   8.650
 6261ETHO   H2148576  12.971  11.405   8.600
 6261ETHO   H2348577  12.945  11.578   8.606
 6262ETHO    O148578  12.780  11.459   8.594
 6262ETHO    C148579  12.768  11.407   8.461
 6262ETHO   H1148580  12.813  11.474   8.385
 6262ETHO   H1348581  12.816  11.308   8.450
 6262ETHO    C248582  12.620  11.391   8.416
 6262ETHO   H2148583  12.596  11.369   8.310
 6262ETHO   H2348584  12.569  11.485   8.447
 6263ETHO    O148585  12.592  11.278   8.500
 6263ETHO    C148586  12.458  11.267   8.536
 6263ETHO   H1148587  12.392  11.257   8.448
 6263ETHO   H1348588  12.439  11.368   8.579
 6263ETHO    C248589  12.447  11.163   8.639
 6263ETHO   H2148590  12.342  11.137   8.663
 6263ETHO   H2348591  12.506  11.192   8.729
 6264ETHO    O148592  12.497  11.045   8.579
 6264ETHO    C148593  12.517  10.939   8.677
 6264ETHO   H1148594  12.608  10.876   8.672
 6264ETHO   H1348595  12.524  10.984   8.779
 6264ETHO    C248596  12.400  10.836   8.687
 6264ETHO   H2148597  12.309  10.895   8.709
 6264ETHO   H2348598  12.433  10.774   8.773
 6265ETHO    O148599  12.383  10.767   8.563
 6265ETHO    C148600  12.267  10.684   8.564
 6265ETHO   H1148601  12.180  10.741   8.603
 6265ETHO   H1348602  12.262  10.607   8.644
 6265ETHO    C248603  12.228  10.632   8.426
 6265ETHO   H2148604  12.127  10.589   8.445
 6265ETHO   H2348605  12.289  10.552   8.379
 6266ETHO    O148606  12.219  10.734   8.328
 6266ETHO    C148607  12.121  10.699   8.223
 6266ETHO   H1148608  12.133  10.592   8.197
 6266ETHO   H1348609  12.017  10.705   8.262
 6266ETHO    C248610  12.125  10.779   8.087
 6266ETHO   H2148611  12.160  10.878   8.122
 6266ETHO   H2348612  12.017  10.778   8.060
 6267ETHO    O148613  12.201  10.719   7.987
 6267ETHO    C148614  12.344  10.734   8.006
 6267ETHO   H1148615  12.370  10.714   8.112
 6267ETHO   H1348616  12.374  10.839   7.989
 6267ETHO    C248617  12.425  10.650   7.905
 6267ETHO   H2148618  12.533  10.673   7.921
 6267ETHO   H2348619  12.399  10.675   7.800
 6268ETHO    O148620  12.394  10.516   7.921
 6268ETHO    C148621  12.488  10.442   7.834
 6268ETHO   H1148622  12.472  10.480   7.731
 6268ETHO   H1348623  12.592  10.457   7.868
 6268ETHO    C248624  12.442  10.297   7.833
 6268ETHO   H2148625  12.519  10.228   7.794
 6268ETHO   H2348626  12.422  10.262   7.937
 6269ETHO    O148627  12.329  10.289   7.752
 6269ETHO    C148628  12.261  10.167   7.780
 6269ETHO   H1148629  12.327  10.077   7.769
 6269ETHO   H1348630  12.221  10.165   7.884
 6269ETHO    C248631  12.152  10.156   7.675
 6269ETHO   H2148632  12.198  10.159   7.574
 6269ETHO   H2348633  12.088  10.246   7.690
 6270ETHO    O148634  12.068  10.049   7.706
 6270ETHO    C148635  11.978  10.042   7.599
 6270ETHO   H1148636  11.921  10.136   7.590
 6270ETHO   H1348637  12.040  10.036   7.507
 6270ETHO    C248638  11.885   9.920   7.599
 6270ETHO   H2148639  11.832   9.941   7.504
 6270ETHO   H2348640  11.825   9.918   7.692
 6271ETHO    O148641  11.955   9.790   7.579
 6271ETHO    C148642  11.868   9.681   7.595
 6271ETHO   H1148643  11.832   9.688   7.699
 6271ETHO   H1348644  11.792   9.704   7.517
 6271ETHO    C248645  11.927   9.552   7.552
 6271ETHO   H2148646  11.891   9.468   7.614
 6271ETHO   H2348647  12.038   9.548   7.549
 6272ETHO    O148648  11.896   9.533   7.418
 6272ETHO    C148649  11.994   9.457   7.341
 6272ETHO   H1148650  12.004   9.350   7.372
 6272ETHO   H1348651  12.098   9.495   7.347
 6272ETHO    C248652  11.971   9.462   7.193
 6272ETHO   H2148653  12.063   9.418   7.150
 6272ETHO   H2348654  11.961   9.565   7.151
 6273ETHO    O148655  11.852   9.388   7.163
 6273ETHO    C148656  11.815   9.403   7.027
 6273ETHO   H1148657  11.910   9.423   6.974
 6273ETHO   H1348658  11.768   9.311   6.987
 6273ETHO    C248659  11.712   9.518   6.996
 6273ETHO   H2148660  11.738   9.543   6.891
 6273ETHO   H2348661  11.725   9.612   7.053
 6274ETHO    O148662  11.584   9.459   7.007
 6274ETHO    C148663  11.487   9.530   6.931
 6274ETHO   H1148664  11.534   9.558   6.834
 6274ETHO   H1348665  11.468   9.623   6.989
 6274ETHO    C248666  11.342   9.466   6.910
 6274ETHO   H2148667  11.277   9.543   6.861
 6274ETHO   H2348668  11.308   9.434   7.011
 6275ETHO    O148669  11.348   9.348   6.829
 6275ETHO    C148670  11.229   9.292   6.782
 6275ETHO   H1148671  11.156   9.305   6.865
 6275ETHO   H1348672  11.193   9.331   6.684
 6275ETHO    C248673  11.247   9.143   6.775
 6275ETHO   H2148674  11.154   9.093   6.740
 6275ETHO   H2348675  11.267   9.114   6.880
 6276ETHO    O148676  11.348   9.107   6.675
 6276ETHO    C148677  11.423   8.993   6.713
 6276ETHO   H1148678  11.352   8.908   6.706
 6276ETHO   H1348679  11.454   8.997   6.820
 6276ETHO    C248680  11.548   8.969   6.626
 6276ETHO   H2148681  11.608   8.892   6.679
 6276ETHO   H2348682  11.609   9.062   6.619
 6277ETHO    O148683  11.524   8.908   6.499
 6277ETHO    C148684  11.636   8.846   6.438
 6277ETHO   H1148685  11.724   8.914   6.432
 6277ETHO   H1348686  11.672   8.763   6.503
 6277ETHO    C248687  11.612   8.781   6.302
 6277ETHO   H2148688  11.531   8.706   6.315
 6277ETHO   H2348689  11.704   8.724   6.279
 6278ETHO    O148690  11.580   8.883   6.203
 6278ETHO    C148691  11.550   8.823   6.079
 6278ETHO   H1148692  11.440   8.820   6.064
 6278ETHO   H1348693  11.603   8.727   6.064
 6278ETHO    C248694  11.580   8.917   5.960
 6278ETHO   H2148695  11.684   8.955   5.971
 6278ETHO   H2348696  11.517   9.008   5.962
 6279ETHO    O148697  11.565   8.849   5.841
 6279ETHO    C148698  11.539   8.944   5.732
 6279ETHO   H1148699  11.437   8.988   5.735
 6279ETHO   H1348700  11.621   9.019   5.736
 6279ETHO    C248701  11.537   8.875   5.599
 6279ETHO   H2148702  11.638   8.828   5.600
 6279ETHO   H2348703  11.529   8.941   5.510
 6280ETHO    O148704  11.424   8.783   5.602
 6280ETHO    C148705  11.417   8.724   5.478
 6280ETHO   H1148706  11.315   8.678   5.480
 6280ETHO   H1348707  11.406   8.793   5.391
 6280ETHO    C248708  11.518   8.611   5.461
 6280ETHO   H2148709  11.519   8.550   5.554
 6280ETHO   H2348710  11.622   8.640   5.438
 6281ETHO    O148711  11.462   8.516   5.371
 6281ETHO    C148712  11.548   8.401   5.368
 6281ETHO   H1148713  11.641   8.446   5.326
 6281ETHO   H1348714  11.557   8.372   5.474
 6281ETHO    C248715  11.479   8.284   5.298
 6281ETHO   H2148716  11.557   8.210   5.269
 6281ETHO   H2348717  11.432   8.325   5.206
 6282ETHO    O148718  11.386   8.209   5.377
 6282ETHO    C148719  11.332   8.104   5.299
 6282ETHO   H1148720  11.270   8.155   5.223
 6282ETHO   H1348721  11.411   8.042   5.251
 6282ETHO    C248722  11.239   8.007   5.383
 6282ETHO   H2148723  11.292   7.983   5.478
 6282ETHO   H2348724  11.207   7.913   5.333
 6283ETHO    O148725  11.120   8.080   5.415
 6283ETHO    C148726  11.031   8.001   5.488
 6283ETHO   H1148727  11.085   7.983   5.583
 6283ETHO   H1348728  10.995   7.904   5.447
 6283ETHO    C248729  10.909   8.091   5.522
 6283ETHO   H2148730  10.829   8.033   5.572
 6283ETHO   H2348731  10.874   8.141   5.429
 6284ETHO    O148732  10.937   8.197   5.611
 6284ETHO    C148733  10.842   8.306   5.596
 6284ETHO   H1148734  10.885   8.376   5.522
 6284ETHO   H1348735  10.743   8.272   5.557
 6284ETHO    C248736  10.824   8.387   5.730
 6284ETHO   H2148737  10.783   8.317   5.807
 6284ETHO   H2348738  10.760   8.474   5.704
 6285ETHO    O148739  10.943   8.433   5.789
 6285ETHO    C148740  10.910   8.529   5.891
 6285ETHO   H1148741  10.852   8.479   5.971
 6285ETHO   H1348742  10.867   8.617   5.838
 6285ETHO    C248743  11.033   8.577   5.967
 6285ETHO   H2148744  11.074   8.485   6.014
 6285ETHO   H2348745  11.009   8.655   6.042
 6286ETHO    O148746  11.135   8.637   5.883
 6286ETHO    C148747  11.267   8.619   5.933
 6286ETHO   H1148748  11.324   8.700   5.884
 6286ETHO   H1348749  11.273   8.639   6.042
 6286ETHO    C248750  11.333   8.480   5.895
 6286ETHO   H2148751  11.348   8.484   5.785
 6286ETHO   H2348752  11.277   8.396   5.943
 6287ETHO    O148753  11.454   8.479   5.968
 6287ETHO    C148754  11.539   8.376   5.922
 6287ETHO   H1148755  11.570   8.395   5.817
 6287ETHO   H1348756  11.474   8.286   5.916
 6287ETHO    C248757  11.659   8.356   6.017
 6287ETHO   H2148758  11.733   8.438   6.023
 6287ETHO   H2348759  11.717   8.273   5.971
 6288ETHO    O148760  11.623   8.324   6.151
 6288ETHO    C148761  11.558   8.200   6.177
 6288ETHO   H1148762  11.451   8.225   6.158
 6288ETHO   H1348763  11.600   8.125   6.108
 6288ETHO    C248764  11.555   8.143   6.322
 6288ETHO   H2148765  11.660   8.147   6.358
 6288ETHO   H2348766  11.527   8.036   6.313
 6289ETHO    O148767  11.467   8.204   6.417
 6289ETHO    C148768  11.415   8.095   6.506
 6289ETHO   H1148769  11.497   8.042   6.559
 6289ETHO   H1348770  11.366   8.013   6.450
 6289ETHO    C248771  11.324   8.141   6.616
 6289ETHO   H2148772  11.370   8.231   6.661
 6289ETHO   H2348773  11.300   8.057   6.685
 6290ETHO    O148774  11.198   8.187   6.551
 6290ETHO    C148775  11.113   8.257   6.640
 6290ETHO   H1148776  11.012   8.268   6.594
 6290ETHO   H1348777  11.105   8.183   6.722
 6290ETHO    C248778  11.162   8.392   6.689
 6290ETHO   H2148779  11.239   8.428   6.618
 6290ETHO   H2348780  11.216   8.383   6.785
 6291ETHO    O148781  11.060   8.480   6.694
 6291ETHO    C148782  11.092   8.582   6.782
 6291ETHO   H1148783  11.000   8.624   6.827
 6291ETHO   H1348784  11.145   8.556   6.875
 6291ETHO    C248785  11.168   8.692   6.700
 6291ETHO   H2148786  11.252   8.636   6.653
 6291ETHO   H2348787  11.204   8.765   6.776
 6292ETHO    O148788  11.082   8.736   6.597
 6292ETHO    C148789  11.154   8.795   6.488
 6292ETHO   H1148790  11.169   8.901   6.518
 6292ETHO   H1348791  11.260   8.761   6.488
 6292ETHO    C248792  11.104   8.784   6.345
 6292ETHO   H2148793  11.172   8.830   6.271
 6292ETHO   H2348794  11.005   8.835   6.339
 6293ETHO    O148795  11.094   8.650   6.316
 6293ETHO    C148796  10.970   8.601   6.347
 6293ETHO   H1148797  10.937   8.650   6.441
 6293ETHO   H1348798  10.891   8.634   6.276
 6293ETHO    C248799  10.948   8.446   6.355
 6293ETHO   H2148800  11.013   8.413   6.439
 6293ETHO   H2348801  10.979   8.394   6.262
 6294ETHO    O148802  10.813   8.419   6.400
 6294ETHO    C148803  10.735   8.378   6.292
 6294ETHO   H1148804  10.792   8.312   6.224
 6294ETHO   H1348805  10.699   8.473   6.247
 6294ETHO    C248806  10.617   8.302   6.347
 6294ETHO   H2148807  10.554   8.366   6.414
 6294ETHO   H2348808  10.650   8.213   6.403
 6295ETHO    O148809  10.541   8.259   6.233
 6295ETHO    C148810  10.439   8.347   6.180
 6295ETHO   H1148811  10.352   8.368   6.245
 6295ETHO   H1348812  10.483   8.441   6.140
 6295ETHO    C248813  10.374   8.272   6.059
 6295ETHO   H2148814  10.458   8.249   5.989
 6295ETHO   H2348815  10.306   8.343   6.007
 6296ETHO    O148816  10.298   8.156   6.085
 6296ETHO    C148817  10.259   8.091   5.964
 6296ETHO   H1148818  10.330   8.114   5.882
 6296ETHO   H1348819  10.159   8.132   5.938
 6296ETHO    C248820  10.228   7.944   5.985
 6296ETHO   H2148821  10.182   7.911   5.890
 6296ETHO   H2348822  10.167   7.911   6.072
 6297ETHO    O148823  10.350   7.871   5.993
 6297ETHO    C148824  10.354   7.740   5.940
 6297ETHO   H1148825  10.287   7.683   6.006
 6297ETHO   H1348826  10.311   7.747   5.837
 6297ETHO    C248827  10.495   7.681   5.941
 6297ETHO   H2148828  10.563   7.726   5.865
 6297ETHO   H2348829  10.479   7.573   5.920
 6298ETHO    O148830  10.558   7.687   6.068
 6298ETHO    C148831  10.697   7.644   6.061
 6298ETHO   H1148832  10.735   7.635   5.957
 6298ETHO   H1348833  10.724   7.548   6.111
 6298ETHO    C248834  10.793   7.744   6.134
 6298ETHO   H2148835  10.752   7.847   6.137
 6298ETHO   H2348836  10.885   7.738   6.071
 6299ETHO    O148837  10.832   7.704   6.265
 6299ETHO    C148838  10.919   7.799   6.314
 6299ETHO   H1148839  10.981   7.856   6.242
 6299ETHO   H1348840  10.860   7.885   6.353
 6299ETHO    C248841  11.013   7.742   6.427
 6299ETHO   H2148842  11.093   7.813   6.457
 6299ETHO   H2348843  11.053   7.651   6.379
 6300ETHO    O148844  10.925   7.705   6.531
 6300ETHO    C148845  10.995   7.624   6.631
 6300ETHO   H1148846  10.972   7.667   6.731
 6300ETHO   H1348847  11.105   7.617   6.620
 6300ETHO    C248848  10.938   7.481   6.641
 6300ETHO   H2148849  10.827   7.471   6.644
 6300ETHO   H2348850  10.967   7.430   6.735
 6301ETHO    O148851  10.977   7.396   6.524
 6301ETHO    C148852  10.905   7.270   6.518
 6301ETHO   H1148853  10.956   7.205   6.593
 6301ETHO   H1348854  10.797   7.283   6.540
 6301ETHO    C248855  10.931   7.193   6.384
 6301ETHO   H2148856  11.039   7.201   6.358
 6301ETHO   H2348857  10.907   7.086   6.398
 6302ETHO    O148858  10.851   7.245   6.285
 6302ETHO    C148859  10.726   7.177   6.276
 6302ETHO   H1148860  10.686   7.170   6.379
 6302ETHO   H1348861  10.748   7.077   6.233
 6302ETHO    C248862  10.626   7.252   6.193
 6302ETHO   H2148863  10.682   7.288   6.104
 6302ETHO   H2348864  10.582   7.334   6.253
 6303ETHO    O148865  10.519   7.170   6.150
 6303ETHO    C148866  10.419   7.254   6.093
 6303ETHO   H1148867  10.371   7.322   6.166
 6303ETHO   H1348868  10.461   7.307   6.005
 6303ETHO    C248869  10.295   7.176   6.053
 6303ETHO   H2148870  10.209   7.245   6.041
 6303ETHO   H2348871  10.275   7.096   6.128
 6304ETHO    O148872  10.314   7.106   5.926
 6304ETHO    C148873  10.199   7.026   5.894
 6304ETHO   H1148874  10.115   7.087   5.855
 6304ETHO   H1348875  10.167   6.970   5.985
 6304ETHO    C248876  10.242   6.918   5.793
 6304ETHO   H2148877  10.156   6.848   5.785
 6304ETHO   H2348878  10.326   6.864   5.843
 6305ETHO    O148879  10.290   6.966   5.670
 6305ETHO    C148880  10.249   6.894   5.562
 6305ETHO   H1148881  10.269   6.786   5.579
 6305ETHO   H1348882  10.139   6.903   5.550
 6305ETHO    C248883  10.323   6.929   5.426
 6305ETHO   H2148884  10.315   6.830   5.376
 6305ETHO   H2348885  10.425   6.967   5.449
 6306ETHO    O148886  10.246   7.024   5.348
 6306ETHO    C148887  10.242   7.153   5.407
 6306ETHO   H1148888  10.163   7.216   5.360
 6306ETHO   H1348889  10.213   7.137   5.513
 6306ETHO    C248890  10.372   7.238   5.409
 6306ETHO   H2148891  10.460   7.186   5.452
 6306ETHO   H2348892  10.338   7.320   5.475
 6307ETHO    O148893  10.414   7.314   5.293
 6307ETHO    C148894  10.503   7.236   5.216
 6307ETHO   H1148895  10.600   7.219   5.267
 6307ETHO   H1348896  10.466   7.133   5.199
 6307ETHO    C248897  10.522   7.299   5.082
 6307ETHO   H2148898  10.540   7.408   5.094
 6307ETHO   H2348899  10.427   7.292   5.025
 6308ETHO    O148900  10.626   7.236   5.007
 6308ETHO    C148901  10.632   7.273   4.868
 6308ETHO   H1148902  10.529   7.296   4.831
 6308ETHO   H1348903  10.699   7.361   4.857
 6308ETHO    C248904  10.676   7.150   4.786
 6308ETHO   H2148905  10.679   7.165   4.676
 6308ETHO   H2348906  10.614   7.060   4.804
 6309ETHO    O148907  10.806   7.113   4.828
 6309ETHO    C148908  10.901   7.216   4.787
 6309ETHO   H1148909  10.912   7.290   4.869
 6309ETHO   H1348910  10.865   7.258   4.690
 6309ETHO    C248911  11.043   7.163   4.766
 6309ETHO   H2148912  11.068   7.096   4.851
 6309ETHO   H2348913  11.113   7.249   4.763
 6310ETHO    O148914  11.060   7.092   4.641
 6310ETHO    C148915  11.193   7.053   4.628
 6310ETHO   H1148916  11.251   7.148   4.633
 6310ETHO   H1348917  11.220   6.998   4.721
 6310ETHO    C248918  11.219   6.998   4.493
 6310ETHO   H2148919  11.330   6.998   4.480
 6310ETHO   H2348920  11.161   7.068   4.429
 6311ETHO    O148921  11.165   6.867   4.480
 6311ETHO    C148922  11.180   6.825   4.349
 6311ETHO   H1148923  11.153   6.900   4.272
 6311ETHO   H1348924  11.112   6.737   4.338
 6311ETHO    C248925  11.326   6.787   4.318
 6311ETHO   H2148926  11.388   6.870   4.359
 6311ETHO   H2348927  11.332   6.800   4.208
 6312ETHO    O148928  11.360   6.658   4.366
 6312ETHO    C148929  11.427   6.659   4.488
 6312ETHO   H1148930  11.517   6.720   4.462
 6312ETHO   H1348931  11.374   6.710   4.571
 6312ETHO    C248932  11.462   6.510   4.527
 6312ETHO   H2148933  11.489   6.444   4.442
 6312ETHO   H2348934  11.370   6.461   4.567
 6313ETHO    O148935  11.556   6.501   4.637
 6313ETHO    C148936  11.583   6.356   4.659
 6313ETHO   H1148937  11.620   6.312   4.564
 6313ETHO   H1348938  11.486   6.306   4.679
 6313ETHO    C248939  11.684   6.335   4.765
 6313ETHO   H2148940  11.772   6.387   4.722
 6313ETHO   H2348941  11.711   6.227   4.770
 6314ETHO    O148942  11.655   6.387   4.892
 6314ETHO    C148943  11.577   6.288   4.956
 6314ETHO   H1148944  11.477   6.272   4.910
 6314ETHO   H1348945  11.636   6.193   4.950
 6314ETHO    C248946  11.543   6.340   5.093
 6314ETHO   H2148947  11.495   6.261   5.156
 6314ETHO   H2348948  11.470   6.419   5.066
 6315ETHO    O148949  11.651   6.396   5.166
 6315ETHO    C148950  11.597   6.479   5.279
 6315ETHO   H1148951  11.543   6.405   5.342
 6315ETHO   H1348952  11.514   6.544   5.245
 6315ETHO    C248953  11.703   6.566   5.343
 6315ETHO   H2148954  11.773   6.507   5.407
 6315ETHO   H2348955  11.654   6.639   5.410
 6316ETHO    O148956  11.770   6.648   5.246
 6316ETHO    C148957  11.878   6.725   5.300
 6316ETHO   H1148958  11.841   6.812   5.358
 6316ETHO   H1348959  11.942   6.666   5.369
 6316ETHO    C248960  11.969   6.770   5.185
 6316ETHO   H2148961  12.051   6.835   5.225
 6316ETHO   H2348962  11.907   6.842   5.127
 6317ETHO    O148963  12.031   6.663   5.113
 6317ETHO    C148964  12.117   6.708   5.008
 6317ETHO   H1148965  12.153   6.621   4.949
 6317ETHO   H1348966  12.078   6.780   4.932
 6317ETHO    C248967  12.253   6.785   5.055
 6317ETHO   H2148968  12.333   6.756   4.984
 6317ETHO   H2348969  12.278   6.732   5.149
 6318ETHO    O148970  12.233   6.925   5.071
 6318ETHO    C148971  12.328   6.973   5.160
 6318ETHO   H1148972  12.325   6.927   5.261
 6318ETHO   H1348973  12.428   6.953   5.117
 6318ETHO    C248974  12.311   7.127   5.160
 6318ETHO   H2148975  12.279   7.166   5.060
 6318ETHO   H2348976  12.411   7.173   5.176
 6319ETHO    O148977  12.226   7.176   5.264
 6319ETHO    C148978  12.300   7.201   5.384
 6319ETHO   H1148979  12.335   7.108   5.434
 6319ETHO   H1348980  12.390   7.261   5.359
 6319ETHO    C248981  12.234   7.284   5.484
 6319ETHO   H2148982  12.153   7.225   5.533
 6319ETHO   H2348983  12.187   7.370   5.432
 6320ETHO    O148984  12.327   7.336   5.577
 6320ETHO    C148985  12.263   7.414   5.681
 6320ETHO   H1148986  12.307   7.393   5.781
 6320ETHO   H1348987  12.155   7.388   5.688
 6320ETHO    C248988  12.291   7.558   5.646
 6320ETHO   H2148989  12.400   7.567   5.631
 6320ETHO   H2348990  12.255   7.628   5.724
 6321ETHO    O148991  12.226   7.595   5.524
 6321ETHO    C148992  12.249   7.729   5.493
 6321ETHO   H1148993  12.153   7.784   5.489
 6321ETHO   H1348994  12.312   7.779   5.570
 6321ETHO    C248995  12.300   7.754   5.343
 6321ETHO   H2148996  12.384   7.683   5.330
 6321ETHO   H2348997  12.346   7.856   5.339
 6322ETHO    O148998  12.195   7.730   5.250
 6322ETHO    C148999  12.221   7.808   5.134
 6322ETHO   H1149000  12.324   7.801   5.093
 6322ETHO   H1349001  12.206   7.914   5.163
 6322ETHO    C249002  12.128   7.777   5.009
 6322ETHO   H2149003  12.154   7.845   4.925
 6322ETHO   H2349004  12.023   7.797   5.040
 6323ETHO    O149005  12.134   7.639   4.968
 6323ETHO    C149006  12.033   7.601   4.875
 6323ETHO   H1149007  11.935   7.627   4.922
 6323ETHO   H1349008  12.048   7.659   4.781
 6323ETHO    C249009  12.006   7.450   4.845
 6323ETHO   H2149010  11.909   7.432   4.794
 6323ETHO   H2349011  12.006   7.391   4.939
 6324ETHO    O149012  12.100   7.380   4.766
 6324ETHO    C149013  12.092   7.426   4.633
 6324ETHO   H1149014  12.107   7.536   4.623
 6324ETHO   H1349015  11.990   7.408   4.593
 6324ETHO    C249016  12.191   7.360   4.545
 6324ETHO   H2149017  12.143   7.334   4.448
 6324ETHO   H2349018  12.223   7.260   4.582
 6325ETHO    O149019  12.316   7.429   4.531
 6325ETHO    C149020  12.406   7.346   4.461
 6325ETHO   H1149021  12.496   7.411   4.448
 6325ETHO   H1349022  12.444   7.265   4.527
 6325ETHO    C249023  12.372   7.297   4.319
 6325ETHO   H2149024  12.465   7.275   4.263
 6325ETHO   H2349025  12.330   7.383   4.263
 6326ETHO    O149026  12.284   7.187   4.305
 6326ETHO    C149027  12.285   7.143   4.168
 6326ETHO   H1149028  12.381   7.098   4.137
 6326ETHO   H1349029  12.261   7.222   4.094
 6326ETHO    C249030  12.169   7.042   4.145
 6326ETHO   H2149031  12.153   7.041   4.035
 6326ETHO   H2349032  12.074   7.071   4.194
 6327ETHO    O149033  12.206   6.910   4.180
 6327ETHO    C149034  12.093   6.819   4.156
 6327ETHO   H1149035  12.062   6.761   4.245
 6327ETHO   H1349036  11.999   6.870   4.124
 6327ETHO    C249037  12.140   6.718   4.046
 6327ETHO   H2149038  12.204   6.767   3.970
 6327ETHO   H2349039  12.043   6.690   4.000
 6328ETHO    O149040  12.204   6.612   4.110
 6328ETHO    C149041  12.189   6.497   4.038
 6328ETHO   H1149042  12.084   6.472   4.065
 6328ETHO   H1349043  12.212   6.520   3.931
 6328ETHO    C249044  12.272   6.383   4.085
 6328ETHO   H2149045  12.381   6.398   4.076
 6328ETHO   H2349046  12.257   6.299   4.014
 6329ETHO    O149047  12.240   6.343   4.220
 6329ETHO    C149048  12.340   6.394   4.309
 6329ETHO   H1149049  12.429   6.332   4.289
 6329ETHO   H1349050  12.349   6.503   4.288
 6329ETHO    C249051  12.295   6.392   4.458
 6329ETHO   H2149052  12.380   6.426   4.522
 6329ETHO   H2349053  12.260   6.290   4.484
 6330ETHO    O149054  12.194   6.484   4.483
 6330ETHO    C149055  12.172   6.488   4.624
 6330ETHO   H1149056  12.160   6.383   4.656
 6330ETHO   H1349057  12.268   6.523   4.667
 6330ETHO    C249058  12.057   6.584   4.676
 6330ETHO   H2149059  12.016   6.556   4.775
 6330ETHO   H2349060  11.970   6.574   4.607
 6331ETHO    O149061  12.100   6.719   4.681
 6331ETHO    C149062  12.141   6.759   4.552
 6331ETHO   H1149063  12.069   6.727   4.475
 6331ETHO   H1349064  12.244   6.720   4.539
 6331ETHO    C249065  12.143   6.919   4.555
 6331ETHO   H2149066  12.043   6.947   4.594
 6331ETHO   H2349067  12.136   6.947   4.448
 6332ETHO    O149068  12.260   6.979   4.606
 6332ETHO    C149069  12.304   6.931   4.730
 6332ETHO   H1149070  12.214   6.948   4.792
 6332ETHO   H1349071  12.338   6.825   4.732
 6332ETHO    C249072  12.427   7.009   4.769
 6332ETHO   H2149073  12.433   7.006   4.879
 6332ETHO   H2349074  12.406   7.113   4.735
 6333ETHO    O149075  12.548   6.958   4.716
 6333ETHO    C149076  12.654   7.009   4.798
 6333ETHO   H1149077  12.659   6.965   4.900
 6333ETHO   H1349078  12.652   7.120   4.793
 6333ETHO    C249079  12.782   6.973   4.725
 6333ETHO   H2149080  12.776   6.872   4.678
 6333ETHO   H2349081  12.854   6.980   4.809
 6334ETHO    O149082  12.826   7.078   4.640
 6334ETHO    C149083  12.735   7.116   4.533
 6334ETHO   H1149084  12.684   7.028   4.490
 6334ETHO   H1349085  12.647   7.168   4.578
 6334ETHO    C249086  12.804   7.189   4.417
 6334ETHO   H2149087  12.878   7.267   4.446
 6334ETHO   H2349088  12.872   7.111   4.377
 6335ETHO    O149089  12.711   7.242   4.323
 6335ETHO    C149090  12.775   7.291   4.203
 6335ETHO   H1149091  12.815   7.203   4.148
 6335ETHO   H1349092  12.857   7.361   4.229
 6335ETHO    C249093  12.682   7.381   4.116
 6335ETHO   H2149094  12.744   7.447   4.052
 6335ETHO   H2349095  12.639   7.448   4.194
 6336ETHO    O149096  12.571   7.313   4.048
 6336ETHO    C149097  12.612   7.280   3.917
 6336ETHO   H1149098  12.642   7.374   3.867
 6336ETHO   H1349099  12.700   7.213   3.922
 6336ETHO    C249100  12.505   7.195   3.845
 6336ETHO   H2149101  12.474   7.116   3.917
 6336ETHO   H2349102  12.544   7.143   3.755
 6337ETHO    O149103  12.388   7.268   3.799
 6337ETHO    C149104  12.313   7.194   3.710
 6337ETHO   H1149105  12.294   7.093   3.751
 6337ETHO   H1349106  12.372   7.174   3.617
 6337ETHO    C249107  12.176   7.246   3.674
 6337ETHO   H2149108  12.165   7.354   3.650
 6337ETHO   H2349109  12.111   7.224   3.761
 6338ETHO    O149110  12.111   7.173   3.576
 6338ETHO    C149111  11.970   7.210   3.564
 6338ETHO   H1149112  11.912   7.115   3.561
 6338ETHO   H1349113  11.942   7.271   3.653
 6338ETHO    C249114  11.936   7.293   3.433
 6338ETHO   H2149115  12.009   7.376   3.426
 6338ETHO   H2349116  11.832   7.330   3.444
 6339ETHO    O149117  11.942   7.206   3.318
 6339ETHO    C149118  11.815   7.159   3.278
 6339ETHO   H1149119  11.753   7.242   3.238
 6339ETHO   H1349120  11.759   7.103   3.355
 6339ETHO    C249121  11.840   7.051   3.170
 6339ETHO   H2149122  11.946   7.020   3.161
 6339ETHO   H2349123  11.787   7.077   3.076
 6340ETHO    O149124  11.781   6.928   3.222
 6340ETHO    C149125  11.795   6.820   3.125
 6340ETHO   H1149126  11.704   6.797   3.065
 6340ETHO   H1349127  11.871   6.843   3.048
 6340ETHO    C249128  11.835   6.685   3.196
 6340ETHO   H2149129  11.835   6.602   3.122
 6340ETHO   H2349130  11.766   6.668   3.282
 6341ETHO    O149131  11.976   6.699   3.240
 6341ETHO    C149132  12.006   6.591   3.324
 6341ETHO   H1149133  11.962   6.496   3.288
 6341ETHO   H1349134  11.960   6.621   3.420
 6341ETHO    C249135  12.157   6.571   3.336
 6341ETHO   H2149136  12.182   6.507   3.423
 6341ETHO   H2349137  12.208   6.670   3.344
 6342ETHO    O149138  12.217   6.520   3.214
 6342ETHO    C149139  12.354   6.497   3.234
 6342ETHO   H1149140  12.400   6.590   3.273
 6342ETHO   H1349141  12.367   6.423   3.315
 6342ETHO    C249142  12.417   6.441   3.107
 6342ETHO   H2149143  12.402   6.516   3.027
 6342ETHO   H2349144  12.526   6.444   3.131
 6343ETHO    O149145  12.360   6.323   3.070
 6343ETHO    C149146  12.444   6.242   2.988
 6343ETHO   H1149147  12.454   6.287   2.887
 6343ETHO   H1349148  12.539   6.233   3.044
 6343ETHO    C249149  12.382   6.110   2.956
 6343ETHO   H2149150  12.432   6.073   2.864
 6343ETHO   H2349151  12.273   6.112   2.935
 6344ETHO    O149152  12.409   6.023   3.057
 6344ETHO    C149153  12.372   5.888   3.029
 6344ETHO   H1149154  12.268   5.876   2.993
 6344ETHO   H1349155  12.443   5.849   2.953
 6344ETHO    C249156  12.400   5.813   3.158
 6344ETHO   H2149157  12.352   5.713   3.148
 6344ETHO   H2349158  12.351   5.871   3.239
 6345ETHO    O149159  12.545   5.809   3.185
 6345ETHO    C149160  12.603   5.682   3.143
 6345ETHO   H1149161  12.539   5.602   3.184
 6345ETHO   H1349162  12.593   5.672   3.032
 6345ETHO    C249163  12.748   5.642   3.188
 6345ETHO   H2149164  12.766   5.537   3.158
 6345ETHO   H2349165  12.747   5.640   3.299
 6346ETHO    O149166  12.852   5.730   3.135
 6346ETHO    C149167  12.989   5.697   3.165
 6346ETHO   H1149168  13.015   5.612   3.098
 6346ETHO   H1349169  12.991   5.648   3.265
 6346ETHO    C249170  13.076   5.820   3.152
 6346ETHO   H2149171  13.050   5.859   3.051
 6346ETHO   H2349172  13.184   5.798   3.161
 6347ETHO    O149173  13.040   5.912   3.253
 6347ETHO    C149174  13.108   6.036   3.247
 6347ETHO   H1149175  13.201   6.022   3.189
 6347ETHO   H1349176  13.046   6.104   3.184
 6347ETHO    C249177  13.147   6.103   3.381
 6347ETHO   H2149178  13.244   6.156   3.369
 6347ETHO   H2349179  13.177   6.023   3.451
 6348ETHO    O149180  13.060   6.195   3.429
 6348ETHO    C149181  12.962   6.129   3.502
 6348ETHO   H1149182  12.998   6.110   3.605
 6348ETHO   H1349183  12.944   6.031   3.452
 6348ETHO    C249184  12.841   6.217   3.521
 6348ETHO   H2149185  12.882   6.320   3.528
 6348ETHO   H2349186  12.792   6.197   3.618
 6349ETHO    O149187  12.756   6.195   3.408
 6349ETHO    C149188  12.659   6.297   3.401
 6349ETHO   H1149189  12.708   6.390   3.365
 6349ETHO   H1349190  12.594   6.270   3.315
 6349ETHO    C249191  12.576   6.322   3.533
 6349ETHO   H2149192  12.563   6.222   3.580
 6349ETHO   H2349193  12.479   6.364   3.499
 6350ETHO    O149194  12.643   6.418   3.619
 6350ETHO    C149195  12.553   6.479   3.716
 6350ETHO   H1149196  12.539   6.404   3.797
 6350ETHO   H1349197  12.457   6.508   3.668
 6350ETHO    C249198  12.622   6.602   3.778
 6350ETHO   H2149199  12.720   6.572   3.821
 6350ETHO   H2349200  12.559   6.635   3.863
 6351ETHO    O149201  12.649   6.705   3.683
 6351ETHO    C149202  12.701   6.819   3.744
 6351ETHO   H1149203  12.622   6.861   3.810
 6351ETHO   H1349204  12.793   6.809   3.805
 6351ETHO    C249205  12.724   6.935   3.640
 6351ETHO   H2149206  12.624   6.938   3.591
 6351ETHO   H2349207  12.794   6.903   3.559
 6352ETHO    O149208  12.766   7.059   3.691
 6352ETHO    C149209  12.854   7.120   3.607
 6352ETHO   H1149210  12.808   7.124   3.506
 6352ETHO   H1349211  12.950   7.065   3.605
 6352ETHO    C249212  12.898   7.270   3.653
 6352ETHO   H2149213  12.811   7.324   3.695
 6352ETHO   H2349214  12.942   7.323   3.565
 6353ETHO    O149215  13.000   7.259   3.753
 6353ETHO    C149216  13.014   7.378   3.836
 6353ETHO   H1149217  12.985   7.467   3.776
 6353ETHO   H1349218  12.942   7.370   3.921
 6353ETHO    C249219  13.156   7.402   3.896
 6353ETHO   H2149220  13.205   7.314   3.944
 6353ETHO   H2349221  13.141   7.486   3.966
 6354ETHO    O149222  13.242   7.448   3.795
 6354ETHO    C149223  13.372   7.479   3.843
 6354ETHO   H1149224  13.409   7.564   3.782
 6354ETHO   H1349225  13.373   7.501   3.951
 6354ETHO    C249226  13.474   7.364   3.830
 6354ETHO   H2149227  13.575   7.400   3.858
 6354ETHO   H2349228  13.487   7.331   3.725
 6355ETHO    O149229  13.437   7.255   3.912
 6355ETHO    C149230  13.531   7.145   3.886
 6355ETHO   H1149231  13.544   7.126   3.777
 6355ETHO   H1349232  13.635   7.175   3.910
 6355ETHO    C249233  13.486   7.012   3.941
 6355ETHO   H2149234  13.418   7.032   4.027
 6355ETHO   H2349235  13.577   6.961   3.978
 6356ETHO    O149236  13.408   6.920   3.857
 6356ETHO    C149237  13.292   6.981   3.800
 6356ETHO   H1149238  13.215   7.020   3.869
 6356ETHO   H1349239  13.332   7.066   3.741
 6356ETHO    C249240  13.215   6.880   3.712
 6356ETHO   H2149241  13.284   6.844   3.632
 6356ETHO   H2349242  13.133   6.937   3.665
 6357ETHO    O149243  13.163   6.763   3.787
 6357ETHO    C149244  13.244   6.644   3.760
 6357ETHO   H1149245  13.350   6.676   3.770
 6357ETHO   H1349246  13.227   6.609   3.656
 6357ETHO    C249247  13.229   6.530   3.856
 6357ETHO   H2149248  13.295   6.444   3.833
 6357ETHO   H2349249  13.127   6.487   3.848
 6358ETHO    O149250  13.262   6.562   3.990
 6358ETHO    C149251  13.232   6.456   4.075
 6358ETHO   H1149252  13.327   6.443   4.133
 6358ETHO   H1349253  13.213   6.359   4.024
 6358ETHO    C249254  13.121   6.507   4.168
 6358ETHO   H2149255  13.128   6.610   4.207
 6358ETHO   H2349256  13.131   6.439   4.255
 6359ETHO    O149257  12.990   6.489   4.113
 6359ETHO    C149258  12.884   6.455   4.210
 6359ETHO   H1149259  12.893   6.525   4.296
 6359ETHO   H1349260  12.896   6.355   4.256
 6359ETHO    C249261  12.741   6.461   4.148
 6359ETHO   H2149262  12.740   6.558   4.093
 6359ETHO   H2349263  12.665   6.459   4.229
 6360ETHO    O149264  12.716   6.360   4.055
 6360ETHO    C149265  12.677   6.243   4.118
 6360ETHO   H1149266  12.766   6.200   4.168
 6360ETHO   H1349267  12.600   6.261   4.196
 6360ETHO    C249268  12.609   6.149   4.016
 6360ETHO   H2149269  12.534   6.217   3.969
 6360ETHO   H2349270  12.560   6.063   4.065
 6360ETHO    OZ49271  12.696   6.088   3.923
 6360ETHO   HZ149272  12.638   6.017   3.893
 6361ETHO    O149273  19.638  10.310  20.353
 6361ETHO   HO149274  19.693  10.372  20.305
 6361ETHO    C149275  19.706  10.187  20.303
 6361ETHO   H1149276  19.626  10.131  20.249
 6361ETHO   H1349277  19.740  10.129  20.392
 6361ETHO    C249278  19.823  10.222  20.214
 6361ETHO   H2149279  19.787  10.273  20.122
 6361ETHO   H2349280  19.881  10.132  20.186
 6362ETHO    O149281  19.908  10.313  20.289
 6362ETHO    C149282  19.996  10.241  20.377
 6362ETHO   H1149283  19.947  10.194  20.466
 6362ETHO   H1349284  20.044  10.162  20.315
 6362ETHO    C249285  20.103  10.337  20.429
 6362ETHO   H2149286  20.054  10.424  20.479
 6362ETHO   H2349287  20.165  10.372  20.345
 6363ETHO    O149288  20.178  10.268  20.521
 6363ETHO    C149289  20.299  10.333  20.557
 6363ETHO   H1149290  20.299  10.378  20.658
 6363ETHO   H1349291  20.317  10.416  20.485
 6363ETHO    C249292  20.423  10.237  20.558
 6363ETHO   H2149293  20.500  10.309  20.591
 6363ETHO   H2349294  20.440  10.185  20.461
 6364ETHO    O149295  20.405  10.142  20.663
 6364ETHO    C149296  20.512  10.053  20.666
 6364ETHO   H1149297  20.527  10.010  20.565
 6364ETHO   H1349298  20.601  10.114  20.694
 6364ETHO    C249299  20.496   9.950  20.784
 6364ETHO   H2149300  20.474   9.993  20.884
 6364ETHO   H2349301  20.588   9.890  20.801
 6365ETHO    O149302  20.392   9.865  20.749
 6365ETHO    C149303  20.362   9.758  20.844
 6365ETHO   H1149304  20.455   9.711  20.881
 6365ETHO   H1349305  20.311   9.812  20.927
 6365ETHO    C249306  20.251   9.653  20.798
 6365ETHO   H2149307  20.254   9.579  20.881
 6365ETHO   H2349308  20.288   9.610  20.702
 6366ETHO    O149309  20.119   9.711  20.802
 6366ETHO    C149310  20.013   9.619  20.780
 6366ETHO   H1149311  19.960   9.657  20.690
 6366ETHO   H1349312  20.050   9.517  20.758
 6366ETHO    C249313  19.918   9.600  20.902
 6366ETHO   H2149314  19.829   9.541  20.870
 6366ETHO   H2349315  19.881   9.697  20.941
 6367ETHO    O149316  19.991   9.525  21.004
 6367ETHO    C149317  19.911   9.504  21.120
 6367ETHO   H1149318  19.988   9.490  21.198
 6367ETHO   H1349319  19.842   9.588  21.140
 6367ETHO    C249320  19.830   9.375  21.126
 6367ETHO   H2149321  19.797   9.346  21.228
 6367ETHO   H2349322  19.893   9.294  21.084
 6368ETHO    O149323  19.714   9.381  21.046
 6368ETHO    C149324  19.661   9.250  21.036
 6368ETHO   H1149325  19.647   9.215  21.140
 6368ETHO   H1349326  19.734   9.182  20.987
 6368ETHO    C249327  19.526   9.254  20.968
 6368ETHO   H2149328  19.481   9.355  20.975
 6368ETHO   H2349329  19.456   9.185  21.019
 6369ETHO    O149330  19.524   9.222  20.827
 6369ETHO    C149331  19.586   9.325  20.748
 6369ETHO   H1149332  19.531   9.421  20.752
 6369ETHO   H1349333  19.693   9.333  20.778
 6369ETHO    C249334  19.579   9.297  20.590
 6369ETHO   H2149335  19.604   9.393  20.541
 6369ETHO   H2349336  19.474   9.270  20.566
 6370ETHO    O149337  19.665   9.189  20.547
 6370ETHO    C149338  19.645   9.153  20.413
 6370ETHO   H1149339  19.539   9.179  20.393
 6370ETHO   H1349340  19.664   9.044  20.400
 6370ETHO    C249341  19.726   9.229  20.315
 6370ETHO   H2149342  19.740   9.337  20.333
 6370ETHO   H2349343  19.682   9.197  20.218
 6371ETHO    O149344  19.853   9.164  20.322
 6371ETHO    C149345  19.952   9.198  20.219
 6371ETHO   H1149346  19.980   9.305  20.220
 6371ETHO   H1349347  20.034   9.131  20.254
 6371ETHO    C249348  19.908   9.131  20.090
 6371ETHO   H2149349  19.995   9.098  20.029
 6371ETHO   H2349350  19.859   9.035  20.118
 6372ETHO    O149351  19.835   9.210  19.990
 6372ETHO    C149352  19.822   9.134  19.875
 6372ETHO   H1149353  19.765   9.044  19.907
 6372ETHO   H1349354  19.921   9.096  19.842
 6372ETHO    C249355  19.770   9.214  19.752
 6372ETHO   H2149356  19.776   9.148  19.663
 6372ETHO   H2349357  19.832   9.305  19.735
 6373ETHO    O149358  19.635   9.249  19.760
 6373ETHO    C149359  19.579   9.332  19.656
 6373ETHO   H1149360  19.633   9.305  19.562
 6373ETHO   H1349361  19.471   9.312  19.640
 6373ETHO    C249362  19.603   9.482  19.690
 6373ETHO   H2149363  19.587   9.539  19.596
 6373ETHO   H2349364  19.711   9.480  19.713
 6374ETHO    O149365  19.532   9.534  19.800
 6374ETHO    C149366  19.619   9.602  19.888
 6374ETHO   H1149367  19.679   9.677  19.832
 6374ETHO   H1349368  19.689   9.530  19.936
 6374ETHO    C249369  19.534   9.678  19.988
 6374ETHO   H2149370  19.605   9.695  20.072
 6374ETHO   H2349371  19.450   9.615  20.023
 6375ETHO    O149372  19.495   9.798  19.932
 6375ETHO    C149373  19.422   9.883  20.023
 6375ETHO   H1149374  19.405   9.831  20.120
 6375ETHO   H1349375  19.460   9.987  20.033
 6375ETHO    C249376  19.275   9.900  19.980
 6375ETHO   H2149377  19.228  10.000  19.993
 6375ETHO   H2349378  19.273   9.879  19.871
 6376ETHO    O149379  19.193   9.804  20.045
 6376ETHO    C149380  19.059   9.857  20.053
 6376ETHO   H1149381  19.043   9.938  20.128
 6376ETHO   H1349382  19.029   9.902  19.956
 6376ETHO    C249383  18.950   9.758  20.080
 6376ETHO   H2149384  18.845   9.792  20.085
 6376ETHO   H2349385  18.963   9.719  20.183
 6377ETHO    O149386  18.972   9.643  19.999
 6377ETHO    C149387  18.863   9.558  20.020
 6377ETHO   H1149388  18.851   9.528  20.126
 6377ETHO   H1349389  18.770   9.610  19.991
 6377ETHO    C249390  18.865   9.428  19.935
 6377ETHO   H2149391  18.934   9.349  19.969
 6377ETHO   H2349392  18.886   9.452  19.828
 6378ETHO    O149393  18.730   9.377  19.946
 6378ETHO    C149394  18.717   9.245  19.890
 6378ETHO   H1149395  18.761   9.227  19.789
 6378ETHO   H1349396  18.760   9.172  19.961
 6378ETHO    C249397  18.566   9.215  19.860
 6378ETHO   H2149398  18.563   9.117  19.809
 6378ETHO   H2349399  18.516   9.282  19.787
 6379ETHO    O149400  18.500   9.208  19.982
 6379ETHO    C149401  18.364   9.196  19.956
 6379ETHO   H1149402  18.349   9.110  19.887
 6379ETHO   H1349403  18.328   9.279  19.892
 6379ETHO    C249404  18.264   9.165  20.073
 6379ETHO   H2149405  18.287   9.066  20.117
 6379ETHO   H2349406  18.167   9.180  20.020
 6380ETHO    O149407  18.278   9.265  20.176
 6380ETHO    C149408  18.169   9.256  20.271
 6380ETHO   H1149409  18.165   9.345  20.337
 6380ETHO   H1349410  18.068   9.240  20.227
 6380ETHO    C249411  18.201   9.145  20.380
 6380ETHO   H2149412  18.271   9.073  20.334
 6380ETHO   H2349413  18.107   9.087  20.393
 6381ETHO    O149414  18.253   9.194  20.502
 6381ETHO    C149415  18.390   9.224  20.485
 6381ETHO   H1149416  18.408   9.303  20.409
 6381ETHO   H1349417  18.443   9.130  20.457
 6381ETHO    C249418  18.452   9.276  20.612
 6381ETHO   H2149419  18.372   9.321  20.675
 6381ETHO   H2349420  18.514   9.366  20.593
 6382ETHO    O149421  18.510   9.164  20.676
 6382ETHO    C149422  18.636   9.201  20.726
 6382ETHO   H1149423  18.678   9.266  20.646
 6382ETHO   H1349424  18.619   9.270  20.812
 6382ETHO    C249425  18.738   9.092  20.764
 6382ETHO   H2149426  18.822   9.153  20.802
 6382ETHO   H2349427  18.714   9.023  20.848
 6383ETHO    O149428  18.764   9.012  20.645
 6383ETHO    C149429  18.846   8.906  20.680
 6383ETHO   H1149430  18.799   8.848  20.762
 6383ETHO   H1349431  18.942   8.944  20.720
 6383ETHO    C249432  18.888   8.815  20.559
 6383ETHO   H2149433  18.799   8.787  20.499
 6383ETHO   H2349434  18.936   8.726  20.605
 6384ETHO    O149435  18.989   8.868  20.479
 6384ETHO    C149436  19.016   8.790  20.363
 6384ETHO   H1149437  19.127   8.792  20.356
 6384ETHO   H1349438  18.988   8.682  20.366
 6384ETHO    C249439  18.961   8.865  20.250
 6384ETHO   H2149440  19.013   8.833  20.157
 6384ETHO   H2349441  18.975   8.974  20.268
 6385ETHO    O149442  18.822   8.842  20.224
 6385ETHO    C149443  18.767   8.889  20.099
 6385ETHO   H1149444  18.806   8.821  20.020
 6385ETHO   H1349445  18.792   8.996  20.083
 6385ETHO    C249446  18.610   8.888  20.095
 6385ETHO   H2149447  18.569   8.955  20.016
 6385ETHO   H2349448  18.580   8.935  20.191
 6386ETHO    O149449  18.555   8.763  20.088
 6386ETHO    C149450  18.412   8.761  20.087
 6386ETHO   H1149451  18.365   8.852  20.046
 6386ETHO   H1349452  18.385   8.668  20.032
 6386ETHO    C249453  18.380   8.744  20.237
 6386ETHO   H2149454  18.440   8.815  20.299
 6386ETHO   H2349455  18.428   8.652  20.278
 6387ETHO    O149456  18.244   8.752  20.278
 6387ETHO    C149457  18.228   8.684  20.405
 6387ETHO   H1149458  18.319   8.701  20.467
 6387ETHO   H1349459  18.217   8.576  20.382
 6387ETHO    C249460  18.099   8.718  20.472
 6387ETHO   H2149461  18.092   8.828  20.484
 6387ETHO   H2349462  18.102   8.665  20.569
 6388ETHO    O149463  17.987   8.677  20.399
 6388ETHO    C149464  17.868   8.727  20.461
 6388ETHO   H1149465  17.846   8.703  20.567
 6388ETHO   H1349466  17.869   8.837  20.451
 6388ETHO    C249467  17.758   8.673  20.379
 6388ETHO   H2149468  17.660   8.702  20.423
 6388ETHO   H2349469  17.766   8.563  20.365
 6389ETHO    O149470  17.768   8.736  20.248
 6389ETHO    C149471  17.671   8.673  20.165
 6389ETHO   H1149472  17.566   8.670  20.201
 6389ETHO   H1349473  17.695   8.564  20.169
 6389ETHO    C249474  17.690   8.717  20.023
 6389ETHO   H2149475  17.650   8.652  19.942
 6389ETHO   H2349476  17.800   8.726  20.007
 6390ETHO    O149477  17.631   8.846  20.003
 6390ETHO    C149478  17.630   8.898  19.875
 6390ETHO   H1149479  17.732   8.934  19.853
 6390ETHO   H1349480  17.581   8.824  19.808
 6390ETHO    C249481  17.546   9.025  19.869
 6390ETHO   H2149482  17.439   8.993  19.867
 6390ETHO   H2349483  17.573   9.070  19.771
 6391ETHO    O149484  17.568   9.119  19.972
 6391ETHO    C149485  17.476   9.225  19.966
 6391ETHO   H1149486  17.429   9.246  19.868
 6391ETHO   H1349487  17.387   9.190  20.022
 6391ETHO    C249488  17.530   9.335  20.051
 6391ETHO   H2149489  17.575   9.306  20.148
 6391ETHO   H2349490  17.445   9.401  20.078
 6392ETHO    O149491  17.616   9.415  19.967
 6392ETHO    C149492  17.660   9.533  20.034
 6392ETHO   H1149493  17.576   9.604  20.022
 6392ETHO   H1349494  17.679   9.517  20.142
 6392ETHO    C249495  17.781   9.600  19.972
 6392ETHO   H2149496  17.780   9.709  19.996
 6392ETHO   H2349497  17.762   9.607  19.863
 6393ETHO    O149498  17.900   9.537  19.999
 6393ETHO    C149499  17.993   9.602  20.092
 6393ETHO   H1149500  18.082   9.539  20.072
 6393ETHO   H1349501  18.002   9.707  20.059
 6393ETHO    C249502  17.945   9.598  20.241
 6393ETHO   H2149503  18.030   9.643  20.297
 6393ETHO   H2349504  17.931   9.495  20.281
 6394ETHO    O149505  17.829   9.678  20.268
 6394ETHO    C149506  17.809   9.697  20.405
 6394ETHO   H1149507  17.880   9.773  20.443
 6394ETHO   H1349508  17.834   9.602  20.456
 6394ETHO    C249509  17.663   9.742  20.432
 6394ETHO   H2149510  17.657   9.734  20.543
 6394ETHO   H2349511  17.595   9.667  20.387
 6395ETHO    O149512  17.637   9.875  20.396
 6395ETHO    C149513  17.504   9.897  20.436
 6395ETHO   H1149514  17.448   9.831  20.367
 6395ETHO   H1349515  17.492   9.876  20.545
 6395ETHO    C249516  17.452  10.041  20.396
 6395ETHO   H2149517  17.351  10.046  20.443
 6395ETHO   H2349518  17.450  10.051  20.286
 6396ETHO    O149519  17.539  10.144  20.432
 6396ETHO    C149520  17.466  10.261  20.452
 6396ETHO   H1149521  17.373  10.253  20.513
 6396ETHO   H1349522  17.424  10.273  20.350
 6396ETHO    C249523  17.544  10.382  20.486
 6396ETHO   H2149524  17.605  10.375  20.579
 6396ETHO   H2349525  17.468  10.461  20.503
 6397ETHO    O149526  17.627  10.419  20.370
 6397ETHO    C149527  17.687  10.540  20.397
 6397ETHO   H1149528  17.611  10.615  20.427
 6397ETHO   H1349529  17.755  10.514  20.480
 6397ETHO    C249530  17.770  10.608  20.289
 6397ETHO   H2149531  17.780  10.718  20.303
 6397ETHO   H2349532  17.723  10.602  20.188
 6398ETHO    O149533  17.896  10.540  20.273
 6398ETHO    C149534  17.997  10.587  20.360
 6398ETHO   H1149535  17.965  10.582  20.466
 6398ETHO   H1349536  18.017  10.693  20.333
 6398ETHO    C249537  18.123  10.505  20.350
 6398ETHO   H2149538  18.212  10.554  20.397
 6398ETHO   H2349539  18.151  10.479  20.246
 6399ETHO    O149540  18.103  10.379  20.413
 6399ETHO    C149541  18.135  10.378  20.555
 6399ETHO   H1149542  18.243  10.357  20.567
 6399ETHO   H1349543  18.125  10.476  20.606
 6399ETHO    C249544  18.046  10.271  20.615
 6399ETHO   H2149545  17.942  10.283  20.578
 6399ETHO   H2349546  18.043  10.285  20.725
 6400ETHO    O149547  18.117  10.151  20.589
 6400ETHO    C149548  18.049  10.068  20.493
 6400ETHO   H1149549  18.016  10.131  20.408
 6400ETHO   H1349550  17.955  10.025  20.533
 6400ETHO    C249551  18.138   9.953  20.445
 6400ETHO   H2149552  18.234  10.000  20.417
 6400ETHO   H2349553  18.087   9.898  20.363
 6401ETHO    O149554  18.170   9.874  20.550
 6401ETHO    C149555  18.266   9.773  20.514
 6401ETHO   H1149556  18.236   9.729  20.417
 6401ETHO   H1349557  18.368   9.817  20.501
 6401ETHO    C249558  18.270   9.663  20.622
 6401ETHO   H2149559  18.321   9.575  20.577
 6401ETHO   H2349560  18.163   9.645  20.647
 6402ETHO    O149561  18.336   9.710  20.745
 6402ETHO    C149562  18.308   9.624  20.854
 6402ETHO   H1149563  18.212   9.663  20.895
 6402ETHO   H1349564  18.296   9.518  20.825
 6402ETHO    C249565  18.423   9.632  20.956
 6402ETHO   H2149566  18.393   9.594  21.056
 6402ETHO   H2349567  18.459   9.738  20.960
 6403ETHO    O149568  18.537   9.559  20.921
 6403ETHO    C149569  18.646   9.584  21.010
 6403ETHO   H1149570  18.672   9.692  21.013
 6403ETHO   H1349571  18.627   9.553  21.115
 6403ETHO    C249572  18.764   9.506  20.947
 6403ETHO   H2149573  18.746   9.397  20.940
 6403ETHO   H2349574  18.848   9.522  21.018
 6404ETHO    O149575  18.803   9.569  20.826
 6404ETHO    C149576  18.912   9.503  20.757
 6404ETHO   H1149577  18.882   9.397  20.747
 6404ETHO   H1349578  18.927   9.538  20.653
 6404ETHO    C249579  19.051   9.530  20.826
 6404ETHO   H2149580  19.120   9.457  20.776
 6404ETHO   H2349581  19.033   9.501  20.932
 6405ETHO    O149582  19.090   9.666  20.818
 6405ETHO    C149583  19.210   9.683  20.899
 6405ETHO   H1149584  19.282   9.611  20.854
 6405ETHO   H1349585  19.186   9.657  21.004
 6405ETHO    C249586  19.254   9.826  20.886
 6405ETHO   H2149587  19.282   9.846  20.781
 6405ETHO   H2349588  19.335   9.832  20.963
 6406ETHO    O149589  19.153   9.914  20.933
 6406ETHO    C149590  19.202  10.051  20.959
 6406ETHO   H1149591  19.286  10.056  21.030
 6406ETHO   H1349592  19.252  10.090  20.868
 6406ETHO    C249593  19.086  10.149  20.995
 6406ETHO   H2149594  19.006  10.143  20.918
 6406ETHO   H2349595  19.138  10.247  20.999
 6407ETHO    O149596  19.038  10.123  21.127
 6407ETHO    C149597  18.931  10.202  21.169
 6407ETHO   H1149598  18.849  10.206  21.094
 6407ETHO   H1349599  18.986  10.299  21.170
 6407ETHO    C249600  18.885  10.169  21.309
 6407ETHO   H2149601  18.825  10.076  21.298
 6407ETHO   H2349602  18.812  10.242  21.351
 6408ETHO    O149603  18.988  10.150  21.397
 6408ETHO    C149604  18.979  10.023  21.461
 6408ETHO   H1149605  18.965   9.943  21.385
 6408ETHO   H1349606  19.078  10.004  21.507
 6408ETHO    C249607  18.870  10.001  21.566
 6408ETHO   H2149608  18.904   9.953  21.661
 6408ETHO   H2349609  18.828  10.097  21.603
 6409ETHO    O149610  18.767   9.926  21.499
 6409ETHO    C149611  18.646   9.922  21.585
 6409ETHO   H1149612  18.624  10.021  21.630
 6409ETHO   H1349613  18.654   9.848  21.667
 6409ETHO    C249614  18.512   9.894  21.500
 6409ETHO   H2149615  18.535   9.949  21.406
 6409ETHO   H2349616  18.419   9.935  21.545
 6410ETHO    O149617  18.492   9.758  21.474
 6410ETHO    C149618  18.416   9.726  21.351
 6410ETHO   H1149619  18.344   9.808  21.331
 6410ETHO   H1349620  18.486   9.718  21.265
 6410ETHO    C249621  18.331   9.595  21.346
 6410ETHO   H2149622  18.245   9.612  21.278
 6410ETHO   H2349623  18.279   9.579  21.443
 6411ETHO    O149624  18.410   9.478  21.310
 6411ETHO    C149625  18.379   9.365  21.393
 6411ETHO   H1149626  18.268   9.358  21.396
 6411ETHO   H1349627  18.422   9.370  21.495
 6411ETHO    C249628  18.420   9.236  21.318
 6411ETHO   H2149629  18.412   9.143  21.378
 6411ETHO   H2349630  18.527   9.246  21.292
 6412ETHO    O149631  18.340   9.207  21.203
 6412ETHO    C149632  18.388   9.090  21.145
 6412ETHO   H1149633  18.498   9.076  21.136
 6412ETHO   H1349634  18.338   9.005  21.195
 6412ETHO    C249635  18.340   9.073  20.999
 6412ETHO   H2149636  18.396   8.987  20.955
 6412ETHO   H2349637  18.370   9.159  20.936
 6413ETHO    O149638  18.200   9.050  20.989
 6413ETHO    C149639  18.173   8.994  20.861
 6413ETHO   H1149640  18.162   9.071  20.782
 6413ETHO   H1349641  18.240   8.908  20.841
 6413ETHO    C249642  18.038   8.927  20.858
 6413ETHO   H2149643  17.988   8.922  20.759
 6413ETHO   H2349644  17.970   8.987  20.922
 6414ETHO    O149645  18.053   8.796  20.909
 6414ETHO    C149646  17.939   8.711  20.891
 6414ETHO   H1149647  17.867   8.737  20.972
 6414ETHO   H1349648  17.896   8.741  20.793
 6414ETHO    C249649  17.962   8.563  20.902
 6414ETHO   H2149650  17.867   8.507  20.911
 6414ETHO   H2349651  18.032   8.544  20.986
 6415ETHO    O149652  18.028   8.527  20.777
 6415ETHO    C149653  18.077   8.396  20.773
 6415ETHO   H1149654  18.120   8.363  20.870
 6415ETHO   H1349655  17.981   8.340  20.770
 6415ETHO    C249656  18.164   8.356  20.655
 6415ETHO   H2149657  18.174   8.245  20.652
 6415ETHO   H2349658  18.112   8.388  20.563
 6416ETHO    O149659  18.295   8.413  20.662
 6416ETHO    C149660  18.392   8.365  20.566
 6416ETHO   H1149661  18.359   8.388  20.463
 6416ETHO   H1349662  18.411   8.258  20.591
 6416ETHO    C249663  18.525   8.442  20.571
 6416ETHO   H2149664  18.508   8.548  20.602
 6416ETHO   H2349665  18.569   8.452  20.469
 6417ETHO    O149666  18.621   8.386  20.655
 6417ETHO    C149667  18.726   8.484  20.668
 6417ETHO   H1149668  18.761   8.516  20.567
 6417ETHO   H1349669  18.682   8.572  20.718
 6417ETHO    C249670  18.852   8.435  20.740
 6417ETHO   H2149671  18.913   8.365  20.679
 6417ETHO   H2349672  18.820   8.368  20.823
 6418ETHO    O149673  18.931   8.541  20.796
 6418ETHO    C149674  19.058   8.553  20.731
 6418ETHO   H1149675  19.095   8.656  20.748
 6418ETHO   H1349676  19.067   8.500  20.634
 6418ETHO    C249677  19.151   8.476  20.825
 6418ETHO   H2149678  19.121   8.370  20.834
 6418ETHO   H2349679  19.143   8.527  20.923
 6419ETHO    O149680  19.293   8.481  20.793
 6419ETHO    C149681  19.373   8.417  20.896
 6419ETHO   H1149682  19.322   8.342  20.960
 6419ETHO   H1349683  19.464   8.363  20.862
 6419ETHO    C249684  19.433   8.516  21.002
 6419ETHO   H2149685  19.478   8.602  20.949
 6419ETHO   H2349686  19.518   8.458  21.045
 6420ETHO    O149687  19.333   8.555  21.104
 6420ETHO    C149688  19.392   8.652  21.191
 6420ETHO   H1149689  19.403   8.739  21.124
 6420ETHO   H1349690  19.493   8.619  21.225
 6420ETHO    C249691  19.301   8.691  21.314
 6420ETHO   H2149692  19.359   8.754  21.385
 6420ETHO   H2349693  19.278   8.594  21.363
 6421ETHO    O149694  19.184   8.769  21.279
 6421ETHO    C149695  19.080   8.754  21.379
 6421ETHO   H1149696  18.987   8.805  21.348
 6421ETHO   H1349697  19.058   8.647  21.403
 6421ETHO    C249698  19.118   8.837  21.502
 6421ETHO   H2149699  19.226   8.853  21.522
 6421ETHO   H2349700  19.078   8.787  21.593
 6422ETHO    O149701  19.059   8.969  21.483
 6422ETHO    C149702  19.110   9.064  21.580
 6422ETHO   H1149703  19.050   9.156  21.569
 6422ETHO   H1349704  19.218   9.076  21.557
 6422ETHO    C249705  19.088   9.026  21.728
 6422ETHO   H2149706  19.132   9.097  21.800
 6422ETHO   H2349707  19.120   8.921  21.746
 6423ETHO    O149708  18.952   9.029  21.753
 6423ETHO    C149709  18.923   9.016  21.890
 6423ETHO   H1149710  18.990   8.932  21.917
 6423ETHO   H1349711  18.952   9.107  21.947
 6423ETHO    C249712  18.775   8.980  21.918
 6423ETHO   H2149713  18.772   8.946  22.024
 6423ETHO   H2349714  18.747   8.888  21.861
 6424ETHO    O149715  18.690   9.093  21.893
 6424ETHO    C149716  18.564   9.058  21.943
 6424ETHO   H1149717  18.541   8.956  21.905
 6424ETHO   H1349718  18.488   9.120  21.892
 6424ETHO    C249719  18.538   9.048  22.093
 6424ETHO   H2149720  18.629   9.014  22.146
 6424ETHO   H2349721  18.465   8.967  22.116
 6425ETHO    O149722  18.496   9.180  22.139
 6425ETHO    C149723  18.447   9.184  22.270
 6425ETHO   H1149724  18.336   9.187  22.264
 6425ETHO   H1349725  18.480   9.099  22.334
 6425ETHO    C249726  18.484   9.308  22.357
 6425ETHO   H2149727  18.594   9.320  22.354
 6425ETHO   H2349728  18.457   9.276  22.460
 6426ETHO    O149729  18.413   9.427  22.322
 6426ETHO    C149730  18.479   9.544  22.371
 6426ETHO   H1149731  18.578   9.565  22.324
 6426ETHO   H1349732  18.492   9.529  22.481
 6426ETHO    C249733  18.377   9.658  22.352
 6426ETHO   H2149734  18.354   9.669  22.244
 6426ETHO   H2349735  18.421   9.750  22.396
 6427ETHO    O149736  18.255   9.641  22.417
 6427ETHO    C149737  18.169   9.757  22.409
 6427ETHO   H1149738  18.211   9.850  22.452
 6427ETHO   H1349739  18.150   9.784  22.303
 6427ETHO    C249740  18.023   9.726  22.465
 6427ETHO   H2149741  18.011   9.616  22.453
 6427ETHO   H2349742  17.939   9.779  22.415
 6428ETHO    O149743  18.023   9.771  22.595
 6428ETHO    C149744  17.899   9.743  22.654
 6428ETHO   H1149745  17.906   9.821  22.732
 6428ETHO   H1349746  17.811   9.751  22.586
 6428ETHO    C249747  17.888   9.597  22.720
 6428ETHO   H2149748  17.795   9.602  22.781
 6428ETHO   H2349749  17.976   9.569  22.781
 6429ETHO    O149750  17.857   9.489  22.626
 6429ETHO    C149751  17.848   9.367  22.694
 6429ETHO   H1149752  17.777   9.375  22.779
 6429ETHO   H1349753  17.786   9.301  22.629
 6429ETHO    C249754  17.977   9.305  22.738
 6429ETHO   H2149755  17.960   9.229  22.817
 6429ETHO   H2349756  18.061   9.369  22.773
 6430ETHO    O149757  18.031   9.228  22.636
 6430ETHO    C149758  18.145   9.162  22.685
 6430ETHO   H1149759  18.229   9.227  22.714
 6430ETHO   H1349760  18.114   9.091  22.765
 6430ETHO    C249761  18.188   9.082  22.563
 6430ETHO   H2149762  18.279   9.036  22.609
 6430ETHO   H2349763  18.219   9.143  22.476
 6431ETHO    O149764  18.095   8.981  22.527
 6431ETHO    C149765  18.150   8.900  22.425
 6431ETHO   H1149766  18.224   8.830  22.471
 6431ETHO   H1349767  18.203   8.956  22.345
 6431ETHO    C249768  18.041   8.804  22.363
 6431ETHO   H2149769  17.986   8.750  22.443
 6431ETHO   H2349770  18.103   8.734  22.303
 6432ETHO    O149771  17.953   8.871  22.272
 6432ETHO    C149772  17.861   8.778  22.219
 6432ETHO   H1149773  17.847   8.694  22.290
 6432ETHO   H1349774  17.759   8.819  22.200
 6432ETHO    C249775  17.925   8.742  22.087
 6432ETHO   H2149776  17.863   8.659  22.049
 6432ETHO   H2349777  18.026   8.704  22.115
 6433ETHO    O149778  17.931   8.842  21.987
 6433ETHO    C149779  18.008   8.794  21.876
 6433ETHO   H1149780  17.960   8.704  21.831
 6433ETHO   H1349781  18.112   8.761  21.901
 6433ETHO    C249782  18.009   8.901  21.767
 6433ETHO   H2149783  18.080   8.873  21.686
 6433ETHO   H2349784  18.039   9.002  21.803
 6434ETHO    O149785  17.886   8.917  21.704
 6434ETHO    C149786  17.889   9.032  21.621
 6434ETHO   H1149787  17.893   9.116  21.694
 6434ETHO   H1349788  17.989   9.043  21.573
 6434ETHO    C249789  17.771   9.054  21.533
 6434ETHO   H2149790  17.769   9.157  21.493
 6434ETHO   H2349791  17.687   9.030  21.601
 6435ETHO    O149792  17.782   8.962  21.431
 6435ETHO    C149793  17.662   8.930  21.355
 6435ETHO   H1149794  17.590   8.883  21.425
 6435ETHO   H1349795  17.699   8.852  21.285
 6435ETHO    C249796  17.573   9.047  21.288
 6435ETHO   H2149797  17.584   9.137  21.352
 6435ETHO   H2349798  17.468   9.010  21.285
 6436ETHO    O149799  17.621   9.061  21.157
 6436ETHO    C149800  17.572   8.968  21.065
 6436ETHO   H1149801  17.595   8.864  21.097
 6436ETHO   H1349802  17.461   8.966  21.063
 6436ETHO    C249803  17.625   8.969  20.923
 6436ETHO   H2149804  17.561   8.901  20.862
 6436ETHO   H2349805  17.734   8.947  20.919
 6437ETHO    O149806  17.602   9.097  20.871
 6437ETHO    C149807  17.678   9.121  20.755
 6437ETHO   H1149808  17.624   9.069  20.673
 6437ETHO   H1349809  17.783   9.089  20.769
 6437ETHO    C249810  17.687   9.273  20.724
 6437ETHO   H2149811  17.735   9.306  20.630
 6437ETHO   H2349812  17.744   9.320  20.806
 6438ETHO    O149813  17.561   9.342  20.725
 6438ETHO    C149814  17.578   9.484  20.731
 6438ETHO   H1149815  17.629   9.508  20.827
 6438ETHO   H1349816  17.648   9.514  20.650
 6438ETHO    C249817  17.446   9.560  20.731
 6438ETHO   H2149818  17.467   9.655  20.784
 6438ETHO   H2349819  17.379   9.507  20.802
 6439ETHO    O149820  17.393   9.564  20.601
 6439ETHO    C149821  17.279   9.647  20.587
 6439ETHO   H1149822  17.206   9.630  20.670
 6439ETHO   H1349823  17.317   9.751  20.589
 6439ETHO    C249824  17.220   9.616  20.449
 6439ETHO   H2149825  17.128   9.676  20.439
 6439ETHO   H2349826  17.194   9.508  20.454
 6440ETHO    O149827  17.318   9.630  20.346
 6440ETHO    C149828  17.258   9.639  20.220
 6440ETHO   H1149829  17.325   9.600  20.141
 6440ETHO   H1349830  17.167   9.575  20.222
 6440ETHO    C249831  17.218   9.785  20.196
 6440ETHO   H2149832  17.303   9.854  20.175
 6440ETHO   H2349833  17.173   9.829  20.288
 6441ETHO    O149834  17.131   9.792  20.086
 6441ETHO    C149835  17.064   9.922  20.071
 6441ETHO   H1149836  16.967   9.916  20.018
 6441ETHO   H1349837  17.045   9.963  20.173
 6441ETHO    C249838  17.157  10.015  19.995
 6441ETHO   H2149839  17.111  10.114  19.974
 6441ETHO   H2349840  17.248  10.020  20.059
 6442ETHO    O149841  17.185   9.961  19.869
 6442ETHO    C149842  17.232  10.059  19.773
 6442ETHO   H1149843  17.316  10.114  19.819
 6442ETHO   H1349844  17.154  10.132  19.744
 6442ETHO    C249845  17.290  10.003  19.639
 6442ETHO   H2149846  17.208   9.982  19.567
 6442ETHO   H2349847  17.353   9.915  19.667
 6443ETHO    O149848  17.378  10.100  19.580
 6443ETHO    C149849  17.449  10.044  19.473
 6443ETHO   H1149850  17.507   9.953  19.499
 6443ETHO   H1349851  17.375  10.015  19.395
 6443ETHO    C249852  17.536  10.144  19.412
 6443ETHO   H2149853  17.608  10.091  19.346
 6443ETHO   H2349854  17.608  10.194  19.480
 6444ETHO    O149855  17.457  10.237  19.330
 6444ETHO    C149856  17.540  10.289  19.222
 6444ETHO   H1149857  17.578  10.206  19.160
 6444ETHO   H1349858  17.609  10.356  19.278
 6444ETHO    C249859  17.451  10.365  19.114
 6444ETHO   H2149860  17.522  10.418  19.047
 6444ETHO   H2349861  17.376  10.437  19.155
 6445ETHO    O149862  17.391  10.289  19.013
 6445ETHO    C149863  17.281  10.216  19.066
 6445ETHO   H1149864  17.318  10.144  19.141
 6445ETHO   H1349865  17.202  10.284  19.105
 6445ETHO    C249866  17.213  10.140  18.952
 6445ETHO   H2149867  17.161  10.054  18.999
 6445ETHO   H2349868  17.284  10.109  18.872
 6446ETHO    O149869  17.125  10.225  18.878
 6446ETHO    C149870  17.186  10.281  18.766
 6446ETHO   H1149871  17.185  10.210  18.680
 6446ETHO   H1349872  17.285  10.331  18.778
 6446ETHO    C249873  17.101  10.400  18.710
 6446ETHO   H2149874  17.163  10.438  18.626
 6446ETHO   H2349875  17.086  10.484  18.781
 6447ETHO    O149876  16.973  10.365  18.672
 6447ETHO    C149877  16.899  10.477  18.624
 6447ETHO   H1149878  16.856  10.530  18.712
 6447ETHO   H1349879  16.963  10.552  18.573
 6447ETHO    C249880  16.780  10.450  18.528
 6447ETHO   H2149881  16.714  10.539  18.523
 6447ETHO   H2349882  16.724  10.367  18.576
 6448ETHO    O149883  16.821  10.415  18.407
 6448ETHO    C149884  16.711  10.346  18.345
 6448ETHO   H1149885  16.624  10.413  18.328
 6448ETHO   H1349886  16.668  10.267  18.411
 6448ETHO    C249887  16.749  10.289  18.209
 6448ETHO   H2149888  16.683  10.203  18.185
 6448ETHO   H2349889  16.850  10.244  18.222
 6449ETHO    O149890  16.759  10.382  18.103
 6449ETHO    C149891  16.798  10.320  17.982
 6449ETHO   H1149892  16.904  10.289  17.992
 6449ETHO   H1349893  16.723  10.240  17.966
 6449ETHO    C249894  16.781  10.417  17.860
 6449ETHO   H2149895  16.823  10.518  17.876
 6449ETHO   H2349896  16.673  10.439  17.851
 6450ETHO    O149897  16.833  10.366  17.739
 6450ETHO    C149898  16.817  10.455  17.634
 6450ETHO   H1149899  16.717  10.505  17.635
 6450ETHO   H1349900  16.901  10.523  17.661
 6450ETHO    C249901  16.841  10.390  17.504
 6450ETHO   H2149902  16.947  10.357  17.504
 6450ETHO   H2349903  16.834  10.464  17.422
 6451ETHO    O149904  16.753  10.279  17.471
 6451ETHO    C149905  16.798  10.199  17.366
 6451ETHO   H1149906  16.833  10.254  17.277
 6451ETHO   H1349907  16.890  10.157  17.412
 6451ETHO    C249908  16.698  10.086  17.322
 6451ETHO   H2149909  16.681  10.018  17.408
 6451ETHO   H2349910  16.736  10.023  17.239
 6452ETHO    O149911  16.563  10.136  17.299
 6452ETHO    C149912  16.552  10.181  17.162
 6452ETHO   H1149913  16.611  10.274  17.148
 6452ETHO   H1349914  16.605  10.109  17.097
 6452ETHO    C249915  16.411  10.195  17.101
 6452ETHO   H2149916  16.354  10.110  17.144
 6452ETHO   H2349917  16.419  10.181  16.991
 6453ETHO    O149918  16.344  10.322  17.142
 6453ETHO    C149919  16.213  10.331  17.092
 6453ETHO   H1149920  16.156  10.237  17.112
 6453ETHO   H1349921  16.221  10.341  16.982
 6453ETHO    C249922  16.126  10.449  17.137
 6453ETHO   H2149923  16.174  10.549  17.133
 6453ETHO   H2349924  16.094  10.436  17.243
 6454ETHO    O149925  16.003  10.441  17.059
 6454ETHO    C149926  15.915  10.554  17.086
 6454ETHO   H1149927  15.889  10.568  17.193
 6454ETHO   H1349928  15.965  10.651  17.067
 6454ETHO    C249929  15.787  10.534  16.995
 6454ETHO   H2149930  15.739  10.438  17.021
 6454ETHO   H2349931  15.819  10.531  16.889
 6455ETHO    O149932  15.679  10.630  17.013
 6455ETHO    C149933  15.560  10.590  16.946
 6455ETHO   H1149934  15.503  10.509  16.996
 6455ETHO   H1349935  15.584  10.546  16.847
 6455ETHO    C249936  15.464  10.714  16.928
 6455ETHO   H2149937  15.526  10.789  16.873
 6455ETHO   H2349938  15.440  10.742  17.032
 6456ETHO    O149939  15.345  10.681  16.863
 6456ETHO    C149940  15.304  10.788  16.779
 6456ETHO   H1149941  15.261  10.879  16.825
 6456ETHO   H1349942  15.388  10.814  16.710
 6456ETHO    C249943  15.193  10.726  16.688
 6456ETHO   H2149944  15.095  10.732  16.740
 6456ETHO   H2349945  15.215  10.620  16.662
 6457ETHO    O149946  15.167  10.799  16.568
 6457ETHO    C149947  15.075  10.742  16.475
 6457ETHO   H1149948  14.981  10.715  16.528
 6457ETHO   H1349949  15.109  10.647  16.428
 6457ETHO    C249950  15.048  10.839  16.356
 6457ETHO   H2149951  15.141  10.848  16.296
 6457ETHO   H2349952  15.037  10.945  16.385
 6458ETHO    O149953  14.931  10.807  16.277
 6458ETHO    C149954  14.914  10.911  16.183
 6458ETHO   H1149955  14.871  11.002  16.229
 6458ETHO   H1349956  15.004  10.927  16.120
 6458ETHO    C249957  14.808  10.869  16.071
 6458ETHO   H2149958  14.785  10.959  16.010
 6458ETHO   H2349959  14.711  10.849  16.122
 6459ETHO    O149960  14.849  10.755  15.998
 6459ETHO    C149961  14.829  10.632  16.062
 6459ETHO   H1149962  14.720  10.609  16.054
 6459ETHO   H1349963  14.867  10.634  16.167
 6459ETHO    C249964  14.906  10.522  15.989
 6459ETHO   H2149965  14.879  10.436  16.055
 6459ETHO   H2349966  15.014  10.550  15.986
 6460ETHO    O149967  14.854  10.475  15.865
 6460ETHO    C149968  14.899  10.550  15.754
 6460ETHO   H1149969  14.916  10.656  15.782
 6460ETHO   H1349970  14.998  10.518  15.714
 6460ETHO    C249971  14.772  10.534  15.666
 6460ETHO   H2149972  14.734  10.430  15.653
 6460ETHO   H2349973  14.801  10.557  15.561
 6461PROX    O149974  14.669  10.626  15.684
 6461PROX    C149975  14.568  10.581  15.771
 6461PROX   H1149976  14.502  10.505  15.724
 6461PROX   H1349977  14.611  10.544  15.867
 6461PROX    C249978  14.488  10.699  15.814
 6461PROX   H2149979  14.553  10.787  15.830
 6461PROX    C349980  14.422  10.677  15.951
 6461PROX   H3149981  14.349  10.758  15.974
 6461PROX   H3249982  14.375  10.576  15.954
 6461PROX   H3349983  14.496  10.685  16.033
 6462PROX    O149984  14.400  10.727  15.708
 6462PROX    C149985  14.359  10.863  15.704
 6462PROX   H1149986  14.312  10.887  15.802
 6462PROX   H1349987  14.452  10.923  15.696
 6462PROX    C249988  14.264  10.885  15.578
 6462PROX   H2149989  14.222  10.988  15.586
 6462PROX    C349990  14.134  10.806  15.576
 6462PROX   H3149991  14.085  10.824  15.673
 6462PROX   H3249992  14.075  10.857  15.497
 6462PROX   H3349993  14.157  10.698  15.565
 6463PROX    O149994  14.334  10.889  15.456
 6463PROX    C149995  14.390  10.761  15.419
 6463PROX   H1149996  14.477  10.726  15.479
 6463PROX   H1349997  14.312  10.684  15.436
 6463PROX    C249998  14.434  10.764  15.270
 6463PROX   H2149999  14.522  10.831  15.253
 6463PROX    C350000  14.316  10.807  15.169
 6463PROX   H3150001  14.355  10.812  15.065
 6463PROX   H3250002  14.237  10.730  15.178
 6463PROX   H3350003  14.281  10.907  15.203
 6464PROX    O150004  14.473  10.635  15.227
 6464PROX    C150005  14.590  10.587  15.293
 6464PROX   H1150006  14.672  10.662  15.287
 6464PROX   H1350007  14.573  10.559  15.399
 6464PROX    C250008  14.670  10.475  15.215
 6464PROX   H2150009  14.592  10.397  15.206
 6464PROX    C350010  14.783  10.417  15.296
 6464PROX   H3150011  14.828  10.330  15.243
 6464PROX   H3250012  14.856  10.500  15.304
 6464PROX   H3350013  14.740  10.383  15.392
 6465PROX    O150014  14.720  10.527  15.098
 6465PROX    C150015  14.726  10.433  14.990
 6465PROX   H1150016  14.790  10.461  14.903
 6465PROX   H1350017  14.778  10.340  15.022
 6465PROX    C250018  14.585  10.410  14.931
 6465PROX   H2150019  14.512  10.415  15.014
 6465PROX    C350020  14.565  10.268  14.874
 6465PROX   H3150021  14.620  10.245  14.781
 6465PROX   H3250022  14.606  10.189  14.939
 6465PROX   H3350023  14.456  10.247  14.865
 6466PROX    O150024  14.558  10.507  14.829
 6466PROX    C150025  14.512  10.634  14.881
 6466PROX   H1150026  14.410  10.630  14.926
 6466PROX   H1350027  14.571  10.658  14.972
 6466PROX    C250028  14.516  10.755  14.790
 6466PROX   H2150029  14.473  10.719  14.694
 6466PROX    C350030  14.655  10.794  14.773
 6466PROX   H3150031  14.705  10.813  14.871
 6466PROX   H3250032  14.721  10.732  14.709
 6466PROX   H3350033  14.651  10.886  14.711
 6467PROX    O150034  14.448  10.858  14.857
 6467PROX    C150035  14.379  10.932  14.754
 6467PROX   H1150036  14.447  10.965  14.672
 6467PROX   H1350037  14.303  10.868  14.705
 6467PROX    C250038  14.311  11.061  14.815
 6467PROX   H2150039  14.277  11.031  14.916
 6467PROX    C350040  14.196  11.108  14.726
 6467PROX   H3150041  14.152  11.202  14.766
 6467PROX   H3250042  14.246  11.136  14.630
 6467PROX   H3350043  14.125  11.024  14.716
 6468PROX    O150044  14.399  11.177  14.811
 6468PROX    C150045  14.452  11.208  14.943
 6468PROX   H1150046  14.449  11.319  14.949
 6468PROX   H1350047  14.389  11.175  15.027
 6468PROX    C250048  14.587  11.146  14.971
 6468PROX   H2150049  14.597  11.056  14.907
 6468PROX    C350050  14.605  11.118  15.121
 6468PROX   H3150051  14.711  11.103  15.149
 6468PROX   H3250052  14.560  11.199  15.182
 6468PROX   H3350053  14.559  11.020  15.147
 6469PROX    O150054  14.695  11.238  14.933
 6469PROX    C150055  14.696  11.296  14.802
 6469PROX   H1150056  14.606  11.358  14.784
 6469PROX   H1350057  14.782  11.366  14.805
 6469PROX    C250058  14.716  11.187  14.698
 6469PROX   H2150059  14.624  11.124  14.697
 6469PROX    C350060  14.837  11.093  14.731
 6469PROX   H3150061  14.823  11.014  14.807
 6469PROX   H3250062  14.858  11.027  14.644
 6469PROX   H3350063  14.928  11.152  14.755
 6470PROX    O150064  14.737  11.239  14.565
 6470PROX    C150065  14.648  11.353  14.538
 6470PROX   H1150066  14.547  11.324  14.574
 6470PROX   H1350067  14.681  11.444  14.593
 6470PROX    C250068  14.650  11.396  14.388
 6470PROX   H2150069  14.614  11.315  14.321
 6470PROX    C350070  14.798  11.429  14.343
 6470PROX   H3150071  14.804  11.441  14.232
 6470PROX   H3250072  14.837  11.521  14.391
 6470PROX   H3350073  14.867  11.345  14.368
 6471PROX    O150074  14.565  11.502  14.375
 6471PROX    C150075  14.452  11.474  14.298
 6471PROX   H1150076  14.415  11.574  14.266
 6471PROX   H1350077  14.477  11.415  14.208
 6471PROX    C250078  14.347  11.402  14.382
 6471PROX   H2150079  14.389  11.310  14.428
 6471PROX    C350080  14.226  11.375  14.291
 6471PROX   H3150081  14.151  11.335  14.362
 6471PROX   H3250082  14.185  11.471  14.251
 6471PROX   H3350083  14.250  11.323  14.196
 6472PROX    O150084  14.300  11.491  14.487
 6472PROX    C150085  14.238  11.425  14.598
 6472PROX   H1150086  14.142  11.379  14.570
 6472PROX   H1350087  14.310  11.354  14.645
 6472PROX    C250088  14.210  11.525  14.712
 6472PROX   H2150089  14.154  11.613  14.675
 6472PROX    C350090  14.338  11.585  14.774
 6472PROX   H3150091  14.393  11.654  14.705
 6472PROX   H3250092  14.316  11.625  14.875
 6472PROX   H3350093  14.409  11.501  14.791
 6473PROX    O150094  14.130  11.461  14.813
 6473PROX    C150095  14.045  11.553  14.890
 6473PROX   H1150096  14.102  11.631  14.944
 6473PROX   H1350097  13.987  11.612  14.816
 6473PROX    C250098  13.952  11.481  14.993
 6473PROX   H2150099  13.882  11.542  15.053
 6473PROX    C350100  14.026  11.396  15.096
 6473PROX   H3150101  13.961  11.344  15.170
 6473PROX   H3250102  14.069  11.309  15.041
 6473PROX   H3350103  14.094  11.455  15.161
 6474PROX    O150104  13.874  11.382  14.922
 6474PROX    C150105  13.758  11.443  14.860
 6474PROX   H1150106  13.694  11.503  14.928
 6474PROX   H1350107  13.795  11.503  14.774
 6474PROX    C250108  13.666  11.330  14.796
 6474PROX   H2150109  13.732  11.272  14.727
 6474PROX    C350110  13.546  11.385  14.706
 6474PROX   H3150111  13.471  11.445  14.763
 6474PROX   H3250112  13.586  11.445  14.622
 6474PROX   H3350113  13.494  11.302  14.655
 6475PROX    O150114  13.605  11.241  14.892
 6475PROX    C150115  13.699  11.166  14.974
 6475PROX   H1150116  13.788  11.135  14.914
 6475PROX   H1350117  13.743  11.227  15.056
 6475PROX    C250118  13.642  11.038  15.035
 6475PROX   H2150119  13.597  10.973  14.957
 6475PROX    C350120  13.531  11.079  15.136
 6475PROX   H3150121  13.452  11.130  15.078
 6475PROX   H3250122  13.483  10.988  15.179
 6475PROX   H3350123  13.575  11.144  15.214
 6476PROX    O150124  13.746  10.969  15.108
 6476PROX    C150125  13.818  10.885  15.010
 6476PROX   H1150126  13.757  10.792  15.019
 6476PROX   H1350127  13.823  10.917  14.903
 6476PROX    C250128  13.966  10.880  15.064
 6476PROX   H2150129  13.967  10.826  15.161
 6476PROX    C350130  14.026  11.018  15.074
 6476PROX   H3150131  14.117  11.016  15.139
 6476PROX   H3250132  14.065  11.052  14.976
 6476PROX   H3350133  13.970  11.106  15.113
 6477PROX    O150134  14.049  10.823  14.961
 6477PROX    C150135  14.019  10.684  14.957
 6477PROX   H1150136  14.049  10.642  15.056
 6477PROX   H1350137  13.914  10.672  14.921
 6477PROX    C250138  14.118  10.628  14.850
 6477PROX   H2150139  14.223  10.642  14.886
 6477PROX    C350140  14.104  10.691  14.712
 6477PROX   H3150141  14.189  10.655  14.649
 6477PROX   H3250142  14.006  10.661  14.669
 6477PROX   H3350143  14.103  10.802  14.719
 6478PROX    O150144  14.083  10.491  14.838
 6478PROX    C150145  14.184  10.424  14.766
 6478PROX   H1150146  14.279  10.482  14.768
 6478PROX   H1350147  14.203  10.323  14.808
 6478PROX    C250148  14.140  10.389  14.619
 6478PROX   H2150149  14.086  10.477  14.579
 6478PROX    C350150  14.052  10.272  14.628
 6478PROX   H3150151  14.014  10.240  14.529
 6478PROX   H3250152  14.095  10.180  14.674
 6478PROX   H3350153  13.957  10.288  14.684
 6479PROX    O150154  14.255  10.358  14.540
 6479PROX    C150155  14.328  10.475  14.498
 6479PROX   H1150156  14.268  10.562  14.463
 6479PROX   H1350157  14.373  10.504  14.595
 6479PROX    C250158  14.439  10.436  14.396
 6479PROX   H2150159  14.379  10.415  14.304
 6479PROX    C350160  14.508  10.293  14.416
 6479PROX   H3150161  14.424  10.220  14.409
 6479PROX   H3250162  14.591  10.278  14.344
 6479PROX   H3350163  14.555  10.269  14.514
 6480PROX    O150164  14.526  10.540  14.369
 6480PROX    C150165  14.619  10.569  14.474
 6480PROX   H1150166  14.557  10.593  14.563
 6480PROX   H1350167  14.674  10.472  14.482
 6480PROX    C250168  14.715  10.681  14.426
 6480PROX   H2150169  14.717  10.672  14.316
 6480PROX    C350170  14.861  10.657  14.472
 6480PROX   H3150171  14.924  10.740  14.433
 6480PROX   H3250172  14.878  10.657  14.582
 6480PROX   H3350173  14.901  10.566  14.422
 6481PROX    O150174  14.658  10.808  14.463
 6481PROX    C150175  14.693  10.910  14.366
 6481PROX   H1150176  14.677  11.008  14.416
 6481PROX   H1350177  14.802  10.899  14.349
 6481PROX    C250178  14.613  10.926  14.231
 6481PROX   H2150179  14.605  10.825  14.186
 6481PROX    C350180  14.671  11.030  14.140
 6481PROX   H3150181  14.770  10.990  14.109
 6481PROX   H3250182  14.603  11.044  14.053
 6481PROX   H3350183  14.689  11.127  14.191
 6482PROX    O150184  14.479  10.961  14.255
 6482PROX    C150185  14.397  10.854  14.296
 6482PROX   H1150186  14.412  10.765  14.230
 6482PROX   H1350187  14.406  10.840  14.406
 6482PROX    C250188  14.253  10.893  14.271
 6482PROX   H2150189  14.243  10.904  14.161
 6482PROX    C350190  14.220  11.028  14.340
 6482PROX   H3150191  14.112  11.053  14.336
 6482PROX   H3250192  14.255  11.023  14.445
 6482PROX   H3350193  14.264  11.114  14.286
 6483PROX    O150194  14.175  10.780  14.313
 6483PROX    C150195  14.035  10.777  14.279
 6483PROX   H1150196  13.974  10.844  14.343
 6483PROX   H1350197  14.014  10.809  14.174
 6483PROX    C250198  13.989  10.627  14.287
 6483PROX   H2150199  14.021  10.588  14.386
 6483PROX    C350200  14.045  10.543  14.172
 6483PROX   H3150201  13.989  10.556  14.076
 6483PROX   H3250202  14.153  10.565  14.158
 6483PROX   H3350203  14.039  10.438  14.206
 6484PROX    O150204  13.846  10.606  14.271
 6484PROX    C150205  13.774  10.611  14.392
 6484PROX   H1150206  13.836  10.643  14.478
 6484PROX   H1350207  13.695  10.689  14.382
 6484PROX    C250208  13.713  10.477  14.432
 6484PROX   H2150209  13.796  10.404  14.448
 6484PROX    C350210  13.615  10.433  14.332
 6484PROX   H3150211  13.667  10.400  14.239
 6484PROX   H3250212  13.556  10.347  14.371
 6484PROX   H3350213  13.544  10.516  14.314
 6485PROX    O150214  13.637  10.508  14.551
 6485PROX    C150215  13.712  10.488  14.668
 6485PROX   H1150216  13.748  10.383  14.676
 6485PROX   H1350217  13.805  10.547  14.677
 6485PROX    C250218  13.627  10.529  14.793
 6485PROX   H2150219  13.533  10.472  14.782
 6485PROX    C350220  13.603  10.679  14.791
 6485PROX   H3150221  13.572  10.694  14.685
 6485PROX   H3250222  13.517  10.729  14.839
 6485PROX   H3350223  13.698  10.732  14.813
 6486PROX    O150224  13.695  10.497  14.916
 6486PROX    C150225  13.693  10.363  14.953
 6486PROX   H1150226  13.589  10.326  14.943
 6486PROX   H1350227  13.750  10.301  14.880
 6486PROX    C250228  13.755  10.345  15.093
 6486PROX   H2150229  13.857  10.386  15.082
 6486PROX    C350230  13.771  10.197  15.125
 6486PROX   H3150231  13.852  10.158  15.060
 6486PROX   H3250232  13.799  10.193  15.233
 6486PROX   H3350233  13.678  10.137  15.119
 6487PROX    O150234  13.675  10.405  15.192
 6487PROX    C150235  13.715  10.538  15.216
 6487PROX   H1150236  13.823  10.542  15.243
 6487PROX   H1350237  13.726  10.594  15.120
 6487PROX    C250238  13.622  10.613  15.317
 6487PROX   H2150239  13.659  10.718  15.316
 6487PROX    C350240  13.643  10.556  15.459
 6487PROX   H3150241  13.734  10.595  15.508
 6487PROX   H3250242  13.567  10.602  15.526
 6487PROX   H3350243  13.654  10.446  15.468
 6488PROX    O150244  13.492  10.605  15.268
 6488PROX    C150245  13.469  10.704  15.172
 6488PROX   H1150246  13.485  10.799  15.227
 6488PROX   H1350247  13.538  10.704  15.085
 6488PROX    C250248  13.329  10.695  15.103
 6488PROX   H2150249  13.255  10.710  15.184
 6488PROX    C350250  13.318  10.561  15.033
 6488PROX   H3150251  13.231  10.505  15.074
 6488PROX   H3250252  13.325  10.562  14.923
 6488PROX   H3350253  13.409  10.499  15.050
 6489PROX    O150254  13.321  10.812  15.015
 6489PROX    C150255  13.227  10.809  14.909
 6489PROX   H1150256  13.276  10.766  14.818
 6489PROX   H1350257  13.143  10.740  14.933
 6489PROX    C250258  13.181  10.950  14.888
 6489PROX   H2150259  13.207  11.008  14.979
 6489PROX    C350260  13.028  10.949  14.899
 6489PROX   H3150261  12.997  10.904  14.996
 6489PROX   H3250262  12.984  11.050  14.882
 6489PROX   H3350263  12.990  10.894  14.810
 6490PROX    O150264  13.234  11.010  14.769
 6490PROX    C150265  13.376  11.009  14.759
 6490PROX   H1150266  13.416  11.107  14.794
 6490PROX   H1350267  13.421  10.922  14.812
 6490PROX    C250268  13.429  11.005  14.610
 6490PROX   H2150269  13.397  11.103  14.567
 6490PROX    C350270  13.381  10.887  14.533
 6490PROX   H3150271  13.274  10.891  14.503
 6490PROX   H3250272  13.430  10.872  14.434
 6490PROX   H3350273  13.398  10.794  14.593
 6491PROX    O150274  13.568  11.006  14.616
 6491PROX    C150275  13.629  11.073  14.508
 6491PROX   H1150276  13.565  11.074  14.417
 6491PROX   H1350277  13.637  11.179  14.540
 6491PROX    C250278  13.761  11.012  14.483
 6491PROX   H2150279  13.744  10.906  14.453
 6491PROX    C350280  13.850  10.995  14.609
 6491PROX   H3150281  13.802  10.910  14.663
 6491PROX   H3250282  13.953  10.964  14.585
 6491PROX   H3350283  13.839  11.087  14.671
 6492PROX    O150284  13.820  11.076  14.370
 6492PROX    C150285  13.878  11.197  14.404
 6492PROX   H1150286  13.839  11.240  14.499
 6492PROX   H1350287  13.987  11.187  14.424
 6492PROX    C250288  13.858  11.297  14.290
 6492PROX   H2150289  13.750  11.319  14.277
 6492PROX    C350290  13.919  11.233  14.159
 6492PROX   H3150291  14.029  11.222  14.167
 6492PROX   H3250292  13.897  11.124  14.167
 6492PROX   H3350293  13.900  11.277  14.059
 6493PROX    O150294  13.932  11.414  14.318
 6493PROX    C150295  13.887  11.483  14.436
 6493PROX   H1150296  13.781  11.451  14.448
 6493PROX   H1350297  13.950  11.450  14.521
 6493PROX    C250298  13.887  11.634  14.428
 6493PROX   H2150299  13.830  11.662  14.336
 6493PROX    C350300  14.029  11.694  14.411
 6493PROX   H3150301  14.097  11.653  14.490
 6493PROX   H3250302  14.076  11.666  14.315
 6493PROX   H3350303  14.033  11.804  14.422
 6494PROX    O150304  13.810  11.674  14.541
 6494PROX    C150305  13.751  11.805  14.541
 6494PROX   H1150306  13.805  11.873  14.472
 6494PROX   H1350307  13.643  11.793  14.518
 6494PROX    C250308  13.786  11.873  14.672
 6494PROX   H2150309  13.750  11.978  14.663
 6494PROX    C350310  13.939  11.877  14.693
 6494PROX   H3150311  13.976  11.937  14.779
 6494PROX   H3250312  13.981  11.776  14.712
 6494PROX   H3350313  13.987  11.913  14.600
 6495PROX    O150314  13.727  11.813  14.786
 6495PROX    C150315  13.585  11.836  14.790
 6495PROX   H1150316  13.570  11.944  14.767
 6495PROX   H1350317  13.537  11.768  14.717
 6495PROX    C250318  13.547  11.801  14.931
 6495PROX   H2150319  13.580  11.695  14.943
 6495PROX    C350320  13.392  11.815  14.952
 6495PROX   H3150321  13.334  11.736  14.899
 6495PROX   H3250322  13.370  11.807  15.060
 6495PROX   H3350323  13.374  11.915  14.907
 6496PROX    O150324  13.604  11.890  15.028
 6496PROX    C150325  13.719  11.837  15.102
 6496PROX   H1150326  13.791  11.793  15.030
 6496PROX   H1350327  13.772  11.929  15.135
 6496PROX    C250328  13.691  11.749  15.229
 6496PROX   H2150329  13.619  11.806  15.291
 6496PROX    C350330  13.813  11.722  15.315
 6496PROX   H3150331  13.848  11.816  15.362
 6496PROX   H3250332  13.781  11.648  15.391
 6496PROX   H3350333  13.883  11.674  15.242
 6497PROX    O150334  13.639  11.623  15.183
 6497PROX    C150335  13.524  11.579  15.254
 6497PROX   H1150336  13.549  11.591  15.361
 6497PROX   H1350337  13.429  11.632  15.231
 6497PROX    C250338  13.496  11.434  15.216
 6497PROX   H2150339  13.586  11.369  15.226
 6497PROX    C350340  13.432  11.426  15.080
 6497PROX   H3150341  13.341  11.489  15.078
 6497PROX   H3250342  13.501  11.460  15.000
 6497PROX   H3350343  13.414  11.320  15.051
 6498PROX    O150344  13.390  11.394  15.299
 6498PROX    C150345  13.432  11.338  15.424
 6498PROX   H1150346  13.500  11.251  15.414
 6498PROX   H1350347  13.474  11.424  15.480
 6498PROX    C250348  13.293  11.296  15.486
 6498PROX   H2150349  13.256  11.216  15.419
 6498PROX    C350350  13.191  11.413  15.501
 6498PROX   H3150351  13.087  11.385  15.526
 6498PROX   H3250352  13.224  11.478  15.584
 6498PROX   H3350353  13.193  11.485  15.415
 6499PROX    O150354  13.325  11.229  15.611
 6499PROX    C150355  13.207  11.186  15.682
 6499PROX   H1150356  13.173  11.276  15.738
 6499PROX   H1350357  13.131  11.152  15.608
 6499PROX    C250358  13.231  11.067  15.775
 6499PROX   H2150359  13.135  11.025  15.811
 6499PROX    C350360  13.331  11.102  15.886
 6499PROX   H3150361  13.297  11.189  15.945
 6499PROX   H3250362  13.329  11.023  15.964
 6499PROX   H3350363  13.438  11.110  15.856
 6500PROX    O150364  13.301  10.977  15.692
 6500PROX    C150365  13.287  10.847  15.742
 6500PROX   H1150366  13.295  10.843  15.853
 6500PROX   H1350367  13.180  10.824  15.724
 6500PROX    C250368  13.378  10.744  15.674
 6500PROX   H2150369  13.359  10.765  15.567
 6500PROX    C350370  13.343  10.600  15.710
 6500PROX   H3150371  13.237  10.582  15.683
 6500PROX   H3250372  13.406  10.527  15.655
 6500PROX   H3350373  13.352  10.597  15.820
 6501PROX    O150374  13.517  10.759  15.704
 6501PROX    C150375  13.560  10.881  15.644
 6501PROX   H1150376  13.511  10.906  15.548
 6501PROX   H1350377  13.548  10.965  15.715
 6501PROX    C250378  13.708  10.874  15.631
 6501PROX   H2150379  13.743  10.790  15.567
 6501PROX    C350380  13.773  10.851  15.768
 6501PROX   H3150381  13.736  10.904  15.859
 6501PROX   H3250382  13.763  10.741  15.785
 6501PROX   H3350383  13.881  10.875  15.759
 6502PROX    O150384  13.759  10.998  15.590
 6502PROX    C150385  13.716  11.034  15.462
 6502PROX   H1150386  13.725  10.943  15.398
 6502PROX   H1350387  13.614  11.077  15.454
 6502PROX    C250388  13.813  11.152  15.412
 6502PROX   H2150389  13.798  11.150  15.302
 6502PROX    C350390  13.967  11.135  15.424
 6502PROX   H3150391  14.018  11.231  15.400
 6502PROX   H3250392  13.995  11.111  15.529
 6502PROX   H3350393  13.994  11.055  15.352
 6503PROX    O150394  13.769  11.282  15.450
 6503PROX    C150395  13.746  11.291  15.591
 6503PROX   H1150396  13.637  11.281  15.611
 6503PROX   H1350397  13.813  11.223  15.647
 6503PROX    C250398  13.772  11.443  15.630
 6503PROX   H2150399  13.700  11.503  15.570
 6503PROX    C350400  13.919  11.477  15.608
 6503PROX   H3150401  13.930  11.519  15.506
 6503PROX   H3250402  13.947  11.563  15.672
 6503PROX   H3350403  13.990  11.392  15.618
 6504PROX    O150404  13.751  11.452  15.764
 6504PROX    C150405  13.616  11.494  15.791
 6504PROX   H1150406  13.607  11.605  15.802
 6504PROX   H1350407  13.550  11.472  15.705
 6504PROX    C250408  13.564  11.422  15.914
 6504PROX   H2150409  13.567  11.313  15.891
 6504PROX    C350410  13.427  11.467  15.956
 6504PROX   H3150411  13.420  11.577  15.952
 6504PROX   H3250412  13.348  11.433  15.887
 6504PROX   H3350413  13.407  11.430  16.059
 6505PROX    O150414  13.645  11.449  16.029
 6505PROX    C150415  13.756  11.364  16.051
 6505PROX   H1150416  13.715  11.264  16.078
 6505PROX   H1350417  13.807  11.360  15.952
 6505PROX    C250418  13.857  11.418  16.156
 6505PROX   H2150419  13.941  11.347  16.150
 6505PROX    C350420  13.789  11.406  16.298
 6505PROX   H3150421  13.692  11.459  16.282
 6505PROX   H3250422  13.762  11.302  16.325
 6505PROX   H3350423  13.848  11.450  16.382
 6506PROX    O150424  13.898  11.554  16.127
 6506PROX    C150425  13.996  11.563  16.018
 6506PROX   H1150426  14.091  11.511  16.040
 6506PROX   H1350427  13.938  11.507  15.942
 6506PROX    C250428  14.022  11.697  15.957
 6506PROX   H2150429  14.061  11.761  16.039
 6506PROX    C350430  13.898  11.767  15.903
 6506PROX   H3150431  13.922  11.864  15.856
 6506PROX   H3250432  13.834  11.703  15.838
 6506PROX   H3350433  13.827  11.791  15.986
 6507PROX    O150434  14.119  11.678  15.858
 6507PROX    C150435  14.174  11.801  15.820
 6507PROX   H1150436  14.114  11.842  15.736
 6507PROX   H1350437  14.175  11.869  15.908
 6507PROX    C250438  14.313  11.780  15.769
 6507PROX   H2150439  14.310  11.696  15.696
 6507PROX    C350440  14.422  11.714  15.864
 6507PROX   H3150441  14.430  11.789  15.946
 6507PROX   H3250442  14.377  11.618  15.901
 6507PROX   H3350443  14.519  11.699  15.813
 6508PROX    O150444  14.357  11.901  15.709
 6508PROX    C150445  14.460  11.872  15.613
 6508PROX   H1150446  14.550  11.825  15.659
 6508PROX   H1350447  14.428  11.797  15.537
 6508PROX    C250448  14.509  11.995  15.524
 6508PROX   H2150449  14.564  12.066  15.589
 6508PROX    C350450  14.391  12.068  15.455
 6508PROX   H3150451  14.330  12.142  15.511
 6508PROX   H3250452  14.418  12.141  15.375
 6508PROX   H3350453  14.323  11.999  15.402
 6509PROX    O150454  14.592  11.933  15.429
 6509PROX    C150455  14.700  12.020  15.386
 6509PROX   H1150456  14.665  12.107  15.326
 6509PROX   H1350457  14.757  12.049  15.477
 6509PROX    C250458  14.806  11.942  15.295
 6509PROX   H2150459  14.869  11.878  15.360
 6509PROX    C350460  14.889  12.046  15.211
 6509PROX   H3150461  14.940  12.111  15.285
 6509PROX   H3250462  14.964  11.999  15.144
 6509PROX   H3350463  14.822  12.106  15.145
 6510PROX    O150464  14.735  11.859  15.205
 6510PROX    C150465  14.826  11.777  15.133
 6510PROX   H1150466  14.826  11.816  15.029
 6510PROX   H1350467  14.932  11.785  15.165
 6510PROX    C250468  14.793  11.625  15.133
 6510PROX   H2150469  14.843  11.577  15.047
 6510PROX    C350470  14.636  11.614  15.121
 6510PROX   H3150471  14.590  11.650  15.215
 6510PROX   H3250472  14.592  11.659  15.029
 6510PROX   H3350473  14.602  11.508  15.116
 6511PROX    O150474  14.837  11.562  15.258
 6511PROX    C150475  14.860  11.421  15.230
 6511PROX   H1150476  14.812  11.387  15.136
 6511PROX   H1350477  14.969  11.403  15.219
 6511PROX    C250478  14.807  11.344  15.354
 6511PROX   H2150479  14.698  11.366  15.362
 6511PROX    C350480  14.875  11.399  15.480
 6511PROX   H3150481  14.853  11.341  15.572
 6511PROX   H3250482  14.983  11.391  15.457
 6511PROX   H3350483  14.859  11.504  15.512
 6512PROX    O150484  14.841  11.206  15.328
 6512PROX    C150485  14.781  11.117  15.420
 6512PROX   H1150486  14.818  11.136  15.523
 6512PROX   H1350487  14.671  11.131  15.423
 6512PROX    C250488  14.805  10.965  15.388
 6512PROX   H2150489  14.742  10.943  15.299
 6512PROX    C350490  14.766  10.872  15.506
 6512PROX   H3150491  14.831  10.895  15.593
 6512PROX   H3250492  14.665  10.906  15.538
 6512PROX   H3350493  14.787  10.764  15.488
 6513PROX    O150494  14.951  10.941  15.378
 6513PROX    C150495  14.987  10.853  15.273
 6513PROX   H1150496  15.086  10.804  15.280
 6513PROX   H1350497  14.911  10.772  15.279
 6513PROX    C250498  14.988  10.918  15.129
 6513PROX   H2150499  14.896  10.979  15.122
 6513PROX    C350500  14.974  10.808  15.019
 6513PROX   H3150501  15.075  10.764  15.004
 6513PROX   H3250502  14.897  10.731  15.042
 6513PROX   H3350503  14.951  10.849  14.918
 6514PROX    O150504  15.101  11.009  15.112
 6514PROX    C150505  15.073  11.108  15.017
 6514PROX   H1150506  15.056  11.051  14.923
 6514PROX   H1350507  14.981  11.162  15.048
 6514PROX    C250508  15.188  11.219  15.018
 6514PROX   H2150509  15.279  11.164  14.988
 6514PROX    C350510  15.218  11.287  15.157
 6514PROX   H3150511  15.315  11.336  15.135
 6514PROX   H3250512  15.151  11.373  15.177
 6514PROX   H3350513  15.220  11.212  15.239
 6515PROX    O150514  15.148  11.319  14.928
 6515PROX    C150515  15.210  11.299  14.804
 6515PROX   H1150516  15.310  11.348  14.814
 6515PROX   H1350517  15.222  11.191  14.784
 6515PROX    C250518  15.131  11.363  14.693
 6515PROX   H2150519  15.024  11.335  14.694
 6515PROX    C350520  15.182  11.297  14.559
 6515PROX   H3150521  15.290  11.322  14.552
 6515PROX   H3250522  15.174  11.186  14.559
 6515PROX   H3350523  15.123  11.345  14.479
 6516PROX    O150524  15.146  11.509  14.691
 6516PROX    C150525  15.051  11.571  14.777
 6516PROX   H1150526  14.947  11.543  14.747
 6516PROX   H1350527  15.055  11.547  14.886
 6516PROX    C250528  15.068  11.726  14.767
 6516PROX   H2150529  15.114  11.761  14.673
 6516PROX    C350530  15.141  11.798  14.882
 6516PROX   H3150531  15.079  11.764  14.967
 6516PROX   H3250532  15.251  11.784  14.874
 6516PROX   H3350533  15.140  11.909  14.872
 6517PROX    O150534  14.939  11.781  14.777
 6517PROX    C150535  14.857  11.781  14.657
 6517PROX   H1150536  14.873  11.876  14.601
 6517PROX   H1350537  14.878  11.688  14.600
 6517PROX    C250538  14.709  11.790  14.694
 6517PROX   H2150539  14.683  11.700  14.753
 6517PROX    C350540  14.614  11.770  14.565
 6517PROX   H3150541  14.643  11.850  14.494
 6517PROX   H3250542  14.624  11.672  14.514
 6517PROX   H3350543  14.506  11.780  14.588
 6518PROX    O150544  14.674  11.913  14.753
 6518PROX    C150545  14.565  11.896  14.843
 6518PROX   H1150546  14.497  11.830  14.786
 6518PROX   H1350547  14.594  11.852  14.941
 6518PROX    C250548  14.494  12.040  14.860
 6518PROX   H2150549  14.492  12.095  14.763
 6518PROX    C350550  14.553  12.142  14.958
 6518PROX   H3150551  14.598  12.107  15.053
 6518PROX   H3250552  14.644  12.186  14.910
 6518PROX   H3350553  14.475  12.217  14.982
 6519PROX    O150554  14.354  12.021  14.892
 6519PROX    C150555  14.337  11.953  15.016
 6519PROX   H1150556  14.393  11.857  15.019
 6519PROX   H1350557  14.381  12.019  15.094
 6519PROX    C250558  14.187  11.939  15.052
 6519PROX   H2150559  14.131  11.864  14.992
 6519PROX    C350560  14.101  12.073  15.043
 6519PROX   H3150561  14.144  12.148  15.113
 6519PROX   H3250562  14.117  12.120  14.943
 6519PROX   H3350563  13.993  12.057  15.060
 6520PROX    O150564  14.171  11.892  15.180
 6520PROX    C150565  14.241  11.774  15.210
 6520PROX   H1150566  14.252  11.709  15.120
 6520PROX   H1350567  14.339  11.800  15.255
 6520PROX    C250568  14.179  11.695  15.334
 6520PROX   H2150569  14.085  11.650  15.296
 6520PROX    C350570  14.133  11.780  15.450
 6520PROX   H3150571  14.061  11.727  15.517
 6520PROX   H3250572  14.220  11.816  15.508
 6520PROX   H3350573  14.082  11.873  15.417
 6521PROX    O150574  14.273  11.604  15.382
 6521PROX    C150575  14.227  11.501  15.461
 6521PROX   H1150576  14.207  11.534  15.565
 6521PROX   H1350577  14.138  11.443  15.427
 6521PROX    C250578  14.346  11.401  15.473
 6521PROX   H2150579  14.434  11.468  15.474
 6521PROX    C350580  14.363  11.314  15.346
 6521PROX   H3150581  14.430  11.227  15.354
 6521PROX   H3250582  14.261  11.274  15.328
 6521PROX   H3350583  14.386  11.380  15.259
 6522PROX    O150584  14.335  11.331  15.595
 6522PROX    C150585  14.459  11.275  15.639
 6522PROX   H1150586  14.478  11.179  15.588
 6522PROX   H1350587  14.538  11.349  15.611
 6522PROX    C250588  14.460  11.246  15.794
 6522PROX   H2150589  14.429  11.342  15.839
 6522PROX    C350590  14.590  11.183  15.844
 6522PROX   H3150591  14.629  11.101  15.780
 6522PROX   H3250592  14.672  11.257  15.853
 6522PROX   H3350593  14.570  11.133  15.941
 6523PROX    O150594  14.350  11.164  15.818
 6523PROX    C150595  14.272  11.196  15.936
 6523PROX   H1150596  14.341  11.169  16.019
 6523PROX   H1350597  14.250  11.305  15.940
 6523PROX    C250598  14.135  11.118  15.927
 6523PROX   H2150599  14.148  11.010  15.906
 6523PROX    C350600  14.052  11.178  15.811
 6523PROX   H3150601  13.992  11.267  15.837
 6523PROX   H3250602  14.109  11.212  15.722
 6523PROX   H3350603  13.976  11.099  15.787
 6524PROX    O150604  14.065  11.130  16.052
 6524PROX    C150605  13.969  11.033  16.068
 6524PROX   H1150606  13.893  11.078  16.136
 6524PROX   H1350607  13.923  11.004  15.971
 6524PROX    C250608  14.023  10.904  16.136
 6524PROX   H2150609  14.108  10.875  16.070
 6524PROX    C350610  13.922  10.794  16.148
 6524PROX   H3150611  13.954  10.728  16.230
 6524PROX   H3250612  13.821  10.836  16.169
 6524PROX   H3350613  13.921  10.732  16.056
 6525PROX    O150614  14.064  10.946  16.272
 6525PROX    C150615  14.202  10.958  16.282
 6525PROX   H1150616  14.251  10.858  16.281
 6525PROX   H1350617  14.248  11.017  16.199
 6525PROX    C250618  14.229  11.023  16.422
 6525PROX   H2150619  14.169  10.963  16.494
 6525PROX    C350620  14.188  11.168  16.435
 6525PROX   H3150621  14.212  11.213  16.534
 6525PROX   H3250622  14.233  11.228  16.353
 6525PROX   H3350623  14.080  11.174  16.410
 6526ETHO    O150624  14.366  11.022  16.456
 6526ETHO    C150625  14.404  10.887  16.497
 6526ETHO   H1150626  14.504  10.869  16.452
 6526ETHO   H1350627  14.337  10.804  16.466
 6526ETHO    C250628  14.432  10.885  16.649
 6526ETHO   H2150629  14.340  10.915  16.702
 6526ETHO   H2350630  14.506  10.966  16.669
 6527ETHO    O150631  14.469  10.760  16.704
 6527ETHO    C150632  14.608  10.755  16.730
 6527ETHO   H1150633  14.613  10.657  16.782
 6527ETHO   H1350634  14.671  10.749  16.639
 6527ETHO    C250635  14.666  10.850  16.838
 6527ETHO   H2150636  14.725  10.795  16.915
 6527ETHO   H2350637  14.578  10.887  16.895
 6528ETHO    O150638  14.740  10.965  16.797
 6528ETHO    C150639  14.868  10.931  16.746
 6528ETHO   H1150640  14.855  10.905  16.639
 6528ETHO   H1350641  14.911  10.851  16.811
 6528ETHO    C250642  14.966  11.050  16.715
 6528ETHO   H2150643  14.927  11.153  16.706
 6528ETHO   H2350644  15.032  11.032  16.627
 6529ETHO    O150645  15.048  11.060  16.824
 6529ETHO    C150646  15.128  11.174  16.823
 6529ETHO   H1150647  15.186  11.185  16.729
 6529ETHO   H1350648  15.061  11.262  16.836
 6529ETHO    C250649  15.219  11.167  16.941
 6529ETHO   H2150650  15.270  11.266  16.949
 6529ETHO   H2350651  15.301  11.093  16.937
 6530ETHO    O150652  15.140  11.152  17.064
 6530ETHO    C150653  15.212  11.160  17.193
 6530ETHO   H1150654  15.145  11.140  17.279
 6530ETHO   H1350655  15.255  11.261  17.212
 6530ETHO    C250656  15.332  11.059  17.217
 6530ETHO   H2150657  15.289  10.959  17.192
 6530ETHO   H2350658  15.370  11.052  17.321
 6531ETHO    O150659  15.438  11.083  17.130
 6531ETHO    C150660  15.552  10.999  17.170
 6531ETHO   H1150661  15.587  11.033  17.270
 6531ETHO   H1350662  15.520  10.893  17.163
 6531ETHO    C250663  15.669  11.017  17.077
 6531ETHO   H2150664  15.642  10.978  16.976
 6531ETHO   H2350665  15.751  10.956  17.122
 6532ETHO    O150666  15.708  11.152  17.055
 6532ETHO    C150667  15.834  11.152  16.989
 6532ETHO   H1150668  15.843  11.076  16.908
 6532ETHO   H1350669  15.922  11.129  17.053
 6532ETHO    C250670  15.860  11.286  16.928
 6532ETHO   H2150671  15.783  11.294  16.848
 6532ETHO   H2350672  15.963  11.283  16.886
 6533ETHO    O150673  15.865  11.385  17.025
 6533ETHO    C150674  15.943  11.496  16.983
 6533ETHO   H1150675  16.048  11.458  16.988
 6533ETHO   H1350676  15.917  11.525  16.879
 6533ETHO    C250677  15.928  11.621  17.075
 6533ETHO   H2150678  16.016  11.681  17.045
 6533ETHO   H2350679  15.832  11.672  17.054
 6534ETHO    O150680  15.937  11.585  17.211
 6534ETHO    C150681  15.982  11.704  17.283
 6534ETHO   H1150682  16.087  11.731  17.259
 6534ETHO   H1350683  15.931  11.794  17.242
 6534ETHO    C250684  15.968  11.701  17.440
 6534ETHO   H2150685  15.951  11.594  17.464
 6534ETHO   H2350686  15.894  11.774  17.480
 6535ETHO    O150687  16.094  11.738  17.491
 6535ETHO    C150688  16.111  11.716  17.632
 6535ETHO   H1150689  16.030  11.776  17.678
 6535ETHO   H1350690  16.092  11.607  17.646
 6535ETHO    C250691  16.250  11.759  17.690
 6535ETHO   H2150692  16.257  11.736  17.798
 6535ETHO   H2350693  16.273  11.868  17.690
 6536ETHO    O150694  16.356  11.690  17.629
 6536ETHO    C150695  16.478  11.765  17.633
 6536ETHO   H1150696  16.474  11.868  17.592
 6536ETHO   H1350697  16.504  11.772  17.741
 6536ETHO    C250698  16.575  11.678  17.549
 6536ETHO   H2150699  16.654  11.748  17.516
 6536ETHO   H2350700  16.512  11.646  17.464
 6537ETHO    O150701  16.627  11.561  17.617
 6537ETHO    C150702  16.642  11.459  17.526
 6537ETHO   H1150703  16.683  11.494  17.429
 6537ETHO   H1350704  16.540  11.421  17.502
 6537ETHO    C250705  16.742  11.354  17.572
 6537ETHO   H2150706  16.821  11.397  17.636
 6537ETHO   H2350707  16.780  11.297  17.484
 6538ETHO    O150708  16.666  11.259  17.648
 6538ETHO    C150709  16.723  11.198  17.761
 6538ETHO   H1150710  16.754  11.280  17.828
 6538ETHO   H1350711  16.632  11.153  17.807
 6538ETHO    C250712  16.829  11.095  17.728
 6538ETHO   H2150713  16.926  11.137  17.694
 6538ETHO   H2350714  16.787  11.033  17.646
 6539ETHO    O150715  16.845  11.012  17.836
 6539ETHO    C150716  16.808  10.877  17.805
 6539ETHO   H1150717  16.886  10.819  17.750
 6539ETHO   H1350718  16.715  10.879  17.744
 6539ETHO    C250719  16.771  10.811  17.931
 6539ETHO   H2150720  16.703  10.725  17.916
 6539ETHO   H2350721  16.719  10.882  17.999
 6540ETHO    O150722  16.894  10.763  17.990
 6540ETHO    C150723  16.872  10.701  18.116
 6540ETHO   H1150724  16.813  10.769  18.181
 6540ETHO   H1350725  16.815  10.608  18.094
 6540ETHO    C250726  16.996  10.673  18.209
 6540ETHO   H2150727  17.075  10.620  18.151
 6540ETHO   H2350728  16.960  10.610  18.294
 6541ETHO    O150729  17.064  10.788  18.266
 6541ETHO    C150730  17.007  10.822  18.391
 6541ETHO   H1150731  17.040  10.753  18.470
 6541ETHO   H1350732  16.896  10.814  18.380
 6541ETHO    C250733  17.045  10.962  18.422
 6541ETHO   H2150734  17.002  10.995  18.519
 6541ETHO   H2350735  16.994  11.035  18.356
 6542ETHO    O150736  17.189  10.965  18.416
 6542ETHO    C150737  17.254  11.079  18.478
 6542ETHO   H1150738  17.177  11.159  18.483
 6542ETHO   H1350739  17.274  11.043  18.581
 6542ETHO    C250740  17.382  11.123  18.411
 6542ETHO   H2150741  17.417  11.204  18.478
 6542ETHO   H2350742  17.356  11.161  18.310
 6543ETHO    O150743  17.465  11.006  18.400
 6543ETHO    C150744  17.594  11.045  18.362
 6543ETHO   H1150745  17.617  11.128  18.432
 6543ETHO   H1350746  17.582  11.088  18.261
 6543ETHO    C250747  17.706  10.941  18.345
 6543ETHO   H2150748  17.786  10.970  18.273
 6543ETHO   H2350749  17.664  10.855  18.290
 6544ETHO    O150750  17.767  10.897  18.463
 6544ETHO    C150751  17.692  10.794  18.526
 6544ETHO   H1150752  17.686  10.816  18.635
 6544ETHO   H1350753  17.587  10.803  18.490
 6544ETHO    C250754  17.738  10.645  18.485
 6544ETHO   H2150755  17.748  10.647  18.374
 6544ETHO   H2350756  17.677  10.559  18.520
 6545ETHO    O150757  17.862  10.621  18.550
 6545ETHO    C150758  17.925  10.528  18.468
 6545ETHO   H1150759  17.862  10.439  18.449
 6545ETHO   H1350760  17.953  10.576  18.371
 6545ETHO    C250761  18.051  10.480  18.527
 6545ETHO   H2150762  18.098  10.396  18.472
 6545ETHO   H2350763  18.027  10.454  18.633
 6546ETHO    O150764  18.146  10.585  18.531
 6546ETHO    C150765  18.223  10.602  18.657
 6546ETHO   H1150766  18.255  10.709  18.650
 6546ETHO   H1350767  18.161  10.591  18.748
 6546ETHO    C250768  18.346  10.501  18.662
 6546ETHO   H2150769  18.308  10.408  18.710
 6546ETHO   H2350770  18.435  10.539  18.717
 6547ETHO    O150771  18.391  10.475  18.530
 6547ETHO    C150772  18.487  10.375  18.526
 6547ETHO   H1150773  18.522  10.380  18.420
 6547ETHO   H1350774  18.574  10.399  18.590
 6547ETHO    C250775  18.419  10.237  18.542
 6547ETHO   H2150776  18.479  10.165  18.484
 6547ETHO   H2350777  18.322  10.253  18.490
 6548ETHO    O150778  18.404  10.188  18.675
 6548ETHO    C150779  18.356  10.053  18.686
 6548ETHO   H1150780  18.388   9.991  18.599
 6548ETHO   H1350781  18.245  10.045  18.683
 6548ETHO    C250782  18.427   9.983  18.803
 6548ETHO   H2150783  18.345   9.915  18.836
 6548ETHO   H2350784  18.449  10.047  18.890
 6549ETHO    O150785  18.534   9.896  18.764
 6549ETHO    C150786  18.645   9.976  18.711
 6549ETHO   H1150787  18.621  10.031  18.618
 6549ETHO   H1350788  18.682  10.047  18.787
 6549ETHO    C250789  18.750   9.873  18.683
 6549ETHO   H2150790  18.840   9.913  18.631
 6549ETHO   H2350791  18.710   9.791  18.619
 6550ETHO    O150792  18.797   9.828  18.809
 6550ETHO    C150793  18.903   9.734  18.788
 6550ETHO   H1150794  18.992   9.770  18.734
 6550ETHO   H1350795  18.869   9.655  18.718
 6550ETHO    C250796  18.958   9.668  18.912
 6550ETHO   H2150797  19.011   9.738  18.980
 6550ETHO   H2350798  19.031   9.587  18.888
 6551ETHO    O150799  18.850   9.610  18.978
 6551ETHO    C150800  18.890   9.557  19.102
 6551ETHO   H1150801  18.998   9.533  19.095
 6551ETHO   H1350802  18.881   9.645  19.169
 6551ETHO    C250803  18.797   9.440  19.153
 6551ETHO   H2150804  18.778   9.368  19.070
 6551ETHO   H2350805  18.697   9.483  19.178
 6552ETHO    O150806  18.848   9.365  19.261
 6552ETHO    C150807  18.891   9.450  19.366
 6552ETHO   H1150808  18.804   9.503  19.409
 6552ETHO   H1350809  18.970   9.516  19.325
 6552ETHO    C250810  18.945   9.371  19.492
 6552ETHO   H2150811  18.868   9.296  19.520
 6552ETHO   H2350812  18.971   9.438  19.577
 6553ETHO    O150813  19.052   9.273  19.462
 6553ETHO    C150814  19.127   9.241  19.577
 6553ETHO   H1150815  19.186   9.326  19.618
 6553ETHO   H1350816  19.056   9.194  19.650
 6553ETHO    C250817  19.254   9.154  19.547
 6553ETHO   H2150818  19.306   9.163  19.645
 6553ETHO   H2350819  19.319   9.204  19.471
 6554ETHO    O150820  19.219   9.021  19.519
 6554ETHO    C150821  19.326   8.931  19.504
 6554ETHO   H1150822  19.358   8.938  19.398
 6554ETHO   H1350823  19.277   8.832  19.514
 6554ETHO    C250824  19.433   8.933  19.605
 6554ETHO   H2150825  19.502   9.019  19.593
 6554ETHO   H2350826  19.503   8.849  19.585
 6555ETHO    O150827  19.376   8.910  19.732
 6555ETHO    C150828  19.469   8.937  19.838
 6555ETHO   H1150829  19.559   8.873  19.824
 6555ETHO   H1350830  19.497   9.044  19.823
 6555ETHO    C250831  19.401   8.916  19.971
 6555ETHO   H2150832  19.323   8.996  19.968
 6555ETHO   H2350833  19.470   8.940  20.056
 6556ETHO    O150834  19.351   8.782  19.984
 6556ETHO    C150835  19.445   8.679  20.010
 6556ETHO   H1150836  19.513   8.661  19.924
 6556ETHO   H1350837  19.505   8.710  20.098
 6556ETHO    C250838  19.364   8.560  20.057
 6556ETHO   H2150839  19.272   8.603  20.102
 6556ETHO   H2350840  19.415   8.493  20.129
 6557ETHO    O150841  19.344   8.481  19.937
 6557ETHO    C150842  19.256   8.374  19.972
 6557ETHO   H1150843  19.301   8.306  20.048
 6557ETHO   H1350844  19.158   8.412  20.006
 6557ETHO    C250845  19.233   8.285  19.852
 6557ETHO   H2150846  19.187   8.189  19.884
 6557ETHO   H2350847  19.330   8.272  19.801
 6558ETHO    O150848  19.153   8.349  19.751
 6558ETHO    C150849  19.096   8.250  19.657
 6558ETHO   H1150850  19.166   8.164  19.655
 6558ETHO   H1350851  18.999   8.210  19.694
 6558ETHO    C250852  19.074   8.324  19.526
 6558ETHO   H2150853  19.031   8.263  19.445
 6558ETHO   H2350854  19.162   8.368  19.474
 6559ETHO    O150855  18.978   8.426  19.535
 6559ETHO    C150856  18.963   8.501  19.415
 6559ETHO   H1150857  18.920   8.439  19.334
 6559ETHO   H1350858  19.064   8.539  19.387
 6559ETHO    C250859  18.885   8.633  19.424
 6559ETHO   H2150860  18.920   8.712  19.355
 6559ETHO   H2350861  18.895   8.672  19.528
 6560ETHO    O150862  18.749   8.610  19.410
 6560ETHO    C150863  18.712   8.604  19.275
 6560ETHO   H1150864  18.698   8.709  19.240
 6560ETHO   H1350865  18.789   8.570  19.204
 6560ETHO    C250866  18.598   8.509  19.247
 6560ETHO   H2150867  18.618   8.406  19.285
 6560ETHO   H2350868  18.572   8.518  19.139
 6561ETHO    O150869  18.494   8.559  19.322
 6561ETHO    C150870  18.377   8.472  19.307
 6561ETHO   H1150871  18.411   8.368  19.329
 6561ETHO   H1350872  18.352   8.457  19.200
 6561ETHO    C250873  18.251   8.511  19.381
 6561ETHO   H2150874  18.279   8.531  19.486
 6561ETHO   H2350875  18.189   8.419  19.386
 6562ETHO    O150876  18.173   8.611  19.329
 6562ETHO    C150877  18.236   8.740  19.314
 6562ETHO   H1150878  18.316   8.748  19.391
 6562ETHO   H1350879  18.284   8.736  19.213
 6562ETHO    C250880  18.148   8.861  19.315
 6562ETHO   H2150881  18.214   8.949  19.331
 6562ETHO   H2350882  18.080   8.843  19.402
 6563ETHO    O150883  18.070   8.874  19.199
 6563ETHO    C150884  17.975   8.983  19.210
 6563ETHO   H1150885  17.933   8.982  19.313
 6563ETHO   H1350886  17.892   8.965  19.140
 6563ETHO    C250887  18.026   9.130  19.191
 6563ETHO   H2150888  18.104   9.156  19.265
 6563ETHO   H2350889  17.933   9.192  19.194
 6564ETHO    O150890  18.078   9.144  19.062
 6564ETHO    C150891  18.104   9.281  19.027
 6564ETHO   H1150892  18.021   9.346  19.061
 6564ETHO   H1350893  18.192   9.316  19.085
 6564ETHO    C250894  18.125   9.298  18.878
 6564ETHO   H2150895  18.180   9.208  18.845
 6564ETHO   H2350896  18.188   9.386  18.853
 6565ETHO    O150897  18.004   9.313  18.809
 6565ETHO    C150898  18.012   9.322  18.666
 6565ETHO   H1150899  17.912   9.324  18.618
 6565ETHO   H1350900  18.064   9.233  18.626
 6565ETHO    C250901  18.088   9.446  18.628
 6565ETHO   H2150902  18.050   9.536  18.679
 6565ETHO   H2350903  18.066   9.455  18.519
 6566ETHO    O150904  18.229   9.435  18.635
 6566ETHO    C150905  18.310   9.554  18.619
 6566ETHO   H1150906  18.344   9.557  18.513
 6566ETHO   H1350907  18.251   9.643  18.649
 6566ETHO    C250908  18.441   9.548  18.713
 6566ETHO   H2150909  18.491   9.646  18.723
 6566ETHO   H2350910  18.402   9.513  18.811
 6567ETHO    O150911  18.532   9.458  18.656
 6567ETHO    C150912  18.632   9.414  18.744
 6567ETHO   H1150913  18.667   9.501  18.803
 6567ETHO   H1350914  18.721   9.389  18.682
 6567ETHO    C250915  18.596   9.298  18.840
 6567ETHO   H2150916  18.692   9.257  18.878
 6567ETHO   H2350917  18.532   9.221  18.791
 6568ETHO    O150918  18.521   9.342  18.952
 6568ETHO    C150919  18.461   9.230  19.009
 6568ETHO   H1150920  18.442   9.263  19.113
 6568ETHO   H1350921  18.363   9.210  18.960
 6568ETHO    C250922  18.533   9.099  19.053
 6568ETHO   H2150923  18.460   9.053  19.123
 6568ETHO   H2350924  18.636   9.109  19.094
 6569ETHO    O150925  18.549   9.007  18.947
 6569ETHO    C150926  18.556   8.877  19.008
 6569ETHO   H1150927  18.458   8.857  19.057
 6569ETHO   H1350928  18.637   8.873  19.084
 6569ETHO    C250929  18.577   8.767  18.899
 6569ETHO   H2150930  18.500   8.775  18.819
 6569ETHO   H2350931  18.555   8.670  18.948
 6570ETHO    O150932  18.714   8.763  18.858
 6570ETHO    C150933  18.725   8.669  18.749
 6570ETHO   H1150934  18.694   8.567  18.779
 6570ETHO   H1350935  18.659   8.687  18.661
 6570ETHO    C250936  18.867   8.662  18.700
 6570ETHO   H2150937  18.919   8.759  18.683
 6570ETHO   H2350938  18.869   8.627  18.595
 6571ETHO    O150939  18.947   8.576  18.780
 6571ETHO    C150940  18.985   8.620  18.906
 6571ETHO   H1150941  19.031   8.721  18.899
 6571ETHO   H1350942  18.889   8.638  18.959
 6571ETHO    C250943  19.076   8.516  18.974
 6571ETHO   H2150944  19.113   8.555  19.070
 6571ETHO   H2350945  19.156   8.480  18.905
 6572ETHO    O150946  18.997   8.402  19.005
 6572ETHO    C150947  19.082   8.297  19.048
 6572ETHO   H1150948  19.157   8.273  18.970
 6572ETHO   H1350949  19.140   8.322  19.139
 6572ETHO    C250950  19.010   8.164  19.068
 6572ETHO   H2150951  19.082   8.080  19.056
 6572ETHO   H2350952  18.936   8.146  18.988
 6573ETHO    O150953  18.942   8.154  19.192
 6573ETHO    C150954  18.942   8.020  19.254
 6573ETHO   H1150955  18.921   7.946  19.174
 6573ETHO   H1350956  19.042   8.005  19.302
 6573ETHO    C250957  18.832   8.015  19.361
 6573ETHO   H2150958  18.851   8.107  19.421
 6573ETHO   H2350959  18.832   7.926  19.427
 6574ETHO    O150960  18.700   8.022  19.311
 6574ETHO    C150961  18.609   8.066  19.410
 6574ETHO   H1150962  18.602   8.176  19.415
 6574ETHO   H1350963  18.637   8.034  19.513
 6574ETHO    C250964  18.469   8.021  19.375
 6574ETHO   H2150965  18.394   8.030  19.457
 6574ETHO   H2350966  18.464   7.911  19.359
 6575ETHO    O150967  18.434   8.104  19.259
 6575ETHO    C150968  18.302   8.082  19.221
 6575ETHO   H1150969  18.277   7.978  19.192
 6575ETHO   H1350970  18.241   8.117  19.307
 6575ETHO    C250971  18.267   8.165  19.095
 6575ETHO   H2150972  18.268   8.273  19.124
 6575ETHO   H2350973  18.169   8.124  19.063
 6576ETHO    O150974  18.354   8.138  18.979
 6576ETHO    C150975  18.294   8.196  18.859
 6576ETHO   H1150976  18.208   8.131  18.832
 6576ETHO   H1350977  18.382   8.193  18.790
 6576ETHO    C250978  18.247   8.345  18.862
 6576ETHO   H2150979  18.237   8.381  18.758
 6576ETHO   H2350980  18.331   8.400  18.912
 6577ETHO    O150981  18.125   8.379  18.925
 6577ETHO    C150982  18.098   8.514  18.983
 6577ETHO   H1150983  18.112   8.518  19.093
 6577ETHO   H1350984  18.169   8.586  18.938
 6577ETHO    C250985  17.952   8.549  18.951
 6577ETHO   H2150986  17.894   8.469  19.002
 6577ETHO   H2350987  17.924   8.529  18.846
 6578ETHO    O150988  17.914   8.677  18.995
 6578ETHO    C150989  17.780   8.691  19.039
 6578ETHO   H1150990  17.776   8.798  19.068
 6578ETHO   H1350991  17.759   8.621  19.123
 6578ETHO    C250992  17.663   8.664  18.945
 6578ETHO   H2150993  17.569   8.641  18.998
 6578ETHO   H2350994  17.678   8.573  18.882
 6579ETHO    O150995  17.639   8.771  18.855
 6579ETHO    C150996  17.754   8.814  18.780
 6579ETHO   H1150997  17.823   8.877  18.841
 6579ETHO   H1350998  17.821   8.730  18.752
 6579ETHO    C250999  17.718   8.913  18.661
 6579ETHO   H2151000  17.813   8.964  18.637
 6579ETHO   H2351001  17.646   8.989  18.699
 6580ETHO    O151002  17.659   8.849  18.548
 6580ETHO    C151003  17.643   8.938  18.444
 6580ETHO   H1151004  17.725   8.912  18.373
 6580ETHO   H1351005  17.647   9.045  18.472
 6580ETHO    C251006  17.506   8.903  18.373
 6580ETHO   H2151007  17.488   8.796  18.396
 6580ETHO   H2351008  17.518   8.913  18.263
 6581ETHO    O151009  17.403   8.985  18.428
 6581ETHO    C151010  17.283   8.970  18.351
 6581ETHO   H1151011  17.272   8.870  18.302
 6581ETHO   H1351012  17.199   8.971  18.424
 6581ETHO    C251013  17.267   9.081  18.251
 6581ETHO   H2151014  17.184   9.066  18.178
 6581ETHO   H2351015  17.362   9.100  18.198
 6582ETHO    O151016  17.237   9.197  18.335
 6582ETHO    C151017  17.237   9.316  18.266
 6582ETHO   H1151018  17.334   9.327  18.213
 6582ETHO   H1351019  17.149   9.311  18.197
 6582ETHO    C251020  17.215   9.444  18.349
 6582ETHO   H2151021  17.125   9.437  18.414
 6582ETHO   H2351022  17.196   9.532  18.283
 6583ETHO    O151023  17.336   9.467  18.418
 6583ETHO    C151024  17.351   9.603  18.452
 6583ETHO   H1151025  17.333   9.672  18.367
 6583ETHO   H1351026  17.284   9.630  18.536
 6583ETHO    C251027  17.488   9.642  18.497
 6583ETHO   H2151028  17.499   9.753  18.494
 6583ETHO   H2351029  17.566   9.593  18.434
 6584ETHO    O151030  17.510   9.581  18.629
 6584ETHO    C151031  17.640   9.601  18.682
 6584ETHO   H1151032  17.712   9.582  18.600
 6584ETHO   H1351033  17.663   9.706  18.708
 6584ETHO    C251034  17.698   9.507  18.788
 6584ETHO   H2151035  17.808   9.512  18.800
 6584ETHO   H2351036  17.662   9.403  18.772
 6585ETHO    O151037  17.647   9.552  18.918
 6585ETHO    C151038  17.678   9.479  19.036
 6585ETHO   H1151039  17.658   9.548  19.120
 6585ETHO   H1351040  17.786   9.451  19.033
 6585ETHO    C251041  17.592   9.357  19.054
 6585ETHO   H2151042  17.618   9.277  18.980
 6585ETHO   H2351043  17.484   9.374  19.035
 6586ETHO    O151044  17.629   9.307  19.182
 6586ETHO    C151045  17.533   9.323  19.282
 6586ETHO   H1151046  17.522   9.426  19.322
 6586ETHO   H1351047  17.440   9.276  19.246
 6586ETHO    C251048  17.584   9.234  19.401
 6586ETHO   H2151049  17.591   9.133  19.356
 6586ETHO   H2351050  17.516   9.223  19.487
 6587ETHO    O151051  17.705   9.276  19.449
 6587ETHO    C151052  17.780   9.171  19.508
 6587ETHO   H1151053  17.835   9.102  19.440
 6587ETHO   H1351054  17.710   9.110  19.569
 6587ETHO    C251055  17.887   9.245  19.596
 6587ETHO   H2151056  17.920   9.183  19.682
 6587ETHO   H2351057  17.838   9.337  19.635
 6588ETHO    O151058  18.000   9.275  19.516
 6588ETHO    C151059  18.107   9.317  19.604
 6588ETHO   H1151060  18.068   9.384  19.684
 6588ETHO   H1351061  18.146   9.230  19.661
 6588ETHO    C251062  18.223   9.367  19.519
 6588ETHO   H2151063  18.296   9.425  19.579
 6588ETHO   H2351064  18.171   9.432  19.445
 6589ETHO    O151065  18.285   9.250  19.471
 6589ETHO    C151066  18.392   9.275  19.375
 6589ETHO   H1151067  18.417   9.383  19.372
 6589ETHO   H1351068  18.351   9.225  19.285
 6589ETHO    C251069  18.521   9.200  19.397
 6589ETHO   H2151070  18.563   9.241  19.491
 6589ETHO   H2351071  18.599   9.222  19.322
 6590ETHO    O151072  18.500   9.057  19.410
 6590ETHO    C151073  18.612   8.982  19.457
 6590ETHO   H1151074  18.693   8.976  19.381
 6590ETHO   H1351075  18.663   9.039  19.538
 6590ETHO    C251076  18.570   8.840  19.506
 6590ETHO   H2151077  18.654   8.780  19.548
 6590ETHO   H2351078  18.533   8.787  19.416
 6591ETHO    O151079  18.474   8.851  19.612
 6591ETHO    C151080  18.448   8.720  19.671
 6591ETHO   H1151081  18.512   8.725  19.762
 6591ETHO   H1351082  18.483   8.641  19.601
 6591ETHO    C251083  18.299   8.714  19.706
 6591ETHO   H2151084  18.249   8.757  19.617
 6591ETHO   H2351085  18.265   8.774  19.794
 6592ETHO    O151086  18.267   8.581  19.726
 6592ETHO    C151087  18.130   8.569  19.722
 6592ETHO   H1151088  18.084   8.633  19.643
 6592ETHO   H1351089  18.110   8.465  19.687
 6592ETHO    C251090  18.062   8.584  19.859
 6592ETHO   H2151091  17.954   8.595  19.836
 6592ETHO   H2351092  18.093   8.680  19.907
 6593ETHO    O151093  18.099   8.475  19.939
 6593ETHO    C151094  18.063   8.496  20.076
 6593ETHO   H1151095  18.114   8.583  20.122
 6593ETHO   H1351096  17.956   8.526  20.078
 6593ETHO    C251097  18.091   8.366  20.154
 6593ETHO   H2151098  18.054   8.276  20.100
 6593ETHO   H2351099  18.028   8.386  20.243
 6594ETHO    O151100  18.228   8.336  20.189
 6594ETHO    C151101  18.328   8.361  20.090
 6594ETHO   H1151102  18.307   8.294  20.004
 6594ETHO   H1351103  18.335   8.466  20.056
 6594ETHO    C251104  18.468   8.307  20.139
 6594ETHO   H2151105  18.497   8.364  20.230
 6594ETHO   H2351106  18.547   8.304  20.061
 6595ETHO    O151107  18.453   8.167  20.163
 6595ETHO    C151108  18.574   8.102  20.208
 6595ETHO   H1151109  18.643   8.107  20.121
 6595ETHO   H1351110  18.613   8.170  20.287
 6595ETHO    C251111  18.556   7.958  20.263
 6595ETHO   H2151112  18.466   7.946  20.326
 6595ETHO   H2351113  18.645   7.914  20.314
 6596ETHO    O151114  18.538   7.876  20.152
 6596ETHO    C151115  18.657   7.841  20.080
 6596ETHO   H1151116  18.738   7.915  20.097
 6596ETHO   H1351117  18.627   7.862  19.975
 6596ETHO    C251118  18.707   7.696  20.099
 6596ETHO   H2151119  18.768   7.678  20.008
 6596ETHO   H2351120  18.615   7.635  20.112
 6597ETHO    O151121  18.797   7.694  20.214
 6597ETHO    C151122  18.842   7.555  20.245
 6597ETHO   H1151123  18.756   7.489  20.269
 6597ETHO   H1351124  18.881   7.520  20.147
 6597ETHO    C251125  18.953   7.529  20.351
 6597ETHO   H2151126  19.034   7.598  20.318
 6597ETHO   H2351127  18.986   7.423  20.357
 6598ETHO    O151128  18.911   7.558  20.480
 6598ETHO    C151129  19.028   7.572  20.565
 6598ETHO   H1151130  19.069   7.674  20.551
 6598ETHO   H1351131  19.101   7.495  20.532
 6598ETHO    C251132  19.002   7.556  20.717
 6598ETHO   H2151133  19.097   7.550  20.773
 6598ETHO   H2351134  18.947   7.462  20.739
 6599ETHO    O151135  18.941   7.667  20.783
 6599ETHO    C151136  18.796   7.655  20.783
 6599ETHO   H1151137  18.754   7.757  20.783
 6599ETHO   H1351138  18.766   7.602  20.690
 6599ETHO    C251139  18.749   7.570  20.905
 6599ETHO   H2151140  18.648   7.528  20.883
 6599ETHO   H2351141  18.816   7.482  20.909
 6600ETHO    O151142  18.761   7.644  21.033
 6600ETHO    C151143  18.697   7.565  21.134
 6600ETHO   H1151144  18.713   7.455  21.129
 6600ETHO   H1351145  18.587   7.584  21.132
 6600ETHO    C251146  18.750   7.606  21.271
 6600ETHO   H2151147  18.686   7.576  21.357
 6600ETHO   H2351148  18.759   7.717  21.269
 6601ETHO    O151149  18.874   7.540  21.299
 6601ETHO    C151150  18.990   7.616  21.269
 6601ETHO   H1151151  18.967   7.691  21.191
 6601ETHO   H1351152  19.027   7.667  21.361
 6601ETHO    C251153  19.096   7.525  21.213
 6601ETHO   H2151154  19.103   7.436  21.279
 6601ETHO   H2351155  19.195   7.576  21.215
 6602ETHO    O151156  19.072   7.468  21.086
 6602ETHO    C151157  19.190   7.395  21.048
 6602ETHO   H1151158  19.226   7.340  21.137
 6602ETHO   H1351159  19.264   7.464  21.002
 6602ETHO    C251160  19.155   7.287  20.948
 6602ETHO   H2151161  19.244   7.225  20.924
 6602ETHO   H2351162  19.100   7.336  20.865
 6603ETHO    O151163  19.061   7.196  21.006
 6603ETHO    C151164  19.003   7.113  20.912
 6603ETHO   H1151165  18.939   7.169  20.840
 6603ETHO   H1351166  19.088   7.065  20.859
 6603ETHO    C251167  18.932   6.999  20.989
 6603ETHO   H2151168  18.852   6.962  20.922
 6603ETHO   H2351169  18.890   7.054  21.076
 6604ETHO    O151170  19.018   6.898  21.033
 6604ETHO    C151171  18.942   6.792  21.090
 6604ETHO   H1151172  18.886   6.752  21.003
 6604ETHO   H1351173  18.871   6.821  21.170
 6604ETHO    C251174  19.041   6.689  21.146
 6604ETHO   H2151175  19.134   6.679  21.085
 6604ETHO   H2351176  18.991   6.590  21.139
 6605ETHO    O151177  19.078   6.715  21.277
 6605ETHO    C151178  19.197   6.646  21.326
 6605ETHO   H1151179  19.174   6.538  21.314
 6605ETHO   H1351180  19.285   6.654  21.259
 6605ETHO    C251181  19.231   6.698  21.468
 6605ETHO   H2151182  19.303   6.626  21.512
 6605ETHO   H2351183  19.135   6.711  21.523
 6606ETHO    O151184  19.291   6.825  21.453
 6606ETHO    C151185  19.342   6.868  21.575
 6606ETHO   H1151186  19.417   6.949  21.560
 6606ETHO   H1351187  19.394   6.786  21.629
 6606ETHO    C251188  19.236   6.912  21.681
 6606ETHO   H2151189  19.294   6.922  21.776
 6606ETHO   H2351190  19.149   6.847  21.705
 6607ETHO    O151191  19.196   7.043  21.645
 6607ETHO    C151192  19.057   7.065  21.665
 6607ETHO   H1151193  18.993   6.989  21.614
 6607ETHO   H1351194  19.033   7.064  21.773
 6607ETHO    C251195  19.033   7.204  21.607
 6607ETHO   H2151196  19.096   7.223  21.518
 6607ETHO   H2351197  18.931   7.208  21.563
 6608ETHO    O151198  19.033   7.311  21.704
 6608ETHO    C151199  19.002   7.436  21.648
 6608ETHO   H1151200  19.086   7.452  21.577
 6608ETHO   H1351201  18.909   7.428  21.587
 6608ETHO    C251202  19.007   7.540  21.758
 6608ETHO   H2151203  19.070   7.513  21.845
 6608ETHO   H2351204  18.903   7.554  21.796
 6609ETHO    O151205  19.053   7.658  21.692
 6609ETHO    C151206  19.037   7.764  21.791
 6609ETHO   H1151207  18.983   7.730  21.882
 6609ETHO   H1351208  19.137   7.789  21.831
 6609ETHO    C251209  18.968   7.892  21.742
 6609ETHO   H2151210  18.944   7.956  21.830
 6609ETHO   H2351211  18.878   7.847  21.694
 6610ETHO    O151212  19.040   7.969  21.651
 6610ETHO    C151213  18.951   8.070  21.599
 6610ETHO   H1151214  18.867   8.015  21.551
 6610ETHO   H1351215  18.925   8.129  21.689
 6610ETHO    C251216  19.021   8.165  21.503
 6610ETHO   H2151217  19.108   8.219  21.547
 6610ETHO   H2351218  18.947   8.243  21.474
 6611ETHO    O151219  19.047   8.091  21.388
 6611ETHO    C151220  19.120   8.169  21.289
 6611ETHO   H1151221  19.133   8.104  21.200
 6611ETHO   H1351222  19.226   8.175  21.325
 6611ETHO    C251223  19.074   8.312  21.253
 6611ETHO   H2151224  19.117   8.340  21.154
 6611ETHO   H2351225  19.113   8.375  21.336
 6612ETHO    O151226  18.931   8.327  21.216
 6612ETHO    C151227  18.891   8.464  21.219
 6612ETHO   H1151228  18.846   8.474  21.321
 6612ETHO   H1351229  18.979   8.531  21.217
 6612ETHO    C251230  18.776   8.497  21.123
 6612ETHO   H2151231  18.831   8.481  21.027
 6612ETHO   H2351232  18.756   8.606  21.124
 6613ETHO    O151233  18.657   8.413  21.139
 6613ETHO    C151234  18.552   8.417  21.040
 6613ETHO   H1151235  18.593   8.413  20.937
 6613ETHO   H1351236  18.493   8.510  21.055
 6613ETHO    C251237  18.449   8.303  21.061
 6613ETHO   H2151238  18.376   8.316  20.979
 6613ETHO   H2351239  18.396   8.310  21.158
 6614ETHO    O151240  18.505   8.169  21.061
 6614ETHO    C151241  18.405   8.068  21.060
 6614ETHO   H1151242  18.350   8.052  21.155
 6614ETHO   H1351243  18.325   8.100  20.990
 6614ETHO    C251244  18.473   7.938  21.009
 6614ETHO   H2151245  18.397   7.858  21.007
 6614ETHO   H2351246  18.544   7.924  21.094
 6615ETHO    O151247  18.549   7.949  20.889
 6615ETHO    C151248  18.464   7.997  20.783
 6615ETHO   H1151249  18.476   8.108  20.778
 6615ETHO   H1351250  18.360   7.965  20.804
 6615ETHO    C251251  18.507   7.935  20.653
 6615ETHO   H2151252  18.612   7.968  20.641
 6615ETHO   H2351253  18.452   7.984  20.570
 6616ETHO    O151254  18.504   7.788  20.656
 6616ETHO    C151255  18.533   7.734  20.532
 6616ETHO   H1151256  18.510   7.792  20.439
 6616ETHO   H1351257  18.643   7.718  20.538
 6616ETHO    C251258  18.477   7.590  20.518
 6616ETHO   H2151259  18.498   7.540  20.420
 6616ETHO   H2351260  18.367   7.582  20.524
 6617ETHO    O151261  18.538   7.512  20.619
 6617ETHO    C151262  18.459   7.397  20.656
 6617ETHO   H1151263  18.475   7.314  20.585
 6617ETHO   H1351264  18.352   7.427  20.661
 6617ETHO    C251265  18.475   7.342  20.805
 6617ETHO   H2151266  18.392   7.271  20.829
 6617ETHO   H2351267  18.460   7.429  20.872
 6618ETHO    O151268  18.598   7.281  20.831
 6618ETHO    C151269  18.598   7.197  20.948
 6618ETHO   H1151270  18.700   7.200  20.990
 6618ETHO   H1351271  18.526   7.243  21.019
 6618ETHO    C251272  18.553   7.043  20.918
 6618ETHO   H2151273  18.445   7.043  20.891
 6618ETHO   H2351274  18.575   6.979  21.006
 6619ETHO    O151275  18.631   6.990  20.812
 6619ETHO    C151276  18.589   6.853  20.799
 6619ETHO   H1151277  18.599   6.800  20.896
 6619ETHO   H1351278  18.485   6.854  20.761
 6619ETHO    C251279  18.675   6.784  20.696
 6619ETHO   H2151280  18.670   6.823  20.592
 6619ETHO   H2351281  18.646   6.677  20.701
 6620ETHO    O151282  18.818   6.792  20.740
 6620ETHO    C151283  18.906   6.764  20.632
 6620ETHO   H1151284  18.880   6.665  20.587
 6620ETHO   H1351285  18.888   6.847  20.560
 6620ETHO    C251286  19.052   6.770  20.677
 6620ETHO   H2151287  19.063   6.722  20.777
 6620ETHO   H2351288  19.086   6.876  20.686
 6621ETHO    O151289  19.151   6.707  20.589
 6621ETHO    C151290  19.283   6.741  20.619
 6621ETHO   H1151291  19.299   6.851  20.621
 6621ETHO   H1351292  19.311   6.697  20.717
 6621ETHO    C251293  19.393   6.679  20.532
 6621ETHO   H2151294  19.494   6.726  20.532
 6621ETHO   H2351295  19.363   6.691  20.426
 6622ETHO    O151296  19.414   6.534  20.570
 6622ETHO    C151297  19.493   6.463  20.479
 6622ETHO   H1151298  19.593   6.509  20.464
 6622ETHO   H1351299  19.438   6.460  20.382
 6622ETHO    C251300  19.527   6.313  20.515
 6622ETHO   H2151301  19.539   6.262  20.417
 6622ETHO   H2351302  19.446   6.281  20.584
 6623ETHO    O151303  19.649   6.289  20.580
 6623ETHO    C151304  19.652   6.151  20.613
 6623ETHO   H1151305  19.626   6.091  20.523
 6623ETHO   H1351306  19.573   6.132  20.688
 6623ETHO    C251307  19.789   6.106  20.656
 6623ETHO   H2151308  19.797   5.997  20.679
 6623ETHO   H2351309  19.824   6.168  20.741
 6624ETHO    O151310  19.877   6.125  20.552
 6624ETHO    C151311  20.005   6.100  20.586
 6624ETHO   H1151312  20.025   6.050  20.684
 6624ETHO   H1351313  20.050   6.202  20.588
 6624ETHO    C251314  20.081   6.020  20.481
 6624ETHO   H2151315  20.191   6.026  20.493
 6624ETHO   H2351316  20.048   6.064  20.384
 6625ETHO    O151317  20.026   5.882  20.488
 6625ETHO    C151318  20.076   5.805  20.376
 6625ETHO   H1151319  20.004   5.720  20.374
 6625ETHO   H1351320  20.077   5.854  20.276
 6625ETHO    C251321  20.215   5.730  20.390
 6625ETHO   H2151322  20.210   5.652  20.310
 6625ETHO   H2351323  20.208   5.664  20.479
 6625ETHO    OZ51324  20.330   5.810  20.371
 6625ETHO   HZ151325  20.409   5.757  20.385
 6626ETHO    O151326   5.600   7.095   8.693
 6626ETHO   HO151327   5.585   7.000   8.694
 6626ETHO    C151328   5.585   7.123   8.559
 6626ETHO   H1151329   5.664   7.077   8.496
 6626ETHO   H1351330   5.594   7.233   8.543
 6626ETHO    C251331   5.447   7.087   8.510
 6626ETHO   H2151332   5.432   7.115   8.404
 6626ETHO   H2351333   5.375   7.135   8.580
 6627ETHO    O151334   5.445   6.947   8.505
 6627ETHO    C151335   5.330   6.896   8.440
 6627ETHO   H1151336   5.235   6.945   8.472
 6627ETHO   H1351337   5.353   6.916   8.334
 6627ETHO    C251338   5.319   6.742   8.445
 6627ETHO   H2151339   5.416   6.701   8.410
 6627ETHO   H2351340   5.238   6.710   8.376
 6628ETHO    O151341   5.282   6.704   8.579
 6628ETHO    C151342   5.327   6.579   8.610
 6628ETHO   H1151343   5.438   6.571   8.618
 6628ETHO   H1351344   5.281   6.503   8.543
 6628ETHO    C251345   5.278   6.559   8.752
 6628ETHO   H2151346   5.168   6.575   8.750
 6628ETHO   H2351347   5.330   6.636   8.813
 6629ETHO    O151348   5.301   6.428   8.807
 6629ETHO    C151349   5.223   6.397   8.920
 6629ETHO   H1151350   5.279   6.326   8.984
 6629ETHO   H1351351   5.207   6.484   8.988
 6629ETHO    C251352   5.088   6.352   8.882
 6629ETHO   H2151353   5.039   6.415   8.804
 6629ETHO   H2351354   5.015   6.353   8.966
 6630ETHO    O151355   5.101   6.218   8.836
 6630ETHO    C151356   5.113   6.206   8.697
 6630ETHO   H1151357   5.042   6.267   8.638
 6630ETHO   H1351358   5.215   6.231   8.661
 6630ETHO    C251359   5.082   6.053   8.659
 6630ETHO   H2151360   5.148   5.990   8.723
 6630ETHO   H2351361   5.087   6.031   8.550
 6631ETHO    O151362   4.952   6.029   8.691
 6631ETHO    C151363   4.931   5.887   8.681
 6631ETHO   H1151364   4.950   5.845   8.580
 6631ETHO   H1351365   5.001   5.831   8.747
 6631ETHO    C251366   4.787   5.845   8.713
 6631ETHO   H2151367   4.765   5.888   8.812
 6631ETHO   H2351368   4.783   5.734   8.715
 6632ETHO    O151369   4.696   5.897   8.607
 6632ETHO    C151370   4.560   5.881   8.637
 6632ETHO   H1151371   4.547   5.784   8.690
 6632ETHO   H1351372   4.523   5.969   8.693
 6632ETHO    C251373   4.479   5.873   8.500
 6632ETHO   H2151374   4.376   5.835   8.514
 6632ETHO   H2351375   4.527   5.795   8.438
 6633ETHO    O151376   4.473   6.002   8.439
 6633ETHO    C151377   4.384   6.001   8.332
 6633ETHO   H1151378   4.288   5.955   8.365
 6633ETHO   H1351379   4.426   5.939   8.250
 6633ETHO    C251380   4.334   6.127   8.276
 6633ETHO   H2151381   4.301   6.186   8.364
 6633ETHO   H2351382   4.243   6.104   8.217
 6634ETHO    O151383   4.430   6.200   8.207
 6634ETHO    C151384   4.379   6.303   8.114
 6634ETHO   H1151385   4.469   6.347   8.065
 6634ETHO   H1351386   4.328   6.249   8.031
 6634ETHO    C251387   4.282   6.412   8.169
 6634ETHO   H2151388   4.233   6.468   8.087
 6634ETHO   H2351389   4.348   6.485   8.220
 6635ETHO    O151390   4.187   6.383   8.265
 6635ETHO    C151391   4.060   6.352   8.207
 6635ETHO   H1151392   4.067   6.265   8.138
 6635ETHO   H1351393   4.026   6.432   8.137
 6635ETHO    C251394   3.955   6.326   8.320
 6635ETHO   H2151395   3.988   6.247   8.391
 6635ETHO   H2351396   3.858   6.296   8.273
 6636ETHO    O151397   3.923   6.441   8.399
 6636ETHO    C151398   3.811   6.407   8.486
 6636ETHO   H1151399   3.719   6.433   8.430
 6636ETHO   H1351400   3.799   6.298   8.507
 6636ETHO    C251401   3.822   6.485   8.617
 6636ETHO   H2151402   3.913   6.449   8.669
 6636ETHO   H2351403   3.834   6.595   8.608
 6637ETHO    O151404   3.716   6.471   8.708
 6637ETHO    C151405   3.748   6.547   8.826
 6637ETHO   H1151406   3.778   6.649   8.792
 6637ETHO   H1351407   3.838   6.504   8.875
 6637ETHO    C251408   3.640   6.554   8.929
 6637ETHO   H2151409   3.550   6.596   8.881
 6637ETHO   H2351410   3.667   6.626   9.009
 6638ETHO    O151411   3.618   6.428   8.991
 6638ETHO    C151412   3.487   6.412   9.048
 6638ETHO   H1151413   3.472   6.488   9.127
 6638ETHO   H1351414   3.406   6.427   8.973
 6638ETHO    C251415   3.475   6.271   9.103
 6638ETHO   H2151416   3.373   6.255   9.144
 6638ETHO   H2351417   3.546   6.255   9.188
 6639ETHO    O151418   3.506   6.184   8.998
 6639ETHO    C151419   3.445   6.050   9.012
 6639ETHO   H1151420   3.335   6.065   9.010
 6639ETHO   H1351421   3.484   6.000   9.103
 6639ETHO    C251422   3.473   5.961   8.889
 6639ETHO   H2151423   3.582   5.947   8.874
 6639ETHO   H2351424   3.441   6.021   8.801
 6640ETHO    O151425   3.395   5.848   8.886
 6640ETHO    C151426   3.447   5.752   8.789
 6640ETHO   H1151427   3.431   5.786   8.684
 6640ETHO   H1351428   3.556   5.735   8.798
 6640ETHO    C251429   3.378   5.614   8.816
 6640ETHO   H2151430   3.267   5.612   8.815
 6640ETHO   H2351431   3.394   5.555   8.723
 6641ETHO    O151432   3.440   5.555   8.931
 6641ETHO    C151433   3.387   5.424   8.955
 6641ETHO   H1151434   3.278   5.444   8.966
 6641ETHO   H1351435   3.399   5.360   8.866
 6641ETHO    C251436   3.428   5.354   9.091
 6641ETHO   H2151437   3.354   5.278   9.125
 6641ETHO   H2351438   3.442   5.419   9.180
 6642ETHO    O151439   3.555   5.287   9.066
 6642ETHO    C151440   3.660   5.382   9.065
 6642ETHO   H1151441   3.637   5.477   9.012
 6642ETHO   H1351442   3.679   5.413   9.170
 6642ETHO    C251443   3.803   5.322   9.020
 6642ETHO   H2151444   3.817   5.352   8.914
 6642ETHO   H2351445   3.787   5.212   9.024
 6643ETHO    O151446   3.911   5.374   9.101
 6643ETHO    C151447   4.024   5.300   9.071
 6643ETHO   H1151448   3.992   5.198   9.042
 6643ETHO   H1351449   4.079   5.345   8.985
 6643ETHO    C251450   4.115   5.296   9.200
 6643ETHO   H2151451   4.120   5.400   9.238
 6643ETHO   H2351452   4.218   5.269   9.170
 6644ETHO    O151453   4.057   5.213   9.300
 6644ETHO    C151454   4.132   5.098   9.356
 6644ETHO   H1151455   4.238   5.129   9.363
 6644ETHO   H1351456   4.137   5.012   9.285
 6644ETHO    C251457   4.085   5.041   9.493
 6644ETHO   H2151458   4.090   5.113   9.577
 6644ETHO   H2351459   4.151   4.955   9.520
 6645ETHO    O151460   3.946   4.995   9.483
 6645ETHO    C151461   3.895   4.941   9.601
 6645ETHO   H1151462   3.921   4.834   9.614
 6645ETHO   H1351463   3.942   5.001   9.683
 6645ETHO    C251464   3.746   4.954   9.609
 6645ETHO   H2151465   3.712   4.886   9.690
 6645ETHO   H2351466   3.701   4.917   9.515
 6646ETHO    O151467   3.710   5.089   9.630
 6646ETHO    C151468   3.635   5.103   9.753
 6646ETHO   H1151469   3.684   5.051   9.839
 6646ETHO   H1351470   3.539   5.049   9.741
 6646ETHO    C251471   3.613   5.253   9.798
 6646ETHO   H2151472   3.532   5.249   9.874
 6646ETHO   H2351473   3.578   5.325   9.721
 6647ETHO    O151474   3.734   5.303   9.863
 6647ETHO    C151475   3.704   5.407   9.951
 6647ETHO   H1151476   3.653   5.477   9.881
 6647ETHO   H1351477   3.646   5.361  10.034
 6647ETHO    C251478   3.836   5.454  10.006
 6647ETHO   H2151479   3.806   5.531  10.080
 6647ETHO   H2351480   3.879   5.365  10.058
 6648ETHO    O151481   3.920   5.503   9.905
 6648ETHO    C151482   4.031   5.573   9.942
 6648ETHO   H1151483   4.105   5.555   9.861
 6648ETHO   H1351484   4.068   5.512  10.027
 6648ETHO    C251485   4.003   5.722   9.969
 6648ETHO   H2151486   3.919   5.737  10.039
 6648ETHO   H2351487   3.981   5.768   9.870
 6649ETHO    O151488   4.119   5.792  10.025
 6649ETHO    C151489   4.103   5.935  10.022
 6649ETHO   H1151490   4.092   5.968   9.917
 6649ETHO   H1351491   4.009   5.962  10.075
 6649ETHO    C251492   4.212   6.005  10.100
 6649ETHO   H2151493   4.303   5.942  10.100
 6649ETHO   H2351494   4.177   6.015  10.205
 6650ETHO    O151495   4.248   6.129  10.047
 6650ETHO    C151496   4.167   6.242  10.078
 6650ETHO   H1151497   4.148   6.237  10.188
 6650ETHO   H1351498   4.068   6.221  10.031
 6650ETHO    C251499   4.218   6.375  10.042
 6650ETHO   H2151500   4.140   6.452  10.026
 6650ETHO   H2351501   4.285   6.379   9.954
 6651ETHO    O151502   4.309   6.409  10.145
 6651ETHO    C151503   4.448   6.395  10.128
 6651ETHO   H1151504   4.476   6.289  10.110
 6651ETHO   H1351505   4.481   6.456  10.042
 6651ETHO    C251506   4.526   6.451  10.251
 6651ETHO   H2151507   4.632   6.418  10.244
 6651ETHO   H2351508   4.484   6.413  10.346
 6652ETHO    O151509   4.513   6.599  10.270
 6652ETHO    C151510   4.601   6.637  10.380
 6652ETHO   H1151511   4.702   6.650  10.336
 6652ETHO   H1351512   4.585   6.562  10.460
 6652ETHO    C251513   4.549   6.778  10.411
 6652ETHO   H2151514   4.505   6.817  10.317
 6652ETHO   H2351515   4.635   6.843  10.438
 6653ETHO    O151516   4.446   6.778  10.514
 6653ETHO    C151517   4.402   6.912  10.532
 6653ETHO   H1151518   4.397   6.953  10.429
 6653ETHO   H1351519   4.299   6.922  10.571
 6653ETHO    C251520   4.500   7.004  10.601
 6653ETHO   H2151521   4.456   7.106  10.593
 6653ETHO   H2351522   4.608   6.992  10.580
 6654ETHO    O151523   4.487   6.962  10.738
 6654ETHO    C151524   4.566   7.039  10.826
 6654ETHO   H1151525   4.503   7.126  10.858
 6654ETHO   H1351526   4.657   7.078  10.775
 6654ETHO    C251527   4.621   6.978  10.958
 6654ETHO   H2151528   4.543   6.916  11.008
 6654ETHO   H2351529   4.652   7.064  11.021
 6655ETHO    O151530   4.728   6.891  10.938
 6655ETHO    C151531   4.789   6.848  11.061
 6655ETHO   H1151532   4.896   6.819  11.049
 6655ETHO   H1351533   4.778   6.928  11.137
 6655ETHO    C251534   4.719   6.735  11.138
 6655ETHO   H2151535   4.611   6.758  11.145
 6655ETHO   H2351536   4.757   6.728  11.242
 6656ETHO    O151537   4.747   6.604  11.078
 6656ETHO    C151538   4.646   6.508  11.111
 6656ETHO   H1151539   4.661   6.499  11.221
 6656ETHO   H1351540   4.546   6.549  11.086
 6656ETHO    C251541   4.680   6.373  11.050
 6656ETHO   H2151542   4.763   6.314  11.093
 6656ETHO   H2351543   4.724   6.388  10.949
 6657ETHO    O151544   4.560   6.298  11.036
 6657ETHO    C151545   4.587   6.174  10.966
 6657ETHO   H1151546   4.640   6.198  10.871
 6657ETHO   H1351547   4.670   6.127  11.023
 6657ETHO    C251548   4.455   6.090  10.947
 6657ETHO   H2151549   4.478   5.999  10.888
 6657ETHO   H2351550   4.385   6.148  10.882
 6658ETHO    O151551   4.403   6.050  11.068
 6658ETHO    C151552   4.305   5.944  11.060
 6658ETHO   H1151553   4.265   5.929  11.162
 6658ETHO   H1351554   4.212   5.969  11.005
 6658ETHO    C251555   4.349   5.803  11.000
 6658ETHO   H2151556   4.281   5.722  11.034
 6658ETHO   H2351557   4.449   5.773  11.037
 6659ETHO    O151558   4.354   5.796  10.855
 6659ETHO    C151559   4.233   5.812  10.789
 6659ETHO   H1151560   4.223   5.922  10.779
 6659ETHO   H1351561   4.145   5.791  10.854
 6659ETHO    C251562   4.230   5.741  10.660
 6659ETHO   H2151563   4.334   5.727  10.624
 6659ETHO   H2351564   4.189   5.799  10.575
 6660ETHO    O151565   4.163   5.616  10.679
 6660ETHO    C151566   4.229   5.506  10.616
 6660ETHO   H1151567   4.336   5.500  10.644
 6660ETHO   H1351568   4.174   5.422  10.664
 6660ETHO    C251569   4.219   5.507  10.463
 6660ETHO   H2151570   4.121   5.550  10.431
 6660ETHO   H2351571   4.213   5.403  10.425
 6661ETHO    O151572   4.323   5.574  10.389
 6661ETHO    C151573   4.269   5.627  10.271
 6661ETHO   H1151574   4.218   5.724  10.290
 6661ETHO   H1351575   4.208   5.557  10.211
 6661ETHO    C251576   4.381   5.661  10.185
 6661ETHO   H2151577   4.343   5.698  10.088
 6661ETHO   H2351578   4.447   5.574  10.163
 6662ETHO    O151579   4.467   5.757  10.242
 6662ETHO    C151580   4.562   5.799  10.148
 6662ETHO   H1151581   4.640   5.725  10.119
 6662ETHO   H1351582   4.517   5.827  10.050
 6662ETHO    C251583   4.637   5.924  10.199
 6662ETHO   H2151584   4.694   5.904  10.292
 6662ETHO   H2351585   4.560   5.998  10.228
 6663ETHO    O151586   4.730   5.967  10.097
 6663ETHO    C151587   4.715   6.112  10.084
 6663ETHO   H1151588   4.709   6.155  10.187
 6663ETHO   H1351589   4.623   6.132  10.025
 6663ETHO    C251590   4.830   6.177  10.008
 6663ETHO   H2151591   4.805   6.285  10.008
 6663ETHO   H2351592   4.837   6.118   9.914
 6664ETHO    O151593   4.944   6.183  10.085
 6664ETHO    C151594   5.051   6.267  10.040
 6664ETHO   H1151595   5.096   6.214   9.954
 6664ETHO   H1351596   5.005   6.356   9.993
 6664ETHO    C251597   5.144   6.307  10.157
 6664ETHO   H2151598   5.243   6.347  10.126
 6664ETHO   H2351599   5.170   6.219  10.221
 6665ETHO    O151600   5.079   6.405  10.242
 6665ETHO    C151601   5.168   6.447  10.350
 6665ETHO   H1151602   5.250   6.502  10.299
 6665ETHO   H1351603   5.207   6.359  10.406
 6665ETHO    C251604   5.096   6.543  10.453
 6665ETHO   H2151605   5.027   6.618  10.409
 6665ETHO   H2351606   5.178   6.604  10.498
 6666ETHO    O151607   5.037   6.473  10.557
 6666ETHO    C151608   4.976   6.568  10.645
 6666ETHO   H1151609   5.027   6.666  10.635
 6666ETHO   H1351610   4.870   6.584  10.614
 6666ETHO    C251611   4.988   6.525  10.789
 6666ETHO   H2151612   4.952   6.421  10.801
 6666ETHO   H2351613   4.915   6.584  10.849
 6667ETHO    O151614   5.114   6.536  10.833
 6667ETHO    C151615   5.137   6.517  10.970
 6667ETHO   H1151616   5.229   6.574  10.996
 6667ETHO   H1351617   5.049   6.557  11.024
 6667ETHO    C251618   5.154   6.367  11.019
 6667ETHO   H2151619   5.163   6.374  11.130
 6667ETHO   H2351620   5.247   6.329  10.972
 6668ETHO    O151621   5.052   6.282  10.977
 6668ETHO    C151622   5.054   6.153  11.034
 6668ETHO   H1151623   5.156   6.110  11.034
 6668ETHO   H1351624   5.021   6.169  11.139
 6668ETHO    C251625   4.950   6.077  10.948
 6668ETHO   H2151626   4.857   6.137  10.949
 6668ETHO   H2351627   4.921   5.985  11.002
 6669ETHO    O151628   4.998   6.045  10.815
 6669ETHO    C151629   4.895   5.989  10.733
 6669ETHO   H1151630   4.939   5.915  10.663
 6669ETHO   H1351631   4.820   5.937  10.796
 6669ETHO    C251632   4.845   6.109  10.655
 6669ETHO   H2151633   4.910   6.128  10.567
 6669ETHO   H2351634   4.833   6.199  10.718
 6670ETHO    O151635   4.714   6.076  10.603
 6670ETHO    C151636   4.652   6.182  10.536
 6670ETHO   H1151637   4.660   6.166  10.426
 6670ETHO   H1351638   4.689   6.283  10.565
 6670ETHO    C251639   4.506   6.185  10.570
 6670ETHO   H2151640   4.472   6.277  10.517
 6670ETHO   H2351641   4.483   6.193  10.678
 6671ETHO    O151642   4.426   6.083  10.507
 6671ETHO    C151643   4.291   6.083  10.538
 6671ETHO   H1151644   4.246   5.994  10.490
 6671ETHO   H1351645   4.280   6.087  10.649
 6671ETHO    C251646   4.206   6.206  10.483
 6671ETHO   H2151647   4.098   6.185  10.493
 6671ETHO   H2351648   4.232   6.219  10.376
 6672ETHO    O151649   4.235   6.324  10.559
 6672ETHO    C151650   4.177   6.439  10.498
 6672ETHO   H1151651   4.068   6.424  10.480
 6672ETHO   H1351652   4.230   6.456  10.402
 6672ETHO    C251653   4.193   6.560  10.588
 6672ETHO   H2151654   4.144   6.648  10.540
 6672ETHO   H2351655   4.301   6.582  10.604
 6673ETHO    O151656   4.132   6.563  10.718
 6673ETHO    C151657   4.116   6.699  10.771
 6673ETHO   H1151658   4.207   6.756  10.743
 6673ETHO   H1351659   4.016   6.735  10.738
 6673ETHO    C251660   4.097   6.700  10.923
 6673ETHO   H2151661   4.066   6.802  10.953
 6673ETHO   H2351662   4.012   6.635  10.952
 6674ETHO    O151663   4.216   6.666  10.990
 6674ETHO    C151664   4.306   6.780  11.002
 6674ETHO   H1151665   4.309   6.833  10.905
 6674ETHO   H1351666   4.406   6.738  11.024
 6674ETHO    C251667   4.277   6.896  11.099
 6674ETHO   H2151668   4.369   6.951  11.129
 6674ETHO   H2351669   4.227   6.858  11.190
 6675ETHO    O151670   4.178   6.984  11.051
 6675ETHO    C151671   4.221   7.127  11.071
 6675ETHO   H1151672   4.192   7.150  11.176
 6675ETHO   H1351673   4.324   7.154  11.041
 6675ETHO    C251674   4.123   7.212  10.988
 6675ETHO   H2151675   4.131   7.315  11.028
 6675ETHO   H2351676   4.022   7.170  11.007
 6676ETHO    O151677   4.149   7.219  10.850
 6676ETHO    C151678   4.082   7.118  10.779
 6676ETHO   H1151679   3.976   7.120  10.813
 6676ETHO   H1351680   4.126   7.017  10.794
 6676ETHO    C251681   4.075   7.144  10.627
 6676ETHO   H2151682   4.025   7.057  10.580
 6676ETHO   H2351683   4.175   7.150  10.579
 6677ETHO    O151684   3.994   7.261  10.601
 6677ETHO    C151685   3.968   7.289  10.461
 6677ETHO   H1151686   3.889   7.218  10.428
 6677ETHO   H1351687   3.909   7.383  10.456
 6677ETHO    C251688   4.093   7.298  10.369
 6677ETHO   H2151689   4.181   7.337  10.422
 6677ETHO   H2351690   4.075   7.372  10.288
 6678ETHO    O151691   4.133   7.174  10.311
 6678ETHO    C151692   4.049   7.136  10.209
 6678ETHO   H1151693   3.962   7.083  10.254
 6678ETHO   H1351694   4.015   7.216  10.140
 6678ETHO    C251695   4.117   7.032  10.122
 6678ETHO   H2151696   4.045   6.958  10.080
 6678ETHO   H2351697   4.188   6.971  10.183
 6679ETHO    O151698   4.178   7.096  10.011
 6679ETHO    C151699   4.251   7.006   9.927
 6679ETHO   H1151700   4.336   6.963   9.984
 6679ETHO   H1351701   4.171   6.931   9.906
 6679ETHO    C251702   4.292   7.082   9.795
 6679ETHO   H2151703   4.376   7.149   9.823
 6679ETHO   H2351704   4.207   7.147   9.768
 6680ETHO    O151705   4.304   6.986   9.695
 6680ETHO    C151706   4.333   7.040   9.563
 6680ETHO   H1151707   4.252   7.097   9.511
 6680ETHO   H1351708   4.416   7.112   9.573
 6680ETHO    C251709   4.375   6.933   9.462
 6680ETHO   H2151710   4.393   6.983   9.364
 6680ETHO   H2351711   4.467   6.880   9.494
 6681ETHO    O151712   4.275   6.835   9.441
 6681ETHO    C151713   4.279   6.782   9.312
 6681ETHO   H1151714   4.384   6.750   9.293
 6681ETHO   H1351715   4.263   6.864   9.238
 6681ETHO    C251716   4.183   6.664   9.308
 6681ETHO   H2151717   4.214   6.585   9.379
 6681ETHO   H2351718   4.197   6.612   9.211
 6682ETHO    O151719   4.043   6.694   9.328
 6682ETHO    C151720   3.965   6.579   9.293
 6682ETHO   H1151721   3.998   6.536   9.196
 6682ETHO   H1351722   3.982   6.505   9.375
 6682ETHO    C251723   3.818   6.618   9.283
 6682ETHO   H2151724   3.762   6.547   9.219
 6682ETHO   H2351725   3.807   6.712   9.225
 6683ETHO    O151726   3.756   6.616   9.416
 6683ETHO    C151727   3.633   6.683   9.413
 6683ETHO   H1151728   3.570   6.620   9.347
 6683ETHO   H1351729   3.655   6.786   9.378
 6683ETHO    C251730   3.567   6.683   9.555
 6683ETHO   H2151731   3.648   6.713   9.626
 6683ETHO   H2351732   3.541   6.579   9.584
 6684ETHO    O151733   3.458   6.767   9.565
 6684ETHO    C151734   3.381   6.743   9.681
 6684ETHO   H1151735   3.374   6.633   9.698
 6684ETHO   H1351736   3.431   6.787   9.770
 6684ETHO    C251737   3.236   6.793   9.660
 6684ETHO   H2151738   3.203   6.738   9.569
 6684ETHO   H2351739   3.225   6.902   9.643
 6685ETHO    O151740   3.154   6.753   9.765
 6685ETHO    C151741   3.022   6.812   9.750
 6685ETHO   H1151742   2.963   6.772   9.665
 6685ETHO   H1351743   3.023   6.922   9.737
 6685ETHO    C251744   2.945   6.793   9.882
 6685ETHO   H2151745   2.850   6.849   9.879
 6685ETHO   H2351746   3.002   6.838   9.966
 6686ETHO    O151747   2.906   6.657   9.902
 6686ETHO    C151748   2.850   6.636  10.039
 6686ETHO   H1151749   2.909   6.681  10.122
 6686ETHO   H1351750   2.749   6.682  10.036
 6686ETHO    C251751   2.858   6.486  10.078
 6686ETHO   H2151752   2.831   6.429   9.987
 6686ETHO   H2351753   2.784   6.466  10.159
 6687ETHO    O151754   2.985   6.446  10.127
 6687ETHO    C151755   2.982   6.304  10.154
 6687ETHO   H1151756   2.935   6.241  10.076
 6687ETHO   H1351757   2.943   6.290  10.257
 6687ETHO    C251758   3.130   6.253  10.163
 6687ETHO   H2151759   3.175   6.263  10.062
 6687ETHO   H2351760   3.115   6.144  10.172
 6688ETHO    O151761   3.198   6.323  10.266
 6688ETHO    C151762   3.337   6.298  10.259
 6688ETHO   H1151763   3.353   6.188  10.257
 6688ETHO   H1351764   3.369   6.339  10.161
 6688ETHO    C251765   3.427   6.354  10.372
 6688ETHO   H2151766   3.535   6.333  10.385
 6688ETHO   H2351767   3.383   6.328  10.471
 6689ETHO    O151768   3.424   6.499  10.363
 6689ETHO    C151769   3.511   6.556  10.269
 6689ETHO   H1151770   3.479   6.534  10.165
 6689ETHO   H1351771   3.612   6.508  10.269
 6689ETHO    C251772   3.512   6.710  10.290
 6689ETHO   H2151773   3.409   6.736  10.323
 6689ETHO   H2351774   3.535   6.773  10.202
 6690ETHO    O151775   3.610   6.733  10.393
 6690ETHO    C151776   3.606   6.865  10.435
 6690ETHO   H1151777   3.647   6.932  10.356
 6690ETHO   H1351778   3.501   6.899  10.438
 6690ETHO    C251779   3.664   6.889  10.573
 6690ETHO   H2151780   3.668   6.999  10.592
 6690ETHO   H2351781   3.771   6.862  10.582
 6691ETHO    O151782   3.587   6.828  10.677
 6691ETHO    C151783   3.524   6.917  10.764
 6691ETHO   H1151784   3.443   6.968  10.706
 6691ETHO   H1351785   3.601   6.990  10.796
 6691ETHO    C251786   3.467   6.853  10.892
 6691ETHO   H2151787   3.420   6.757  10.861
 6691ETHO   H2351788   3.390   6.923  10.931
 6692ETHO    O151789   3.565   6.831  10.990
 6692ETHO    C151790   3.646   6.718  10.949
 6692ETHO   H1151791   3.577   6.632  10.959
 6692ETHO   H1351792   3.688   6.738  10.848
 6692ETHO    C251793   3.767   6.685  11.036
 6692ETHO   H2151794   3.836   6.771  11.024
 6692ETHO   H2351795   3.799   6.586  10.997
 6693ETHO    O151796   3.716   6.678  11.166
 6693ETHO    C151797   3.809   6.688  11.276
 6693ETHO   H1151798   3.894   6.618  11.257
 6693ETHO   H1351799   3.861   6.785  11.288
 6693ETHO    C251800   3.735   6.669  11.406
 6693ETHO   H2151801   3.684   6.571  11.413
 6693ETHO   H2351802   3.641   6.728  11.411
 6694ETHO    O151803   3.815   6.699  11.531
 6694ETHO    C151804   3.908   6.596  11.558
 6694ETHO   H1151805   3.853   6.499  11.564
 6694ETHO   H1351806   3.968   6.573  11.468
 6694ETHO    C251807   3.994   6.638  11.679
 6694ETHO   H2151808   4.035   6.741  11.665
 6694ETHO   H2351809   4.077   6.569  11.704
 6695ETHO    O151810   3.932   6.645  11.806
 6695ETHO    C151811   4.019   6.677  11.914
 6695ETHO   H1151812   4.067   6.579  11.937
 6695ETHO   H1351813   4.097   6.749  11.879
 6695ETHO    C251814   3.958   6.731  12.042
 6695ETHO   H2151815   4.030   6.732  12.127
 6695ETHO   H2351816   3.869   6.676  12.081
 6696ETHO    O151817   3.931   6.858  12.019
 6696ETHO    C151818   3.881   6.933  12.135
 6696ETHO   H1151819   3.939   6.928  12.230
 6696ETHO   H1351820   3.781   6.893  12.163
 6696ETHO    C251821   3.854   7.082  12.096
 6696ETHO   H2151822   3.938   7.106  12.028
 6696ETHO   H2351823   3.855   7.137  12.192
 6697ETHO    O151824   3.728   7.111  12.034
 6697ETHO    C151825   3.691   7.244  12.047
 6697ETHO   H1151826   3.682   7.265  12.156
 6697ETHO   H1351827   3.776   7.304  12.007
 6697ETHO    C251828   3.565   7.297  11.973
 6697ETHO   H2151829   3.528   7.390  12.020
 6697ETHO   H2351830   3.485   7.222  11.992
 6698ETHO    O151831   3.595   7.333  11.837
 6698ETHO    C151832   3.477   7.380  11.777
 6698ETHO   H1151833   3.433   7.457  11.844
 6698ETHO   H1351834   3.414   7.289  11.763
 6698ETHO    C251835   3.517   7.452  11.649
 6698ETHO   H2151836   3.578   7.543  11.662
 6698ETHO   H2351837   3.424   7.491  11.603
 6699ETHO    O151838   3.569   7.362  11.553
 6699ETHO    C151839   3.467   7.268  11.520
 6699ETHO   H1151840   3.450   7.185  11.593
 6699ETHO   H1351841   3.366   7.314  11.516
 6699ETHO    C251842   3.485   7.192  11.389
 6699ETHO   H2151843   3.479   7.262  11.302
 6699ETHO   H2351844   3.406   7.116  11.370
 6700ETHO    O151845   3.613   7.119  11.379
 6700ETHO    C151846   3.626   7.048  11.255
 6700ETHO   H1151847   3.527   7.028  11.207
 6700ETHO   H1351848   3.674   6.951  11.280
 6700ETHO    C251849   3.729   7.117  11.154
 6700ETHO   H2151850   3.737   7.062  11.058
 6700ETHO   H2351851   3.830   7.124  11.201
 6701ETHO    O151852   3.682   7.253  11.116
 6701ETHO    C151853   3.601   7.250  10.995
 6701ETHO   H1151854   3.660   7.232  10.903
 6701ETHO   H1351855   3.528   7.168  11.011
 6701ETHO    C251856   3.529   7.384  10.970
 6701ETHO   H2151857   3.487   7.426  11.064
 6701ETHO   H2351858   3.446   7.367  10.899
 6702ETHO    O151859   3.624   7.471  10.907
 6702ETHO    C151860   3.738   7.499  10.988
 6702ETHO   H1151861   3.817   7.423  10.968
 6702ETHO   H1351862   3.716   7.491  11.097
 6702ETHO    C251863   3.790   7.636  10.951
 6702ETHO   H2151864   3.878   7.671  11.010
 6702ETHO   H2351865   3.716   7.718  10.957
 6703ETHO    O151866   3.825   7.638  10.816
 6703ETHO    C151867   3.929   7.555  10.773
 6703ETHO   H1151868   3.998   7.539  10.859
 6703ETHO   H1351869   3.889   7.452  10.761
 6703ETHO    C251870   3.991   7.586  10.635
 6703ETHO   H2151871   3.913   7.569  10.558
 6703ETHO   H2351872   4.077   7.519  10.616
 6704ETHO    O151873   4.029   7.722  10.644
 6704ETHO    C151874   4.079   7.768  10.517
 6704ETHO   H1151875   4.169   7.711  10.486
 6704ETHO   H1351876   4.003   7.748  10.439
 6704ETHO    C251877   4.107   7.917  10.533
 6704ETHO   H2151878   4.035   7.957  10.607
 6704ETHO   H2351879   4.091   7.965  10.434
 6705ETHO    O151880   4.241   7.947  10.573
 6705ETHO    C151881   4.244   8.080  10.633
 6705ETHO   H1151882   4.177   8.139  10.566
 6705ETHO   H1351883   4.207   8.069  10.737
 6705ETHO    C251884   4.392   8.123  10.639
 6705ETHO   H2151885   4.449   8.063  10.713
 6705ETHO   H2351886   4.395   8.226  10.680
 6706ETHO    O151887   4.444   8.106  10.510
 6706ETHO    C151888   4.565   8.184  10.512
 6706ETHO   H1151889   4.599   8.215  10.410
 6706ETHO   H1351890   4.551   8.281  10.564
 6706ETHO    C251891   4.684   8.116  10.581
 6706ETHO   H2151892   4.728   8.198  10.641
 6706ETHO   H2351893   4.646   8.030  10.641
 6707ETHO    O151894   4.767   8.056  10.489
 6707ETHO    C151895   4.877   8.000  10.553
 6707ETHO   H1151896   4.905   7.896  10.523
 6707ETHO   H1351897   4.847   7.978  10.657
 6707ETHO    C251898   4.993   8.089  10.558
 6707ETHO   H2151899   5.078   8.042  10.612
 6707ETHO   H2351900   4.980   8.193  10.595
 6708ETHO    O151901   5.044   8.100  10.425
 6708ETHO    C151902   5.156   8.180  10.419
 6708ETHO   H1151903   5.122   8.283  10.443
 6708ETHO   H1351904   5.238   8.141  10.484
 6708ETHO    C251905   5.208   8.184  10.269
 6708ETHO   H2151906   5.134   8.248  10.216
 6708ETHO   H2351907   5.198   8.078  10.238
 6709ETHO    O151908   5.343   8.222  10.246
 6709ETHO    C151909   5.385   8.180  10.111
 6709ETHO   H1151910   5.325   8.231  10.033
 6709ETHO   H1351911   5.376   8.071  10.091
 6709ETHO    C251912   5.532   8.228  10.096
 6709ETHO   H2151913   5.540   8.321  10.157
 6709ETHO   H2351914   5.555   8.236   9.988
 6710ETHO    O151915   5.626   8.126  10.146
 6710ETHO    C151916   5.756   8.160  10.099
 6710ETHO   H1151917   5.780   8.130   9.995
 6710ETHO   H1351918   5.775   8.270  10.095
 6710ETHO    C251919   5.852   8.099  10.197
 6710ETHO   H2151920   5.954   8.099  10.154
 6710ETHO   H2351921   5.821   7.992  10.196
 6711ETHO    O151922   5.844   8.154  10.331
 6711ETHO    C151923   5.968   8.131  10.394
 6711ETHO   H1151924   6.052   8.180  10.340
 6711ETHO   H1351925   5.989   8.022  10.401
 6711ETHO    C251926   5.968   8.191  10.532
 6711ETHO   H2151927   6.049   8.148  10.595
 6711ETHO   H2351928   5.871   8.171  10.582
 6712ETHO    O151929   5.998   8.329  10.519
 6712ETHO    C151930   6.001   8.393  10.644
 6712ETHO   H1151931   5.893   8.392  10.673
 6712ETHO   H1351932   6.053   8.322  10.712
 6712ETHO    C251933   6.070   8.529  10.632
 6712ETHO   H2151934   6.047   8.596  10.718
 6712ETHO   H2351935   6.033   8.579  10.541
 6713ETHO    O151936   6.212   8.509  10.628
 6713ETHO    C151937   6.277   8.616  10.697
 6713ETHO   H1151938   6.247   8.607  10.804
 6713ETHO   H1351939   6.257   8.715  10.650
 6713ETHO    C251940   6.432   8.603  10.691
 6713ETHO   H2151941   6.467   8.499  10.710
 6713ETHO   H2351942   6.473   8.665  10.773
 6714ETHO    O151943   6.495   8.641  10.568
 6714ETHO    C151944   6.635   8.602  10.560
 6714ETHO   H1151945   6.692   8.605  10.655
 6714ETHO   H1351946   6.647   8.499  10.519
 6714ETHO    C251947   6.696   8.709  10.463
 6714ETHO   H2151948   6.645   8.719  10.365
 6714ETHO   H2351949   6.794   8.663  10.438
 6715ETHO    O151950   6.714   8.835  10.527
 6715ETHO    C151951   6.808   8.914  10.457
 6715ETHO   H1151952   6.895   8.850  10.431
 6715ETHO   H1351953   6.757   8.948  10.364
 6715ETHO    C251954   6.861   9.044  10.519
 6715ETHO   H2151955   6.795   9.082  10.599
 6715ETHO   H2351956   6.860   9.128  10.445
 6716ETHO    O151957   6.991   9.042  10.582
 6716ETHO    C151958   7.001   8.932  10.679
 6716ETHO   H1151959   6.919   8.943  10.753
 6716ETHO   H1351960   7.003   8.838  10.619
 6716ETHO    C251961   7.132   8.943  10.753
 6716ETHO   H2151962   7.136   8.884  10.847
 6716ETHO   H2351963   7.142   9.051  10.779
 6717ETHO    O151964   7.243   8.907  10.675
 6717ETHO    C151965   7.365   8.945  10.739
 6717ETHO   H1151966   7.371   9.054  10.758
 6717ETHO   H1351967   7.368   8.892  10.837
 6717ETHO    C251968   7.492   8.923  10.660
 6717ETHO   H2151969   7.495   8.814  10.640
 6717ETHO   H2351970   7.580   8.936  10.727
 6718ETHO    O151971   7.499   8.990  10.538
 6718ETHO    C151972   7.616   8.955  10.455
 6718ETHO   H1151973   7.607   8.856  10.405
 6718ETHO   H1351974   7.705   8.942  10.521
 6718ETHO    C251975   7.651   9.062  10.342
 6718ETHO   H2151976   7.565   9.095  10.280
 6718ETHO   H2351977   7.719   9.016  10.267
 6719ETHO    O151978   7.712   9.177  10.391
 6719ETHO    C151979   7.782   9.242  10.292
 6719ETHO   H1151980   7.876   9.187  10.271
 6719ETHO   H1351981   7.720   9.246  10.200
 6719ETHO    C251982   7.831   9.387  10.328
 6719ETHO   H2151983   7.736   9.439  10.355
 6719ETHO   H2351984   7.880   9.431  10.239
 6720ETHO    O151985   7.910   9.373  10.442
 6720ETHO    C151986   7.945   9.502  10.494
 6720ETHO   H1151987   7.850   9.558  10.484
 6720ETHO   H1351988   8.019   9.553  10.429
 6720ETHO    C251989   7.987   9.508  10.639
 6720ETHO   H2151990   7.931   9.427  10.691
 6720ETHO   H2351991   7.966   9.603  10.692
 6721ETHO    O151992   8.128   9.487  10.654
 6721ETHO    C151993   8.174   9.507  10.792
 6721ETHO   H1151994   8.121   9.590  10.844
 6721ETHO   H1351995   8.132   9.431  10.861
 6721ETHO    C251996   8.322   9.524  10.815
 6721ETHO   H2151997   8.355   9.440  10.751
 6721ETHO   H2351998   8.354   9.526  10.921
 6722ETHO    O151999   8.366   9.646  10.763
 6722ETHO    C152000   8.513   9.643  10.766
 6722ETHO   H1152001   8.541   9.571  10.687
 6722ETHO   H1352002   8.548   9.601  10.863
 6722ETHO    C252003   8.577   9.781  10.733
 6722ETHO   H2152004   8.558   9.871  10.794
 6722ETHO   H2352005   8.559   9.808  10.627
 6723ETHO    O152006   8.716   9.761  10.750
 6723ETHO    C152007   8.787   9.876  10.706
 6723ETHO   H1152008   8.764   9.895  10.599
 6723ETHO   H1352009   8.748   9.971  10.749
 6723ETHO    C252010   8.948   9.876  10.735
 6723ETHO   H2152011   8.970   9.985  10.724
 6723ETHO   H2352012   9.013   9.826  10.661
 6724ETHO    O152013   8.962   9.831  10.865
 6724ETHO    C152014   9.094   9.851  10.910
 6724ETHO   H1152015   9.161   9.911  10.844
 6724ETHO   H1352016   9.138   9.749  10.902
 6724ETHO    C252017   9.092   9.914  11.044
 6724ETHO   H2152018   9.180   9.865  11.092
 6724ETHO   H2352019   8.998   9.888  11.096
 6725ETHO    O152020   9.109  10.058  11.046
 6725ETHO    C152021   9.093  10.108  11.178
 6725ETHO   H1152022   9.010  10.061  11.234
 6725ETHO   H1352023   9.178  10.061  11.232
 6725ETHO    C252024   9.081  10.257  11.194
 6725ETHO   H2152025   9.040  10.274  11.296
 6725ETHO   H2352026   9.005  10.303  11.128
 6726PROX    O152027   9.206  10.331  11.188
 6726PROX    C152028   9.184  10.473  11.191
 6726PROX   H1152029   9.133  10.508  11.099
 6726PROX   H1352030   9.114  10.496  11.274
 6726PROX    C252031   9.314  10.539  11.204
 6726PROX   H2152032   9.362  10.533  11.104
 6726PROX    C352033   9.394  10.486  11.321
 6726PROX   H3152034   9.379  10.376  11.327
 6726PROX   H3252035   9.500  10.516  11.311
 6726PROX   H3352036   9.356  10.530  11.416
 6727PROX    O152037   9.295  10.678  11.231
 6727PROX    C152038   9.425  10.744  11.241
 6727PROX   H1152039   9.477  10.733  11.338
 6727PROX   H1352040   9.510  10.706  11.181
 6727PROX    C252041   9.407  10.895  11.223
 6727PROX   H2152042   9.377  10.912  11.117
 6727PROX    C352043   9.543  10.968  11.229
 6727PROX   H3152044   9.573  10.988  11.334
 6727PROX   H3252045   9.626  10.909  11.184
 6727PROX   H3352046   9.548  11.064  11.173
 6728PROX    O152047   9.322  10.951  11.319
 6728PROX    C152048   9.285  11.084  11.293
 6728PROX   H1152049   9.379  11.140  11.278
 6728PROX   H1352050   9.221  11.100  11.204
 6728PROX    C252051   9.204  11.145  11.413
 6728PROX   H2152052   9.253  11.114  11.507
 6728PROX    C352053   9.060  11.093  11.413
 6728PROX   H3152054   8.999  11.131  11.328
 6728PROX   H3252055   9.053  10.983  11.400
 6728PROX   H3352056   9.006  11.117  11.508
 6729PROX    O152057   9.213  11.288  11.397
 6729PROX    C152058   9.174  11.353  11.521
 6729PROX   H1152059   9.122  11.450  11.504
 6729PROX   H1352060   9.108  11.290  11.585
 6729PROX    C252061   9.310  11.384  11.606
 6729PROX   H2152062   9.337  11.284  11.645
 6729PROX    C352063   9.285  11.462  11.733
 6729PROX   H3152064   9.191  11.424  11.776
 6729PROX   H3252065   9.364  11.440  11.808
 6729PROX   H3352066   9.273  11.569  11.703
 6730PROX    O152067   9.412  11.449  11.532
 6730PROX    C152068   9.495  11.360  11.464
 6730PROX   H1152069   9.563  11.316  11.541
 6730PROX   H1352070   9.448  11.268  11.423
 6730PROX    C252071   9.573  11.431  11.358
 6730PROX   H2152072   9.617  11.522  11.404
 6730PROX    C352073   9.492  11.466  11.241
 6730PROX   H3152074   9.547  11.497  11.150
 6730PROX   H3252075   9.433  11.381  11.202
 6730PROX   H3352076   9.418  11.545  11.266
 6731PROX    O152077   9.672  11.339  11.310
 6731PROX    C152078   9.802  11.403  11.288
 6731PROX   H1152079   9.792  11.474  11.203
 6731PROX   H1352080   9.835  11.456  11.380
 6731PROX    C252081   9.908  11.292  11.243
 6731PROX   H2152082   9.891  11.193  11.291
 6731PROX    C352083  10.051  11.332  11.286
 6731PROX   H3152084  10.116  11.245  11.265
 6731PROX   H3252085  10.094  11.415  11.225
 6731PROX   H3352086  10.048  11.358  11.394
 6732PROX    O152087   9.908  11.283  11.104
 6732PROX    C152088   9.809  11.189  11.062
 6732PROX   H1152089   9.827  11.090  11.109
 6732PROX   H1352090   9.709  11.227  11.091
 6732PROX    C252091   9.830  11.169  10.908
 6732PROX   H2152092   9.936  11.186  10.880
 6732PROX    C352093   9.744  11.275  10.844
 6732PROX   H3152094   9.732  11.266  10.734
 6732PROX   H3252095   9.641  11.266  10.886
 6732PROX   H3352096   9.783  11.374  10.876
 6733PROX    O152097   9.781  11.044  10.860
 6733PROX    C152098   9.878  10.939  10.861
 6733PROX   H1152099   9.942  10.969  10.776
 6733PROX   H1352100   9.942  10.940  10.952
 6733PROX    C252101   9.807  10.799  10.840
 6733PROX   H2152102   9.719  10.825  10.777
 6733PROX    C352103   9.751  10.739  10.968
 6733PROX   H3152104   9.720  10.634  10.951
 6733PROX   H3252105   9.829  10.728  11.046
 6733PROX   H3352106   9.659  10.789  11.005
 6734PROX    O152107   9.905  10.714  10.777
 6734PROX    C152108   9.843  10.628  10.683
 6734PROX   H1152109   9.768  10.568  10.738
 6734PROX   H1352110   9.794  10.696  10.611
 6734PROX    C252111   9.935  10.534  10.602
 6734PROX   H2152112  10.023  10.590  10.565
 6734PROX    C352113   9.849  10.494  10.472
 6734PROX   H3152114   9.811  10.580  10.413
 6734PROX   H3252115   9.931  10.442  10.418
 6734PROX   H3352116   9.767  10.422  10.490
 6735PROX    O152117   9.983  10.416  10.675
 6735PROX    C152118  10.063  10.439  10.792
 6735PROX   H1152119  10.011  10.509  10.860
 6735PROX   H1352120  10.074  10.338  10.838
 6735PROX    C252121  10.208  10.495  10.763
 6735PROX   H2152122  10.194  10.600  10.729
 6735PROX    C352123  10.286  10.419  10.655
 6735PROX   H3152124  10.374  10.480  10.627
 6735PROX   H3252125  10.312  10.315  10.681
 6735PROX   H3352126  10.223  10.421  10.563
 6736PROX    O152127  10.288  10.484  10.879
 6736PROX    C152128  10.240  10.561  10.992
 6736PROX   H1152129  10.212  10.665  10.967
 6736PROX   H1352130  10.150  10.511  11.035
 6736PROX    C252131  10.342  10.564  11.111
 6736PROX   H2152132  10.445  10.596  11.082
 6736PROX    C352133  10.368  10.417  11.161
 6736PROX   H3152134  10.433  10.415  11.250
 6736PROX   H3252135  10.272  10.371  11.195
 6736PROX   H3352136  10.404  10.355  11.076
 6737PROX    O152137  10.291  10.652  11.215
 6737PROX    C152138  10.314  10.788  11.172
 6737PROX   H1152139  10.357  10.791  11.070
 6737PROX   H1352140  10.213  10.831  11.189
 6737PROX    C252141  10.414  10.873  11.256
 6737PROX   H2152142  10.516  10.832  11.238
 6737PROX    C352143  10.395  10.858  11.411
 6737PROX   H3152144  10.470  10.907  11.476
 6737PROX   H3252145  10.294  10.903  11.424
 6737PROX   H3352146  10.390  10.752  11.444
 6738PROX    O152147  10.412  11.006  11.223
 6738PROX    C152148  10.524  11.037  11.141
 6738PROX   H1152149  10.610  10.986  11.189
 6738PROX   H1352150  10.517  10.995  11.039
 6738PROX    C252151  10.555  11.192  11.124
 6738PROX   H2152152  10.457  11.243  11.123
 6738PROX    C352153  10.641  11.207  10.992
 6738PROX   H3152154  10.750  11.197  11.013
 6738PROX   H3252155  10.602  11.159  10.900
 6738PROX   H3352156  10.650  11.313  10.961
 6739PROX    O152157  10.643  11.245  11.221
 6739PROX    C152158  10.602  11.229  11.352
 6739PROX   H1152159  10.544  11.136  11.371
 6739PROX   H1352160  10.697  11.227  11.411
 6739PROX    C252161  10.533  11.355  11.407
 6739PROX   H2152162  10.439  11.370  11.351
 6739PROX    C352163  10.629  11.470  11.378
 6739PROX   H3152164  10.723  11.459  11.436
 6739PROX   H3252165  10.670  11.477  11.274
 6739PROX   H3352166  10.581  11.567  11.402
 6740PROX    O152167  10.500  11.341  11.547
 6740PROX    C152168  10.387  11.249  11.561
 6740PROX   H1152169  10.294  11.303  11.533
 6740PROX   H1352170  10.391  11.160  11.494
 6740PROX    C252171  10.373  11.189  11.698
 6740PROX   H2152172  10.390  11.272  11.769
 6740PROX    C352173  10.479  11.085  11.715
 6740PROX   H3152174  10.518  11.080  11.819
 6740PROX   H3252175  10.432  10.987  11.692
 6740PROX   H3352176  10.568  11.100  11.650
 6741PROX    O152177  10.234  11.150  11.712
 6741PROX    C152178  10.198  11.169  11.847
 6741PROX   H1152179  10.122  11.093  11.875
 6741PROX   H1352180  10.285  11.158  11.916
 6741PROX    C252181  10.132  11.304  11.878
 6741PROX   H2152182  10.093  11.310  11.982
 6741PROX    C352183  10.005  11.328  11.788
 6741PROX   H3152184   9.958  11.413  11.842
 6741PROX   H3252185  10.036  11.353  11.685
 6741PROX   H3352186   9.934  11.243  11.796
 6742PROX    O152187  10.231  11.400  11.873
 6742PROX    C152188  10.227  11.494  11.975
 6742PROX   H1152189  10.120  11.522  11.991
 6742PROX   H1352190  10.272  11.442  12.062
 6742PROX    C252191  10.301  11.631  11.945
 6742PROX   H2152192  10.249  11.676  11.857
 6742PROX    C352193  10.448  11.619  11.897
 6742PROX   H3152194  10.507  11.571  11.978
 6742PROX   H3252195  10.457  11.564  11.801
 6742PROX   H3352196  10.491  11.720  11.875
 6743PROX    O152197  10.289  11.707  12.063
 6743PROX    C152198  10.247  11.845  12.033
 6743PROX   H1152199  10.282  11.903  12.121
 6743PROX   H1352200  10.307  11.871  11.943
 6743PROX    C252201  10.092  11.870  12.038
 6743PROX   H2152202  10.042  11.800  11.967
 6743PROX    C352203  10.064  12.008  11.995
 6743PROX   H3152204  10.085  12.075  12.082
 6743PROX   H3252205  10.108  12.034  11.896
 6743PROX   H3352206   9.956  12.023  11.977
 6744PROX    O152207  10.039  11.844  12.166
 6744PROX    C152208  10.030  11.708  12.206
 6744PROX   H1152209  10.108  11.643  12.162
 6744PROX   H1352210  10.030  11.700  12.317
 6744PROX    C252211   9.891  11.640  12.173
 6744PROX   H2152212   9.810  11.702  12.219
 6744PROX    C352213   9.892  11.495  12.222
 6744PROX   H3152214   9.796  11.451  12.185
 6744PROX   H3252215   9.974  11.447  12.165
 6744PROX   H3352216   9.900  11.482  12.332
 6745PROX    O152217   9.862  11.624  12.033
 6745PROX    C152218   9.724  11.643  12.014
 6745PROX   H1152219   9.664  11.631  12.107
 6745PROX   H1352220   9.719  11.752  11.992
 6745PROX    C252221   9.665  11.552  11.899
 6745PROX   H2152222   9.560  11.586  11.881
 6745PROX    C352223   9.641  11.398  11.938
 6745PROX   H3152224   9.591  11.341  11.857
 6745PROX   H3252225   9.735  11.341  11.955
 6745PROX   H3352226   9.577  11.395  12.029
 6746PROX    O152227   9.743  11.565  11.781
 6746PROX    C152228   9.730  11.697  11.730
 6746PROX   H1152229   9.683  11.697  11.629
 6746PROX   H1352230   9.678  11.771  11.795
 6746PROX    C252231   9.876  11.748  11.722
 6746PROX   H2152232   9.932  11.721  11.814
 6746PROX    C352233   9.878  11.896  11.701
 6746PROX   H3152234   9.827  11.916  11.605
 6746PROX   H3252235   9.832  11.946  11.790
 6746PROX   H3352236   9.983  11.930  11.709
 6747PROX    O152237   9.940  11.682  11.620
 6747PROX    C152238  10.079  11.675  11.646
 6747PROX   H1152239  10.112  11.774  11.683
 6747PROX   H1352240  10.099  11.593  11.718
 6747PROX    C252241  10.165  11.632  11.520
 6747PROX   H2152242  10.130  11.532  11.487
 6747PROX    C352243  10.314  11.621  11.551
 6747PROX   H3152244  10.343  11.553  11.635
 6747PROX   H3252245  10.388  11.603  11.471
 6747PROX   H3352246  10.341  11.725  11.578
 6748PROX    O152247  10.156  11.732  11.421
 6748PROX    C152248  10.041  11.712  11.334
 6748PROX   H1152249   9.988  11.615  11.347
 6748PROX   H1352250   9.963  11.788  11.356
 6748PROX    C252251  10.084  11.733  11.189
 6748PROX   H2152252  10.125  11.836  11.177
 6748PROX    C352253   9.966  11.708  11.097
 6748PROX   H3152254   9.877  11.757  11.141
 6748PROX   H3252255   9.991  11.760  11.002
 6748PROX   H3352256   9.958  11.599  11.075
 6749PROX    O152257  10.188  11.642  11.162
 6749PROX    C152258  10.318  11.691  11.151
 6749PROX   H1152259  10.339  11.789  11.104
 6749PROX   H1352260  10.368  11.700  11.249
 6749PROX    C252261  10.401  11.588  11.073
 6749PROX   H2152262  10.394  11.491  11.126
 6749PROX    C352263  10.543  11.643  11.068
 6749PROX   H3152264  10.597  11.661  11.163
 6749PROX   H3252265  10.602  11.571  11.006
 6749PROX   H3352266  10.551  11.743  11.020
 6750PROX    O152267  10.334  11.573  10.943
 6750PROX    C152268  10.261  11.450  10.938
 6750PROX   H1152269  10.320  11.357  10.953
 6750PROX   H1352270  10.195  11.454  11.028
 6750PROX    C252271  10.178  11.437  10.812
 6750PROX   H2152272  10.242  11.471  10.729
 6750PROX    C352273  10.049  11.527  10.831
 6750PROX   H3152274  10.086  11.620  10.879
 6750PROX   H3252275  10.003  11.545  10.732
 6750PROX   H3352276   9.977  11.473  10.896
 6751PROX    O152277  10.132  11.305  10.787
 6751PROX    C152278  10.247  11.220  10.753
 6751PROX   H1152279  10.239  11.201  10.644
 6751PROX   H1352280  10.345  11.267  10.776
 6751PROX    C252281  10.228  11.089  10.838
 6751PROX   H2152282  10.136  11.045  10.793
 6751PROX    C352283  10.192  11.114  10.985
 6751PROX   H3152284  10.275  11.179  11.020
 6751PROX   H3252285  10.098  11.172  10.998
 6751PROX   H3352286  10.192  11.029  11.056
 6752PROX    O152287  10.343  11.009  10.835
 6752PROX    C152288  10.370  10.951  10.710
 6752PROX   H1152289  10.272  10.903  10.689
 6752PROX   H1352290  10.393  11.025  10.630
 6752PROX    C252291  10.484  10.852  10.712
 6752PROX   H2152292  10.581  10.905  10.726
 6752PROX    C352293  10.490  10.778  10.576
 6752PROX   H3152294  10.492  10.854  10.495
 6752PROX   H3252295  10.578  10.711  10.578
 6752PROX   H3352296  10.401  10.714  10.561
 6753PROX    O152297  10.471  10.758  10.817
 6753PROX    C152298  10.587  10.682  10.841
 6753PROX   H1152299  10.553  10.578  10.861
 6753PROX   H1352300  10.653  10.669  10.752
 6753PROX    C252301  10.667  10.734  10.963
 6753PROX   H2152302  10.599  10.754  11.049
 6753PROX    C352303  10.754  10.855  10.934
 6753PROX   H3152304  10.690  10.937  10.895
 6753PROX   H3252305  10.807  10.894  11.024
 6753PROX   H3352306  10.828  10.828  10.856
 6754PROX    O152307  10.749  10.626  11.009
 6754PROX    C152308  10.795  10.633  11.144
 6754PROX   H1152309  10.891  10.689  11.146
 6754PROX   H1352310  10.723  10.681  11.214
 6754PROX    C252311  10.823  10.490  11.196
 6754PROX   H2152312  10.884  10.435  11.121
 6754PROX    C352313  10.690  10.408  11.199
 6754PROX   H3152314  10.697  10.307  11.246
 6754PROX   H3252315  10.621  10.463  11.266
 6754PROX   H3352316  10.647  10.390  11.098
 6755PROX    O152317  10.878  10.481  11.328
 6755PROX    C152318  11.008  10.428  11.322
 6755PROX   H1152319  11.010  10.318  11.341
 6755PROX   H1352320  11.053  10.445  11.222
 6755PROX    C252321  11.092  10.484  11.436
 6755PROX   H2152322  11.058  10.589  11.449
 6755PROX    C352323  11.237  10.491  11.405
 6755PROX   H3152324  11.254  10.557  11.317
 6755PROX   H3252325  11.295  10.523  11.494
 6755PROX   H3352326  11.271  10.388  11.380
 6756PROX    O152327  11.070  10.413  11.557
 6756PROX    C152328  10.973  10.463  11.648
 6756PROX   H1152329  11.020  10.555  11.690
 6756PROX   H1352330  10.883  10.481  11.586
 6756PROX    C252331  10.943  10.359  11.758
 6756PROX   H2152332  11.039  10.331  11.807
 6756PROX    C352333  10.866  10.245  11.691
 6756PROX   H3152334  10.935  10.207  11.613
 6756PROX   H3252335  10.827  10.179  11.771
 6756PROX   H3352336  10.783  10.285  11.627
 6757PROX    O152337  10.855  10.420  11.857
 6757PROX    C152338  10.907  10.520  11.937
 6757PROX   H1152339  11.013  10.491  11.953
 6757PROX   H1352340  10.902  10.618  11.884
 6757PROX    C252341  10.830  10.537  12.074
 6757PROX   H2152342  10.807  10.434  12.109
 6757PROX    C352343  10.696  10.616  12.049
 6757PROX   H3152344  10.660  10.560  11.960
 6757PROX   H3252345  10.623  10.603  12.131
 6757PROX   H3352346  10.717  10.722  12.024
 6758PROX    O152347  10.920  10.593  12.170
 6758PROX    C152348  10.857  10.626  12.296
 6758PROX   H1152349  10.758  10.581  12.317
 6758PROX   H1352350  10.927  10.597  12.377
 6758PROX    C252351  10.845  10.786  12.299
 6758PROX   H2152352  10.792  10.815  12.205
 6758PROX    C352353  10.979  10.846  12.302
 6758PROX   H3152354  11.035  10.803  12.216
 6758PROX   H3252355  10.969  10.956  12.292
 6758PROX   H3352356  11.030  10.833  12.400
 6759PROX    O152357  10.778  10.824  12.416
 6759PROX    C152358  10.636  10.819  12.408
 6759PROX   H1152359  10.593  10.918  12.381
 6759PROX   H1352360  10.603  10.737  12.340
 6759PROX    C252361  10.574  10.798  12.549
 6759PROX   H2152362  10.603  10.889  12.605
 6759PROX    C352363  10.615  10.668  12.626
 6759PROX   H3152364  10.582  10.584  12.562
 6759PROX   H3252365  10.726  10.677  12.631
 6759PROX   H3352366  10.571  10.659  12.728
 6760PROX    O152367  10.426  10.799  12.537
 6760PROX    C152368  10.354  10.814  12.659
 6760PROX   H1152369  10.388  10.737  12.731
 6760PROX   H1352370  10.386  10.912  12.702
 6760PROX    C252371  10.206  10.805  12.640
 6760PROX   H2152372  10.177  10.879  12.562
 6760PROX    C352373  10.132  10.824  12.768
 6760PROX   H3152374  10.163  10.918  12.818
 6760PROX   H3252375  10.021  10.827  12.767
 6760PROX   H3352376  10.158  10.741  12.837
 6761PROX    O152377  10.181  10.673  12.584
 6761PROX    C152378  10.050  10.655  12.539
 6761PROX   H1152379   9.993  10.609  12.623
 6761PROX   H1352380   9.999  10.751  12.517
 6761PROX    C252381  10.044  10.559  12.428
 6761PROX   H2152382  10.107  10.471  12.452
 6761PROX    C352383  10.090  10.620  12.293
 6761PROX   H3152384  10.109  10.544  12.213
 6761PROX   H3252385  10.023  10.701  12.257
 6761PROX   H3352386  10.187  10.666  12.320
 6762PROX    O152387   9.907  10.516  12.410
 6762PROX    C152388   9.891  10.411  12.321
 6762PROX   H1152389   9.860  10.462  12.228
 6762PROX   H1352390   9.990  10.366  12.300
 6762PROX    C252391   9.797  10.307  12.384
 6762PROX   H2152392   9.846  10.282  12.481
 6762PROX    C352393   9.775  10.171  12.322
 6762PROX   H3152394   9.677  10.133  12.358
 6762PROX   H3252395   9.780  10.176  12.211
 6762PROX   H3352396   9.858  10.099  12.338
 6763PROX    O152397   9.670  10.366  12.408
 6763PROX    C152398   9.632  10.341  12.546
 6763PROX   H1152399   9.522  10.356  12.554
 6763PROX   H1352400   9.645  10.235  12.577
 6763PROX    C252401   9.707  10.429  12.656
 6763PROX   H2152402   9.812  10.454  12.629
 6763PROX    C352403   9.706  10.351  12.791
 6763PROX   H3152404   9.609  10.306  12.820
 6763PROX   H3252405   9.771  10.262  12.775
 6763PROX   H3352406   9.744  10.413  12.874
 6764PROX    O152407   9.647  10.556  12.679
 6764PROX    C152408   9.620  10.632  12.560
 6764PROX   H1152409   9.719  10.631  12.508
 6764PROX   H1352410   9.547  10.591  12.486
 6764PROX    C252411   9.592  10.777  12.590
 6764PROX   H2152412   9.580  10.822  12.490
 6764PROX    C352413   9.710  10.837  12.671
 6764PROX   H3152414   9.800  10.813  12.610
 6764PROX   H3252415   9.705  10.948  12.675
 6764PROX   H3352416   9.730  10.789  12.769
 6765PROX    O152417   9.468  10.774  12.661
 6765PROX    C152418   9.399  10.898  12.663
 6765PROX   H1152419   9.342  10.885  12.757
 6765PROX   H1352420   9.475  10.978  12.677
 6765PROX    C252421   9.307  10.924  12.539
 6765PROX   H2152422   9.378  10.929  12.453
 6765PROX    C352423   9.243  11.062  12.543
 6765PROX   H3152424   9.313  11.147  12.560
 6765PROX   H3252425   9.193  11.097  12.450
 6765PROX   H3352426   9.159  11.068  12.615
 6766PROX    O152427   9.215  10.820  12.510
 6766PROX    C152428   9.167  10.819  12.372
 6766PROX   H1152429   9.070  10.765  12.377
 6766PROX   H1352430   9.172  10.919  12.325
 6766PROX    C252431   9.260  10.726  12.290
 6766PROX   H2152432   9.212  10.721  12.190
 6766PROX    C352433   9.256  10.589  12.353
 6766PROX   H3152434   9.298  10.570  12.454
 6766PROX   H3252435   9.153  10.548  12.351
 6766PROX   H3352436   9.326  10.529  12.290
 6767PROX    O152437   9.386  10.784  12.278
 6767PROX    C152438   9.402  10.876  12.171
 6767PROX   H1152439   9.371  10.817  12.082
 6767PROX   H1352440   9.349  10.973  12.188
 6767PROX    C252441   9.560  10.898  12.165
 6767PROX   H2152442   9.584  10.965  12.080
 6767PROX    C352443   9.625  10.762  12.142
 6767PROX   H3152444   9.731  10.767  12.109
 6767PROX   H3252445   9.627  10.704  12.236
 6767PROX   H3352446   9.586  10.699  12.059
 6768PROX    O152447   9.610  10.946  12.282
 6768PROX    C152448   9.586  11.084  12.299
 6768PROX   H1152449   9.599  11.135  12.201
 6768PROX   H1352450   9.478  11.086  12.327
 6768PROX    C252451   9.680  11.145  12.404
 6768PROX   H2152452   9.690  11.101  12.505
 6768PROX    C352453   9.628  11.289  12.437
 6768PROX   H3152454   9.621  11.356  12.348
 6768PROX   H3252455   9.523  11.280  12.472
 6768PROX   H3352456   9.699  11.331  12.511
 6769PROX    O152457   9.807  11.181  12.345
 6769PROX    C152458   9.908  11.077  12.356
 6769PROX   H1152459   9.973  11.086  12.445
 6769PROX   H1352460   9.865  10.974  12.353
 6769PROX    C252461   9.995  11.085  12.232
 6769PROX   H2152462  10.041  11.185  12.248
 6769PROX    C352463   9.914  11.079  12.099
 6769PROX   H3152464   9.867  10.981  12.076
 6769PROX   H3252465   9.838  11.159  12.089
 6769PROX   H3352466   9.979  11.098  12.011
 6770PROX    O152467  10.089  10.973  12.236
 6770PROX    C152468  10.213  11.001  12.175
 6770PROX   H1152469  10.240  10.915  12.110
 6770PROX   H1352470  10.189  11.095  12.121
 6770PROX    C252471  10.319  11.012  12.281
 6770PROX   H2152472  10.340  10.912  12.323
 6770PROX    C352473  10.280  11.100  12.401
 6770PROX   H3152474  10.199  11.068  12.470
 6770PROX   H3252475  10.367  11.117  12.468
 6770PROX   H3352476  10.241  11.195  12.359
 6771PROX    O152477  10.435  11.076  12.234
 6771PROX    C152478  10.500  11.008  12.128
 6771PROX   H1152479  10.507  10.902  12.160
 6771PROX   H1352480  10.440  11.017  12.035
 6771PROX    C252481  10.640  11.068  12.103
 6771PROX   H2152482  10.699  11.076  12.197
 6771PROX    C352483  10.626  11.216  12.047
 6771PROX   H3152484  10.582  11.221  11.945
 6771PROX   H3252485  10.567  11.282  12.115
 6771PROX   H3352486  10.723  11.269  12.036
 6772PROX    O152487  10.710  10.979  12.009
 6772PROX    C152488  10.831  11.028  11.950
 6772PROX   H1152489  10.804  11.090  11.862
 6772PROX   H1352490  10.882  11.086  12.030
 6772PROX    C252491  10.916  10.914  11.895
 6772PROX   H2152492  10.889  10.820  11.948
 6772PROX    C352493  11.069  10.932  11.917
 6772PROX   H3152494  11.103  11.031  11.882
 6772PROX   H3252495  11.103  10.924  12.022
 6772PROX   H3352496  11.119  10.854  11.856
 6773PROX    O152497  10.894  10.895  11.754
 6773PROX    C152498  10.767  10.829  11.735
 6773PROX   H1152499  10.757  10.731  11.787
 6773PROX   H1352500  10.686  10.901  11.756
 6773PROX    C252501  10.752  10.789  11.584
 6773PROX   H2152502  10.831  10.715  11.560
 6773PROX    C352503  10.769  10.911  11.497
 6773PROX   H3152504  10.872  10.947  11.514
 6773PROX   H3252505  10.765  10.882  11.390
 6773PROX   H3352506  10.698  10.994  11.517
 6774PROX    O152507  10.623  10.722  11.571
 6774PROX    C152508  10.633  10.578  11.583
 6774PROX   H1152509  10.690  10.545  11.493
 6774PROX   H1352510  10.671  10.563  11.686
 6774PROX    C252511  10.494  10.508  11.572
 6774PROX   H2152512  10.453  10.547  11.477
 6774PROX    C352513  10.397  10.542  11.692
 6774PROX   H3152514  10.411  10.652  11.701
 6774PROX   H3252515  10.294  10.503  11.676
 6774PROX   H3352516  10.448  10.492  11.777
 6775PROX    O152517  10.510  10.365  11.564
 6775PROX    C152518  10.406  10.288  11.495
 6775PROX   H1152519  10.320  10.350  11.462
 6775PROX   H1352520  10.459  10.255  11.403
 6775PROX    C252521  10.374  10.167  11.582
 6775PROX   H2152522  10.331  10.201  11.679
 6775PROX    C352523  10.500  10.089  11.631
 6775PROX   H3152524  10.587  10.155  11.651
 6775PROX   H3252525  10.480  10.027  11.721
 6775PROX   H3352526  10.521  10.014  11.551
 6776PROX    O152527  10.278  10.079  11.514
 6776PROX    C152528  10.186  10.021  11.608
 6776PROX   H1152529  10.241   9.968  11.689
 6776PROX   H1352530  10.138  10.101  11.669
 6776PROX    C252531  10.098   9.921  11.542
 6776PROX   H2152532  10.039   9.871  11.621
 6776PROX    C352533  10.175   9.803  11.482
 6776PROX   H3152534  10.109   9.746  11.412
 6776PROX   H3252535  10.260   9.832  11.417
 6776PROX   H3352536  10.230   9.738  11.553
 6777PROX    O152537   9.996   9.979  11.465
 6777PROX    C152538  10.047  10.053  11.354
 6777PROX   H1152539  10.053  10.163  11.368
 6777PROX   H1352540  10.140  10.010  11.312
 6777PROX    C252541   9.934  10.039  11.249
 6777PROX   H2152542   9.848  10.100  11.284
 6777PROX    C352543   9.899   9.894  11.220
 6777PROX   H3152544   9.820   9.893  11.142
 6777PROX   H3252545   9.990   9.844  11.181
 6777PROX   H3352546   9.864   9.835  11.308
 6778PROX    O152547   9.975  10.097  11.119
 6778PROX    C152548   9.999  10.234  11.128
 6778PROX   H1152549  10.070  10.266  11.207
 6778PROX   H1352550  10.051  10.262  11.034
 6778PROX    C252551   9.871  10.325  11.119
 6778PROX   H2152552   9.796  10.295  11.195
 6778PROX    C352553   9.789  10.315  10.992
 6778PROX   H3152554   9.715  10.396  10.979
 6778PROX   H3252555   9.851  10.324  10.900
 6778PROX   H3352556   9.749  10.212  10.985
 6779PROX    O152557   9.911  10.458  11.148
 6779PROX    C152558   9.846  10.519  11.258
 6779PROX   H1152559   9.870  10.622  11.224
 6779PROX   H1352560   9.735  10.510  11.252
 6779PROX    C252561   9.903  10.496  11.397
 6779PROX   H2152562   9.842  10.556  11.468
 6779PROX    C352563  10.051  10.530  11.416
 6779PROX   H3152564  10.074  10.639  11.414
 6779PROX   H3252565  10.084  10.483  11.511
 6779PROX   H3352566  10.105  10.491  11.328
 6780PROX    O152567   9.881  10.355  11.427
 6780PROX    C152568   9.870  10.329  11.565
 6780PROX   H1152569   9.975  10.318  11.599
 6780PROX   H1352570   9.840  10.416  11.628
 6780PROX    C252571   9.778  10.208  11.591
 6780PROX   H2152572   9.799  10.131  11.514
 6780PROX    C352573   9.620  10.244  11.574
 6780PROX   H3152574   9.590  10.329  11.638
 6780PROX   H3252575   9.596  10.265  11.468
 6780PROX   H3352576   9.563  10.150  11.592
 6781PROX    O152577   9.812  10.153  11.718
 6781PROX    C152578   9.763  10.021  11.735
 6781PROX   H1152579   9.654  10.019  11.760
 6781PROX   H1352580   9.769   9.965  11.639
 6781PROX    C252581   9.840   9.931  11.841
 6781PROX   H2152582   9.941   9.917  11.796
 6781PROX    C352583   9.767   9.801  11.853
 6781PROX   H3152584   9.668   9.814  11.902
 6781PROX   H3252585   9.739   9.754  11.757
 6781PROX   H3352586   9.826   9.723  11.906
 6782PROX    O152587   9.833   9.981  11.971
 6782PROX    C152588   9.956   9.959  12.033
 6782PROX   H1152589   9.948   9.953  12.143
 6782PROX   H1352590   9.996   9.862  11.997
 6782PROX    C252591  10.050  10.075  11.992
 6782PROX   H2152592  10.063  10.064  11.882
 6782PROX    C352593  10.185  10.056  12.062
 6782PROX   H3152594  10.214   9.949  12.054
 6782PROX   H3252595  10.267  10.108  12.008
 6782PROX   H3352596  10.185  10.095  12.166
 6783PROX    O152597   9.987  10.201  12.016
 6783PROX    C152598  10.020  10.303  11.928
 6783PROX   H1152599  10.130  10.318  11.938
 6783PROX   H1352600  10.003  10.277  11.821
 6783PROX    C252601   9.942  10.432  11.955
 6783PROX   H2152602   9.958  10.471  12.057
 6783PROX    C352603   9.791  10.413  11.943
 6783PROX   H3152604   9.762  10.330  12.011
 6783PROX   H3252605   9.734  10.502  11.978
 6783PROX   H3352606   9.755  10.383  11.842
 6784PROX    O152607   9.993  10.534  11.868
 6784PROX    C152608   9.928  10.655  11.862
 6784PROX   H1152609   9.833  10.649  11.805
 6784PROX   H1352610   9.903  10.701  11.960
 6784PROX    C252611  10.024  10.738  11.781
 6784PROX   H2152612  10.047  10.686  11.686
 6784PROX    C352613  10.155  10.755  11.861
 6784PROX   H3152614  10.207  10.846  11.823
 6784PROX   H3252615  10.152  10.766  11.971
 6784PROX   H3352616  10.216  10.665  11.841
 6785PROX    O152617   9.969  10.872  11.751
 6785PROX    C152618  10.022  10.920  11.623
 6785PROX   H1152619  10.045  11.028  11.623
 6785PROX   H1352620  10.121  10.874  11.601
 6785PROX    C252621   9.924  10.887  11.510
 6785PROX   H2152622   9.899  10.779  11.510
 6785PROX    C352623   9.980  10.919  11.366
 6785PROX   H3152624   9.901  10.901  11.291
 6785PROX   H3252625  10.001  11.028  11.358
 6785PROX   H3352626  10.070  10.857  11.345
 6786PROX    O152627   9.808  10.966  11.526
 6786PROX    C152628   9.712  10.890  11.592
 6786PROX   H1152629   9.663  10.815  11.526
 6786PROX   H1352630   9.762  10.817  11.660
 6786PROX    C252631   9.617  10.981  11.671
 6786PROX   H2152632   9.564  11.050  11.601
 6786PROX    C352633   9.685  11.068  11.781
 6786PROX   H3152634   9.609  11.128  11.834
 6786PROX   H3252635   9.730  11.000  11.856
 6786PROX   H3352636   9.767  11.129  11.737
 6787PROX    O152637   9.523  10.906  11.747
 6787PROX    C152638   9.413  10.855  11.664
 6787PROX   H1152639   9.404  10.919  11.574
 6787PROX   H1352640   9.451  10.760  11.620
 6787PROX    C252641   9.283  10.844  11.731
 6787PROX   H2152642   9.283  10.783  11.824
 6787PROX    C352643   9.184  10.776  11.637
 6787PROX   H3152644   9.191  10.814  11.533
 6787PROX   H3252645   9.214  10.670  11.649
 6787PROX   H3352646   9.077  10.790  11.661
 6788PROX    O152647   9.228  10.971  11.755
 6788PROX    C152648   9.307  11.035  11.860
 6788PROX   H1152649   9.359  10.952  11.913
 6788PROX   H1352650   9.385  11.100  11.814
 6788PROX    C252651   9.225  11.135  11.943
 6788PROX   H2152652   9.145  11.190  11.889
 6788PROX    C352653   9.316  11.247  12.006
 6788PROX   H3152654   9.372  11.202  12.091
 6788PROX   H3252655   9.398  11.270  11.934
 6788PROX   H3352656   9.249  11.331  12.034
 6789PROX    O152657   9.177  11.077  12.051
 6789PROX    C152658   9.081  10.975  12.029
 6789PROX   H1152659   9.100  10.908  11.942
 6789PROX   H1352660   9.076  10.909  12.118
 6789PROX    C252661   8.936  11.024  12.005
 6789PROX   H2152662   8.927  11.083  11.911
 6789PROX    C352663   8.885  11.113  12.125
 6789PROX   H3152664   8.774  11.117  12.127
 6789PROX   H3252665   8.920  11.070  12.221
 6789PROX   H3352666   8.937  11.211  12.119
 6790PROX    O152667   8.850  10.911  11.997
 6790PROX    C152668   8.854  10.847  11.867
 6790PROX   H1152669   8.769  10.882  11.805
 6790PROX   H1352670   8.946  10.871  11.809
 6790PROX    C252671   8.856  10.687  11.875
 6790PROX   H2152672   8.751  10.650  11.875
 6790PROX    C352673   8.921  10.638  12.003
 6790PROX   H3152674   9.032  10.648  12.002
 6790PROX   H3252675   8.887  10.705  12.085
 6790PROX   H3352676   8.903  10.531  12.026
 6791ETHO    O152677   8.934  10.620  11.772
 6791ETHO    C152678   8.866  10.627  11.642
 6791ETHO   H1152679   8.884  10.729  11.602
 6791ETHO   H1352680   8.755  10.624  11.647
 6791ETHO    C252681   8.921  10.529  11.527
 6791ETHO   H2152682   9.028  10.556  11.514
 6791ETHO   H2352683   8.869  10.558  11.433
 6792ETHO    O152684   8.887  10.390  11.541
 6792ETHO    C152685   8.963  10.328  11.636
 6792ETHO   H1152686   9.067  10.329  11.597
 6792ETHO   H1352687   8.967  10.392  11.727
 6792ETHO    C252688   8.922  10.191  11.679
 6792ETHO   H2152689   8.816  10.179  11.712
 6792ETHO   H2352690   8.982  10.175  11.771
 6793ETHO    O152691   8.941  10.106  11.562
 6793ETHO    C152692   9.052  10.013  11.567
 6793ETHO   H1152693   9.147  10.067  11.588
 6793ETHO   H1352694   9.048   9.977  11.462
 6793ETHO    C252695   9.019   9.898  11.664
 6793ETHO   H2152696   8.974   9.936  11.759
 6793ETHO   H2352697   9.115   9.853  11.697
 6794ETHO    O152698   8.933   9.808  11.596
 6794ETHO    C152699   8.908   9.692  11.667
 6794ETHO   H1152700   9.003   9.651  11.708
 6794ETHO   H1352701   8.840   9.717  11.752
 6794ETHO    C252702   8.827   9.589  11.592
 6794ETHO   H2152703   8.828   9.492  11.647
 6794ETHO   H2352704   8.879   9.578  11.495
 6795ETHO    O152705   8.691   9.611  11.573
 6795ETHO    C152706   8.649   9.536  11.457
 6795ETHO   H1152707   8.664   9.431  11.489
 6795ETHO   H1352708   8.705   9.560  11.364
 6795ETHO    C252709   8.497   9.544  11.421
 6795ETHO   H2152710   8.480   9.488  11.326
 6795ETHO   H2352711   8.462   9.648  11.405
 6796ETHO    O152712   8.430   9.486  11.529
 6796ETHO    C152713   8.287   9.490  11.518
 6796ETHO   H1152714   8.255   9.590  11.481
 6796ETHO   H1352715   8.262   9.414  11.441
 6796ETHO    C252716   8.209   9.450  11.644
 6796ETHO   H2152717   8.104   9.473  11.619
 6796ETHO   H2352718   8.250   9.497  11.736
 6797ETHO    O152719   8.224   9.310  11.657
 6797ETHO    C152720   8.180   9.265  11.777
 6797ETHO   H1152721   8.105   9.341  11.809
 6797ETHO   H1352722   8.266   9.275  11.847
 6797ETHO    C252723   8.136   9.119  11.780
 6797ETHO   H2152724   8.116   9.091  11.886
 6797ETHO   H2352725   8.222   9.058  11.745
 6798ETHO    O152726   8.029   9.100  11.697
 6798ETHO    C152727   7.900   9.118  11.758
 6798ETHO   H1152728   7.895   9.042  11.839
 6798ETHO   H1352729   7.887   9.216  11.808
 6798ETHO    C252730   7.788   9.093  11.652
 6798ETHO   H2152731   7.683   9.104  11.686
 6798ETHO   H2352732   7.813   9.175  11.582
 6799ETHO    O152733   7.798   8.964  11.594
 6799ETHO    C152734   7.690   8.927  11.504
 6799ETHO   H1152735   7.609   9.002  11.517
 6799ETHO   H1352736   7.727   8.923  11.399
 6799ETHO    C252737   7.633   8.786  11.538
 6799ETHO   H2152738   7.717   8.717  11.562
 6799ETHO   H2352739   7.574   8.738  11.456
 6800ETHO    O152740   7.557   8.784  11.657
 6800ETHO    C152741   7.447   8.698  11.645
 6800ETHO   H1152742   7.376   8.720  11.727
 6800ETHO   H1352743   7.394   8.727  11.552
 6800ETHO    C252744   7.487   8.548  11.636
 6800ETHO   H2152745   7.516   8.517  11.739
 6800ETHO   H2352746   7.569   8.523  11.565
 6801ETHO    O152747   7.377   8.471  11.599
 6801ETHO    C152748   7.338   8.484  11.467
 6801ETHO   H1152749   7.273   8.573  11.454
 6801ETHO   H1352750   7.432   8.485  11.407
 6801ETHO    C252751   7.252   8.366  11.411
 6801ETHO   H2152752   7.304   8.269  11.396
 6801ETHO   H2352753   7.218   8.389  11.308
 6802ETHO    O152754   7.141   8.355  11.505
 6802ETHO    C152755   7.024   8.438  11.479
 6802ETHO   H1152756   7.052   8.546  11.472
 6802ETHO   H1352757   6.964   8.431  11.571
 6802ETHO    C252758   6.942   8.384  11.363
 6802ETHO   H2152759   6.993   8.374  11.264
 6802ETHO   H2352760   6.861   8.458  11.348
 6803ETHO    O152761   6.885   8.257  11.387
 6803ETHO    C152762   6.788   8.232  11.282
 6803ETHO   H1152763   6.714   8.313  11.294
 6803ETHO   H1352764   6.835   8.238  11.181
 6803ETHO    C252765   6.711   8.098  11.305
 6803ETHO   H2152766   6.611   8.118  11.262
 6803ETHO   H2352767   6.706   8.083  11.415
 6804ETHO    O152768   6.780   7.988  11.252
 6804ETHO    C152769   6.722   7.865  11.296
 6804ETHO   H1152770   6.620   7.878  11.339
 6804ETHO   H1352771   6.773   7.830  11.387
 6804ETHO    C252772   6.707   7.753  11.188
 6804ETHO   H2152773   6.673   7.664  11.245
 6804ETHO   H2352774   6.799   7.724  11.132
 6805ETHO    O152775   6.612   7.791  11.086
 6805ETHO    C152776   6.593   7.698  10.987
 6805ETHO   H1152777   6.693   7.671  10.945
 6805ETHO   H1352778   6.550   7.600  11.018
 6805ETHO    C252779   6.513   7.747  10.865
 6805ETHO   H2152780   6.529   7.687  10.773
 6805ETHO   H2352781   6.552   7.850  10.851
 6806ETHO    O152782   6.379   7.747  10.898
 6806ETHO    C152783   6.310   7.644  10.823
 6806ETHO   H1152784   6.370   7.553  10.846
 6806ETHO   H1352785   6.311   7.673  10.716
 6806ETHO    C252786   6.162   7.616  10.876
 6806ETHO   H2152787   6.094   7.582  10.796
 6806ETHO   H2352788   6.122   7.718  10.899
 6807ETHO    O152789   6.143   7.526  10.988
 6807ETHO    C152790   6.011   7.515  11.043
 6807ETHO   H1152791   5.999   7.458  11.138
 6807ETHO   H1352792   5.975   7.619  11.062
 6807ETHO    C252793   5.911   7.458  10.943
 6807ETHO   H2152794   5.893   7.517  10.851
 6807ETHO   H2352795   5.815   7.465  11.000
 6808ETHO    O152796   5.950   7.320  10.921
 6808ETHO    C152797   5.875   7.257  10.823
 6808ETHO   H1152798   5.936   7.171  10.789
 6808ETHO   H1352799   5.864   7.319  10.732
 6808ETHO    C252800   5.749   7.223  10.901
 6808ETHO   H2152801   5.692   7.313  10.931
 6808ETHO   H2352802   5.782   7.171  10.993
 6809ETHO    O152803   5.657   7.131  10.844
 6809ETHO    C152804   5.562   7.087  10.938
 6809ETHO   H1152805   5.615   7.027  11.015
 6809ETHO   H1352806   5.517   7.180  10.980
 6809ETHO    C252807   5.463   6.982  10.874
 6809ETHO   H2152808   5.416   7.038  10.790
 6809ETHO   H2352809   5.400   6.964  10.963
 6810ETHO    O152810   5.510   6.862  10.809
 6810ETHO    C152811   5.401   6.793  10.748
 6810ETHO   H1152812   5.343   6.745  10.829
 6810ETHO   H1352813   5.333   6.867  10.700
 6810ETHO    C252814   5.440   6.681  10.653
 6810ETHO   H2152815   5.357   6.608  10.638
 6810ETHO   H2352816   5.532   6.633  10.695
 6811ETHO    O152817   5.471   6.719  10.521
 6811ETHO    C152818   5.511   6.605  10.449
 6811ETHO   H1152819   5.613   6.580  10.486
 6811ETHO   H1352820   5.438   6.522  10.455
 6811ETHO    C252821   5.521   6.626  10.295
 6811ETHO   H2152822   5.575   6.721  10.275
 6811ETHO   H2352823   5.415   6.636  10.264
 6812ETHO    O152824   5.582   6.514  10.235
 6812ETHO    C152825   5.610   6.529  10.096
 6812ETHO   H1152826   5.534   6.592  10.044
 6812ETHO   H1352827   5.705   6.582  10.075
 6812ETHO    C252828   5.608   6.399  10.017
 6812ETHO   H2152829   5.683   6.330  10.062
 6812ETHO   H2352830   5.644   6.414   9.913
 6813ETHO    O152831   5.480   6.334  10.023
 6813ETHO    C152832   5.472   6.200   9.975
 6813ETHO   H1152833   5.397   6.140  10.030
 6813ETHO   H1352834   5.575   6.157   9.979
 6813ETHO    C252835   5.420   6.192   9.830
 6813ETHO   H2152836   5.427   6.089   9.789
 6813ETHO   H2352837   5.477   6.265   9.768
 6814ETHO    O152838   5.284   6.212   9.826
 6814ETHO    C152839   5.227   6.199   9.697
 6814ETHO   H1152840   5.126   6.243   9.710
 6814ETHO   H1352841   5.287   6.267   9.632
 6814ETHO    C252842   5.221   6.059   9.639
 6814ETHO   H2152843   5.319   6.009   9.650
 6814ETHO   H2352844   5.196   6.057   9.530
 6815ETHO    O152845   5.127   5.981   9.713
 6815ETHO    C152846   5.042   5.895   9.632
 6815ETHO   H1152847   5.100   5.854   9.547
 6815ETHO   H1352848   4.963   5.961   9.590
 6815ETHO    C252849   4.984   5.790   9.724
 6815ETHO   H2152850   5.066   5.745   9.785
 6815ETHO   H2352851   4.954   5.700   9.665
 6816ETHO    O152852   4.881   5.833   9.807
 6816ETHO    C152853   4.775   5.740   9.829
 6816ETHO   H1152854   4.822   5.639   9.824
 6816ETHO   H1352855   4.736   5.755   9.931
 6816ETHO    C252856   4.656   5.767   9.739
 6816ETHO   H2152857   4.586   5.682   9.722
 6816ETHO   H2352858   4.695   5.796   9.639
 6817ETHO    O152859   4.592   5.886   9.768
 6817ETHO    C152860   4.466   5.881   9.713
 6817ETHO   H1152861   4.414   5.797   9.764
 6817ETHO   H1352862   4.466   5.864   9.603
 6817ETHO    C252863   4.382   6.009   9.739
 6817ETHO   H2152864   4.392   6.034   9.847
 6817ETHO   H2352865   4.281   5.965   9.726
 6818ETHO    O152866   4.408   6.136   9.672
 6818ETHO    C152867   4.287   6.218   9.667
 6818ETHO   H1152868   4.204   6.169   9.611
 6818ETHO   H1352869   4.251   6.228   9.772
 6818ETHO    C252870   4.302   6.362   9.610
 6818ETHO   H2152871   4.202   6.398   9.576
 6818ETHO   H2352872   4.358   6.368   9.514
 6819ETHO    O152873   4.356   6.447   9.712
 6819ETHO    C152874   4.348   6.590   9.676
 6819ETHO   H1152875   4.240   6.605   9.658
 6819ETHO   H1352876   4.414   6.604   9.588
 6819ETHO    C252877   4.408   6.668   9.801
 6819ETHO   H2152878   4.343   6.658   9.891
 6819ETHO   H2352879   4.398   6.772   9.763
 6820ETHO    O152880   4.542   6.651   9.846
 6820ETHO    C152881   4.590   6.764   9.915
 6820ETHO   H1152882   4.639   6.828   9.838
 6820ETHO   H1352883   4.505   6.820   9.959
 6820ETHO    C252884   4.687   6.738  10.033
 6820ETHO   H2152885   4.646   6.650  10.087
 6820ETHO   H2352886   4.699   6.832  10.090
 6821ETHO    O152887   4.818   6.711   9.986
 6821ETHO    C152888   4.907   6.722  10.093
 6821ETHO   H1152889   4.897   6.819  10.145
 6821ETHO   H1352890   4.879   6.645  10.168
 6821ETHO    C252891   5.052   6.700  10.061
 6821ETHO   H2152892   5.059   6.613   9.992
 6821ETHO   H2352893   5.116   6.660  10.143
 6822ETHO    O152894   5.111   6.815  10.004
 6822ETHO    C152895   5.086   6.828   9.865
 6822ETHO   H1152896   5.139   6.750   9.807
 6822ETHO   H1352897   4.979   6.834   9.837
 6822ETHO    C252898   5.149   6.965   9.817
 6822ETHO   H2152899   5.134   6.980   9.708
 6822ETHO   H2352900   5.259   6.953   9.825
 6823ETHO    O152901   5.106   7.084   9.884
 6823ETHO    C152902   4.972   7.112   9.871
 6823ETHO   H1152903   4.933   7.100   9.768
 6823ETHO   H1352904   4.920   7.034   9.931
 6823ETHO    C252905   4.948   7.256   9.925
 6823ETHO   H2152906   4.848   7.292   9.892
 6823ETHO   H2352907   5.019   7.327   9.877
 6824ETHO    O152908   4.974   7.278  10.067
 6824ETHO    C152909   4.868   7.227  10.143
 6824ETHO   H1152910   4.916   7.162  10.219
 6824ETHO   H1352911   4.800   7.163  10.082
 6824ETHO    C252912   4.781   7.339  10.195
 6824ETHO   H2152913   4.694   7.296  10.249
 6824ETHO   H2352914   4.744   7.378  10.098
 6825ETHO    O152915   4.861   7.420  10.283
 6825ETHO    C152916   4.789   7.535  10.330
 6825ETHO   H1152917   4.773   7.600  10.242
 6825ETHO   H1352918   4.694   7.514  10.384
 6825ETHO    C252919   4.869   7.627  10.423
 6825ETHO   H2152920   4.873   7.581  10.524
 6825ETHO   H2352921   4.810   7.721  10.427
 6826ETHO    O152922   5.000   7.659  10.368
 6826ETHO    C152923   5.098   7.570  10.418
 6826ETHO   H1152924   5.200   7.582  10.375
 6826ETHO   H1352925   5.073   7.462  10.411
 6826ETHO    C252926   5.127   7.617  10.558
 6826ETHO   H2152927   5.181   7.538  10.615
 6826ETHO   H2352928   5.042   7.646  10.623
 6827ETHO    O152929   5.212   7.733  10.556
 6827ETHO    C152930   5.275   7.754  10.680
 6827ETHO   H1152931   5.195   7.778  10.753
 6827ETHO   H1352932   5.320   7.655  10.699
 6827ETHO    C252933   5.380   7.872  10.685
 6827ETHO   H2152934   5.404   7.886  10.792
 6827ETHO   H2352935   5.324   7.961  10.651
 6828ETHO    O152936   5.500   7.843  10.620
 6828ETHO    C152937   5.493   7.883  10.484
 6828ETHO   H1152938   5.482   7.993  10.490
 6828ETHO   H1352939   5.411   7.834  10.427
 6828ETHO    C252940   5.619   7.854  10.400
 6828ETHO   H2152941   5.703   7.905  10.452
 6828ETHO   H2352942   5.605   7.899  10.300
 6829ETHO    O152943   5.649   7.714  10.387
 6829ETHO    C152944   5.774   7.701  10.329
 6829ETHO   H1152945   5.777   7.768  10.240
 6829ETHO   H1352946   5.853   7.728  10.402
 6829ETHO    C252947   5.789   7.557  10.285
 6829ETHO   H2152948   5.768   7.483  10.364
 6829ETHO   H2352949   5.895   7.539  10.258
 6830ETHO    O152950   5.714   7.508  10.178
 6830ETHO    C152951   5.769   7.543  10.051
 6830ETHO   H1152952   5.874   7.508  10.045
 6830ETHO   H1352953   5.774   7.654  10.045
 6830ETHO    C252954   5.695   7.470   9.935
 6830ETHO   H2152955   5.743   7.523   9.850
 6830ETHO   H2352956   5.586   7.490   9.938
 6831ETHO    O152957   5.721   7.329   9.955
 6831ETHO    C152958   5.696   7.262   9.839
 6831ETHO   H1152959   5.767   7.304   9.765
 6831ETHO   H1352960   5.741   7.161   9.852
 6831ETHO    C252961   5.550   7.242   9.797
 6831ETHO   H2152962   5.544   7.144   9.745
 6831ETHO   H2352963   5.491   7.229   9.890
 6832ETHO    O152964   5.489   7.321   9.704
 6832ETHO    C152965   5.349   7.339   9.720
 6832ETHO   H1152966   5.335   7.400   9.812
 6832ETHO   H1352967   5.306   7.237   9.737
 6832ETHO    C252968   5.288   7.412   9.604
 6832ETHO   H2152969   5.351   7.499   9.573
 6832ETHO   H2352970   5.192   7.456   9.640
 6833ETHO    O152971   5.259   7.322   9.499
 6833ETHO    C152972   5.215   7.393   9.386
 6833ETHO   H1152973   5.113   7.428   9.412
 6833ETHO   H1352974   5.270   7.486   9.360
 6833ETHO    C252975   5.201   7.297   9.269
 6833ETHO   H2152976   5.136   7.213   9.302
 6833ETHO   H2352977   5.301   7.249   9.259
 6834ETHO    O152978   5.143   7.354   9.147
 6834ETHO    C152979   5.121   7.251   9.057
 6834ETHO   H1152980   5.038   7.186   9.093
 6834ETHO   H1352981   5.213   7.191   9.042
 6834ETHO    C252982   5.087   7.298   8.914
 6834ETHO   H2152983   5.060   7.211   8.850
 6834ETHO   H2352984   5.177   7.338   8.863
 6835ETHO    O152985   4.976   7.392   8.915
 6835ETHO    C152986   4.957   7.445   8.785
 6835ETHO   H1152987   4.918   7.549   8.791
 6835ETHO   H1352988   5.057   7.446   8.737
 6835ETHO    C252989   4.850   7.376   8.699
 6835ETHO   H2152990   4.849   7.424   8.599
 6835ETHO   H2352991   4.753   7.384   8.752
 6836ETHO    O152992   4.876   7.237   8.679
 6836ETHO    C152993   4.841   7.202   8.544
 6836ETHO   H1152994   4.739   7.232   8.513
 6836ETHO   H1352995   4.913   7.255   8.478
 6836ETHO    C252996   4.873   7.057   8.519
 6836ETHO   H2152997   4.975   7.025   8.549
 6836ETHO   H2352998   4.867   7.049   8.408
 6837ETHO    O152999   4.766   6.980   8.565
 6837ETHO    C153000   4.805   6.844   8.553
 6837ETHO   H1153001   4.896   6.827   8.490
 6837ETHO   H1353002   4.846   6.820   8.654
 6837ETHO    C253003   4.692   6.752   8.513
 6837ETHO   H2153004   4.604   6.774   8.576
 6837ETHO   H2353005   4.719   6.645   8.527
 6838ETHO    O153006   4.671   6.781   8.376
 6838ETHO    C153007   4.572   6.692   8.327
 6838ETHO   H1153008   4.623   6.608   8.275
 6838ETHO   H1353009   4.512   6.641   8.405
 6838ETHO    C253010   4.477   6.756   8.223
 6838ETHO   H2153011   4.463   6.864   8.248
 6838ETHO   H2353012   4.382   6.699   8.212
 6839ETHO    O153013   4.533   6.759   8.097
 6839ETHO    C153014   4.457   6.837   8.009
 6839ETHO   H1153015   4.478   6.943   8.038
 6839ETHO   H1353016   4.349   6.826   8.031
 6839ETHO    C253017   4.498   6.837   7.861
 6839ETHO   H2153018   4.605   6.809   7.852
 6839ETHO   H2353019   4.496   6.941   7.820
 6840ETHO    O153020   4.405   6.760   7.785
 6840ETHO    C153021   4.413   6.617   7.814
 6840ETHO   H1153022   4.514   6.577   7.793
 6840ETHO   H1353023   4.399   6.597   7.923
 6840ETHO    C253024   4.313   6.551   7.716
 6840ETHO   H2153025   4.329   6.442   7.702
 6840ETHO   H2353026   4.330   6.602   7.618
 6841ETHO    O153027   4.186   6.572   7.769
 6841ETHO    C153028   4.085   6.492   7.706
 6841ETHO   H1153029   4.113   6.384   7.708
 6841ETHO   H1353030   4.085   6.519   7.598
 6841ETHO    C253031   3.949   6.508   7.764
 6841ETHO   H2153032   3.962   6.519   7.874
 6841ETHO   H2353033   3.897   6.414   7.736
 6842ETHO    O153034   3.893   6.619   7.691
 6842ETHO    C153035   3.777   6.665   7.751
 6842ETHO   H1153036   3.692   6.596   7.729
 6842ETHO   H1353037   3.803   6.687   7.857
 6842ETHO    C253038   3.732   6.802   7.691
 6842ETHO   H2153039   3.630   6.807   7.734
 6842ETHO   H2353040   3.721   6.805   7.580
 6843ETHO    O153041   3.800   6.925   7.730
 6843ETHO    C153042   3.899   6.961   7.636
 6843ETHO   H1153043   3.841   6.972   7.542
 6843ETHO   H1353044   3.965   6.874   7.615
 6843ETHO    C253045   3.972   7.092   7.654
 6843ETHO   H2153046   3.894   7.170   7.665
 6843ETHO   H2353047   4.030   7.115   7.562
 6844ETHO    O153048   4.042   7.097   7.775
 6844ETHO    C153049   4.088   7.229   7.808
 6844ETHO   H1153050   4.140   7.280   7.724
 6844ETHO   H1353051   4.005   7.287   7.853
 6844ETHO    C253052   4.199   7.205   7.909
 6844ETHO   H2153053   4.248   7.303   7.924
 6844ETHO   H2353054   4.274   7.135   7.867
 6845ETHO    O153055   4.160   7.155   8.035
 6845ETHO    C153056   4.262   7.150   8.137
 6845ETHO   H1153057   4.300   7.254   8.145
 6845ETHO   H1353058   4.353   7.094   8.106
 6845ETHO    C253059   4.203   7.109   8.279
 6845ETHO   H2153060   4.154   7.010   8.263
 6845ETHO   H2353061   4.118   7.179   8.293
 6846ETHO    O153062   4.295   7.111   8.375
 6846ETHO    C153063   4.249   7.023   8.475
 6846ETHO   H1153064   4.249   6.921   8.430
 6846ETHO   H1353065   4.319   7.023   8.561
 6846ETHO    C253066   4.113   7.052   8.546
 6846ETHO   H2153067   4.090   6.958   8.601
 6846ETHO   H2353068   4.023   7.073   8.484
 6847ETHO    O153069   4.124   7.164   8.629
 6847ETHO    C153070   4.013   7.174   8.719
 6847ETHO   H1153071   3.921   7.142   8.665
 6847ETHO   H1353072   4.030   7.107   8.806
 6847ETHO    C253073   3.985   7.312   8.772
 6847ETHO   H2153074   3.884   7.312   8.819
 6847ETHO   H2353075   3.985   7.376   8.681
 6848ETHO    O153076   4.069   7.361   8.879
 6848ETHO    C153077   4.039   7.496   8.914
 6848ETHO   H1153078   4.051   7.562   8.825
 6848ETHO   H1353079   3.930   7.503   8.935
 6848ETHO    C253080   4.117   7.551   9.034
 6848ETHO   H2153081   4.122   7.473   9.113
 6848ETHO   H2353082   4.070   7.640   9.081
 6849ETHO    O153083   4.255   7.575   9.009
 6849ETHO    C153084   4.320   7.609   9.129
 6849ETHO   H1153085   4.273   7.704   9.163
 6849ETHO   H1353086   4.307   7.527   9.203
 6849ETHO    C253087   4.474   7.632   9.137
 6849ETHO   H2153088   4.489   7.667   9.241
 6849ETHO   H2353089   4.502   7.718   9.074
 6850ETHO    O153090   4.539   7.508   9.115
 6850ETHO    C153091   4.678   7.535   9.142
 6850ETHO   H1153092   4.685   7.610   9.224
 6850ETHO   H1353093   4.717   7.592   9.054
 6850ETHO    C253094   4.760   7.403   9.170
 6850ETHO   H2153095   4.870   7.412   9.156
 6850ETHO   H2353096   4.726   7.326   9.098
 6851ETHO    O153097   4.748   7.353   9.301
 6851ETHO    C153098   4.830   7.237   9.321
 6851ETHO   H1153099   4.823   7.175   9.229
 6851ETHO   H1353100   4.936   7.266   9.333
 6851ETHO    C253101   4.803   7.149   9.442
 6851ETHO   H2153102   4.694   7.131   9.454
 6851ETHO   H2353103   4.844   7.186   9.538
 6852ETHO    O153104   4.851   7.014   9.428
 6852ETHO    C153105   4.814   6.934   9.544
 6852ETHO   H1153106   4.706   6.954   9.555
 6852ETHO   H1353107   4.865   6.973   9.635
 6852ETHO    C253108   4.835   6.781   9.534
 6852ETHO   H2153109   4.791   6.744   9.629
 6852ETHO   H2353110   4.941   6.750   9.532
 6853ETHO    O153111   4.774   6.732   9.419
 6853ETHO    C153112   4.785   6.589   9.411
 6853ETHO   H1153113   4.892   6.560   9.400
 6853ETHO   H1353114   4.741   6.550   9.505
 6853ETHO    C253115   4.708   6.545   9.287
 6853ETHO   H2153116   4.725   6.437   9.269
 6853ETHO   H2353117   4.740   6.602   9.198
 6854ETHO    O153118   4.566   6.566   9.297
 6854ETHO    C153119   4.504   6.532   9.169
 6854ETHO   H1153120   4.395   6.514   9.177
 6854ETHO   H1353121   4.552   6.435   9.145
 6854ETHO    C253122   4.518   6.623   9.038
 6854ETHO   H2153123   4.618   6.598   8.998
 6854ETHO   H2353124   4.525   6.726   9.078
 6855ETHO    O153125   4.425   6.592   8.932
 6855ETHO    C153126   4.418   6.704   8.845
 6855ETHO   H1153127   4.470   6.800   8.868
 6855ETHO   H1353128   4.464   6.658   8.755
 6855ETHO    C253129   4.269   6.729   8.803
 6855ETHO   H2153130   4.222   6.635   8.769
 6855ETHO   H2353131   4.282   6.787   8.708
 6856ETHO    O153132   4.201   6.795   8.908
 6856ETHO    C153133   4.073   6.804   8.879
 6856ETHO   H1153134   4.035   6.703   8.853
 6856ETHO   H1353135   4.061   6.886   8.804
 6856ETHO    C253136   3.987   6.836   9.007
 6856ETHO   H2153137   4.028   6.935   9.037
 6856ETHO   H2353138   4.008   6.752   9.077
 6857ETHO    O153139   3.846   6.854   8.972
 6857ETHO    C153140   3.779   6.958   9.041
 6857ETHO   H1153141   3.797   6.953   9.151
 6857ETHO   H1353142   3.818   7.057   9.010
 6857ETHO    C253143   3.628   6.947   9.018
 6857ETHO   H2153144   3.607   6.910   8.916
 6857ETHO   H2353145   3.589   7.051   9.021
 6858ETHO    O153146   3.556   6.873   9.118
 6858ETHO    C153147   3.416   6.894   9.097
 6858ETHO   H1153148   3.383   7.000   9.097
 6858ETHO   H1353149   3.400   6.876   8.988
 6858ETHO    C253150   3.332   6.816   9.209
 6858ETHO   H2153151   3.227   6.847   9.194
 6858ETHO   H2353152   3.378   6.837   9.308
 6859ETHO    O153153   3.345   6.681   9.178
 6859ETHO    C153154   3.252   6.602   9.235
 6859ETHO   H1153155   3.302   6.503   9.241
 6859ETHO   H1353156   3.243   6.637   9.341
 6859ETHO    C253157   3.128   6.610   9.150
 6859ETHO   H2153158   3.100   6.713   9.119
 6859ETHO   H2353159   3.040   6.574   9.207
 6860ETHO    O153160   3.146   6.532   9.037
 6860ETHO    C153161   3.031   6.507   8.951
 6860ETHO   H1153162   2.953   6.456   9.012
 6860ETHO   H1353163   2.987   6.601   8.910
 6860ETHO    C253164   3.074   6.409   8.837
 6860ETHO   H2153165   2.990   6.375   8.773
 6860ETHO   H2353166   3.109   6.318   8.890
 6861ETHO    O153167   3.168   6.469   8.746
 6861ETHO    C153168   3.236   6.375   8.657
 6861ETHO   H1153169   3.173   6.347   8.570
 6861ETHO   H1353170   3.254   6.285   8.719
 6861ETHO    C253171   3.371   6.430   8.613
 6861ETHO   H2153172   3.438   6.359   8.560
 6861ETHO   H2353173   3.428   6.477   8.696
 6862ETHO    O153174   3.345   6.539   8.525
 6862ETHO    C153175   3.465   6.619   8.499
 6862ETHO   H1153176   3.475   6.684   8.589
 6862ETHO   H1353177   3.555   6.560   8.474
 6862ETHO    C253178   3.415   6.711   8.380
 6862ETHO   H2153179   3.364   6.650   8.303
 6862ETHO   H2353180   3.503   6.765   8.339
 6863ETHO    O153181   3.327   6.810   8.433
 6863ETHO    C153182   3.248   6.881   8.330
 6863ETHO   H1153183   3.214   6.814   8.248
 6863ETHO   H1353184   3.313   6.947   8.270
 6863ETHO    C253185   3.131   6.961   8.391
 6863ETHO   H2153186   3.079   7.031   8.322
 6863ETHO   H2353187   3.161   7.022   8.479
 6864ETHO    O153188   3.030   6.869   8.427
 6864ETHO    C153189   3.043   6.806   8.557
 6864ETHO   H1153190   3.130   6.737   8.545
 6864ETHO   H1353191   3.062   6.879   8.638
 6864ETHO    C253192   2.928   6.712   8.597
 6864ETHO   H2153193   2.915   6.706   8.707
 6864ETHO   H2353194   2.836   6.755   8.553
 6865ETHO    O153195   2.936   6.584   8.540
 6865ETHO    C153196   2.820   6.500   8.564
 6865ETHO   H1153197   2.719   6.544   8.550
 6865ETHO   H1353198   2.820   6.480   8.673
 6865ETHO    C253199   2.820   6.359   8.502
 6865ETHO   H2153200   2.848   6.364   8.395
 6865ETHO   H2353201   2.719   6.313   8.499
 6866ETHO    O153202   2.903   6.272   8.575
 6866ETHO    C153203   2.901   6.140   8.522
 6866ETHO   H1153204   2.798   6.099   8.534
 6866ETHO   H1353205   2.916   6.143   8.412
 6866ETHO    C253206   3.000   6.053   8.598
 6866ETHO   H2153207   3.106   6.067   8.568
 6866ETHO   H2353208   2.990   5.950   8.556
 6867ETHO    O153209   2.976   6.044   8.734
 6867ETHO    C153210   3.082   5.974   8.793
 6867ETHO   H1153211   3.182   6.004   8.757
 6867ETHO   H1353212   3.066   5.870   8.755
 6867ETHO    C253213   3.088   5.967   8.947
 6867ETHO   H2153214   3.094   6.074   8.976
 6867ETHO   H2353215   3.177   5.913   8.986
 6868ETHO    O153216   2.966   5.901   8.993
 6868ETHO    C153217   2.950   5.924   9.139
 6868ETHO   H1153218   3.039   5.898   9.200
 6868ETHO   H1353219   2.920   6.030   9.157
 6868ETHO    C253220   2.841   5.841   9.198
 6868ETHO   H2153221   2.745   5.876   9.155
 6868ETHO   H2353222   2.841   5.852   9.308
 6869ETHO    O153223   2.854   5.703   9.161
 6869ETHO    C153224   2.764   5.617   9.226
 6869ETHO   H1153225   2.773   5.636   9.335
 6869ETHO   H1353226   2.788   5.511   9.205
 6869ETHO    C253227   2.613   5.634   9.192
 6869ETHO   H2153228   2.585   5.740   9.211
 6869ETHO   H2353229   2.544   5.582   9.261
 6870ETHO    O153230   2.589   5.605   9.059
 6870ETHO    C153231   2.451   5.609   9.035
 6870ETHO   H1153232   2.409   5.514   9.074
 6870ETHO   H1353233   2.394   5.696   9.075
 6870ETHO    C253234   2.430   5.605   8.882
 6870ETHO   H2153235   2.323   5.588   8.858
 6870ETHO   H2353236   2.482   5.518   8.837
 6871ETHO    O153237   2.471   5.727   8.827
 6871ETHO    C153238   2.421   5.735   8.694
 6871ETHO   H1153239   2.316   5.699   8.684
 6871ETHO   H1353240   2.487   5.667   8.637
 6871ETHO    C253241   2.421   5.884   8.641
 6871ETHO   H2153242   2.416   5.883   8.530
 6871ETHO   H2353243   2.516   5.929   8.676
 6872ETHO    O153244   2.312   5.965   8.699
 6872ETHO    C153245   2.328   6.098   8.647
 6872ETHO   H1153246   2.429   6.134   8.676
 6872ETHO   H1353247   2.327   6.109   8.537
 6872ETHO    C253248   2.218   6.188   8.706
 6872ETHO   H2153249   2.220   6.179   8.817
 6872ETHO   H2353250   2.249   6.291   8.681
 6873ETHO    O153251   2.094   6.145   8.644
 6873ETHO    C153252   1.990   6.231   8.672
 6873ETHO   H1153253   2.021   6.337   8.657
 6873ETHO   H1353254   1.911   6.210   8.597
 6873ETHO    C253255   1.944   6.225   8.816
 6873ETHO   H2153256   1.883   6.317   8.831
 6873ETHO   H2353257   2.020   6.238   8.896
 6874ETHO    O153258   1.872   6.104   8.833
 6874ETHO    C153259   1.788   6.108   8.943
 6874ETHO   H1153260   1.764   6.003   8.970
 6874ETHO   H1353261   1.842   6.146   9.032
 6874ETHO    C253262   1.646   6.182   8.937
 6874ETHO   H2153263   1.578   6.139   9.013
 6874ETHO   H2353264   1.598   6.151   8.842
 6875ETHO    O153265   1.664   6.325   8.931
 6875ETHO    C153266   1.528   6.384   8.929
 6875ETHO   H1153267   1.475   6.354   8.835
 6875ETHO   H1353268   1.465   6.359   9.017
 6875ETHO    C253269   1.543   6.538   8.933
 6875ETHO   H2153270   1.458   6.595   8.891
 6875ETHO   H2353271   1.626   6.577   8.870
 6876ETHO    O153272   1.561   6.591   9.061
 6876ETHO    C153273   1.561   6.733   9.061
 6876ETHO   H1153274   1.457   6.768   9.044
 6876ETHO   H1353275   1.622   6.773   8.978
 6876ETHO    C253276   1.620   6.788   9.188
 6876ETHO   H2153277   1.574   6.739   9.276
 6876ETHO   H2353278   1.601   6.898   9.186
 6877ETHO    O153279   1.762   6.783   9.180
 6877ETHO    C153280   1.819   6.822   9.309
 6877ETHO   H1153281   1.791   6.930   9.314
 6877ETHO   H1353282   1.783   6.762   9.395
 6877ETHO    C253283   1.971   6.838   9.292
 6877ETHO   H2153284   2.001   6.932   9.342
 6877ETHO   H2353285   2.011   6.842   9.188
 6878ETHO    O153286   2.039   6.727   9.363
 6878ETHO    C153287   2.067   6.603   9.294
 6878ETHO   H1153288   2.000   6.597   9.205
 6878ETHO   H1353289   2.036   6.519   9.359
 6878ETHO    C253290   2.213   6.575   9.254
 6878ETHO   H2153291   2.254   6.649   9.183
 6878ETHO   H2353292   2.212   6.483   9.191
 6879ETHO    O153293   2.307   6.561   9.356
 6879ETHO    C153294   2.443   6.566   9.308
 6879ETHO   H1153295   2.481   6.471   9.266
 6879ETHO   H1353296   2.449   6.637   9.224
 6879ETHO    C253297   2.528   6.593   9.426
 6879ETHO   H2153298   2.627   6.568   9.383
 6879ETHO   H2353299   2.512   6.540   9.522
 6880ETHO    O153300   2.542   6.741   9.429
 6880ETHO    C153301   2.631   6.776   9.540
 6880ETHO   H1153302   2.725   6.722   9.516
 6880ETHO   H1353303   2.593   6.738   9.637
 6880ETHO    C253304   2.652   6.923   9.552
 6880ETHO   H2153305   2.711   6.923   9.646
 6880ETHO   H2353306   2.557   6.977   9.571
 6881ETHO    O153307   2.726   6.996   9.454
 6881ETHO    C153308   2.755   7.131   9.498
 6881ETHO   H1153309   2.775   7.194   9.409
 6881ETHO   H1353310   2.669   7.184   9.543
 6881ETHO    C253311   2.866   7.148   9.599
 6881ETHO   H2153312   2.832   7.116   9.700
 6881ETHO   H2353313   2.880   7.258   9.611
 6882ETHO    O153314   2.993   7.074   9.576
 6882ETHO    C153315   3.068   7.116   9.459
 6882ETHO   H1153316   3.006   7.120   9.367
 6882ETHO   H1353317   3.139   7.032   9.442
 6882ETHO    C253318   3.142   7.252   9.471
 6882ETHO   H2153319   3.224   7.257   9.397
 6882ETHO   H2353320   3.188   7.265   9.571
 6883ETHO    O153321   3.056   7.367   9.450
 6883ETHO    C153322   3.048   7.387   9.309
 6883ETHO   H1153323   3.146   7.433   9.283
 6883ETHO   H1353324   3.035   7.294   9.250
 6883ETHO    C253325   2.939   7.484   9.256
 6883ETHO   H2153326   2.949   7.497   9.146
 6883ETHO   H2353327   2.937   7.584   9.303
 6884ETHO    O153328   2.816   7.417   9.287
 6884ETHO    C153329   2.706   7.487   9.224
 6884ETHO   H1153330   2.701   7.590   9.266
 6884ETHO   H1353331   2.734   7.499   9.117
 6884ETHO    C253332   2.572   7.410   9.231
 6884ETHO   H2153333   2.490   7.462   9.176
 6884ETHO   H2353334   2.550   7.399   9.339
 6885ETHO    O153335   2.587   7.286   9.163
 6885ETHO    C153336   2.479   7.201   9.205
 6885ETHO   H1153337   2.470   7.198   9.316
 6885ETHO   H1353338   2.385   7.230   9.153
 6885ETHO    C253339   2.522   7.055   9.164
 6885ETHO   H2153340   2.451   6.982   9.208
 6885ETHO   H2353341   2.623   7.024   9.200
 6886ETHO    O153342   2.526   7.031   9.019
 6886ETHO    C153343   2.452   6.915   8.978
 6886ETHO   H1153344   2.505   6.861   8.897
 6886ETHO   H1353345   2.461   6.843   9.062
 6886ETHO    C253346   2.300   6.932   8.946
 6886ETHO   H2153347   2.246   7.001   9.015
 6886ETHO   H2353348   2.247   6.835   8.956
 6887ETHO    O153349   2.283   6.972   8.810
 6887ETHO    C153350   2.159   6.916   8.749
 6887ETHO   H1153351   2.070   6.959   8.801
 6887ETHO   H1353352   2.155   6.805   8.745
 6887ETHO    C253353   2.145   6.971   8.606
 6887ETHO   H2153354   2.168   7.079   8.598
 6887ETHO   H2353355   2.041   6.954   8.572
 6888ETHO    O153356   2.227   6.908   8.511
 6888ETHO    C153357   2.187   6.943   8.380
 6888ETHO   H1153358   2.180   7.053   8.374
 6888ETHO   H1353359   2.085   6.903   8.358
 6888ETHO    C253360   2.286   6.888   8.280
 6888ETHO   H2153361   2.256   6.901   8.173
 6888ETHO   H2353362   2.306   6.781   8.297
 6889ETHO    O153363   2.403   6.969   8.283
 6889ETHO    C153364   2.499   6.921   8.191
 6889ETHO   H1153365   2.571   7.004   8.177
 6889ETHO   H1353366   2.452   6.898   8.093
 6889ETHO    C253367   2.585   6.794   8.237
 6889ETHO   H2153368   2.517   6.707   8.243
 6889ETHO   H2353369   2.626   6.803   8.340
 6890ETHO    O153370   2.682   6.762   8.133
 6890ETHO    C153371   2.753   6.643   8.160
 6890ETHO   H1153372   2.849   6.643   8.103
 6890ETHO   H1353373   2.782   6.629   8.266
 6890ETHO    C253374   2.670   6.522   8.115
 6890ETHO   H2153375   2.641   6.547   8.010
 6890ETHO   H2353376   2.571   6.509   8.164
 6890ETHO    OZ53377   2.743   6.405   8.124
 6890ETHO   HZ153378   2.699   6.338   8.072
 6891ETHO    O153379  17.515   7.785  10.418
 6891ETHO   HO153380  17.519   7.881  10.429
 6891ETHO    C153381  17.632   7.735  10.488
 6891ETHO   H1153382  17.663   7.811  10.563
 6891ETHO   H1353383  17.713   7.702  10.420
 6891ETHO    C253384  17.596   7.617  10.574
 6891ETHO   H2153385  17.494   7.637  10.613
 6891ETHO   H2353386  17.662   7.605  10.663
 6892ETHO    O153387  17.588   7.486  10.506
 6892ETHO    C153388  17.565   7.394  10.605
 6892ETHO   H1153389  17.596   7.291  10.579
 6892ETHO   H1353390  17.621   7.416  10.699
 6892ETHO    C253391  17.419   7.382  10.640
 6892ETHO   H2153392  17.378   7.471  10.692
 6892ETHO   H2353393  17.400   7.297  10.709
 6893ETHO    O153394  17.342   7.367  10.525
 6893ETHO    C153395  17.214   7.310  10.561
 6893ETHO   H1153396  17.149   7.353  10.482
 6893ETHO   H1353397  17.184   7.360  10.655
 6893ETHO    C253398  17.211   7.160  10.547
 6893ETHO   H2153399  17.153   7.112  10.629
 6893ETHO   H2353400  17.316   7.127  10.558
 6894ETHO    O153401  17.157   7.113  10.425
 6894ETHO    C153402  17.167   6.971  10.421
 6894ETHO   H1153403  17.264   6.940  10.465
 6894ETHO   H1353404  17.089   6.924  10.484
 6894ETHO    C253405  17.159   6.928  10.276
 6894ETHO   H2153406  17.172   6.819  10.256
 6894ETHO   H2353407  17.240   6.981  10.223
 6895ETHO    O153408  17.036   6.976  10.216
 6895ETHO    C153409  16.917   6.917  10.266
 6895ETHO   H1153410  16.915   6.810  10.234
 6895ETHO   H1353411  16.913   6.933  10.376
 6895ETHO    C253412  16.800   6.996  10.207
 6895ETHO   H2153413  16.844   7.074  10.141
 6895ETHO   H2353414  16.752   7.041  10.296
 6896ETHO    O153415  16.715   6.920  10.128
 6896ETHO    C153416  16.612   6.858  10.209
 6896ETHO   H1153417  16.643   6.783  10.284
 6896ETHO   H1353418  16.546   6.932  10.260
 6896ETHO    C253419  16.507   6.777  10.117
 6896ETHO   H2153420  16.413   6.761  10.176
 6896ETHO   H2353421  16.555   6.683  10.082
 6897ETHO    O153422  16.461   6.848  10.005
 6897ETHO    C153423  16.425   6.747   9.904
 6897ETHO   H1153424  16.525   6.704   9.882
 6897ETHO   H1353425  16.360   6.668   9.948
 6897ETHO    C253426  16.374   6.794   9.768
 6897ETHO   H2153427  16.396   6.703   9.708
 6897ETHO   H2353428  16.429   6.884   9.734
 6898ETHO    O153429  16.236   6.816   9.775
 6898ETHO    C153430  16.167   6.811   9.648
 6898ETHO   H1153431  16.211   6.890   9.583
 6898ETHO   H1353432  16.069   6.859   9.667
 6898ETHO    C253433  16.146   6.679   9.577
 6898ETHO   H2153434  16.247   6.631   9.573
 6898ETHO   H2353435  16.110   6.701   9.474
 6899ETHO    O153436  16.056   6.600   9.647
 6899ETHO    C153437  15.997   6.501   9.565
 6899ETHO   H1153438  15.894   6.489   9.603
 6899ETHO   H1353439  15.974   6.539   9.463
 6899ETHO    C253440  16.083   6.375   9.568
 6899ETHO   H2153441  16.189   6.389   9.535
 6899ETHO   H2353442  16.039   6.300   9.499
 6900ETHO    O153443  16.083   6.304   9.695
 6900ETHO    C153444  16.157   6.186   9.697
 6900ETHO   H1153445  16.264   6.214   9.692
 6900ETHO   H1353446  16.129   6.130   9.605
 6900ETHO    C253447  16.141   6.098   9.825
 6900ETHO   H2153448  16.102   6.163   9.906
 6900ETHO   H2353449  16.245   6.066   9.850
 6901ETHO    O153450  16.069   5.980   9.804
 6901ETHO    C153451  15.929   6.004   9.822
 6901ETHO   H1153452  15.914   6.068   9.912
 6901ETHO   H1353453  15.902   6.072   9.739
 6901ETHO    C253454  15.857   5.870   9.829
 6901ETHO   H2153455  15.892   5.796   9.903
 6901ETHO   H2353456  15.750   5.893   9.849
 6902ETHO    O153457  15.869   5.808   9.698
 6902ETHO    C153458  15.792   5.688   9.685
 6902ETHO   H1153459  15.682   5.700   9.687
 6902ETHO   H1353460  15.803   5.620   9.772
 6902ETHO    C253461  15.809   5.606   9.550
 6902ETHO   H2153462  15.749   5.512   9.549
 6902ETHO   H2353463  15.916   5.581   9.530
 6903ETHO    O153464  15.768   5.691   9.443
 6903ETHO    C153465  15.809   5.630   9.322
 6903ETHO   H1153466  15.917   5.607   9.333
 6903ETHO   H1353467  15.767   5.528   9.309
 6903ETHO    C253468  15.793   5.728   9.203
 6903ETHO   H2153469  15.859   5.694   9.120
 6903ETHO   H2353470  15.833   5.825   9.238
 6904ETHO    O153471  15.662   5.743   9.168
 6904ETHO    C153472  15.646   5.800   9.038
 6904ETHO   H1153473  15.537   5.797   9.015
 6904ETHO   H1353474  15.702   5.744   8.960
 6904ETHO    C253475  15.696   5.942   9.043
 6904ETHO   H2153476  15.670   5.973   8.940
 6904ETHO   H2353477  15.805   5.953   9.062
 6905ETHO    O153478  15.617   6.019   9.136
 6905ETHO    C153479  15.639   6.167   9.126
 6905ETHO   H1153480  15.737   6.189   9.175
 6905ETHO   H1353481  15.645   6.199   9.020
 6905ETHO    C253482  15.528   6.239   9.197
 6905ETHO   H2153483  15.505   6.191   9.294
 6905ETHO   H2353484  15.560   6.342   9.224
 6906ETHO    O153485  15.413   6.246   9.111
 6906ETHO    C153486  15.340   6.370   9.136
 6906ETHO   H1153487  15.304   6.373   9.241
 6906ETHO   H1353488  15.410   6.456   9.130
 6906ETHO    C253489  15.225   6.386   9.043
 6906ETHO   H2153490  15.165   6.466   9.092
 6906ETHO   H2353491  15.161   6.296   9.045
 6907ETHO    O153492  15.267   6.422   8.913
 6907ETHO    C153493  15.153   6.436   8.829
 6907ETHO   H1153494  15.107   6.335   8.815
 6907ETHO   H1353495  15.076   6.493   8.884
 6907ETHO    C253496  15.159   6.497   8.686
 6907ETHO   H2153497  15.065   6.489   8.627
 6907ETHO   H2353498  15.243   6.444   8.637
 6908ETHO    O153499  15.202   6.632   8.692
 6908ETHO    C153500  15.172   6.704   8.568
 6908ETHO   H1153501  15.070   6.680   8.533
 6908ETHO   H1353502  15.186   6.813   8.585
 6908ETHO    C253503  15.284   6.663   8.471
 6908ETHO   H2153504  15.246   6.700   8.373
 6908ETHO   H2353505  15.299   6.553   8.462
 6909ETHO    O153506  15.407   6.720   8.500
 6909ETHO    C153507  15.493   6.712   8.384
 6909ETHO   H1153508  15.567   6.795   8.380
 6909ETHO   H1353509  15.432   6.732   8.294
 6909ETHO    C253510  15.583   6.586   8.372
 6909ETHO   H2153511  15.649   6.576   8.461
 6909ETHO   H2353512  15.647   6.589   8.282
 6910ETHO    O153513  15.501   6.471   8.346
 6910ETHO    C153514  15.429   6.466   8.215
 6910ETHO   H1153515  15.353   6.548   8.215
 6910ETHO   H1353516  15.504   6.495   8.139
 6910ETHO    C253517  15.362   6.337   8.176
 6910ETHO   H2153518  15.304   6.365   8.085
 6910ETHO   H2353519  15.296   6.301   8.257
 6911ETHO    O153520  15.458   6.236   8.145
 6911ETHO    C153521  15.386   6.121   8.105
 6911ETHO   H1153522  15.339   6.141   8.007
 6911ETHO   H1353523  15.300   6.095   8.170
 6911ETHO    C253524  15.464   5.986   8.078
 6911ETHO   H2153525  15.506   5.954   8.175
 6911ETHO   H2353526  15.551   6.008   8.012
 6912ETHO    O153527  15.387   5.887   8.013
 6912ETHO    C153528  15.465   5.769   8.000
 6912ETHO   H1153529  15.556   5.803   7.946
 6912ETHO   H1353530  15.499   5.739   8.102
 6912ETHO    C253531  15.388   5.657   7.923
 6912ETHO   H2153532  15.451   5.566   7.930
 6912ETHO   H2353533  15.293   5.639   7.978
 6913ETHO    O153534  15.373   5.707   7.793
 6913ETHO    C153535  15.294   5.613   7.716
 6913ETHO   H1153536  15.193   5.604   7.761
 6913ETHO   H1353537  15.343   5.514   7.701
 6913ETHO    C253538  15.265   5.653   7.566
 6913ETHO   H2153539  15.239   5.761   7.565
 6913ETHO   H2353540  15.173   5.604   7.528
 6914ETHO    O153541  15.373   5.631   7.481
 6914ETHO    C153542  15.387   5.495   7.437
 6914ETHO   H1153543  15.406   5.425   7.521
 6914ETHO   H1353544  15.300   5.466   7.375
 6914ETHO    C253545  15.511   5.490   7.353
 6914ETHO   H2153546  15.505   5.575   7.282
 6914ETHO   H2353547  15.509   5.392   7.300
 6915ETHO    O153548  15.632   5.495   7.424
 6915ETHO    C153549  15.755   5.504   7.358
 6915ETHO   H1153550  15.760   5.577   7.274
 6915ETHO   H1353551  15.780   5.409   7.307
 6915ETHO    C253552  15.871   5.544   7.450
 6915ETHO   H2153553  15.965   5.512   7.400
 6915ETHO   H2353554  15.853   5.490   7.546
 6916ETHO    O153555  15.866   5.688   7.481
 6916ETHO    C153556  15.982   5.742   7.550
 6916ETHO   H1153557  15.977   5.852   7.565
 6916ETHO   H1353558  16.006   5.706   7.652
 6916ETHO    C253559  16.104   5.745   7.461
 6916ETHO   H2153560  16.174   5.817   7.508
 6916ETHO   H2353561  16.070   5.778   7.361
 6917ETHO    O153562  16.162   5.616   7.440
 6917ETHO    C153563  16.251   5.618   7.324
 6917ETHO   H1153564  16.266   5.722   7.286
 6917ETHO   H1353565  16.201   5.560   7.244
 6917ETHO    C253566  16.387   5.547   7.363
 6917ETHO   H2153567  16.400   5.552   7.473
 6917ETHO   H2353568  16.465   5.608   7.314
 6918ETHO    O153569  16.397   5.414   7.324
 6918ETHO    C153570  16.525   5.360   7.290
 6918ETHO   H1153571  16.606   5.396   7.358
 6918ETHO   H1353572  16.527   5.252   7.312
 6918ETHO    C253573  16.548   5.395   7.144
 6918ETHO   H2153574  16.462   5.397   7.073
 6918ETHO   H2353575  16.617   5.317   7.106
 6919ETHO    O153576  16.635   5.505   7.121
 6919ETHO    C153577  16.628   5.557   6.983
 6919ETHO   H1153578  16.643   5.467   6.919
 6919ETHO   H1353579  16.711   5.630   6.972
 6919ETHO    C253580  16.495   5.628   6.938
 6919ETHO   H2153581  16.411   5.558   6.955
 6919ETHO   H2353582  16.503   5.652   6.830
 6920ETHO    O153583  16.478   5.750   6.997
 6920ETHO    C153584  16.343   5.790   6.982
 6920ETHO   H1153585  16.309   5.759   6.881
 6920ETHO   H1353586  16.286   5.733   7.059
 6920ETHO    C253587  16.326   5.941   7.007
 6920ETHO   H2153588  16.222   5.948   6.969
 6920ETHO   H2353589  16.401   5.987   6.939
 6921ETHO    O153590  16.336   5.990   7.142
 6921ETHO    C153591  16.281   6.121   7.167
 6921ETHO   H1153592  16.349   6.188   7.111
 6921ETHO   H1353593  16.178   6.126   7.128
 6921ETHO    C253594  16.283   6.152   7.320
 6921ETHO   H2153595  16.249   6.254   7.350
 6921ETHO   H2353596  16.390   6.133   7.344
 6922ETHO    O153597  16.203   6.064   7.399
 6922ETHO    C153598  16.064   6.102   7.404
 6922ETHO   H1153599  16.038   6.175   7.324
 6922ETHO   H1353600  16.003   6.010   7.386
 6922ETHO    C253601  16.025   6.161   7.542
 6922ETHO   H2153602  16.058   6.094   7.625
 6922ETHO   H2353603  15.917   6.183   7.558
 6923ETHO    O153604  16.090   6.289   7.558
 6923ETHO    C153605  16.065   6.345   7.687
 6923ETHO   H1153606  15.963   6.390   7.686
 6923ETHO   H1353607  16.049   6.273   7.771
 6923ETHO    C253608  16.152   6.460   7.726
 6923ETHO   H2153609  16.126   6.505   7.825
 6923ETHO   H2353610  16.147   6.536   7.645
 6924ETHO    O153611  16.291   6.420   7.735
 6924ETHO    C153612  16.365   6.508   7.817
 6924ETHO   H1153613  16.328   6.506   7.922
 6924ETHO   H1353614  16.350   6.609   7.773
 6924ETHO    C253615  16.508   6.473   7.816
 6924ETHO   H2153616  16.516   6.364   7.835
 6924ETHO   H2353617  16.556   6.544   7.886
 6925ETHO    O153618  16.554   6.497   7.686
 6925ETHO    C153619  16.691   6.455   7.681
 6925ETHO   H1153620  16.742   6.474   7.778
 6925ETHO   H1353621  16.694   6.346   7.658
 6925ETHO    C253622  16.762   6.506   7.560
 6925ETHO   H2153623  16.807   6.605   7.583
 6925ETHO   H2353624  16.700   6.510   7.468
 6926ETHO    O153625  16.860   6.407   7.516
 6926ETHO    C153626  16.982   6.416   7.592
 6926ETHO   H1153627  16.956   6.430   7.700
 6926ETHO   H1353628  17.042   6.504   7.562
 6926ETHO    C253629  17.080   6.299   7.578
 6926ETHO   H2153630  17.178   6.342   7.609
 6926ETHO   H2353631  17.091   6.281   7.469
 6927ETHO    O153632  17.045   6.176   7.649
 6927ETHO    C153633  17.108   6.071   7.578
 6927ETHO   H1153634  17.108   6.080   7.467
 6927ETHO   H1353635  17.216   6.060   7.603
 6927ETHO    C253636  17.050   5.938   7.611
 6927ETHO   H2153637  17.034   5.931   7.720
 6927ETHO   H2353638  17.116   5.858   7.572
 6928ETHO    O153639  16.920   5.915   7.548
 6928ETHO    C153640  16.816   5.986   7.612
 6928ETHO   H1153641  16.830   6.094   7.590
 6928ETHO   H1353642  16.822   5.967   7.721
 6928ETHO    C253643  16.686   5.936   7.560
 6928ETHO   H2153644  16.712   5.834   7.526
 6928ETHO   H2353645  16.649   6.005   7.481
 6929ETHO    O153646  16.598   5.923   7.674
 6929ETHO    C153647  16.555   6.046   7.723
 6929ETHO   H1153648  16.636   6.110   7.764
 6929ETHO   H1353649  16.500   6.096   7.641
 6929ETHO    C253650  16.454   6.037   7.836
 6929ETHO   H2153651  16.404   6.136   7.853
 6929ETHO   H2353652  16.508   6.021   7.931
 6930ETHO    O153653  16.355   5.939   7.808
 6930ETHO    C153654  16.272   5.926   7.918
 6930ETHO   H1153655  16.320   5.906   8.016
 6930ETHO   H1353656  16.215   5.832   7.901
 6930ETHO    C253657  16.169   6.031   7.929
 6930ETHO   H2153658  16.116   6.050   7.833
 6930ETHO   H2353659  16.218   6.126   7.959
 6931ETHO    O153660  16.073   6.002   8.035
 6931ETHO    C153661  15.954   5.944   7.972
 6931ETHO   H1153662  15.907   6.022   7.908
 6931ETHO   H1353663  15.984   5.861   7.904
 6931ETHO    C253664  15.849   5.886   8.074
 6931ETHO   H2153665  15.751   5.896   8.023
 6931ETHO   H2353666  15.845   5.965   8.153
 6932ETHO    O153667  15.862   5.751   8.112
 6932ETHO    C153668  16.001   5.713   8.149
 6932ETHO   H1153669  16.059   5.712   8.054
 6932ETHO   H1353670  16.050   5.790   8.212
 6932ETHO    C253671  16.022   5.568   8.215
 6932ETHO   H2153672  16.130   5.555   8.237
 6932ETHO   H2353673  15.976   5.491   8.149
 6933ETHO    O153674  15.950   5.559   8.332
 6933ETHO    C153675  15.985   5.442   8.399
 6933ETHO   H1153676  15.942   5.360   8.338
 6933ETHO   H1353677  16.095   5.432   8.411
 6933ETHO    C253678  15.918   5.444   8.532
 6933ETHO   H2153679  15.956   5.347   8.570
 6933ETHO   H2353680  15.808   5.452   8.525
 6934ETHO    O153681  15.972   5.545   8.611
 6934ETHO    C153682  15.932   5.529   8.744
 6934ETHO   H1153683  15.822   5.545   8.745
 6934ETHO   H1353684  15.965   5.428   8.779
 6934ETHO    C253685  15.988   5.633   8.846
 6934ETHO   H2153686  16.099   5.635   8.839
 6934ETHO   H2353687  15.948   5.599   8.944
 6935ETHO    O153688  15.933   5.758   8.808
 6935ETHO    C153689  16.012   5.861   8.856
 6935ETHO   H1153690  16.119   5.832   8.850
 6935ETHO   H1353691  15.987   5.881   8.962
 6935ETHO    C253692  15.998   5.988   8.767
 6935ETHO   H2153693  16.053   6.071   8.817
 6935ETHO   H2353694  15.890   6.011   8.763
 6936ETHO    O153695  16.063   5.957   8.641
 6936ETHO    C153696  16.039   6.056   8.552
 6936ETHO   H1153697  15.930   6.051   8.533
 6936ETHO   H1353698  16.072   6.154   8.591
 6936ETHO    C253699  16.138   6.033   8.435
 6936ETHO   H2153700  16.095   6.082   8.345
 6936ETHO   H2353701  16.141   5.926   8.403
 6937ETHO    O153702  16.280   6.080   8.459
 6937ETHO    C153703  16.378   6.002   8.388
 6937ETHO   H1153704  16.345   5.901   8.357
 6937ETHO   H1353705  16.457   5.985   8.464
 6937ETHO    C253706  16.423   6.067   8.249
 6937ETHO   H2153707  16.328   6.098   8.202
 6937ETHO   H2353708  16.485   5.990   8.198
 6938ETHO    O153709  16.516   6.175   8.272
 6938ETHO    C153710  16.562   6.229   8.153
 6938ETHO   H1153711  16.649   6.163   8.131
 6938ETHO   H1353712  16.487   6.207   8.074
 6938ETHO    C253713  16.600   6.378   8.147
 6938ETHO   H2153714  16.659   6.388   8.240
 6938ETHO   H2353715  16.669   6.403   8.064
 6939ETHO    O153716  16.483   6.459   8.147
 6939ETHO    C153717  16.509   6.591   8.197
 6939ETHO   H1153718  16.595   6.622   8.133
 6939ETHO   H1353719  16.550   6.599   8.300
 6939ETHO    C253720  16.394   6.688   8.205
 6939ETHO   H2153721  16.413   6.768   8.280
 6939ETHO   H2353722  16.308   6.625   8.238
 6940ETHO    O153723  16.370   6.745   8.076
 6940ETHO    C153724  16.411   6.876   8.055
 6940ETHO   H1153725  16.346   6.947   8.111
 6940ETHO   H1353726  16.512   6.892   8.099
 6940ETHO    C253727  16.393   6.917   7.912
 6940ETHO   H2153728  16.448   6.842   7.851
 6940ETHO   H2353729  16.452   7.009   7.896
 6941ETHO    O153730  16.252   6.920   7.877
 6941ETHO    C153731  16.222   6.976   7.754
 6941ETHO   H1153732  16.257   6.910   7.672
 6941ETHO   H1353733  16.273   7.075   7.744
 6941ETHO    C253734  16.072   7.018   7.756
 6941ETHO   H2153735  16.021   6.924   7.786
 6941ETHO   H2353736  16.025   7.047   7.660
 6942ETHO    O153737  16.043   7.122   7.849
 6942ETHO    C153738  15.906   7.165   7.838
 6942ETHO   H1153739  15.881   7.178   7.731
 6942ETHO   H1353740  15.833   7.090   7.878
 6942ETHO    C253741  15.891   7.303   7.907
 6942ETHO   H2153742  15.787   7.340   7.901
 6942ETHO   H2353743  15.956   7.373   7.850
 6943ETHO    O153744  15.924   7.304   8.047
 6943ETHO    C153745  15.862   7.408   8.113
 6943ETHO   H1153746  15.878   7.503   8.059
 6943ETHO   H1353747  15.760   7.380   8.148
 6943ETHO    C253748  15.955   7.418   8.239
 6943ETHO   H2153749  15.948   7.519   8.285
 6943ETHO   H2353750  16.058   7.402   8.201
 6944ETHO    O153751  15.915   7.315   8.333
 6944ETHO    C153752  16.015   7.289   8.425
 6944ETHO   H1153753  15.989   7.191   8.470
 6944ETHO   H1353754  16.118   7.276   8.386
 6944ETHO    C253755  16.026   7.390   8.536
 6944ETHO   H2153756  15.946   7.365   8.609
 6944ETHO   H2353757  16.008   7.494   8.501
 6945ETHO    O153758  16.147   7.389   8.610
 6945ETHO    C153759  16.128   7.419   8.748
 6945ETHO   H1153760  16.093   7.525   8.753
 6945ETHO   H1353761  16.062   7.349   8.804
 6945ETHO    C253762  16.256   7.410   8.833
 6945ETHO   H2153763  16.329   7.469   8.773
 6945ETHO   H2353764  16.244   7.468   8.926
 6946ETHO    O153765  16.308   7.276   8.839
 6946ETHO    C153766  16.441   7.277   8.888
 6946ETHO   H1153767  16.517   7.340   8.836
 6946ETHO   H1353768  16.488   7.180   8.863
 6946ETHO    C253769  16.466   7.300   9.034
 6946ETHO   H2153770  16.570   7.275   9.063
 6946ETHO   H2353771  16.398   7.223   9.075
 6947ETHO    O153772  16.428   7.431   9.073
 6947ETHO    C153773  16.410   7.434   9.214
 6947ETHO   H1153774  16.374   7.533   9.250
 6947ETHO   H1353775  16.346   7.351   9.250
 6947ETHO    C253776  16.550   7.415   9.288
 6947ETHO   H2153777  16.539   7.455   9.391
 6947ETHO   H2353778  16.627   7.481   9.242
 6948ETHO    O153779  16.616   7.289   9.296
 6948ETHO    C153780  16.748   7.294   9.335
 6948ETHO   H1153781  16.760   7.377   9.408
 6948ETHO   H1353782  16.814   7.324   9.251
 6948ETHO    C253783  16.804   7.156   9.375
 6948ETHO   H2153784  16.725   7.091   9.419
 6948ETHO   H2353785  16.889   7.151   9.446
 6949ETHO    O153786  16.844   7.084   9.261
 6949ETHO    C153787  16.843   6.940   9.275
 6949ETHO   H1153788  16.876   6.910   9.377
 6949ETHO   H1353789  16.738   6.908   9.258
 6949ETHO    C253790  16.933   6.859   9.176
 6949ETHO   H2153791  16.921   6.752   9.206
 6949ETHO   H2353792  17.043   6.874   9.173
 6950ETHO    O153793  16.880   6.865   9.041
 6950ETHO    C153794  16.937   6.777   8.955
 6950ETHO   H1153795  16.941   6.674   8.996
 6950ETHO   H1353796  17.042   6.805   8.935
 6950ETHO    C253797  16.876   6.787   8.816
 6950ETHO   H2153798  16.955   6.749   8.748
 6950ETHO   H2353799  16.847   6.889   8.784
 6951ETHO    O153800  16.769   6.698   8.798
 6951ETHO    C153801  16.692   6.718   8.677
 6951ETHO   H1153802  16.644   6.818   8.680
 6951ETHO   H1353803  16.762   6.728   8.591
 6951ETHO    C253804  16.579   6.606   8.637
 6951ETHO   H2153805  16.532   6.649   8.546
 6951ETHO   H2353806  16.509   6.605   8.723
 6952ETHO    O153807  16.629   6.475   8.605
 6952ETHO    C153808  16.542   6.385   8.556
 6952ETHO   H1153809  16.592   6.286   8.549
 6952ETHO   H1353810  16.514   6.423   8.456
 6952ETHO    C253811  16.416   6.371   8.646
 6952ETHO   H2153812  16.355   6.285   8.611
 6952ETHO   H2353813  16.353   6.463   8.647
 6953ETHO    O153814  16.461   6.319   8.776
 6953ETHO    C153815  16.359   6.277   8.861
 6953ETHO   H1153816  16.376   6.324   8.961
 6953ETHO   H1353817  16.260   6.314   8.829
 6953ETHO    C253818  16.349   6.124   8.877
 6953ETHO   H2153819  16.352   6.087   8.772
 6953ETHO   H2353820  16.254   6.104   8.931
 6954ETHO    O153821  16.459   6.068   8.949
 6954ETHO    C153822  16.432   5.929   8.966
 6954ETHO   H1153823  16.325   5.905   8.982
 6954ETHO   H1353824  16.491   5.889   9.052
 6954ETHO    C253825  16.473   5.843   8.838
 6954ETHO   H2153826  16.581   5.871   8.837
 6954ETHO   H2353827  16.412   5.869   8.749
 6955ETHO    O153828  16.457   5.707   8.876
 6955ETHO    C153829  16.484   5.616   8.775
 6955ETHO   H1153830  16.411   5.634   8.694
 6955ETHO   H1353831  16.585   5.641   8.737
 6955ETHO    C253832  16.469   5.476   8.822
 6955ETHO   H2153833  16.449   5.420   8.728
 6955ETHO   H2353834  16.376   5.470   8.884
 6956ETHO    O153835  16.577   5.418   8.901
 6956ETHO    C153836  16.542   5.285   8.936
 6956ETHO   H1153837  16.445   5.283   8.990
 6956ETHO   H1353838  16.610   5.254   9.018
 6956ETHO    C253839  16.579   5.174   8.829
 6956ETHO   H2153840  16.518   5.190   8.738
 6956ETHO   H2353841  16.556   5.072   8.867
 6957ETHO    O153842  16.724   5.167   8.805
 6957ETHO    C153843  16.759   5.097   8.684
 6957ETHO   H1153844  16.862   5.057   8.681
 6957ETHO   H1353845  16.704   5.001   8.674
 6957ETHO    C253846  16.754   5.187   8.557
 6957ETHO   H2153847  16.655   5.238   8.566
 6957ETHO   H2353848  16.753   5.120   8.469
 6958ETHO    O153849  16.859   5.281   8.548
 6958ETHO    C153850  16.873   5.340   8.420
 6958ETHO   H1153851  16.882   5.260   8.344
 6958ETHO   H1353852  16.787   5.400   8.383
 6958ETHO    C253853  16.984   5.446   8.406
 6958ETHO   H2153854  16.998   5.450   8.296
 6958ETHO   H2353855  17.078   5.409   8.453
 6959ETHO    O153856  16.938   5.571   8.453
 6959ETHO    C153857  17.041   5.664   8.445
 6959ETHO   H1153858  17.126   5.617   8.499
 6959ETHO   H1353859  17.065   5.682   8.338
 6959ETHO    C253860  17.003   5.798   8.521
 6959ETHO   H2153861  17.095   5.859   8.529
 6959ETHO   H2353862  16.982   5.783   8.629
 6960ETHO    O153863  16.892   5.874   8.467
 6960ETHO    C153864  16.837   5.967   8.560
 6960ETHO   H1153865  16.746   6.010   8.514
 6960ETHO   H1353866  16.800   5.912   8.649
 6960ETHO    C253867  16.933   6.093   8.592
 6960ETHO   H2153868  17.013   6.053   8.658
 6960ETHO   H2353869  16.868   6.166   8.644
 6961ETHO    O153870  16.992   6.176   8.495
 6961ETHO    C153871  16.893   6.228   8.407
 6961ETHO   H1153872  16.802   6.263   8.460
 6961ETHO   H1353873  16.877   6.154   8.326
 6961ETHO    C253874  16.960   6.356   8.343
 6961ETHO   H2153875  16.917   6.361   8.240
 6961ETHO   H2353876  17.068   6.333   8.334
 6962ETHO    O153877  16.944   6.472   8.421
 6962ETHO    C153878  16.972   6.587   8.350
 6962ETHO   H1153879  17.059   6.574   8.281
 6962ETHO   H1353880  16.892   6.620   8.281
 6962ETHO    C253881  17.022   6.708   8.425
 6962ETHO   H2153882  16.936   6.754   8.477
 6962ETHO   H2353883  17.061   6.769   8.340
 6963ETHO    O153884  17.120   6.667   8.517
 6963ETHO    C153885  17.202   6.768   8.570
 6963ETHO   H1153886  17.270   6.706   8.633
 6963ETHO   H1353887  17.154   6.837   8.642
 6963ETHO    C253888  17.278   6.843   8.463
 6963ETHO   H2153889  17.307   6.770   8.385
 6963ETHO   H2353890  17.372   6.890   8.500
 6964ETHO    O153891  17.210   6.950   8.404
 6964ETHO    C153892  17.275   7.015   8.289
 6964ETHO   H1153893  17.361   7.074   8.326
 6964ETHO   H1353894  17.305   6.944   8.210
 6964ETHO    C253895  17.174   7.117   8.225
 6964ETHO   H2153896  17.235   7.187   8.165
 6964ETHO   H2353897  17.131   7.176   8.309
 6965ETHO    O153898  17.075   7.056   8.154
 6965ETHO    C153899  16.990   7.148   8.097
 6965ETHO   H1153900  17.023   7.254   8.091
 6965ETHO   H1353901  16.891   7.132   8.145
 6965ETHO    C253902  16.955   7.101   7.952
 6965ETHO   H2153903  17.051   7.079   7.900
 6965ETHO   H2353904  16.900   7.185   7.905
 6966ETHO    O153905  16.871   6.988   7.951
 6966ETHO    C153906  16.786   6.978   7.835
 6966ETHO   H1153907  16.721   6.891   7.855
 6966ETHO   H1353908  16.713   7.062   7.825
 6966ETHO    C253909  16.873   6.965   7.712
 6966ETHO   H2153910  16.814   6.906   7.638
 6966ETHO   H2353911  16.948   6.884   7.717
 6967ETHO    O153912  16.930   7.088   7.658
 6967ETHO    C153913  16.942   7.079   7.519
 6967ETHO   H1153914  16.847   7.101   7.467
 6967ETHO   H1353915  16.981   6.982   7.480
 6967ETHO    C253916  17.046   7.177   7.473
 6967ETHO   H2153917  17.052   7.169   7.362
 6967ETHO   H2353918  17.143   7.165   7.527
 6968ETHO    O153919  16.993   7.310   7.494
 6968ETHO    C153920  17.089   7.401   7.449
 6968ETHO   H1153921  17.176   7.380   7.516
 6968ETHO   H1353922  17.134   7.366   7.354
 6968ETHO    C253923  17.043   7.545   7.448
 6968ETHO   H2153924  16.932   7.550   7.438
 6968ETHO   H2353925  17.088   7.606   7.367
 6969ETHO    O153926  17.072   7.596   7.576
 6969ETHO    C153927  16.990   7.715   7.605
 6969ETHO   H1153928  16.981   7.793   7.526
 6969ETHO   H1353929  16.886   7.687   7.633
 6969ETHO    C253930  17.056   7.796   7.719
 6969ETHO   H2153931  16.986   7.881   7.735
 6969ETHO   H2353932  17.148   7.843   7.679
 6970ETHO    O153933  17.065   7.701   7.822
 6970ETHO    C153934  17.140   7.757   7.932
 6970ETHO   H1153935  17.225   7.821   7.899
 6970ETHO   H1353936  17.074   7.831   7.981
 6970ETHO    C253937  17.189   7.662   8.041
 6970ETHO   H2153938  17.245   7.714   8.121
 6970ETHO   H2353939  17.247   7.583   7.990
 6971ETHO    O153940  17.062   7.607   8.094
 6971ETHO    C153941  17.082   7.522   8.204
 6971ETHO   H1153942  17.005   7.443   8.192
 6971ETHO   H1353943  17.183   7.476   8.206
 6971ETHO    C253944  17.043   7.593   8.333
 6971ETHO   H2153945  16.937   7.625   8.326
 6971ETHO   H2353946  17.044   7.523   8.419
 6972ETHO    O153947  17.119   7.708   8.372
 6972ETHO    C153948  17.246   7.662   8.416
 6972ETHO   H1153949  17.307   7.633   8.327
 6972ETHO   H1353950  17.238   7.571   8.479
 6972ETHO    C253951  17.336   7.771   8.484
 6972ETHO   H2153952  17.346   7.858   8.416
 6972ETHO   H2353953  17.438   7.729   8.498
 6973ETHO    O153954  17.284   7.814   8.608
 6973ETHO    C153955  17.378   7.901   8.675
 6973ETHO   H1153956  17.483   7.866   8.670
 6973ETHO   H1353957  17.382   8.003   8.631
 6973ETHO    C253958  17.335   7.933   8.817
 6973ETHO   H2153959  17.226   7.953   8.818
 6973ETHO   H2353960  17.395   8.023   8.839
 6974ETHO    O153961  17.363   7.831   8.907
 6974ETHO    C153962  17.329   7.880   9.042
 6974ETHO   H1153963  17.225   7.919   9.047
 6974ETHO   H1353964  17.399   7.962   9.072
 6974ETHO    C253965  17.329   7.768   9.154
 6974ETHO   H2153966  17.273   7.820   9.234
 6974ETHO   H2353967  17.430   7.727   9.176
 6975ETHO    O153968  17.242   7.662   9.117
 6975ETHO    C153969  17.180   7.599   9.226
 6975ETHO   H1153970  17.261   7.568   9.295
 6975ETHO   H1353971  17.115   7.670   9.281
 6975ETHO    C253972  17.104   7.467   9.185
 6975ETHO   H2153973  17.093   7.404   9.276
 6975ETHO   H2353974  17.165   7.411   9.111
 6976ETHO    O153975  16.970   7.483   9.139
 6976ETHO    C153976  16.955   7.537   9.008
 6976ETHO   H1153977  16.992   7.469   8.929
 6976ETHO   H1353978  17.013   7.631   8.995
 6976ETHO    C253979  16.809   7.556   8.972
 6976ETHO   H2153980  16.743   7.480   9.019
 6976ETHO   H2353981  16.802   7.557   8.861
 6977ETHO    O153982  16.758   7.680   9.019
 6977ETHO    C153983  16.625   7.704   8.966
 6977ETHO   H1153984  16.645   7.769   8.878
 6977ETHO   H1353985  16.570   7.613   8.935
 6977ETHO    C253986  16.535   7.806   9.041
 6977ETHO   H2153987  16.600   7.885   9.084
 6977ETHO   H2353988  16.493   7.753   9.130
 6978ETHO    O153989  16.432   7.876   8.967
 6978ETHO    C153990  16.329   7.779   8.935
 6978ETHO   H1153991  16.311   7.704   9.015
 6978ETHO   H1353992  16.355   7.710   8.852
 6978ETHO    C253993  16.200   7.844   8.901
 6978ETHO   H2153994  16.222   7.946   8.862
 6978ETHO   H2353995  16.141   7.873   8.990
 6979ETHO    O153996  16.125   7.764   8.811
 6979ETHO    C153997  16.023   7.853   8.759
 6979ETHO   H1153998  15.957   7.883   8.843
 6979ETHO   H1353999  16.062   7.951   8.723
 6979ETHO    C254000  15.943   7.780   8.647
 6979ETHO   H2154001  16.007   7.730   8.572
 6979ETHO   H2354002  15.878   7.851   8.592
 6980ETHO    O154003  15.856   7.682   8.705
 6980ETHO    C154004  15.738   7.731   8.761
 6980ETHO   H1154005  15.770   7.786   8.852
 6980ETHO   H1354006  15.691   7.807   8.694
 6980ETHO    C254007  15.638   7.618   8.801
 6980ETHO   H2154008  15.655   7.554   8.891
 6980ETHO   H2354009  15.624   7.554   8.712
 6981ETHO    O154010  15.511   7.682   8.822
 6981ETHO    C154011  15.508   7.764   8.943
 6981ETHO   H1154012  15.477   7.690   9.019
 6981ETHO   H1354013  15.608   7.799   8.976
 6981ETHO    C254014  15.403   7.879   8.936
 6981ETHO   H2154015  15.319   7.827   8.886
 6981ETHO   H2354016  15.428   7.957   8.862
 6982ETHO    O154017  15.375   7.934   9.066
 6982ETHO    C154018  15.278   8.041   9.053
 6982ETHO   H1154019  15.327   8.117   8.988
 6982ETHO   H1354020  15.189   8.004   8.997
 6982ETHO    C254021  15.248   8.099   9.192
 6982ETHO   H2154022  15.187   8.191   9.177
 6982ETHO   H2354023  15.343   8.129   9.241
 6983ETHO    O154024  15.169   8.015   9.281
 6983ETHO    C154025  15.185   8.054   9.414
 6983ETHO   H1154026  15.230   8.155   9.424
 6983ETHO   H1354027  15.238   7.970   9.462
 6983ETHO    C254028  15.049   8.074   9.482
 6983ETHO   H2154029  15.049   8.070   9.593
 6983ETHO   H2354030  14.994   7.986   9.442
 6984ETHO    O154031  14.985   8.199   9.441
 6984ETHO    C154032  14.868   8.216   9.515
 6984ETHO   H1154033  14.807   8.125   9.502
 6984ETHO   H1354034  14.890   8.223   9.623
 6984ETHO    C254035  14.784   8.337   9.468
 6984ETHO   H2154036  14.692   8.340   9.529
 6984ETHO   H2354037  14.759   8.329   9.360
 6985ETHO    O154038  14.860   8.456   9.491
 6985ETHO    C154039  14.790   8.567   9.443
 6985ETHO   H1154040  14.700   8.586   9.504
 6985ETHO   H1354041  14.749   8.548   9.342
 6985ETHO    C254042  14.883   8.687   9.438
 6985ETHO   H2154043  14.860   8.753   9.352
 6985ETHO   H2354044  14.988   8.654   9.422
 6986ETHO    O154045  14.873   8.755   9.568
 6986ETHO    C154046  14.993   8.817   9.605
 6986ETHO   H1154047  15.033   8.863   9.511
 6986ETHO   H1354048  14.982   8.904   9.672
 6986ETHO    C254049  15.100   8.723   9.667
 6986ETHO   H2154050  15.185   8.794   9.663
 6986ETHO   H2354051  15.135   8.636   9.609
 6987ETHO    O154052  15.084   8.682   9.803
 6987ETHO    C154053  14.990   8.579   9.808
 6987ETHO   H1154054  15.033   8.489   9.758
 6987ETHO   H1354055  14.911   8.608   9.736
 6987ETHO    C254056  14.939   8.546   9.947
 6987ETHO   H2154057  15.024   8.512  10.009
 6987ETHO   H2354058  14.879   8.453   9.936
 6988ETHO    O154059  14.849   8.638  10.015
 6988ETHO    C154060  14.905   8.755  10.064
 6988ETHO   H1154061  15.001   8.733  10.117
 6988ETHO   H1354062  14.924   8.828   9.982
 6988ETHO    C254063  14.820   8.827  10.168
 6988ETHO   H2154064  14.811   8.758  10.255
 6988ETHO   H2354065  14.721   8.853  10.125
 6989ETHO    O154066  14.884   8.943  10.203
 6989ETHO    C154067  14.827   9.025  10.310
 6989ETHO   H1154068  14.907   9.080  10.365
 6989ETHO   H1354069  14.799   8.944  10.380
 6989ETHO    C254070  14.705   9.117  10.278
 6989ETHO   H2154071  14.641   9.052  10.215
 6989ETHO   H2354072  14.732   9.208  10.222
 6990ETHO    O154073  14.637   9.154  10.403
 6990ETHO    C154074  14.715   9.252  10.479
 6990ETHO   H1154075  14.796   9.200  10.535
 6990ETHO   H1354076  14.760   9.328  10.412
 6990ETHO    C254077  14.636   9.315  10.589
 6990ETHO   H2154078  14.713   9.360  10.657
 6990ETHO   H2354079  14.577   9.233  10.636
 6991PROX    O154080  14.562   9.423  10.538
 6991PROX    C154081  14.464   9.384  10.442
 6991PROX   H1154082  14.506   9.340  10.349
 6991PROX   H1354083  14.385   9.325  10.494
 6991PROX    C254084  14.402   9.515  10.391
 6991PROX   H2154085  14.376   9.588  10.470
 6991PROX    C354086  14.264   9.487  10.336
 6991PROX   H3154087  14.209   9.417  10.402
 6991PROX   H3254088  14.213   9.584  10.322
 6991PROX   H3354089  14.277   9.437  10.238
 6992PROX    O154090  14.490   9.574  10.292
 6992PROX    C154091  14.582   9.661  10.347
 6992PROX   H1154092  14.523   9.747  10.384
 6992PROX   H1354093  14.638   9.611  10.429
 6992PROX    C254094  14.686   9.708  10.246
 6992PROX   H2154095  14.620   9.769  10.181
 6992PROX    C354096  14.755   9.591  10.173
 6992PROX   H3154097  14.677   9.550  10.106
 6992PROX   H3254098  14.845   9.621  10.115
 6992PROX   H3354099  14.790   9.522  10.253
 6993PROX    O154100  14.780   9.790  10.318
 6993PROX    C154101  14.868   9.853  10.229
 6993PROX   H1154102  14.960   9.791  10.224
 6993PROX   H1354103  14.812   9.853  10.133
 6993PROX    C254104  14.903  10.003  10.260
 6993PROX   H2154105  14.809  10.043  10.305
 6993PROX    C354106  14.947  10.090  10.142
 6993PROX   H3154107  14.940  10.201  10.151
 6993PROX   H3254108  15.052  10.063  10.118
 6993PROX   H3354109  14.884  10.070  10.052
 6994PROX    O154110  14.998  10.005  10.361
 6994PROX    C154111  15.001  10.134  10.428
 6994PROX   H1154112  15.059  10.203  10.362
 6994PROX   H1354113  14.902  10.184  10.435
 6994PROX    C254114  15.066  10.125  10.566
 6994PROX   H2154115  15.174  10.109  10.545
 6994PROX    C354116  15.004  10.013  10.645
 6994PROX   H3154117  14.913  10.056  10.691
 6994PROX   H3254118  14.980   9.934  10.571
 6994PROX   H3354119  15.062   9.964  10.726
 6995PROX    O154120  15.048  10.256  10.629
 6995PROX    C154121  15.127  10.279  10.746
 6995PROX   H1154122  15.112  10.202  10.824
 6995PROX   H1354123  15.232  10.267  10.712
 6995PROX    C254124  15.094  10.411  10.819
 6995PROX   H2154125  15.050  10.484  10.748
 6995PROX    C354126  15.217  10.478  10.878
 6995PROX   H3154127  15.236  10.574  10.825
 6995PROX   H3254128  15.196  10.509  10.983
 6995PROX   H3354129  15.302  10.408  10.864
 6996PROX    O154130  15.003  10.379  10.918
 6996PROX    C154131  14.866  10.370  10.876
 6996PROX   H1154132  14.829  10.475  10.874
 6996PROX   H1354133  14.859  10.315  10.779
 6996PROX    C254134  14.775  10.293  10.977
 6996PROX   H2154135  14.797  10.333  11.078
 6996PROX    C354136  14.813  10.142  10.995
 6996PROX   H3154137  14.767  10.101  11.088
 6996PROX   H3254138  14.797  10.076  10.907
 6996PROX   H3354139  14.924  10.140  11.007
 6997PROX    O154140  14.640  10.307  10.941
 6997PROX    C154141  14.588  10.438  10.975
 6997PROX   H1154142  14.636  10.493  11.059
 6997PROX   H1354143  14.607  10.495  10.882
 6997PROX    C254144  14.434  10.425  11.008
 6997PROX   H2154145  14.383  10.383  10.919
 6997PROX    C354146  14.363  10.563  11.019
 6997PROX   H3154147  14.422  10.623  11.091
 6997PROX   H3254148  14.378  10.621  10.926
 6997PROX   H3354149  14.254  10.565  11.042
 6998PROX    O154150  14.423  10.329  11.117
 6998PROX    C154151  14.507  10.354  11.232
 6998PROX   H1154152  14.607  10.306  11.225
 6998PROX   H1354153  14.503  10.461  11.259
 6998PROX    C254154  14.448  10.279  11.352
 6998PROX   H2154155  14.454  10.172  11.322
 6998PROX    C354156  14.302  10.325  11.388
 6998PROX   H3154157  14.240  10.274  11.311
 6998PROX   H3254158  14.273  10.289  11.489
 6998PROX   H3354159  14.291  10.435  11.377
 6999PROX    O154160  14.540  10.304  11.460
 6999PROX    C154161  14.516  10.238  11.583
 6999PROX   H1154162  14.442  10.299  11.640
 6999PROX   H1354163  14.477  10.138  11.558
 6999PROX    C254164  14.647  10.235  11.660
 6999PROX   H2154165  14.677  10.339  11.634
 6999PROX    C354166  14.742  10.128  11.609
 6999PROX   H3154167  14.847  10.141  11.644
 6999PROX   H3254168  14.723  10.022  11.638
 6999PROX   H3354169  14.752  10.121  11.499
 7000PROX    O154170  14.629  10.228  11.800
 7000PROX    C154171  14.616  10.358  11.864
 7000PROX   H1154172  14.528  10.408  11.817
 7000PROX   H1354173  14.589  10.348  11.971
 7000PROX    C254174  14.739  10.456  11.867
 7000PROX   H2154175  14.751  10.496  11.764
 7000PROX    C354176  14.868  10.396  11.912
 7000PROX   H3154177  14.945  10.470  11.943
 7000PROX   H3254178  14.860  10.329  12.000
 7000PROX   H3354179  14.912  10.345  11.824
 7001PROX    O154180  14.705  10.567  11.952
 7001PROX    C154181  14.775  10.688  11.924
 7001PROX   H1154182  14.765  10.768  12.000
 7001PROX   H1354183  14.882  10.661  11.910
 7001PROX    C254184  14.725  10.759  11.793
 7001PROX   H2154185  14.730  10.689  11.707
 7001PROX    C354186  14.825  10.868  11.747
 7001PROX   H3154187  14.846  10.946  11.823
 7001PROX   H3254188  14.927  10.829  11.726
 7001PROX   H3354189  14.783  10.919  11.658
 7002PROX    O154190  14.601  10.816  11.816
 7002PROX    C154191  14.498  10.715  11.788
 7002PROX   H1154192  14.529  10.613  11.818
 7002PROX   H1354193  14.413  10.737  11.857
 7002PROX    C254194  14.445  10.714  11.641
 7002PROX   H2154195  14.406  10.816  11.620
 7002PROX    C354196  14.325  10.620  11.619
 7002PROX   H3154197  14.241  10.635  11.689
 7002PROX   H3254198  14.291  10.632  11.513
 7002PROX   H3354199  14.362  10.515  11.622
 7003PROX    O154200  14.554  10.676  11.559
 7003PROX    C154201  14.532  10.700  11.420
 7003PROX   H1154202  14.464  10.622  11.379
 7003PROX   H1354203  14.493  10.804  11.421
 7003PROX    C254204  14.661  10.708  11.337
 7003PROX   H2154205  14.745  10.742  11.402
 7003PROX    C354206  14.649  10.796  11.217
 7003PROX   H3154207  14.663  10.905  11.238
 7003PROX   H3254208  14.729  10.762  11.148
 7003PROX   H3354209  14.557  10.786  11.156
 7004PROX    O154210  14.703  10.581  11.281
 7004PROX    C154211  14.798  10.514  11.375
 7004PROX   H1154212  14.765  10.538  11.478
 7004PROX   H1354213  14.794  10.403  11.369
 7004PROX    C254214  14.943  10.557  11.350
 7004PROX   H2154215  14.947  10.668  11.346
 7004PROX    C354216  14.994  10.505  11.216
 7004PROX   H3154217  15.006  10.396  11.201
 7004PROX   H3254218  14.925  10.525  11.132
 7004PROX   H3354219  15.095  10.550  11.201
 7005PROX    O154220  15.035  10.512  11.453
 7005PROX    C154221  15.012  10.590  11.574
 7005PROX   H1154222  15.011  10.697  11.543
 7005PROX   H1354223  14.925  10.561  11.638
 7005PROX    C254224  15.133  10.588  11.667
 7005PROX   H2154225  15.110  10.646  11.759
 7005PROX    C354226  15.254  10.660  11.607
 7005PROX   H3154227  15.230  10.767  11.589
 7005PROX   H3254228  15.340  10.652  11.676
 7005PROX   H3354229  15.271  10.607  11.510
 7006PROX    O154230  15.154  10.461  11.720
 7006PROX    C154231  15.223  10.372  11.637
 7006PROX   H1154232  15.229  10.391  11.528
 7006PROX   H1354233  15.326  10.371  11.680
 7006PROX    C254234  15.173  10.226  11.657
 7006PROX   H2154235  15.070  10.220  11.615
 7006PROX    C354236  15.165  10.176  11.801
 7006PROX   H3154237  15.124  10.072  11.799
 7006PROX   H3254238  15.270  10.177  11.838
 7006PROX   H3354239  15.103  10.248  11.859
 7007PROX    O154240  15.254  10.134  11.586
 7007PROX    C154241  15.176  10.058  11.490
 7007PROX   H1154242  15.212   9.953  11.485
 7007PROX   H1354243  15.070  10.040  11.517
 7007PROX    C254244  15.177  10.123  11.350
 7007PROX   H2154245  15.151  10.231  11.360
 7007PROX    C354246  15.069  10.057  11.262
 7007PROX   H3154247  14.964  10.073  11.295
 7007PROX   H3254248  15.073  10.111  11.165
 7007PROX   H3354249  15.090   9.950  11.244
 7008PROX    O154250  15.300  10.101  11.291
 7008PROX    C154251  15.400  10.202  11.315
 7008PROX   H1154252  15.393  10.288  11.244
 7008PROX   H1354253  15.377  10.247  11.414
 7008PROX    C254254  15.540  10.137  11.304
 7008PROX   H2154255  15.548  10.039  11.356
 7008PROX    C354256  15.636  10.229  11.380
 7008PROX   H3154257  15.592  10.244  11.481
 7008PROX   H3254258  15.730  10.172  11.392
 7008PROX   H3354259  15.660  10.325  11.330
 7009PROX    O154260  15.574  10.136  11.169
 7009PROX    C154261  15.509  10.028  11.098
 7009PROX   H1154262  15.588   9.962  11.058
 7009PROX   H1354263  15.449   9.964  11.165
 7009PROX    C254264  15.427  10.081  10.985
 7009PROX   H2154265  15.357  10.163  11.009
 7009PROX    C354266  15.339   9.975  10.912
 7009PROX   H3154267  15.297  10.013  10.816
 7009PROX   H3254268  15.403   9.884  10.904
 7009PROX   H3354269  15.255   9.946  10.978
 7010PROX    O154270  15.515  10.117  10.879
 7010PROX    C154271  15.580  10.244  10.903
 7010PROX   H1154272  15.523  10.301  10.979
 7010PROX   H1354273  15.676  10.218  10.952
 7010PROX    C254274  15.584  10.325  10.772
 7010PROX   H2154275  15.500  10.287  10.710
 7010PROX    C354276  15.717  10.298  10.694
 7010PROX   H3154277  15.714  10.190  10.671
 7010PROX   H3254278  15.716  10.357  10.600
 7010PROX   H3354279  15.804  10.329  10.756
 7011PROX    O154280  15.564  10.466  10.793
 7011PROX    C154281  15.667  10.535  10.863
 7011PROX   H1154282  15.666  10.507  10.971
 7011PROX   H1354283  15.767  10.519  10.817
 7011PROX    C254284  15.644  10.685  10.853
 7011PROX   H2154285  15.611  10.698  10.748
 7011PROX    C354286  15.776  10.752  10.906
 7011PROX   H3154287  15.789  10.758  11.016
 7011PROX   H3254288  15.866  10.707  10.859
 7011PROX   H3354289  15.772  10.859  10.878
 7012PROX    O154290  15.527  10.717  10.924
 7012PROX    C154291  15.505  10.860  10.916
 7012PROX   H1154292  15.588  10.911  10.971
 7012PROX   H1354293  15.494  10.895  10.811
 7012PROX    C254294  15.357  10.901  10.966
 7012PROX   H2154295  15.282  10.840  10.912
 7012PROX    C354296  15.325  11.053  10.923
 7012PROX   H3154297  15.355  11.049  10.816
 7012PROX   H3254298  15.215  11.062  10.936
 7012PROX   H3354299  15.382  11.121  10.990
 7013PROX    O154300  15.342  10.892  11.109
 7013PROX    C154301  15.339  10.755  11.160
 7013PROX   H1154302  15.244  10.744  11.217
 7013PROX   H1354303  15.335  10.692  11.069
 7013PROX    C254304  15.475  10.727  11.225
 7013PROX   H2154305  15.556  10.781  11.172
 7013PROX    C354306  15.502  10.575  11.232
 7013PROX   H3154307  15.461  10.529  11.324
 7013PROX   H3254308  15.464  10.530  11.138
 7013PROX   H3354309  15.612  10.559  11.228
 7014PROX    O154310  15.481  10.761  11.364
 7014PROX    C154311  15.459  10.899  11.396
 7014PROX   H1154312  15.362  10.936  11.356
 7014PROX   H1354313  15.452  10.904  11.507
 7014PROX    C254314  15.569  10.989  11.346
 7014PROX   H2154315  15.556  10.994  11.236
 7014PROX    C354316  15.710  10.942  11.382
 7014PROX   H3154317  15.790  11.005  11.338
 7014PROX   H3254318  15.709  10.932  11.493
 7014PROX   H3354319  15.727  10.841  11.340
 7015PROX    O154320  15.556  11.120  11.400
 7015PROX    C154321  15.446  11.188  11.340
 7015PROX   H1154322  15.452  11.168  11.231
 7015PROX   H1354323  15.345  11.163  11.379
 7015PROX    C254324  15.469  11.337  11.366
 7015PROX   H2154325  15.579  11.348  11.377
 7015PROX    C354326  15.405  11.386  11.493
 7015PROX   H3154327  15.454  11.358  11.588
 7015PROX   H3254328  15.384  11.495  11.500
 7015PROX   H3354329  15.301  11.349  11.491
 7016PROX    O154330  15.412  11.396  11.258
 7016PROX    C154331  15.467  11.522  11.215
 7016PROX   H1154332  15.409  11.562  11.130
 7016PROX   H1354333  15.457  11.595  11.298
 7016PROX    C254334  15.621  11.519  11.177
 7016PROX   H2154335  15.672  11.493  11.272
 7016PROX    C354336  15.675  11.662  11.141
 7016PROX   H3154337  15.786  11.657  11.144
 7016PROX   H3254338  15.644  11.697  11.041
 7016PROX   H3354339  15.652  11.735  11.221
 7017PROX    O154340  15.644  11.427  11.065
 7017PROX    C154341  15.767  11.343  11.089
 7017PROX   H1154342  15.865  11.393  11.073
 7017PROX   H1354343  15.759  11.301  11.192
 7017PROX    C254344  15.761  11.223  10.987
 7017PROX   H2154345  15.656  11.190  10.969
 7017PROX    C354346  15.841  11.105  11.052
 7017PROX   H3154347  15.867  11.033  10.972
 7017PROX   H3254348  15.937  11.151  11.085
 7017PROX   H3354349  15.794  11.055  11.140
 7018PROX    O154350  15.813  11.266  10.860
 7018PROX    C154351  15.803  11.182  10.748
 7018PROX   H1154352  15.851  11.231  10.660
 7018PROX   H1354353  15.855  11.085  10.763
 7018PROX    C254354  15.660  11.157  10.700
 7018PROX   H2154355  15.595  11.122  10.782
 7018PROX    C354356  15.657  11.063  10.582
 7018PROX   H3154357  15.704  10.968  10.615
 7018PROX   H3254358  15.559  11.044  10.532
 7018PROX   H3354359  15.730  11.096  10.505
 7019PROX    O154360  15.610  11.279  10.657
 7019PROX    C154361  15.469  11.275  10.627
 7019PROX   H1154362  15.458  11.265  10.517
 7019PROX   H1354363  15.409  11.199  10.680
 7019PROX    C254364  15.423  11.414  10.673
 7019PROX   H2154365  15.493  11.484  10.624
 7019PROX    C354366  15.440  11.425  10.828
 7019PROX   H3154367  15.397  11.519  10.867
 7019PROX   H3254368  15.392  11.334  10.871
 7019PROX   H3354369  15.547  11.413  10.855
 7020PROX    O154370  15.289  11.437  10.631
 7020PROX    C154371  15.254  11.577  10.635
 7020PROX   H1154372  15.293  11.628  10.726
 7020PROX   H1354373  15.296  11.630  10.547
 7020PROX    C254374  15.096  11.591  10.627
 7020PROX   H2154375  15.065  11.518  10.704
 7020PROX    C354376  15.055  11.558  10.479
 7020PROX   H3154377  15.104  11.466  10.440
 7020PROX   H3254378  14.946  11.550  10.456
 7020PROX   H3354379  15.093  11.635  10.409
 7021PROX    O154380  15.056  11.730  10.648
 7021PROX    C154381  15.076  11.780  10.776
 7021PROX   H1154382  15.070  11.700  10.853
 7021PROX   H1354383  15.181  11.815  10.778
 7021PROX    C254384  14.986  11.904  10.799
 7021PROX   H2154385  14.989  11.950  10.698
 7021PROX    C354386  15.050  11.999  10.897
 7021PROX   H3154387  15.151  12.027  10.861
 7021PROX   H3254388  14.984  12.085  10.925
 7021PROX   H3354389  15.071  11.940  10.989
 7022PROX    O154390  14.857  11.855  10.840
 7022PROX    C154391  14.771  11.807  10.740
 7022PROX   H1154392  14.672  11.855  10.755
 7022PROX   H1354393  14.813  11.829  10.640
 7022PROX    C254394  14.764  11.654  10.739
 7022PROX   H2154395  14.865  11.606  10.737
 7022PROX    C354396  14.702  11.599  10.610
 7022PROX   H3154397  14.751  11.645  10.521
 7022PROX   H3254398  14.727  11.491  10.601
 7022PROX   H3354399  14.592  11.613  10.603
 7023PROX    O154400  14.704  11.606  10.865
 7023PROX    C154401  14.702  11.469  10.878
 7023PROX   H1154402  14.625  11.424  10.812
 7023PROX   H1354403  14.798  11.417  10.854
 7023PROX    C254404  14.666  11.435  11.021
 7023PROX   H2154405  14.721  11.502  11.090
 7023PROX    C354406  14.685  11.289  11.063
 7023PROX   H3154407  14.592  11.227  11.057
 7023PROX   H3254408  14.770  11.243  11.009
 7023PROX   H3354409  14.716  11.291  11.170
 7024PROX    O154410  14.523  11.452  11.038
 7024PROX    C154411  14.470  11.583  11.029
 7024PROX   H1154412  14.530  11.657  11.085
 7024PROX   H1354413  14.467  11.619  10.924
 7024PROX    C254414  14.329  11.593  11.095
 7024PROX   H2154415  14.316  11.703  11.088
 7024PROX    C354416  14.343  11.538  11.246
 7024PROX   H3154417  14.352  11.427  11.249
 7024PROX   H3254418  14.423  11.598  11.293
 7024PROX   H3354419  14.248  11.561  11.299
 7025PROX    O154420  14.234  11.520  11.019
 7025PROX    C154421  14.112  11.583  11.036
 7025PROX   H1154422  14.093  11.615  11.141
 7025PROX   H1354423  14.100  11.679  10.982
 7025PROX    C254424  13.998  11.492  10.986
 7025PROX   H2154425  14.032  11.434  10.898
 7025PROX    C354426  13.878  11.581  10.954
 7025PROX   H3154427  13.800  11.515  10.909
 7025PROX   H3254428  13.851  11.647  11.038
 7025PROX   H3354429  13.914  11.653  10.877
 7026PROX    O154430  13.942  11.410  11.091
 7026PROX    C154431  14.035  11.318  11.137
 7026PROX   H1154432  14.136  11.354  11.168
 7026PROX   H1354433  13.991  11.256  11.218
 7026PROX    C254434  14.064  11.215  11.031
 7026PROX   H2154435  14.141  11.258  10.963
 7026PROX    C354436  13.939  11.157  10.955
 7026PROX   H3154437  13.946  11.070  10.887
 7026PROX   H3254438  13.871  11.113  11.031
 7026PROX   H3354439  13.893  11.240  10.897
 7027PROX    O154440  14.132  11.100  11.090
 7027PROX    C154441  14.241  11.133  11.181
 7027PROX   H1154442  14.297  11.220  11.140
 7027PROX   H1354443  14.199  11.156  11.281
 7027PROX    C254444  14.335  11.015  11.202
 7027PROX   H2154445  14.412  11.013  11.123
 7027PROX    C354446  14.271  10.881  11.218
 7027PROX   H3154447  14.214  10.858  11.125
 7027PROX   H3254448  14.349  10.805  11.237
 7027PROX   H3354449  14.205  10.882  11.307
 7028PROX    O154450  14.393  11.023  11.334
 7028PROX    C154451  14.500  11.114  11.350
 7028PROX   H1154452  14.568  11.117  11.262
 7028PROX   H1354453  14.443  11.205  11.378
 7028PROX    C254454  14.569  11.074  11.476
 7028PROX   H2154455  14.593  10.965  11.473
 7028PROX    C354456  14.479  11.110  11.601
 7028PROX   H3154457  14.523  11.069  11.695
 7028PROX   H3254458  14.473  11.218  11.624
 7028PROX   H3354459  14.374  11.079  11.584
 7029PROX    O154460  14.696  11.126  11.481
 7029PROX    C154461  14.707  11.264  11.512
 7029PROX   H1154462  14.623  11.317  11.462
 7029PROX   H1354463  14.689  11.286  11.620
 7029PROX    C254464  14.832  11.326  11.455
 7029PROX   H2154465  14.841  11.315  11.345
 7029PROX    C354466  14.948  11.266  11.532
 7029PROX   H3154467  15.045  11.288  11.483
 7029PROX   H3254468  14.956  11.300  11.638
 7029PROX   H3354469  14.939  11.156  11.533
 7030PROX    O154470  14.837  11.469  11.474
 7030PROX    C154471  14.730  11.534  11.408
 7030PROX   H1154472  14.705  11.483  11.313
 7030PROX   H1354473  14.643  11.541  11.477
 7030PROX    C254474  14.771  11.676  11.361
 7030PROX   H2154475  14.843  11.716  11.436
 7030PROX    C354476  14.650  11.771  11.360
 7030PROX   H3154477  14.572  11.749  11.284
 7030PROX   H3254478  14.599  11.783  11.457
 7030PROX   H3354479  14.682  11.870  11.320
 7031PROX    O154480  14.825  11.674  11.229
 7031PROX    C154481  14.952  11.735  11.226
 7031PROX   H1154482  14.976  11.761  11.121
 7031PROX   H1354483  14.936  11.831  11.279
 7031PROX    C254484  15.079  11.663  11.289
 7031PROX   H2154485  15.068  11.619  11.390
 7031PROX    C354486  15.193  11.763  11.308
 7031PROX   H3154487  15.292  11.716  11.324
 7031PROX   H3254488  15.194  11.835  11.223
 7031PROX   H3354489  15.170  11.824  11.398
 7032PROX    O154490  15.134  11.568  11.201
 7032PROX    C154491  15.059  11.447  11.210
 7032PROX   H1154492  15.063  11.394  11.308
 7032PROX   H1354493  14.954  11.470  11.181
 7032PROX    C254494  15.105  11.345  11.104
 7032PROX   H2154495  15.212  11.327  11.125
 7032PROX    C354496  15.088  11.401  10.960
 7032PROX   H3154497  14.980  11.415  10.936
 7032PROX   H3254498  15.129  11.503  10.942
 7032PROX   H3354499  15.133  11.334  10.884
 7033PROX    O154500  15.023  11.229  11.115
 7033PROX    C154501  15.080  11.131  11.198
 7033PROX   H1154502  15.162  11.082  11.141
 7033PROX   H1354503  15.116  11.172  11.294
 7033PROX    C254504  14.985  11.016  11.225
 7033PROX   H2154505  14.884  11.060  11.237
 7033PROX    C354506  15.023  10.937  11.350
 7033PROX   H3154507  14.936  10.883  11.392
 7033PROX   H3254508  15.107  10.866  11.335
 7033PROX   H3354509  15.061  11.012  11.423
 7034PROX    O154510  14.993  10.933  11.110
 7034PROX    C154511  14.911  10.981  11.002
 7034PROX   H1154512  14.818  11.020  11.049
 7034PROX   H1354513  14.973  11.058  10.951
 7034PROX    C254514  14.873  10.869  10.906
 7034PROX   H2154515  14.823  10.789  10.963
 7034PROX    C354516  15.000  10.811  10.833
 7034PROX   H3154517  15.049  10.885  10.767
 7034PROX   H3254518  15.071  10.774  10.910
 7034PROX   H3354519  14.970  10.726  10.768
 7035PROX    O154520  14.782  10.909  10.803
 7035PROX    C154521  14.649  10.933  10.849
 7035PROX   H1154522  14.609  10.833  10.877
 7035PROX   H1354523  14.635  11.005  10.932
 7035PROX    C254524  14.561  10.984  10.734
 7035PROX   H2154525  14.554  10.908  10.653
 7035PROX    C354526  14.608  11.121  10.684
 7035PROX   H3154527  14.633  11.190  10.768
 7035PROX   H3254528  14.698  11.105  10.621
 7035PROX   H3354529  14.517  11.160  10.631
 7036PROX    O154530  14.431  11.003  10.786
 7036PROX    C154531  14.356  10.886  10.805
 7036PROX   H1154532  14.373  10.818  10.719
 7036PROX   H1354533  14.374  10.833  10.901
 7036PROX    C254534  14.206  10.918  10.803
 7036PROX   H2154535  14.183  10.999  10.876
 7036PROX    C354536  14.109  10.795  10.832
 7036PROX   H3154537  14.145  10.710  10.770
 7036PROX   H3254538  14.127  10.770  10.938
 7036PROX   H3354539  14.011  10.835  10.798
 7037PROX    O154540  14.168  10.961  10.673
 7037PROX    C154541  14.162  11.104  10.664
 7037PROX   H1154542  14.103  11.147  10.748
 7037PROX   H1354543  14.266  11.139  10.682
 7037PROX    C254544  14.104  11.153  10.526
 7037PROX   H2154545  14.170  11.092  10.461
 7037PROX    C354546  14.135  11.300  10.487
 7037PROX   H3154547  14.073  11.363  10.554
 7037PROX   H3254548  14.238  11.333  10.516
 7037PROX   H3354549  14.122  11.340  10.385
 7038PROX    O154550  13.960  11.124  10.504
 7038PROX    C154551  13.924  10.984  10.508
 7038PROX   H1154552  13.951  10.930  10.601
 7038PROX   H1354553  13.813  10.981  10.497
 7038PROX    C254554  13.976  10.907  10.388
 7038PROX   H2154555  14.085  10.921  10.369
 7038PROX    C354556  13.914  10.945  10.258
 7038PROX   H3154557  13.803  10.951  10.251
 7038PROX   H3254558  13.941  11.050  10.234
 7038PROX   H3354559  13.942  10.875  10.177
 7039PROX    O154560  13.942  10.769  10.399
 7039PROX    C154561  14.030  10.693  10.472
 7039PROX   H1154562  14.134  10.731  10.461
 7039PROX   H1354563  13.997  10.681  10.578
 7039PROX    C254564  14.034  10.546  10.411
 7039PROX   H2154565  14.040  10.557  10.301
 7039PROX    C354566  13.902  10.470  10.422
 7039PROX   H3154567  13.847  10.483  10.327
 7039PROX   H3254568  13.920  10.360  10.420
 7039PROX   H3354569  13.845  10.502  10.512
 7040PROX    O154570  14.149  10.472  10.449
 7040PROX    C154571  14.135  10.431  10.588
 7040PROX   H1154572  14.087  10.498  10.662
 7040PROX   H1354573  14.069  10.341  10.588
 7040PROX    C254574  14.276  10.398  10.639
 7040PROX   H2154575  14.263  10.382  10.748
 7040PROX    C354576  14.371  10.509  10.612
 7040PROX   H3154577  14.313  10.604  10.615
 7040PROX   H3254578  14.449  10.520  10.690
 7040PROX   H3354579  14.415  10.492  10.511
 7041PROX    O154580  14.318  10.276  10.582
 7041PROX    C154581  14.452  10.237  10.612
 7041PROX   H1154582  14.523  10.284  10.540
 7041PROX   H1354583  14.488  10.272  10.711
 7041PROX    C254584  14.462  10.080  10.599
 7041PROX   H2154585  14.391  10.023  10.663
 7041PROX    C354586  14.602  10.035  10.634
 7041PROX   H3154587  14.674  10.058  10.553
 7041PROX   H3254588  14.641  10.091  10.721
 7041PROX   H3354589  14.613   9.930  10.670
 7042PROX    O154590  14.436  10.052  10.458
 7042PROX    C154591  14.297  10.009  10.440
 7042PROX   H1154592  14.278   9.919  10.501
 7042PROX   H1354593  14.232  10.087  10.487
 7042PROX    C254594  14.260   9.989  10.293
 7042PROX   H2154595  14.149   9.993  10.293
 7042PROX    C354596  14.310   9.865  10.218
 7042PROX   H3154597  14.274   9.766  10.252
 7042PROX   H3254598  14.269   9.874  10.114
 7042PROX   H3354599  14.420   9.852  10.223
 7043PROX    O154600  14.321  10.087  10.208
 7043PROX    C154601  14.241  10.211  10.212
 7043PROX   H1154602  14.138  10.176  10.192
 7043PROX   H1354603  14.246  10.249  10.317
 7043PROX    C254604  14.280  10.325  10.114
 7043PROX   H2154605  14.219  10.416  10.135
 7043PROX    C354606  14.232  10.306   9.972
 7043PROX   H3154607  14.276  10.217   9.921
 7043PROX   H3254608  14.129  10.262   9.970
 7043PROX   H3354609  14.237  10.401   9.916
 7044PROX    O154610  14.418  10.346  10.123
 7044PROX    C154611  14.456  10.415  10.235
 7044PROX   H1154612  14.401  10.512  10.236
 7044PROX   H1354613  14.442  10.359  10.330
 7044PROX    C254614  14.609  10.448  10.239
 7044PROX   H2154615  14.635  10.507  10.148
 7044PROX    C354616  14.693  10.318  10.240
 7044PROX   H3154617  14.803  10.331  10.252
 7044PROX   H3254618  14.659  10.247  10.317
 7044PROX   H3354619  14.677  10.272  10.140
 7045PROX    O154620  14.631  10.521  10.355
 7045PROX    C154621  14.748  10.602  10.356
 7045PROX   H1154622  14.838  10.536  10.357
 7045PROX   H1354623  14.746  10.670  10.268
 7045PROX    C254624  14.754  10.685  10.492
 7045PROX   H2154625  14.844  10.751  10.485
 7045PROX    C354626  14.765  10.606  10.622
 7045PROX   H3154627  14.763  10.668  10.714
 7045PROX   H3254628  14.690  10.526  10.641
 7045PROX   H3354629  14.859  10.546  10.621
 7046PROX    O154630  14.636  10.765  10.494
 7046PROX    C154631  14.639  10.872  10.400
 7046PROX   H1154632  14.707  10.946  10.448
 7046PROX   H1354633  14.675  10.842  10.300
 7046PROX    C254634  14.508  10.940  10.380
 7046PROX   H2154635  14.500  11.007  10.468
 7046PROX    C354636  14.388  10.845  10.385
 7046PROX   H3154637  14.296  10.904  10.360
 7046PROX   H3254638  14.413  10.757  10.323
 7046PROX   H3354639  14.371  10.808  10.488
 7047PROX    O154640  14.510  11.015  10.256
 7047PROX    C154641  14.407  11.120  10.251
 7047PROX   H1154642  14.340  11.133  10.338
 7047PROX   H1354643  14.461  11.217  10.250
 7047PROX    C254644  14.329  11.120  10.120
 7047PROX   H2154645  14.395  11.141  10.034
 7047PROX    C354646  14.220  11.233  10.120
 7047PROX   H3154647  14.147  11.217  10.202
 7047PROX   H3254648  14.267  11.333  10.129
 7047PROX   H3354649  14.151  11.235  10.032
 7048PROX    O154650  14.249  11.003  10.108
 7048PROX    C154651  14.302  10.913  10.012
 7048PROX   H1154652  14.320  10.967   9.916
 7048PROX   H1354653  14.392  10.875  10.066
 7048PROX    C254654  14.228  10.788   9.981
 7048PROX   H2154655  14.130  10.823   9.941
 7048PROX    C354656  14.212  10.695  10.103
 7048PROX   H3154657  14.312  10.669  10.142
 7048PROX   H3254658  14.162  10.754  10.182
 7048PROX   H3354659  14.152  10.605  10.075
 7049PROX    O154660  14.291  10.724   9.870
 7049PROX    C154661  14.418  10.665   9.887
 7049PROX   H1154662  14.438  10.633   9.992
 7049PROX   H1354663  14.414  10.572   9.828
 7049PROX    C254664  14.538  10.740   9.826
 7049PROX   H2154665  14.543  10.849   9.846
 7049PROX    C354666  14.529  10.726   9.675
 7049PROX   H3154667  14.532  10.619   9.644
 7049PROX   H3254668  14.436  10.771   9.634
 7049PROX   H3354669  14.620  10.774   9.631
 7050PROX    O154670  14.661  10.679   9.864
 7050PROX    C154671  14.701  10.726   9.992
 7050PROX   H1154672  14.617  10.736  10.064
 7050PROX   H1354673  14.778  10.651  10.021
 7050PROX    C254674  14.780  10.859   9.982
 7050PROX   H2154675  14.718  10.936   9.932
 7050PROX    C354676  14.912  10.842   9.899
 7050PROX   H3154677  14.933  10.939   9.849
 7050PROX   H3254678  14.998  10.835   9.969
 7050PROX   H3354679  14.909  10.771   9.813
 7051PROX    O154680  14.819  10.903  10.109
 7051PROX    C154681  14.817  11.045  10.117
 7051PROX   H1154682  14.819  11.093  10.017
 7051PROX   H1354683  14.723  11.076  10.166
 7051PROX    C254684  14.924  11.112  10.205
 7051PROX   H2154685  14.891  11.217  10.217
 7051PROX    C354686  15.068  11.103  10.152
 7051PROX   H3154687  15.061  11.148  10.050
 7051PROX   H3254688  15.144  11.163  10.205
 7051PROX   H3354689  15.107  10.999  10.139
 7052PROX    O154690  14.929  11.051  10.332
 7052PROX    C154691  14.968  11.144  10.429
 7052PROX   H1154692  15.061  11.200  10.407
 7052PROX   H1354693  14.883  11.210  10.456
 7052PROX    C254694  15.006  11.067  10.559
 7052PROX   H2154695  14.930  10.992  10.592
 7052PROX    C354696  15.014  11.163  10.676
 7052PROX   H3154697  14.918  11.217  10.684
 7052PROX   H3254698  15.035  11.109  10.771
 7052PROX   H3354699  15.104  11.229  10.672
 7053PROX    O154700  15.131  10.998  10.546
 7053PROX    C154701  15.115  10.866  10.490
 7053PROX   H1154702  15.045  10.798  10.543
 7053PROX   H1354703  15.071  10.868  10.388
 7053PROX    C254704  15.252  10.792  10.476
 7053PROX   H2154705  15.305  10.783  10.573
 7053PROX    C354706  15.343  10.865  10.371
 7053PROX   H3154707  15.435  10.805  10.352
 7053PROX   H3254708  15.293  10.876  10.273
 7053PROX   H3354709  15.372  10.968  10.401
 7054PROX    O154710  15.217  10.671  10.412
 7054PROX    C154711  15.306  10.567  10.447
 7054PROX   H1154712  15.412  10.601  10.441
 7054PROX   H1354713  15.298  10.548  10.556
 7054PROX    C254714  15.270  10.439  10.369
 7054PROX   H2154715  15.178  10.392  10.408
 7054PROX    C354716  15.375  10.324  10.391
 7054PROX   H3154717  15.482  10.353  10.385
 7054PROX   H3254718  15.353  10.277  10.490
 7054PROX   H3354719  15.356  10.243  10.318
 7055PROX    O154720  15.275  10.458  10.232
 7055PROX    C154721  15.208  10.364  10.153
 7055PROX   H1154722  15.273  10.279  10.124
 7055PROX   H1354723  15.124  10.320  10.210
 7055PROX    C254724  15.151  10.425  10.029
 7055PROX   H2154725  15.231  10.457   9.959
 7055PROX    C354726  15.078  10.558  10.050
 7055PROX   H3154727  15.065  10.607   9.951
 7055PROX   H3254728  14.981  10.551  10.104
 7055PROX   H3354729  15.141  10.619  10.117
 7056ETHO    O154730  15.064  10.328   9.967
 7056ETHO    C154731  15.142  10.269   9.867
 7056ETHO   H1154732  15.225  10.210   9.913
 7056ETHO   H1354733  15.178  10.346   9.796
 7056ETHO    C254734  15.046  10.167   9.796
 7056ETHO   H2154735  15.073  10.152   9.690
 7056ETHO   H2354736  14.941  10.195   9.823
 7057ETHO    O154737  15.072  10.047   9.861
 7057ETHO    C154738  14.973   9.948   9.823
 7057ETHO   H1154739  14.978   9.865   9.897
 7057ETHO   H1354740  14.870   9.987   9.839
 7057ETHO    C254741  14.980   9.892   9.678
 7057ETHO   H2154742  15.003   9.967   9.599
 7057ETHO   H2354743  14.880   9.852   9.651
 7058ETHO    O154744  15.076   9.784   9.665
 7058ETHO    C154745  15.043   9.681   9.567
 7058ETHO   H1154746  15.138   9.635   9.531
 7058ETHO   H1354747  14.981   9.728   9.487
 7058ETHO    C254748  14.947   9.572   9.620
 7058ETHO   H2154749  14.924   9.500   9.539
 7058ETHO   H2354750  14.850   9.618   9.649
 7059ETHO    O154751  15.018   9.504   9.724
 7059ETHO    C154752  14.922   9.457   9.822
 7059ETHO   H1154753  14.855   9.542   9.845
 7059ETHO   H1354754  14.876   9.374   9.763
 7059ETHO    C254755  15.001   9.408   9.945
 7059ETHO   H2154756  14.926   9.391  10.024
 7059ETHO   H2354757  15.066   9.494   9.973
 7060ETHO    O154758  15.075   9.293   9.920
 7060ETHO    C154759  15.128   9.239  10.041
 7060ETHO   H1154760  15.163   9.137  10.014
 7060ETHO   H1354761  15.048   9.247  10.118
 7060ETHO    C254762  15.252   9.311  10.087
 7060ETHO   H2154763  15.345   9.316  10.028
 7060ETHO   H2354764  15.286   9.251  10.174
 7061ETHO    O154765  15.219   9.446  10.138
 7061ETHO    C154766  15.328   9.509  10.198
 7061ETHO   H1154767  15.409   9.524  10.123
 7061ETHO   H1354768  15.292   9.608  10.233
 7061ETHO    C254769  15.397   9.438  10.319
 7061ETHO   H2154770  15.326   9.402  10.396
 7061ETHO   H2354771  15.459   9.522  10.357
 7062ETHO    O154772  15.486   9.336  10.268
 7062ETHO    C154773  15.496   9.234  10.369
 7062ETHO   H1154774  15.390   9.210  10.393
 7062ETHO   H1354775  15.538   9.261  10.468
 7062ETHO    C254776  15.557   9.101  10.318
 7062ETHO   H2154777  15.539   9.027  10.398
 7062ETHO   H2354778  15.666   9.116  10.300
 7063ETHO    O154779  15.489   9.058  10.203
 7063ETHO    C154780  15.470   8.915  10.200
 7063ETHO   H1154781  15.565   8.856  10.200
 7063ETHO   H1354782  15.410   8.882  10.287
 7063ETHO    C254783  15.392   8.889  10.073
 7063ETHO   H2154784  15.335   8.794  10.079
 7063ETHO   H2354785  15.316   8.968  10.054
 7064ETHO    O154786  15.474   8.880   9.952
 7064ETHO    C154787  15.400   8.807   9.851
 7064ETHO   H1154788  15.337   8.724   9.889
 7064ETHO   H1354789  15.329   8.884   9.813
 7064ETHO    C254790  15.500   8.767   9.741
 7064ETHO   H2154791  15.584   8.839   9.740
 7064ETHO   H2354792  15.455   8.771   9.640
 7065ETHO    O154793  15.555   8.640   9.770
 7065ETHO    C154794  15.647   8.586   9.672
 7065ETHO   H1154795  15.593   8.583   9.575
 7065ETHO   H1354796  15.731   8.657   9.660
 7065ETHO    C254797  15.699   8.448   9.708
 7065ETHO   H2154798  15.605   8.390   9.721
 7065ETHO   H2354799  15.749   8.451   9.807
 7066ETHO    O154800  15.773   8.386   9.599
 7066ETHO    C154801  15.899   8.445   9.584
 7066ETHO   H1154802  15.906   8.545   9.535
 7066ETHO   H1354803  15.934   8.451   9.690
 7066ETHO    C254804  15.983   8.340   9.512
 7066ETHO   H2154805  15.946   8.237   9.534
 7066ETHO   H2354806  16.088   8.336   9.546
 7067ETHO    O154807  15.980   8.369   9.372
 7067ETHO    C154808  16.076   8.290   9.294
 7067ETHO   H1154809  16.066   8.183   9.323
 7067ETHO   H1354810  16.177   8.326   9.324
 7067ETHO    C254811  16.055   8.310   9.147
 7067ETHO   H2154812  16.144   8.276   9.091
 7067ETHO   H2354813  16.039   8.418   9.130
 7068ETHO    O154814  15.944   8.237   9.111
 7068ETHO    C154815  15.957   8.170   8.986
 7068ETHO   H1154816  16.017   8.223   8.908
 7068ETHO   H1354817  16.000   8.068   8.992
 7068ETHO    C254818  15.811   8.145   8.938
 7068ETHO   H2154819  15.759   8.243   8.941
 7068ETHO   H2354820  15.758   8.077   9.009
 7069ETHO    O154821  15.825   8.081   8.802
 7069ETHO    C154822  15.857   8.180   8.703
 7069ETHO   H1154823  15.967   8.185   8.688
 7069ETHO   H1354824  15.820   8.278   8.737
 7069ETHO    C254825  15.787   8.157   8.566
 7069ETHO   H2154826  15.799   8.050   8.537
 7069ETHO   H2354827  15.817   8.228   8.486
 7070ETHO    O154828  15.649   8.162   8.581
 7070ETHO    C154829  15.578   8.195   8.459
 7070ETHO   H1154830  15.525   8.291   8.475
 7070ETHO   H1354831  15.653   8.214   8.378
 7070ETHO    C254832  15.494   8.083   8.401
 7070ETHO   H2154833  15.419   8.061   8.479
 7070ETHO   H2354834  15.543   7.986   8.377
 7071ETHO    O154835  15.419   8.136   8.292
 7071ETHO    C154836  15.306   8.051   8.270
 7071ETHO   H1154837  15.229   8.082   8.344
 7071ETHO   H1354838  15.333   7.945   8.286
 7071ETHO    C254839  15.252   8.070   8.130
 7071ETHO   H2154840  15.226   8.175   8.106
 7071ETHO   H2354841  15.152   8.024   8.113
 7072ETHO    O154842  15.339   8.013   8.035
 7072ETHO    C154843  15.282   8.029   7.907
 7072ETHO   H1154844  15.186   7.972   7.912
 7072ETHO   H1354845  15.278   8.137   7.881
 7072ETHO    C254846  15.388   7.956   7.816
 7072ETHO   H2154847  15.337   7.949   7.718
 7072ETHO   H2354848  15.391   7.853   7.857
 7073ETHO    O154849  15.513   8.030   7.830
 7073ETHO    C154850  15.610   7.958   7.761
 7073ETHO   H1154851  15.591   7.979   7.653
 7073ETHO   H1354852  15.590   7.850   7.777
 7073ETHO    C254853  15.744   7.994   7.809
 7073ETHO   H2154854  15.814   7.908   7.797
 7073ETHO   H2354855  15.739   7.997   7.920
 7074ETHO    O154856  15.801   8.118   7.766
 7074ETHO    C154857  15.894   8.172   7.860
 7074ETHO   H1154858  15.838   8.242   7.926
 7074ETHO   H1354859  15.945   8.098   7.926
 7074ETHO    C254860  15.998   8.271   7.800
 7074ETHO   H2154861  16.049   8.334   7.876
 7074ETHO   H2354862  15.946   8.352   7.745
 7075ETHO    O154863  16.098   8.200   7.725
 7075ETHO    C154864  16.199   8.131   7.806
 7075ETHO   H1154865  16.271   8.212   7.831
 7075ETHO   H1354866  16.150   8.092   7.898
 7075ETHO    C254867  16.269   8.022   7.724
 7075ETHO   H2154868  16.350   7.978   7.787
 7075ETHO   H2354869  16.311   8.070   7.633
 7076ETHO    O154870  16.168   7.930   7.700
 7076ETHO    C154871  16.204   7.800   7.655
 7076ETHO   H1154872  16.239   7.797   7.550
 7076ETHO   H1354873  16.294   7.784   7.719
 7076ETHO    C254874  16.089   7.699   7.661
 7076ETHO   H2154875  16.036   7.717   7.757
 7076ETHO   H2354876  16.133   7.597   7.658
 7077ETHO    O154877  15.996   7.703   7.555
 7077ETHO    C154878  15.874   7.627   7.591
 7077ETHO   H1154879  15.907   7.537   7.648
 7077ETHO   H1354880  15.804   7.690   7.650
 7077ETHO    C254881  15.800   7.577   7.471
 7077ETHO   H2154882  15.788   7.646   7.384
 7077ETHO   H2354883  15.698   7.561   7.510
 7078ETHO    O154884  15.848   7.450   7.420
 7078ETHO    C154885  15.771   7.403   7.313
 7078ETHO   H1154886  15.801   7.457   7.220
 7078ETHO   H1354887  15.662   7.415   7.326
 7078ETHO    C254888  15.787   7.249   7.297
 7078ETHO   H2154889  15.889   7.225   7.332
 7078ETHO   H2354890  15.786   7.227   7.188
 7079ETHO    O154891  15.689   7.176   7.358
 7079ETHO    C154892  15.695   7.178   7.498
 7079ETHO   H1154893  15.795   7.185   7.545
 7079ETHO   H1354894  15.638   7.265   7.538
 7079ETHO    C254895  15.625   7.054   7.545
 7079ETHO   H2154896  15.517   7.052   7.521
 7079ETHO   H2354897  15.635   7.054   7.656
 7080ETHO    O154898  15.667   6.936   7.481
 7080ETHO    C154899  15.672   6.822   7.569
 7080ETHO   H1154900  15.567   6.801   7.598
 7080ETHO   H1354901  15.733   6.852   7.657
 7080ETHO    C254902  15.749   6.692   7.523
 7080ETHO   H2154903  15.748   6.615   7.603
 7080ETHO   H2354904  15.855   6.718   7.501
 7081ETHO    O154905  15.683   6.645   7.407
 7081ETHO    C154906  15.757   6.556   7.324
 7081ETHO   H1154907  15.697   6.553   7.231
 7081ETHO   H1354908  15.858   6.601   7.311
 7081ETHO    C254909  15.779   6.408   7.368
 7081ETHO   H2154910  15.810   6.394   7.474
 7081ETHO   H2354911  15.862   6.380   7.300
 7082ETHO    O154912  15.665   6.323   7.328
 7082ETHO    C154913  15.562   6.324   7.421
 7082ETHO   H1154914  15.474   6.303   7.357
 7082ETHO   H1354915  15.540   6.424   7.465
 7082ETHO    C254916  15.580   6.226   7.537
 7082ETHO   H2154917  15.602   6.125   7.497
 7082ETHO   H2354918  15.478   6.222   7.580
 7083ETHO    O154919  15.675   6.266   7.632
 7083ETHO    C154920  15.612   6.277   7.760
 7083ETHO   H1154921  15.531   6.352   7.768
 7083ETHO   H1354922  15.553   6.188   7.791
 7083ETHO    C254923  15.712   6.324   7.873
 7083ETHO   H2154924  15.810   6.282   7.842
 7083ETHO   H2354925  15.688   6.261   7.962
 7084ETHO    O154926  15.712   6.466   7.895
 7084ETHO    C154927  15.780   6.495   8.017
 7084ETHO   H1154928  15.882   6.451   8.017
 7084ETHO   H1354929  15.727   6.462   8.109
 7084ETHO    C254930  15.792   6.645   8.028
 7084ETHO   H2154931  15.852   6.673   7.939
 7084ETHO   H2354932  15.851   6.671   8.119
 7085ETHO    O154933  15.666   6.713   8.033
 7085ETHO    C154934  15.682   6.845   8.056
 7085ETHO   H1154935  15.712   6.855   8.162
 7085ETHO   H1354936  15.769   6.866   7.990
 7085ETHO    C254937  15.553   6.923   8.007
 7085ETHO   H2154938  15.495   6.870   7.929
 7085ETHO   H2354939  15.592   7.022   7.973
 7086ETHO    O154940  15.464   6.960   8.102
 7086ETHO    C154941  15.343   7.007   8.046
 7086ETHO   H1154942  15.361   7.104   7.996
 7086ETHO   H1354943  15.326   6.945   7.955
 7086ETHO    C254944  15.219   7.016   8.140
 7086ETHO   H2154945  15.211   6.923   8.201
 7086ETHO   H2354946  15.126   7.026   8.080
 7087ETHO    O154947  15.236   7.126   8.226
 7087ETHO    C154948  15.323   7.102   8.336
 7087ETHO   H1154949  15.301   6.999   8.373
 7087ETHO   H1354950  15.424   7.106   8.292
 7087ETHO    C254951  15.318   7.219   8.434
 7087ETHO   H2154952  15.359   7.304   8.376
 7087ETHO   H2354953  15.388   7.215   8.520
 7088ETHO    O154954  15.185   7.259   8.483
 7088ETHO    C154955  15.194   7.357   8.588
 7088ETHO   H1154956  15.237   7.306   8.677
 7088ETHO   H1354957  15.253   7.444   8.552
 7088ETHO    C254958  15.052   7.403   8.620
 7088ETHO   H2154959  14.990   7.438   8.535
 7088ETHO   H2354960  15.062   7.488   8.690
 7089ETHO    O154961  14.983   7.318   8.706
 7089ETHO    C154962  14.979   7.342   8.845
 7089ETHO   H1154963  14.922   7.437   8.858
 7089ETHO   H1354964  15.080   7.350   8.889
 7089ETHO    C254965  14.900   7.225   8.903
 7089ETHO   H2154966  14.802   7.221   8.850
 7089ETHO   H2354967  14.885   7.248   9.010
 7090ETHO    O154968  14.970   7.099   8.883
 7090ETHO    C154969  14.899   6.989   8.932
 7090ETHO   H1154970  14.859   7.025   9.029
 7090ETHO   H1354971  14.813   6.974   8.864
 7090ETHO    C254972  14.980   6.862   8.946
 7090ETHO   H2154973  15.016   6.826   8.847
 7090ETHO   H2354974  14.910   6.783   8.980
 7091ETHO    O154975  15.087   6.860   9.039
 7091ETHO    C154976  15.183   6.754   9.010
 7091ETHO   H1154977  15.253   6.778   8.927
 7091ETHO   H1354978  15.125   6.659   9.000
 7091ETHO    C254979  15.272   6.748   9.130
 7091ETHO   H2154980  15.323   6.845   9.149
 7091ETHO   H2354981  15.355   6.679   9.107
 7092ETHO    O154982  15.200   6.692   9.240
 7092ETHO    C154983  15.284   6.678   9.348
 7092ETHO   H1154984  15.363   6.604   9.324
 7092ETHO   H1354985  15.332   6.775   9.372
 7092ETHO    C254986  15.203   6.637   9.470
 7092ETHO   H2154987  15.261   6.603   9.558
 7092ETHO   H2354988  15.132   6.554   9.452
 7093ETHO    O154989  15.133   6.753   9.524
 7093ETHO    C154990  15.040   6.712   9.621
 7093ETHO   H1154991  15.086   6.666   9.711
 7093ETHO   H1354992  14.983   6.627   9.578
 7093ETHO    C254993  14.959   6.839   9.656
 7093ETHO   H2154994  14.864   6.799   9.697
 7093ETHO   H2354995  14.936   6.893   9.561
 7094ETHO    O154996  15.031   6.925   9.743
 7094ETHO    C154997  14.958   7.047   9.757
 7094ETHO   H1154998  14.933   7.083   9.655
 7094ETHO   H1354999  14.869   7.032   9.822
 7094ETHO    C255000  15.050   7.150   9.826
 7094ETHO   H2155001  15.121   7.104   9.898
 7094ETHO   H2355002  14.986   7.227   9.874
 7095ETHO    O155003  15.121   7.209   9.718
 7095ETHO    C155004  15.197   7.320   9.760
 7095ETHO   H1155005  15.172   7.343   9.866
 7095ETHO   H1355006  15.174   7.405   9.692
 7095ETHO    C255007  15.355   7.288   9.756
 7095ETHO   H2155008  15.377   7.219   9.840
 7095ETHO   H2355009  15.405   7.385   9.780
 7096ETHO    O155010  15.409   7.238   9.633
 7096ETHO    C155011  15.533   7.166   9.635
 7096ETHO   H1155012  15.532   7.086   9.711
 7096ETHO   H1355013  15.559   7.108   9.544
 7096ETHO    C255014  15.648   7.253   9.681
 7096ETHO   H2155015  15.614   7.307   9.772
 7096ETHO   H2355016  15.732   7.185   9.704
 7097ETHO    O155017  15.709   7.339   9.587
 7097ETHO    C155018  15.616   7.430   9.514
 7097ETHO   H1155019  15.534   7.456   9.585
 7097ETHO   H1355020  15.574   7.355   9.444
 7097ETHO    C255021  15.690   7.566   9.474
 7097ETHO   H2155022  15.655   7.606   9.376
 7097ETHO   H2355023  15.797   7.539   9.462
 7098ETHO    O155024  15.678   7.680   9.565
 7098ETHO    C155025  15.774   7.657   9.666
 7098ETHO   H1155026  15.750   7.566   9.724
 7098ETHO   H1355027  15.873   7.650   9.616
 7098ETHO    C255028  15.783   7.779   9.763
 7098ETHO   H2155029  15.710   7.762   9.846
 7098ETHO   H2355030  15.765   7.881   9.723
 7099ETHO    O155031  15.910   7.773   9.819
 7099ETHO    C155032  15.907   7.855   9.930
 7099ETHO   H1155033  15.832   7.824  10.006
 7099ETHO   H1355034  15.883   7.960   9.901
 7099ETHO    C255035  16.048   7.851   9.991
 7099ETHO   H2155036  16.120   7.862   9.907
 7099ETHO   H2355037  16.072   7.756  10.045
 7100ETHO    O155038  16.072   7.957  10.087
 7100ETHO    C155039  16.165   8.059  10.048
 7100ETHO   H1155040  16.259   8.001  10.049
 7100ETHO   H1355041  16.152   8.101   9.946
 7100ETHO    C255042  16.178   8.165  10.158
 7100ETHO   H2155043  16.260   8.237  10.141
 7100ETHO   H2355044  16.224   8.115  10.246
 7101ETHO    O155045  16.062   8.234  10.164
 7101ETHO    C155046  16.047   8.299  10.290
 7101ETHO   H1155047  16.060   8.220  10.367
 7101ETHO   H1355048  16.111   8.386  10.315
 7101ETHO    C255049  15.900   8.352  10.311
 7101ETHO   H2155050  15.895   8.397  10.413
 7101ETHO   H2355051  15.822   8.278  10.286
 7102ETHO    O155052  15.886   8.464  10.224
 7102ETHO    C155053  15.754   8.527  10.231
 7102ETHO   H1155054  15.741   8.597  10.146
 7102ETHO   H1355055  15.672   8.452  10.235
 7102ETHO    C255056  15.729   8.611  10.356
 7102ETHO   H2155057  15.746   8.545  10.444
 7102ETHO   H2355058  15.621   8.634  10.341
 7103ETHO    O155059  15.809   8.729  10.361
 7103ETHO    C155060  15.780   8.786  10.485
 7103ETHO   H1155061  15.677   8.824  10.502
 7103ETHO   H1355062  15.808   8.723  10.572
 7103ETHO    C255063  15.860   8.912  10.504
 7103ETHO   H2155064  15.834   8.965  10.598
 7103ETHO   H2355065  15.850   8.965  10.407
 7104ETHO    O155066  15.999   8.875  10.516
 7104ETHO    C155067  16.082   8.984  10.463
 7104ETHO   H1155068  16.049   8.998  10.358
 7104ETHO   H1355069  16.186   8.948  10.450
 7104ETHO    C255070  16.090   9.111  10.541
 7104ETHO   H2155071  16.190   9.153  10.516
 7104ETHO   H2355072  16.080   9.091  10.649
 7105ETHO    O155073  15.992   9.202  10.499
 7105ETHO    C155074  16.016   9.330  10.547
 7105ETHO   H1155075  16.020   9.325  10.658
 7105ETHO   H1355076  16.121   9.360  10.525
 7105ETHO    C255077  15.926   9.444  10.494
 7105ETHO   H2155078  15.946   9.531  10.560
 7105ETHO   H2355079  15.819   9.415  10.504
 7106ETHO    O155080  15.952   9.482  10.364
 7106ETHO    C155081  15.948   9.627  10.336
 7106ETHO   H1155082  16.054   9.656  10.349
 7106ETHO   H1355083  15.880   9.681  10.406
 7106ETHO    C255084  15.903   9.647  10.195
 7106ETHO   H2155085  15.982   9.595  10.136
 7106ETHO   H2355086  15.910   9.753  10.160
 7107ETHO    O155087  15.778   9.593  10.152
 7107ETHO    C155088  15.787   9.518  10.033
 7107ETHO   H1155089  15.837   9.581   9.956
 7107ETHO   H1355090  15.850   9.430  10.054
 7107ETHO    C255091  15.651   9.478   9.985
 7107ETHO   H2155092  15.583   9.566   9.972
 7107ETHO   H2355093  15.603   9.410  10.059
 7108ETHO    O155094  15.672   9.419   9.858
 7108ETHO    C155095  15.590   9.304   9.826
 7108ETHO   H1155096  15.616   9.277   9.722
 7108ETHO   H1355097  15.485   9.339   9.824
 7108ETHO    C255098  15.617   9.184   9.915
 7108ETHO   H2155099  15.557   9.095   9.886
 7108ETHO   H2355100  15.591   9.207  10.021
 7109ETHO    O155101  15.747   9.136   9.911
 7109ETHO    C155102  15.773   9.042  10.011
 7109ETHO   H1155103  15.761   9.078  10.116
 7109ETHO   H1355104  15.698   8.960  10.008
 7109ETHO    C255105  15.915   8.981  10.006
 7109ETHO   H2155106  15.915   8.912  10.094
 7109ETHO   H2355107  15.994   9.057  10.023
 7110ETHO    O155108  15.945   8.898   9.894
 7110ETHO    C155109  15.882   8.771   9.891
 7110ETHO   H1155110  15.873   8.755   9.781
 7110ETHO   H1355111  15.780   8.792   9.931
 7110ETHO    C255112  15.941   8.646   9.957
 7110ETHO   H2155113  15.869   8.565   9.933
 7110ETHO   H2355114  15.964   8.656  10.065
 7111ETHO    O155115  16.059   8.613   9.878
 7111ETHO    C155116  16.135   8.510   9.942
 7111ETHO   H1155117  16.190   8.549  10.031
 7111ETHO   H1355118  16.069   8.434   9.989
 7111ETHO    C255119  16.229   8.461   9.834
 7111ETHO   H2155120  16.283   8.544   9.784
 7111ETHO   H2355121  16.170   8.424   9.747
 7112ETHO    O155122  16.325   8.371   9.875
 7112ETHO    C155123  16.416   8.334   9.773
 7112ETHO   H1155124  16.411   8.393   9.679
 7112ETHO   H1355125  16.521   8.346   9.807
 7112ETHO    C255126  16.397   8.182   9.743
 7112ETHO   H2155127  16.408   8.132   9.841
 7112ETHO   H2355128  16.473   8.148   9.668
 7113ETHO    O155129  16.270   8.147   9.696
 7113ETHO    C155130  16.277   8.014   9.655
 7113ETHO   H1155131  16.345   7.984   9.572
 7113ETHO   H1355132  16.298   7.959   9.749
 7113ETHO    C255133  16.144   7.944   9.622
 7113ETHO   H2155134  16.069   7.982   9.695
 7113ETHO   H2355135  16.161   7.835   9.634
 7114ETHO    O155136  16.102   7.955   9.486
 7114ETHO    C155137  15.966   7.917   9.469
 7114ETHO   H1155138  15.950   7.813   9.504
 7114ETHO   H1355139  15.907   7.991   9.528
 7114ETHO    C255140  15.920   7.903   9.323
 7114ETHO   H2155141  15.937   8.003   9.277
 7114ETHO   H2355142  15.810   7.889   9.320
 7115ETHO    O155143  15.981   7.787   9.263
 7115ETHO    C155144  15.923   7.735   9.145
 7115ETHO   H1155145  15.935   7.811   9.065
 7115ETHO   H1355146  15.813   7.729   9.158
 7115ETHO    C255147  15.969   7.595   9.087
 7115ETHO   H2155148  16.079   7.608   9.076
 7115ETHO   H2355149  15.928   7.574   8.986
 7116ETHO    O155150  15.942   7.491   9.170
 7116ETHO    C155151  16.006   7.362   9.141
 7116ETHO   H1155152  15.969   7.323   9.044
 7116ETHO   H1355153  16.112   7.386   9.118
 7116ETHO    C255154  16.002   7.265   9.259
 7116ETHO   H2155155  16.066   7.177   9.238
 7116ETHO   H2355156  15.899   7.224   9.261
 7117ETHO    O155157  16.048   7.331   9.381
 7117ETHO    C155158  16.027   7.232   9.486
 7117ETHO   H1155159  16.037   7.128   9.447
 7117ETHO   H1355160  15.922   7.235   9.523
 7117ETHO    C255161  16.130   7.236   9.597
 7117ETHO   H2155162  16.091   7.164   9.672
 7117ETHO   H2355163  16.144   7.331   9.654
 7118ETHO    O155164  16.251   7.207   9.532
 7118ETHO    C155165  16.348   7.174   9.629
 7118ETHO   H1155166  16.384   7.271   9.670
 7118ETHO   H1355167  16.310   7.114   9.715
 7118ETHO    C255168  16.465   7.097   9.567
 7118ETHO   H2155169  16.544   7.076   9.642
 7118ETHO   H2355170  16.496   7.163   9.483
 7119ETHO    O155171  16.416   6.973   9.509
 7119ETHO    C155172  16.366   6.977   9.379
 7119ETHO   H1155173  16.420   7.051   9.315
 7119ETHO   H1355174  16.259   7.007   9.391
 7119ETHO    C255175  16.374   6.838   9.316
 7119ETHO   H2155176  16.310   6.839   9.226
 7119ETHO   H2355177  16.320   6.773   9.387
 7120ETHO    O155178  16.509   6.801   9.285
 7120ETHO    C155179  16.510   6.670   9.245
 7120ETHO   H1155180  16.440   6.606   9.304
 7120ETHO   H1355181  16.479   6.670   9.138
 7120ETHO    C255182  16.648   6.602   9.227
 7120ETHO   H2155183  16.712   6.659   9.158
 7120ETHO   H2355184  16.627   6.505   9.177
 7121ETHO    O155185  16.725   6.607   9.347
 7121ETHO    C155186  16.744   6.475   9.397
 7121ETHO   H1155187  16.643   6.431   9.412
 7121ETHO   H1355188  16.783   6.489   9.500
 7121ETHO    C255189  16.843   6.380   9.323
 7121ETHO   H2155190  16.821   6.396   9.215
 7121ETHO   H2355191  16.806   6.278   9.348
 7122ETHO    O155192  16.983   6.400   9.353
 7122ETHO    C155193  17.060   6.292   9.302
 7122ETHO   H1155194  17.017   6.247   9.210
 7122ETHO   H1355195  17.161   6.335   9.282
 7122ETHO    C255196  17.090   6.180   9.407
 7122ETHO   H2155197  17.094   6.219   9.511
 7122ETHO   H2355198  17.192   6.140   9.391
 7123ETHO    O155199  16.989   6.075   9.404
 7123ETHO    C155200  17.014   5.973   9.502
 7123ETHO   H1155201  17.085   5.903   9.453
 7123ETHO   H1355202  17.057   6.020   9.593
 7123ETHO    C255203  16.895   5.884   9.550
 7123ETHO   H2155204  16.944   5.795   9.596
 7123ETHO   H2355205  16.833   5.857   9.463
 7124ETHO    O155206  16.802   5.952   9.643
 7124ETHO    C155207  16.682   5.888   9.671
 7124ETHO   H1155208  16.621   5.901   9.579
 7124ETHO   H1355209  16.708   5.783   9.698
 7124ETHO    C255210  16.610   5.932   9.801
 7124ETHO   H2155211  16.665   5.889   9.887
 7124ETHO   H2355212  16.508   5.887   9.797
 7125ETHO    O155213  16.602   6.073   9.792
 7125ETHO    C155214  16.545   6.117   9.907
 7125ETHO   H1155215  16.438   6.094   9.924
 7125ETHO   H1355216  16.598   6.059   9.986
 7125ETHO    C255217  16.580   6.267   9.930
 7125ETHO   H2155218  16.522   6.305  10.016
 7125ETHO   H2355219  16.541   6.314   9.837
 7126ETHO    O155220  16.719   6.286   9.954
 7126ETHO    C155221  16.757   6.420   9.965
 7126ETHO   H1155222  16.721   6.458  10.063
 7126ETHO   H1355223  16.722   6.482   9.879
 7126ETHO    C255224  16.911   6.436   9.964
 7126ETHO   H2155225  16.950   6.397  10.061
 7126ETHO   H2355226  16.945   6.541   9.954
 7127ETHO    O155227  16.969   6.342   9.866
 7127ETHO    C155228  16.962   6.395   9.731
 7127ETHO   H1155229  16.969   6.310   9.659
 7127ETHO   H1355230  16.862   6.432   9.700
 7127ETHO    C255231  17.081   6.483   9.709
 7127ETHO   H2155232  17.106   6.536   9.804
 7127ETHO   H2355233  17.053   6.562   9.636
 7128ETHO    O155234  17.199   6.408   9.667
 7128ETHO    C155235  17.318   6.494   9.658
 7128ETHO   H1155236  17.364   6.470   9.756
 7128ETHO   H1355237  17.292   6.602   9.664
 7128ETHO    C255238  17.416   6.453   9.543
 7128ETHO   H2155239  17.430   6.343   9.546
 7128ETHO   H2355240  17.517   6.492   9.569
 7129ETHO    O155241  17.372   6.498   9.414
 7129ETHO    C155242  17.460   6.440   9.323
 7129ETHO   H1155243  17.561   6.485   9.332
 7129ETHO   H1355244  17.461   6.331   9.344
 7129ETHO    C255245  17.409   6.468   9.180
 7129ETHO   H2155246  17.365   6.570   9.187
 7129ETHO   H2355247  17.501   6.473   9.119
 7130ETHO    O155248  17.331   6.363   9.132
 7130ETHO    C155249  17.290   6.386   9.005
 7130ETHO   H1155250  17.383   6.389   8.943
 7130ETHO   H1355251  17.223   6.475   8.996
 7130ETHO    C255252  17.188   6.269   8.961
 7130ETHO   H2155253  17.159   6.298   8.858
 7130ETHO   H2355254  17.105   6.268   9.036
 7131ETHO    O155255  17.255   6.144   8.945
 7131ETHO    C155256  17.167   6.034   8.956
 7131ETHO   H1155257  17.119   6.045   9.055
 7131ETHO   H1355258  17.100   6.045   8.868
 7131ETHO    C255259  17.245   5.902   8.957
 7131ETHO   H2155260  17.173   5.821   8.931
 7131ETHO   H2355261  17.290   5.890   9.058
 7132ETHO    O155262  17.358   5.899   8.871
 7132ETHO    C155263  17.320   5.870   8.733
 7132ETHO   H1155264  17.274   5.965   8.696
 7132ETHO   H1355265  17.239   5.795   8.722
 7132ETHO    C255266  17.443   5.838   8.638
 7132ETHO   H2155267  17.528   5.907   8.658
 7132ETHO   H2355268  17.407   5.858   8.535
 7133ETHO    O155269  17.481   5.705   8.655
 7133ETHO    C155270  17.539   5.644   8.544
 7133ETHO   H1155271  17.457   5.617   8.473
 7133ETHO   H1355272  17.593   5.720   8.483
 7133ETHO    C255273  17.635   5.527   8.582
 7133ETHO   H2155274  17.680   5.545   8.682
 7133ETHO   H2355275  17.717   5.525   8.507
 7134ETHO    O155276  17.563   5.403   8.576
 7134ETHO    C155277  17.626   5.290   8.640
 7134ETHO   H1155278  17.563   5.205   8.608
 7134ETHO   H1355279  17.635   5.313   8.749
 7134ETHO    C255280  17.769   5.252   8.587
 7134ETHO   H2155281  17.809   5.178   8.659
 7134ETHO   H2355282  17.836   5.340   8.578
 7135ETHO    O155283  17.764   5.184   8.456
 7135ETHO    C155284  17.815   5.263   8.351
 7135ETHO   H1155285  17.745   5.349   8.341
 7135ETHO   H1355286  17.909   5.312   8.387
 7135ETHO    C255287  17.835   5.188   8.226
 7135ETHO   H2155288  17.858   5.263   8.147
 7135ETHO   H2355289  17.740   5.134   8.207
 7136ETHO    O155290  17.934   5.093   8.237
 7136ETHO    C155291  17.978   5.049   8.103
 7136ETHO   H1155292  18.020   5.135   8.045
 7136ETHO   H1355293  17.886   5.014   8.051
 7136ETHO    C255294  18.086   4.937   8.115
 7136ETHO   H2155295  18.100   4.902   8.220
 7136ETHO   H2355296  18.186   4.968   8.079
 7137ETHO    O155297  18.057   4.814   8.054
 7137ETHO    C155298  18.048   4.830   7.917
 7137ETHO   H1155299  17.944   4.856   7.885
 7137ETHO   H1355300  18.120   4.904   7.875
 7137ETHO    C255301  18.071   4.695   7.851
 7137ETHO   H2155302  18.008   4.623   7.907
 7137ETHO   H2355303  18.032   4.710   7.748
 7138ETHO    O155304  18.210   4.656   7.850
 7138ETHO    C155305  18.256   4.677   7.715
 7138ETHO   H1155306  18.211   4.603   7.645
 7138ETHO   H1355307  18.231   4.778   7.676
 7138ETHO    C255308  18.411   4.660   7.722
 7138ETHO   H2155309  18.451   4.630   7.622
 7138ETHO   H2355310  18.441   4.584   7.797
 7139ETHO    O155311  18.470   4.780   7.765
 7139ETHO    C155312  18.612   4.767   7.771
 7139ETHO   H1155313  18.640   4.701   7.857
 7139ETHO   H1355314  18.653   4.728   7.676
 7139ETHO    C255315  18.696   4.895   7.799
 7139ETHO   H2155316  18.800   4.872   7.828
 7139ETHO   H2355317  18.654   4.952   7.885
 7140ETHO    O155318  18.709   4.976   7.682
 7140ETHO    C155319  18.591   5.048   7.661
 7140ETHO   H1155320  18.529   4.965   7.622
 7140ETHO   H1355321  18.534   5.075   7.752
 7140ETHO    C255322  18.596   5.162   7.559
 7140ETHO   H2155323  18.659   5.128   7.474
 7140ETHO   H2355324  18.653   5.244   7.608
 7141ETHO    O155325  18.464   5.200   7.514
 7141ETHO    C155326  18.444   5.338   7.547
 7141ETHO   H1155327  18.523   5.400   7.499
 7141ETHO   H1355328  18.452   5.346   7.658
 7141ETHO    C255329  18.297   5.367   7.506
 7141ETHO   H2155330  18.226   5.298   7.557
 7141ETHO   H2355331  18.292   5.364   7.395
 7142ETHO    O155332  18.252   5.499   7.549
 7142ETHO    C155333  18.150   5.554   7.472
 7142ETHO   H1155334  18.178   5.548   7.365
 7142ETHO   H1355335  18.061   5.489   7.484
 7142ETHO    C255336  18.115   5.701   7.509
 7142ETHO   H2155337  18.041   5.733   7.432
 7142ETHO   H2355338  18.215   5.747   7.495
 7143ETHO    O155339  18.055   5.728   7.635
 7143ETHO    C155340  18.087   5.850   7.693
 7143ETHO   H1155341  18.006   5.891   7.757
 7143ETHO   H1355342  18.119   5.922   7.614
 7143ETHO    C255343  18.205   5.816   7.789
 7143ETHO   H2155344  18.239   5.910   7.835
 7143ETHO   H2355345  18.279   5.764   7.724
 7144ETHO    O155346  18.165   5.720   7.893
 7144ETHO    C155347  18.283   5.672   7.958
 7144ETHO   H1155348  18.333   5.604   7.886
 7144ETHO   H1355349  18.348   5.761   7.975
 7144ETHO    C255350  18.256   5.606   8.090
 7144ETHO   H2155351  18.203   5.669   8.164
 7144ETHO   H2355352  18.356   5.592   8.135
 7145ETHO    O155353  18.182   5.480   8.076
 7145ETHO    C155354  18.166   5.419   8.207
 7145ETHO   H1155355  18.100   5.330   8.210
 7145ETHO   H1355356  18.107   5.493   8.265
 7145ETHO    C255357  18.297   5.387   8.285
 7145ETHO   H2155358  18.377   5.383   8.209
 7145ETHO   H2355359  18.287   5.294   8.344
 7146ETHO    O155360  18.323   5.500   8.371
 7146ETHO    C155361  18.458   5.500   8.413
 7146ETHO   H1155362  18.501   5.402   8.381
 7146ETHO   H1355363  18.513   5.585   8.367
 7146ETHO    C255364  18.476   5.505   8.564
 7146ETHO   H2155365  18.581   5.477   8.591
 7146ETHO   H2355366  18.417   5.429   8.620
 7147ETHO    O155367  18.449   5.641   8.604
 7147ETHO    C155368  18.466   5.663   8.742
 7147ETHO   H1155369  18.552   5.606   8.783
 7147ETHO   H1355370  18.380   5.617   8.795
 7147ETHO    C255371  18.479   5.812   8.785
 7147ETHO   H2155372  18.564   5.858   8.730
 7147ETHO   H2355373  18.508   5.809   8.892
 7148ETHO    O155374  18.359   5.885   8.757
 7148ETHO    C155375  18.366   6.018   8.824
 7148ETHO   H1155376  18.360   6.000   8.934
 7148ETHO   H1355377  18.460   6.071   8.796
 7148ETHO    C255378  18.253   6.109   8.773
 7148ETHO   H2155379  18.247   6.100   8.662
 7148ETHO   H2355380  18.286   6.213   8.790
 7149ETHO    O155381  18.133   6.076   8.835
 7149ETHO    C155382  18.021   6.141   8.787
 7149ETHO   H1155383  18.048   6.236   8.736
 7149ETHO   H1355384  17.970   6.073   8.715
 7149ETHO    C255385  17.916   6.186   8.893
 7149ETHO   H2155386  17.903   6.102   8.965
 7149ETHO   H2355387  17.819   6.197   8.839
 7150ETHO    O155388  17.944   6.316   8.945
 7150ETHO    C155389  17.839   6.349   9.038
 7150ETHO   H1155390  17.746   6.351   8.977
 7150ETHO   H1355391  17.833   6.268   9.114
 7150ETHO    C255392  17.858   6.486   9.107
 7150ETHO   H2155393  17.758   6.513   9.145
 7150ETHO   H2355394  17.893   6.562   9.034
 7151ETHO    O155395  17.961   6.490   9.216
 7151ETHO    C155396  17.945   6.617   9.278
 7151ETHO   H1155397  17.989   6.693   9.211
 7151ETHO   H1355398  17.843   6.656   9.293
 7151ETHO    C255399  18.038   6.613   9.398
 7151ETHO   H2155400  18.040   6.707   9.458
 7151ETHO   H2355401  18.143   6.587   9.375
 7152ETHO    O155402  17.993   6.522   9.497
 7152ETHO    C155403  18.005   6.559   9.629
 7152ETHO   H1155404  18.108   6.598   9.644
 7152ETHO   H1355405  17.987   6.470   9.693
 7152ETHO    C255406  17.897   6.652   9.687
 7152ETHO   H2155407  17.896   6.739   9.618
 7152ETHO   H2355408  17.931   6.687   9.787
 7153ETHO    O155409  17.756   6.607   9.690
 7153ETHO    C155410  17.675   6.698   9.760
 7153ETHO   H1155411  17.714   6.731   9.859
 7153ETHO   H1355412  17.587   6.630   9.765
 7153ETHO    C255413  17.650   6.824   9.668
 7153ETHO   H2155414  17.551   6.859   9.705
 7153ETHO   H2355415  17.638   6.785   9.565
 7154ETHO    O155416  17.746   6.926   9.694
 7154ETHO    C155417  17.716   7.038   9.615
 7154ETHO   H1155418  17.730   7.125   9.683
 7154ETHO   H1355419  17.609   7.046   9.584
 7154ETHO    C255420  17.820   7.049   9.509
 7154ETHO   H2155421  17.922   7.028   9.547
 7154ETHO   H2355422  17.810   7.152   9.470
 7155ETHO    O155423  17.800   6.961   9.402
 7155ETHO    C155424  17.707   7.006   9.305
 7155ETHO   H1155425  17.613   7.031   9.359
 7155ETHO   H1355426  17.741   7.096   9.250
 7155ETHO    C255427  17.673   6.898   9.204
 7155ETHO   H2155428  17.764   6.839   9.180
 7155ETHO   H2355429  17.622   6.928   9.110
 7155ETHO    OZ55430  17.602   6.796   9.270
 7155ETHO   HZ155431  17.666   6.734   9.308
 7156ETHO    O155432  12.738   9.461  16.603
 7156ETHO   HO155433  12.741   9.369  16.577
 7156ETHO    C155434  12.604   9.497  16.568
 7156ETHO   H1155435  12.537   9.413  16.598
 7156ETHO   H1355436  12.599   9.504  16.457
 7156ETHO    C255437  12.550   9.624  16.637
 7156ETHO   H2155438  12.460   9.658  16.581
 7156ETHO   H2355439  12.635   9.696  16.637
 7157ETHO    O155440  12.517   9.597  16.769
 7157ETHO    C155441  12.469   9.712  16.845
 7157ETHO   H1155442  12.548   9.789  16.856
 7157ETHO   H1355443  12.387   9.760  16.787
 7157ETHO    C255444  12.433   9.662  16.984
 7157ETHO   H2155445  12.523   9.629  17.040
 7157ETHO   H2355446  12.358   9.582  16.967
 7158ETHO    O155447  12.348   9.757  17.059
 7158ETHO    C155448  12.405   9.883  17.108
 7158ETHO   H1155449  12.470   9.933  17.031
 7158ETHO   H1355450  12.476   9.851  17.187
 7158ETHO    C255451  12.299   9.994  17.157
 7158ETHO   H2155452  12.354  10.059  17.229
 7158ETHO   H2355453  12.218   9.941  17.212
 7159ETHO    O155454  12.241  10.070  17.052
 7159ETHO    C155455  12.133  10.148  17.110
 7159ETHO   H1155456  12.063  10.081  17.165
 7159ETHO   H1355457  12.185  10.218  17.178
 7159ETHO    C255458  12.046  10.230  17.015
 7159ETHO   H2155459  12.102  10.302  16.951
 7159ETHO   H2355460  11.984  10.289  17.086
 7160ETHO    O155461  11.965  10.145  16.932
 7160ETHO    C155462  11.977  10.167  16.793
 7160ETHO   H1155463  11.946  10.266  16.754
 7160ETHO   H1355464  12.084  10.149  16.767
 7160ETHO    C255465  11.886  10.077  16.710
 7160ETHO   H2155466  11.914   9.971  16.728
 7160ETHO   H2355467  11.904  10.097  16.602
 7161ETHO    O155468  11.746  10.096  16.737
 7161ETHO    C155469  11.680  10.169  16.635
 7161ETHO   H1155470  11.732  10.267  16.643
 7161ETHO   H1355471  11.705  10.119  16.539
 7161ETHO    C255472  11.533  10.165  16.648
 7161ETHO   H2155473  11.497  10.070  16.691
 7161ETHO   H2355474  11.484  10.167  16.548
 7162ETHO    O155475  11.481  10.269  16.735
 7162ETHO    C155476  11.338  10.286  16.713
 7162ETHO   H1155477  11.313  10.292  16.605
 7162ETHO   H1355478  11.290  10.198  16.762
 7162ETHO    C255479  11.296  10.416  16.790
 7162ETHO   H2155480  11.360  10.504  16.767
 7162ETHO   H2355481  11.313  10.395  16.898
 7163ETHO    O155482  11.154  10.444  16.772
 7163ETHO    C155483  11.136  10.578  16.772
 7163ETHO   H1155484  11.188  10.620  16.684
 7163ETHO   H1355485  11.167  10.625  16.868
 7163ETHO    C255486  10.989  10.618  16.743
 7163ETHO   H2155487  10.955  10.551  16.661
 7163ETHO   H2355488  10.976  10.721  16.704
 7164ETHO    O155489  10.915  10.599  16.865
 7164ETHO    C155490  10.878  10.723  16.923
 7164ETHO   H1155491  10.952  10.804  16.939
 7164ETHO   H1355492  10.807  10.783  16.862
 7164ETHO    C255493  10.814  10.693  17.058
 7164ETHO   H2155494  10.755  10.599  17.053
 7164ETHO   H2355495  10.742  10.776  17.075
 7165ETHO    O155496  10.906  10.701  17.165
 7165ETHO    C155497  11.012  10.605  17.161
 7165ETHO   H1155498  11.083  10.630  17.080
 7165ETHO   H1355499  10.984  10.503  17.125
 7165ETHO    C255500  11.102  10.603  17.283
 7165ETHO   H2155501  11.166  10.693  17.275
 7165ETHO   H2355502  11.181  10.525  17.290
 7166ETHO    O155503  11.016  10.595  17.401
 7166ETHO    C155504  11.104  10.584  17.515
 7166ETHO   H1155505  11.186  10.513  17.494
 7166ETHO   H1355506  11.144  10.683  17.544
 7166ETHO    C255507  11.012  10.537  17.632
 7166ETHO   H2155508  11.068  10.563  17.725
 7166ETHO   H2355509  10.920  10.599  17.624
 7167ETHO    O155510  10.999  10.394  17.634
 7167ETHO    C155511  10.911  10.351  17.737
 7167ETHO   H1155512  10.806  10.381  17.714
 7167ETHO   H1355513  10.933  10.403  17.832
 7167ETHO    C255514  10.910  10.204  17.766
 7167ETHO   H2155515  10.928  10.153  17.669
 7167ETHO   H2355516  10.812  10.177  17.811
 7168ETHO    O155517  11.017  10.170  17.851
 7168ETHO    C155518  11.001  10.045  17.914
 7168ETHO   H1155519  10.895  10.024  17.942
 7168ETHO   H1355520  11.052   9.968  17.852
 7168ETHO    C255521  11.070  10.038  18.056
 7168ETHO   H2155522  11.180  10.030  18.040
 7168ETHO   H2355523  11.050   9.943  18.109
 7169ETHO    O155524  11.031  10.144  18.140
 7169ETHO    C155525  11.121  10.171  18.249
 7169ETHO   H1155526  11.098  10.272  18.289
 7169ETHO   H1355527  11.229  10.172  18.224
 7169ETHO    C255528  11.079  10.090  18.373
 7169ETHO   H2155529  10.971  10.101  18.398
 7169ETHO   H2355530  11.145  10.118  18.458
 7170ETHO    O155531  11.121   9.953  18.358
 7170ETHO    C155532  11.159   9.893  18.480
 7170ETHO   H1155533  11.245   9.948  18.523
 7170ETHO   H1355534  11.069   9.903  18.544
 7170ETHO    C255535  11.196   9.747  18.462
 7170ETHO   H2155536  11.239   9.731  18.361
 7170ETHO   H2355537  11.277   9.738  18.536
 7171ETHO    O155538  11.093   9.651  18.481
 7171ETHO    C155539  11.141   9.526  18.437
 7171ETHO   H1155540  11.162   9.532  18.328
 7171ETHO   H1355541  11.234   9.498  18.490
 7171ETHO    C255542  11.029   9.419  18.474
 7171ETHO   H2155543  11.065   9.326  18.425
 7171ETHO   H2355544  10.936   9.457  18.427
 7172ETHO    O155545  10.988   9.399  18.609
 7172ETHO    C155546  10.908   9.286  18.621
 7172ETHO   H1155547  10.839   9.275  18.535
 7172ETHO   H1355548  10.983   9.203  18.621
 7172ETHO    C255549  10.836   9.273  18.756
 7172ETHO   H2155550  10.917   9.260  18.831
 7172ETHO   H2355551  10.774   9.181  18.749
 7173ETHO    O155552  10.747   9.368  18.788
 7173ETHO    C155553  10.694   9.355  18.921
 7173ETHO   H1155554  10.630   9.266  18.936
 7173ETHO   H1355555  10.769   9.351  19.003
 7173ETHO    C255556  10.597   9.471  18.955
 7173ETHO   H2155557  10.533   9.453  19.044
 7173ETHO   H2355558  10.527   9.477  18.870
 7174ETHO    O155559  10.667   9.591  18.977
 7174ETHO    C155560  10.579   9.703  18.988
 7174ETHO   H1155561  10.500   9.685  19.063
 7174ETHO   H1355562  10.541   9.720  18.885
 7174ETHO    C255563  10.644   9.826  19.042
 7174ETHO   H2155564  10.572   9.904  19.076
 7174ETHO   H2355565  10.694   9.883  18.961
 7175ETHO    O155566  10.724   9.798  19.156
 7175ETHO    C155567  10.812   9.911  19.185
 7175ETHO   H1155568  10.912   9.872  19.218
 7175ETHO   H1355569  10.846   9.971  19.098
 7175ETHO    C255570  10.747  10.009  19.280
 7175ETHO   H2155571  10.657  10.060  19.238
 7175ETHO   H2355572  10.812  10.087  19.324
 7176ETHO    O155573  10.723   9.927  19.389
 7176ETHO    C155574  10.624   9.987  19.472
 7176ETHO   H1155575  10.530  10.004  19.415
 7176ETHO   H1355576  10.659  10.088  19.500
 7176ETHO    C255577  10.594   9.919  19.604
 7176ETHO   H2155578  10.521   9.971  19.670
 7176ETHO   H2355579  10.690   9.914  19.659
 7177ETHO    O155580  10.566   9.779  19.566
 7177ETHO    C155581  10.560   9.685  19.676
 7177ETHO   H1155582  10.660   9.680  19.725
 7177ETHO   H1355583  10.487   9.727  19.749
 7177ETHO    C255584  10.531   9.536  19.633
 7177ETHO   H2155585  10.591   9.501  19.546
 7177ETHO   H2355586  10.557   9.473  19.721
 7178ETHO    O155587  10.391   9.527  19.615
 7178ETHO    C155588  10.350   9.393  19.627
 7178ETHO   H1155589  10.407   9.329  19.699
 7178ETHO   H1355590  10.363   9.347  19.527
 7178ETHO    C255591  10.197   9.395  19.668
 7178ETHO   H2155592  10.148   9.459  19.592
 7178ETHO   H2355593  10.194   9.444  19.768
 7179ETHO    O155594  10.123   9.276  19.655
 7179ETHO    C155595  10.169   9.183  19.757
 7179ETHO   H1155596  10.271   9.143  19.735
 7179ETHO   H1355597  10.176   9.239  19.852
 7179ETHO    C255598  10.071   9.056  19.780
 7179ETHO   H2155599   9.964   9.086  19.788
 7179ETHO   H2355600  10.103   9.018  19.879
 7180ETHO    O155601  10.089   8.965  19.671
 7180ETHO    C155602  10.000   8.860  19.688
 7180ETHO   H1155603   9.899   8.900  19.712
 7180ETHO   H1355604  10.035   8.806  19.778
 7180ETHO    C255605   9.993   8.764  19.573
 7180ETHO   H2155606   9.946   8.670  19.611
 7180ETHO   H2355607  10.099   8.753  19.544
 7181ETHO    O155608   9.921   8.812  19.460
 7181ETHO    C155609   9.893   8.715  19.362
 7181ETHO   H1155610   9.856   8.626  19.417
 7181ETHO   H1355611   9.804   8.744  19.302
 7181ETHO    C255612  10.011   8.696  19.268
 7181ETHO   H2155613  10.100   8.657  19.322
 7181ETHO   H2355614  10.043   8.798  19.240
 7182ETHO    O155615   9.974   8.602  19.168
 7182ETHO    C155616  10.088   8.545  19.111
 7182ETHO   H1155617  10.144   8.473  19.175
 7182ETHO   H1355618  10.152   8.622  19.063
 7182ETHO    C255619  10.036   8.456  18.993
 7182ETHO   H2155620   9.979   8.367  19.026
 7182ETHO   H2355621  10.125   8.413  18.943
 7183ETHO    O155622   9.951   8.526  18.904
 7183ETHO    C155623   9.914   8.451  18.786
 7183ETHO   H1155624  10.006   8.424  18.729
 7183ETHO   H1355625   9.864   8.361  18.826
 7183ETHO    C255626   9.819   8.527  18.696
 7183ETHO   H2155627   9.771   8.468  18.615
 7183ETHO   H2355628   9.872   8.612  18.649
 7184ETHO    O155629   9.720   8.587  18.780
 7184ETHO    C155630   9.606   8.623  18.709
 7184ETHO   H1155631   9.545   8.536  18.677
 7184ETHO   H1355632   9.634   8.685  18.621
 7184ETHO    C255633   9.522   8.714  18.795
 7184ETHO   H2155634   9.463   8.769  18.719
 7184ETHO   H2355635   9.578   8.785  18.860
 7185ETHO    O155636   9.429   8.636  18.869
 7185ETHO    C155637   9.377   8.701  18.984
 7185ETHO   H1155638   9.460   8.714  19.057
 7185ETHO   H1355639   9.331   8.798  18.956
 7185ETHO    C255640   9.264   8.630  19.057
 7185ETHO   H2155641   9.185   8.607  18.981
 7185ETHO   H2355642   9.218   8.712  19.116
 7186ETHO    O155643   9.286   8.523  19.148
 7186ETHO    C155644   9.347   8.412  19.080
 7186ETHO   H1155645   9.277   8.387  18.998
 7186ETHO   H1355646   9.444   8.456  19.046
 7186ETHO    C255647   9.367   8.284  19.167
 7186ETHO   H2155648   9.369   8.199  19.095
 7186ETHO   H2355649   9.277   8.274  19.230
 7187ETHO    O155650   9.471   8.279  19.260
 7187ETHO    C155651   9.458   8.166  19.343
 7187ETHO   H1155652   9.357   8.167  19.389
 7187ETHO   H1355653   9.466   8.076  19.278
 7187ETHO    C255654   9.556   8.181  19.459
 7187ETHO   H2155655   9.641   8.243  19.423
 7187ETHO   H2355656   9.599   8.082  19.487
 7188ETHO    O155657   9.493   8.243  19.573
 7188ETHO    C155658   9.526   8.380  19.569
 7188ETHO   H1155659   9.632   8.399  19.595
 7188ETHO   H1355660   9.500   8.419  19.468
 7188ETHO    C255661   9.445   8.464  19.668
 7188ETHO   H2155662   9.482   8.452  19.773
 7188ETHO   H2355663   9.344   8.417  19.670
 7189ETHO    O155664   9.424   8.600  19.633
 7189ETHO    C155665   9.546   8.660  19.592
 7189ETHO   H1155666   9.585   8.619  19.497
 7189ETHO   H1355667   9.624   8.634  19.666
 7189ETHO    C255668   9.522   8.813  19.592
 7189ETHO   H2155669   9.429   8.833  19.535
 7189ETHO   H2355670   9.615   8.846  19.541
 7190ETHO    O155671   9.503   8.864  19.724
 7190ETHO    C155672   9.494   9.009  19.724
 7190ETHO   H1155673   9.584   9.055  19.679
 7190ETHO   H1355674   9.404   9.050  19.674
 7190ETHO    C255675   9.487   9.059  19.867
 7190ETHO   H2155676   9.490   9.169  19.881
 7190ETHO   H2355677   9.574   9.043  19.935
 7191ETHO    O155678   9.368   9.012  19.936
 7191ETHO    C155679   9.269   9.109  19.941
 7191ETHO   H1155680   9.249   9.151  19.840
 7191ETHO   H1355681   9.281   9.198  20.006
 7191ETHO    C255682   9.133   9.054  19.981
 7191ETHO   H2155683   9.115   8.957  19.930
 7191ETHO   H2355684   9.060   9.132  19.950
 7192ETHO    O155685   9.128   9.043  20.122
 7192ETHO    C155686   9.178   8.916  20.168
 7192ETHO   H1155687   9.119   8.835  20.121
 7192ETHO   H1355688   9.283   8.900  20.133
 7192ETHO    C255689   9.168   8.889  20.315
 7192ETHO   H2155690   9.198   8.784  20.335
 7192ETHO   H2355691   9.069   8.913  20.359
 7193ETHO    O155692   9.252   8.982  20.382
 7193ETHO    C155693   9.269   8.956  20.517
 7193ETHO   H1155694   9.315   8.858  20.541
 7193ETHO   H1355695   9.175   8.965  20.576
 7193ETHO    C255696   9.365   9.065  20.578
 7193ETHO   H2155697   9.347   9.063  20.687
 7193ETHO   H2355698   9.350   9.162  20.527
 7194ETHO    O155699   9.497   9.014  20.552
 7194ETHO    C155700   9.596   9.105  20.590
 7194ETHO   H1155701   9.585   9.210  20.555
 7194ETHO   H1355702   9.601   9.121  20.700
 7194ETHO    C255703   9.742   9.057  20.546
 7194ETHO   H2155704   9.751   8.948  20.565
 7194ETHO   H2355705   9.815   9.113  20.609
 7195ETHO    O155706   9.762   9.093  20.409
 7195ETHO    C155707   9.884   9.056  20.365
 7195ETHO   H1155708   9.927   8.964  20.410
 7195ETHO   H1355709   9.950   9.140  20.395
 7195ETHO    C255710   9.890   9.051  20.213
 7195ETHO   H2155711   9.991   9.038  20.170
 7195ETHO   H2355712   9.841   9.146  20.181
 7196ETHO    O155713   9.814   8.943  20.164
 7196ETHO    C155714   9.828   8.930  20.021
 7196ETHO   H1155715   9.811   9.027  19.969
 7196ETHO   H1355716   9.937   8.911  20.004
 7196ETHO    C255717   9.739   8.823  19.957
 7196ETHO   H2155718   9.730   8.831  19.847
 7196ETHO   H2355719   9.632   8.822  19.986
 7197ETHO    O155720   9.790   8.690  19.980
 7197ETHO    C155721   9.695   8.583  19.947
 7197ETHO   H1155722   9.632   8.564  20.036
 7197ETHO   H1355723   9.619   8.606  19.869
 7197ETHO    C255724   9.753   8.446  19.917
 7197ETHO   H2155725   9.682   8.361  19.914
 7197ETHO   H2355726   9.833   8.422  19.991
 7198ETHO    O155727   9.821   8.430  19.795
 7198ETHO    C155728   9.871   8.293  19.773
 7198ETHO   H1155729   9.953   8.273  19.845
 7198ETHO   H1355730   9.802   8.210  19.801
 7198ETHO    C255731   9.937   8.276  19.635
 7198ETHO   H2155732   9.871   8.308  19.551
 7198ETHO   H2355733   9.960   8.169  19.616
 7199ETHO    O155734  10.059   8.347  19.627
 7199ETHO    C155735  10.115   8.340  19.499
 7199ETHO   H1155736  10.110   8.244  19.442
 7199ETHO   H1355737  10.058   8.405  19.430
 7199ETHO    C255738  10.264   8.389  19.513
 7199ETHO   H2155739  10.315   8.321  19.585
 7199ETHO   H2355740  10.261   8.491  19.556
 7200ETHO    O155741  10.348   8.386  19.396
 7200ETHO    C155742  10.400   8.512  19.359
 7200ETHO   H1155743  10.449   8.551  19.450
 7200ETHO   H1355744  10.314   8.582  19.349
 7200ETHO    C255745  10.495   8.504  19.238
 7200ETHO   H2155746  10.541   8.403  19.240
 7200ETHO   H2355747  10.566   8.589  19.236
 7201ETHO    O155748  10.406   8.514  19.127
 7201ETHO    C155749  10.468   8.533  19.004
 7201ETHO   H1155750  10.415   8.599  18.932
 7201ETHO   H1355751  10.556   8.600  19.015
 7201ETHO    C255752  10.527   8.404  18.938
 7201ETHO   H2155753  10.571   8.337  19.015
 7201ETHO   H2355754  10.605   8.424  18.860
 7202ETHO    O155755  10.424   8.332  18.883
 7202ETHO    C155756  10.469   8.224  18.801
 7202ETHO   H1155757  10.465   8.124  18.848
 7202ETHO   H1355758  10.571   8.242  18.760
 7202ETHO    C255759  10.386   8.226  18.669
 7202ETHO   H2155760  10.450   8.176  18.593
 7202ETHO   H2355761  10.374   8.334  18.646
 7203ETHO    O155762  10.254   8.172  18.665
 7203ETHO    C155763  10.206   8.156  18.528
 7203ETHO   H1155764  10.174   8.250  18.477
 7203ETHO   H1355765  10.276   8.090  18.473
 7203ETHO    C255766  10.074   8.072  18.534
 7203ETHO   H2155767  10.005   8.103  18.615
 7203ETHO   H2355768  10.012   8.075  18.442
 7204ETHO    O155769  10.114   7.938  18.546
 7204ETHO    C155770   9.999   7.858  18.545
 7204ETHO   H1155771   9.950   7.868  18.446
 7204ETHO   H1355772   9.943   7.884  18.638
 7204ETHO    C255773  10.030   7.713  18.574
 7204ETHO   H2155774  10.093   7.674  18.492
 7204ETHO   H2355775   9.932   7.660  18.566
 7205ETHO    O155776  10.079   7.685  18.700
 7205ETHO    C155777   9.991   7.594  18.768
 7205ETHO   H1155778   9.908   7.658  18.804
 7205ETHO   H1355779   9.963   7.509  18.702
 7205ETHO    C255780  10.047   7.540  18.898
 7205ETHO   H2155781   9.956   7.514  18.957
 7205ETHO   H2355782  10.104   7.614  18.958
 7206ETHO    O155783  10.130   7.428  18.888
 7206ETHO    C155784  10.054   7.300  18.883
 7206ETHO   H1155785   9.967   7.306  18.815
 7206ETHO   H1355786  10.003   7.278  18.980
 7206ETHO    C255787  10.142   7.178  18.854
 7206ETHO   H2155788  10.101   7.078  18.879
 7206ETHO   H2355789  10.238   7.179  18.911
 7207ETHO    O155790  10.161   7.185  18.709
 7207ETHO    C155791  10.208   7.065  18.660
 7207ETHO   H1155792  10.140   6.984  18.694
 7207ETHO   H1355793  10.205   7.064  18.548
 7207ETHO    C255794  10.349   7.031  18.711
 7207ETHO   H2155795  10.401   7.129  18.717
 7207ETHO   H2355796  10.396   6.964  18.636
 7208ETHO    O155797  10.353   6.957  18.837
 7208ETHO    C155798  10.493   6.936  18.872
 7208ETHO   H1155799  10.561   7.008  18.822
 7208ETHO   H1355800  10.516   6.956  18.979
 7208ETHO    C255801  10.548   6.799  18.838
 7208ETHO   H2155802  10.658   6.801  18.854
 7208ETHO   H2355803  10.529   6.771  18.732
 7209ETHO    O155804  10.481   6.703  18.927
 7209ETHO    C155805  10.551   6.575  18.931
 7209ETHO   H1155806  10.661   6.586  18.943
 7209ETHO   H1355807  10.526   6.534  19.032
 7209ETHO    C255808  10.507   6.472  18.820
 7209ETHO   H2155809  10.400   6.445  18.832
 7209ETHO   H2355810  10.560   6.377  18.844
 7210ETHO    O155811  10.545   6.513  18.685
 7210ETHO    C155812  10.543   6.416  18.590
 7210ETHO   H1155813  10.576   6.473  18.501
 7210ETHO   H1355814  10.626   6.342  18.597
 7210ETHO    C255815  10.406   6.368  18.542
 7210ETHO   H2155816  10.343   6.459  18.544
 7210ETHO   H2355817  10.427   6.339  18.437
 7211ETHO    O155818  10.346   6.266  18.618
 7211ETHO    C155819  10.201   6.280  18.608
 7211ETHO   H1155820  10.162   6.279  18.504
 7211ETHO   H1355821  10.165   6.373  18.658
 7211ETHO    C255822  10.139   6.171  18.692
 7211ETHO   H2155823  10.168   6.067  18.665
 7211ETHO   H2355824  10.030   6.175  18.671
 7212ETHO    O155825  10.142   6.191  18.834
 7212ETHO    C155826  10.270   6.154  18.887
 7212ETHO   H1155827  10.293   6.047  18.870
 7212ETHO   H1355828  10.344   6.210  18.826
 7212ETHO    C255829  10.283   6.196  19.041
 7212ETHO   H2155830  10.387   6.181  19.076
 7212ETHO   H2355831  10.217   6.131  19.102
 7213ETHO    O155832  10.248   6.330  19.067
 7213ETHO    C155833  10.248   6.348  19.211
 7213ETHO   H1155834  10.349   6.329  19.251
 7213ETHO   H1355835  10.173   6.278  19.252
 7213ETHO    C255836  10.207   6.486  19.258
 7213ETHO   H2155837  10.187   6.459  19.364
 7213ETHO   H2355838  10.100   6.490  19.225
 7214ETHO    O155839  10.294   6.593  19.232
 7214ETHO    C155840  10.329   6.667  19.346
 7214ETHO   H1155841  10.239   6.674  19.411
 7214ETHO   H1355842  10.412   6.618  19.400
 7214ETHO    C255843  10.385   6.808  19.303
 7214ETHO   H2155844  10.450   6.799  19.213
 7214ETHO   H2355845  10.451   6.843  19.386
 7215ETHO    O155846  10.284   6.896  19.274
 7215ETHO    C155847  10.342   7.027  19.256
 7215ETHO   H1155848  10.417   7.026  19.174
 7215ETHO   H1355849  10.396   7.058  19.348
 7215ETHO    C255850  10.222   7.124  19.225
 7215ETHO   H2155851  10.167   7.087  19.136
 7215ETHO   H2355852  10.257   7.227  19.203
 7216ETHO    O155853  10.135   7.144  19.334
 7216ETHO    C155854  10.018   7.212  19.289
 7216ETHO   H1155855  10.042   7.319  19.275
 7216ETHO   H1355856   9.983   7.163  19.195
 7216ETHO    C255857   9.906   7.194  19.396
 7216ETHO   H2155858   9.880   7.090  19.423
 7216ETHO   H2355859   9.811   7.227  19.351
 7217ETHO    O155860   9.931   7.267  19.516
 7217ETHO    C155861   9.833   7.247  19.618
 7217ETHO   H1155862   9.736   7.201  19.587
 7217ETHO   H1355863   9.800   7.346  19.655
 7217ETHO    C255864   9.896   7.162  19.738
 7217ETHO   H2155865   9.935   7.064  19.702
 7217ETHO   H2355866   9.812   7.142  19.807
 7218ETHO    O155867   9.992   7.224  19.825
 7218ETHO    C155868  10.120   7.236  19.766
 7218ETHO   H1155869  10.180   7.146  19.789
 7218ETHO   H1355870  10.106   7.245  19.656
 7218ETHO    C255871  10.210   7.357  19.809
 7218ETHO   H2155872  10.316   7.338  19.782
 7218ETHO   H2355873  10.205   7.369  19.919
 7219ETHO    O155874  10.154   7.475  19.756
 7219ETHO    C155875  10.237   7.585  19.788
 7219ETHO   H1155876  10.342   7.560  19.764
 7219ETHO   H1355877  10.228   7.610  19.896
 7219ETHO    C255878  10.180   7.708  19.721
 7219ETHO   H2155879  10.184   7.703  19.610
 7219ETHO   H2355880  10.232   7.799  19.758
 7220ETHO    O155881  10.051   7.729  19.764
 7220ETHO    C155882   9.982   7.832  19.688
 7220ETHO   H1155883  10.038   7.927  19.704
 7220ETHO   H1355884   9.982   7.796  19.583
 7220ETHO    C255885   9.838   7.856  19.729
 7220ETHO   H2155886   9.784   7.764  19.700
 7220ETHO   H2355887   9.788   7.933  19.667
 7221ETHO    O155888   9.822   7.896  19.862
 7221ETHO    C155889   9.694   7.952  19.897
 7221ETHO   H1155890   9.618   7.871  19.898
 7221ETHO   H1355891   9.658   8.033  19.830
 7221ETHO    C255892   9.682   8.004  20.043
 7221ETHO   H2155893   9.707   7.922  20.115
 7221ETHO   H2355894   9.572   8.013  20.061
 7222ETHO    O155895   9.754   8.125  20.067
 7222ETHO    C155896   9.706   8.203  20.171
 7222ETHO   H1155897   9.782   8.280  20.199
 7222ETHO   H1355898   9.612   8.258  20.148
 7222ETHO    C255899   9.679   8.133  20.305
 7222ETHO   H2155900   9.617   8.042  20.285
 7222ETHO   H2355901   9.636   8.202  20.381
 7223ETHO    O155902   9.795   8.086  20.366
 7223ETHO    C155903   9.776   7.959  20.425
 7223ETHO   H1155904   9.683   7.960  20.486
 7223ETHO   H1355905   9.755   7.887  20.343
 7223ETHO    C255906   9.899   7.926  20.513
 7223ETHO   H2155907   9.987   7.970  20.462
 7223ETHO   H2355908   9.910   7.815  20.512
 7224ETHO    O155909   9.893   7.979  20.646
 7224ETHO    C155910  10.012   7.963  20.719
 7224ETHO   H1155911  10.047   7.858  20.707
 7224ETHO   H1355912  10.082   8.036  20.674
 7224ETHO    C255913   9.991   7.992  20.868
 7224ETHO   H2155914   9.952   8.093  20.894
 7224ETHO   H2355915  10.093   7.998  20.911
 7225ETHO    O155916   9.939   7.885  20.942
 7225ETHO    C155917   9.795   7.906  20.959
 7225ETHO   H1155918   9.764   7.997  21.015
 7225ETHO   H1355919   9.750   7.928  20.860
 7225ETHO    C255920   9.734   7.779  21.019
 7225ETHO   H2155921   9.632   7.788  21.062
 7225ETHO   H2355922   9.798   7.755  21.107
 7226ETHO    O155923   9.743   7.669  20.930
 7226ETHO    C155924   9.637   7.658  20.835
 7226ETHO   H1155925   9.650   7.733  20.753
 7226ETHO   H1355926   9.544   7.686  20.889
 7226ETHO    C255927   9.631   7.513  20.784
 7226ETHO   H2155928   9.529   7.486  20.752
 7226ETHO   H2355929   9.656   7.453  20.875
 7227ETHO    O155930   9.735   7.478  20.691
 7227ETHO    C155931   9.697   7.526  20.562
 7227ETHO   H1155932   9.587   7.518  20.548
 7227ETHO   H1355933   9.724   7.633  20.546
 7227ETHO    C255934   9.752   7.439  20.447
 7227ETHO   H2155935   9.863   7.443  20.454
 7227ETHO   H2355936   9.711   7.478  20.351
 7228ETHO    O155937   9.710   7.306  20.470
 7228ETHO    C155938   9.739   7.227  20.358
 7228ETHO   H1155939   9.848   7.232  20.335
 7228ETHO   H1355940   9.679   7.269  20.275
 7228ETHO    C255941   9.688   7.082  20.361
 7228ETHO   H2155942   9.743   7.014  20.429
 7228ETHO   H2355943   9.697   7.038  20.259
 7229ETHO    O155944   9.549   7.078  20.385
 7229ETHO    C155945   9.516   7.035  20.515
 7229ETHO   H1155946   9.596   7.054  20.590
 7229ETHO   H1355947   9.427   7.091  20.551
 7229ETHO    C255948   9.471   6.887  20.517
 7229ETHO   H2155949   9.374   6.855  20.474
 7229ETHO   H2355950   9.461   6.867  20.626
 7230ETHO    O155951   9.583   6.798  20.484
 7230ETHO    C155952   9.545   6.660  20.480
 7230ETHO   H1155953   9.453   6.654  20.418
 7230ETHO   H1355954   9.531   6.621  20.583
 7230ETHO    C255955   9.656   6.569  20.424
 7230ETHO   H2155956   9.680   6.596  20.318
 7230ETHO   H2355957   9.626   6.463  20.430
 7231ETHO    O155958   9.771   6.577  20.501
 7231ETHO    C155959   9.879   6.510  20.434
 7231ETHO   H1155960   9.874   6.402  20.462
 7231ETHO   H1355961   9.883   6.520  20.324
 7231ETHO    C255962  10.011   6.563  20.493
 7231ETHO   H2155963  10.101   6.504  20.468
 7231ETHO   H2355964   9.992   6.547  20.601
 7232ETHO    O155965  10.043   6.704  20.458
 7232ETHO    C155966  10.119   6.763  20.564
 7232ETHO   H1155967  10.217   6.713  20.553
 7232ETHO   H1355968  10.068   6.737  20.660
 7232ETHO    C255969  10.136   6.916  20.564
 7232ETHO   H2155970  10.178   6.942  20.663
 7232ETHO   H2355971  10.043   6.975  20.551
 7233ETHO    O155972  10.238   6.957  20.466
 7233ETHO    C155973  10.225   7.091  20.435
 7233ETHO   H1155974  10.128   7.112  20.384
 7233ETHO   H1355975  10.232   7.150  20.529
 7233ETHO    C255976  10.346   7.129  20.345
 7233ETHO   H2155977  10.444   7.093  20.381
 7233ETHO   H2355978  10.356   7.240  20.344
 7234ETHO    O155979  10.311   7.068  20.219
 7234ETHO    C155980  10.393   7.109  20.117
 7234ETHO   H1155981  10.365   7.215  20.100
 7234ETHO   H1355982  10.502   7.116  20.139
 7234ETHO    C255983  10.387   7.037  19.979
 7234ETHO   H2155984  10.395   7.114  19.899
 7234ETHO   H2355985  10.286   6.992  19.984
 7235ETHO    O155986  10.487   6.936  19.958
 7235ETHO    C155987  10.454   6.833  19.871
 7235ETHO   H1155988  10.544   6.770  19.853
 7235ETHO   H1355989  10.372   6.771  19.914
 7235ETHO    C255990  10.408   6.866  19.731
 7235ETHO   H2155991  10.325   6.940  19.733
 7235ETHO   H2355992  10.355   6.776  19.694
 7236ETHO    O155993  10.501   6.903  19.630
 7236ETHO    C155994  10.553   7.038  19.653
 7236ETHO   H1155995  10.466   7.108  19.645
 7236ETHO   H1355996  10.592   7.047  19.757
 7236ETHO    C255997  10.664   7.080  19.558
 7236ETHO   H2155998  10.705   7.176  19.596
 7236ETHO   H2355999  10.741   7.001  19.559
 7237ETHO    O156000  10.617   7.094  19.419
 7237ETHO    C156001  10.730   7.138  19.335
 7237ETHO   H1156002  10.808   7.060  19.344
 7237ETHO   H1356003  10.773   7.231  19.378
 7237ETHO    C256004  10.697   7.146  19.187
 7237ETHO   H2156005  10.655   7.058  19.136
 7237ETHO   H2356006  10.796   7.169  19.142
 7238ETHO    O156007  10.612   7.258  19.170
 7238ETHO    C156008  10.582   7.265  19.031
 7238ETHO   H1156009  10.663   7.241  18.959
 7238ETHO   H1356010  10.501   7.191  19.014
 7238ETHO    C256011  10.514   7.399  18.989
 7238ETHO   H2156012  10.449   7.433  19.072
 7238ETHO   H2356013  10.457   7.390  18.894
 7239ETHO    O156014  10.622   7.483  18.956
 7239ETHO    C156015  10.573   7.609  18.906
 7239ETHO   H1156016  10.499   7.653  18.976
 7239ETHO   H1356017  10.515   7.587  18.814
 7239ETHO    C256018  10.681   7.711  18.871
 7239ETHO   H2156019  10.729   7.733  18.968
 7239ETHO   H2356020  10.650   7.815  18.847
 7240ETHO    O156021  10.779   7.650  18.782
 7240ETHO    C156022  10.907   7.618  18.833
 7240ETHO   H1156023  10.940   7.697  18.903
 7240ETHO   H1356024  10.908   7.518  18.883
 7240ETHO    C256025  11.015   7.621  18.731
 7240ETHO   H2156026  10.984   7.568  18.638
 7240ETHO   H2356027  11.104   7.575  18.779
 7241ETHO    O156028  11.050   7.757  18.701
 7241ETHO    C156029  11.152   7.762  18.606
 7241ETHO   H1156030  11.119   7.747  18.501
 7241ETHO   H1356031  11.234   7.690  18.627
 7241ETHO    C256032  11.216   7.903  18.626
 7241ETHO   H2156033  11.307   7.921  18.565
 7241ETHO   H2356034  11.254   7.901  18.731
 7242ETHO    O156035  11.133   8.012  18.595
 7242ETHO    C156036  11.200   8.131  18.565
 7242ETHO   H1156037  11.252   8.177  18.652
 7242ETHO   H1356038  11.284   8.115  18.494
 7242ETHO    C256039  11.105   8.244  18.523
 7242ETHO   H2156040  11.158   8.339  18.504
 7242ETHO   H2356041  11.038   8.274  18.607
 7243ETHO    O156042  11.026   8.212  18.413
 7243ETHO    C156043  11.006   8.322  18.330
 7243ETHO   H1156044  11.099   8.377  18.304
 7243ETHO   H1356045  10.924   8.389  18.363
 7243ETHO    C256046  10.953   8.270  18.197
 7243ETHO   H2156047  10.864   8.327  18.163
 7243ETHO   H2356048  10.915   8.167  18.216
 7244ETHO    O156049  11.049   8.276  18.093
 7244ETHO    C156050  11.002   8.239  17.963
 7244ETHO   H1156051  10.961   8.136  17.962
 7244ETHO   H1356052  10.933   8.310  17.912
 7244ETHO    C256053  11.119   8.233  17.861
 7244ETHO   H2156054  11.109   8.146  17.792
 7244ETHO   H2356055  11.210   8.192  17.910
 7245ETHO    O156056  11.147   8.346  17.780
 7245ETHO    C156057  11.224   8.440  17.850
 7245ETHO   H1156058  11.161   8.530  17.864
 7245ETHO   H1356059  11.256   8.410  17.953
 7245ETHO    C256060  11.345   8.474  17.758
 7245ETHO   H2156061  11.304   8.475  17.655
 7245ETHO   H2356062  11.415   8.391  17.780
 7246ETHO    O156063  11.404   8.601  17.790
 7246ETHO    C156064  11.493   8.647  17.683
 7246ETHO   H1156065  11.571   8.568  17.680
 7246ETHO   H1356066  11.440   8.642  17.586
 7246ETHO    C256067  11.541   8.789  17.724
 7246ETHO   H2156068  11.618   8.834  17.657
 7246ETHO   H2356069  11.590   8.790  17.823
 7247ETHO    O156070  11.415   8.857  17.718
 7247ETHO    C156071  11.428   8.986  17.785
 7247ETHO   H1156072  11.446   8.973  17.894
 7247ETHO   H1356073  11.521   9.029  17.740
 7247ETHO    C256074  11.309   9.078  17.759
 7247ETHO   H2156075  11.318   9.176  17.809
 7247ETHO   H2356076  11.228   9.023  17.812
 7248ETHO    O156077  11.285   9.105  17.619
 7248ETHO    C156078  11.153   9.132  17.585
 7248ETHO   H1156079  11.132   9.224  17.644
 7248ETHO   H1356080  11.081   9.055  17.620
 7248ETHO    C256081  11.140   9.163  17.441
 7248ETHO   H2156082  11.030   9.169  17.423
 7248ETHO   H2356083  11.175   9.090  17.365
 7249ETHO    O156084  11.189   9.289  17.403
 7249ETHO    C156085  11.328   9.286  17.370
 7249ETHO   H1156086  11.387   9.281  17.464
 7249ETHO   H1356087  11.346   9.200  17.303
 7249ETHO    C256088  11.390   9.416  17.311
 7249ETHO   H2156089  11.311   9.467  17.252
 7249ETHO   H2356090  11.481   9.386  17.254
 7250ETHO    O156091  11.453   9.503  17.403
 7250ETHO    C156092  11.491   9.628  17.340
 7250ETHO   H1156093  11.532   9.696  17.419
 7250ETHO   H1356094  11.397   9.682  17.315
 7250ETHO    C256095  11.582   9.633  17.216
 7250ETHO   H2156096  11.597   9.738  17.182
 7250ETHO   H2356097  11.540   9.571  17.134
 7251ETHO    O156098  11.704   9.583  17.264
 7251ETHO    C156099  11.802   9.571  17.161
 7251ETHO   H1156100  11.887   9.513  17.203
 7251ETHO   H1356101  11.761   9.519  17.072
 7251ETHO    C256102  11.860   9.696  17.096
 7251ETHO   H2156103  11.921   9.743  17.176
 7251ETHO   H2356104  11.786   9.770  17.057
 7252ETHO    O156105  11.951   9.670  16.987
 7252ETHO    C156106  12.018   9.790  16.945
 7252ETHO   H1156107  12.076   9.833  17.030
 7252ETHO   H1356108  11.932   9.859  16.931
 7252ETHO    C256109  12.090   9.760  16.806
 7252ETHO   H2156110  12.147   9.665  16.817
 7252ETHO   H2356111  12.168   9.839  16.794
 7253ETHO    O156112  12.012   9.755  16.688
 7253ETHO    C156113  12.091   9.769  16.570
 7253ETHO   H1156114  12.161   9.854  16.586
 7253ETHO   H1356115  12.161   9.684  16.553
 7253ETHO    C256116  12.001   9.789  16.440
 7253ETHO   H2156117  11.920   9.713  16.440
 7253ETHO   H2356118  12.064   9.746  16.358
 7254ETHO    O156119  11.965   9.918  16.401
 7254ETHO    C156120  11.856   9.920  16.317
 7254ETHO   H1156121  11.765   9.888  16.373
 7254ETHO   H1356122  11.861   9.848  16.232
 7254ETHO    C256123  11.830  10.052  16.257
 7254ETHO   H2156124  11.819  10.136  16.329
 7254ETHO   H2356125  11.738  10.056  16.194
 7255ETHO    O156126  11.935  10.075  16.153
 7255ETHO    C156127  11.918  10.203  16.092
 7255ETHO   H1156128  11.811  10.227  16.076
 7255ETHO   H1356129  11.965  10.282  16.154
 7255ETHO    C256130  11.996  10.194  15.963
 7255ETHO   H2156131  12.099  10.163  15.990
 7255ETHO   H2356132  12.005  10.290  15.907
 7256PROX    O156133  11.949  10.094  15.866
 7256PROX    C156134  12.038  10.095  15.755
 7256PROX   H1156135  12.047  10.199  15.717
 7256PROX   H1356136  12.140  10.058  15.777
 7256PROX    C256137  11.969  10.015  15.640
 7256PROX   H2156138  11.880  10.076  15.615
 7256PROX    C356139  11.930   9.873  15.667
 7256PROX   H3156140  12.025   9.814  15.671
 7256PROX   H3256141  11.880   9.856  15.764
 7256PROX   H3356142  11.866   9.811  15.600
 7257PROX    O156143  12.054  10.021  15.529
 7257PROX    C156144  11.997  10.078  15.415
 7257PROX   H1156145  11.919  10.154  15.435
 7257PROX   H1356146  12.079  10.108  15.346
 7257PROX    C256147  11.924   9.965  15.335
 7257PROX   H2156148  11.842   9.929  15.401
 7257PROX    C356149  12.010   9.847  15.297
 7257PROX   H3156150  11.947   9.778  15.236
 7257PROX   H3256151  12.103   9.870  15.241
 7257PROX   H3356152  12.044   9.792  15.388
 7258PROX    O156153  11.862  10.025  15.218
 7258PROX    C156154  11.716  10.012  15.221
 7258PROX   H1156155  11.673   9.911  15.243
 7258PROX   H1356156  11.684  10.084  15.299
 7258PROX    C256157  11.668  10.063  15.090
 7258PROX   H2156158  11.697   9.991  15.011
 7258PROX    C356159  11.721  10.199  15.038
 7258PROX   H3156160  11.676  10.217  14.938
 7258PROX   H3256161  11.697  10.282  15.107
 7258PROX   H3356162  11.829  10.201  15.010
 7259PROX    O156163  11.522  10.066  15.086
 7259PROX    C156164  11.472   9.976  14.990
 7259PROX   H1156165  11.504  10.023  14.895
 7259PROX   H1356166  11.512   9.873  14.991
 7259PROX    C256167  11.315   9.978  14.990
 7259PROX   H2156168  11.272  10.080  14.989
 7259PROX    C356169  11.277   9.907  15.121
 7259PROX   H3156170  11.320   9.804  15.120
 7259PROX   H3256171  11.322   9.967  15.203
 7259PROX   H3356172  11.168   9.915  15.143
 7260PROX    O156173  11.265   9.909  14.879
 7260PROX    C156174  11.133   9.954  14.845
 7260PROX   H1156175  11.093   9.857  14.809
 7260PROX   H1356176  11.083   9.983  14.940
 7260PROX    C256177  11.114  10.061  14.734
 7260PROX   H2156178  11.151  10.155  14.780
 7260PROX    C356179  10.970  10.096  14.689
 7260PROX   H3156180  10.967  10.160  14.598
 7260PROX   H3256181  10.910  10.004  14.669
 7260PROX   H3356182  10.921  10.146  14.775
 7261PROX    O156183  11.185  10.028  14.622
 7261PROX    C156184  11.281  10.124  14.591
 7261PROX   H1156185  11.246  10.214  14.536
 7261PROX   H1356186  11.335  10.164  14.680
 7261PROX    C256187  11.393  10.049  14.501
 7261PROX   H2156188  11.344  10.007  14.411
 7261PROX    C356189  11.452   9.929  14.576
 7261PROX   H3156190  11.384   9.872  14.643
 7261PROX   H3256191  11.489   9.863  14.495
 7261PROX   H3356192  11.536   9.973  14.634
 7262PROX    O156193  11.482  10.145  14.458
 7262PROX    C156194  11.547  10.101  14.341
 7262PROX   H1156195  11.598  10.006  14.368
 7262PROX   H1356196  11.477  10.071  14.260
 7262PROX    C256197  11.635  10.205  14.271
 7262PROX   H2156198  11.700  10.245  14.352
 7262PROX    C356199  11.552  10.305  14.195
 7262PROX   H3156200  11.485  10.249  14.127
 7262PROX   H3256201  11.499  10.380  14.258
 7262PROX   H3356202  11.611  10.370  14.128
 7263PROX    O156203  11.727  10.147  14.173
 7263PROX    C156204  11.857  10.124  14.221
 7263PROX   H1156205  11.861  10.103  14.330
 7263PROX   H1356206  11.903  10.042  14.161
 7263PROX    C256207  11.939  10.254  14.204
 7263PROX   H2156208  11.889  10.334  14.262
 7263PROX    C356209  11.953  10.303  14.056
 7263PROX   H3156210  12.021  10.232  14.002
 7263PROX   H3256211  11.858  10.304  13.999
 7263PROX   H3356212  12.005  10.400  14.047
 7264PROX    O156213  12.067  10.229  14.260
 7264PROX    C156214  12.078  10.245  14.407
 7264PROX   H1156215  12.023  10.339  14.428
 7264PROX   H1356216  12.010  10.171  14.455
 7264PROX    C256217  12.216  10.229  14.465
 7264PROX   H2156218  12.291  10.290  14.410
 7264PROX    C356219  12.263  10.084  14.464
 7264PROX   H3156220  12.286  10.050  14.361
 7264PROX   H3256221  12.366  10.072  14.504
 7264PROX   H3356222  12.183  10.019  14.506
 7265PROX    O156223  12.203  10.281  14.602
 7265PROX    C156224  12.298  10.384  14.635
 7265PROX   H1156225  12.314  10.461  14.557
 7265PROX   H1356226  12.268  10.437  14.728
 7265PROX    C256227  12.440  10.336  14.660
 7265PROX   H2156228  12.465  10.279  14.568
 7265PROX    C356229  12.432  10.243  14.785
 7265PROX   H3156230  12.412  10.297  14.879
 7265PROX   H3256231  12.359  10.161  14.768
 7265PROX   H3356232  12.531  10.194  14.798
 7266PROX    O156233  12.533  10.447  14.672
 7266PROX    C156234  12.561  10.490  14.800
 7266PROX   H1156235  12.468  10.505  14.860
 7266PROX   H1356236  12.624  10.414  14.852
 7266PROX    C256237  12.634  10.633  14.814
 7266PROX   H2156238  12.579  10.703  14.748
 7266PROX    C356239  12.787  10.637  14.780
 7266PROX   H3156240  12.799  10.622  14.670
 7266PROX   H3256241  12.838  10.734  14.791
 7266PROX   H3356242  12.844  10.559  14.834
 7267PROX    O156243  12.616  10.664  14.958
 7267PROX    C156244  12.653  10.798  14.991
 7267PROX   H1156245  12.758  10.794  15.027
 7267PROX   H1356246  12.650  10.861  14.899
 7267PROX    C256247  12.574  10.862  15.107
 7267PROX   H2156248  12.635  10.952  15.131
 7267PROX    C356249  12.547  10.782  15.234
 7267PROX   H3156250  12.506  10.681  15.210
 7267PROX   H3256251  12.636  10.770  15.300
 7267PROX   H3356252  12.466  10.841  15.282
 7268PROX    O156253  12.444  10.913  15.066
 7268PROX    C156254  12.347  10.822  15.007
 7268PROX   H1156255  12.378  10.716  15.002
 7268PROX   H1356256  12.248  10.825  15.059
 7268PROX    C256257  12.327  10.859  14.858
 7268PROX   H2156258  12.417  10.821  14.805
 7268PROX    C356259  12.302  11.015  14.836
 7268PROX   H3156260  12.361  11.075  14.908
 7268PROX   H3256261  12.330  11.050  14.734
 7268PROX   H3356262  12.197  11.041  14.857
 7269PROX    O156263  12.214  10.789  14.818
 7269PROX    C156264  12.228  10.745  14.680
 7269PROX   H1156265  12.253  10.838  14.624
 7269PROX   H1356266  12.305  10.666  14.669
 7269PROX    C256267  12.099  10.674  14.624
 7269PROX   H2156268  12.079  10.581  14.681
 7269PROX    C356269  12.090  10.641  14.475
 7269PROX   H3156270  12.078  10.733  14.414
 7269PROX   H3256271  12.177  10.581  14.442
 7269PROX   H3356272  11.993  10.588  14.459
 7270PROX    O156273  11.996  10.770  14.654
 7270PROX    C156274  11.865  10.720  14.681
 7270PROX   H1156275  11.791  10.803  14.679
 7270PROX   H1356276  11.828  10.648  14.605
 7270PROX    C256277  11.853  10.659  14.825
 7270PROX   H2156278  11.946  10.690  14.877
 7270PROX    C356279  11.846  10.510  14.842
 7270PROX   H3156280  11.755  10.463  14.800
 7270PROX   H3256281  11.931  10.459  14.790
 7270PROX   H3356282  11.852  10.471  14.945
 7271PROX    O156283  11.741  10.722  14.894
 7271PROX    C156284  11.753  10.745  15.035
 7271PROX   H1156285  11.651  10.754  15.078
 7271PROX   H1356286  11.811  10.659  15.075
 7271PROX    C256287  11.835  10.875  15.076
 7271PROX   H2156288  11.934  10.874  15.026
 7271PROX    C356289  11.863  10.880  15.226
 7271PROX   H3156290  11.767  10.860  15.279
 7271PROX   H3256291  11.938  10.805  15.257
 7271PROX   H3356292  11.882  10.987  15.250
 7272PROX    O156293  11.758  10.995  15.055
 7272PROX    C156294  11.745  11.032  14.918
 7272PROX   H1156295  11.699  10.951  14.858
 7272PROX   H1356296  11.683  11.124  14.915
 7272PROX    C256297  11.884  11.073  14.842
 7272PROX   H2156298  11.944  10.980  14.835
 7272PROX    C356299  11.964  11.185  14.924
 7272PROX   H3156300  12.046  11.223  14.860
 7272PROX   H3256301  11.895  11.268  14.951
 7272PROX   H3356302  12.003  11.149  15.021
 7273PROX    O156303  11.854  11.121  14.705
 7273PROX    C156304  11.974  11.116  14.617
 7273PROX   H1156305  12.042  11.201  14.638
 7273PROX   H1356306  12.030  11.024  14.644
 7273PROX    C256307  11.938  11.119  14.464
 7273PROX   H2156308  11.883  11.215  14.450
 7273PROX    C356309  11.864  10.999  14.407
 7273PROX   H3156310  11.891  10.976  14.302
 7273PROX   H3256311  11.900  10.917  14.473
 7273PROX   H3356312  11.754  11.007  14.408
 7274PROX    O156313  12.050  11.144  14.389
 7274PROX    C156314  12.148  11.041  14.391
 7274PROX   H1156315  12.152  10.993  14.491
 7274PROX   H1356316  12.123  10.962  14.317
 7274PROX    C256317  12.292  11.090  14.362
 7274PROX   H2156318  12.307  11.164  14.443
 7274PROX    C356319  12.316  11.164  14.230
 7274PROX   H3156320  12.424  11.189  14.218
 7274PROX   H3256321  12.305  11.088  14.150
 7274PROX   H3356322  12.250  11.252  14.213
 7275PROX    O156323  12.385  10.983  14.386
 7275PROX    C156324  12.519  11.030  14.405
 7275PROX   H1156325  12.578  11.072  14.320
 7275PROX   H1356326  12.521  11.085  14.502
 7275PROX    C256327  12.602  10.905  14.452
 7275PROX   H2156328  12.540  10.849  14.524
 7275PROX    C356329  12.727  10.958  14.506
 7275PROX   H3156330  12.783  11.025  14.438
 7275PROX   H3256331  12.708  11.012  14.602
 7275PROX   H3356332  12.795  10.878  14.540
 7276PROX    O156333  12.632  10.841  14.332
 7276PROX    C156334  12.644  10.702  14.340
 7276PROX   H1156335  12.692  10.666  14.246
 7276PROX   H1356336  12.712  10.663  14.418
 7276PROX    C256337  12.504  10.631  14.362
 7276PROX   H2156338  12.480  10.627  14.470
 7276PROX    C356339  12.517  10.487  14.319
 7276PROX   H3156340  12.542  10.496  14.211
 7276PROX   H3256341  12.578  10.425  14.388
 7276PROX   H3356342  12.413  10.448  14.323
 7277PROX    O156343  12.394  10.696  14.302
 7277PROX    C156344  12.408  10.731  14.165
 7277PROX   H1156345  12.440  10.837  14.154
 7277PROX   H1356346  12.468  10.658  14.107
 7277PROX    C256347  12.270  10.712  14.101
 7277PROX   H2156348  12.193  10.765  14.161
 7277PROX    C356349  12.232  10.558  14.104
 7277PROX   H3156350  12.321  10.495  14.081
 7277PROX   H3256351  12.196  10.524  14.204
 7277PROX   H3356352  12.152  10.539  14.031
 7278PROX    O156353  12.276  10.742  13.962
 7278PROX    C156354  12.238  10.877  13.931
 7278PROX   H1156355  12.137  10.901  13.971
 7278PROX   H1356356  12.310  10.954  13.966
 7278PROX    C256357  12.222  10.894  13.772
 7278PROX   H2156358  12.166  10.805  13.737
 7278PROX    C356359  12.363  10.883  13.705
 7278PROX   H3156360  12.428  10.971  13.721
 7278PROX   H3256361  12.407  10.790  13.747
 7278PROX   H3356362  12.355  10.874  13.594
 7279PROX    O156363  12.161  11.012  13.740
 7279PROX    C156364  12.085  11.007  13.619
 7279PROX   H1156365  12.071  11.116  13.602
 7279PROX   H1356366  12.143  10.965  13.534
 7279PROX    C256367  11.942  10.942  13.637
 7279PROX   H2156368  11.881  10.987  13.555
 7279PROX    C356369  11.874  10.985  13.773
 7279PROX   H3156370  11.934  10.942  13.856
 7279PROX   H3256371  11.876  11.096  13.780
 7279PROX   H3356372  11.772  10.946  13.792
 7280PROX    O156373  11.956  10.800  13.612
 7280PROX    C156374  11.837  10.725  13.612
 7280PROX   H1156375  11.761  10.786  13.560
 7280PROX   H1356376  11.852  10.642  13.540
 7280PROX    C256377  11.802  10.654  13.745
 7280PROX   H2156378  11.761  10.726  13.819
 7280PROX    C356379  11.925  10.589  13.823
 7280PROX   H3156380  11.898  10.548  13.923
 7280PROX   H3256381  11.971  10.514  13.756
 7280PROX   H3356382  11.994  10.675  13.837
 7281PROX    O156383  11.712  10.552  13.718
 7281PROX    C156384  11.629  10.511  13.826
 7281PROX   H1156385  11.637  10.401  13.835
 7281PROX   H1356386  11.667  10.546  13.925
 7281PROX    C256387  11.482  10.561  13.811
 7281PROX   H2156388  11.438  10.522  13.716
 7281PROX    C356389  11.480  10.711  13.803
 7281PROX   H3156390  11.381  10.751  13.772
 7281PROX   H3256391  11.489  10.745  13.908
 7281PROX   H3356392  11.558  10.747  13.732
 7282PROX    O156393  11.408  10.499  13.910
 7282PROX    C156394  11.283  10.565  13.911
 7282PROX   H1156395  11.286  10.646  13.987
 7282PROX   H1356396  11.248  10.603  13.813
 7282PROX    C256397  11.182  10.458  13.950
 7282PROX   H2156398  11.187  10.370  13.884
 7282PROX    C356399  11.047  10.526  13.952
 7282PROX   H3156400  11.034  10.582  13.857
 7282PROX   H3256401  10.967  10.450  13.961
 7282PROX   H3356402  11.050  10.595  14.040
 7283PROX    O156403  11.199  10.420  14.093
 7283PROX    C156404  11.130  10.299  14.122
 7283PROX   H1156405  11.021  10.319  14.109
 7283PROX   H1356406  11.165  10.219  14.053
 7283PROX    C256407  11.145  10.242  14.262
 7283PROX   H2156408  11.251  10.251  14.292
 7283PROX    C356409  11.102  10.096  14.267
 7283PROX   H3156410  10.999  10.083  14.227
 7283PROX   H3256411  11.177  10.030  14.218
 7283PROX   H3356412  11.100  10.068  14.374
 7284PROX    O156413  11.053  10.314  14.349
 7284PROX    C156414  11.074  10.456  14.367
 7284PROX   H1156415  11.084  10.498  14.265
 7284PROX   H1356416  10.986  10.499  14.420
 7284PROX    C256417  11.190  10.488  14.466
 7284PROX   H2156418  11.272  10.415  14.445
 7284PROX    C356419  11.139  10.495  14.609
 7284PROX   H3156420  11.093  10.400  14.643
 7284PROX   H3256421  11.217  10.514  14.685
 7284PROX   H3356422  11.051  10.564  14.613
 7285PROX    O156423  11.240  10.623  14.441
 7285PROX    C156424  11.326  10.628  14.330
 7285PROX   H1156425  11.421  10.584  14.367
 7285PROX   H1356426  11.294  10.566  14.244
 7285PROX    C256427  11.358  10.770  14.288
 7285PROX   H2156428  11.410  10.814  14.376
 7285PROX    C356429  11.234  10.847  14.232
 7285PROX   H3156430  11.262  10.954  14.226
 7285PROX   H3256431  11.194  10.825  14.131
 7285PROX   H3356432  11.142  10.837  14.295
 7286PROX    O156433  11.449  10.777  14.178
 7286PROX    C156434  11.586  10.745  14.210
 7286PROX   H1156435  11.623  10.769  14.312
 7286PROX   H1356436  11.589  10.634  14.205
 7286PROX    C256437  11.691  10.802  14.108
 7286PROX   H2156438  11.662  10.779  14.003
 7286PROX    C356439  11.841  10.755  14.130
 7286PROX   H3156440  11.884  10.799  14.222
 7286PROX   H3256441  11.846  10.645  14.135
 7286PROX   H3356442  11.907  10.790  14.048
 7287PROX    O156443  11.688  10.946  14.117
 7287PROX    C156444  11.590  11.004  14.030
 7287PROX   H1156445  11.619  10.994  13.923
 7287PROX   H1356446  11.496  10.944  14.032
 7287PROX    C256447  11.559  11.155  14.063
 7287PROX   H2156448  11.566  11.159  14.174
 7287PROX    C356449  11.424  11.198  14.012
 7287PROX   H3156450  11.382  11.288  14.062
 7287PROX   H3256451  11.425  11.222  13.904
 7287PROX   H3356452  11.356  11.113  14.032
 7288PROX    O156453  11.657  11.240  14.013
 7288PROX    C156454  11.790  11.215  14.059
 7288PROX   H1156455  11.797  11.212  14.170
 7288PROX   H1356456  11.815  11.113  14.021
 7288PROX    C256457  11.880  11.320  13.997
 7288PROX   H2156458  11.884  11.330  13.886
 7288PROX    C356459  12.026  11.295  14.047
 7288PROX   H3156460  12.065  11.192  14.030
 7288PROX   H3256461  12.105  11.363  14.008
 7288PROX   H3356462  12.032  11.313  14.157
 7289PROX    O156463  11.838  11.449  14.045
 7289PROX    C156464  11.899  11.554  13.966
 7289PROX   H1156465  11.928  11.632  14.040
 7289PROX   H1356466  11.994  11.521  13.918
 7289PROX    C256467  11.796  11.615  13.866
 7289PROX   H2156468  11.748  11.532  13.809
 7289PROX    C356469  11.870  11.710  13.780
 7289PROX   H3156470  11.914  11.790  13.844
 7289PROX   H3256471  11.948  11.660  13.718
 7289PROX   H3356472  11.800  11.759  13.710
 7290PROX    O156473  11.701  11.690  13.938
 7290PROX    C156474  11.590  11.611  13.969
 7290PROX   H1156475  11.549  11.554  13.882
 7290PROX   H1356476  11.615  11.524  14.033
 7290PROX    C256477  11.475  11.688  14.031
 7290PROX   H2156478  11.379  11.635  14.010
 7290PROX    C356479  11.467  11.828  13.958
 7290PROX   H3156480  11.420  11.904  14.023
 7290PROX   H3256481  11.572  11.864  13.952
 7290PROX   H3356482  11.438  11.828  13.851
 7291PROX    O156483  11.495  11.702  14.173
 7291PROX    C156484  11.476  11.575  14.234
 7291PROX   H1156485  11.404  11.518  14.171
 7291PROX   H1356486  11.567  11.514  14.254
 7291PROX    C256487  11.407  11.587  14.374
 7291PROX   H2156488  11.311  11.640  14.357
 7291PROX    C356489  11.494  11.677  14.463
 7291PROX   H3156490  11.488  11.781  14.424
 7291PROX   H3256491  11.445  11.681  14.562
 7291PROX   H3356492  11.593  11.630  14.483
 7292PROX    O156493  11.394  11.457  14.443
 7292PROX    C156494  11.289  11.374  14.386
 7292PROX   H1156495  11.186  11.412  14.403
 7292PROX   H1356496  11.310  11.366  14.277
 7292PROX    C256497  11.289  11.229  14.440
 7292PROX   H2156498  11.299  11.236  14.550
 7292PROX    C356499  11.404  11.146  14.388
 7292PROX   H3156500  11.440  11.058  14.445
 7292PROX   H3256501  11.386  11.107  14.285
 7292PROX   H3356502  11.498  11.206  14.386
 7293PROX    O156503  11.160  11.167  14.417
 7293PROX    C156504  11.131  11.067  14.503
 7293PROX   H1156505  11.192  10.979  14.473
 7293PROX   H1356506  11.157  11.088  14.609
 7293PROX    C256507  10.982  11.034  14.508
 7293PROX   H2156508  10.951  10.970  14.422
 7293PROX    C356509  10.882  11.156  14.508
 7293PROX   H3156510  10.783  11.107  14.499
 7293PROX   H3256511  10.891  11.223  14.597
 7293PROX   H3356512  10.912  11.216  14.420
 7294PROX    O156513  10.959  10.954  14.629
 7294PROX    C156514  10.845  10.864  14.607
 7294PROX   H1156515  10.760  10.918  14.559
 7294PROX   H1356516  10.882  10.790  14.533
 7294PROX    C256517  10.815  10.789  14.737
 7294PROX   H2156518  10.904  10.789  14.803
 7294PROX    C356519  10.784  10.638  14.719
 7294PROX   H3156520  10.680  10.627  14.680
 7294PROX   H3256521  10.846  10.580  14.648
 7294PROX   H3356522  10.790  10.593  14.821
 7295PROX    O156523  10.709  10.856  14.804
 7295PROX    C156524  10.735  10.996  14.823
 7295PROX   H1156525  10.838  11.021  14.856
 7295PROX   H1356526  10.715  11.059  14.734
 7295PROX    C256527  10.638  11.062  14.928
 7295PROX   H2156528  10.650  11.016  15.028
 7295PROX    C356529  10.503  11.050  14.879
 7295PROX   H3156530  10.434  11.129  14.916
 7295PROX   H3256531  10.493  11.063  14.770
 7295PROX   H3356532  10.466  10.948  14.904
 7296PROX    O156533  10.685  11.198  14.945
 7296PROX    C156534  10.632  11.268  15.061
 7296PROX   H1156535  10.527  11.290  15.033
 7296PROX   H1356536  10.622  11.206  15.153
 7296PROX    C256537  10.716  11.404  15.076
 7296PROX   H2156538  10.818  11.361  15.087
 7296PROX    C356539  10.667  11.471  15.199
 7296PROX   H3156540  10.566  11.516  15.210
 7296PROX   H3256541  10.690  11.409  15.287
 7296PROX   H3356542  10.731  11.558  15.226
 7297PROX    O156543  10.693  11.488  14.962
 7297PROX    C156544  10.771  11.603  14.954
 7297PROX   H1156545  10.732  11.651  14.862
 7297PROX   H1356546  10.755  11.670  15.042
 7297PROX    C256547  10.924  11.596  14.933
 7297PROX   H2156548  10.964  11.565  15.032
 7297PROX    C356549  10.988  11.736  14.906
 7297PROX   H3156550  11.098  11.726  14.896
 7297PROX   H3256551  10.957  11.785  14.811
 7297PROX   H3356552  10.982  11.803  14.994
 7298PROX    O156553  10.965  11.533  14.813
 7298PROX    C156554  11.005  11.396  14.820
 7298PROX   H1156555  10.920  11.348  14.873
 7298PROX   H1356556  11.023  11.355  14.719
 7298PROX    C256557  11.145  11.389  14.887
 7298PROX   H2156558  11.140  11.446  14.982
 7298PROX    C356559  11.258  11.441  14.805
 7298PROX   H3156560  11.264  11.552  14.792
 7298PROX   H3256561  11.357  11.426  14.853
 7298PROX   H3356562  11.260  11.408  14.699
 7299PROX    O156563  11.181  11.254  14.924
 7299PROX    C156564  11.089  11.193  15.011
 7299PROX   H1156565  11.076  11.261  15.098
 7299PROX   H1356566  10.994  11.177  14.955
 7299PROX    C256567  11.151  11.057  15.056
 7299PROX   H2156568  11.255  11.074  15.089
 7299PROX    C356569  11.161  10.956  14.946
 7299PROX   H3156570  11.244  10.883  14.955
 7299PROX   H3256571  11.065  10.906  14.922
 7299PROX   H3356572  11.180  11.019  14.857
 7300PROX    O156573  11.085  11.006  15.175
 7300PROX    C156574  11.108  11.083  15.294
 7300PROX   H1156575  11.188  11.031  15.353
 7300PROX   H1356576  11.142  11.187  15.279
 7300PROX    C256577  10.982  11.076  15.385
 7300PROX   H2156578  10.944  10.972  15.397
 7300PROX    C356579  10.874  11.164  15.323
 7300PROX   H3156580  10.894  11.273  15.338
 7300PROX   H3256581  10.869  11.145  15.214
 7300PROX   H3356582  10.774  11.129  15.354
 7301PROX    O156583  11.021  11.128  15.513
 7301PROX    C156584  11.083  11.020  15.590
 7301PROX   H1156585  11.012  10.990  15.670
 7301PROX   H1356586  11.103  10.929  15.529
 7301PROX    C256587  11.221  11.063  15.658
 7301PROX   H2156588  11.307  11.063  15.588
 7301PROX    C356589  11.261  10.963  15.767
 7301PROX   H3156590  11.364  10.980  15.803
 7301PROX   H3256591  11.192  10.967  15.854
 7301PROX   H3356592  11.252  10.857  15.732
 7302PROX    O156593  11.194  11.185  15.719
 7302PROX    C156594  11.288  11.280  15.671
 7302PROX   H1156595  11.328  11.266  15.569
 7302PROX   H1356596  11.230  11.374  15.679
 7302PROX    C256597  11.414  11.292  15.770
 7302PROX   H2156598  11.472  11.198  15.782
 7302PROX    C356599  11.367  11.327  15.910
 7302PROX   H3156600  11.297  11.413  15.908
 7302PROX   H3256601  11.314  11.243  15.960
 7302PROX   H3356602  11.446  11.356  15.982
 7303PROX    O156603  11.499  11.400  15.733
 7303PROX    C156604  11.560  11.387  15.609
 7303PROX   H1156605  11.606  11.286  15.605
 7303PROX   H1356606  11.488  11.408  15.527
 7303PROX    C256607  11.674  11.492  15.597
 7303PROX   H2156608  11.741  11.479  15.684
 7303PROX    C356609  11.625  11.638  15.597
 7303PROX   H3156610  11.576  11.681  15.507
 7303PROX   H3256611  11.557  11.647  15.685
 7303PROX   H3356612  11.705  11.705  15.635
 7304PROX    O156613  11.742  11.465  15.472
 7304PROX    C156614  11.832  11.355  15.488
 7304PROX   H1156615  11.902  11.369  15.573
 7304PROX   H1356616  11.784  11.256  15.507
 7304PROX    C256617  11.907  11.334  15.356
 7304PROX   H2156618  11.956  11.427  15.322
 7304PROX    C356619  11.823  11.278  15.238
 7304PROX   H3156620  11.782  11.177  15.261
 7304PROX   H3256621  11.736  11.344  15.220
 7304PROX   H3356622  11.890  11.276  15.149
 7305PROX    O156623  12.000  11.237  15.375
 7305PROX    C156624  12.132  11.262  15.319
 7305PROX   H1156625  12.114  11.274  15.210
 7305PROX   H1356626  12.185  11.351  15.359
 7305PROX    C256627  12.241  11.153  15.350
 7305PROX   H2156628  12.330  11.175  15.287
 7305PROX    C356629  12.185  11.016  15.313
 7305PROX   H3156630  12.142  11.022  15.211
 7305PROX   H3256631  12.257  10.932  15.317
 7305PROX   H3356632  12.099  10.993  15.380
 7306PROX    O156633  12.282  11.161  15.484
 7306PROX    C156634  12.371  11.057  15.526
 7306PROX   H1156635  12.425  11.005  15.443
 7306PROX   H1356636  12.447  11.106  15.591
 7306PROX    C256637  12.283  10.951  15.612
 7306PROX   H2156638  12.227  10.890  15.539
 7306PROX    C356639  12.174  11.022  15.688
 7306PROX   H3156640  12.123  11.102  15.630
 7306PROX   H3256641  12.109  10.951  15.743
 7306PROX   H3356642  12.224  11.076  15.772
 7307PROX    O156643  12.369  10.874  15.696
 7307PROX    C156644  12.430  10.772  15.618
 7307PROX   H1156645  12.365  10.720  15.544
 7307PROX   H1356646  12.520  10.807  15.563
 7307PROX    C256647  12.481  10.653  15.699
 7307PROX   H2156648  12.398  10.619  15.764
 7307PROX    C356649  12.603  10.703  15.780
 7307PROX   H3156650  12.653  10.625  15.842
 7307PROX   H3256651  12.682  10.737  15.709
 7307PROX   H3356652  12.582  10.792  15.843
 7308PROX    O156653  12.527  10.547  15.620
 7308PROX    C156654  12.538  10.427  15.693
 7308PROX   H1156655  12.635  10.424  15.747
 7308PROX   H1356656  12.449  10.415  15.759
 7308PROX    C256657  12.540  10.308  15.598
 7308PROX   H2156658  12.475  10.326  15.510
 7308PROX    C356659  12.504  10.167  15.646
 7308PROX   H3156660  12.395  10.163  15.664
 7308PROX   H3256661  12.524  10.088  15.570
 7308PROX   H3356662  12.540  10.155  15.750
 7309PROX    O156663  12.670  10.269  15.543
 7309PROX    C156664  12.728  10.373  15.468
 7309PROX   H1156665  12.708  10.473  15.513
 7309PROX   H1356666  12.839  10.366  15.479
 7309PROX    C256667  12.697  10.362  15.319
 7309PROX   H2156668  12.696  10.256  15.284
 7309PROX    C356669  12.790  10.452  15.238
 7309PROX   H3156670  12.791  10.555  15.278
 7309PROX   H3256671  12.892  10.412  15.255
 7309PROX   H3356672  12.757  10.456  15.132
 7310PROX    O156673  12.568  10.414  15.300
 7310PROX    C156674  12.512  10.397  15.168
 7310PROX   H1156675  12.509  10.498  15.123
 7310PROX   H1356676  12.567  10.325  15.103
 7310PROX    C256677  12.364  10.343  15.176
 7310PROX   H2156678  12.324  10.398  15.264
 7310PROX    C356679  12.368  10.198  15.212
 7310PROX   H3156680  12.421  10.140  15.133
 7310PROX   H3256681  12.438  10.195  15.299
 7310PROX   H3356682  12.265  10.163  15.230
 7311PROX    O156683  12.289  10.368  15.055
 7311PROX    C156684  12.146  10.343  15.061
 7311PROX   H1156685  12.117  10.359  14.955
 7311PROX   H1356686  12.130  10.237  15.089
 7311PROX    C256687  12.057  10.442  15.147
 7311PROX   H2156688  11.955  10.417  15.113
 7311PROX    C356689  12.096  10.587  15.121
 7311PROX   H3156690  12.095  10.602  15.011
 7311PROX   H3256691  12.019  10.657  15.160
 7311PROX   H3356692  12.194  10.612  15.166
 7312PROX    O156693  12.081  10.420  15.285
 7312PROX    C156694  11.981  10.479  15.369
 7312PROX   H1156695  11.910  10.540  15.310
 7312PROX   H1356696  11.922  10.409  15.431
 7312PROX    C256697  12.041  10.576  15.474
 7312PROX   H2156698  12.103  10.648  15.416
 7312PROX    C356699  12.126  10.510  15.590
 7312PROX   H3156700  12.193  10.591  15.627
 7312PROX   H3256701  12.056  10.470  15.667
 7312PROX   H3356702  12.194  10.429  15.555
 7313PROX    O156703  11.934  10.644  15.527
 7313PROX    C156704  11.959  10.779  15.563
 7313PROX   H1156705  12.024  10.782  15.653
 7313PROX   H1356706  12.009  10.836  15.482
 7313PROX    C256707  11.824  10.841  15.594
 7313PROX   H2156708  11.755  10.816  15.511
 7313PROX    C356709  11.815  10.999  15.605
 7313PROX   H3156710  11.710  11.035  15.601
 7313PROX   H3256711  11.852  11.025  15.707
 7313PROX   H3356712  11.878  11.048  15.528
 7314PROX    O156713  11.773  10.774  15.707
 7314PROX    C156714  11.637  10.730  15.703
 7314PROX   H1156715  11.576  10.823  15.701
 7314PROX   H1356716  11.619  10.671  15.611
 7314PROX    C256717  11.609  10.649  15.834
 7314PROX   H2156718  11.646  10.716  15.915
 7314PROX    C356719  11.708  10.533  15.846
 7314PROX   H3156720  11.816  10.559  15.850
 7314PROX   H3256721  11.692  10.479  15.942
 7314PROX   H3356722  11.681  10.458  15.769
 7315PROX    O156723  11.476  10.624  15.845
 7315PROX    C156724  11.424  10.513  15.774
 7315PROX   H1156725  11.453  10.511  15.666
 7315PROX   H1356726  11.455  10.420  15.826
 7315PROX    C256727  11.266  10.520  15.760
 7315PROX   H2156728  11.235  10.622  15.727
 7315PROX    C356729  11.204  10.475  15.892
 7315PROX   H3156730  11.258  10.381  15.918
 7315PROX   H3256731  11.204  10.550  15.973
 7315PROX   H3356732  11.099  10.441  15.876
 7316PROX    O156733  11.216  10.422  15.667
 7316PROX    C156734  11.203  10.475  15.536
 7316PROX   H1156735  11.283  10.547  15.511
 7316PROX   H1356736  11.206  10.390  15.464
 7316PROX    C256737  11.055  10.532  15.513
 7316PROX   H2156738  11.045  10.622  15.577
 7316PROX    C356739  10.950  10.434  15.563
 7316PROX   H3156740  10.957  10.436  15.674
 7316PROX   H3256741  10.851  10.478  15.539
 7316PROX   H3356742  10.957  10.329  15.529
 7317PROX    O156743  11.055  10.578  15.381
 7317PROX    C156744  10.929  10.635  15.336
 7317PROX   H1156745  10.837  10.574  15.350
 7317PROX   H1356746  10.906  10.727  15.393
 7317PROX    C256747  10.942  10.670  15.180
 7317PROX   H2156748  11.042  10.713  15.157
 7317PROX    C356749  10.836  10.777  15.152
 7317PROX   H3156750  10.733  10.735  15.160
 7317PROX   H3256751  10.861  10.865  15.215
 7317PROX   H3356752  10.833  10.816  15.047
 7318PROX    O156753  10.903  10.554  15.102
 7318PROX    C156754  11.002  10.499  15.011
 7318PROX   H1156755  10.962  10.423  14.942
 7318PROX   H1356756  11.052  10.586  14.961
 7318PROX    C256757  11.109  10.419  15.092
 7318PROX   H2156758  11.114  10.462  15.194
 7318PROX    C356759  11.250  10.421  15.015
 7318PROX   H3156760  11.296  10.522  15.004
 7318PROX   H3256761  11.319  10.346  15.059
 7318PROX   H3356762  11.226  10.387  14.912
 7319PROX    O156763  11.068  10.286  15.099
 7319PROX    C156764  10.980  10.261  15.201
 7319PROX   H1156765  11.025  10.287  15.300
 7319PROX   H1356766  10.889  10.324  15.200
 7319PROX    C256767  10.927  10.115  15.201
 7319PROX   H2156768  11.008  10.039  15.197
 7319PROX    C356769  10.829  10.099  15.074
 7319PROX   H3156770  10.749  10.175  15.065
 7319PROX   H3256771  10.886  10.100  14.979
 7319PROX   H3356772  10.782   9.999  15.080
 7320PROX    O156773  10.837  10.086  15.309
 7320PROX    C156774  10.903  10.043  15.430
 7320PROX   H1156775  10.993  10.108  15.445
 7320PROX   H1356776  10.830  10.050  15.513
 7320PROX    C256777  10.947   9.887  15.421
 7320PROX   H2156778  10.997   9.870  15.323
 7320PROX    C356779  10.828   9.795  15.447
 7320PROX   H3156780  10.749   9.800  15.369
 7320PROX   H3256781  10.873   9.693  15.456
 7320PROX   H3356782  10.788   9.843  15.539
 7321ETHO    O156783  11.057   9.870  15.506
 7321ETHO    C156784  11.165   9.787  15.468
 7321ETHO   H1156785  11.225   9.839  15.390
 7321ETHO   H1356786  11.124   9.694  15.422
 7321ETHO    C256787  11.260   9.756  15.584
 7321ETHO   H2156788  11.225   9.667  15.640
 7321ETHO   H2356789  11.259   9.840  15.656
 7322ETHO    O156790  11.392   9.728  15.551
 7322ETHO    C156791  11.455   9.650  15.646
 7322ETHO   H1156792  11.425   9.700  15.740
 7322ETHO   H1356793  11.411   9.549  15.631
 7322ETHO    C256794  11.606   9.652  15.628
 7322ETHO   H2156795  11.647   9.753  15.604
 7322ETHO   H2356796  11.629   9.575  15.552
 7323ETHO    O156797  11.681   9.599  15.734
 7323ETHO    C156798  11.650   9.459  15.760
 7323ETHO   H1156799  11.629   9.414  15.660
 7323ETHO   H1356800  11.564   9.446  15.829
 7323ETHO    C256801  11.767   9.383  15.807
 7323ETHO   H2156802  11.851   9.415  15.742
 7323ETHO   H2356803  11.753   9.275  15.783
 7324ETHO    O156804  11.807   9.403  15.943
 7324ETHO    C156805  11.867   9.532  15.967
 7324ETHO   H1156806  11.922   9.563  15.876
 7324ETHO   H1356807  11.796   9.616  15.986
 7324ETHO    C256808  11.971   9.524  16.080
 7324ETHO   H2156809  12.049   9.595  16.046
 7324ETHO   H2356810  12.032   9.432  16.084
 7325ETHO    O156811  11.925   9.575  16.201
 7325ETHO    C156812  11.840   9.481  16.264
 7325ETHO   H1156813  11.778   9.428  16.189
 7325ETHO   H1356814  11.772   9.528  16.338
 7325ETHO    C256815  11.923   9.371  16.341
 7325ETHO   H2156816  11.970   9.298  16.272
 7325ETHO   H2356817  11.837   9.318  16.388
 7326ETHO    O156818  12.005   9.423  16.449
 7326ETHO    C156819  12.141   9.394  16.425
 7326ETHO   H1156820  12.139   9.293  16.379
 7326ETHO   H1356821  12.183   9.468  16.353
 7326ETHO    C256822  12.222   9.388  16.557
 7326ETHO   H2156823  12.229   9.484  16.613
 7326ETHO   H2356824  12.328   9.386  16.522
 7327ETHO    O156825  12.200   9.275  16.639
 7327ETHO    C156826  12.096   9.300  16.739
 7327ETHO   H1156827  11.999   9.315  16.687
 7327ETHO   H1356828  12.116   9.397  16.788
 7327ETHO    C256829  12.090   9.207  16.859
 7327ETHO   H2156830  12.026   9.259  16.933
 7327ETHO   H2356831  12.195   9.182  16.887
 7328ETHO    O156832  12.026   9.080  16.838
 7328ETHO    C156833  12.033   8.988  16.954
 7328ETHO   H1156834  12.017   8.888  16.909
 7328ETHO   H1356835  12.140   8.989  16.986
 7328ETHO    C256836  11.925   9.027  17.061
 7328ETHO   H2156837  11.822   9.041  17.022
 7328ETHO   H2356838  11.919   8.935  17.124
 7329ETHO    O156839  11.965   9.138  17.141
 7329ETHO    C156840  11.900   9.149  17.264
 7329ETHO   H1156841  11.888   9.050  17.313
 7329ETHO   H1356842  11.964   9.207  17.335
 7329ETHO    C256843  11.755   9.211  17.246
 7329ETHO   H2156844  11.770   9.258  17.146
 7329ETHO   H2356845  11.741   9.296  17.316
 7330ETHO    O156846  11.654   9.114  17.233
 7330ETHO    C156847  11.613   9.052  17.355
 7330ETHO   H1156848  11.694   8.982  17.382
 7330ETHO   H1356849  11.604   9.120  17.442
 7330ETHO    C256850  11.479   8.983  17.322
 7330ETHO   H2156851  11.444   9.015  17.221
 7330ETHO   H2356852  11.422   9.004  17.414
 7331ETHO    O156853  11.479   8.846  17.306
 7331ETHO    C156854  11.358   8.785  17.347
 7331ETHO   H1156855  11.389   8.681  17.370
 7331ETHO   H1356856  11.315   8.839  17.434
 7331ETHO    C256857  11.259   8.769  17.234
 7331ETHO   H2156858  11.177   8.697  17.257
 7331ETHO   H2356859  11.306   8.747  17.136
 7332ETHO    O156860  11.190   8.892  17.218
 7332ETHO    C156861  11.135   8.907  17.086
 7332ETHO   H1156862  11.068   8.822  17.062
 7332ETHO   H1356863  11.214   8.913  17.008
 7332ETHO    C256864  11.045   9.031  17.058
 7332ETHO   H2156865  11.023   9.039  16.949
 7332ETHO   H2356866  11.094   9.125  17.091
 7333ETHO    O156867  10.922   9.023  17.126
 7333ETHO    C156868  10.841   9.140  17.128
 7333ETHO   H1156869  10.897   9.205  17.198
 7333ETHO   H1356870  10.847   9.193  17.031
 7333ETHO    C256871  10.701   9.098  17.155
 7333ETHO   H2156872  10.636   9.183  17.186
 7333ETHO   H2356873  10.704   9.029  17.242
 7334ETHO    O156874  10.645   9.033  17.044
 7334ETHO    C156875  10.502   9.025  17.055
 7334ETHO   H1156876  10.464   9.055  17.155
 7334ETHO   H1356877  10.483   8.919  17.029
 7334ETHO    C256878  10.444   9.113  16.945
 7334ETHO   H2156879  10.333   9.106  16.939
 7334ETHO   H2356880  10.474   9.071  16.847
 7335ETHO    O156881  10.477   9.251  16.961
 7335ETHO    C156882  10.384   9.321  17.041
 7335ETHO   H1156883  10.281   9.307  17.002
 7335ETHO   H1356884  10.376   9.272  17.140
 7335ETHO    C256885  10.404   9.469  17.057
 7335ETHO   H2156886  10.308   9.501  17.101
 7335ETHO   H2356887  10.406   9.526  16.961
 7336ETHO    O156888  10.507   9.510  17.148
 7336ETHO    C156889  10.520   9.655  17.164
 7336ETHO   H1156890  10.415   9.687  17.176
 7336ETHO   H1356891  10.563   9.702  17.073
 7336ETHO    C256892  10.594   9.700  17.287
 7336ETHO   H2156893  10.683   9.638  17.310
 7336ETHO   H2356894  10.525   9.673  17.371
 7337ETHO    O156895  10.632   9.840  17.304
 7337ETHO    C156896  10.743   9.852  17.390
 7337ETHO   H1156897  10.703   9.855  17.493
 7337ETHO   H1356898  10.821   9.773  17.382
 7337ETHO    C256899  10.822   9.984  17.366
 7337ETHO   H2156900  10.857   9.960  17.263
 7337ETHO   H2356901  10.908   9.982  17.435
 7338ETHO    O156902  10.738  10.100  17.382
 7338ETHO    C156903  10.799  10.211  17.313
 7338ETHO   H1156904  10.810  10.197  17.203
 7338ETHO   H1356905  10.902  10.234  17.348
 7338ETHO    C256906  10.717  10.335  17.345
 7338ETHO   H2156907  10.764  10.420  17.292
 7338ETHO   H2356908  10.726  10.356  17.454
 7339ETHO    O156909  10.586  10.325  17.284
 7339ETHO    C156910  10.512  10.443  17.322
 7339ETHO   H1156911  10.522  10.459  17.432
 7339ETHO   H1356912  10.560  10.530  17.272
 7339ETHO    C256913  10.364  10.434  17.274
 7339ETHO   H2156914  10.324  10.331  17.281
 7339ETHO   H2356915  10.351  10.469  17.169
 7340ETHO    O156916  10.284  10.521  17.354
 7340ETHO    C156917  10.146  10.530  17.319
 7340ETHO   H1156918  10.138  10.543  17.209
 7340ETHO   H1356919  10.100  10.431  17.343
 7340ETHO    C256920  10.085  10.643  17.402
 7340ETHO   H2156921  10.129  10.654  17.503
 7340ETHO   H2356922   9.975  10.634  17.415
 7341ETHO    O156923  10.108  10.765  17.338
 7341ETHO    C156924  10.047  10.882  17.398
 7341ETHO   H1156925   9.938  10.877  17.379
 7341ETHO   H1356926  10.061  10.867  17.507
 7341ETHO    C256927  10.091  11.016  17.348
 7341ETHO   H2156928  10.008  11.088  17.332
 7341ETHO   H2356929  10.143  11.006  17.250
 7342ETHO    O156930  10.190  11.080  17.423
 7342ETHO    C156931  10.228  11.213  17.378
 7342ETHO   H1156932  10.295  11.205  17.290
 7342ETHO   H1356933  10.136  11.267  17.348
 7342ETHO    C256934  10.289  11.297  17.493
 7342ETHO   H2156935  10.339  11.379  17.438
 7342ETHO   H2356936  10.366  11.248  17.556
 7343ETHO    O156937  10.205  11.366  17.577
 7343ETHO    C156938  10.119  11.292  17.660
 7343ETHO   H1156939  10.184  11.213  17.703
 7343ETHO   H1356940  10.044  11.238  17.599
 7343ETHO    C256941  10.053  11.374  17.767
 7343ETHO   H2156942  10.111  11.458  17.810
 7343ETHO   H2356943  10.015  11.305  17.845
 7344ETHO    O156944   9.945  11.432  17.713
 7344ETHO    C156945   9.882  11.528  17.806
 7344ETHO   H1156946   9.870  11.482  17.907
 7344ETHO   H1356947   9.944  11.619  17.818
 7344ETHO    C256948   9.741  11.559  17.758
 7344ETHO   H2156949   9.748  11.599  17.654
 7344ETHO   H2356950   9.699  11.640  17.821
 7345ETHO    O156951   9.659  11.444  17.752
 7345ETHO    C156952   9.545  11.472  17.684
 7345ETHO   H1156953   9.569  11.499  17.579
 7345ETHO   H1356954   9.501  11.563  17.733
 7345ETHO    C256955   9.446  11.356  17.700
 7345ETHO   H2156956   9.507  11.272  17.661
 7345ETHO   H2356957   9.365  11.380  17.628
 7346ETHO    O156958   9.411  11.326  17.831
 7346ETHO    C156959   9.300  11.239  17.829
 7346ETHO   H1156960   9.215  11.298  17.787
 7346ETHO   H1356961   9.326  11.156  17.760
 7346ETHO    C256962   9.247  11.197  17.971
 7346ETHO   H2156963   9.152  11.141  17.959
 7346ETHO   H2356964   9.212  11.284  18.030
 7347ETHO    O156965   9.344  11.120  18.042
 7347ETHO    C156966   9.342  10.979  18.008
 7347ETHO   H1156967   9.335  10.981  17.897
 7347ETHO   H1356968   9.256  10.923  18.052
 7347ETHO    C256969   9.468  10.920  18.069
 7347ETHO   H2156970   9.462  10.809  18.072
 7347ETHO   H2356971   9.483  10.951  18.175
 7348ETHO    O156972   9.574  10.970  17.998
 7348ETHO    C156973   9.694  10.916  18.057
 7348ETHO   H1156974   9.703  10.914  18.168
 7348ETHO   H1356975   9.709  10.813  18.018
 7348ETHO    C256976   9.817  10.992  18.009
 7348ETHO   H2156977   9.814  11.035  17.906
 7348ETHO   H2356978   9.901  10.920  18.023
 7349ETHO    O156979   9.837  11.101  18.096
 7349ETHO    C156980   9.972  11.136  18.095
 7349ETHO   H1156981   9.995  11.169  17.991
 7349ETHO   H1356982  10.036  11.048  18.119
 7349ETHO    C256983  10.014  11.247  18.196
 7349ETHO   H2156984  10.125  11.249  18.189
 7349ETHO   H2356985   9.971  11.218  18.294
 7350ETHO    O156986   9.948  11.371  18.171
 7350ETHO    C156987   9.964  11.467  18.272
 7350ETHO   H1156988   9.914  11.431  18.365
 7350ETHO   H1356989  10.072  11.464  18.298
 7350ETHO    C256990   9.912  11.606  18.223
 7350ETHO   H2156991   9.885  11.665  18.313
 7350ETHO   H2356992   9.828  11.588  18.153
 7351ETHO    O156993  10.012  11.680  18.155
 7351ETHO    C156994  10.103  11.750  18.232
 7351ETHO   H1156995  10.053  11.844  18.264
 7351ETHO   H1356996  10.132  11.683  18.315
 7351ETHO    C256997  10.223  11.788  18.147
 7351ETHO   H2156998  10.260  11.709  18.079
 7351ETHO   H2356999  10.297  11.816  18.225
 7352ETHO    O157000  10.190  11.898  18.063
 7352ETHO    C157001  10.299  11.951  17.992
 7352ETHO   H1157002  10.370  12.012  18.051
 7352ETHO   H1357003  10.361  11.871  17.946
 7352ETHO    C257004  10.239  12.028  17.870
 7352ETHO   H2157005  10.322  12.072  17.812
 7352ETHO   H2357006  10.174  12.110  17.907
 7353ETHO    O157007  10.157  11.950  17.790
 7353ETHO    C157008  10.108  12.033  17.682
 7353ETHO   H1157009  10.058  12.124  17.723
 7353ETHO   H1357010  10.195  12.063  17.620
 7353ETHO    C257011  10.016  11.946  17.594
 7353ETHO   H2157012   9.951  12.027  17.554
 7353ETHO   H2357013   9.952  11.884  17.661
 7354ETHO    O157014  10.083  11.865  17.494
 7354ETHO    C157015  10.010  11.747  17.471
 7354ETHO   H1157016   9.931  11.761  17.394
 7354ETHO   H1357017   9.951  11.721  17.562
 7354ETHO    C257018  10.097  11.640  17.419
 7354ETHO   H2157019  10.047  11.545  17.448
 7354ETHO   H2357020  10.196  11.635  17.469
 7355ETHO    O157021  10.101  11.649  17.279
 7355ETHO    C157022  10.206  11.580  17.220
 7355ETHO   H1157023  10.297  11.643  17.234
 7355ETHO   H1357024  10.210  11.479  17.267
 7355ETHO    C257025  10.192  11.542  17.073
 7355ETHO   H2157026  10.269  11.464  17.055
 7355ETHO   H2357027  10.193  11.632  17.007
 7356ETHO    O157028  10.065  11.478  17.049
 7356ETHO    C157029  10.064  11.432  16.911
 7356ETHO   H1157030  10.109  11.497  16.833
 7356ETHO   H1357031   9.957  11.435  16.882
 7356ETHO    C257032  10.112  11.285  16.898
 7356ETHO   H2157033  10.065  11.248  16.805
 7356ETHO   H2357034  10.066  11.224  16.979
 7357ETHO    O157035  10.256  11.274  16.906
 7357ETHO    C157036  10.298  11.141  16.939
 7357ETHO   H1157037  10.281  11.130  17.048
 7357ETHO   H1357038  10.230  11.064  16.899
 7357ETHO    C257039  10.444  11.128  16.905
 7357ETHO   H2157040  10.451  11.157  16.798
 7357ETHO   H2357041  10.476  11.021  16.910
 7358ETHO    O157042  10.508  11.218  16.992
 7358ETHO    C157043  10.648  11.198  17.023
 7358ETHO   H1157044  10.703  11.200  16.927
 7358ETHO   H1357045  10.666  11.097  17.064
 7358ETHO    C257046  10.695  11.288  17.136
 7358ETHO   H2157047  10.805  11.280  17.147
 7358ETHO   H2357048  10.656  11.276  17.240
 7359ETHO    O157049  10.668  11.418  17.107
 7359ETHO    C157050  10.721  11.508  17.201
 7359ETHO   H1157051  10.673  11.495  17.300
 7359ETHO   H1357052  10.828  11.485  17.215
 7359ETHO    C257053  10.700  11.653  17.168
 7359ETHO   H2157054  10.766  11.665  17.079
 7359ETHO   H2357055  10.734  11.725  17.246
 7360ETHO    O157056  10.570  11.701  17.123
 7360ETHO    C157057  10.579  11.829  17.068
 7360ETHO   H1157058  10.648  11.813  16.982
 7360ETHO   H1357059  10.632  11.899  17.136
 7360ETHO    C257060  10.441  11.877  17.020
 7360ETHO   H2157061  10.369  11.888  17.104
 7360ETHO   H2357062  10.399  11.802  16.950
 7361ETHO    O157063  10.447  12.010  16.961
 7361ETHO    C157064  10.497  12.008  16.828
 7361ETHO   H1157065  10.554  11.918  16.795
 7361ETHO   H1357066  10.411  12.023  16.759
 7361ETHO    C257067  10.591  12.138  16.808
 7361ETHO   H2157068  10.686  12.135  16.866
 7361ETHO   H2357069  10.620  12.138  16.701
 7362ETHO    O157070  10.519  12.255  16.832
 7362ETHO    C157071  10.600  12.370  16.859
 7362ETHO   H1157072  10.685  12.347  16.927
 7362ETHO   H1357073  10.538  12.427  16.931
 7362ETHO    C257074  10.646  12.440  16.729
 7362ETHO   H2157075  10.663  12.549  16.742
 7362ETHO   H2357076  10.559  12.425  16.661
 7363ETHO    O157077  10.759  12.380  16.662
 7363ETHO    C157078  10.788  12.427  16.534
 7363ETHO   H1157079  10.705  12.411  16.462
 7363ETHO   H1357080  10.806  12.536  16.553
 7363ETHO    C257081  10.924  12.382  16.487
 7363ETHO   H2157082  11.003  12.407  16.561
 7363ETHO   H2357083  10.957  12.438  16.397
 7364ETHO    O157084  10.932  12.253  16.430
 7364ETHO    C157085  10.897  12.147  16.521
 7364ETHO   H1157086  10.788  12.142  16.544
 7364ETHO   H1357087  10.960  12.164  16.611
 7364ETHO    C257088  10.938  12.010  16.464
 7364ETHO   H2157089  10.895  12.017  16.362
 7364ETHO   H2357090  10.886  11.933  16.526
 7365ETHO    O157091  11.074  11.978  16.449
 7365ETHO    C157092  11.135  11.953  16.571
 7365ETHO   H1157093  11.165  12.046  16.623
 7365ETHO   H1357094  11.080  11.882  16.636
 7365ETHO    C257095  11.278  11.885  16.546
 7365ETHO   H2157096  11.274  11.794  16.483
 7365ETHO   H2357097  11.309  11.861  16.650
 7366ETHO    O157098  11.371  11.982  16.494
 7366ETHO    C157099  11.497  11.928  16.464
 7366ETHO   H1157100  11.526  11.846  16.533
 7366ETHO   H1357101  11.492  11.894  16.358
 7366ETHO    C257102  11.602  12.049  16.470
 7366ETHO   H2157103  11.709  12.021  16.459
 7366ETHO   H2357104  11.602  12.103  16.568
 7367ETHO    O157105  11.571  12.131  16.356
 7367ETHO    C157106  11.666  12.239  16.350
 7367ETHO   H1157107  11.669  12.320  16.426
 7367ETHO   H1357108  11.765  12.191  16.333
 7367ETHO    C257109  11.630  12.306  16.215
 7367ETHO   H2157110  11.686  12.401  16.218
 7367ETHO   H2357111  11.521  12.326  16.213
 7368ETHO    O157112  11.663  12.226  16.100
 7368ETHO    C157113  11.632  12.288  15.972
 7368ETHO   H1157114  11.532  12.336  15.974
 7368ETHO   H1357115  11.708  12.369  15.971
 7368ETHO    C257116  11.649  12.183  15.860
 7368ETHO   H2157117  11.746  12.129  15.870
 7368ETHO   H2357118  11.653  12.221  15.756
 7369ETHO    O157119  11.543  12.092  15.874
 7369ETHO    C157120  11.535  12.016  15.750
 7369ETHO   H1157121  11.628  11.955  15.742
 7369ETHO   H1357122  11.526  12.074  15.656
 7369ETHO    C257123  11.414  11.922  15.764
 7369ETHO   H2157124  11.326  11.986  15.788
 7369ETHO   H2357125  11.415  11.846  15.844
 7370ETHO    O157126  11.387  11.866  15.639
 7370ETHO    C157127  11.268  11.793  15.645
 7370ETHO   H1157128  11.250  11.754  15.747
 7370ETHO   H1357129  11.190  11.868  15.622
 7370ETHO    C257130  11.251  11.669  15.549
 7370ETHO   H2157131  11.151  11.625  15.568
 7370ETHO   H2357132  11.322  11.589  15.581
 7371ETHO    O157133  11.273  11.708  15.412
 7371ETHO    C157134  11.331  11.605  15.336
 7371ETHO   H1157135  11.416  11.553  15.386
 7371ETHO   H1357136  11.375  11.646  15.243
 7371ETHO    C257137  11.228  11.494  15.297
 7371ETHO   H2157138  11.201  11.500  15.189
 7371ETHO   H2357139  11.134  11.511  15.352
 7372ETHO    O157140  11.288  11.361  15.315
 7372ETHO    C157141  11.401  11.338  15.223
 7372ETHO   H1157142  11.355  11.333  15.121
 7372ETHO   H1357143  11.481  11.415  15.224
 7372ETHO    C257144  11.499  11.225  15.251
 7372ETHO   H2157145  11.553  11.237  15.347
 7372ETHO   H2357146  11.572  11.236  15.168
 7373ETHO    O157147  11.430  11.098  15.244
 7373ETHO    C157148  11.506  10.992  15.292
 7373ETHO   H1157149  11.515  10.999  15.403
 7373ETHO   H1357150  11.606  11.011  15.247
 7373ETHO    C257151  11.440  10.859  15.238
 7373ETHO   H2157152  11.437  10.850  15.127
 7373ETHO   H2357153  11.333  10.859  15.266
 7374ETHO    O157154  11.508  10.747  15.283
 7374ETHO    C157155  11.430  10.631  15.253
 7374ETHO   H1157156  11.337  10.628  15.314
 7374ETHO   H1357157  11.400  10.633  15.146
 7374ETHO    C257158  11.507  10.500  15.278
 7374ETHO   H2157159  11.605  10.517  15.229
 7374ETHO   H2357160  11.449  10.414  15.240
 7375ETHO    O157161  11.527  10.480  15.418
 7375ETHO    C157162  11.618  10.374  15.440
 7375ETHO   H1157163  11.688  10.417  15.515
 7375ETHO   H1357164  11.684  10.342  15.356
 7375ETHO    C257165  11.553  10.250  15.504
 7375ETHO   H2157166  11.464  10.220  15.444
 7375ETHO   H2357167  11.507  10.281  15.601
 7376ETHO    O157168  11.642  10.144  15.519
 7376ETHO    C157169  11.582  10.027  15.579
 7376ETHO   H1157170  11.485   9.999  15.533
 7376ETHO   H1357171  11.645   9.938  15.559
 7376ETHO    C257172  11.567  10.031  15.730
 7376ETHO   H2157173  11.664  10.065  15.771
 7376ETHO   H2357174  11.552   9.926  15.763
 7377ETHO    O157175  11.456  10.111  15.762
 7377ETHO    C157176  11.437  10.114  15.905
 7377ETHO   H1157177  11.524  10.149  15.965
 7377ETHO   H1357178  11.355  10.188  15.921
 7377ETHO    C257179  11.384   9.986  15.967
 7377ETHO   H2157180  11.334   9.924  15.890
 7377ETHO   H2357181  11.327  10.003  16.060
 7378ETHO    O157182  11.491   9.900  16.006
 7378ETHO    C157183  11.444   9.789  16.092
 7378ETHO   H1157184  11.398   9.839  16.179
 7378ETHO   H1357185  11.380   9.718  16.036
 7378ETHO    C257186  11.569   9.706  16.141
 7378ETHO   H2157187  11.643   9.783  16.171
 7378ETHO   H2357188  11.609   9.635  16.066
 7379ETHO    O157189  11.538   9.629  16.256
 7379ETHO    C157190  11.466   9.515  16.233
 7379ETHO   H1157191  11.370   9.545  16.188
 7379ETHO   H1357192  11.529   9.462  16.158
 7379ETHO    C257193  11.444   9.451  16.367
 7379ETHO   H2157194  11.358   9.381  16.368
 7379ETHO   H2357195  11.422   9.524  16.448
 7380ETHO    O157196  11.560   9.373  16.383
 7380ETHO    C157197  11.560   9.311  16.519
 7380ETHO   H1157198  11.631   9.227  16.517
 7380ETHO   H1357199  11.472   9.247  16.543
 7380ETHO    C257200  11.628   9.403  16.629
 7380ETHO   H2157201  11.716   9.451  16.582
 7380ETHO   H2357202  11.665   9.341  16.714
 7381ETHO    O157203  11.557   9.510  16.681
 7381ETHO    C157204  11.633   9.601  16.760
 7381ETHO   H1157205  11.603   9.585  16.865
 7381ETHO   H1357206  11.741   9.577  16.748
 7381ETHO    C257207  11.621   9.752  16.725
 7381ETHO   H2157208  11.634   9.770  16.616
 7381ETHO   H2357209  11.707   9.804  16.771
 7382ETHO    O157210  11.495   9.811  16.761
 7382ETHO    C157211  11.405   9.809  16.653
 7382ETHO   H1157212  11.384   9.702  16.632
 7382ETHO   H1357213  11.443   9.857  16.560
 7382ETHO    C257214  11.282   9.887  16.688
 7382ETHO   H2157215  11.230   9.922  16.596
 7382ETHO   H2357216  11.309   9.985  16.731
 7383ETHO    O157217  11.183   9.820  16.767
 7383ETHO    C157218  11.064   9.886  16.781
 7383ETHO   H1157219  11.067   9.958  16.866
 7383ETHO   H1357220  11.026   9.928  16.685
 7383ETHO    C257221  10.969   9.782  16.838
 7383ETHO   H2157222  10.984   9.688  16.781
 7383ETHO   H2357223  10.866   9.825  16.833
 7384ETHO    O157224  10.979   9.762  16.976
 7384ETHO    C157225  10.875   9.681  17.026
 7384ETHO   H1157226  10.804   9.640  16.952
 7384ETHO   H1357227  10.804   9.744  17.083
 7384ETHO    C257228  10.934   9.586  17.122
 7384ETHO   H2157229  11.026   9.539  17.082
 7384ETHO   H2357230  10.861   9.504  17.138
 7385ETHO    O157231  10.956   9.644  17.246
 7385ETHO    C157232  11.015   9.554  17.335
 7385ETHO   H1157233  11.066   9.473  17.279
 7385ETHO   H1357234  11.088   9.605  17.401
 7385ETHO    C257235  10.913   9.502  17.439
 7385ETHO   H2157236  10.842   9.581  17.471
 7385ETHO   H2357237  10.955   9.466  17.535
 7386ETHO    O157238  10.839   9.394  17.375
 7386ETHO    C157239  10.731   9.358  17.458
 7386ETHO   H1157240  10.658   9.313  17.388
 7386ETHO   H1357241  10.691   9.450  17.506
 7386ETHO    C257242  10.758   9.248  17.570
 7386ETHO   H2157243  10.855   9.273  17.618
 7386ETHO   H2357244  10.775   9.150  17.519
 7387ETHO    O157245  10.657   9.243  17.668
 7387ETHO    C157246  10.659   9.126  17.749
 7387ETHO   H1157247  10.600   9.043  17.704
 7387ETHO   H1357248  10.757   9.079  17.770
 7387ETHO    C257249  10.604   9.138  17.892
 7387ETHO   H2157250  10.665   9.201  17.960
 7387ETHO   H2357251  10.602   9.040  17.942
 7388ETHO    O157252  10.476   9.190  17.893
 7388ETHO    C157253  10.451   9.278  17.997
 7388ETHO   H1157254  10.517   9.367  17.994
 7388ETHO   H1357255  10.351   9.325  17.981
 7388ETHO    C257256  10.444   9.217  18.129
 7388ETHO   H2157257  10.454   9.303  18.198
 7388ETHO   H2357258  10.521   9.147  18.169
 7389ETHO    O157259  10.312   9.166  18.174
 7389ETHO    C157260  10.318   9.061  18.270
 7389ETHO   H1157261  10.349   8.975  18.207
 7389ETHO   H1357262  10.405   9.092  18.331
 7389ETHO    C257263  10.185   9.040  18.348
 7389ETHO   H2157264  10.137   9.129  18.395
 7389ETHO   H2357265  10.204   8.974  18.434
 7390ETHO    O157266  10.095   8.966  18.269
 7390ETHO    C157267   9.984   8.918  18.352
 7390ETHO   H1157268   9.968   8.989  18.436
 7390ETHO   H1357269   9.896   8.912  18.285
 7390ETHO    C257270  10.013   8.778  18.392
 7390ETHO   H2157271  10.089   8.734  18.324
 7390ETHO   H2357272   9.923   8.714  18.400
 7391ETHO    O157273  10.073   8.782  18.521
 7391ETHO    C157274  10.136   8.658  18.551
 7391ETHO   H1157275  10.226   8.634  18.490
 7391ETHO   H1357276  10.055   8.583  18.532
 7391ETHO    C257277  10.171   8.662  18.704
 7391ETHO   H2157278  10.220   8.566  18.730
 7391ETHO   H2357279  10.084   8.683  18.769
 7392ETHO    O157280  10.268   8.763  18.736
 7392ETHO    C157281  10.398   8.736  18.688
 7392ETHO   H1157282  10.441   8.641  18.726
 7392ETHO   H1357283  10.387   8.722  18.578
 7392ETHO    C257284  10.496   8.854  18.708
 7392ETHO   H2157285  10.457   8.945  18.657
 7392ETHO   H2357286  10.593   8.826  18.661
 7393ETHO    O157287  10.507   8.880  18.842
 7393ETHO    C157288  10.639   8.906  18.883
 7393ETHO   H1157289  10.679   8.996  18.831
 7393ETHO   H1357290  10.710   8.828  18.851
 7393ETHO    C257291  10.648   8.938  19.040
 7393ETHO   H2157292  10.573   9.014  19.071
 7393ETHO   H2357293  10.748   8.984  19.054
 7394ETHO    O157294  10.642   8.824  19.123
 7394ETHO    C157295  10.643   8.859  19.261
 7394ETHO   H1157296  10.644   8.968  19.284
 7394ETHO   H1357297  10.552   8.807  19.299
 7394ETHO    C257298  10.764   8.802  19.333
 7394ETHO   H2157299  10.862   8.843  19.298
 7394ETHO   H2357300  10.758   8.831  19.440
 7395ETHO    O157301  10.765   8.657  19.324
 7395ETHO    C157302  10.820   8.598  19.437
 7395ETHO   H1157303  10.911   8.659  19.460
 7395ETHO   H1357304  10.870   8.504  19.405
 7395ETHO    C257305  10.716   8.573  19.537
 7395ETHO   H2157306  10.656   8.486  19.502
 7395ETHO   H2357307  10.645   8.658  19.552
 7396ETHO    O157308  10.765   8.535  19.659
 7396ETHO    C157309  10.659   8.491  19.741
 7396ETHO   H1157310  10.595   8.576  19.772
 7396ETHO   H1357311  10.600   8.406  19.700
 7396ETHO    C257312  10.726   8.431  19.868
 7396ETHO   H2157313  10.808   8.365  19.832
 7396ETHO   H2357314  10.650   8.373  19.925
 7397ETHO    O157315  10.777   8.535  19.948
 7397ETHO    C157316  10.853   8.488  20.059
 7397ETHO   H1157317  10.935   8.560  20.081
 7397ETHO   H1357318  10.898   8.388  20.045
 7397ETHO    C257319  10.768   8.483  20.189
 7397ETHO   H2157320  10.707   8.576  20.183
 7397ETHO   H2357321  10.842   8.488  20.271
 7398ETHO    O157322  10.687   8.373  20.207
 7398ETHO    C157323  10.744   8.276  20.296
 7398ETHO   H1157324  10.829   8.228  20.244
 7398ETHO   H1357325  10.778   8.314  20.394
 7398ETHO    C257326  10.648   8.154  20.315
 7398ETHO   H2157327  10.710   8.074  20.361
 7398ETHO   H2357328  10.613   8.115  20.217
 7399ETHO    O157329  10.541   8.172  20.403
 7399ETHO    C157330  10.450   8.061  20.384
 7399ETHO   H1157331  10.499   7.961  20.386
 7399ETHO   H1357332  10.409   8.063  20.281
 7399ETHO    C257333  10.338   8.059  20.481
 7399ETHO   H2157334  10.255   7.994  20.444
 7399ETHO   H2357335  10.302   8.162  20.506
 7400ETHO    O157336  10.370   7.985  20.597
 7400ETHO    C157337  10.341   7.843  20.579
 7400ETHO   H1157338  10.231   7.834  20.566
 7400ETHO   H1357339  10.384   7.811  20.481
 7400ETHO    C257340  10.388   7.747  20.693
 7400ETHO   H2157341  10.315   7.665  20.711
 7400ETHO   H2357342  10.399   7.803  20.788
 7401ETHO    O157343  10.514   7.696  20.665
 7401ETHO    C157344  10.532   7.570  20.733
 7401ETHO   H1157345  10.458   7.499  20.690
 7401ETHO   H1357346  10.506   7.573  20.841
 7401ETHO    C257347  10.664   7.489  20.720
 7401ETHO   H2157348  10.667   7.402  20.789
 7401ETHO   H2357349  10.754   7.547  20.751
 7402ETHO    O157350  10.671   7.437  20.589
 7402ETHO    C157351  10.776   7.343  20.575
 7402ETHO   H1157352  10.867   7.393  20.615
 7402ETHO   H1357353  10.752   7.258  20.642
 7402ETHO    C257354  10.794   7.288  20.437
 7402ETHO   H2157355  10.855   7.196  20.448
 7402ETHO   H2357356  10.694   7.270  20.392
 7403ETHO    O157357  10.865   7.374  20.343
 7403ETHO    C157358  10.896   7.288  20.234
 7403ETHO   H1157359  10.933   7.186  20.256
 7403ETHO   H1357360  10.805   7.272  20.172
 7403ETHO    C257361  11.000   7.353  20.140
 7403ETHO   H2157362  11.024   7.277  20.062
 7403ETHO   H2357363  11.095   7.381  20.190
 7404ETHO    O157364  10.951   7.458  20.059
 7404ETHO    C157365  10.928   7.573  20.127
 7404ETHO   H1157366  10.828   7.578  20.175
 7404ETHO   H1357367  11.005   7.585  20.206
 7404ETHO    C257368  10.938   7.693  20.027
 7404ETHO   H2157369  10.891   7.785  20.069
 7404ETHO   H2357370  10.885   7.660  19.935
 7405ETHO    O157371  11.071   7.720  19.999
 7405ETHO    C157372  11.096   7.796  19.878
 7405ETHO   H1157373  11.015   7.868  19.859
 7405ETHO   H1357374  11.187   7.856  19.900
 7405ETHO    C257375  11.134   7.708  19.762
 7405ETHO   H2157376  11.216   7.641  19.795
 7405ETHO   H2357377  11.162   7.764  19.670
 7406ETHO    O157378  11.025   7.618  19.720
 7406ETHO    C157379  10.919   7.683  19.647
 7406ETHO   H1157380  10.947   7.778  19.596
 7406ETHO   H1357381  10.848   7.711  19.727
 7406ETHO    C257382  10.842   7.591  19.556
 7406ETHO   H2157383  10.802   7.501  19.608
 7406ETHO   H2357384  10.916   7.553  19.483
 7407ETHO    O157385  10.749   7.667  19.489
 7407ETHO    C157386  10.671   7.589  19.396
 7407ETHO   H1157387  10.732   7.538  19.318
 7407ETHO   H1357388  10.608   7.513  19.447
 7407ETHO    C257389  10.582   7.677  19.313
 7407ETHO   H2157390  10.502   7.727  19.371
 7407ETHO   H2357391  10.533   7.617  19.233
 7408ETHO    O157392  10.649   7.777  19.237
 7408ETHO    C157393  10.564   7.886  19.202
 7408ETHO   H1157394  10.517   7.925  19.295
 7408ETHO   H1357395  10.487   7.839  19.136
 7408ETHO    C257396  10.627   7.999  19.131
 7408ETHO   H2157397  10.559   8.085  19.113
 7408ETHO   H2357398  10.663   7.969  19.030
 7409ETHO    O157399  10.738   8.054  19.206
 7409ETHO    C157400  10.810   8.154  19.134
 7409ETHO   H1157401  10.738   8.224  19.087
 7409ETHO   H1357402  10.871   8.204  19.212
 7409ETHO    C257403  10.904   8.098  19.023
 7409ETHO   H2157404  10.954   8.187  18.979
 7409ETHO   H2357405  10.835   8.054  18.947
 7410ETHO    O157406  11.002   8.008  19.068
 7410ETHO    C157407  11.088   7.966  18.963
 7410ETHO   H1157408  11.035   7.985  18.867
 7410ETHO   H1357409  11.107   7.857  18.970
 7410ETHO    C257410  11.228   8.039  18.984
 7410ETHO   H2157411  11.209   8.148  18.974
 7410ETHO   H2357412  11.303   8.011  18.907
 7411ETHO    O157413  11.297   8.021  19.106
 7411ETHO    C157414  11.416   8.105  19.111
 7411ETHO   H1157415  11.465   8.111  19.011
 7411ETHO   H1357416  11.398   8.213  19.129
 7411ETHO    C257417  11.531   8.061  19.205
 7411ETHO   H2157418  11.479   8.067  19.303
 7411ETHO   H2357419  11.614   8.136  19.205
 7412ETHO    O157420  11.581   7.934  19.173
 7412ETHO    C157421  11.658   7.897  19.284
 7412ETHO   H1157422  11.589   7.897  19.371
 7412ETHO   H1357423  11.746   7.961  19.305
 7412ETHO    C257424  11.722   7.761  19.254
 7412ETHO   H2157425  11.802   7.736  19.326
 7412ETHO   H2357426  11.754   7.753  19.147
 7413ETHO    O157427  11.619   7.668  19.284
 7413ETHO    C157428  11.669   7.534  19.277
 7413ETHO   H1157429  11.774   7.520  19.246
 7413ETHO   H1357430  11.686   7.509  19.384
 7413ETHO    C257431  11.579   7.432  19.206
 7413ETHO   H2157432  11.477   7.448  19.246
 7413ETHO   H2357433  11.623   7.330  19.219
 7414ETHO    O157434  11.568   7.459  19.064
 7414ETHO    C157435  11.479   7.362  19.007
 7414ETHO   H1157436  11.512   7.257  19.024
 7414ETHO   H1357437  11.376   7.378  19.045
 7414ETHO    C257438  11.460   7.388  18.855
 7414ETHO   H2157439  11.563   7.402  18.816
 7414ETHO   H2357440  11.409   7.486  18.843
 7415ETHO    O157441  11.393   7.275  18.798
 7415ETHO    C157442  11.404   7.271  18.656
 7415ETHO   H1157443  11.421   7.376  18.626
 7415ETHO   H1357444  11.488   7.208  18.619
 7415ETHO    C257445  11.263   7.223  18.602
 7415ETHO   H2157446  11.268   7.229  18.491
 7415ETHO   H2357447  11.186   7.294  18.636
 7416ETHO    O157448  11.218   7.096  18.639
 7416ETHO    C157449  11.093   7.060  18.571
 7416ETHO   H1157450  11.016   7.132  18.606
 7416ETHO   H1357451  11.111   7.063  18.462
 7416ETHO    C257452  11.036   6.930  18.623
 7416ETHO   H2157453  11.116   6.856  18.642
 7416ETHO   H2357454  10.959   6.890  18.553
 7417ETHO    O157455  10.973   6.956  18.747
 7417ETHO    C157456  10.936   6.836  18.818
 7417ETHO   H1157457  10.876   6.766  18.755
 7417ETHO   H1357458  10.879   6.875  18.905
 7417ETHO    C257459  11.046   6.751  18.889
 7417ETHO   H2157460  11.147   6.777  18.849
 7417ETHO   H2357461  11.027   6.647  18.855
 7418ETHO    O157462  11.037   6.757  19.036
 7418ETHO    C157463  11.075   6.877  19.088
 7418ETHO   H1157464  11.000   6.955  19.062
 7418ETHO   H1357465  11.162   6.923  19.036
 7418ETHO    C257466  11.113   6.874  19.238
 7418ETHO   H2157467  11.169   6.961  19.277
 7418ETHO   H2357468  11.168   6.781  19.264
 7419ETHO    O157469  10.986   6.863  19.297
 7419ETHO    C157470  11.007   6.847  19.440
 7419ETHO   H1157471  10.931   6.906  19.497
 7419ETHO   H1357472  11.100   6.904  19.462
 7419ETHO    C257473  11.016   6.699  19.488
 7419ETHO   H2157474  11.051   6.709  19.593
 7419ETHO   H2357475  11.100   6.660  19.428
 7420ETHO    O157476  10.903   6.622  19.483
 7420ETHO    C157477  10.933   6.480  19.504
 7420ETHO   H1157478  10.990   6.442  19.416
 7420ETHO   H1357479  10.992   6.465  19.597
 7420ETHO    C257480  10.803   6.399  19.521
 7420ETHO   H2157481  10.836   6.293  19.524
 7420ETHO   H2357482  10.748   6.416  19.426
 7420ETHO    OZ57483  10.732   6.444  19.631
 7420ETHO   HZ157484  10.657   6.385  19.644
 7421ETHO    O157485  10.068   0.741   7.418
 7421ETHO   HO157486  10.061   0.823   7.370
 7421ETHO    C157487  10.109   0.788   7.544
 7421ETHO   H1157488  10.049   0.880   7.564
 7421ETHO   H1357489  10.216   0.816   7.537
 7421ETHO    C257490  10.088   0.682   7.651
 7421ETHO   H2157491  10.145   0.696   7.746
 7421ETHO   H2357492  10.127   0.582   7.622
 7422ETHO    O157493   9.949   0.676   7.684
 7422ETHO    C157494   9.924   0.583   7.783
 7422ETHO   H1157495   9.943   0.479   7.748
 7422ETHO   H1357496   9.982   0.592   7.878
 7422ETHO    C257497   9.772   0.599   7.825
 7422ETHO   H2157498   9.748   0.511   7.889
 7422ETHO   H2357499   9.704   0.594   7.738
 7423ETHO    O157500   9.731   0.718   7.896
 7423ETHO    C157501   9.589   0.720   7.918
 7423ETHO   H1157502   9.568   0.644   7.996
 7423ETHO   H1357503   9.530   0.700   7.826
 7423ETHO    C257504   9.569   0.856   7.977
 7423ETHO   H2157505   9.639   0.871   8.063
 7423ETHO   H2357506   9.467   0.859   8.020
 7424ETHO    O157507   9.591   0.962   7.886
 7424ETHO    C157508   9.561   1.080   7.952
 7424ETHO   H1157509   9.454   1.093   7.982
 7424ETHO   H1357510   9.631   1.093   8.037
 7424ETHO    C257511   9.596   1.210   7.873
 7424ETHO   H2157512   9.699   1.187   7.839
 7424ETHO   H2357513   9.594   1.298   7.941
 7425ETHO    O157514   9.506   1.224   7.755
 7425ETHO    C157515   9.552   1.333   7.675
 7425ETHO   H1157516   9.465   1.368   7.616
 7425ETHO   H1357517   9.578   1.415   7.745
 7425ETHO    C257518   9.673   1.298   7.596
 7425ETHO   H2157519   9.737   1.225   7.651
 7425ETHO   H2357520   9.734   1.384   7.562
 7426ETHO    O157521   9.637   1.229   7.479
 7426ETHO    C157522   9.635   1.308   7.365
 7426ETHO   H1157523   9.566   1.394   7.375
 7426ETHO   H1357524   9.739   1.342   7.342
 7426ETHO    C257525   9.586   1.230   7.243
 7426ETHO   H2157526   9.486   1.183   7.252
 7426ETHO   H2357527   9.650   1.139   7.241
 7427ETHO    O157528   9.605   1.302   7.117
 7427ETHO    C157529   9.616   1.220   7.002
 7427ETHO   H1157530   9.722   1.187   7.002
 7427ETHO   H1357531   9.557   1.126   6.998
 7427ETHO    C257532   9.599   1.301   6.866
 7427ETHO   H2157533   9.492   1.330   6.866
 7427ETHO   H2357534   9.618   1.233   6.780
 7428ETHO    O157535   9.697   1.402   6.855
 7428ETHO    C157536   9.645   1.496   6.755
 7428ETHO   H1157537   9.535   1.487   6.744
 7428ETHO   H1357538   9.687   1.479   6.654
 7428ETHO    C257539   9.676   1.639   6.781
 7428ETHO   H2157540   9.646   1.695   6.690
 7428ETHO   H2357541   9.778   1.663   6.816
 7429ETHO    O157542   9.591   1.693   6.881
 7429ETHO    C157543   9.639   1.821   6.923
 7429ETHO   H1157544   9.719   1.798   6.996
 7429ETHO   H1357545   9.686   1.881   6.842
 7429ETHO    C257546   9.539   1.906   7.001
 7429ETHO   H2157547   9.586   1.988   7.059
 7429ETHO   H2357548   9.495   1.837   7.077
 7430ETHO    O157549   9.432   1.960   6.919
 7430ETHO    C157550   9.356   2.065   6.992
 7430ETHO   H1157551   9.432   2.124   7.046
 7430ETHO   H1357552   9.285   2.017   7.063
 7430ETHO    C257553   9.276   2.164   6.906
 7430ETHO   H2157554   9.190   2.201   6.966
 7430ETHO   H2357555   9.232   2.113   6.817
 7431ETHO    O157556   9.342   2.287   6.878
 7431ETHO    C157557   9.285   2.338   6.757
 7431ETHO   H1157558   9.305   2.262   6.678
 7431ETHO   H1357559   9.177   2.362   6.770
 7431ETHO    C257560   9.364   2.471   6.723
 7431ETHO   H2157561   9.473   2.453   6.735
 7431ETHO   H2357562   9.351   2.492   6.614
 7432ETHO    O157563   9.329   2.586   6.805
 7432ETHO    C157564   9.321   2.695   6.718
 7432ETHO   H1157565   9.254   2.673   6.632
 7432ETHO   H1357566   9.423   2.708   6.675
 7432ETHO    C257567   9.278   2.818   6.790
 7432ETHO   H2157568   9.194   2.797   6.860
 7432ETHO   H2357569   9.244   2.896   6.719
 7433ETHO    O157570   9.380   2.885   6.866
 7433ETHO    C157571   9.356   2.873   7.006
 7433ETHO   H1157572   9.248   2.893   7.024
 7433ETHO   H1357573   9.376   2.767   7.030
 7433ETHO    C257574   9.452   2.967   7.082
 7433ETHO   H2157575   9.552   2.940   7.042
 7433ETHO   H2357576   9.448   2.932   7.188
 7434ETHO    O157577   9.425   3.111   7.065
 7434ETHO    C157578   9.526   3.193   7.122
 7434ETHO   H1157579   9.612   3.179   7.054
 7434ETHO   H1357580   9.557   3.151   7.220
 7434ETHO    C257581   9.481   3.341   7.134
 7434ETHO   H2157582   9.409   3.359   7.217
 7434ETHO   H2357583   9.422   3.377   7.048
 7435ETHO    O157584   9.597   3.423   7.149
 7435ETHO    C157585   9.655   3.429   7.283
 7435ETHO   H1157586   9.637   3.335   7.340
 7435ETHO   H1357587   9.762   3.455   7.277
 7435ETHO    C257588   9.584   3.533   7.368
 7435ETHO   H2157589   9.569   3.623   7.305
 7435ETHO   H2357590   9.479   3.502   7.388
 7436ETHO    O157591   9.648   3.575   7.488
 7436ETHO    C157592   9.636   3.715   7.517
 7436ETHO   H1157593   9.690   3.768   7.435
 7436ETHO   H1357594   9.530   3.744   7.502
 7436ETHO    C257595   9.680   3.755   7.659
 7436ETHO   H2157596   9.684   3.866   7.658
 7436ETHO   H2357597   9.778   3.711   7.689
 7437ETHO    O157598   9.591   3.721   7.764
 7437ETHO    C157599   9.480   3.810   7.771
 7437ETHO   H1157600   9.503   3.919   7.767
 7437ETHO   H1357601   9.410   3.793   7.687
 7437ETHO    C257602   9.390   3.783   7.898
 7437ETHO   H2157603   9.381   3.673   7.908
 7437ETHO   H2357604   9.286   3.821   7.885
 7438ETHO    O157605   9.449   3.832   8.014
 7438ETHO    C157606   9.381   3.795   8.133
 7438ETHO   H1157607   9.280   3.753   8.117
 7438ETHO   H1357608   9.438   3.706   8.167
 7438ETHO    C257609   9.387   3.905   8.234
 7438ETHO   H2157610   9.488   3.952   8.231
 7438ETHO   H2357611   9.371   3.849   8.329
 7439ETHO    O157612   9.289   4.006   8.219
 7439ETHO    C157613   9.317   4.114   8.296
 7439ETHO   H1157614   9.397   4.100   8.372
 7439ETHO   H1357615   9.222   4.143   8.345
 7439ETHO    C257616   9.367   4.241   8.217
 7439ETHO   H2157617   9.355   4.322   8.293
 7439ETHO   H2357618   9.296   4.262   8.134
 7440ETHO    O157619   9.497   4.220   8.157
 7440ETHO    C157620   9.570   4.338   8.129
 7440ETHO   H1157621   9.593   4.387   8.226
 7440ETHO   H1357622   9.659   4.312   8.069
 7440ETHO    C257623   9.499   4.446   8.039
 7440ETHO   H2157624   9.427   4.395   7.972
 7440ETHO   H2357625   9.580   4.494   7.980
 7441ETHO    O157626   9.431   4.537   8.124
 7441ETHO    C157627   9.416   4.659   8.050
 7441ETHO   H1157628   9.370   4.633   7.953
 7441ETHO   H1357629   9.517   4.695   8.021
 7441ETHO    C257630   9.346   4.766   8.133
 7441ETHO   H2157631   9.388   4.862   8.096
 7441ETHO   H2357632   9.387   4.753   8.235
 7442ETHO    O157633   9.206   4.766   8.123
 7442ETHO    C157634   9.145   4.685   8.220
 7442ETHO   H1157635   9.190   4.583   8.222
 7442ETHO   H1357636   9.154   4.720   8.325
 7442ETHO    C257637   8.992   4.687   8.199
 7442ETHO   H2157638   8.956   4.657   8.098
 7442ETHO   H2357639   8.950   4.612   8.269
 7443ETHO    O157640   8.956   4.816   8.242
 7443ETHO    C157641   8.965   4.919   8.146
 7443ETHO   H1157642   8.922   4.888   8.048
 7443ETHO   H1357643   9.070   4.945   8.119
 7443ETHO    C257644   8.891   5.039   8.194
 7443ETHO   H2157645   8.920   5.072   8.296
 7443ETHO   H2357646   8.786   5.004   8.203
 7444ETHO    O157647   8.905   5.148   8.105
 7444ETHO    C157648   8.833   5.264   8.151
 7444ETHO   H1157649   8.829   5.273   8.261
 7444ETHO   H1357650   8.883   5.354   8.109
 7444ETHO    C257651   8.686   5.260   8.099
 7444ETHO   H2157652   8.648   5.167   8.147
 7444ETHO   H2357653   8.681   5.260   7.988
 7445ETHO    O157654   8.610   5.367   8.149
 7445ETHO    C157655   8.471   5.334   8.143
 7445ETHO   H1157656   8.445   5.255   8.217
 7445ETHO   H1357657   8.447   5.293   8.043
 7445ETHO    C257658   8.371   5.448   8.169
 7445ETHO   H2157659   8.391   5.479   8.273
 7445ETHO   H2357660   8.269   5.405   8.165
 7446ETHO    O157661   8.376   5.561   8.085
 7446ETHO    C157662   8.271   5.654   8.114
 7446ETHO   H1157663   8.170   5.610   8.131
 7446ETHO   H1357664   8.308   5.686   8.214
 7446ETHO    C257665   8.259   5.772   8.026
 7446ETHO   H2157666   8.358   5.782   7.977
 7446ETHO   H2357667   8.230   5.860   8.088
 7447ETHO    O157668   8.174   5.744   7.914
 7447ETHO    C157669   8.143   5.862   7.841
 7447ETHO   H1157670   8.103   5.942   7.907
 7447ETHO   H1357671   8.077   5.841   7.754
 7447ETHO    C257672   8.264   5.929   7.769
 7447ETHO   H2157673   8.342   5.960   7.842
 7447ETHO   H2357674   8.238   6.016   7.705
 7448ETHO    O157675   8.313   5.830   7.672
 7448ETHO    C157676   8.383   5.891   7.557
 7448ETHO   H1157677   8.305   5.946   7.501
 7448ETHO   H1357678   8.451   5.976   7.579
 7448ETHO    C257679   8.454   5.790   7.466
 7448ETHO   H2157680   8.469   5.832   7.364
 7448ETHO   H2357681   8.389   5.700   7.462
 7449ETHO    O157682   8.578   5.758   7.527
 7449ETHO    C157683   8.656   5.672   7.443
 7449ETHO   H1157684   8.638   5.703   7.338
 7449ETHO   H1357685   8.627   5.567   7.461
 7449ETHO    C257686   8.803   5.672   7.482
 7449ETHO   H2157687   8.860   5.597   7.425
 7449ETHO   H2357688   8.816   5.636   7.586
 7450ETHO    O157689   8.851   5.802   7.464
 7450ETHO    C157690   8.993   5.810   7.488
 7450ETHO   H1157691   9.016   5.777   7.592
 7450ETHO   H1357692   9.044   5.748   7.411
 7450ETHO    C257693   9.041   5.948   7.466
 7450ETHO   H2157694   9.138   5.962   7.518
 7450ETHO   H2357695   8.968   6.021   7.506
 7451ETHO    O157696   9.058   5.966   7.328
 7451ETHO    C157697   9.072   6.102   7.290
 7451ETHO   H1157698   8.968   6.140   7.294
 7451ETHO   H1357699   9.142   6.144   7.365
 7451ETHO    C257700   9.129   6.124   7.147
 7451ETHO   H2157701   9.222   6.065   7.131
 7451ETHO   H2357702   9.152   6.229   7.118
 7452ETHO    O157703   9.032   6.077   7.063
 7452ETHO    C157704   9.072   6.094   6.928
 7452ETHO   H1157705   9.060   6.203   6.914
 7452ETHO   H1357706   9.176   6.067   6.898
 7452ETHO    C257707   8.981   6.022   6.827
 7452ETHO   H2157708   9.004   6.065   6.727
 7452ETHO   H2357709   8.873   6.034   6.849
 7453ETHO    O157710   9.018   5.879   6.842
 7453ETHO    C157711   9.037   5.807   6.718
 7453ETHO   H1157712   9.112   5.854   6.650
 7453ETHO   H1357713   9.068   5.709   6.759
 7453ETHO    C257714   8.907   5.786   6.645
 7453ETHO   H2157715   8.832   5.735   6.710
 7453ETHO   H2357716   8.924   5.708   6.568
 7454ETHO    O157717   8.840   5.891   6.581
 7454ETHO    C157718   8.703   5.856   6.541
 7454ETHO   H1157719   8.633   5.874   6.625
 7454ETHO   H1357720   8.709   5.752   6.503
 7454ETHO    C257721   8.665   5.942   6.421
 7454ETHO   H2157722   8.694   6.048   6.436
 7454ETHO   H2357723   8.556   5.939   6.399
 7455ETHO    O157724   8.734   5.895   6.303
 7455ETHO    C157725   8.701   5.975   6.189
 7455ETHO   H1157726   8.594   5.998   6.172
 7455ETHO   H1357727   8.759   6.069   6.195
 7455ETHO    C257728   8.731   5.907   6.046
 7455ETHO   H2157729   8.835   5.870   6.034
 7455ETHO   H2357730   8.718   5.993   5.977
 7456ETHO    O157731   8.640   5.813   6.004
 7456ETHO    C157732   8.662   5.773   5.869
 7456ETHO   H1157733   8.762   5.726   5.860
 7456ETHO   H1357734   8.656   5.847   5.786
 7456ETHO    C257735   8.552   5.667   5.846
 7456ETHO   H2157736   8.541   5.609   5.940
 7456ETHO   H2357737   8.586   5.613   5.755
 7457ETHO    O157738   8.435   5.720   5.787
 7457ETHO    C157739   8.334   5.617   5.773
 7457ETHO   H1157740   8.374   5.517   5.745
 7457ETHO   H1357741   8.277   5.597   5.866
 7457ETHO    C257742   8.231   5.650   5.664
 7457ETHO   H2157743   8.196   5.755   5.657
 7457ETHO   H2357744   8.138   5.589   5.660
 7458ETHO    O157745   8.278   5.628   5.530
 7458ETHO    C157746   8.194   5.697   5.435
 7458ETHO   H1157747   8.194   5.808   5.435
 7458ETHO   H1357748   8.092   5.652   5.439
 7458ETHO    C257749   8.263   5.669   5.301
 7458ETHO   H2157750   8.373   5.673   5.317
 7458ETHO   H2357751   8.237   5.757   5.239
 7459ETHO    O157752   8.213   5.556   5.228
 7459ETHO    C157753   8.318   5.478   5.169
 7459ETHO   H1157754   8.360   5.536   5.084
 7459ETHO   H1357755   8.405   5.467   5.238
 7459ETHO    C257756   8.281   5.338   5.112
 7459ETHO   H2157757   8.365   5.302   5.048
 7459ETHO   H2357758   8.188   5.345   5.052
 7460ETHO    O157759   8.259   5.234   5.205
 7460ETHO    C157760   8.266   5.107   5.140
 7460ETHO   H1157761   8.351   5.098   5.069
 7460ETHO   H1357762   8.171   5.110   5.083
 7460ETHO    C257763   8.257   4.993   5.240
 7460ETHO   H2157764   8.246   4.900   5.180
 7460ETHO   H2357765   8.165   5.006   5.301
 7461ETHO    O157766   8.365   4.985   5.330
 7461ETHO    C157767   8.390   4.860   5.392
 7461ETHO   H1157768   8.374   4.766   5.335
 7461ETHO   H1357769   8.498   4.870   5.418
 7461ETHO    C257770   8.307   4.846   5.523
 7461ETHO   H2157771   8.304   4.946   5.572
 7461ETHO   H2357772   8.354   4.775   5.595
 7462ETHO    O157773   8.184   4.798   5.482
 7462ETHO    C157774   8.092   4.776   5.591
 7462ETHO   H1157775   8.142   4.716   5.670
 7462ETHO   H1357776   8.065   4.874   5.637
 7462ETHO    C257777   7.975   4.690   5.544
 7462ETHO   H2157778   7.962   4.725   5.439
 7462ETHO   H2357779   7.883   4.707   5.605
 7463ETHO    O157780   7.992   4.549   5.551
 7463ETHO    C157781   8.092   4.500   5.462
 7463ETHO   H1157782   8.095   4.565   5.372
 7463ETHO   H1357783   8.190   4.504   5.514
 7463ETHO    C257784   8.085   4.358   5.415
 7463ETHO   H2157785   8.153   4.350   5.328
 7463ETHO   H2357786   7.983   4.334   5.378
 7464ETHO    O157787   8.120   4.259   5.516
 7464ETHO    C157788   8.262   4.250   5.518
 7464ETHO   H1157789   8.308   4.204   5.427
 7464ETHO   H1357790   8.322   4.344   5.524
 7464ETHO    C257791   8.289   4.157   5.639
 7464ETHO   H2157792   8.397   4.130   5.648
 7464ETHO   H2357793   8.245   4.055   5.629
 7465ETHO    O157794   8.250   4.217   5.761
 7465ETHO    C157795   8.295   4.130   5.859
 7465ETHO   H1157796   8.400   4.156   5.882
 7465ETHO   H1357797   8.287   4.022   5.836
 7465ETHO    C257798   8.219   4.158   6.001
 7465ETHO   H2157799   8.181   4.060   6.038
 7465ETHO   H2357800   8.126   4.219   5.993
 7466ETHO    O157801   8.310   4.206   6.103
 7466ETHO    C157802   8.252   4.221   6.230
 7466ETHO   H1157803   8.143   4.238   6.223
 7466ETHO   H1357804   8.259   4.126   6.286
 7466ETHO    C257805   8.299   4.335   6.320
 7466ETHO   H2157806   8.242   4.329   6.415
 7466ETHO   H2357807   8.296   4.440   6.283
 7467ETHO    O157808   8.433   4.314   6.371
 7467ETHO    C157809   8.492   4.438   6.417
 7467ETHO   H1157810   8.430   4.480   6.499
 7467ETHO   H1357811   8.482   4.513   6.337
 7467ETHO    C257812   8.629   4.405   6.478
 7467ETHO   H2157813   8.691   4.360   6.398
 7467ETHO   H2357814   8.619   4.342   6.568
 7468ETHO    O157815   8.696   4.528   6.517
 7468ETHO    C157816   8.819   4.508   6.575
 7468ETHO   H1157817   8.812   4.434   6.658
 7468ETHO   H1357818   8.886   4.472   6.495
 7468ETHO    C257819   8.885   4.636   6.625
 7468ETHO   H2157820   8.980   4.604   6.672
 7468ETHO   H2357821   8.889   4.701   6.535
 7469ETHO    O157822   8.815   4.700   6.731
 7469ETHO    C157823   8.866   4.825   6.773
 7469ETHO   H1157824   8.875   4.896   6.688
 7469ETHO   H1357825   8.969   4.813   6.813
 7469ETHO    C257826   8.779   4.895   6.873
 7469ETHO   H2157827   8.830   4.977   6.927
 7469ETHO   H2357828   8.758   4.811   6.943
 7470ETHO    O157829   8.659   4.940   6.818
 7470ETHO    C157830   8.584   5.020   6.912
 7470ETHO   H1157831   8.507   4.952   6.956
 7470ETHO   H1357832   8.641   5.060   6.998
 7470ETHO    C257833   8.510   5.131   6.836
 7470ETHO   H2157834   8.437   5.180   6.905
 7470ETHO   H2357835   8.455   5.094   6.747
 7471ETHO    O157836   8.611   5.228   6.802
 7471ETHO    C157837   8.551   5.345   6.744
 7471ETHO   H1157838   8.462   5.368   6.808
 7471ETHO   H1357839   8.512   5.315   6.645
 7471ETHO    C257840   8.651   5.463   6.729
 7471ETHO   H2157841   8.589   5.546   6.688
 7471ETHO   H2357842   8.731   5.436   6.658
 7472ETHO    O157843   8.703   5.497   6.854
 7472ETHO    C157844   8.613   5.590   6.922
 7472ETHO   H1157845   8.602   5.678   6.855
 7472ETHO   H1357846   8.516   5.536   6.930
 7472ETHO    C257847   8.650   5.636   7.069
 7472ETHO   H2157848   8.656   5.543   7.129
 7472ETHO   H2357849   8.577   5.710   7.108
 7473ETHO    O157850   8.772   5.707   7.086
 7473ETHO    C157851   8.878   5.641   7.041
 7473ETHO   H1157852   8.881   5.539   7.084
 7473ETHO   H1357853   8.883   5.634   6.930
 7473ETHO    C257854   9.005   5.708   7.086
 7473ETHO   H2157855   8.997   5.705   7.197
 7473ETHO   H2357856   9.006   5.812   7.047
 7474ETHO    O157857   9.119   5.633   7.045
 7474ETHO    C157858   9.237   5.707   7.057
 7474ETHO   H1157859   9.221   5.798   6.997
 7474ETHO   H1357860   9.253   5.734   7.164
 7474ETHO    C257861   9.344   5.609   7.003
 7474ETHO   H2157862   9.318   5.505   7.034
 7474ETHO   H2357863   9.441   5.633   7.052
 7475ETHO    O157864   9.364   5.632   6.864
 7475ETHO    C157865   9.475   5.551   6.828
 7475ETHO   H1157866   9.507   5.590   6.729
 7475ETHO   H1357867   9.563   5.577   6.892
 7475ETHO    C257868   9.442   5.399   6.829
 7475ETHO   H2157869   9.342   5.387   6.783
 7475ETHO   H2357870   9.518   5.348   6.766
 7476ETHO    O157871   9.456   5.338   6.962
 7476ETHO    C157872   9.373   5.228   6.952
 7476ETHO   H1157873   9.424   5.152   6.889
 7476ETHO   H1357874   9.273   5.249   6.908
 7476ETHO    C257875   9.336   5.176   7.098
 7476ETHO   H2157876   9.269   5.254   7.140
 7476ETHO   H2357877   9.433   5.181   7.153
 7477ETHO    O157878   9.283   5.047   7.100
 7477ETHO    C157879   9.149   5.051   7.082
 7477ETHO   H1157880   9.089   5.127   7.137
 7477ETHO   H1357881   9.117   5.062   6.976
 7477ETHO    C257882   9.105   4.911   7.122
 7477ETHO   H2157883   8.997   4.903   7.095
 7477ETHO   H2357884   9.120   4.913   7.232
 7478ETHO    O157885   9.164   4.799   7.057
 7478ETHO    C157886   9.093   4.681   7.089
 7478ETHO   H1157887   8.988   4.680   7.050
 7478ETHO   H1357888   9.076   4.679   7.198
 7478ETHO    C257889   9.175   4.561   7.040
 7478ETHO   H2157890   9.146   4.469   7.093
 7478ETHO   H2357891   9.282   4.583   7.063
 7479ETHO    O157892   9.161   4.550   6.899
 7479ETHO    C157893   9.241   4.442   6.854
 7479ETHO   H1157894   9.344   4.482   6.853
 7479ETHO   H1357895   9.226   4.369   6.937
 7479ETHO    C257896   9.204   4.400   6.708
 7479ETHO   H2157897   9.094   4.398   6.702
 7479ETHO   H2357898   9.251   4.301   6.689
 7480ETHO    O157899   9.256   4.491   6.611
 7480ETHO    C157900   9.239   4.446   6.471
 7480ETHO   H1157901   9.136   4.406   6.456
 7480ETHO   H1357902   9.318   4.374   6.443
 7480ETHO    C257903   9.259   4.561   6.372
 7480ETHO   H2157904   9.283   4.513   6.275
 7480ETHO   H2357905   9.351   4.619   6.393
 7481ETHO    O157906   9.156   4.653   6.351
 7481ETHO    C157907   9.178   4.738   6.243
 7481ETHO   H1157908   9.272   4.798   6.244
 7481ETHO   H1357909   9.176   4.684   6.146
 7481ETHO    C257910   9.068   4.846   6.247
 7481ETHO   H2157911   9.085   4.919   6.165
 7481ETHO   H2357912   9.082   4.900   6.343
 7482ETHO    O157913   8.947   4.777   6.238
 7482ETHO    C157914   8.845   4.849   6.315
 7482ETHO   H1157915   8.828   4.951   6.276
 7482ETHO   H1357916   8.879   4.865   6.420
 7482ETHO    C257917   8.703   4.779   6.301
 7482ETHO   H2157918   8.630   4.829   6.368
 7482ETHO   H2357919   8.701   4.670   6.324
 7483ETHO    O157920   8.656   4.793   6.169
 7483ETHO    C157921   8.514   4.781   6.156
 7483ETHO   H1157922   8.468   4.722   6.239
 7483ETHO   H1357923   8.470   4.883   6.153
 7483ETHO    C257924   8.464   4.712   6.027
 7483ETHO   H2157925   8.516   4.763   5.942
 7483ETHO   H2357926   8.353   4.716   6.021
 7484ETHO    O157927   8.519   4.582   6.030
 7484ETHO    C157928   8.441   4.487   5.956
 7484ETHO   H1157929   8.346   4.490   6.012
 7484ETHO   H1357930   8.486   4.385   5.958
 7484ETHO    C257931   8.428   4.506   5.798
 7484ETHO   H2157932   8.395   4.608   5.771
 7484ETHO   H2357933   8.339   4.445   5.773
 7485ETHO    O157934   8.536   4.461   5.725
 7485ETHO    C157935   8.600   4.568   5.659
 7485ETHO   H1157936   8.599   4.669   5.705
 7485ETHO   H1357937   8.705   4.538   5.641
 7485ETHO    C257938   8.532   4.574   5.519
 7485ETHO   H2157939   8.570   4.671   5.480
 7485ETHO   H2357940   8.423   4.584   5.536
 7486ETHO    O157941   8.542   4.463   5.429
 7486ETHO    C157942   8.516   4.488   5.294
 7486ETHO   H1157943   8.419   4.541   5.285
 7486ETHO   H1357944   8.503   4.390   5.244
 7486ETHO    C257945   8.615   4.563   5.202
 7486ETHO   H2157946   8.568   4.578   5.103
 7486ETHO   H2357947   8.699   4.491   5.196
 7487ETHO    O157948   8.636   4.694   5.252
 7487ETHO    C157949   8.763   4.744   5.221
 7487ETHO   H1157950   8.851   4.678   5.205
 7487ETHO   H1357951   8.754   4.821   5.141
 7487ETHO    C257952   8.812   4.837   5.334
 7487ETHO   H2157953   8.741   4.923   5.341
 7487ETHO   H2357954   8.907   4.889   5.311
 7488ETHO    O157955   8.833   4.768   5.456
 7488ETHO    C157956   8.826   4.863   5.559
 7488ETHO   H1157957   8.887   4.950   5.529
 7488ETHO   H1357958   8.718   4.889   5.571
 7488ETHO    C257959   8.874   4.800   5.691
 7488ETHO   H2157960   8.826   4.700   5.700
 7488ETHO   H2357961   8.846   4.868   5.775
 7489ETHO    O157962   9.017   4.794   5.701
 7489ETHO    C157963   9.059   4.789   5.834
 7489ETHO   H1157964   9.020   4.879   5.887
 7489ETHO   H1357965   9.010   4.707   5.890
 7489ETHO    C257966   9.209   4.776   5.845
 7489ETHO   H2157967   9.245   4.720   5.756
 7489ETHO   H2357968   9.239   4.716   5.933
 7490ETHO    O157969   9.272   4.904   5.836
 7490ETHO    C157970   9.326   4.941   5.967
 7490ETHO   H1157971   9.237   4.979   6.022
 7490ETHO   H1357972   9.359   4.852   6.025
 7490ETHO    C257973   9.441   5.043   5.974
 7490ETHO   H2157974   9.506   5.001   5.894
 7490ETHO   H2357975   9.485   5.047   6.076
 7491ETHO    O157976   9.414   5.178   5.936
 7491ETHO    C157977   9.359   5.254   6.045
 7491ETHO   H1157978   9.437   5.278   6.119
 7491ETHO   H1357979   9.271   5.204   6.092
 7491ETHO    C257980   9.301   5.386   5.990
 7491ETHO   H2157981   9.262   5.453   6.069
 7491ETHO   H2357982   9.216   5.354   5.925
 7492ETHO    O157983   9.400   5.449   5.912
 7492ETHO    C157984   9.433   5.582   5.949
 7492ETHO   H1157985   9.510   5.615   5.877
 7492ETHO   H1357986   9.343   5.646   5.934
 7492ETHO    C257987   9.478   5.610   6.097
 7492ETHO   H2157988   9.545   5.698   6.084
 7492ETHO   H2357989   9.544   5.527   6.132
 7493ETHO    O157990   9.363   5.637   6.188
 7493ETHO    C157991   9.407   5.615   6.322
 7493ETHO   H1157992   9.501   5.673   6.333
 7493ETHO   H1357993   9.419   5.506   6.339
 7493ETHO    C257994   9.299   5.664   6.416
 7493ETHO   H2157995   9.346   5.643   6.515
 7493ETHO   H2357996   9.206   5.604   6.404
 7494ETHO    O157997   9.281   5.808   6.415
 7494ETHO    C157998   9.195   5.849   6.307
 7494ETHO   H1157999   9.249   5.860   6.211
 7494ETHO   H1358000   9.115   5.772   6.309
 7494ETHO    C258001   9.113   5.980   6.327
 7494ETHO   H2158002   9.067   5.968   6.427
 7494ETHO   H2358003   9.040   5.999   6.245
 7495ETHO    O158004   9.197   6.092   6.331
 7495ETHO    C158005   9.127   6.210   6.304
 7495ETHO   H1158006   9.183   6.285   6.365
 7495ETHO   H1358007   9.024   6.208   6.347
 7495ETHO    C258008   9.111   6.244   6.157
 7495ETHO   H2158009   9.017   6.298   6.132
 7495ETHO   H2358010   9.112   6.154   6.092
 7496ETHO    O158011   9.215   6.328   6.102
 7496ETHO    C158012   9.345   6.284   6.137
 7496ETHO   H1158013   9.352   6.298   6.247
 7496ETHO   H1358014   9.353   6.174   6.119
 7496ETHO    C258015   9.464   6.346   6.059
 7496ETHO   H2158016   9.438   6.345   5.951
 7496ETHO   H2358017   9.560   6.291   6.066
 7497ETHO    O158018   9.477   6.473   6.117
 7497ETHO    C158019   9.590   6.548   6.070
 7497ETHO   H1158020   9.685   6.499   6.102
 7497ETHO   H1358021   9.604   6.648   6.116
 7497ETHO    C258022   9.599   6.570   5.918
 7497ETHO   H2158023   9.662   6.660   5.902
 7497ETHO   H2358024   9.492   6.579   5.888
 7498ETHO    O158025   9.660   6.451   5.866
 7498ETHO    C158026   9.675   6.474   5.724
 7498ETHO   H1158027   9.574   6.507   5.694
 7498ETHO   H1358028   9.748   6.555   5.705
 7498ETHO    C258029   9.732   6.357   5.652
 7498ETHO   H2158030   9.740   6.385   5.545
 7498ETHO   H2358031   9.648   6.284   5.657
 7499ETHO    O158032   9.850   6.301   5.709
 7499ETHO    C158033   9.924   6.229   5.617
 7499ETHO   H1158034   9.861   6.155   5.563
 7499ETHO   H1358035   9.961   6.292   5.533
 7499ETHO    C258036  10.035   6.149   5.686
 7499ETHO   H2158037  10.085   6.208   5.766
 7499ETHO   H2358038  10.113   6.111   5.616
 7500ETHO    O158039   9.979   6.038   5.755
 7500ETHO    C158040  10.078   5.960   5.812
 7500ETHO   H1158041  10.149   5.917   5.739
 7500ETHO   H1358042  10.131   6.026   5.884
 7500ETHO    C258043  10.014   5.837   5.889
 7500ETHO   H2158044  10.103   5.770   5.900
 7500ETHO   H2358045   9.944   5.773   5.831
 7501ETHO    O158046   9.969   5.878   6.014
 7501ETHO    C158047   9.927   5.769   6.097
 7501ETHO   H1158048   9.819   5.750   6.079
 7501ETHO   H1358049   9.993   5.682   6.073
 7501ETHO    C258050   9.932   5.805   6.244
 7501ETHO   H2158051   9.918   5.715   6.308
 7501ETHO   H2358052  10.031   5.852   6.262
 7502ETHO    O158053   9.839   5.907   6.277
 7502ETHO    C158054   9.713   5.860   6.306
 7502ETHO   H1158055   9.721   5.765   6.363
 7502ETHO   H1358056   9.669   5.843   6.205
 7502ETHO    C258057   9.620   5.948   6.393
 7502ETHO   H2158058   9.513   5.929   6.370
 7502ETHO   H2358059   9.643   6.053   6.363
 7503ETHO    O158060   9.645   5.948   6.533
 7503ETHO    C158061   9.555   5.878   6.608
 7503ETHO   H1158062   9.526   5.787   6.551
 7503ETHO   H1358063   9.595   5.841   6.705
 7503ETHO    C258064   9.429   5.959   6.632
 7503ETHO   H2158065   9.354   5.885   6.668
 7503ETHO   H2358066   9.389   6.003   6.538
 7504ETHO    O158067   9.431   6.048   6.734
 7504ETHO    C158068   9.521   6.151   6.701
 7504ETHO   H1158069   9.493   6.207   6.609
 7504ETHO   H1358070   9.627   6.122   6.693
 7504ETHO    C258071   9.507   6.253   6.820
 7504ETHO   H2158072   9.398   6.274   6.828
 7504ETHO   H2358073   9.560   6.349   6.800
 7505ETHO    O158074   9.552   6.188   6.940
 7505ETHO    C158075   9.547   6.278   7.050
 7505ETHO   H1158076   9.625   6.355   7.035
 7505ETHO   H1358077   9.440   6.309   7.059
 7505ETHO    C258078   9.582   6.212   7.188
 7505ETHO   H2158079   9.533   6.113   7.200
 7505ETHO   H2358080   9.554   6.287   7.265
 7506ETHO    O158081   9.724   6.198   7.194
 7506ETHO    C158082   9.779   6.132   7.311
 7506ETHO   H1158083   9.888   6.152   7.304
 7506ETHO   H1358084   9.746   6.026   7.314
 7506ETHO    C258085   9.728   6.189   7.452
 7506ETHO   H2158086   9.773   6.117   7.523
 7506ETHO   H2358087   9.620   6.163   7.460
 7507ETHO    O158088   9.749   6.329   7.473
 7507ETHO    C158089   9.703   6.373   7.604
 7507ETHO   H1158090   9.592   6.374   7.602
 7507ETHO   H1358091   9.723   6.294   7.679
 7507ETHO    C258092   9.771   6.502   7.657
 7507ETHO   H2158093   9.681   6.548   7.705
 7507ETHO   H2358094   9.812   6.566   7.576
 7508ETHO    O158095   9.877   6.477   7.744
 7508ETHO    C158096   9.952   6.596   7.778
 7508ETHO   H1158097   9.888   6.671   7.830
 7508ETHO   H1358098   9.987   6.645   7.684
 7508ETHO    C258099  10.076   6.554   7.861
 7508ETHO   H2158100  10.159   6.618   7.824
 7508ETHO   H2358101  10.102   6.448   7.845
 7509ETHO    O158102  10.062   6.576   8.006
 7509ETHO    C158103  10.192   6.560   8.069
 7509ETHO   H1158104  10.216   6.455   8.043
 7509ETHO   H1358105  10.264   6.630   8.023
 7509ETHO    C258106  10.202   6.571   8.220
 7509ETHO   H2158107  10.306   6.555   8.258
 7509ETHO   H2358108  10.140   6.495   8.273
 7510ETHO    O158109  10.169   6.706   8.253
 7510ETHO    C158110  10.032   6.724   8.286
 7510ETHO   H1158111   9.959   6.716   8.203
 7510ETHO   H1358112  10.009   6.650   8.366
 7510ETHO    C258113  10.017   6.868   8.352
 7510ETHO   H2158114   9.910   6.895   8.357
 7510ETHO   H2358115  10.051   6.943   8.277
 7511ETHO    O158116  10.091   6.877   8.474
 7511ETHO    C158117  10.021   6.846   8.588
 7511ETHO   H1158118   9.939   6.919   8.600
 7511ETHO   H1358119   9.964   6.752   8.574
 7511ETHO    C258120  10.099   6.847   8.723
 7511ETHO   H2158121  10.181   6.772   8.716
 7511ETHO   H2358122  10.035   6.816   8.808
 7512ETHO    O158123  10.147   6.983   8.731
 7512ETHO    C158124  10.165   7.023   8.865
 7512ETHO   H1158125  10.089   6.991   8.940
 7512ETHO   H1358126  10.259   6.974   8.899
 7512ETHO    C258127  10.188   7.173   8.891
 7512ETHO   H2158128  10.265   7.212   8.821
 7512ETHO   H2358129  10.221   7.195   8.995
 7513ETHO    O158130  10.064   7.236   8.876
 7513ETHO    C158131  10.056   7.374   8.912
 7513ETHO   H1158132   9.969   7.423   8.864
 7513ETHO   H1358133  10.152   7.420   8.881
 7513ETHO    C258134  10.030   7.383   9.068
 7513ETHO   H2158135  10.119   7.351   9.127
 7513ETHO   H2358136   9.953   7.305   9.084
 7514ETHO    O158137   9.986   7.512   9.113
 7514ETHO    C158138  10.078   7.572   9.194
 7514ETHO   H1158139  10.023   7.645   9.256
 7514ETHO   H1358140  10.133   7.499   9.257
 7514ETHO    C258141  10.195   7.657   9.128
 7514ETHO   H2158142  10.159   7.743   9.068
 7514ETHO   H2358143  10.251   7.583   9.066
 7515ETHO    O158144  10.264   7.702   9.246
 7515ETHO    C158145  10.368   7.795   9.226
 7515ETHO   H1158146  10.350   7.866   9.142
 7515ETHO   H1358147  10.460   7.740   9.196
 7515ETHO    C258148  10.397   7.873   9.358
 7515ETHO   H2158149  10.505   7.900   9.358
 7515ETHO   H2358150  10.384   7.824   9.456
 7516ETHO    O158151  10.326   7.999   9.366
 7516ETHO    C158152  10.353   8.066   9.491
 7516ETHO   H1158153  10.293   8.021   9.574
 7516ETHO   H1358154  10.461   8.057   9.513
 7516ETHO    C258155  10.314   8.219   9.495
 7516ETHO   H2158156  10.285   8.231   9.602
 7516ETHO   H2358157  10.224   8.234   9.433
 7517ETHO    O158158  10.418   8.309   9.469
 7517ETHO    C158159  10.425   8.351   9.336
 7517ETHO   H1158160  10.329   8.400   9.311
 7517ETHO   H1358161  10.438   8.258   9.275
 7517ETHO    C258162  10.540   8.444   9.313
 7517ETHO   H2158163  10.544   8.472   9.206
 7517ETHO   H2358164  10.636   8.394   9.338
 7518ETHO    O158165  10.517   8.556   9.397
 7518ETHO    C158166  10.618   8.654   9.374
 7518ETHO   H1158167  10.712   8.616   9.421
 7518ETHO   H1358168  10.644   8.670   9.267
 7518ETHO    C258169  10.565   8.787   9.445
 7518ETHO   H2158170  10.541   8.759   9.549
 7518ETHO   H2358171  10.473   8.819   9.392
 7519ETHO    O158172  10.654   8.896   9.456
 7519ETHO    C158173  10.650   8.977   9.341
 7519ETHO   H1158174  10.545   9.012   9.328
 7519ETHO   H1358175  10.667   8.914   9.251
 7519ETHO    C258176  10.741   9.098   9.344
 7519ETHO   H2158177  10.727   9.153   9.249
 7519ETHO   H2358178  10.844   9.055   9.346
 7520ETHO    O158179  10.714   9.177   9.454
 7520ETHO    C158180  10.786   9.299   9.447
 7520ETHO   H1158181  10.895   9.281   9.448
 7520ETHO   H1358182  10.758   9.360   9.358
 7520ETHO    C258183  10.750   9.379   9.573
 7520ETHO   H2158184  10.641   9.369   9.594
 7520ETHO   H2358185  10.774   9.486   9.555
 7521PROX    O158186  10.826   9.337   9.681
 7521PROX    C158187  10.776   9.394   9.801
 7521PROX   H1158188  10.779   9.503   9.781
 7521PROX   H1358189  10.674   9.357   9.827
 7521PROX    C258190  10.874   9.361   9.912
 7521PROX   H2158191  10.980   9.362   9.879
 7521PROX    C358192  10.852   9.220   9.973
 7521PROX   H3158193  10.760   9.210  10.033
 7521PROX   H3258194  10.847   9.145   9.891
 7521PROX   H3358195  10.944   9.187  10.027
 7522PROX    O158196  10.856   9.463  10.010
 7522PROX    C158197  10.938   9.457  10.122
 7522PROX   H1158198  10.926   9.362  10.178
 7522PROX   H1358199  11.038   9.448  10.075
 7522PROX    C258200  10.920   9.571  10.223
 7522PROX   H2158201  10.816   9.565  10.262
 7522PROX    C358202  10.940   9.703  10.148
 7522PROX   H3158203  10.851   9.718  10.083
 7522PROX   H3258204  10.948   9.787  10.221
 7522PROX   H3358205  11.029   9.710  10.082
 7523PROX    O158206  11.014   9.548  10.331
 7523PROX    C158207  11.154   9.552  10.295
 7523PROX   H1158208  11.165   9.593  10.192
 7523PROX   H1358209  11.223   9.612  10.357
 7523PROX    C258210  11.211   9.403  10.295
 7523PROX   H2158211  11.128   9.336  10.263
 7523PROX    C358212  11.238   9.360  10.439
 7523PROX   H3158213  11.145   9.369  10.499
 7523PROX   H3258214  11.255   9.251  10.450
 7523PROX   H3358215  11.316   9.423  10.487
 7524PROX    O158216  11.309   9.391  10.192
 7524PROX    C158217  11.343   9.251  10.162
 7524PROX   H1158218  11.397   9.203  10.246
 7524PROX   H1358219  11.248   9.199  10.136
 7524PROX    C258220  11.430   9.251  10.034
 7524PROX   H2158221  11.358   9.283   9.956
 7524PROX    C358222  11.483   9.105   9.999
 7524PROX   H3158223  11.520   9.097   9.895
 7524PROX   H3258224  11.555   9.065  10.074
 7524PROX   H3358225  11.393   9.039   9.997
 7525PROX    O158226  11.545   9.334  10.043
 7525PROX    C158227  11.615   9.351   9.922
 7525PROX   H1158228  11.702   9.284   9.907
 7525PROX   H1358229  11.547   9.330   9.837
 7525PROX    C258230  11.672   9.491   9.909
 7525PROX   H2158231  11.764   9.495   9.972
 7525PROX    C358232  11.578   9.602   9.970
 7525PROX   H3158233  11.618   9.704   9.952
 7525PROX   H3258234  11.475   9.586   9.932
 7525PROX   H3358235  11.567   9.583  10.079
 7526PROX    O158236  11.706   9.518   9.768
 7526PROX    C158237  11.834   9.583   9.754
 7526PROX   H1158238  11.822   9.683   9.800
 7526PROX   H1358239  11.913   9.523   9.804
 7526PROX    C258240  11.875   9.579   9.607
 7526PROX   H2158241  11.794   9.621   9.543
 7526PROX    C358242  11.892   9.434   9.555
 7526PROX   H3158243  11.931   9.445   9.452
 7526PROX   H3258244  11.975   9.385   9.610
 7526PROX   H3358245  11.798   9.375   9.558
 7527PROX    O158246  11.999   9.656   9.587
 7527PROX    C158247  12.117   9.622   9.662
 7527PROX   H1158248  12.109   9.527   9.719
 7527PROX   H1358249  12.192   9.598   9.584
 7527PROX    C258250  12.166   9.744   9.751
 7527PROX   H2158251  12.170   9.835   9.687
 7527PROX    C358252  12.312   9.732   9.777
 7527PROX   H3158253  12.333   9.634   9.825
 7527PROX   H3258254  12.377   9.753   9.689
 7527PROX   H3358255  12.348   9.815   9.842
 7528PROX    O158256  12.081   9.758   9.861
 7528PROX    C158257  12.111   9.672   9.971
 7528PROX   H1158258  12.115   9.570   9.928
 7528PROX   H1358259  12.203   9.696  10.029
 7528PROX    C258260  11.996   9.682  10.070
 7528PROX   H2158261  11.902   9.646  10.022
 7528PROX    C358262  11.961   9.820  10.125
 7528PROX   H3158263  11.912   9.884  10.048
 7528PROX   H3258264  11.896   9.813  10.214
 7528PROX   H3358265  12.056   9.863  10.161
 7529PROX    O158266  12.026   9.596  10.175
 7529PROX    C158267  11.912   9.555  10.244
 7529PROX   H1158268  11.889   9.625  10.327
 7529PROX   H1358269  11.821   9.563  10.181
 7529PROX    C258270  11.927   9.410  10.291
 7529PROX   H2158271  12.019   9.398  10.352
 7529PROX    C358272  11.929   9.310  10.174
 7529PROX   H3158273  11.982   9.228  10.227
 7529PROX   H3258274  11.829   9.289  10.130
 7529PROX   H3358275  11.995   9.351  10.095
 7530PROX    O158276  11.811   9.388  10.368
 7530PROX    C158277  11.840   9.315  10.489
 7530PROX   H1158278  11.885   9.219  10.456
 7530PROX   H1358279  11.911   9.368  10.557
 7530PROX    C258280  11.707   9.300  10.563
 7530PROX   H2158281  11.733   9.257  10.662
 7530PROX    C358282  11.611   9.198  10.494
 7530PROX   H3158283  11.585   9.233  10.392
 7530PROX   H3258284  11.653   9.096  10.479
 7530PROX   H3358285  11.518   9.183  10.552
 7531PROX    O158286  11.661   9.433  10.582
 7531PROX    C158287  11.560   9.453  10.681
 7531PROX   H1158288  11.465   9.415  10.636
 7531PROX   H1358289  11.580   9.386  10.767
 7531PROX    C258290  11.559   9.600  10.730
 7531PROX   H2158291  11.662   9.627  10.761
 7531PROX    C358292  11.469   9.609  10.858
 7531PROX   H3158293  11.368   9.565  10.842
 7531PROX   H3258294  11.510   9.558  10.948
 7531PROX   H3358295  11.460   9.713  10.894
 7532PROX    O158296  11.507   9.682  10.623
 7532PROX    C158297  11.591   9.705  10.506
 7532PROX   H1158298  11.698   9.721  10.532
 7532PROX   H1358299  11.587   9.616  10.439
 7532PROX    C258300  11.556   9.830  10.431
 7532PROX   H2158301  11.453   9.804  10.398
 7532PROX    C358302  11.637   9.859  10.309
 7532PROX   H3158303  11.648   9.773  10.240
 7532PROX   H3258304  11.591   9.941  10.250
 7532PROX   H3358305  11.738   9.892  10.340
 7533PROX    O158306  11.541   9.943  10.520
 7533PROX    C158307  11.657   9.976  10.589
 7533PROX   H1158308  11.689   9.884  10.643
 7533PROX   H1358309  11.736  10.007  10.517
 7533PROX    C258310  11.627  10.090  10.684
 7533PROX   H2158311  11.517  10.096  10.700
 7533PROX    C358312  11.680  10.225  10.623
 7533PROX   H3158313  11.790  10.220  10.608
 7533PROX   H3258314  11.629  10.233  10.525
 7533PROX   H3358315  11.647  10.305  10.693
 7534PROX    O158316  11.698  10.082  10.805
 7534PROX    C158317  11.635   9.988  10.896
 7534PROX   H1158318  11.544  10.038  10.936
 7534PROX   H1358319  11.599   9.893  10.853
 7534PROX    C258320  11.732   9.946  11.009
 7534PROX   H2158321  11.786  10.036  11.046
 7534PROX    C358322  11.842   9.842  10.974
 7534PROX   H3158323  11.791   9.744  10.963
 7534PROX   H3258324  11.883   9.871  10.875
 7534PROX   H3358325  11.921   9.824  11.050
 7535PROX    O158326  11.661   9.884  11.116
 7535PROX    C158327  11.727   9.888  11.240
 7535PROX   H1158328  11.837   9.892  11.227
 7535PROX   H1358329  11.702   9.985  11.288
 7535PROX    C258330  11.687   9.781  11.340
 7535PROX   H2158331  11.577   9.789  11.334
 7535PROX    C358332  11.739   9.799  11.485
 7535PROX   H3158333  11.830   9.743  11.516
 7535PROX   H3258334  11.759   9.905  11.512
 7535PROX   H3358335  11.653   9.760  11.543
 7536PROX    O158336  11.738   9.657  11.290
 7536PROX    C158337  11.676   9.542  11.348
 7536PROX   H1158338  11.732   9.524  11.442
 7536PROX   H1358339  11.582   9.589  11.382
 7536PROX    C258340  11.642   9.430  11.255
 7536PROX   H2158341  11.591   9.480  11.171
 7536PROX    C358342  11.543   9.325  11.314
 7536PROX   H3158343  11.530   9.247  11.235
 7536PROX   H3258344  11.574   9.279  11.410
 7536PROX   H3358345  11.445   9.368  11.341
 7537PROX    O158346  11.759   9.357  11.216
 7537PROX    C158347  11.835   9.416  11.112
 7537PROX   H1158348  11.827   9.525  11.128
 7537PROX   H1358349  11.942   9.389  11.128
 7537PROX    C258350  11.790   9.361  10.973
 7537PROX   H2158351  11.715   9.426  10.924
 7537PROX    C358352  11.758   9.209  10.959
 7537PROX   H3158353  11.743   9.160  10.861
 7537PROX   H3258354  11.840   9.149  11.004
 7537PROX   H3358355  11.662   9.188  11.012
 7538PROX    O158356  11.905   9.366  10.883
 7538PROX    C158357  11.937   9.498  10.830
 7538PROX   H1158358  11.864   9.509  10.748
 7538PROX   H1358359  11.920   9.575  10.909
 7538PROX    C258360  12.089   9.502  10.795
 7538PROX   H2158361  12.105   9.413  10.732
 7538PROX    C358362  12.175   9.488  10.918
 7538PROX   H3158363  12.150   9.392  10.966
 7538PROX   H3258364  12.280   9.492  10.883
 7538PROX   H3358365  12.157   9.565  10.997
 7539PROX    O158366  12.110   9.624  10.724
 7539PROX    C158367  12.068   9.629  10.589
 7539PROX   H1158368  12.122   9.547  10.537
 7539PROX   H1358369  11.958   9.629  10.578
 7539PROX    C258370  12.120   9.759  10.539
 7539PROX   H2158371  12.090   9.756  10.431
 7539PROX    C358372  12.276   9.787  10.544
 7539PROX   H3158373  12.323   9.857  10.472
 7539PROX   H3258374  12.305   9.821  10.646
 7539PROX   H3358375  12.333   9.696  10.516
 7540PROX    O158376  12.043   9.865  10.598
 7540PROX    C158377  12.070   9.990  10.540
 7540PROX   H1158378  12.130   9.988  10.446
 7540PROX   H1358379  11.977  10.038  10.505
 7540PROX    C258380  12.137  10.093  10.635
 7540PROX   H2158381  12.238  10.057  10.668
 7540PROX    C358382  12.044  10.107  10.758
 7540PROX   H3158383  11.939  10.093  10.725
 7540PROX   H3258384  12.061  10.036  10.842
 7540PROX   H3358385  12.061  10.207  10.803
 7541PROX    O158386  12.146  10.223  10.569
 7541PROX    C158387  12.267  10.233  10.490
 7541PROX   H1158388  12.273  10.145  10.422
 7541PROX   H1358389  12.259  10.321  10.422
 7541PROX    C258390  12.392  10.259  10.569
 7541PROX   H2158391  12.407  10.181  10.646
 7541PROX    C358392  12.393  10.395  10.635
 7541PROX   H3158393  12.492  10.413  10.682
 7541PROX   H3258394  12.388  10.473  10.556
 7541PROX   H3358395  12.309  10.407  10.707
 7542PROX    O158396  12.494  10.266  10.472
 7542PROX    C158397  12.601  10.179  10.505
 7542PROX   H1158398  12.697  10.219  10.467
 7542PROX   H1358399  12.628  10.173  10.613
 7542PROX    C258400  12.580  10.037  10.454
 7542PROX   H2158401  12.480  10.006  10.493
 7542PROX    C358402  12.693   9.941  10.499
 7542PROX   H3158403  12.690   9.942  10.610
 7542PROX   H3258404  12.677   9.837  10.463
 7542PROX   H3358405  12.793   9.976  10.463
 7543PROX    O158406  12.575  10.042  10.315
 7543PROX    C158407  12.508   9.925  10.262
 7543PROX   H1158408  12.498   9.846  10.338
 7543PROX   H1358409  12.399   9.932  10.242
 7543PROX    C258410  12.579   9.872  10.134
 7543PROX   H2158411  12.677   9.836  10.170
 7543PROX    C358412  12.598   9.977  10.027
 7543PROX   H3158413  12.667  10.052  10.072
 7543PROX   H3258414  12.631   9.942   9.927
 7543PROX   H3358415  12.501  10.026  10.002
 7544PROX    O158416  12.500   9.764  10.082
 7544PROX    C158417  12.572   9.672   9.991
 7544PROX   H1158418  12.511   9.606   9.926
 7544PROX   H1358419  12.627   9.730   9.913
 7544PROX    C258420  12.654   9.580  10.077
 7544PROX   H2158421  12.694   9.629  10.168
 7544PROX    C358422  12.775   9.515  10.007
 7544PROX   H3158423  12.740   9.443   9.930
 7544PROX   H3258424  12.854   9.580   9.964
 7544PROX   H3358425  12.835   9.456  10.080
 7545PROX    O158426  12.573   9.476  10.129
 7545PROX    C158427  12.485   9.524  10.234
 7545PROX   H1158428  12.518   9.599  10.308
 7545PROX   H1358429  12.395   9.573  10.190
 7545PROX    C258430  12.429   9.403  10.316
 7545PROX   H2158431  12.513   9.332  10.335
 7545PROX    C358432  12.318   9.338  10.225
 7545PROX   H3158433  12.236   9.406  10.192
 7545PROX   H3258434  12.368   9.305  10.132
 7545PROX   H3358435  12.274   9.253  10.282
 7546PROX    O158436  12.378   9.458  10.438
 7546PROX    C158437  12.329   9.358  10.530
 7546PROX   H1158438  12.304   9.416  10.621
 7546PROX   H1358439  12.232   9.309  10.507
 7546PROX    C258440  12.431   9.246  10.569
 7546PROX   H2158441  12.410   9.172  10.489
 7546PROX    C358442  12.418   9.161  10.693
 7546PROX   H3158443  12.318   9.114  10.704
 7546PROX   H3258444  12.503   9.091  10.707
 7546PROX   H3358445  12.412   9.227  10.783
 7547PROX    O158446  12.567   9.294  10.564
 7547PROX    C158447  12.605   9.387  10.665
 7547PROX   H1158448  12.517   9.407  10.730
 7547PROX   H1358449  12.693   9.342  10.716
 7547PROX    C258450  12.654   9.517  10.594
 7547PROX   H2158451  12.569   9.577  10.555
 7547PROX    C358452  12.761   9.491  10.492
 7547PROX   H3158453  12.821   9.408  10.535
 7547PROX   H3258454  12.719   9.455  10.395
 7547PROX   H3358455  12.828   9.577  10.469
 7548PROX    O158456  12.705   9.603  10.689
 7548PROX    C158457  12.609   9.651  10.791
 7548PROX   H1158458  12.519   9.692  10.742
 7548PROX   H1358459  12.580   9.564  10.855
 7548PROX    C258460  12.683   9.758  10.871
 7548PROX   H2158461  12.726   9.832  10.801
 7548PROX    C358462  12.797   9.706  10.956
 7548PROX   H3158463  12.874   9.658  10.892
 7548PROX   H3258464  12.849   9.790  11.006
 7548PROX   H3358465  12.757   9.639  11.036
 7549PROX    O158466  12.585   9.823  10.956
 7549PROX    C158467  12.518   9.929  10.893
 7549PROX   H1158468  12.593  10.009  10.876
 7549PROX   H1358469  12.476   9.894  10.796
 7549PROX    C258470  12.406   9.974  10.984
 7549PROX   H2158471  12.446   9.973  11.088
 7549PROX    C358472  12.298   9.864  10.976
 7549PROX   H3158473  12.214   9.887  11.045
 7549PROX   H3258474  12.258   9.869  10.873
 7549PROX   H3358475  12.337   9.763  11.002
 7550PROX    O158476  12.366  10.101  10.954
 7550PROX    C158477  12.273  10.150  11.046
 7550PROX   H1158478  12.178  10.093  11.045
 7550PROX   H1358479  12.306  10.152  11.152
 7550PROX    C258480  12.237  10.301  11.007
 7550PROX   H2158481  12.212  10.288  10.899
 7550PROX    C358482  12.362  10.395  11.020
 7550PROX   H3158483  12.454  10.344  10.985
 7550PROX   H3258484  12.347  10.482  10.953
 7550PROX   H3358485  12.369  10.425  11.127
 7551PROX    O158486  12.123  10.340  11.086
 7551PROX    C158487  12.050  10.431  11.007
 7551PROX   H1158488  12.117  10.518  10.994
 7551PROX   H1358489  12.032  10.387  10.907
 7551PROX    C258490  11.920  10.457  11.083
 7551PROX   H2158491  11.957  10.488  11.184
 7551PROX    C358492  11.829  10.334  11.108
 7551PROX   H3158493  11.743  10.368  11.169
 7551PROX   H3258494  11.787  10.297  11.013
 7551PROX   H3358495  11.869  10.240  11.154
 7552PROX    O158496  11.855  10.566  11.027
 7552PROX    C158497  11.813  10.559  10.893
 7552PROX   H1158498  11.905  10.572  10.831
 7552PROX   H1358499  11.776  10.456  10.870
 7552PROX    C258500  11.695  10.656  10.864
 7552PROX   H2158501  11.729  10.756  10.901
 7552PROX    C358502  11.563  10.630  10.924
 7552PROX   H3158503  11.487  10.711  10.918
 7552PROX   H3258504  11.516  10.537  10.885
 7552PROX   H3358505  11.564  10.623  11.035
 7553PROX    O158506  11.685  10.668  10.718
 7553PROX    C158507  11.629  10.795  10.675
 7553PROX   H1158508  11.523  10.813  10.704
 7553PROX   H1358509  11.692  10.879  10.710
 7553PROX    C258510  11.640  10.793  10.525
 7553PROX   H2158511  11.576  10.712  10.483
 7553PROX    C358512  11.778  10.775  10.473
 7553PROX   H3158513  11.812  10.675  10.506
 7553PROX   H3258514  11.775  10.766  10.362
 7553PROX   H3358515  11.851  10.851  10.509
 7554PROX    O158516  11.578  10.908  10.475
 7554PROX    C158517  11.558  10.906  10.331
 7554PROX   H1158518  11.652  10.904  10.273
 7554PROX   H1358519  11.494  10.822  10.298
 7554PROX    C258520  11.485  11.035  10.287
 7554PROX   H2158521  11.559  11.117  10.271
 7554PROX    C358522  11.367  11.075  10.383
 7554PROX   H3158523  11.295  10.991  10.384
 7554PROX   H3258524  11.398  11.098  10.487
 7554PROX   H3358525  11.316  11.167  10.347
 7555PROX    O158526  11.415  11.010  10.165
 7555PROX    C158527  11.494  10.993  10.045
 7555PROX   H1158528  11.442  11.045   9.961
 7555PROX   H1358529  11.590  11.048  10.056
 7555PROX    C258530  11.515  10.841  10.002
 7555PROX   H2158531  11.529  10.844   9.892
 7555PROX    C358532  11.391  10.754  10.028
 7555PROX   H3158533  11.405  10.644  10.016
 7555PROX   H3258534  11.347  10.778  10.127
 7555PROX   H3358535  11.312  10.773   9.952
 7556PROX    O158536  11.638  10.793  10.071
 7556PROX    C158537  11.672  10.660  10.034
 7556PROX   H1158538  11.595  10.591  10.075
 7556PROX   H1358539  11.676  10.652   9.923
 7556PROX    C258540  11.812  10.640  10.092
 7556PROX   H2158541  11.809  10.670  10.199
 7556PROX    C358542  11.908  10.725  10.006
 7556PROX   H3158543  12.013  10.704  10.038
 7556PROX   H3258544  11.907  10.703   9.897
 7556PROX   H3358545  11.889  10.834  10.015
 7557PROX    O158546  11.868  10.504  10.086
 7557PROX    C158547  11.801  10.410  10.168
 7557PROX   H1158548  11.809  10.444  10.273
 7557PROX   H1358549  11.698  10.408  10.125
 7557PROX    C258550  11.867  10.272  10.155
 7557PROX   H2158551  11.858  10.255  10.046
 7557PROX    C358552  11.809  10.168  10.247
 7557PROX   H3158553  11.854  10.173  10.349
 7557PROX   H3258554  11.700  10.182  10.262
 7557PROX   H3358555  11.808  10.062  10.212
 7558PROX    O158556  12.009  10.285  10.184
 7558PROX    C158557  12.087  10.169  10.151
 7558PROX   H1158558  12.189  10.183  10.191
 7558PROX   H1358559  12.046  10.079  10.202
 7558PROX    C258560  12.092  10.145   9.997
 7558PROX   H2158561  11.991  10.115   9.962
 7558PROX    C358562  12.196  10.037   9.962
 7558PROX   H3158563  12.202  10.021   9.852
 7558PROX   H3258564  12.300  10.066   9.988
 7558PROX   H3358565  12.182   9.939  10.012
 7559PROX    O158566  12.140  10.259   9.924
 7559PROX    C158567  12.065  10.278   9.806
 7559PROX   H1158568  12.054  10.182   9.751
 7559PROX   H1358569  11.964  10.317   9.832
 7559PROX    C258570  12.136  10.381   9.717
 7559PROX   H2158571  12.239  10.344   9.703
 7559PROX    C358572  12.124  10.525   9.777
 7559PROX   H3158573  12.016  10.554   9.777
 7559PROX   H3258574  12.156  10.540   9.883
 7559PROX   H3358575  12.194  10.586   9.717
 7560PROX    O158576  12.079  10.388   9.591
 7560PROX    C158577  12.151  10.310   9.496
 7560PROX   H1158578  12.254  10.344   9.474
 7560PROX   H1358579  12.166  10.211   9.545
 7560PROX    C258580  12.063  10.299   9.373
 7560PROX   H2158581  11.956  10.287   9.402
 7560PROX    C358582  12.104  10.179   9.287
 7560PROX   H3158583  12.119  10.089   9.351
 7560PROX   H3258584  12.034  10.159   9.203
 7560PROX   H3358585  12.199  10.210   9.239
 7561PROX    O158586  12.070  10.411   9.284
 7561PROX    C158587  12.071  10.544   9.343
 7561PROX   H1158588  11.980  10.555   9.406
 7561PROX   H1358589  12.166  10.554   9.401
 7561PROX    C258590  12.071  10.639   9.218
 7561PROX   H2158591  11.987  10.634   9.146
 7561PROX    C358592  12.198  10.612   9.133
 7561PROX   H3158593  12.205  10.513   9.085
 7561PROX   H3258594  12.200  10.694   9.058
 7561PROX   H3358595  12.282  10.621   9.205
 7562PROX    O158596  12.079  10.771   9.261
 7562PROX    C158597  11.965  10.811   9.336
 7562PROX   H1158598  11.958  10.762   9.435
 7562PROX   H1358599  11.998  10.915   9.354
 7562PROX    C258600  11.835  10.819   9.255
 7562PROX   H2158601  11.788  10.722   9.228
 7562PROX    C358602  11.867  10.879   9.117
 7562PROX   H3158603  11.771  10.886   9.060
 7562PROX   H3258604  11.919  10.977   9.122
 7562PROX   H3358605  11.933  10.818   9.052
 7563PROX    O158606  11.753  10.909   9.331
 7563PROX    C158607  11.709  10.851   9.456
 7563PROX   H1158608  11.676  10.746   9.442
 7563PROX   H1358609  11.790  10.850   9.533
 7563PROX    C258610  11.585  10.919   9.523
 7563PROX   H2158611  11.517  10.937   9.438
 7563PROX    C358612  11.625  11.055   9.585
 7563PROX   H3158613  11.697  11.034   9.668
 7563PROX   H3258614  11.666  11.122   9.507
 7563PROX   H3358615  11.540  11.108   9.633
 7564PROX    O158616  11.535  10.834   9.624
 7564PROX    C158617  11.400  10.867   9.662
 7564PROX   H1158618  11.368  10.873   9.768
 7564PROX   H1358619  11.369  10.966   9.622
 7564PROX    C258620  11.311  10.757   9.599
 7564PROX   H2158621  11.363  10.722   9.507
 7564PROX    C358622  11.179  10.824   9.566
 7564PROX   H3158623  11.201  10.913   9.502
 7564PROX   H3258624  11.116  10.754   9.506
 7564PROX   H3358625  11.124  10.874   9.648
 7565PROX    O158626  11.297  10.653   9.697
 7565PROX    C158627  11.241  10.533   9.645
 7565PROX   H1158628  11.160  10.552   9.571
 7565PROX   H1358629  11.323  10.496   9.580
 7565PROX    C258630  11.200  10.438   9.756
 7565PROX   H2158631  11.281  10.444   9.831
 7565PROX    C358632  11.201  10.293   9.703
 7565PROX   H3158633  11.110  10.278   9.641
 7565PROX   H3258634  11.290  10.272   9.639
 7565PROX   H3358635  11.191  10.223   9.788
 7566PROX    O158636  11.069  10.459   9.813
 7566PROX    C158637  11.070  10.568   9.900
 7566PROX   H1158638  11.154  10.558   9.972
 7566PROX   H1358639  11.080  10.660   9.838
 7566PROX    C258640  10.936  10.569   9.967
 7566PROX   H2158641  10.856  10.525   9.903
 7566PROX    C358642  10.895  10.712  10.009
 7566PROX   H3158643  10.967  10.749  10.085
 7566PROX   H3258644  10.888  10.783   9.924
 7566PROX   H3358645  10.796  10.701  10.058
 7567PROX    O158646  10.943  10.491  10.086
 7567PROX    C158647  10.932  10.350  10.052
 7567PROX   H1158648  10.855  10.322   9.977
 7567PROX   H1358649  11.030  10.327  10.004
 7567PROX    C258650  10.931  10.264  10.177
 7567PROX   H2158651  10.995  10.306  10.258
 7567PROX    C358652  10.976  10.124  10.139
 7567PROX   H3158653  11.082  10.129  10.103
 7567PROX   H3258654  10.958  10.051  10.221
 7567PROX   H3358655  10.915  10.081  10.057
 7568PROX    O158656  10.803  10.251  10.232
 7568PROX    C158657  10.739  10.373  10.268
 7568PROX   H1158658  10.805  10.431  10.336
 7568PROX   H1358659  10.722  10.441  10.182
 7568PROX    C258660  10.600  10.347  10.339
 7568PROX   H2158661  10.560  10.245  10.320
 7568PROX    C358662  10.495  10.454  10.302
 7568PROX   H3158663  10.534  10.556  10.321
 7568PROX   H3258664  10.474  10.457  10.193
 7568PROX   H3358665  10.402  10.431  10.358
 7569PROX    O158666  10.614  10.364  10.477
 7569PROX    C158667  10.678  10.255  10.543
 7569PROX   H1158668  10.612  10.166  10.551
 7569PROX   H1358669  10.766  10.224  10.482
 7569PROX    C258670  10.719  10.297  10.693
 7569PROX   H2158671  10.629  10.324  10.752
 7569PROX    C358672  10.815  10.412  10.700
 7569PROX   H3158673  10.779  10.490  10.629
 7569PROX   H3258674  10.829  10.458  10.800
 7569PROX   H3358675  10.915  10.391  10.657
 7570PROX    O158676  10.783  10.182  10.761
 7570PROX    C158677  10.836  10.210  10.893
 7570PROX   H1158678  10.935  10.260  10.887
 7570PROX   H1358679  10.763  10.284  10.932
 7570PROX    C258680  10.837  10.075  10.970
 7570PROX   H2158681  10.899  10.004  10.911
 7570PROX    C358682  10.688  10.020  10.972
 7570PROX   H3158683  10.642  10.079  11.054
 7570PROX   H3258684  10.657  10.031  10.866
 7570PROX   H3358685  10.684   9.916  11.012
 7571PROX    O158686  10.877  10.086  11.107
 7571PROX    C158687  10.896   9.959  11.168
 7571PROX   H1158688  10.800   9.909  11.195
 7571PROX   H1358689  10.942   9.891  11.093
 7571PROX    C258690  10.999   9.953  11.280
 7571PROX   H2158691  10.966  10.006  11.372
 7571PROX    C358692  11.129  10.029  11.231
 7571PROX   H3158693  11.092  10.132  11.213
 7571PROX   H3258694  11.220  10.031  11.294
 7571PROX   H3358695  11.166   9.979  11.139
 7572PROX    O158696  11.029   9.820  11.312
 7572PROX    C158697  10.932   9.752  11.398
 7572PROX   H1158698  10.995   9.727  11.486
 7572PROX   H1358699  10.850   9.821  11.426
 7572PROX    C258700  10.870   9.620  11.346
 7572PROX   H2158701  10.794   9.635  11.265
 7572PROX    C358702  10.794   9.550  11.461
 7572PROX   H3158703  10.733   9.463  11.430
 7572PROX   H3258704  10.869   9.502  11.527
 7572PROX   H3358705  10.744   9.625  11.525
 7573PROX    O158706  10.976   9.530  11.301
 7573PROX    C158707  11.025   9.558  11.172
 7573PROX   H1158708  10.999   9.661  11.139
 7573PROX   H1358709  11.134   9.541  11.168
 7573PROX    C258710  10.958   9.458  11.067
 7573PROX   H2158711  10.850   9.444  11.088
 7573PROX    C358712  11.034   9.325  11.085
 7573PROX   H3158713  11.130   9.325  11.030
 7573PROX   H3258714  11.056   9.305  11.192
 7573PROX   H3358715  10.968   9.239  11.058
 7574PROX    O158716  10.981   9.500  10.930
 7574PROX    C158717  10.908   9.619  10.895
 7574PROX   H1158718  10.808   9.629  10.942
 7574PROX   H1358719  10.957   9.712  10.933
 7574PROX    C258720  10.913   9.631  10.739
 7574PROX   H2158721  10.847   9.556  10.690
 7574PROX    C358722  11.056   9.617  10.685
 7574PROX   H3158723  11.059   9.578  10.581
 7574PROX   H3258724  11.118   9.709  10.691
 7574PROX   H3358725  11.122   9.558  10.753
 7575PROX    O158726  10.871   9.758  10.702
 7575PROX    C158727  10.808   9.764  10.572
 7575PROX   H1158728  10.864   9.702  10.499
 7575PROX   H1358729  10.701   9.738  10.585
 7575PROX    C258730  10.808   9.911  10.504
 7575PROX   H2158731  10.770   9.982  10.580
 7575PROX    C358732  10.719   9.909  10.374
 7575PROX   H3158733  10.675  10.011  10.362
 7575PROX   H3258734  10.786   9.878  10.291
 7575PROX   H3358735  10.626   9.853  10.398
 7576PROX    O158736  10.943   9.944  10.463
 7576PROX    C158737  11.022   9.986  10.581
 7576PROX   H1158738  10.958  10.050  10.646
 7576PROX   H1358739  11.041   9.890  10.632
 7576PROX    C258740  11.151  10.063  10.533
 7576PROX   H2158741  11.119  10.141  10.460
 7576PROX    C358742  11.237   9.957  10.462
 7576PROX   H3158743  11.253   9.867  10.524
 7576PROX   H3258744  11.182   9.929  10.369
 7576PROX   H3358745  11.332  10.007  10.433
 7577PROX    O158746  11.231  10.118  10.634
 7577PROX    C158747  11.188  10.243  10.683
 7577PROX   H1158748  11.176  10.316  10.600
 7577PROX   H1358749  11.085  10.236  10.723
 7577PROX    C258750  11.281  10.310  10.787
 7577PROX   H2158751  11.385  10.326  10.750
 7577PROX    C358752  11.293  10.237  10.923
 7577PROX   H3158753  11.346  10.307  10.992
 7577PROX   H3258754  11.187  10.217  10.945
 7577PROX   H3358755  11.340  10.136  10.920
 7578PROX    O158756  11.228  10.437  10.830
 7578PROX    C158757  11.230  10.535  10.729
 7578PROX   H1158758  11.326  10.519  10.676
 7578PROX   H1358759  11.142  10.511  10.665
 7578PROX    C258760  11.207  10.669  10.788
 7578PROX   H2158761  11.310  10.698  10.817
 7578PROX    C358762  11.128  10.662  10.919
 7578PROX   H3158763  11.207  10.640  10.994
 7578PROX   H3258764  11.083  10.761  10.941
 7578PROX   H3358765  11.065  10.570  10.924
 7579PROX    O158766  11.163  10.764  10.695
 7579PROX    C158767  11.248  10.793  10.582
 7579PROX   H1158768  11.253  10.902  10.564
 7579PROX   H1358769  11.352  10.755  10.593
 7579PROX    C258770  11.200  10.726  10.444
 7579PROX   H2158771  11.257  10.782  10.367
 7579PROX    C358772  11.053  10.736  10.399
 7579PROX   H3158773  11.013  10.838  10.416
 7579PROX   H3258774  11.046  10.692  10.297
 7579PROX   H3358775  10.993  10.674  10.470
 7580PROX    O158776  11.238  10.587  10.443
 7580PROX    C158777  11.269  10.544  10.311
 7580PROX   H1158778  11.180  10.538  10.245
 7580PROX   H1358779  11.345  10.613  10.267
 7580PROX    C258780  11.327  10.399  10.314
 7580PROX   H2158781  11.249  10.336  10.362
 7580PROX    C358782  11.452  10.384  10.401
 7580PROX   H3158783  11.441  10.426  10.503
 7580PROX   H3258784  11.467  10.274  10.411
 7580PROX   H3358785  11.539  10.436  10.355
 7581PROX    O158786  11.353  10.366  10.184
 7581PROX    C158787  11.392  10.230  10.167
 7581PROX   H1158788  11.489  10.209  10.217
 7581PROX   H1358789  11.300  10.186  10.211
 7581PROX    C258790  11.400  10.198  10.019
 7581PROX   H2158791  11.322  10.263   9.974
 7581PROX    C358792  11.386  10.046   9.992
 7581PROX   H3158793  11.309   9.998  10.056
 7581PROX   H3258794  11.355  10.025   9.888
 7581PROX   H3358795  11.474   9.990  10.031
 7582PROX    O158796  11.532  10.241   9.976
 7582PROX    C158797  11.526  10.316   9.857
 7582PROX   H1158798  11.467  10.273   9.773
 7582PROX   H1358799  11.464  10.407   9.869
 7582PROX    C258800  11.666  10.348   9.799
 7582PROX   H2158801  11.725  10.400   9.877
 7582PROX    C358802  11.658  10.452   9.677
 7582PROX   H3158803  11.757  10.488   9.642
 7582PROX   H3258804  11.599  10.415   9.590
 7582PROX   H3358805  11.612  10.543   9.723
 7583PROX    O158806  11.735  10.226   9.742
 7583PROX    C158807  11.646  10.141   9.665
 7583PROX   H1158808  11.558  10.119   9.728
 7583PROX   H1358809  11.614  10.184   9.568
 7583PROX    C258810  11.715  10.004   9.644
 7583PROX   H2158811  11.750   9.968   9.743
 7583PROX    C358812  11.841  10.019   9.556
 7583PROX   H3158813  11.907  10.094   9.605
 7583PROX   H3258814  11.897   9.924   9.540
 7583PROX   H3358815  11.809  10.057   9.457
 7584PROX    O158816  11.631   9.913   9.576
 7584PROX    C158817  11.530   9.850   9.652
 7584PROX   H1158818  11.554   9.749   9.690
 7584PROX   H1358819  11.523   9.905   9.749
 7584PROX    C258820  11.398   9.856   9.580
 7584PROX   H2158821  11.418   9.819   9.477
 7584PROX    C358822  11.346   9.994   9.555
 7584PROX   H3158823  11.265   9.993   9.479
 7584PROX   H3258824  11.308  10.041   9.648
 7584PROX   H3358825  11.435  10.051   9.519
 7585PROX    O158826  11.296   9.787   9.652
 7585PROX    C158827  11.317   9.647   9.651
 7585PROX   H1158828  11.356   9.617   9.552
 7585PROX   H1358829  11.387   9.615   9.731
 7585PROX    C258830  11.183   9.576   9.690
 7585PROX   H2158831  11.101   9.606   9.621
 7585PROX    C358832  11.127   9.610   9.830
 7585PROX   H3158833  11.187   9.560   9.909
 7585PROX   H3258834  11.113   9.719   9.846
 7585PROX   H3358835  11.032   9.552   9.834
 7586ETHO    O158836  11.209   9.433   9.699
 7586ETHO    C158837  11.235   9.378   9.573
 7586ETHO   H1158838  11.242   9.462   9.501
 7586ETHO   H1358839  11.142   9.325   9.544
 7586ETHO    C258840  11.355   9.281   9.581
 7586ETHO   H2158841  11.435   9.323   9.645
 7586ETHO   H2358842  11.398   9.275   9.479
 7587ETHO    O158843  11.301   9.151   9.615
 7587ETHO    C158844  11.389   9.045   9.570
 7587ETHO   H1158845  11.443   9.063   9.475
 7587ETHO   H1358846  11.465   9.018   9.646
 7587ETHO    C258847  11.295   8.919   9.554
 7587ETHO   H2158848  11.214   8.927   9.629
 7587ETHO   H2358849  11.343   8.824   9.584
 7588ETHO    O158850  11.234   8.898   9.422
 7588ETHO    C158851  11.167   8.772   9.416
 7588ETHO   H1158852  11.100   8.769   9.504
 7588ETHO   H1358853  11.240   8.692   9.440
 7588ETHO    C258854  11.116   8.756   9.278
 7588ETHO   H2158855  11.201   8.770   9.208
 7588ETHO   H2358856  11.040   8.834   9.258
 7589ETHO    O158857  11.058   8.625   9.271
 7589ETHO    C158858  11.026   8.594   9.134
 7589ETHO   H1158859  10.923   8.625   9.109
 7589ETHO   H1358860  11.091   8.645   9.060
 7589ETHO    C258861  11.049   8.440   9.125
 7589ETHO   H2158862  11.148   8.412   9.168
 7589ETHO   H2358863  11.052   8.412   9.018
 7590ETHO    O158864  10.942   8.371   9.192
 7590ETHO    C158865  10.943   8.235   9.160
 7590ETHO   H1158866  11.010   8.178   9.228
 7590ETHO   H1358867  10.982   8.228   9.056
 7590ETHO    C258868  10.817   8.162   9.181
 7590ETHO   H2158869  10.760   8.190   9.272
 7590ETHO   H2358870  10.847   8.055   9.180
 7591ETHO    O158871  10.733   8.199   9.077
 7591ETHO    C158872  10.620   8.121   9.081
 7591ETHO   H1158873  10.653   8.015   9.071
 7591ETHO   H1358874  10.569   8.136   9.178
 7591ETHO    C258875  10.532   8.162   8.962
 7591ETHO   H2158876  10.531   8.270   8.938
 7591ETHO   H2358877  10.430   8.116   8.965
 7592ETHO    O158878  10.586   8.113   8.847
 7592ETHO    C158879  10.520   8.152   8.729
 7592ETHO   H1158880  10.549   8.256   8.703
 7592ETHO   H1358881  10.411   8.141   8.749
 7592ETHO    C258882  10.559   8.072   8.596
 7592ETHO   H2158883  10.668   8.060   8.576
 7592ETHO   H2358884  10.525   8.134   8.511
 7593ETHO    O158885  10.507   7.946   8.612
 7593ETHO    C158886  10.543   7.865   8.498
 7593ETHO   H1158887  10.509   7.918   8.406
 7593ETHO   H1358888  10.652   7.845   8.495
 7593ETHO    C258889  10.471   7.729   8.510
 7593ETHO   H2158890  10.514   7.666   8.430
 7593ETHO   H2358891  10.500   7.680   8.605
 7594ETHO    O158892  10.331   7.725   8.489
 7594ETHO    C158893  10.282   7.596   8.520
 7594ETHO   H1158894  10.338   7.518   8.465
 7594ETHO   H1358895  10.284   7.566   8.627
 7594ETHO    C258896  10.133   7.564   8.491
 7594ETHO   H2158897  10.075   7.652   8.526
 7594ETHO   H2358898  10.105   7.471   8.544
 7595ETHO    O158899  10.102   7.546   8.351
 7595ETHO    C158900   9.960   7.563   8.327
 7595ETHO   H1158901   9.910   7.476   8.374
 7595ETHO   H1358902   9.925   7.646   8.392
 7595ETHO    C258903   9.932   7.565   8.173
 7595ETHO   H2158904   9.983   7.646   8.118
 7595ETHO   H2358905   9.822   7.574   8.160
 7596ETHO    O158906   9.959   7.443   8.104
 7596ETHO    C158907   9.928   7.445   7.968
 7596ETHO   H1158908   9.834   7.501   7.952
 7596ETHO   H1358909  10.005   7.505   7.916
 7596ETHO    C258910   9.922   7.308   7.897
 7596ETHO   H2158911  10.026   7.268   7.898
 7596ETHO   H2358912   9.901   7.320   7.789
 7597ETHO    O158913   9.820   7.218   7.943
 7597ETHO    C158914   9.857   7.162   8.064
 7597ETHO   H1158915   9.862   7.245   8.138
 7597ETHO   H1358916   9.954   7.111   8.052
 7597ETHO    C258917   9.754   7.059   8.111
 7597ETHO   H2158918   9.654   7.105   8.125
 7597ETHO   H2358919   9.780   7.026   8.214
 7598ETHO    O158920   9.754   6.944   8.028
 7598ETHO    C158921   9.617   6.891   8.022
 7598ETHO   H1158922   9.601   6.860   8.128
 7598ETHO   H1358923   9.556   6.979   7.992
 7598ETHO    C258924   9.609   6.769   7.921
 7598ETHO   H2158925   9.508   6.721   7.922
 7598ETHO   H2358926   9.680   6.687   7.947
 7599ETHO    O158927   9.630   6.798   7.781
 7599ETHO    C158928   9.525   6.888   7.731
 7599ETHO   H1158929   9.550   6.987   7.773
 7599ETHO   H1358930   9.422   6.856   7.758
 7599ETHO    C258931   9.530   6.891   7.576
 7599ETHO   H2158932   9.632   6.917   7.538
 7599ETHO   H2358933   9.483   6.982   7.532
 7600ETHO    O158934   9.483   6.769   7.529
 7600ETHO    C158935   9.483   6.758   7.389
 7600ETHO   H1158936   9.442   6.849   7.340
 7600ETHO   H1358937   9.592   6.748   7.369
 7600ETHO    C258938   9.419   6.635   7.338
 7600ETHO   H2158939   9.475   6.553   7.387
 7600ETHO   H2358940   9.429   6.615   7.230
 7601ETHO    O158941   9.280   6.639   7.382
 7601ETHO    C158942   9.196   6.721   7.299
 7601ETHO   H1158943   9.232   6.719   7.194
 7601ETHO   H1358944   9.199   6.825   7.338
 7601ETHO    C258945   9.049   6.683   7.320
 7601ETHO   H2158946   8.986   6.771   7.295
 7601ETHO   H2358947   9.041   6.665   7.429
 7602ETHO    O158948   9.013   6.578   7.237
 7602ETHO    C158949   8.881   6.545   7.264
 7602ETHO   H1158950   8.871   6.523   7.372
 7602ETHO   H1358951   8.811   6.628   7.244
 7602ETHO    C258952   8.823   6.416   7.192
 7602ETHO   H2158953   8.720   6.396   7.228
 7602ETHO   H2358954   8.886   6.327   7.215
 7603ETHO    O158955   8.805   6.430   7.055
 7603ETHO    C158956   8.793   6.298   6.986
 7603ETHO   H1158957   8.837   6.220   7.052
 7603ETHO   H1358958   8.854   6.304   6.893
 7603ETHO    C258959   8.647   6.253   6.964
 7603ETHO   H2158960   8.576   6.269   7.048
 7603ETHO   H2358961   8.651   6.144   6.942
 7604ETHO    O158962   8.588   6.302   6.846
 7604ETHO    C158963   8.543   6.440   6.856
 7604ETHO   H1158964   8.592   6.500   6.936
 7604ETHO   H1358965   8.578   6.497   6.768
 7604ETHO    C258966   8.393   6.458   6.881
 7604ETHO   H2158967   8.341   6.402   6.800
 7604ETHO   H2358968   8.368   6.566   6.868
 7605ETHO    O158969   8.353   6.411   7.006
 7605ETHO    C158970   8.215   6.455   7.033
 7605ETHO   H1158971   8.194   6.563   7.020
 7605ETHO   H1358972   8.146   6.404   6.964
 7605ETHO    C258973   8.172   6.414   7.171
 7605ETHO   H2158974   8.103   6.495   7.203
 7605ETHO   H2358975   8.265   6.409   7.231
 7606ETHO    O158976   8.106   6.288   7.185
 7606ETHO    C158977   8.157   6.206   7.290
 7606ETHO   H1158978   8.261   6.176   7.262
 7606ETHO   H1358979   8.152   6.271   7.380
 7606ETHO    C258980   8.076   6.077   7.320
 7606ETHO   H2158981   7.978   6.099   7.369
 7606ETHO   H2358982   8.119   6.016   7.402
 7607ETHO    O158983   8.067   6.000   7.198
 7607ETHO    C158984   8.048   5.857   7.215
 7607ETHO   H1158985   8.058   5.811   7.114
 7607ETHO   H1358986   8.127   5.818   7.282
 7607ETHO    C258987   7.907   5.828   7.271
 7607ETHO   H2158988   7.869   5.731   7.232
 7607ETHO   H2358989   7.846   5.904   7.218
 7608ETHO    O158990   7.906   5.832   7.416
 7608ETHO    C158991   7.772   5.869   7.461
 7608ETHO   H1158992   7.708   5.783   7.429
 7608ETHO   H1358993   7.736   5.959   7.407
 7608ETHO    C258994   7.768   5.902   7.609
 7608ETHO   H2158995   7.671   5.953   7.626
 7608ETHO   H2358996   7.844   5.981   7.624
 7609ETHO    O158997   7.796   5.803   7.706
 7609ETHO    C158998   7.761   5.848   7.836
 7609ETHO   H1158999   7.831   5.928   7.865
 7609ETHO   H1359000   7.652   5.870   7.825
 7609ETHO    C259001   7.781   5.739   7.939
 7609ETHO   H2159002   7.891   5.721   7.933
 7609ETHO   H2359003   7.719   5.656   7.900
 7610ETHO    O159004   7.749   5.775   8.068
 7610ETHO    C159005   7.777   5.671   8.154
 7610ETHO   H1159006   7.882   5.683   8.189
 7610ETHO   H1359007   7.781   5.573   8.103
 7610ETHO    C259008   7.692   5.673   8.281
 7610ETHO   H2159009   7.587   5.670   8.244
 7610ETHO   H2359010   7.714   5.773   8.325
 7611ETHO    O159011   7.714   5.578   8.383
 7611ETHO    C159012   7.592   5.542   8.451
 7611ETHO   H1159013   7.527   5.631   8.462
 7611ETHO   H1359014   7.531   5.484   8.379
 7611ETHO    C259015   7.611   5.452   8.570
 7611ETHO   H2159016   7.509   5.433   8.612
 7611ETHO   H2359017   7.671   5.505   8.648
 7612ETHO    O159018   7.677   5.337   8.528
 7612ETHO    C159019   7.712   5.253   8.636
 7612ETHO   H1159020   7.615   5.214   8.675
 7612ETHO   H1359021   7.761   5.309   8.718
 7612ETHO    C259022   7.805   5.144   8.571
 7612ETHO   H2159023   7.761   5.121   8.472
 7612ETHO   H2359024   7.806   5.046   8.624
 7613ETHO    O159025   7.944   5.173   8.569
 7613ETHO    C159026   8.014   5.070   8.498
 7613ETHO   H1159027   8.012   4.972   8.551
 7613ETHO   H1359028   7.954   5.067   8.405
 7613ETHO    C259029   8.158   5.116   8.472
 7613ETHO   H2159030   8.160   5.227   8.481
 7613ETHO   H2359031   8.185   5.090   8.367
 7614ETHO    O159032   8.256   5.051   8.560
 7614ETHO    C159033   8.388   5.085   8.518
 7614ETHO   H1159034   8.405   5.103   8.410
 7614ETHO   H1359035   8.439   4.990   8.543
 7614ETHO    C259036   8.467   5.194   8.596
 7614ETHO   H2159037   8.574   5.163   8.592
 7614ETHO   H2359038   8.438   5.190   8.703
 7615ETHO    O159039   8.465   5.321   8.540
 7615ETHO    C159040   8.569   5.401   8.590
 7615ETHO   H1159041   8.519   5.500   8.584
 7615ETHO   H1359042   8.584   5.371   8.696
 7615ETHO    C259043   8.706   5.395   8.517
 7615ETHO   H2159044   8.776   5.473   8.554
 7615ETHO   H2359045   8.687   5.415   8.410
 7616ETHO    O159046   8.791   5.281   8.523
 7616ETHO    C159047   8.855   5.271   8.649
 7616ETHO   H1159048   8.912   5.361   8.681
 7616ETHO   H1359049   8.781   5.245   8.727
 7616ETHO    C259050   8.941   5.140   8.656
 7616ETHO   H2159051   8.875   5.053   8.636
 7616ETHO   H2359052   8.982   5.127   8.759
 7617ETHO    O159053   9.046   5.139   8.573
 7617ETHO    C159054   9.107   5.012   8.567
 7617ETHO   H1159055   9.137   4.972   8.666
 7617ETHO   H1359056   9.037   4.939   8.521
 7617ETHO    C259057   9.227   5.029   8.469
 7617ETHO   H2159058   9.185   5.092   8.388
 7617ETHO   H2359059   9.263   4.934   8.424
 7618ETHO    O159060   9.339   5.098   8.535
 7618ETHO    C159061   9.432   5.159   8.445
 7618ETHO   H1159062   9.516   5.086   8.449
 7618ETHO   H1359063   9.402   5.185   8.341
 7618ETHO    C259064   9.490   5.296   8.500
 7618ETHO   H2159065   9.558   5.336   8.422
 7618ETHO   H2359066   9.542   5.268   8.594
 7619ETHO    O159067   9.381   5.380   8.541
 7619ETHO    C159068   9.429   5.483   8.627
 7619ETHO   H1159069   9.525   5.518   8.584
 7619ETHO   H1359070   9.441   5.444   8.730
 7619ETHO    C259071   9.321   5.592   8.627
 7619ETHO   H2159072   9.291   5.614   8.523
 7619ETHO   H2359073   9.350   5.684   8.682
 7620ETHO    O159074   9.209   5.542   8.698
 7620ETHO    C159075   9.097   5.631   8.685
 7620ETHO   H1159076   9.109   5.698   8.598
 7620ETHO   H1359077   9.014   5.565   8.653
 7620ETHO    C259078   9.058   5.706   8.803
 7620ETHO   H2159079   9.020   5.640   8.885
 7620ETHO   H2359080   8.985   5.784   8.775
 7621ETHO    O159081   9.167   5.764   8.867
 7621ETHO    C159082   9.200   5.888   8.805
 7621ETHO   H1159083   9.108   5.950   8.804
 7621ETHO   H1359084   9.232   5.871   8.700
 7621ETHO    C259085   9.317   5.949   8.883
 7621ETHO   H2159086   9.369   6.031   8.829
 7621ETHO   H2359087   9.399   5.876   8.901
 7622ETHO    O159088   9.284   6.030   9.000
 7622ETHO    C159089   9.216   5.957   9.102
 7622ETHO   H1159090   9.125   5.911   9.057
 7622ETHO   H1359091   9.288   5.874   9.124
 7622ETHO    C259092   9.171   6.051   9.213
 7622ETHO   H2159093   9.087   5.993   9.258
 7622ETHO   H2359094   9.128   6.148   9.179
 7623ETHO    O159095   9.277   6.076   9.301
 7623ETHO    C159096   9.243   6.140   9.422
 7623ETHO   H1159097   9.163   6.080   9.472
 7623ETHO   H1359098   9.187   6.234   9.404
 7623ETHO    C259099   9.368   6.171   9.502
 7623ETHO   H2159100   9.347   6.242   9.584
 7623ETHO   H2359101   9.453   6.202   9.437
 7624ETHO    O159102   9.406   6.052   9.571
 7624ETHO    C159103   9.502   5.969   9.507
 7624ETHO   H1159104   9.469   5.864   9.518
 7624ETHO   H1359105   9.495   5.987   9.398
 7624ETHO    C259106   9.642   5.984   9.566
 7624ETHO   H2159107   9.704   5.895   9.544
 7624ETHO   H2359108   9.632   5.990   9.677
 7625ETHO    O159109   9.706   6.107   9.520
 7625ETHO    C159110   9.844   6.101   9.539
 7625ETHO   H1159111   9.900   6.043   9.463
 7625ETHO   H1359112   9.857   6.061   9.642
 7625ETHO    C259113   9.916   6.242   9.549
 7625ETHO   H2159114  10.019   6.223   9.586
 7625ETHO   H2359115   9.870   6.295   9.635
 7626ETHO    O159116   9.919   6.309   9.421
 7626ETHO    C159117   9.813   6.402   9.417
 7626ETHO   H1159118   9.721   6.340   9.406
 7626ETHO   H1359119   9.804   6.466   9.507
 7626ETHO    C259120   9.837   6.502   9.299
 7626ETHO   H2159121   9.849   6.449   9.202
 7626ETHO   H2359122   9.742   6.560   9.295
 7627ETHO    O159123   9.940   6.599   9.308
 7627ETHO    C159124   9.898   6.705   9.395
 7627ETHO   H1159125   9.865   6.660   9.491
 7627ETHO   H1359126   9.820   6.768   9.347
 7627ETHO    C259127  10.018   6.797   9.424
 7627ETHO   H2159128  10.114   6.742   9.426
 7627ETHO   H2359129  10.017   6.842   9.525
 7628ETHO    O159130  10.037   6.896   9.322
 7628ETHO    C159131  10.123   6.997   9.363
 7628ETHO   H1159132  10.130   7.072   9.282
 7628ETHO   H1359133  10.076   7.048   9.450
 7628ETHO    C259134  10.272   6.966   9.401
 7628ETHO   H2159135  10.287   6.884   9.475
 7628ETHO   H2359136  10.328   7.052   9.446
 7629ETHO    O159137  10.336   6.925   9.282
 7629ETHO    C159138  10.477   6.914   9.290
 7629ETHO   H1159139  10.511   6.855   9.378
 7629ETHO   H1359140  10.512   7.018   9.303
 7629ETHO    C259141  10.527   6.851   9.154
 7629ETHO   H2159142  10.637   6.869   9.154
 7629ETHO   H2359143  10.495   6.915   9.069
 7630ETHO    O159144  10.510   6.713   9.145
 7630ETHO    C159145  10.607   6.642   9.074
 7630ETHO   H1159146  10.640   6.710   8.993
 7630ETHO   H1359147  10.695   6.634   9.142
 7630ETHO    C259148  10.568   6.502   9.026
 7630ETHO   H2159149  10.503   6.448   9.098
 7630ETHO   H2359150  10.658   6.443   9.001
 7631ETHO    O159151  10.482   6.504   8.908
 7631ETHO    C159152  10.415   6.380   8.891
 7631ETHO   H1159153  10.435   6.346   8.787
 7631ETHO   H1359154  10.458   6.301   8.955
 7631ETHO    C259155  10.266   6.384   8.906
 7631ETHO   H2159156  10.237   6.441   8.997
 7631ETHO   H2359157  10.223   6.282   8.914
 7632ETHO    O159158  10.207   6.445   8.794
 7632ETHO    C159159  10.066   6.425   8.794
 7632ETHO   H1159160  10.027   6.413   8.897
 7632ETHO   H1359161  10.027   6.519   8.751
 7632ETHO    C259162  10.024   6.305   8.716
 7632ETHO   H2159163  10.090   6.309   8.626
 7632ETHO   H2359164   9.919   6.304   8.681
 7633ETHO    O159165  10.046   6.178   8.783
 7633ETHO    C159166  10.095   6.080   8.692
 7633ETHO   H1159167  10.154   6.117   8.605
 7633ETHO   H1359168  10.158   6.007   8.746
 7633ETHO    C259169   9.970   5.999   8.635
 7633ETHO   H2159170   9.885   5.996   8.707
 7633ETHO   H2359171  10.019   5.901   8.613
 7634ETHO    O159172   9.930   6.046   8.506
 7634ETHO    C159173   9.802   5.985   8.478
 7634ETHO   H1159174   9.768   6.051   8.395
 7634ETHO   H1359175   9.723   5.996   8.555
 7634ETHO    C259176   9.819   5.838   8.429
 7634ETHO   H2159177   9.902   5.839   8.356
 7634ETHO   H2359178   9.730   5.804   8.371
 7635ETHO    O159179   9.837   5.748   8.539
 7635ETHO    C159180   9.819   5.614   8.486
 7635ETHO   H1159181   9.710   5.594   8.498
 7635ETHO   H1359182   9.843   5.604   8.378
 7635ETHO    C259183   9.896   5.507   8.563
 7635ETHO   H2159184  10.002   5.539   8.576
 7635ETHO   H2359185   9.885   5.404   8.524
 7636ETHO    O159186   9.842   5.503   8.691
 7636ETHO    C159187   9.910   5.412   8.767
 7636ETHO   H1159188  10.021   5.413   8.753
 7636ETHO   H1359189   9.882   5.310   8.732
 7636ETHO    C259190   9.871   5.423   8.914
 7636ETHO   H2159191   9.892   5.325   8.962
 7636ETHO   H2359192   9.761   5.430   8.932
 7637ETHO    O159193   9.947   5.524   8.977
 7637ETHO    C159194   9.908   5.533   9.116
 7637ETHO   H1159195   9.804   5.568   9.133
 7637ETHO   H1359196   9.916   5.434   9.166
 7637ETHO    C259197  10.006   5.644   9.174
 7637ETHO   H2159198  10.112   5.611   9.168
 7637ETHO   H2359199   9.986   5.657   9.283
 7638ETHO    O159200   9.991   5.773   9.103
 7638ETHO    C159201  10.063   5.873   9.168
 7638ETHO   H1159202  10.171   5.855   9.148
 7638ETHO   H1359203  10.048   5.873   9.278
 7638ETHO    C259204  10.028   5.999   9.097
 7638ETHO   H2159205  10.011   5.986   8.988
 7638ETHO   H2359206  10.112   6.071   9.111
 7639ETHO    O159207   9.909   6.046   9.158
 7639ETHO    C159208   9.852   6.156   9.089
 7639ETHO   H1159209   9.787   6.207   9.163
 7639ETHO   H1359210   9.929   6.217   9.037
 7639ETHO    C259211   9.765   6.105   8.970
 7639ETHO   H2159212   9.672   6.053   9.002
 7639ETHO   H2359213   9.819   6.034   8.904
 7640ETHO    O159214   9.736   6.210   8.883
 7640ETHO    C159215   9.631   6.169   8.792
 7640ETHO   H1159216   9.533   6.141   8.837
 7640ETHO   H1359217   9.653   6.091   8.717
 7640ETHO    C259218   9.593   6.299   8.716
 7640ETHO   H2159219   9.530   6.271   8.629
 7640ETHO   H2359220   9.691   6.341   8.683
 7641ETHO    O159221   9.523   6.389   8.801
 7641ETHO    C159222   9.514   6.518   8.743
 7641ETHO   H1159223   9.617   6.551   8.714
 7641ETHO   H1359224   9.454   6.515   8.650
 7641ETHO    C259225   9.465   6.625   8.843
 7641ETHO   H2159226   9.373   6.591   8.895
 7641ETHO   H2359227   9.426   6.716   8.792
 7642ETHO    O159228   9.571   6.658   8.935
 7642ETHO    C159229   9.552   6.791   8.993
 7642ETHO   H1159230   9.519   6.858   8.911
 7642ETHO   H1359231   9.459   6.771   9.052
 7642ETHO    C259232   9.669   6.835   9.082
 7642ETHO   H2159233   9.755   6.820   9.013
 7642ETHO   H2359234   9.692   6.783   9.178
 7643ETHO    O159235   9.654   6.976   9.103
 7643ETHO    C159236   9.770   7.039   9.164
 7643ETHO   H1159237   9.801   6.973   9.248
 7643ETHO   H1359238   9.850   7.048   9.088
 7643ETHO    C259239   9.739   7.176   9.222
 7643ETHO   H2159240   9.837   7.220   9.251
 7643ETHO   H2359241   9.678   7.155   9.313
 7644ETHO    O159242   9.689   7.260   9.123
 7644ETHO    C159243   9.607   7.361   9.174
 7644ETHO   H1159244   9.532   7.320   9.245
 7644ETHO   H1359245   9.666   7.426   9.241
 7644ETHO    C259246   9.523   7.437   9.065
 7644ETHO   H2159247   9.596   7.479   8.993
 7644ETHO   H2359248   9.474   7.528   9.106
 7645ETHO    O159249   9.426   7.352   9.004
 7645ETHO    C159250   9.368   7.405   8.880
 7645ETHO   H1159251   9.365   7.516   8.892
 7645ETHO   H1359252   9.269   7.356   8.869
 7645ETHO    C259253   9.464   7.362   8.763
 7645ETHO   H2159254   9.571   7.374   8.788
 7645ETHO   H2359255   9.438   7.428   8.677
 7646ETHO    O159256   9.443   7.227   8.722
 7646ETHO    C159257   9.530   7.195   8.622
 7646ETHO   H1159258   9.545   7.281   8.552
 7646ETHO   H1359259   9.626   7.167   8.670
 7646ETHO    C259260   9.496   7.072   8.533
 7646ETHO   H2159261   9.548   7.073   8.435
 7646ETHO   H2359262   9.385   7.073   8.521
 7647ETHO    O159263   9.516   6.947   8.599
 7647ETHO    C159264   9.638   6.884   8.549
 7647ETHO   H1159265   9.678   6.817   8.628
 7647ETHO   H1359266   9.714   6.964   8.540
 7647ETHO    C259267   9.621   6.791   8.428
 7647ETHO   H2159268   9.648   6.839   8.332
 7647ETHO   H2359269   9.512   6.768   8.418
 7648ETHO    O159270   9.704   6.681   8.450
 7648ETHO    C159271   9.677   6.583   8.358
 7648ETHO   H1159272   9.578   6.592   8.308
 7648ETHO   H1359273   9.750   6.599   8.277
 7648ETHO    C259274   9.689   6.444   8.410
 7648ETHO   H2159275   9.587   6.401   8.421
 7648ETHO   H2359276   9.736   6.434   8.510
 7649ETHO    O159277   9.768   6.371   8.319
 7649ETHO    C159278   9.703   6.347   8.195
 7649ETHO   H1159279   9.639   6.434   8.169
 7649ETHO   H1359280   9.639   6.257   8.207
 7649ETHO    C259281   9.792   6.338   8.074
 7649ETHO   H2159282   9.878   6.408   8.074
 7649ETHO   H2359283   9.723   6.364   7.991
 7650ETHO    O159284   9.825   6.203   8.076
 7650ETHO    C159285   9.950   6.179   8.013
 7650ETHO   H1159286   9.941   6.187   7.902
 7650ETHO   H1359287  10.026   6.257   8.037
 7650ETHO    C259288  10.014   6.035   8.018
 7650ETHO   H2159289  10.048   6.001   8.118
 7650ETHO   H2359290  10.106   6.052   7.956
 7651ETHO    O159291   9.918   5.940   7.969
 7651ETHO    C159292   9.967   5.803   7.962
 7651ETHO   H1159293  10.008   5.769   8.060
 7651ETHO   H1359294  10.047   5.790   7.886
 7651ETHO    C259295   9.847   5.710   7.935
 7651ETHO   H2159296   9.752   5.740   7.983
 7651ETHO   H2359297   9.868   5.614   7.987
 7652ETHO    O159298   9.819   5.693   7.800
 7652ETHO    C159299   9.884   5.568   7.750
 7652ETHO   H1159300   9.915   5.590   7.645
 7652ETHO   H1359301   9.975   5.532   7.802
 7652ETHO    C259302   9.781   5.449   7.746
 7652ETHO   H2159303   9.678   5.474   7.713
 7652ETHO   H2359304   9.755   5.419   7.849
 7653ETHO    O159305   9.820   5.332   7.673
 7653ETHO    C159306   9.785   5.342   7.537
 7653ETHO   H1159307   9.674   5.350   7.527
 7653ETHO   H1359308   9.821   5.440   7.499
 7653ETHO    C259309   9.842   5.213   7.469
 7653ETHO   H2159310   9.947   5.207   7.505
 7653ETHO   H2359311   9.839   5.231   7.360
 7654ETHO    O159312   9.770   5.096   7.502
 7654ETHO    C159313   9.848   4.978   7.487
 7654ETHO   H1159314   9.956   4.987   7.464
 7654ETHO   H1359315   9.841   4.940   7.591
 7654ETHO    C259316   9.782   4.881   7.389
 7654ETHO   H2159317   9.674   4.872   7.416
 7654ETHO   H2359318   9.820   4.777   7.387
 7655ETHO    O159319   9.812   4.923   7.255
 7655ETHO    C159320   9.716   5.009   7.192
 7655ETHO   H1159321   9.617   4.959   7.195
 7655ETHO   H1359322   9.713   5.110   7.240
 7655ETHO    C259323   9.749   5.031   7.043
 7655ETHO   H2159324   9.851   5.073   7.035
 7655ETHO   H2359325   9.677   5.105   7.000
 7656ETHO    O159326   9.733   4.907   6.980
 7656ETHO    C159327   9.738   4.912   6.839
 7656ETHO   H1159328   9.830   4.966   6.806
 7656ETHO   H1359329   9.655   4.981   6.813
 7656ETHO    C259330   9.710   4.771   6.787
 7656ETHO   H2159331   9.675   4.762   6.682
 7656ETHO   H2359332   9.628   4.736   6.854
 7657ETHO    O159333   9.819   4.684   6.794
 7657ETHO    C159334   9.920   4.719   6.708
 7657ETHO   H1159335   9.885   4.718   6.602
 7657ETHO   H1359336   9.957   4.818   6.742
 7657ETHO    C259337  10.036   4.623   6.714
 7657ETHO   H2159338  10.072   4.614   6.819
 7657ETHO   H2359339  10.126   4.673   6.672
 7658ETHO    O159340  10.039   4.492   6.654
 7658ETHO    C159341  10.034   4.493   6.512
 7658ETHO   H1159342  10.072   4.590   6.472
 7658ETHO   H1359343   9.934   4.465   6.473
 7658ETHO    C259344  10.137   4.392   6.462
 7658ETHO   H2159345  10.222   4.409   6.532
 7658ETHO   H2359346  10.179   4.416   6.362
 7659ETHO    O159347  10.104   4.256   6.474
 7659ETHO    C159348  10.214   4.171   6.444
 7659ETHO   H1159349  10.285   4.207   6.367
 7659ETHO   H1359350  10.275   4.151   6.535
 7659ETHO    C259351  10.153   4.034   6.403
 7659ETHO   H2159352  10.228   3.952   6.395
 7659ETHO   H2359353  10.073   4.007   6.475
 7660ETHO    O159354  10.096   4.039   6.271
 7660ETHO    C159355  10.004   3.929   6.255
 7660ETHO   H1159356   9.930   3.922   6.337
 7660ETHO   H1359357  10.048   3.827   6.245
 7660ETHO    C259358   9.919   3.969   6.131
 7660ETHO   H2159359   9.878   4.071   6.145
 7660ETHO   H2359360   9.830   3.902   6.134
 7661ETHO    O159361   9.989   3.945   6.012
 7661ETHO    C159362   9.927   3.988   5.894
 7661ETHO   H1159363   9.824   3.947   5.886
 7661ETHO   H1359364   9.918   4.098   5.901
 7661ETHO    C259365   9.997   3.941   5.768
 7661ETHO   H2159366  10.107   3.952   5.779
 7661ETHO   H2359367   9.952   3.992   5.680
 7662ETHO    O159368   9.972   3.800   5.755
 7662ETHO    C159369  10.017   3.767   5.623
 7662ETHO   H1159370  10.121   3.805   5.619
 7662ETHO   H1359371   9.959   3.827   5.550
 7662ETHO    C259372  10.004   3.622   5.583
 7662ETHO   H2159373  10.064   3.568   5.659
 7662ETHO   H2359374  10.049   3.608   5.482
 7663ETHO    O159375   9.874   3.574   5.586
 7663ETHO    C159376   9.875   3.433   5.601
 7663ETHO   H1159377   9.941   3.401   5.685
 7663ETHO   H1359378   9.769   3.417   5.628
 7663ETHO    C259379   9.910   3.353   5.473
 7663ETHO   H2159380  10.019   3.360   5.453
 7663ETHO   H2359381   9.846   3.396   5.393
 7664ETHO    O159382   9.857   3.216   5.476
 7664ETHO    C159383   9.942   3.128   5.545
 7664ETHO   H1159384   9.937   3.154   5.653
 7664ETHO   H1359385  10.041   3.122   5.495
 7664ETHO    C259386   9.882   2.988   5.549
 7664ETHO   H2159387   9.776   2.999   5.582
 7664ETHO   H2359388   9.934   2.938   5.634
 7665ETHO    O159389   9.889   2.909   5.436
 7665ETHO    C159390   9.856   2.775   5.473
 7665ETHO   H1159391   9.879   2.715   5.382
 7665ETHO   H1359392   9.917   2.736   5.557
 7665ETHO    C259393   9.705   2.764   5.483
 7665ETHO   H2159394   9.680   2.656   5.468
 7665ETHO   H2359395   9.658   2.822   5.401
 7666ETHO    O159396   9.651   2.814   5.612
 7666ETHO    C159397   9.523   2.868   5.601
 7666ETHO   H1159398   9.452   2.793   5.558
 7666ETHO   H1359399   9.523   2.956   5.533
 7666ETHO    C259400   9.475   2.885   5.742
 7666ETHO   H2159401   9.539   2.960   5.794
 7666ETHO   H2359402   9.473   2.785   5.789
 7667ETHO    O159403   9.343   2.941   5.743
 7667ETHO    C159404   9.295   2.943   5.877
 7667ETHO   H1159405   9.305   2.843   5.924
 7667ETHO   H1359406   9.364   3.007   5.936
 7667ETHO    C259407   9.151   2.991   5.889
 7667ETHO   H2159408   9.132   3.008   5.997
 7667ETHO   H2359409   9.142   3.092   5.843
 7668ETHO    O159410   9.064   2.900   5.821
 7668ETHO    C159411   8.932   2.943   5.836
 7668ETHO   H1159412   8.916   2.945   5.946
 7668ETHO   H1359413   8.910   3.039   5.785
 7668ETHO    C259414   8.832   2.838   5.784
 7668ETHO   H2159415   8.871   2.793   5.690
 7668ETHO   H2359416   8.729   2.877   5.769
 7669ETHO    O159417   8.812   2.732   5.885
 7669ETHO    C159418   8.915   2.631   5.885
 7669ETHO   H1159419   8.917   2.576   5.789
 7669ETHO   H1359420   9.015   2.680   5.888
 7669ETHO    C259421   8.894   2.548   6.000
 7669ETHO   H2159422   8.971   2.467   6.005
 7669ETHO   H2359423   8.797   2.498   5.981
 7670ETHO    O159424   8.905   2.624   6.119
 7670ETHO    C159425   8.833   2.559   6.221
 7670ETHO   H1159426   8.727   2.556   6.188
 7670ETHO   H1359427   8.871   2.454   6.225
 7670ETHO    C259428   8.854   2.643   6.350
 7670ETHO   H2159429   8.962   2.642   6.375
 7670ETHO   H2359430   8.817   2.595   6.443
 7671ETHO    O159431   8.809   2.776   6.340
 7671ETHO    C159432   8.822   2.844   6.466
 7671ETHO   H1159433   8.867   2.774   6.540
 7671ETHO   H1359434   8.722   2.860   6.511
 7671ETHO    C259435   8.887   2.984   6.455
 7671ETHO   H2159436   8.843   3.045   6.537
 7671ETHO   H2359437   8.862   3.035   6.359
 7672ETHO    O159438   9.029   2.967   6.463
 7672ETHO    C159439   9.083   3.101   6.449
 7672ETHO   H1159440   9.188   3.077   6.420
 7672ETHO   H1359441   9.030   3.150   6.364
 7672ETHO    C259442   9.089   3.198   6.570
 7672ETHO   H2159443   9.164   3.276   6.547
 7672ETHO   H2359444   9.120   3.146   6.663
 7673ETHO    O159445   8.964   3.271   6.583
 7673ETHO    C159446   8.962   3.362   6.693
 7673ETHO   H1159447   9.042   3.436   6.673
 7673ETHO   H1359448   8.986   3.310   6.789
 7673ETHO    C259449   8.823   3.414   6.703
 7673ETHO   H2159450   8.818   3.444   6.809
 7673ETHO   H2359451   8.746   3.337   6.681
 7674ETHO    O159452   8.793   3.532   6.633
 7674ETHO    C159453   8.758   3.505   6.497
 7674ETHO   H1159454   8.820   3.422   6.455
 7674ETHO   H1359455   8.656   3.466   6.516
 7674ETHO    C259456   8.770   3.618   6.394
 7674ETHO   H2159457   8.700   3.699   6.425
 7674ETHO   H2359458   8.729   3.571   6.303
 7675ETHO    O159459   8.904   3.663   6.377
 7675ETHO    C159460   8.916   3.757   6.271
 7675ETHO   H1159461   8.836   3.833   6.280
 7675ETHO   H1359462   8.907   3.713   6.170
 7675ETHO    C259463   9.041   3.844   6.289
 7675ETHO   H2159464   9.043   3.885   6.392
 7675ETHO   H2359465   9.037   3.926   6.214
 7676ETHO    O159466   9.162   3.769   6.273
 7676ETHO    C159467   9.281   3.838   6.314
 7676ETHO   H1159468   9.281   3.934   6.258
 7676ETHO   H1359469   9.282   3.873   6.420
 7676ETHO    C259470   9.403   3.755   6.279
 7676ETHO   H2159471   9.404   3.665   6.345
 7676ETHO   H2359472   9.493   3.818   6.299
 7677ETHO    O159473   9.422   3.724   6.139
 7677ETHO    C159474   9.538   3.649   6.119
 7677ETHO   H1159475   9.528   3.559   6.183
 7677ETHO   H1359476   9.629   3.701   6.156
 7677ETHO    C259477   9.551   3.620   5.972
 7677ETHO   H2159478   9.455   3.589   5.926
 7677ETHO   H2359479   9.627   3.540   5.961
 7678ETHO    O159480   9.614   3.729   5.900
 7678ETHO    C159481   9.587   3.724   5.759
 7678ETHO   H1159482   9.656   3.647   5.720
 7678ETHO   H1359483   9.480   3.702   5.739
 7678ETHO    C259484   9.617   3.847   5.670
 7678ETHO   H2159485   9.605   3.816   5.564
 7678ETHO   H2359486   9.722   3.881   5.689
 7679ETHO    O159487   9.523   3.949   5.699
 7679ETHO    C159488   9.564   4.076   5.639
 7679ETHO   H1159489   9.511   4.165   5.678
 7679ETHO   H1359490   9.675   4.087   5.649
 7679ETHO    C259491   9.534   4.076   5.488
 7679ETHO   H2159492   9.539   4.184   5.463
 7679ETHO   H2359493   9.433   4.037   5.466
 7680ETHO    O159494   9.632   4.007   5.414
 7680ETHO    C159495   9.673   4.089   5.309
 7680ETHO   H1159496   9.584   4.128   5.255
 7680ETHO   H1359497   9.743   4.164   5.354
 7680ETHO    C259498   9.763   4.016   5.213
 7680ETHO   H2159499   9.709   3.924   5.182
 7680ETHO   H2359500   9.855   3.990   5.270
 7681ETHO    O159501   9.793   4.097   5.104
 7681ETHO    C159502   9.886   4.035   5.016
 7681ETHO   H1159503   9.896   3.924   5.015
 7681ETHO   H1359504   9.844   4.059   4.917
 7681ETHO    C259505  10.026   4.084   5.025
 7681ETHO   H2159506  10.091   4.030   4.953
 7681ETHO   H2359507  10.063   4.059   5.127
 7682ETHO    O159508  10.042   4.224   5.009
 7682ETHO    C159509  10.169   4.273   5.044
 7682ETHO   H1159510  10.231   4.225   4.966
 7682ETHO   H1359511  10.200   4.226   5.139
 7682ETHO    C259512  10.203   4.417   5.057
 7682ETHO   H2159513  10.166   4.469   4.967
 7682ETHO   H2359514  10.314   4.427   5.065
 7683ETHO    O159515  10.139   4.473   5.173
 7683ETHO    C159516  10.167   4.608   5.192
 7683ETHO   H1159517  10.109   4.674   5.123
 7683ETHO   H1359518  10.272   4.634   5.165
 7683ETHO    C259519  10.140   4.663   5.332
 7683ETHO   H2159520  10.212   4.748   5.333
 7683ETHO   H2359521  10.182   4.596   5.410
 7684ETHO    O159522  10.013   4.702   5.362
 7684ETHO    C159523   9.943   4.617   5.451
 7684ETHO   H1159524  10.018   4.574   5.520
 7684ETHO   H1359525   9.900   4.532   5.393
 7684ETHO    C259526   9.832   4.690   5.524
 7684ETHO   H2159527   9.806   4.636   5.617
 7684ETHO   H2359528   9.748   4.710   5.454
 7685ETHO    O159529   9.874   4.817   5.571
 7685ETHO    C159530   9.762   4.894   5.610
 7685ETHO   H1159531   9.690   4.917   5.528
 7685ETHO   H1359532   9.706   4.843   5.692
 7685ETHO    C259533   9.814   5.028   5.663
 7685ETHO   H2159534   9.731   5.102   5.673
 7685ETHO   H2359535   9.889   5.084   5.604
 7685ETHO    OZ59536   9.867   5.007   5.792
 7685ETHO   HZ159537   9.861   5.092   5.837
 7686ETHO    O159538  21.426   6.429  14.957
 7686ETHO   HO159539  21.460   6.498  14.899
 7686ETHO    C159540  21.291   6.412  14.900
 7686ETHO   H1159541  21.251   6.310  14.920
 7686ETHO   H1359542  21.292   6.428  14.790
 7686ETHO    C259543  21.203   6.507  14.980
 7686ETHO   H2159544  21.227   6.507  15.088
 7686ETHO   H2359545  21.101   6.463  14.965
 7687ETHO    O159546  21.224   6.638  14.929
 7687ETHO    C159547  21.106   6.689  14.863
 7687ETHO   H1159548  21.140   6.769  14.794
 7687ETHO   H1359549  21.057   6.619  14.792
 7687ETHO    C259550  20.998   6.755  14.951
 7687ETHO   H2159551  20.927   6.817  14.892
 7687ETHO   H2359552  21.053   6.828  15.014
 7688ETHO    O159553  20.925   6.655  15.016
 7688ETHO    C159554  20.809   6.698  15.086
 7688ETHO   H1159555  20.734   6.733  15.011
 7688ETHO   H1359556  20.831   6.771  15.166
 7688ETHO    C259557  20.752   6.571  15.161
 7688ETHO   H2159558  20.759   6.480  15.098
 7688ETHO   H2359559  20.647   6.590  15.194
 7689ETHO    O159560  20.830   6.557  15.279
 7689ETHO    C159561  20.805   6.433  15.350
 7689ETHO   H1159562  20.695   6.425  15.363
 7689ETHO   H1359563  20.851   6.338  15.315
 7689ETHO    C259564  20.849   6.460  15.498
 7689ETHO   H2159565  20.950   6.506  15.498
 7689ETHO   H2359566  20.845   6.365  15.557
 7690ETHO    O159567  20.749   6.543  15.555
 7690ETHO    C159568  20.747   6.558  15.692
 7690ETHO   H1159569  20.761   6.463  15.747
 7690ETHO   H1359570  20.844   6.610  15.710
 7690ETHO    C259571  20.640   6.639  15.771
 7690ETHO   H2159572  20.637   6.745  15.739
 7690ETHO   H2359573  20.658   6.645  15.880
 7691ETHO    O159574  20.505   6.589  15.744
 7691ETHO    C159575  20.472   6.478  15.817
 7691ETHO   H1159576  20.541   6.391  15.811
 7691ETHO   H1359577  20.481   6.517  15.921
 7691ETHO    C259578  20.324   6.435  15.796
 7691ETHO   H2159579  20.264   6.527  15.815
 7691ETHO   H2359580  20.302   6.357  15.872
 7692ETHO    O159581  20.310   6.398  15.655
 7692ETHO    C159582  20.169   6.403  15.621
 7692ETHO   H1159583  20.125   6.498  15.659
 7692ETHO   H1359584  20.150   6.400  15.511
 7692ETHO    C259585  20.086   6.292  15.689
 7692ETHO   H2159586  20.088   6.316  15.797
 7692ETHO   H2359587  20.121   6.190  15.662
 7693ETHO    O159588  19.951   6.324  15.649
 7693ETHO    C159589  19.858   6.246  15.729
 7693ETHO   H1159590  19.874   6.236  15.839
 7693ETHO   H1359591  19.880   6.143  15.693
 7693ETHO    C259592  19.713   6.281  15.701
 7693ETHO   H2159593  19.648   6.195  15.727
 7693ETHO   H2359594  19.712   6.299  15.592
 7694ETHO    O159595  19.677   6.393  15.774
 7694ETHO    C159596  19.542   6.442  15.746
 7694ETHO   H1159597  19.552   6.483  15.643
 7694ETHO   H1359598  19.470   6.364  15.714
 7694ETHO    C259599  19.486   6.530  15.859
 7694ETHO   H2159600  19.394   6.575  15.816
 7694ETHO   H2359601  19.556   6.612  15.887
 7695ETHO    O159602  19.460   6.452  15.971
 7695ETHO    C159603  19.401   6.529  16.075
 7695ETHO   H1159604  19.453   6.627  16.079
 7695ETHO   H1359605  19.411   6.477  16.173
 7695ETHO    C259606  19.255   6.552  16.060
 7695ETHO   H2159607  19.228   6.588  15.959
 7695ETHO   H2359608  19.228   6.628  16.137
 7696ETHO    O159609  19.190   6.429  16.081
 7696ETHO    C159610  19.140   6.421  16.213
 7696ETHO   H1159611  19.220   6.396  16.285
 7696ETHO   H1359612  19.100   6.516  16.252
 7696ETHO    C259613  19.044   6.301  16.204
 7696ETHO   H2159614  18.959   6.319  16.134
 7696ETHO   H2359615  19.100   6.214  16.163
 7697ETHO    O159616  18.987   6.274  16.330
 7697ETHO    C159617  18.877   6.185  16.313
 7697ETHO   H1159618  18.912   6.082  16.292
 7697ETHO   H1359619  18.828   6.210  16.217
 7697ETHO    C259620  18.781   6.198  16.433
 7697ETHO   H2159621  18.675   6.190  16.401
 7697ETHO   H2359622  18.781   6.303  16.467
 7698ETHO    O159623  18.800   6.112  16.548
 7698ETHO    C159624  18.859   6.178  16.669
 7698ETHO   H1159625  18.942   6.251  16.662
 7698ETHO   H1359626  18.786   6.241  16.724
 7698ETHO    C259627  18.908   6.074  16.764
 7698ETHO   H2159628  18.941   6.119  16.860
 7698ETHO   H2359629  18.997   6.026  16.718
 7699ETHO    O159630  18.807   5.976  16.792
 7699ETHO    C159631  18.846   5.889  16.894
 7699ETHO   H1159632  18.894   5.944  16.977
 7699ETHO   H1359633  18.909   5.807  16.853
 7699ETHO    C259634  18.714   5.814  16.943
 7699ETHO   H2159635  18.638   5.892  16.966
 7699ETHO   H2359636  18.723   5.763  17.041
 7700ETHO    O159637  18.664   5.731  16.836
 7700ETHO    C159638  18.543   5.664  16.871
 7700ETHO   H1159639  18.526   5.599  16.782
 7700ETHO   H1359640  18.569   5.596  16.955
 7700ETHO    C259641  18.420   5.748  16.887
 7700ETHO   H2159642  18.411   5.817  16.800
 7700ETHO   H2359643  18.330   5.683  16.888
 7701ETHO    O159644  18.407   5.834  16.999
 7701ETHO    C159645  18.367   5.757  17.114
 7701ETHO   H1159646  18.302   5.672  17.083
 7701ETHO   H1359647  18.459   5.708  17.152
 7701ETHO    C259648  18.299   5.845  17.224
 7701ETHO   H2159649  18.375   5.924  17.243
 7701ETHO   H2359650  18.286   5.784  17.316
 7702ETHO    O159651  18.175   5.895  17.182
 7702ETHO    C159652  18.116   5.962  17.292
 7702ETHO   H1159653  18.105   5.895  17.380
 7702ETHO   H1359654  18.185   6.042  17.328
 7702ETHO    C259655  17.974   6.012  17.255
 7702ETHO   H2159656  17.964   6.045  17.150
 7702ETHO   H2359657  17.938   6.094  17.321
 7703ETHO    O159658  17.874   5.911  17.283
 7703ETHO    C159659  17.890   5.799  17.193
 7703ETHO   H1159660  17.911   5.842  17.092
 7703ETHO   H1359661  17.980   5.736  17.211
 7703ETHO    C259662  17.765   5.704  17.202
 7703ETHO   H2159663  17.762   5.646  17.107
 7703ETHO   H2359664  17.672   5.764  17.207
 7704ETHO    O159665  17.773   5.638  17.328
 7704ETHO    C159666  17.700   5.518  17.327
 7704ETHO   H1159667  17.727   5.463  17.235
 7704ETHO   H1359668  17.589   5.529  17.327
 7704ETHO    C259669  17.728   5.436  17.454
 7704ETHO   H2159670  17.669   5.488  17.532
 7704ETHO   H2359671  17.833   5.426  17.489
 7705ETHO    O159672  17.684   5.306  17.433
 7705ETHO    C159673  17.661   5.237  17.555
 7705ETHO   H1159674  17.759   5.235  17.608
 7705ETHO   H1359675  17.596   5.295  17.624
 7705ETHO    C259676  17.614   5.103  17.526
 7705ETHO   H2159677  17.646   5.031  17.605
 7705ETHO   H2359678  17.670   5.067  17.437
 7706ETHO    O159679  17.476   5.108  17.511
 7706ETHO    C159680  17.419   4.999  17.441
 7706ETHO   H1159681  17.313   4.987  17.471
 7706ETHO   H1359682  17.477   4.914  17.483
 7706ETHO    C259683  17.445   5.001  17.291
 7706ETHO   H2159684  17.427   4.902  17.244
 7706ETHO   H2359685  17.551   5.029  17.273
 7707ETHO    O159686  17.372   5.103  17.230
 7707ETHO    C159687  17.422   5.232  17.254
 7707ETHO   H1159688  17.379   5.282  17.343
 7707ETHO   H1359689  17.533   5.231  17.256
 7707ETHO    C259690  17.375   5.315  17.124
 7707ETHO   H2159691  17.402   5.421  17.139
 7707ETHO   H2359692  17.417   5.273  17.030
 7708ETHO    O159693  17.236   5.310  17.130
 7708ETHO    C159694  17.178   5.371  17.011
 7708ETHO   H1159695  17.240   5.345  16.923
 7708ETHO   H1359696  17.198   5.480  17.015
 7708ETHO    C259697  17.034   5.340  16.982
 7708ETHO   H2159698  17.001   5.415  16.907
 7708ETHO   H2359699  16.970   5.340  17.072
 7709ETHO    O159700  17.033   5.209  16.924
 7709ETHO    C159701  16.902   5.150  16.936
 7709ETHO   H1159702  16.879   5.156  17.045
 7709ETHO   H1359703  16.829   5.212  16.880
 7709ETHO    C259704  16.910   5.007  16.880
 7709ETHO   H2159705  16.959   5.009  16.781
 7709ETHO   H2359706  16.811   4.957  16.866
 7710ETHO    O159707  16.995   4.928  16.965
 7710ETHO    C159708  17.032   4.806  16.905
 7710ETHO   H1159709  17.032   4.811  16.794
 7710ETHO   H1359710  16.967   4.727  16.948
 7710ETHO    C259711  17.179   4.764  16.944
 7710ETHO   H2159712  17.168   4.653  16.942
 7710ETHO   H2359713  17.212   4.793  17.046
 7711ETHO    O159714  17.277   4.814  16.852
 7711ETHO    C159715  17.298   4.948  16.891
 7711ETHO   H1159716  17.207   5.011  16.893
 7711ETHO   H1359717  17.348   4.947  16.990
 7711ETHO    C259718  17.374   5.025  16.777
 7711ETHO   H2159719  17.469   4.969  16.757
 7711ETHO   H2359720  17.396   5.126  16.817
 7712ETHO    O159721  17.304   5.044  16.656
 7712ETHO    C159722  17.383   5.079  16.544
 7712ETHO   H1159723  17.463   5.004  16.524
 7712ETHO   H1359724  17.437   5.172  16.571
 7712ETHO    C259725  17.297   5.098  16.423
 7712ETHO   H2159726  17.335   5.181  16.359
 7712ETHO   H2359727  17.206   5.153  16.456
 7713ETHO    O159728  17.276   4.980  16.355
 7713ETHO    C159729  17.216   5.002  16.228
 7713ETHO   H1159730  17.141   5.085  16.223
 7713ETHO   H1359731  17.299   5.042  16.166
 7713ETHO    C259732  17.155   4.870  16.179
 7713ETHO   H2159733  17.124   4.875  16.072
 7713ETHO   H2359734  17.066   4.842  16.239
 7714ETHO    O159735  17.257   4.773  16.185
 7714ETHO    C159736  17.211   4.656  16.250
 7714ETHO   H1159737  17.105   4.641  16.218
 7714ETHO   H1359738  17.210   4.679  16.358
 7714ETHO    C259739  17.284   4.528  16.221
 7714ETHO   H2159740  17.252   4.448  16.290
 7714ETHO   H2359741  17.393   4.545  16.236
 7715ETHO    O159742  17.260   4.482  16.083
 7715ETHO    C159743  17.312   4.354  16.064
 7715ETHO   H1159744  17.422   4.367  16.067
 7715ETHO   H1359745  17.272   4.296  16.151
 7715ETHO    C259746  17.270   4.290  15.923
 7715ETHO   H2159747  17.325   4.194  15.916
 7715ETHO   H2359748  17.298   4.366  15.848
 7716ETHO    O159749  17.131   4.243  15.919
 7716ETHO    C159750  17.037   4.350  15.922
 7716ETHO   H1159751  17.041   4.401  16.020
 7716ETHO   H1359752  17.050   4.423  15.840
 7716ETHO    C259753  16.888   4.304  15.904
 7716ETHO   H2159754  16.878   4.244  15.811
 7716ETHO   H2359755  16.813   4.386  15.898
 7717ETHO    O159756  16.840   4.229  16.017
 7717ETHO    C159757  16.717   4.168  15.995
 7717ETHO   H1159758  16.641   4.230  15.944
 7717ETHO   H1359759  16.740   4.075  15.937
 7717ETHO    C259760  16.651   4.121  16.129
 7717ETHO   H2159761  16.726   4.060  16.182
 7717ETHO   H2359762  16.563   4.056  16.111
 7718ETHO    O159763  16.609   4.225  16.218
 7718ETHO    C159764  16.520   4.172  16.318
 7718ETHO   H1159765  16.415   4.162  16.281
 7718ETHO   H1359766  16.554   4.071  16.349
 7718ETHO    C259767  16.505   4.273  16.436
 7718ETHO   H2159768  16.407   4.253  16.484
 7718ETHO   H2359769  16.500   4.380  16.407
 7719ETHO    O159770  16.622   4.259  16.522
 7719ETHO    C159771  16.581   4.280  16.658
 7719ETHO   H1159772  16.521   4.197  16.702
 7719ETHO   H1359773  16.523   4.375  16.660
 7719ETHO    C259774  16.705   4.300  16.735
 7719ETHO   H2159775  16.677   4.343  16.834
 7719ETHO   H2359776  16.780   4.369  16.691
 7720ETHO    O159777  16.764   4.168  16.758
 7720ETHO    C159778  16.874   4.184  16.845
 7720ETHO   H1159779  16.964   4.220  16.792
 7720ETHO   H1359780  16.852   4.260  16.923
 7720ETHO    C259781  16.906   4.046  16.911
 7720ETHO   H2159782  16.993   4.067  16.976
 7720ETHO   H2359783  16.941   3.980  16.829
 7721ETHO    O159784  16.793   3.995  16.982
 7721ETHO    C159785  16.822   3.877  17.061
 7721ETHO   H1159786  16.737   3.859  17.130
 7721ETHO   H1359787  16.904   3.902  17.130
 7721ETHO    C259788  16.841   3.744  16.982
 7721ETHO   H2159789  16.766   3.742  16.900
 7721ETHO   H2359790  16.819   3.665  17.056
 7722ETHO    O159791  16.968   3.716  16.929
 7722ETHO    C159792  16.985   3.603  16.846
 7722ETHO   H1159793  16.925   3.518  16.885
 7722ETHO   H1359794  16.946   3.640  16.749
 7722ETHO    C259795  17.128   3.575  16.813
 7722ETHO   H2159796  17.186   3.663  16.779
 7722ETHO   H2359797  17.137   3.501  16.731
 7723ETHO    O159798  17.175   3.521  16.935
 7723ETHO    C159799  17.314   3.480  16.914
 7723ETHO   H1159800  17.374   3.569  16.884
 7723ETHO   H1359801  17.319   3.408  16.830
 7723ETHO    C259802  17.381   3.414  17.034
 7723ETHO   H2159803  17.481   3.379  17.002
 7723ETHO   H2359804  17.323   3.327  17.074
 7724ETHO    O159805  17.404   3.508  17.134
 7724ETHO    C159806  17.498   3.470  17.227
 7724ETHO   H1159807  17.458   3.371  17.257
 7724ETHO   H1359808  17.595   3.456  17.176
 7724ETHO    C259809  17.501   3.561  17.350
 7724ETHO   H2159810  17.554   3.499  17.426
 7724ETHO   H2359811  17.406   3.600  17.393
 7725ETHO    O159812  17.585   3.676  17.314
 7725ETHO    C159813  17.618   3.748  17.430
 7725ETHO   H1159814  17.649   3.675  17.507
 7725ETHO   H1359815  17.524   3.789  17.474
 7725ETHO    C259816  17.720   3.864  17.417
 7725ETHO   H2159817  17.740   3.911  17.515
 7725ETHO   H2359818  17.684   3.934  17.338
 7726ETHO    O159819  17.852   3.824  17.383
 7726ETHO    C159820  17.855   3.802  17.243
 7726ETHO   H1159821  17.809   3.701  17.228
 7726ETHO   H1359822  17.777   3.862  17.192
 7726ETHO    C259823  17.985   3.841  17.175
 7726ETHO   H2159824  17.999   3.798  17.074
 7726ETHO   H2359825  18.068   3.815  17.245
 7727ETHO    O159826  17.989   3.979  17.154
 7727ETHO    C159827  18.116   4.015  17.105
 7727ETHO   H1159828  18.191   4.018  17.187
 7727ETHO   H1359829  18.143   3.947  17.021
 7727ETHO    C259830  18.123   4.167  17.050
 7727ETHO   H2159831  18.210   4.211  17.102
 7727ETHO   H2359832  18.044   4.236  17.087
 7728ETHO    O159833  18.133   4.166  16.906
 7728ETHO    C159834  18.014   4.132  16.838
 7728ETHO   H1159835  17.968   4.041  16.883
 7728ETHO   H1359836  17.940   4.215  16.845
 7728ETHO    C259837  18.045   4.100  16.696
 7728ETHO   H2159838  17.949   4.078  16.644
 7728ETHO   H2359839  18.120   4.020  16.680
 7729ETHO    O159840  18.097   4.207  16.620
 7729ETHO    C159841  18.114   4.170  16.484
 7729ETHO   H1159842  18.211   4.216  16.453
 7729ETHO   H1359843  18.126   4.061  16.468
 7729ETHO    C259844  18.020   4.231  16.376
 7729ETHO   H2159845  17.921   4.181  16.381
 7729ETHO   H2359846  18.067   4.205  16.279
 7730ETHO    O159847  17.987   4.369  16.393
 7730ETHO    C159848  18.009   4.449  16.280
 7730ETHO   H1159849  17.964   4.410  16.186
 7730ETHO   H1359850  18.120   4.447  16.274
 7730ETHO    C259851  17.966   4.594  16.306
 7730ETHO   H2159852  17.857   4.593  16.332
 7730ETHO   H2359853  17.990   4.651  16.214
 7731ETHO    O159854  18.034   4.654  16.416
 7731ETHO    C159855  18.013   4.795  16.411
 7731ETHO   H1159856  18.075   4.843  16.332
 7731ETHO   H1359857  17.909   4.818  16.380
 7731ETHO    C259858  18.063   4.863  16.543
 7731ETHO   H2159859  18.079   4.968  16.510
 7731ETHO   H2359860  18.168   4.828  16.560
 7732ETHO    O159861  17.977   4.837  16.654
 7732ETHO    C159862  18.032   4.883  16.777
 7732ETHO   H1159863  18.046   4.993  16.789
 7732ETHO   H1359864  18.129   4.829  16.785
 7732ETHO    C259865  17.950   4.842  16.910
 7732ETHO   H2159866  18.019   4.860  16.995
 7732ETHO   H2359867  17.926   4.733  16.911
 7733ETHO    O159868  17.834   4.926  16.922
 7733ETHO    C159869  17.753   4.901  17.035
 7733ETHO   H1159870  17.819   4.870  17.119
 7733ETHO   H1359871  17.713   4.998  17.072
 7733ETHO    C259872  17.637   4.801  17.003
 7733ETHO   H2159873  17.590   4.763  17.096
 7733ETHO   H2359874  17.556   4.844  16.940
 7734ETHO    O159875  17.683   4.687  16.932
 7734ETHO    C159876  17.579   4.623  16.857
 7734ETHO   H1159877  17.547   4.703  16.787
 7734ETHO   H1359878  17.499   4.599  16.930
 7734ETHO    C259879  17.613   4.489  16.787
 7734ETHO   H2159880  17.537   4.418  16.748
 7734ETHO   H2359881  17.679   4.440  16.862
 7735ETHO    O159882  17.702   4.522  16.687
 7735ETHO    C159883  17.717   4.430  16.583
 7735ETHO   H1159884  17.802   4.433  16.512
 7735ETHO   H1359885  17.722   4.332  16.634
 7735ETHO    C259886  17.604   4.432  16.487
 7735ETHO   H2159887  17.500   4.426  16.525
 7735ETHO   H2359888  17.615   4.341  16.425
 7736ETHO    O159889  17.620   4.533  16.395
 7736ETHO    C159890  17.551   4.652  16.434
 7736ETHO   H1159891  17.590   4.674  16.536
 7736ETHO   H1359892  17.444   4.627  16.452
 7736ETHO    C259893  17.564   4.758  16.326
 7736ETHO   H2159894  17.483   4.826  16.359
 7736ETHO   H2359895  17.531   4.720  16.227
 7737ETHO    O159896  17.678   4.838  16.318
 7737ETHO    C159897  17.673   4.922  16.197
 7737ETHO   H1159898  17.710   4.870  16.106
 7737ETHO   H1359899  17.566   4.951  16.188
 7737ETHO    C259900  17.747   5.044  16.221
 7737ETHO   H2159901  17.699   5.080  16.314
 7737ETHO   H2359902  17.718   5.117  16.142
 7738ETHO    O159903  17.886   5.025  16.225
 7738ETHO    C159904  17.956   5.144  16.263
 7738ETHO   H1159905  17.921   5.228  16.198
 7738ETHO   H1359906  17.932   5.165  16.369
 7738ETHO    C259907  18.103   5.127  16.239
 7738ETHO   H2159908  18.128   5.080  16.141
 7738ETHO   H2359909  18.149   5.068  16.321
 7739ETHO    O159910  18.184   5.244  16.246
 7739ETHO    C159911  18.165   5.335  16.144
 7739ETHO   H1159912  18.063   5.379  16.141
 7739ETHO   H1359913  18.229   5.421  16.174
 7739ETHO    C259914  18.231   5.296  16.007
 7739ETHO   H2159915  18.253   5.397  15.966
 7739ETHO   H2359916  18.158   5.236  15.948
 7740ETHO    O159917  18.357   5.229  16.029
 7740ETHO    C159918  18.441   5.204  15.916
 7740ETHO   H1159919  18.379   5.154  15.839
 7740ETHO   H1359920  18.477   5.302  15.877
 7740ETHO    C259921  18.555   5.111  15.950
 7740ETHO   H2159922  18.632   5.131  15.872
 7740ETHO   H2359923  18.613   5.123  16.043
 7741ETHO    O159924  18.501   4.981  15.945
 7741ETHO    C159925  18.603   4.881  15.925
 7741ETHO   H1159926  18.585   4.789  15.985
 7741ETHO   H1359927  18.703   4.916  15.958
 7741ETHO    C259928  18.614   4.842  15.774
 7741ETHO   H2159929  18.712   4.791  15.761
 7741ETHO   H2359930  18.602   4.934  15.713
 7742ETHO    O159931  18.509   4.746  15.741
 7742ETHO    C159932  18.522   4.690  15.611
 7742ETHO   H1159933  18.506   4.767  15.533
 7742ETHO   H1359934  18.623   4.646  15.602
 7742ETHO    C259935  18.428   4.565  15.592
 7742ETHO   H2159936  18.438   4.499  15.681
 7742ETHO   H2359937  18.445   4.513  15.495
 7743ETHO    O159938  18.292   4.613  15.583
 7743ETHO    C159939  18.192   4.507  15.586
 7743ETHO   H1159940  18.238   4.408  15.565
 7743ETHO   H1359941  18.113   4.521  15.509
 7743ETHO    C259942  18.140   4.502  15.728
 7743ETHO   H2159943  18.044   4.445  15.725
 7743ETHO   H2359944  18.112   4.598  15.776
 7744ETHO    O159945  18.233   4.435  15.816
 7744ETHO    C159946  18.183   4.416  15.946
 7744ETHO   H1159947  18.164   4.504  16.011
 7744ETHO   H1359948  18.088   4.359  15.941
 7744ETHO    C259949  18.281   4.324  16.026
 7744ETHO   H2159950  18.241   4.304  16.128
 7744ETHO   H2359951  18.380   4.374  16.031
 7745ETHO    O159952  18.285   4.197  15.966
 7745ETHO    C159953  18.345   4.090  16.042
 7745ETHO   H1159954  18.292   4.087  16.140
 7745ETHO   H1359955  18.448   4.114  16.076
 7745ETHO    C259956  18.344   3.963  15.961
 7745ETHO   H2159957  18.244   3.920  15.940
 7745ETHO   H2359958  18.390   3.887  16.028
 7746ETHO    O159959  18.421   3.981  15.848
 7746ETHO    C159960  18.463   3.859  15.791
 7746ETHO   H1159961  18.568   3.832  15.814
 7746ETHO   H1359962  18.391   3.778  15.815
 7746ETHO    C259963  18.463   3.856  15.636
 7746ETHO   H2159964  18.508   3.757  15.611
 7746ETHO   H2359965  18.537   3.930  15.598
 7747ETHO    O159966  18.331   3.861  15.585
 7747ETHO    C159967  18.322   3.893  15.445
 7747ETHO   H1159968  18.358   3.808  15.383
 7747ETHO   H1359969  18.381   3.985  15.422
 7747ETHO    C259970  18.178   3.917  15.405
 7747ETHO   H2159971  18.178   3.980  15.314
 7747ETHO   H2359972  18.132   3.985  15.481
 7748ETHO    O159973  18.091   3.811  15.381
 7748ETHO    C159974  17.976   3.864  15.320
 7748ETHO   H1159975  17.966   3.973  15.339
 7748ETHO   H1359976  17.987   3.862  15.209
 7748ETHO    C259977  17.853   3.790  15.366
 7748ETHO   H2159978  17.876   3.683  15.350
 7748ETHO   H2359979  17.767   3.824  15.304
 7749ETHO    O159980  17.832   3.798  15.508
 7749ETHO    C159981  17.704   3.755  15.545
 7749ETHO   H1159982  17.682   3.653  15.508
 7749ETHO   H1359983  17.626   3.831  15.520
 7749ETHO    C259984  17.710   3.733  15.701
 7749ETHO   H2159985  17.805   3.690  15.739
 7749ETHO   H2359986  17.639   3.651  15.724
 7750ETHO    O159987  17.668   3.840  15.788
 7750ETHO    C159988  17.674   3.802  15.923
 7750ETHO   H1159989  17.621   3.706  15.939
 7750ETHO   H1359990  17.779   3.779  15.952
 7750ETHO    C259991  17.614   3.913  16.010
 7750ETHO   H2159992  17.606   3.886  16.118
 7750ETHO   H2359993  17.510   3.931  15.974
 7751ETHO    O159994  17.689   4.034  16.008
 7751ETHO    C159995  17.649   4.118  16.115
 7751ETHO   H1159996  17.686   4.065  16.206
 7751ETHO   H1359997  17.541   4.142  16.104
 7751ETHO    C259998  17.709   4.266  16.115
 7751ETHO   H2159999  17.819   4.247  16.118
 7751ETHO   H2360000  17.677   4.319  16.207
 7752ETHO    O160001  17.657   4.339  16.006
 7752ETHO    C160002  17.697   4.479  16.028
 7752ETHO   H1160003  17.670   4.527  16.124
 7752ETHO   H1360004  17.808   4.479  16.033
 7752ETHO    C260005  17.657   4.566  15.905
 7752ETHO   H2160006  17.671   4.669  15.944
 7752ETHO   H2360007  17.555   4.561  15.862
 7753ETHO    O160008  17.753   4.541  15.810
 7753ETHO    C160009  17.756   4.646  15.714
 7753ETHO   H1160010  17.659   4.700  15.710
 7753ETHO   H1360011  17.825   4.724  15.752
 7753ETHO    C260012  17.796   4.596  15.575
 7753ETHO   H2160013  17.884   4.528  15.575
 7753ETHO   H2360014  17.828   4.684  15.516
 7754ETHO    O160015  17.691   4.534  15.500
 7754ETHO    C160016  17.739   4.466  15.384
 7754ETHO   H1160017  17.820   4.515  15.326
 7754ETHO   H1360018  17.783   4.377  15.433
 7754ETHO    C260019  17.633   4.409  15.297
 7754ETHO   H2160020  17.681   4.351  15.216
 7754ETHO   H2360021  17.581   4.494  15.247
 7755ETHO    O160022  17.541   4.323  15.371
 7755ETHO    C160023  17.593   4.196  15.394
 7755ETHO   H1160024  17.701   4.201  15.419
 7755ETHO   H1360025  17.526   4.154  15.472
 7755ETHO    C260026  17.578   4.101  15.270
 7755ETHO   H2160027  17.478   4.121  15.226
 7755ETHO   H2360028  17.569   3.997  15.310
 7756ETHO    O160029  17.689   4.114  15.178
 7756ETHO    C160030  17.689   4.010  15.075
 7756ETHO   H1160031  17.594   4.022  15.020
 7756ETHO   H1360032  17.689   3.908  15.118
 7756ETHO    C260033  17.802   4.012  14.974
 7756ETHO   H2160034  17.798   3.913  14.924
 7756ETHO   H2360035  17.894   4.007  15.036
 7757ETHO    O160036  17.780   4.110  14.869
 7757ETHO    C160037  17.820   4.243  14.900
 7757ETHO   H1160038  17.738   4.291  14.957
 7757ETHO   H1360039  17.922   4.253  14.942
 7757ETHO    C260040  17.827   4.328  14.766
 7757ETHO   H2160041  17.880   4.274  14.684
 7757ETHO   H2360042  17.876   4.425  14.791
 7758ETHO    O160043  17.699   4.368  14.717
 7758ETHO    C160044  17.718   4.468  14.613
 7758ETHO   H1160045  17.784   4.552  14.642
 7758ETHO   H1360046  17.618   4.513  14.599
 7758ETHO    C260047  17.778   4.412  14.472
 7758ETHO   H2160048  17.736   4.470  14.387
 7758ETHO   H2360049  17.730   4.313  14.453
 7759ETHO    O160050  17.920   4.394  14.471
 7759ETHO    C160051  17.964   4.336  14.343
 7759ETHO   H1160052  17.881   4.270  14.308
 7759ETHO   H1360053  17.973   4.415  14.265
 7759ETHO    C260054  18.093   4.263  14.361
 7759ETHO   H2160055  18.124   4.223  14.263
 7759ETHO   H2360056  18.071   4.184  14.436
 7760ETHO    O160057  18.200   4.341  14.414
 7760ETHO    C160058  18.246   4.441  14.315
 7760ETHO   H1160059  18.206   4.542  14.337
 7760ETHO   H1360060  18.208   4.428  14.211
 7760ETHO    C260061  18.398   4.453  14.331
 7760ETHO   H2160062  18.440   4.507  14.244
 7760ETHO   H2360063  18.437   4.349  14.321
 7761ETHO    O160064  18.445   4.520  14.447
 7761ETHO    C160065  18.590   4.512  14.464
 7761ETHO   H1160066  18.635   4.410  14.474
 7761ETHO   H1360067  18.635   4.558  14.374
 7761ETHO    C260068  18.634   4.586  14.590
 7761ETHO   H2160069  18.733   4.541  14.612
 7761ETHO   H2360070  18.558   4.558  14.666
 7762ETHO    O160071  18.641   4.730  14.571
 7762ETHO    C160072  18.687   4.792  14.690
 7762ETHO   H1160073  18.797   4.798  14.682
 7762ETHO   H1360074  18.647   4.745  14.783
 7762ETHO    C260075  18.637   4.940  14.700
 7762ETHO   H2160076  18.667   4.981  14.602
 7762ETHO   H2360077  18.691   4.993  14.781
 7763ETHO    O160078  18.499   4.949  14.732
 7763ETHO    C160079  18.449   5.072  14.679
 7763ETHO   H1160080  18.517   5.152  14.713
 7763ETHO   H1360081  18.451   5.074  14.567
 7763ETHO    C260082  18.305   5.109  14.734
 7763ETHO   H2160083  18.237   5.023  14.715
 7763ETHO   H2360084  18.273   5.189  14.664
 7764ETHO    O160085  18.289   5.146  14.869
 7764ETHO    C160086  18.158   5.203  14.878
 7764ETHO   H1160087  18.150   5.287  14.806
 7764ETHO   H1360088  18.087   5.121  14.857
 7764ETHO    C260089  18.137   5.255  15.020
 7764ETHO   H2160090  18.152   5.171  15.090
 7764ETHO   H2360091  18.030   5.280  15.036
 7765ETHO    O160092  18.228   5.354  15.071
 7765ETHO    C160093  18.210   5.482  15.008
 7765ETHO   H1160094  18.288   5.547  15.052
 7765ETHO   H1360095  18.247   5.467  14.905
 7765ETHO    C260096  18.074   5.549  15.031
 7765ETHO   H2160097  17.997   5.490  14.977
 7765ETHO   H2360098  18.078   5.654  14.995
 7766ETHO    O160099  18.030   5.538  15.163
 7766ETHO    C160100  17.933   5.632  15.208
 7766ETHO   H1160101  17.968   5.734  15.181
 7766ETHO   H1360102  17.834   5.610  15.162
 7766ETHO    C260103  17.927   5.634  15.359
 7766ETHO   H2160104  17.914   5.529  15.393
 7766ETHO   H2360105  18.023   5.665  15.407
 7767ETHO    O160106  17.831   5.727  15.398
 7767ETHO    C160107  17.809   5.716  15.539
 7767ETHO   H1160108  17.907   5.710  15.590
 7767ETHO   H1360109  17.751   5.622  15.550
 7767ETHO    C260110  17.735   5.838  15.601
 7767ETHO   H2160111  17.687   5.808  15.697
 7767ETHO   H2360112  17.657   5.853  15.523
 7768ETHO    O160113  17.818   5.947  15.625
 7768ETHO    C160114  17.897   6.001  15.514
 7768ETHO   H1160115  17.979   5.929  15.492
 7768ETHO   H1360116  17.837   6.014  15.422
 7768ETHO    C260117  17.967   6.131  15.553
 7768ETHO   H2160118  18.065   6.134  15.502
 7768ETHO   H2360119  18.000   6.117  15.658
 7769ETHO    O160120  17.895   6.251  15.526
 7769ETHO    C160121  17.962   6.365  15.584
 7769ETHO   H1160122  18.056   6.385  15.527
 7769ETHO   H1360123  17.993   6.333  15.686
 7769ETHO    C260124  17.887   6.495  15.578
 7769ETHO   H2160125  17.916   6.566  15.658
 7769ETHO   H2360126  17.782   6.467  15.602
 7770ETHO    O160127  17.897   6.565  15.451
 7770ETHO    C160128  17.999   6.665  15.461
 7770ETHO   H1160129  17.960   6.741  15.533
 7770ETHO   H1360130  18.086   6.613  15.506
 7770ETHO    C260131  18.019   6.706  15.312
 7770ETHO   H2160132  18.062   6.627  15.246
 7770ETHO   H2360133  18.103   6.778  15.325
 7771ETHO    O160134  17.907   6.766  15.244
 7771ETHO    C160135  17.938   6.816  15.113
 7771ETHO   H1160136  17.944   6.722  15.053
 7771ETHO   H1360137  18.036   6.862  15.087
 7771ETHO    C260138  17.823   6.910  15.061
 7771ETHO   H2160139  17.730   6.850  15.054
 7771ETHO   H2360140  17.845   6.942  14.957
 7772ETHO    O160141  17.797   7.022  15.134
 7772ETHO    C160142  17.907   7.106  15.161
 7772ETHO   H1160143  17.973   7.074  15.245
 7772ETHO   H1360144  17.975   7.118  15.074
 7772ETHO    C260145  17.855   7.248  15.201
 7772ETHO   H2160146  17.939   7.308  15.242
 7772ETHO   H2360147  17.773   7.233  15.273
 7773ETHO    O160148  17.807   7.325  15.083
 7773ETHO    C160149  17.714   7.425  15.116
 7773ETHO   H1160150  17.754   7.504  15.183
 7773ETHO   H1360151  17.627   7.377  15.165
 7773ETHO    C260152  17.673   7.500  14.990
 7773ETHO   H2160153  17.748   7.549  14.924
 7773ETHO   H2360154  17.616   7.588  15.026
 7774ETHO    O160155  17.572   7.437  14.908
 7774ETHO    C160156  17.569   7.504  14.782
 7774ETHO   H1160157  17.577   7.614  14.795
 7774ETHO   H1360158  17.656   7.467  14.725
 7774ETHO    C260159  17.442   7.454  14.717
 7774ETHO   H2160160  17.437   7.343  14.723
 7774ETHO   H2360161  17.449   7.473  14.608
 7775ETHO    O160162  17.323   7.511  14.764
 7775ETHO    C160163  17.203   7.465  14.696
 7775ETHO   H1160164  17.202   7.495  14.589
 7775ETHO   H1360165  17.205   7.355  14.708
 7775ETHO    C260166  17.077   7.520  14.766
 7775ETHO   H2160167  17.084   7.500  14.875
 7775ETHO   H2360168  16.987   7.464  14.733
 7776ETHO    O160169  17.060   7.660  14.744
 7776ETHO    C160170  16.970   7.715  14.842
 7776ETHO   H1160171  17.005   7.678  14.941
 7776ETHO   H1360172  16.980   7.824  14.823
 7776ETHO    C260173  16.824   7.674  14.820
 7776ETHO   H2160174  16.808   7.564  14.825
 7776ETHO   H2360175  16.777   7.710  14.726
 7777ETHO    O160176  16.738   7.731  14.914
 7777ETHO    C160177  16.715   7.874  14.901
 7777ETHO   H1160178  16.797   7.925  14.956
 7777ETHO   H1360179  16.718   7.907  14.795
 7777ETHO    C260180  16.590   7.914  14.967
 7777ETHO   H2160181  16.580   8.025  14.978
 7777ETHO   H2360182  16.588   7.879  15.072
 7778ETHO    O160183  16.476   7.879  14.889
 7778ETHO    C160184  16.363   7.947  14.938
 7778ETHO   H1160185  16.375   8.056  14.922
 7778ETHO   H1360186  16.343   7.931  15.046
 7778ETHO    C260187  16.240   7.905  14.859
 7778ETHO   H2160188  16.157   7.954  14.914
 7778ETHO   H2360189  16.219   7.796  14.855
 7779ETHO    O160190  16.234   7.943  14.719
 7779ETHO    C160191  16.104   7.905  14.657
 7779ETHO   H1160192  16.107   7.903  14.546
 7779ETHO   H1360193  16.084   7.799  14.683
 7779ETHO    C260194  15.982   7.993  14.694
 7779ETHO   H2160195  15.982   8.013  14.803
 7779ETHO   H2360196  15.895   7.933  14.659
 7780ETHO    O160197  15.979   8.122  14.638
 7780ETHO    C160198  15.866   8.205  14.679
 7780ETHO   H1160199  15.877   8.313  14.657
 7780ETHO   H1360200  15.852   8.202  14.789
 7780ETHO    C260201  15.743   8.152  14.603
 7780ETHO   H2160202  15.652   8.200  14.647
 7780ETHO   H2360203  15.733   8.044  14.627
 7781ETHO    O160204  15.749   8.183  14.462
 7781ETHO    C160205  15.628   8.154  14.394
 7781ETHO   H1160206  15.611   8.046  14.413
 7781ETHO   H1360207  15.554   8.224  14.437
 7781ETHO    C260208  15.636   8.165  14.237
 7781ETHO   H2160209  15.551   8.108  14.194
 7781ETHO   H2360210  15.736   8.121  14.220
 7782ETHO    O160211  15.634   8.304  14.191
 7782ETHO    C160212  15.628   8.317  14.056
 7782ETHO   H1160213  15.527   8.299  14.013
 7782ETHO   H1360214  15.680   8.226  14.021
 7782ETHO    C260215  15.686   8.452  14.012
 7782ETHO   H2160216  15.738   8.428  13.917
 7782ETHO   H2360217  15.758   8.482  14.091
 7783ETHO    O160218  15.584   8.542  13.993
 7783ETHO    C160219  15.633   8.671  13.957
 7783ETHO   H1160220  15.686   8.712  14.046
 7783ETHO   H1360221  15.706   8.659  13.875
 7783ETHO    C260222  15.521   8.765  13.913
 7783ETHO   H2160223  15.565   8.865  13.892
 7783ETHO   H2360224  15.437   8.777  13.985
 7784ETHO    O160225  15.452   8.731  13.788
 7784ETHO    C160226  15.355   8.836  13.773
 7784ETHO   H1160227  15.402   8.924  13.725
 7784ETHO   H1360228  15.292   8.854  13.863
 7784ETHO    C260229  15.260   8.804  13.657
 7784ETHO   H2160230  15.325   8.764  13.577
 7784ETHO   H2360231  15.213   8.900  13.625
 7785ETHO    O160232  15.160   8.704  13.695
 7785ETHO    C160233  15.051   8.696  13.610
 7785ETHO   H1160234  15.096   8.725  13.512
 7785ETHO   H1360235  15.022   8.590  13.595
 7785ETHO    C260236  14.941   8.779  13.669
 7785ETHO   H2160237  14.941   8.752  13.777
 7785ETHO   H2360238  14.843   8.760  13.621
 7786PROX    O160239  14.977   8.903  13.633
 7786PROX    C160240  14.928   9.002  13.729
 7786PROX   H1160241  14.832   8.967  13.772
 7786PROX   H1360242  14.998   9.011  13.815
 7786PROX    C260243  14.904   9.147  13.675
 7786PROX   H2160244  14.827   9.144  13.594
 7786PROX    C360245  15.022   9.225  13.620
 7786PROX   H3160246  15.011   9.335  13.616
 7786PROX   H3260247  15.114   9.187  13.669
 7786PROX   H3360248  15.033   9.203  13.511
 7787PROX    O160249  14.837   9.220  13.776
 7787PROX    C160250  14.784   9.346  13.732
 7787PROX   H1160251  14.820   9.371  13.630
 7787PROX   H1360252  14.674   9.348  13.717
 7787PROX    C260253  14.835   9.453  13.838
 7787PROX   H2160254  14.945   9.451  13.852
 7787PROX    C360255  14.777   9.419  13.975
 7787PROX   H3160256  14.814   9.323  14.018
 7787PROX   H3260257  14.794   9.497  14.052
 7787PROX   H3360258  14.666   9.414  13.977
 7788PROX    O160259  14.785   9.582  13.788
 7788PROX    C160260  14.877   9.669  13.725
 7788PROX   H1160261  14.960   9.705  13.789
 7788PROX   H1360262  14.919   9.606  13.643
 7788PROX    C260263  14.802   9.790  13.658
 7788PROX   H2160264  14.741   9.849  13.729
 7788PROX    C360265  14.705   9.733  13.554
 7788PROX   H3160266  14.658   9.814  13.494
 7788PROX   H3260267  14.751   9.666  13.478
 7788PROX   H3360268  14.620   9.678  13.600
 7789PROX    O160269  14.886   9.879  13.590
 7789PROX    C160270  14.970   9.958  13.669
 7789PROX   H1160271  14.977  10.057  13.621
 7789PROX   H1360272  14.941   9.965  13.776
 7789PROX    C260273  15.116   9.915  13.665
 7789PROX   H2160274  15.118   9.804  13.678
 7789PROX    C360275  15.199   9.988  13.773
 7789PROX   H3160276  15.200  10.098  13.760
 7789PROX   H3260277  15.163   9.956  13.874
 7789PROX   H3360278  15.300   9.943  13.774
 7790PROX    O160279  15.176   9.944  13.535
 7790PROX    C160280  15.119   9.869  13.422
 7790PROX   H1160281  15.097   9.762  13.446
 7790PROX   H1360282  15.017   9.905  13.398
 7790PROX    C260283  15.206   9.878  13.293
 7790PROX   H2160284  15.310   9.853  13.322
 7790PROX    C360285  15.222  10.020  13.240
 7790PROX   H3160286  15.299  10.024  13.160
 7790PROX   H3260287  15.130  10.052  13.187
 7790PROX   H3360288  15.253  10.083  13.326
 7791PROX    O160289  15.151   9.787  13.196
 7791PROX    C160290  15.247   9.703  13.142
 7791PROX   H1160291  15.296   9.770  13.068
 7791PROX   H1360292  15.325   9.673  13.215
 7791PROX    C260293  15.183   9.579  13.087
 7791PROX   H2160294  15.146   9.519  13.173
 7791PROX    C360295  15.289   9.484  13.025
 7791PROX   H3160296  15.375   9.489  13.095
 7791PROX   H3260297  15.243   9.383  13.029
 7791PROX   H3360298  15.320   9.514  12.923
 7792PROX    O160299  15.088   9.623  12.990
 7792PROX    C160300  14.987   9.528  12.961
 7792PROX   H1160301  15.019   9.422  12.963
 7792PROX   H1360302  14.900   9.546  13.027
 7792PROX    C260303  14.935   9.558  12.817
 7792PROX   H2160304  14.906   9.665  12.811
 7792PROX    C360305  14.803   9.484  12.776
 7792PROX   H3160306  14.726   9.480  12.856
 7792PROX   H3260307  14.761   9.529  12.683
 7792PROX   H3360308  14.822   9.376  12.756
 7793PROX    O160309  15.030   9.518  12.726
 7793PROX    C160310  15.121   9.620  12.686
 7793PROX   H1160311  15.153   9.679  12.775
 7793PROX   H1360312  15.214   9.575  12.645
 7793PROX    C260313  15.066   9.708  12.569
 7793PROX   H2160314  14.956   9.722  12.570
 7793PROX    C360315  15.096   9.617  12.441
 7793PROX   H3160316  15.057   9.674  12.354
 7793PROX   H3260317  15.206   9.602  12.438
 7793PROX   H3360318  15.040   9.522  12.442
 7794PROX    O160319  15.132   9.840  12.560
 7794PROX    C160320  15.103   9.927  12.677
 7794PROX   H1160321  15.148   9.893  12.773
 7794PROX   H1360322  15.160  10.019  12.651
 7794PROX    C260323  14.949   9.966  12.694
 7794PROX   H2160324  14.895   9.870  12.710
 7794PROX    C360325  14.902  10.033  12.564
 7794PROX   H3160326  14.966  10.124  12.561
 7794PROX   H3260327  14.907   9.970  12.473
 7794PROX   H3360328  14.800  10.076  12.568
 7795PROX    O160329  14.942  10.055  12.802
 7795PROX    C160330  14.809  10.070  12.856
 7795PROX   H1160331  14.800  10.180  12.864
 7795PROX   H1360332  14.729  10.022  12.796
 7795PROX    C260333  14.807  10.033  13.009
 7795PROX   H2160334  14.884  10.097  13.057
 7795PROX    C360335  14.834   9.884  13.032
 7795PROX   H3160336  14.944   9.882  13.016
 7795PROX   H3260337  14.825   9.848  13.137
 7795PROX   H3360338  14.780   9.813  12.966
 7796PROX    O160339  14.685  10.079  13.077
 7796PROX    C160340  14.695  10.099  13.215
 7796PROX   H1160341  14.737  10.008  13.265
 7796PROX   H1360342  14.775  10.173  13.234
 7796PROX    C260343  14.565  10.155  13.279
 7796PROX   H2160344  14.532  10.252  13.238
 7796PROX    C360345  14.588  10.167  13.429
 7796PROX   H3160346  14.487  10.172  13.475
 7796PROX   H3260347  14.640  10.078  13.471
 7796PROX   H3360348  14.647  10.258  13.452
 7797PROX    O160349  14.464  10.059  13.254
 7797PROX    C160350  14.384  10.092  13.132
 7797PROX   H1160351  14.308  10.167  13.164
 7797PROX   H1360352  14.444  10.135  13.049
 7797PROX    C260353  14.311   9.968  13.078
 7797PROX   H2160354  14.226   9.946  13.146
 7797PROX    C360355  14.423   9.864  13.053
 7797PROX   H3160356  14.372   9.780  13.001
 7797PROX   H3260357  14.508   9.898  12.990
 7797PROX   H3360358  14.469   9.837  13.151
 7798PROX    O160359  14.243  10.010  12.961
 7798PROX    C160360  14.168   9.905  12.902
 7798PROX   H1160361  14.231   9.825  12.857
 7798PROX   H1360362  14.104   9.862  12.981
 7798PROX    C260363  14.070   9.957  12.790
 7798PROX   H2160364  14.135  10.025  12.731
 7798PROX    C360365  13.938  10.016  12.838
 7798PROX   H3160366  13.879  10.060  12.755
 7798PROX   H3260367  13.882   9.943  12.900
 7798PROX   H3360368  13.962  10.094  12.914
 7799PROX    O160369  14.020   9.849  12.710
 7799PROX    C160370  14.122   9.804  12.606
 7799PROX   H1160371  14.226   9.804  12.646
 7799PROX   H1360372  14.103   9.702  12.568
 7799PROX    C260373  14.110   9.885  12.470
 7799PROX   H2160374  14.003   9.903  12.447
 7799PROX    C360375  14.149   9.815  12.341
 7799PROX   H3160376  14.258   9.805  12.328
 7799PROX   H3260377  14.107   9.712  12.336
 7799PROX   H3360378  14.104   9.860  12.250
 7800PROX    O160379  14.191  10.004  12.477
 7800PROX    C160380  14.146  10.108  12.390
 7800PROX   H1160381  14.191  10.102  12.289
 7800PROX   H1360382  14.036  10.093  12.375
 7800PROX    C260383  14.174  10.250  12.450
 7800PROX   H2160384  14.127  10.246  12.551
 7800PROX    C360385  14.113  10.364  12.369
 7800PROX   H3160386  14.117  10.468  12.409
 7800PROX   H3260387  14.165  10.365  12.271
 7800PROX   H3360388  14.006  10.337  12.360
 7801PROX    O160389  14.308  10.284  12.447
 7801PROX    C160390  14.353  10.382  12.541
 7801PROX   H1160391  14.402  10.473  12.501
 7801PROX   H1360392  14.270  10.430  12.597
 7801PROX    C260393  14.444  10.307  12.640
 7801PROX   H2160394  14.524  10.269  12.573
 7801PROX    C360395  14.378  10.201  12.718
 7801PROX   H3160396  14.460  10.138  12.758
 7801PROX   H3260397  14.318  10.238  12.804
 7801PROX   H3360398  14.321  10.138  12.647
 7802PROX    O160399  14.496  10.407  12.723
 7802PROX    C160400  14.614  10.361  12.795
 7802PROX   H1160401  14.588  10.285  12.872
 7802PROX   H1360402  14.676  10.310  12.719
 7802PROX    C260403  14.690  10.475  12.853
 7802PROX   H2160404  14.653  10.511  12.951
 7802PROX    C360405  14.671  10.595  12.765
 7802PROX   H3160406  14.714  10.570  12.666
 7802PROX   H3260407  14.564  10.626  12.757
 7802PROX   H3360408  14.731  10.682  12.800
 7803PROX    O160409  14.828  10.444  12.882
 7803PROX    C160410  14.884  10.515  12.988
 7803PROX   H1160411  14.861  10.623  12.972
 7803PROX   H1360412  14.833  10.477  13.079
 7803PROX    C260413  15.031  10.486  12.981
 7803PROX   H2160414  15.077  10.530  12.890
 7803PROX    C360415  15.066  10.344  12.997
 7803PROX   H3160416  15.014  10.285  13.076
 7803PROX   H3260417  15.038  10.281  12.910
 7803PROX   H3360418  15.175  10.328  13.015
 7804PROX    O160419  15.089  10.542  13.093
 7804PROX    C160420  15.084  10.682  13.097
 7804PROX   H1160421  15.058  10.728  13.000
 7804PROX   H1360422  15.015  10.713  13.178
 7804PROX    C260423  15.223  10.739  13.128
 7804PROX   H2160424  15.212  10.849  13.137
 7804PROX    C360425  15.321  10.711  13.012
 7804PROX   H3160426  15.425  10.700  13.049
 7804PROX   H3260427  15.289  10.618  12.960
 7804PROX   H3360428  15.315  10.800  12.945
 7805PROX    O160429  15.278  10.687  13.246
 7805PROX    C160430  15.251  10.747  13.372
 7805PROX   H1160431  15.312  10.839  13.386
 7805PROX   H1360432  15.142  10.771  13.372
 7805PROX    C260433  15.283  10.656  13.492
 7805PROX   H2160434  15.212  10.571  13.488
 7805PROX    C360435  15.258  10.730  13.624
 7805PROX   H3160436  15.158  10.778  13.620
 7805PROX   H3260437  15.255  10.656  13.707
 7805PROX   H3360438  15.322  10.814  13.659
 7806PROX    O160439  15.421  10.609  13.479
 7806PROX    C160440  15.449  10.487  13.548
 7806PROX   H1160441  15.554  10.474  13.582
 7806PROX   H1360442  15.394  10.478  13.644
 7806PROX    C260443  15.418  10.372  13.452
 7806PROX   H2160444  15.316  10.402  13.420
 7806PROX    C360445  15.427  10.231  13.521
 7806PROX   H3160446  15.521  10.231  13.580
 7806PROX   H3260447  15.344  10.222  13.594
 7806PROX   H3360448  15.435  10.145  13.451
 7807PROX    O160449  15.503  10.384  13.341
 7807PROX    C160450  15.437  10.360  13.217
 7807PROX   H1160451  15.358  10.282  13.224
 7807PROX   H1360452  15.404  10.455  13.170
 7807PROX    C260453  15.544  10.294  13.123
 7807PROX   H2160454  15.582  10.211  13.186
 7807PROX    C360455  15.659  10.373  13.067
 7807PROX   H3160456  15.694  10.457  13.132
 7807PROX   H3260457  15.748  10.310  13.051
 7807PROX   H3360458  15.625  10.419  12.972
 7808PROX    O160459  15.468  10.229  13.022
 7808PROX    C160460  15.548  10.126  12.956
 7808PROX   H1160461  15.632  10.169  12.897
 7808PROX   H1360462  15.591  10.056  13.031
 7808PROX    C260463  15.461  10.047  12.852
 7808PROX   H2160464  15.357  10.066  12.887
 7808PROX    C360465  15.497   9.897  12.847
 7808PROX   H3160466  15.603   9.883  12.819
 7808PROX   H3260467  15.477   9.840  12.941
 7808PROX   H3360468  15.434   9.840  12.775
 7809PROX    O160469  15.484  10.095  12.724
 7809PROX    C160470  15.403  10.211  12.699
 7809PROX   H1160471  15.307  10.209  12.755
 7809PROX   H1360472  15.464  10.302  12.714
 7809PROX    C260473  15.365  10.214  12.551
 7809PROX   H2160474  15.306  10.125  12.520
 7809PROX    C360475  15.487  10.228  12.460
 7809PROX   H3160476  15.564  10.305  12.483
 7809PROX   H3260477  15.532  10.126  12.463
 7809PROX   H3360478  15.445  10.243  12.358
 7810PROX    O160479  15.278  10.322  12.539
 7810PROX    C160480  15.178  10.302  12.436
 7810PROX   H1160481  15.215  10.324  12.333
 7810PROX   H1360482  15.134  10.201  12.444
 7810PROX    C260483  15.061  10.405  12.446
 7810PROX   H2160484  15.104  10.494  12.394
 7810PROX    C360485  15.017  10.437  12.596
 7810PROX   H3160486  14.987  10.347  12.654
 7810PROX   H3260487  15.092  10.491  12.658
 7810PROX   H3360488  14.923  10.492  12.581
 7811PROX    O160489  14.956  10.349  12.373
 7811PROX    C160490  14.851  10.439  12.326
 7811PROX   H1160491  14.888  10.540  12.353
 7811PROX   H1360492  14.848  10.432  12.215
 7811PROX    C260493  14.710  10.401  12.384
 7811PROX   H2160494  14.717  10.406  12.495
 7811PROX    C360495  14.668  10.256  12.334
 7811PROX   H3160496  14.564  10.225  12.361
 7811PROX   H3260497  14.664  10.263  12.224
 7811PROX   H3360498  14.738  10.176  12.366
 7812PROX    O160499  14.610  10.491  12.332
 7812PROX    C160500  14.619  10.617  12.397
 7812PROX   H1160501  14.606  10.601  12.506
 7812PROX   H1360502  14.718  10.659  12.368
 7812PROX    C260503  14.519  10.720  12.334
 7812PROX   H2160504  14.415  10.686  12.354
 7812PROX    C360505  14.532  10.729  12.183
 7812PROX   H3160506  14.489  10.645  12.125
 7812PROX   H3260507  14.468  10.810  12.142
 7812PROX   H3360508  14.640  10.746  12.162
 7813PROX    O160509  14.540  10.852  12.386
 7813PROX    C160510  14.482  10.868  12.522
 7813PROX   H1160511  14.371  10.864  12.520
 7813PROX   H1360512  14.524  10.787  12.584
 7813PROX    C260513  14.524  11.006  12.574
 7813PROX   H2160514  14.460  11.076  12.516
 7813PROX    C360515  14.666  11.040  12.540
 7813PROX   H3160516  14.692  11.130  12.600
 7813PROX   H3260517  14.732  10.958  12.575
 7813PROX   H3360518  14.691  11.057  12.433
 7814PROX    O160519  14.493  11.013  12.714
 7814PROX    C160520  14.594  10.963  12.795
 7814PROX   H1160521  14.649  10.878  12.749
 7814PROX   H1360522  14.666  11.044  12.818
 7814PROX    C260523  14.546  10.910  12.933
 7814PROX   H2160524  14.479  10.985  12.980
 7814PROX    C360525  14.653  10.907  13.041
 7814PROX   H3160526  14.710  10.995  13.077
 7814PROX   H3260527  14.605  10.862  13.130
 7814PROX   H3360528  14.731  10.831  13.018
 7815PROX    O160529  14.461  10.797  12.907
 7815PROX    C160530  14.370  10.774  13.021
 7815PROX   H1160531  14.421  10.783  13.119
 7815PROX   H1360532  14.288  10.848  13.013
 7815PROX    C260533  14.308  10.633  13.020
 7815PROX   H2160534  14.396  10.565  13.012
 7815PROX    C360535  14.213  10.594  12.902
 7815PROX   H3160536  14.128  10.665  12.909
 7815PROX   H3260537  14.264  10.610  12.805
 7815PROX   H3360538  14.184  10.488  12.919
 7816PROX    O160539  14.248  10.602  13.146
 7816PROX    C160540  14.137  10.686  13.185
 7816PROX   H1160541  14.081  10.722  13.096
 7816PROX   H1360542  14.066  10.612  13.228
 7816PROX    C260543  14.169  10.789  13.288
 7816PROX   H2160544  14.246  10.751  13.358
 7816PROX    C360545  14.028  10.821  13.363
 7816PROX   H3160546  14.040  10.847  13.471
 7816PROX   H3260547  13.972  10.902  13.313
 7816PROX   H3360548  13.965  10.731  13.351
 7817PROX    O160549  14.209  10.911  13.230
 7817PROX    C160550  14.278  10.993  13.314
 7817PROX   H1160551  14.223  11.022  13.407
 7817PROX   H1360552  14.367  10.939  13.353
 7817PROX    C260553  14.311  11.120  13.242
 7817PROX   H2160554  14.380  11.101  13.156
 7817PROX    C360555  14.382  11.220  13.336
 7817PROX   H3160556  14.484  11.183  13.360
 7817PROX   H3260557  14.374  11.326  13.305
 7817PROX   H3360558  14.315  11.218  13.425
 7818PROX    O160559  14.191  11.178  13.194
 7818PROX    C160560  14.206  11.249  13.073
 7818PROX   H1160561  14.115  11.312  13.073
 7818PROX   H1360562  14.297  11.311  13.086
 7818PROX    C260563  14.190  11.150  12.962
 7818PROX   H2160564  14.219  11.048  12.996
 7818PROX    C360565  14.271  11.175  12.837
 7818PROX   H3160566  14.260  11.086  12.772
 7818PROX   H3260567  14.242  11.272  12.790
 7818PROX   H3360568  14.378  11.188  12.860
 7819PROX    O160569  14.054  11.140  12.913
 7819PROX    C160570  13.980  11.055  12.998
 7819PROX   H1160571  14.041  10.968  13.033
 7819PROX   H1360572  13.942  11.102  13.091
 7819PROX    C260573  13.859  10.999  12.924
 7819PROX   H2160574  13.827  11.078  12.853
 7819PROX    C360575  13.760  10.959  13.042
 7819PROX   H3160576  13.657  10.938  13.006
 7819PROX   H3260577  13.785  10.877  13.112
 7819PROX   H3360578  13.748  11.056  13.094
 7820PROX    O160579  13.909  10.898  12.836
 7820PROX    C160580  13.808  10.840  12.762
 7820PROX   H1160581  13.721  10.818  12.827
 7820PROX   H1360582  13.782  10.898  12.671
 7820PROX    C260583  13.871  10.708  12.716
 7820PROX   H2160584  13.925  10.658  12.799
 7820PROX    C360585  13.961  10.722  12.591
 7820PROX   H3160586  14.049  10.780  12.625
 7820PROX   H3260587  14.000  10.622  12.563
 7820PROX   H3360588  13.913  10.766  12.501
 7821PROX    O160589  13.774  10.610  12.675
 7821PROX    C160590  13.742  10.513  12.776
 7821PROX   H1160591  13.701  10.569  12.864
 7821PROX   H1360592  13.652  10.452  12.752
 7821PROX    C260593  13.863  10.409  12.802
 7821PROX   H2160594  13.961  10.462  12.811
 7821PROX    C360595  13.883  10.324  12.679
 7821PROX   H3160596  13.790  10.265  12.663
 7821PROX   H3260597  13.893  10.391  12.591
 7821PROX   H3360598  13.972  10.261  12.702
 7822PROX    O160599  13.836  10.328  12.922
 7822PROX    C160600  13.848  10.403  13.035
 7822PROX   H1160601  13.907  10.495  13.016
 7822PROX   H1360602  13.744  10.430  13.063
 7822PROX    C260603  13.907  10.317  13.145
 7822PROX   H2160604  13.895  10.360  13.247
 7822PROX    C360605  14.063  10.294  13.116
 7822PROX   H3160606  14.114  10.390  13.140
 7822PROX   H3260607  14.108  10.211  13.174
 7822PROX   H3360608  14.072  10.271  13.007
 7823PROX    O160609  13.837  10.198  13.157
 7823PROX    C160610  13.895  10.109  13.254
 7823PROX   H1160611  13.980  10.051  13.213
 7823PROX   H1360612  13.923  10.164  13.347
 7823PROX    C260613  13.793  10.005  13.308
 7823PROX   H2160614  13.705  10.005  13.241
 7823PROX    C360615  13.744  10.039  13.450
 7823PROX   H3160616  13.828  10.052  13.522
 7823PROX   H3260617  13.687  10.134  13.441
 7823PROX   H3360618  13.680   9.958  13.491
 7824PROX    O160619  13.845   9.874  13.297
 7824PROX    C160620  13.836   9.813  13.169
 7824PROX   H1160621  13.735   9.838  13.127
 7824PROX   H1360622  13.926   9.836  13.108
 7824PROX    C260623  13.848   9.662  13.178
 7824PROX   H2160624  13.774   9.624  13.252
 7824PROX    C360625  13.987   9.631  13.233
 7824PROX   H3160626  14.015   9.663  13.336
 7824PROX   H3260627  13.998   9.522  13.252
 7824PROX   H3360628  14.066   9.675  13.168
 7825PROX    O160629  13.813   9.597  13.057
 7825PROX    C160630  13.890   9.627  12.945
 7825PROX   H1160631  13.859   9.729  12.913
 7825PROX   H1360632  13.999   9.627  12.967
 7825PROX    C260633  13.864   9.533  12.822
 7825PROX   H2160634  13.884   9.579  12.723
 7825PROX    C360635  13.717   9.479  12.815
 7825PROX   H3160636  13.682   9.419  12.901
 7825PROX   H3260637  13.647   9.562  12.792
 7825PROX   H3360638  13.719   9.407  12.731
 7826PROX    O160639  13.961   9.423  12.826
 7826PROX    C160640  13.943   9.324  12.927
 7826PROX   H1160641  13.945   9.376  13.025
 7826PROX   H1360642  13.849   9.265  12.923
 7826PROX    C260643  14.057   9.230  12.917
 7826PROX   H2160644  14.142   9.299  12.929
 7826PROX    C360645  14.072   9.164  12.778
 7826PROX   H3160646  14.076   9.226  12.687
 7826PROX   H3260647  14.175   9.124  12.790
 7826PROX   H3360648  14.001   9.080  12.763
 7827PROX    O160649  14.047   9.133  13.018
 7827PROX    C160650  14.173   9.104  13.070
 7827PROX   H1160651  14.238   9.053  12.996
 7827PROX   H1360652  14.227   9.195  13.102
 7827PROX    C260653  14.167   9.003  13.193
 7827PROX   H2160654  14.272   8.993  13.228
 7827PROX    C360655  14.105   8.866  13.154
 7827PROX   H3160656  14.141   8.792  13.228
 7827PROX   H3260657  13.993   8.863  13.154
 7827PROX   H3360658  14.135   8.835  13.052
 7828PROX    O160659  14.081   9.051  13.301
 7828PROX    C160660  14.120   9.175  13.364
 7828PROX   H1160661  14.224   9.208  13.341
 7828PROX   H1360662  14.068   9.258  13.311
 7828PROX    C260663  14.094   9.175  13.512
 7828PROX   H2160664  14.001   9.118  13.531
 7828PROX    C360665  14.077   9.317  13.562
 7828PROX   H3160666  14.178   9.361  13.568
 7828PROX   H3260667  14.026   9.380  13.486
 7828PROX   H3360668  14.019   9.317  13.657
 7829PROX    O160669  14.208   9.118  13.580
 7829PROX    C160670  14.197   8.978  13.584
 7829PROX   H1160671  14.098   8.951  13.626
 7829PROX   H1360672  14.198   8.939  13.480
 7829PROX    C260673  14.316   8.917  13.663
 7829PROX   H2160674  14.409   8.974  13.643
 7829PROX    C360675  14.336   8.771  13.624
 7829PROX   H3160676  14.239   8.717  13.626
 7829PROX   H3260677  14.389   8.778  13.527
 7829PROX   H3360678  14.408   8.734  13.701
 7830PROX    O160679  14.282   8.899  13.805
 7830PROX    C160680  14.256   9.027  13.875
 7830PROX   H1160681  14.174   9.081  13.822
 7830PROX   H1360682  14.220   9.010  13.979
 7830PROX    C260683  14.375   9.122  13.870
 7830PROX   H2160684  14.380   9.155  13.764
 7830PROX    C360685  14.508   9.061  13.915
 7830PROX   H3160686  14.508   9.047  14.025
 7830PROX   H3260687  14.509   8.960  13.869
 7830PROX   H3360688  14.583   9.131  13.871
 7831PROX    O160689  14.358   9.235  13.950
 7831PROX    C160690  14.265   9.322  13.882
 7831PROX   H1160691  14.320   9.364  13.795
 7831PROX   H1360692  14.170   9.280  13.842
 7831PROX    C260693  14.221   9.434  13.980
 7831PROX   H2160694  14.312   9.491  14.011
 7831PROX    C360695  14.137   9.373  14.097
 7831PROX   H3160696  14.052   9.311  14.060
 7831PROX   H3260697  14.210   9.307  14.148
 7831PROX   H3360698  14.107   9.452  14.169
 7832PROX    O160699  14.129   9.523  13.911
 7832PROX    C160700  14.165   9.662  13.916
 7832PROX   H1160701  14.274   9.676  13.935
 7832PROX   H1360702  14.129   9.715  13.826
 7832PROX    C260703  14.089   9.732  14.034
 7832PROX   H2160704  14.115   9.681  14.129
 7832PROX    C360705  13.934   9.721  14.020
 7832PROX   H3160706  13.894   9.776  14.108
 7832PROX   H3260707  13.895   9.764  13.926
 7832PROX   H3360708  13.909   9.613  14.029
 7833PROX    O160709  14.136   9.865  14.038
 7833PROX    C160710  14.114   9.924  14.165
 7833PROX   H1160711  14.008   9.938  14.196
 7833PROX   H1360712  14.167   9.877  14.251
 7833PROX    C260713  14.137  10.079  14.153
 7833PROX   H2160714  14.244  10.093  14.128
 7833PROX    C360715  14.128  10.142  14.291
 7833PROX   H3160716  14.023  10.176  14.302
 7833PROX   H3260717  14.147  10.072  14.376
 7833PROX   H3360718  14.187  10.234  14.307
 7834PROX    O160719  14.048  10.134  14.056
 7834PROX    C160720  14.114  10.156  13.926
 7834PROX   H1160721  14.200  10.226  13.935
 7834PROX   H1360722  14.145  10.068  13.866
 7834PROX    C260723  14.021  10.227  13.833
 7834PROX   H2160724  14.003  10.331  13.868
 7834PROX    C360725  13.896  10.144  13.799
 7834PROX   H3160726  13.833  10.195  13.723
 7834PROX   H3260727  13.928  10.058  13.736
 7834PROX   H3360728  13.836  10.096  13.880
 7835PROX    O160729  14.093  10.238  13.703
 7835PROX    C160730  14.037  10.333  13.610
 7835PROX   H1160731  13.964  10.274  13.551
 7835PROX   H1360732  13.982  10.407  13.672
 7835PROX    C260733  14.147  10.400  13.518
 7835PROX   H2160734  14.100  10.464  13.440
 7835PROX    C360735  14.214  10.287  13.430
 7835PROX   H3160736  14.279  10.336  13.354
 7835PROX   H3260737  14.269  10.226  13.505
 7835PROX   H3360738  14.143  10.222  13.376
 7836PROX    O160739  14.248  10.449  13.598
 7836PROX    C160740  14.214  10.579  13.642
 7836PROX   H1160741  14.235  10.649  13.558
 7836PROX   H1360742  14.107  10.585  13.667
 7836PROX    C260743  14.291  10.623  13.772
 7836PROX   H2160744  14.402  10.620  13.766
 7836PROX    C360745  14.248  10.523  13.889
 7836PROX   H3160746  14.140  10.501  13.895
 7836PROX   H3260747  14.313  10.436  13.866
 7836PROX   H3360748  14.290  10.556  13.986
 7837PROX    O160749  14.251  10.752  13.811
 7837PROX    C160750  14.348  10.830  13.876
 7837PROX   H1160751  14.304  10.895  13.954
 7837PROX   H1360752  14.428  10.768  13.923
 7837PROX    C260753  14.420  10.921  13.773
 7837PROX   H2160754  14.478  10.995  13.833
 7837PROX    C360755  14.332  10.999  13.681
 7837PROX   H3160756  14.251  10.932  13.646
 7837PROX   H3260757  14.290  11.098  13.711
 7837PROX   H3360758  14.382  11.014  13.583
 7838PROX    O160759  14.503  10.835  13.687
 7838PROX    C160760  14.634  10.843  13.730
 7838PROX   H1160761  14.668  10.949  13.736
 7838PROX   H1360762  14.641  10.792  13.829
 7838PROX    C260763  14.729  10.770  13.633
 7838PROX   H2160764  14.688  10.668  13.621
 7838PROX    C360765  14.873  10.748  13.687
 7838PROX   H3160766  14.911  10.828  13.754
 7838PROX   H3260767  14.882  10.656  13.749
 7838PROX   H3360768  14.940  10.739  13.599
 7839PROX    O160769  14.750  10.832  13.506
 7839PROX    C160770  14.668  10.766  13.409
 7839PROX   H1160771  14.571  10.729  13.448
 7839PROX   H1360772  14.648  10.839  13.327
 7839PROX    C260773  14.730  10.647  13.336
 7839PROX   H2160774  14.807  10.696  13.274
 7839PROX    C360775  14.627  10.577  13.253
 7839PROX   H3160776  14.665  10.481  13.212
 7839PROX   H3260777  14.530  10.565  13.305
 7839PROX   H3360778  14.602  10.637  13.163
 7840PROX    O160779  14.785  10.553  13.428
 7840PROX    C160780  14.879  10.468  13.365
 7840PROX   H1160781  14.835  10.399  13.290
 7840PROX   H1360782  14.940  10.534  13.300
 7840PROX    C260783  14.962  10.386  13.466
 7840PROX   H2160784  15.036  10.457  13.509
 7840PROX    C360785  15.026  10.259  13.410
 7840PROX   H3160786  15.086  10.297  13.324
 7840PROX   H3260787  15.104  10.225  13.481
 7840PROX   H3360788  14.953  10.177  13.394
 7841PROX    O160789  14.872  10.323  13.555
 7841PROX    C160790  14.897  10.350  13.692
 7841PROX   H1160791  14.978  10.278  13.718
 7841PROX   H1360792  14.920  10.456  13.717
 7841PROX    C260793  14.762  10.318  13.766
 7841PROX   H2160794  14.722  10.223  13.723
 7841PROX    C360795  14.645  10.416  13.741
 7841PROX   H3160796  14.676  10.506  13.798
 7841PROX   H3260797  14.639  10.442  13.633
 7841PROX   H3360798  14.546  10.375  13.769
 7842PROX    O160799  14.792  10.313  13.908
 7842PROX    C160800  14.743  10.195  13.972
 7842PROX   H1160801  14.633  10.204  13.985
 7842PROX   H1360802  14.769  10.104  13.913
 7842PROX    C260803  14.799  10.171  14.111
 7842PROX   H2160804  14.779  10.266  14.165
 7842PROX    C360805  14.953  10.145  14.115
 7842PROX   H3160806  14.999  10.234  14.067
 7842PROX   H3260807  14.987  10.124  14.218
 7842PROX   H3360808  14.988  10.065  14.046
 7843PROX    O160809  14.736  10.064  14.185
 7843PROX    C160810  14.745   9.933  14.122
 7843PROX   H1160811  14.814   9.926  14.035
 7843PROX   H1360812  14.769   9.860  14.203
 7843PROX    C260813  14.608   9.887  14.073
 7843PROX   H2160814  14.531   9.907  14.151
 7843PROX    C360815  14.609   9.731  14.047
 7843PROX   H3160816  14.676   9.681  14.120
 7843PROX   H3260817  14.507   9.689  14.058
 7843PROX   H3360818  14.657   9.714  13.948
 7844PROX    O160819  14.569   9.962  13.953
 7844PROX    C160820  14.449   9.919  13.895
 7844PROX   H1160821  14.448   9.809  13.879
 7844PROX   H1360822  14.357   9.951  13.948
 7844PROX    C260823  14.448   9.970  13.747
 7844PROX   H2160824  14.539   9.931  13.696
 7844PROX    C360825  14.434  10.122  13.751
 7844PROX   H3160826  14.476  10.163  13.845
 7844PROX   H3260827  14.450  10.175  13.655
 7844PROX   H3360828  14.323  10.136  13.757
 7845PROX    O160829  14.334   9.918  13.677
 7845PROX    C160830  14.357   9.931  13.535
 7845PROX   H1160831  14.357  10.037  13.502
 7845PROX   H1360832  14.448   9.879  13.500
 7845PROX    C260833  14.236   9.850  13.466
 7845PROX   H2160834  14.221   9.905  13.371
 7845PROX    C360835  14.109   9.877  13.541
 7845PROX   H3160836  14.016   9.846  13.489
 7845PROX   H3260837  14.092   9.813  13.631
 7845PROX   H3360838  14.097   9.984  13.566
 7846PROX    O160839  14.256   9.711  13.447
 7846PROX    C160840  14.307   9.678  13.319
 7846PROX   H1160841  14.243   9.721  13.239
 7846PROX   H1360842  14.404   9.733  13.316
 7846PROX    C260843  14.337   9.532  13.300
 7846PROX   H2160844  14.242   9.475  13.305
 7846PROX    C360845  14.440   9.469  13.405
 7846PROX   H3160846  14.458   9.371  13.357
 7846PROX   H3260847  14.532   9.528  13.425
 7846PROX   H3360848  14.375   9.462  13.496
 7847PROX    O160849  14.396   9.516  13.174
 7847PROX    C160850  14.304   9.504  13.067
 7847PROX   H1160851  14.231   9.425  13.093
 7847PROX   H1360852  14.246   9.599  13.061
 7847PROX    C260853  14.372   9.485  12.931
 7847PROX   H2160854  14.462   9.548  12.942
 7847PROX    C360855  14.286   9.537  12.820
 7847PROX   H3160856  14.262   9.645  12.835
 7847PROX   H3260857  14.327   9.535  12.717
 7847PROX   H3360858  14.181   9.500  12.818
 7848PROX    O160859  14.388   9.352  12.907
 7848PROX    C160860  14.490   9.295  12.988
 7848PROX   H1160861  14.555   9.376  13.028
 7848PROX   H1360862  14.450   9.251  13.081
 7848PROX    C260863  14.588   9.210  12.908
 7848PROX   H2160864  14.640   9.274  12.833
 7848PROX    C360865  14.514   9.107  12.824
 7848PROX   H3160866  14.477   9.013  12.871
 7848PROX   H3260867  14.432   9.146  12.760
 7848PROX   H3360868  14.591   9.069  12.754
 7849PROX    O160869  14.675   9.143  13.000
 7849PROX    C160870  14.773   9.224  13.068
 7849PROX   H1160871  14.879   9.191  13.064
 7849PROX   H1360872  14.768   9.321  13.013
 7849PROX    C260873  14.737   9.260  13.215
 7849PROX   H2160874  14.629   9.283  13.227
 7849PROX    C360875  14.813   9.386  13.251
 7849PROX   H3160876  14.921   9.366  13.233
 7849PROX   H3260877  14.769   9.466  13.187
 7849PROX   H3360878  14.797   9.416  13.357
 7850PROX    O160879  14.774   9.164  13.314
 7850PROX    C160880  14.701   9.033  13.300
 7850PROX   H1160881  14.712   8.976  13.205
 7850PROX   H1360882  14.761   8.963  13.363
 7850PROX    C260883  14.560   9.033  13.350
 7850PROX   H2160884  14.495   9.080  13.272
 7850PROX    C360885  14.541   9.125  13.478
 7850PROX   H3160886  14.433   9.133  13.503
 7850PROX   H3260887  14.598   9.065  13.552
 7850PROX   H3360888  14.584   9.227  13.465
 7851ETHO    O160889  14.516   8.903  13.373
 7851ETHO    C160890  14.500   8.817  13.260
 7851ETHO   H1160891  14.513   8.886  13.174
 7851ETHO   H1360892  14.393   8.786  13.257
 7851ETHO    C260893  14.591   8.696  13.236
 7851ETHO   H2160894  14.696   8.725  13.255
 7851ETHO   H2360895  14.593   8.672  13.128
 7852ETHO    O160896  14.546   8.587  13.314
 7852ETHO    C160897  14.650   8.495  13.349
 7852ETHO   H1160898  14.681   8.452  13.252
 7852ETHO   H1360899  14.737   8.553  13.387
 7852ETHO    C260900  14.612   8.387  13.455
 7852ETHO   H2160901  14.653   8.288  13.428
 7852ETHO   H2360902  14.502   8.379  13.446
 7853ETHO    O160903  14.659   8.412  13.587
 7853ETHO    C160904  14.613   8.524  13.646
 7853ETHO   H1160905  14.503   8.507  13.642
 7853ETHO   H1360906  14.619   8.615  13.582
 7853ETHO    C260907  14.642   8.555  13.795
 7853ETHO   H2160908  14.597   8.469  13.850
 7853ETHO   H2360909  14.579   8.642  13.820
 7854ETHO    O160910  14.775   8.582  13.837
 7854ETHO    C160911  14.851   8.462  13.840
 7854ETHO   H1160912  14.792   8.383  13.891
 7854ETHO   H1360913  14.864   8.414  13.740
 7854ETHO    C260914  14.981   8.469  13.922
 7854ETHO   H2160915  15.055   8.539  13.877
 7854ETHO   H2360916  15.021   8.366  13.937
 7855ETHO    O160917  14.938   8.524  14.052
 7855ETHO    C160918  15.047   8.531  14.145
 7855ETHO   H1160919  15.137   8.552  14.084
 7855ETHO   H1360920  15.067   8.439  14.203
 7855ETHO    C260921  15.044   8.654  14.246
 7855ETHO   H2160922  14.960   8.627  14.314
 7855ETHO   H2360923  15.025   8.745  14.185
 7856ETHO    O160924  15.175   8.660  14.312
 7856ETHO    C160925  15.178   8.698  14.450
 7856ETHO   H1160926  15.087   8.756  14.476
 7856ETHO   H1360927  15.171   8.604  14.509
 7856ETHO    C260928  15.301   8.767  14.494
 7856ETHO   H2160929  15.293   8.806  14.598
 7856ETHO   H2360930  15.304   8.855  14.426
 7857ETHO    O160931  15.412   8.679  14.469
 7857ETHO    C160932  15.487   8.716  14.359
 7857ETHO   H1160933  15.506   8.825  14.346
 7857ETHO   H1360934  15.438   8.685  14.264
 7857ETHO    C260935  15.619   8.644  14.381
 7857ETHO   H2160936  15.688   8.643  14.295
 7857ETHO   H2360937  15.599   8.536  14.398
 7858ETHO    O160938  15.697   8.700  14.484
 7858ETHO    C160939  15.810   8.618  14.509
 7858ETHO   H1160940  15.779   8.514  14.535
 7858ETHO   H1360941  15.882   8.620  14.425
 7858ETHO    C260942  15.885   8.677  14.631
 7858ETHO   H2160943  15.971   8.617  14.667
 7858ETHO   H2360944  15.930   8.767  14.583
 7859ETHO    O160945  15.811   8.718  14.749
 7859ETHO    C160946  15.883   8.824  14.822
 7859ETHO   H1160947  15.991   8.805  14.804
 7859ETHO   H1360948  15.848   8.917  14.771
 7859ETHO    C260949  15.861   8.810  14.973
 7859ETHO   H2160950  15.756   8.782  14.993
 7859ETHO   H2360951  15.886   8.904  15.025
 7860ETHO    O160952  15.939   8.704  15.009
 7860ETHO    C160953  15.923   8.671  15.146
 7860ETHO   H1160954  15.935   8.764  15.205
 7860ETHO   H1360955  15.826   8.621  15.167
 7860ETHO    C260956  16.044   8.589  15.189
 7860ETHO   H2160957  16.137   8.648  15.176
 7860ETHO   H2360958  16.042   8.495  15.131
 7861ETHO    O160959  16.032   8.548  15.328
 7861ETHO    C160960  16.132   8.449  15.374
 7861ETHO   H1160961  16.111   8.345  15.340
 7861ETHO   H1360962  16.233   8.486  15.347
 7861ETHO    C260963  16.127   8.442  15.533
 7861ETHO   H2160964  16.020   8.459  15.556
 7861ETHO   H2360965  16.177   8.527  15.583
 7862ETHO    O160966  16.158   8.311  15.575
 7862ETHO    C160967  16.129   8.292  15.708
 7862ETHO   H1160968  16.029   8.243  15.712
 7862ETHO   H1360969  16.131   8.380  15.776
 7862ETHO    C260970  16.225   8.189  15.763
 7862ETHO   H2160971  16.210   8.174  15.872
 7862ETHO   H2360972  16.329   8.219  15.738
 7863ETHO    O160973  16.202   8.058  15.714
 7863ETHO    C160974  16.312   7.976  15.744
 7863ETHO   H1160975  16.403   8.015  15.692
 7863ETHO   H1360976  16.339   7.969  15.851
 7863ETHO    C260977  16.291   7.848  15.676
 7863ETHO   H2160978  16.389   7.798  15.656
 7863ETHO   H2360979  16.250   7.856  15.573
 7864ETHO    O160980  16.204   7.761  15.753
 7864ETHO    C160981  16.178   7.644  15.680
 7864ETHO   H1160982  16.192   7.672  15.573
 7864ETHO   H1360983  16.074   7.612  15.703
 7864ETHO    C260984  16.276   7.526  15.699
 7864ETHO   H2160985  16.286   7.511  15.808
 7864ETHO   H2360986  16.371   7.565  15.656
 7865ETHO    O160987  16.229   7.405  15.638
 7865ETHO    C160988  16.319   7.351  15.553
 7865ETHO   H1160989  16.332   7.412  15.461
 7865ETHO   H1360990  16.418   7.335  15.602
 7865ETHO    C260991  16.272   7.210  15.497
 7865ETHO   H2160992  16.336   7.196  15.408
 7865ETHO   H2360993  16.163   7.215  15.474
 7866ETHO    O160994  16.320   7.111  15.585
 7866ETHO    C160995  16.235   6.996  15.578
 7866ETHO   H1160996  16.207   6.973  15.473
 7866ETHO   H1360997  16.145   7.022  15.638
 7866ETHO    C260998  16.289   6.869  15.643
 7866ETHO   H2160999  16.370   6.824  15.581
 7866ETHO   H2361000  16.200   6.802  15.643
 7867ETHO    O161001  16.334   6.892  15.771
 7867ETHO    C161002  16.351   6.769  15.846
 7867ETHO   H1161003  16.271   6.696  15.823
 7867ETHO   H1361004  16.448   6.721  15.821
 7867ETHO    C261005  16.338   6.795  15.992
 7867ETHO   H2161006  16.363   6.899  16.023
 7867ETHO   H2361007  16.401   6.724  16.048
 7868ETHO    O161008  16.206   6.768  16.043
 7868ETHO    C161009  16.192   6.815  16.171
 7868ETHO   H1161010  16.284   6.799  16.231
 7868ETHO   H1361011  16.104   6.770  16.222
 7868ETHO    C261012  16.169   6.973  16.179
 7868ETHO   H2161013  16.101   6.994  16.264
 7868ETHO   H2361014  16.116   7.012  16.089
 7869ETHO    O161015  16.286   7.049  16.217
 7869ETHO    C161016  16.256   7.184  16.251
 7869ETHO   H1161017  16.230   7.239  16.158
 7869ETHO   H1361018  16.167   7.191  16.318
 7869ETHO    C261019  16.373   7.248  16.327
 7869ETHO   H2161020  16.374   7.206  16.429
 7869ETHO   H2361021  16.361   7.359  16.328
 7870ETHO    O161022  16.495   7.222  16.254
 7870ETHO    C161023  16.561   7.093  16.285
 7870ETHO   H1161024  16.489   7.014  16.313
 7870ETHO   H1361025  16.604   7.067  16.186
 7870ETHO    C261026  16.663   7.120  16.396
 7870ETHO   H2161027  16.674   7.024  16.451
 7870ETHO   H2361028  16.621   7.186  16.475
 7871ETHO    O161029  16.801   7.166  16.371
 7871ETHO    C161030  16.856   7.178  16.504
 7871ETHO   H1161031  16.798   7.249  16.566
 7871ETHO   H1361032  16.859   7.079  16.555
 7871ETHO    C261033  16.997   7.228  16.492
 7871ETHO   H2161034  17.057   7.173  16.416
 7871ETHO   H2361035  17.041   7.213  16.594
 7872ETHO    O161036  16.993   7.370  16.459
 7872ETHO    C161037  17.119   7.438  16.470
 7872ETHO   H1161038  17.109   7.542  16.507
 7872ETHO   H1361039  17.196   7.384  16.530
 7872ETHO    C261040  17.181   7.457  16.329
 7872ETHO   H2161041  17.210   7.360  16.281
 7872ETHO   H2361042  17.274   7.516  16.343
 7873ETHO    O161043  17.108   7.529  16.234
 7873ETHO    C161044  17.184   7.562  16.123
 7873ETHO   H1161045  17.214   7.463  16.082
 7873ETHO   H1361046  17.278   7.616  16.146
 7873ETHO    C261047  17.091   7.627  16.032
 7873ETHO   H2161048  17.000   7.564  16.036
 7873ETHO   H2361049  17.121   7.629  15.925
 7874ETHO    O161050  17.051   7.760  16.070
 7874ETHO    C161051  17.155   7.855  16.052
 7874ETHO   H1161052  17.216   7.849  16.145
 7874ETHO   H1361053  17.224   7.841  15.966
 7874ETHO    C261054  17.087   7.997  16.029
 7874ETHO   H2161055  17.152   8.068  16.084
 7874ETHO   H2361056  16.987   8.004  16.075
 7875ETHO    O161057  17.078   8.031  15.892
 7875ETHO    C161058  17.025   8.162  15.868
 7875ETHO   H1161059  17.074   8.230  15.941
 7875ETHO   H1361060  16.918   8.162  15.899
 7875ETHO    C261061  17.039   8.211  15.725
 7875ETHO   H2161062  17.149   8.226  15.720
 7875ETHO   H2361063  16.976   8.300  15.703
 7876ETHO    O161064  17.000   8.117  15.629
 7876ETHO    C161065  17.070   8.139  15.510
 7876ETHO   H1161066  17.180   8.132  15.514
 7876ETHO   H1361067  17.035   8.053  15.449
 7876ETHO    C261068  17.021   8.255  15.429
 7876ETHO   H2161069  16.911   8.262  15.417
 7876ETHO   H2361070  17.053   8.233  15.325
 7877ETHO    O161071  17.077   8.373  15.484
 7877ETHO    C161072  17.017   8.487  15.430
 7877ETHO   H1161073  16.907   8.478  15.426
 7877ETHO   H1361074  17.040   8.481  15.322
 7877ETHO    C261075  17.062   8.623  15.492
 7877ETHO   H2161076  17.015   8.701  15.428
 7877ETHO   H2361077  17.172   8.637  15.496
 7878ETHO    O161078  17.017   8.643  15.626
 7878ETHO    C161079  16.876   8.681  15.627
 7878ETHO   H1161080  16.853   8.770  15.565
 7878ETHO   H1361081  16.801   8.604  15.600
 7878ETHO    C261082  16.850   8.733  15.772
 7878ETHO   H2161083  16.760   8.798  15.770
 7878ETHO   H2361084  16.942   8.786  15.807
 7879ETHO    O161085  16.832   8.635  15.864
 7879ETHO    C161086  16.774   8.680  15.986
 7879ETHO   H1161087  16.681   8.734  15.958
 7879ETHO   H1361088  16.841   8.751  16.039
 7879ETHO    C261089  16.734   8.565  16.086
 7879ETHO   H2161090  16.676   8.488  16.031
 7879ETHO   H2361091  16.662   8.611  16.157
 7880ETHO    O161092  16.841   8.501  16.147
 7880ETHO    C161093  16.805   8.392  16.224
 7880ETHO   H1161094  16.695   8.387  16.238
 7880ETHO   H1361095  16.839   8.300  16.172
 7880ETHO    C261096  16.883   8.400  16.352
 7880ETHO   H2161097  16.857   8.315  16.417
 7880ETHO   H2361098  16.852   8.480  16.422
 7881ETHO    O161099  17.019   8.409  16.328
 7881ETHO    C161100  17.090   8.417  16.455
 7881ETHO   H1161101  17.055   8.517  16.490
 7881ETHO   H1361102  17.052   8.342  16.527
 7881ETHO    C261103  17.243   8.427  16.451
 7881ETHO   H2161104  17.276   8.456  16.349
 7881ETHO   H2361105  17.287   8.332  16.489
 7882ETHO    O161106  17.287   8.534  16.535
 7882ETHO    C161107  17.427   8.561  16.524
 7882ETHO   H1161108  17.471   8.476  16.467
 7882ETHO   H1361109  17.440   8.648  16.457
 7882ETHO    C261110  17.483   8.595  16.657
 7882ETHO   H2161111  17.442   8.688  16.701
 7882ETHO   H2361112  17.593   8.614  16.658
 7883ETHO    O161113  17.446   8.506  16.763
 7883ETHO    C161114  17.510   8.381  16.740
 7883ETHO   H1161115  17.445   8.321  16.671
 7883ETHO   H1361116  17.614   8.389  16.701
 7883ETHO    C261117  17.509   8.307  16.874
 7883ETHO   H2161118  17.480   8.200  16.861
 7883ETHO   H2361119  17.441   8.354  16.948
 7884ETHO    O161120  17.638   8.290  16.931
 7884ETHO    C161121  17.673   8.395  17.015
 7884ETHO   H1161122  17.595   8.427  17.086
 7884ETHO   H1361123  17.695   8.483  16.952
 7884ETHO    C261124  17.804   8.367  17.093
 7884ETHO   H2161125  17.787   8.274  17.151
 7884ETHO   H2361126  17.811   8.445  17.172
 7885ETHO    O161127  17.918   8.367  17.006
 7885ETHO    C161128  17.972   8.495  16.972
 7885ETHO   H1161129  17.902   8.561  16.918
 7885ETHO   H1361130  18.002   8.553  17.062
 7885ETHO    C261131  18.094   8.479  16.887
 7885ETHO   H2161132  18.128   8.580  16.854
 7885ETHO   H2361133  18.079   8.416  16.797
 7886ETHO    O161134  18.200   8.416  16.965
 7886ETHO    C161135  18.330   8.428  16.913
 7886ETHO   H1161136  18.381   8.514  16.961
 7886ETHO   H1361137  18.319   8.446  16.804
 7886ETHO    C261138  18.414   8.302  16.930
 7886ETHO   H2161139  18.503   8.313  16.865
 7886ETHO   H2361140  18.361   8.218  16.880
 7887ETHO    O161141  18.438   8.276  17.066
 7887ETHO    C161142  18.577   8.256  17.083
 7887ETHO   H1161143  18.632   8.333  17.027
 7887ETHO   H1361144  18.604   8.288  17.186
 7887ETHO    C261145  18.628   8.121  17.043
 7887ETHO   H2161146  18.738   8.115  17.052
 7887ETHO   H2361147  18.603   8.103  16.937
 7888ETHO    O161148  18.571   8.032  17.134
 7888ETHO    C161149  18.647   7.908  17.152
 7888ETHO   H1161150  18.743   7.927  17.206
 7888ETHO   H1361151  18.672   7.869  17.051
 7888ETHO    C261152  18.569   7.806  17.240
 7888ETHO   H2161153  18.480   7.771  17.185
 7888ETHO   H2361154  18.541   7.846  17.340
 7889ETHO    O161155  18.652   7.691  17.262
 7889ETHO    C161156  18.582   7.594  17.337
 7889ETHO   H1161157  18.527   7.640  17.422
 7889ETHO   H1361158  18.512   7.546  17.266
 7889ETHO    C261159  18.680   7.495  17.400
 7889ETHO   H2161160  18.625   7.422  17.462
 7889ETHO   H2361161  18.753   7.537  17.473
 7890ETHO    O161162  18.762   7.431  17.302
 7890ETHO    C161163  18.854   7.343  17.362
 7890ETHO   H1161164  18.791   7.296  17.439
 7890ETHO   H1361165  18.945   7.391  17.405
 7890ETHO    C261166  18.909   7.236  17.271
 7890ETHO   H2161167  18.821   7.178  17.235
 7890ETHO   H2361168  18.973   7.164  17.326
 7891ETHO    O161169  18.982   7.297  17.162
 7891ETHO    C161170  19.022   7.200  17.078
 7891ETHO   H1161171  19.089   7.131  17.132
 7891ETHO   H1361172  18.926   7.157  17.041
 7891ETHO    C261173  19.096   7.261  16.958
 7891ETHO   H2161174  19.037   7.338  16.905
 7891ETHO   H2361175  19.180   7.325  16.993
 7892ETHO    O161176  19.133   7.159  16.860
 7892ETHO    C161177  19.182   7.213  16.738
 7892ETHO   H1161178  19.251   7.296  16.766
 7892ETHO   H1361179  19.100   7.253  16.674
 7892ETHO    C261180  19.271   7.103  16.665
 7892ETHO   H2161181  19.291   7.147  16.564
 7892ETHO   H2361182  19.212   7.012  16.642
 7893ETHO    O161183  19.393   7.067  16.719
 7893ETHO    C161184  19.377   7.009  16.850
 7893ETHO   H1161185  19.359   7.079  16.935
 7893ETHO   H1361186  19.286   6.944  16.849
 7893ETHO    C261187  19.492   6.920  16.897
 7893ETHO   H2161188  19.514   6.836  16.827
 7893ETHO   H2361189  19.459   6.872  16.992
 7894ETHO    O161190  19.614   6.985  16.920
 7894ETHO    C161191  19.694   7.008  16.814
 7894ETHO   H1161192  19.763   7.092  16.836
 7894ETHO   H1361193  19.639   7.044  16.724
 7894ETHO    C261194  19.771   6.884  16.782
 7894ETHO   H2161195  19.704   6.816  16.725
 7894ETHO   H2361196  19.794   6.836  16.879
 7895ETHO    O161197  19.907   6.895  16.720
 7895ETHO    C161198  19.896   6.957  16.594
 7895ETHO   H1161199  19.813   6.911  16.536
 7895ETHO   H1361200  19.871   7.064  16.610
 7895ETHO    C261201  20.025   6.950  16.506
 7895ETHO   H2161202  20.014   6.996  16.406
 7895ETHO   H2361203  20.046   6.842  16.495
 7896ETHO    O161204  20.147   6.997  16.571
 7896ETHO    C161205  20.244   7.055  16.482
 7896ETHO   H1161206  20.198   7.132  16.417
 7896ETHO   H1361207  20.320   7.095  16.553
 7896ETHO    C261208  20.326   6.958  16.393
 7896ETHO   H2161209  20.371   6.881  16.459
 7896ETHO   H2361210  20.410   7.016  16.350
 7897ETHO    O161211  20.244   6.894  16.288
 7897ETHO    C161212  20.226   6.980  16.168
 7897ETHO   H1161213  20.185   7.074  16.209
 7897ETHO   H1361214  20.321   7.005  16.117
 7897ETHO    C261215  20.107   6.918  16.084
 7897ETHO   H2161216  20.129   6.810  16.093
 7897ETHO   H2361217  20.102   6.942  15.975
 7898ETHO    O161218  19.975   6.945  16.139
 7898ETHO    C161219  19.875   6.852  16.086
 7898ETHO   H1161220  19.820   6.884  15.995
 7898ETHO   H1361221  19.928   6.759  16.056
 7898ETHO    C261222  19.772   6.819  16.194
 7898ETHO   H2161223  19.833   6.822  16.288
 7898ETHO   H2361224  19.735   6.715  16.184
 7899ETHO    O161225  19.675   6.921  16.182
 7899ETHO    C161226  19.582   6.907  16.287
 7899ETHO   H1161227  19.644   6.949  16.368
 7899ETHO   H1361228  19.565   6.801  16.313
 7899ETHO    C261229  19.458   6.990  16.268
 7899ETHO   H2161230  19.477   7.098  16.249
 7899ETHO   H2361231  19.398   6.973  16.360
 7900ETHO    O161232  19.390   6.945  16.152
 7900ETHO    C161233  19.265   7.009  16.139
 7900ETHO   H1161234  19.193   6.973  16.216
 7900ETHO   H1361235  19.294   7.114  16.161
 7900ETHO    C261236  19.204   6.980  16.003
 7900ETHO   H2161237  19.094   6.965  16.012
 7900ETHO   H2361238  19.238   6.887  15.952
 7901ETHO    O161239  19.228   7.092  15.919
 7901ETHO    C161240  19.156   7.077  15.802
 7901ETHO   H1161241  19.054   7.035  15.816
 7901ETHO   H1361242  19.207   7.016  15.725
 7901ETHO    C261243  19.128   7.207  15.723
 7901ETHO   H2161244  19.085   7.182  15.624
 7901ETHO   H2361245  19.226   7.260  15.721
 7902ETHO    O161246  19.048   7.302  15.802
 7902ETHO    C161247  19.035   7.425  15.726
 7902ETHO   H1161248  19.136   7.469  15.710
 7902ETHO   H1361249  18.992   7.408  15.625
 7902ETHO    C261250  18.965   7.536  15.804
 7902ETHO   H2161251  18.993   7.627  15.748
 7902ETHO   H2361252  18.997   7.531  15.911
 7903ETHO    O161253  18.822   7.518  15.795
 7903ETHO    C161254  18.756   7.633  15.848
 7903ETHO   H1161255  18.788   7.720  15.786
 7903ETHO   H1361256  18.808   7.651  15.945
 7903ETHO    C261257  18.602   7.626  15.853
 7903ETHO   H2161258  18.576   7.561  15.766
 7903ETHO   H2361259  18.563   7.730  15.848
 7904ETHO    O161260  18.555   7.553  15.961
 7904ETHO    C161261  18.448   7.616  16.018
 7904ETHO   H1161262  18.477   7.711  16.068
 7904ETHO   H1361263  18.363   7.633  15.948
 7904ETHO    C261264  18.388   7.547  16.140
 7904ETHO   H2161265  18.360   7.442  16.117
 7904ETHO   H2361266  18.303   7.611  16.171
 7905ETHO    O161267  18.483   7.542  16.240
 7905ETHO    C161268  18.435   7.466  16.350
 7905ETHO   H1161269  18.382   7.370  16.331
 7905ETHO   H1361270  18.359   7.528  16.402
 7905ETHO    C261271  18.553   7.440  16.443
 7905ETHO   H2161272  18.507   7.393  16.533
 7905ETHO   H2361273  18.601   7.535  16.476
 7906ETHO    O161274  18.644   7.349  16.378
 7906ETHO    C161275  18.766   7.326  16.456
 7906ETHO   H1161276  18.842   7.292  16.383
 7906ETHO   H1361277  18.796   7.429  16.485
 7906ETHO    C261278  18.756   7.236  16.576
 7906ETHO   H2161279  18.860   7.196  16.584
 7906ETHO   H2361280  18.697   7.146  16.548
 7907ETHO    O161281  18.718   7.297  16.698
 7907ETHO    C161282  18.726   7.203  16.804
 7907ETHO   H1161283  18.655   7.121  16.778
 7907ETHO   H1361284  18.831   7.170  16.814
 7907ETHO    C261285  18.669   7.280  16.925
 7907ETHO   H2161286  18.726   7.369  16.958
 7907ETHO   H2361287  18.671   7.202  17.004
 7908ETHO    O161288  18.532   7.318  16.907
 7908ETHO    C161289  18.478   7.386  17.019
 7908ETHO   H1161290  18.524   7.343  17.110
 7908ETHO   H1361291  18.530   7.484  17.019
 7908ETHO    C261292  18.331   7.430  17.009
 7908ETHO   H2161293  18.330   7.490  16.915
 7908ETHO   H2361294  18.311   7.507  17.087
 7909ETHO    O161295  18.245   7.315  17.000
 7909ETHO    C161296  18.122   7.346  16.935
 7909ETHO   H1161297  18.040   7.376  17.003
 7909ETHO   H1361298  18.117   7.422  16.854
 7909ETHO    C261299  18.060   7.219  16.868
 7909ETHO   H2161300  17.969   7.224  16.805
 7909ETHO   H2361301  18.056   7.155  16.959
 7910ETHO    O161302  18.148   7.160  16.768
 7910ETHO    C161303  18.105   7.036  16.724
 7910ETHO   H1161304  18.006   7.053  16.677
 7910ETHO   H1361305  18.092   6.958  16.802
 7910ETHO    C261306  18.211   6.987  16.618
 7910ETHO   H2161307  18.201   6.877  16.608
 7910ETHO   H2361308  18.316   7.006  16.650
 7911ETHO    O161309  18.205   7.052  16.491
 7911ETHO    C161310  18.319   7.025  16.404
 7911ETHO   H1161311  18.388   7.104  16.441
 7911ETHO   H1361312  18.353   6.923  16.429
 7911ETHO    C261313  18.281   7.016  16.257
 7911ETHO   H2161314  18.186   6.958  16.260
 7911ETHO   H2361315  18.347   6.964  16.185
 7912ETHO    O161316  18.263   7.144  16.195
 7912ETHO    C161317  18.168   7.135  16.085
 7912ETHO   H1161318  18.067   7.114  16.126
 7912ETHO   H1361319  18.207   7.059  16.014
 7912ETHO    C261320  18.138   7.271  16.017
 7912ETHO   H2161321  18.076   7.237  15.930
 7912ETHO   H2361322  18.236   7.306  15.978
 7913ETHO    O161323  18.077   7.367  16.101
 7913ETHO    C161324  18.051   7.484  16.026
 7913ETHO   H1161325  18.147   7.534  16.004
 7913ETHO   H1361326  18.002   7.443  15.934
 7913ETHO    C261327  17.945   7.582  16.080
 7913ETHO   H2161328  17.871   7.544  16.154
 7913ETHO   H2361329  17.878   7.616  15.998
 7914ETHO    O161330  18.014   7.692  16.127
 7914ETHO    C161331  18.033   7.684  16.270
 7914ETHO   H1161332  18.095   7.595  16.294
 7914ETHO   H1361333  17.938   7.663  16.325
 7914ETHO    C261334  18.101   7.813  16.310
 7914ETHO   H2161335  18.082   7.837  16.417
 7914ETHO   H2361336  18.052   7.898  16.257
 7915ETHO    O161337  18.241   7.822  16.273
 7915ETHO    C161338  18.302   7.949  16.296
 7915ETHO   H1161339  18.252   8.008  16.375
 7915ETHO   H1361340  18.410   7.931  16.314
 7915ETHO    C261341  18.289   8.040  16.171
 7915ETHO   H2161342  18.317   7.982  16.080
 7915ETHO   H2361343  18.358   8.126  16.170
 7916ETHO    O161344  18.164   8.095  16.161
 7916ETHO    C161345  18.129   8.126  16.024
 7916ETHO   H1161346  18.090   8.029  15.986
 7916ETHO   H1361347  18.218   8.154  15.964
 7916ETHO    C261348  18.038   8.246  16.013
 7916ETHO   H2161349  18.071   8.300  15.921
 7916ETHO   H2361350  18.064   8.307  16.102
 7917ETHO    O161351  17.898   8.221  16.021
 7917ETHO    C161352  17.820   8.344  16.025
 7917ETHO   H1161353  17.850   8.393  16.120
 7917ETHO   H1361354  17.841   8.414  15.941
 7917ETHO    C261355  17.669   8.311  16.034
 7917ETHO   H2161356  17.596   8.394  16.028
 7917ETHO   H2361357  17.643   8.259  16.129
 7918ETHO    O161358  17.644   8.231  15.922
 7918ETHO    C161359  17.511   8.183  15.916
 7918ETHO   H1161360  17.470   8.143  16.011
 7918ETHO   H1361361  17.446   8.272  15.897
 7918ETHO    C261362  17.479   8.074  15.814
 7918ETHO   H2161363  17.490   8.112  15.710
 7918ETHO   H2361364  17.370   8.053  15.815
 7919ETHO    O161365  17.557   7.952  15.836
 7919ETHO    C161366  17.541   7.842  15.749
 7919ETHO   H1161367  17.433   7.841  15.721
 7919ETHO   H1361368  17.597   7.855  15.654
 7919ETHO    C261369  17.597   7.713  15.812
 7919ETHO   H2161370  17.706   7.725  15.829
 7919ETHO   H2361371  17.592   7.631  15.737
 7920ETHO    O161372  17.529   7.677  15.934
 7920ETHO    C161373  17.544   7.540  15.954
 7920ETHO   H1161374  17.455   7.501  15.901
 7920ETHO   H1361375  17.637   7.505  15.904
 7920ETHO    C261376  17.550   7.515  16.102
 7920ETHO   H2161377  17.449   7.475  16.124
 7920ETHO   H2361378  17.576   7.602  16.165
 7921ETHO    O161379  17.648   7.411  16.120
 7921ETHO    C161380  17.645   7.360  16.253
 7921ETHO   H1161381  17.555   7.295  16.248
 7921ETHO   H1361382  17.622   7.432  16.334
 7921ETHO    C261383  17.785   7.290  16.274
 7921ETHO   H2161384  17.844   7.362  16.336
 7921ETHO   H2361385  17.840   7.270  16.180
 7922ETHO    O161386  17.767   7.159  16.335
 7922ETHO    C161387  17.874   7.075  16.308
 7922ETHO   H1161388  17.867   7.039  16.203
 7922ETHO   H1361389  17.976   7.120  16.306
 7922ETHO    C261390  17.882   6.957  16.401
 7922ETHO   H2161391  17.892   7.002  16.503
 7922ETHO   H2361392  17.965   6.890  16.369
 7923ETHO    O161393  17.768   6.878  16.406
 7923ETHO    C161394  17.753   6.816  16.535
 7923ETHO   H1161395  17.653   6.768  16.541
 7923ETHO   H1361396  17.740   6.904  16.602
 7923ETHO    C261397  17.857   6.709  16.576
 7923ETHO   H2161398  17.854   6.701  16.687
 7923ETHO   H2361399  17.961   6.739  16.550
 7924ETHO    O161400  17.823   6.584  16.518
 7924ETHO    C161401  17.919   6.485  16.553
 7924ETHO   H1161402  18.019   6.523  16.525
 7924ETHO   H1361403  17.929   6.468  16.662
 7924ETHO    C261404  17.900   6.350  16.485
 7924ETHO   H2161405  17.956   6.271  16.538
 7924ETHO   H2361406  17.793   6.328  16.505
 7925ETHO    O161407  17.936   6.356  16.351
 7925ETHO    C161408  17.853   6.270  16.282
 7925ETHO   H1161409  17.751   6.315  16.281
 7925ETHO   H1361410  17.850   6.178  16.343
 7925ETHO    C261411  17.902   6.233  16.140
 7925ETHO   H2161412  17.943   6.323  16.091
 7925ETHO   H2361413  17.818   6.206  16.073
 7926ETHO    O161414  18.004   6.138  16.144
 7926ETHO    C161415  18.036   6.105  16.007
 7926ETHO   H1161416  17.951   6.115  15.936
 7926ETHO   H1361417  18.112   6.176  15.968
 7926ETHO    C261418  18.079   5.958  15.983
 7926ETHO   H2161419  18.151   5.936  16.065
 7926ETHO   H2361420  18.137   5.957  15.889
 7927ETHO    O161421  17.967   5.872  15.976
 7927ETHO    C161422  17.999   5.737  15.954
 7927ETHO   H1161423  17.907   5.673  15.954
 7927ETHO   H1361424  18.045   5.697  16.047
 7927ETHO    C261425  18.090   5.718  15.834
 7927ETHO   H2161426  18.068   5.784  15.747
 7927ETHO   H2361427  18.059   5.616  15.802
 7928ETHO    O161428  18.229   5.715  15.870
 7928ETHO    C161429  18.314   5.764  15.769
 7928ETHO   H1161430  18.351   5.695  15.689
 7928ETHO   H1361431  18.264   5.846  15.715
 7928ETHO    C261432  18.438   5.825  15.836
 7928ETHO   H2161433  18.416   5.887  15.925
 7928ETHO   H2361434  18.495   5.875  15.754
 7929ETHO    O161435  18.532   5.719  15.857
 7929ETHO    C161436  18.492   5.618  15.948
 7929ETHO   H1161437  18.435   5.542  15.889
 7929ETHO   H1361438  18.435   5.661  16.033
 7929ETHO    C261439  18.616   5.547  16.006
 7929ETHO   H2161440  18.574   5.468  16.072
 7929ETHO   H2361441  18.679   5.613  16.068
 7930ETHO    O161442  18.682   5.475  15.908
 7930ETHO    C161443  18.808   5.426  15.951
 7930ETHO   H1161444  18.869   5.499  16.006
 7930ETHO   H1361445  18.785   5.345  16.023
 7930ETHO    C261446  18.887   5.371  15.826
 7930ETHO   H2161447  18.994   5.371  15.855
 7930ETHO   H2361448  18.869   5.440  15.740
 7931ETHO    O161449  18.858   5.234  15.804
 7931ETHO    C161450  18.947   5.176  15.717
 7931ETHO   H1161451  19.050   5.184  15.758
 7931ETHO   H1361452  18.938   5.237  15.625
 7931ETHO    C261453  18.903   5.032  15.692
 7931ETHO   H2161454  18.958   4.994  15.604
 7931ETHO   H2361455  18.798   5.045  15.656
 7932ETHO    O161456  18.901   4.944  15.799
 7932ETHO    C161457  19.020   4.901  15.843
 7932ETHO   H1161458  19.060   4.820  15.779
 7932ETHO   H1361459  19.096   4.981  15.847
 7932ETHO    C261460  18.982   4.856  15.982
 7932ETHO   H2161461  19.078   4.837  16.034
 7932ETHO   H2361462  18.931   4.942  16.032
 7933ETHO    O161463  18.911   4.736  15.978
 7933ETHO    C161464  18.880   4.687  16.109
 7933ETHO   H1161465  18.984   4.669  16.143
 7933ETHO   H1361466  18.838   4.759  16.182
 7933ETHO    C261467  18.788   4.562  16.099
 7933ETHO   H2161468  18.705   4.567  16.026
 7933ETHO   H2361469  18.746   4.537  16.199
 7934ETHO    O161470  18.871   4.448  16.066
 7934ETHO    C161471  18.805   4.325  16.090
 7934ETHO   H1161472  18.889   4.252  16.087
 7934ETHO   H1361473  18.771   4.313  16.194
 7934ETHO    C261474  18.682   4.279  16.007
 7934ETHO   H2161475  18.613   4.366  16.010
 7934ETHO   H2361476  18.627   4.197  16.057
 7935ETHO    O161477  18.717   4.244  15.880
 7935ETHO    C161478  18.607   4.236  15.799
 7935ETHO   H1161479  18.531   4.167  15.842
 7935ETHO   H1361480  18.556   4.335  15.790
 7935ETHO    C261481  18.646   4.183  15.664
 7935ETHO   H2161482  18.553   4.139  15.622
 7935ETHO   H2361483  18.720   4.100  15.675
 7936ETHO    O161484  18.702   4.281  15.573
 7936ETHO    C161485  18.715   4.241  15.441
 7936ETHO   H1161486  18.614   4.217  15.403
 7936ETHO   H1361487  18.765   4.142  15.449
 7936ETHO    C261488  18.800   4.346  15.362
 7936ETHO   H2161489  18.780   4.450  15.396
 7936ETHO   H2361490  18.767   4.343  15.256
 7937ETHO    O161491  18.938   4.316  15.368
 7937ETHO    C161492  19.017   4.408  15.292
 7937ETHO   H1161493  19.020   4.369  15.188
 7937ETHO   H1361494  18.977   4.511  15.297
 7937ETHO    C261495  19.165   4.413  15.332
 7937ETHO   H2161496  19.233   4.424  15.245
 7937ETHO   H2361497  19.196   4.324  15.390
 7938ETHO    O161498  19.175   4.536  15.406
 7938ETHO    C161499  19.299   4.550  15.462
 7938ETHO   H1161500  19.365   4.546  15.372
 7938ETHO   H1361501  19.319   4.464  15.530
 7938ETHO    C261502  19.339   4.681  15.522
 7938ETHO   H2161503  19.449   4.676  15.533
 7938ETHO   H2361504  19.290   4.687  15.622
 7939ETHO    O161505  19.302   4.794  15.443
 7939ETHO    C161506  19.324   4.900  15.526
 7939ETHO   H1161507  19.249   4.907  15.608
 7939ETHO   H1361508  19.430   4.893  15.558
 7939ETHO    C261509  19.292   5.023  15.428
 7939ETHO   H2161510  19.366   5.027  15.345
 7939ETHO   H2361511  19.311   5.114  15.489
 7940ETHO    O161512  19.154   5.023  15.384
 7940ETHO    C161513  19.094   5.152  15.370
 7940ETHO   H1161514  19.169   5.233  15.352
 7940ETHO   H1361515  19.055   5.169  15.472
 7940ETHO    C261516  18.962   5.141  15.295
 7940ETHO   H2161517  18.888   5.075  15.344
 7940ETHO   H2361518  19.002   5.114  15.195
 7941ETHO    O161519  18.906   5.268  15.277
 7941ETHO    C161520  18.787   5.267  15.193
 7941ETHO   H1161521  18.810   5.232  15.090
 7941ETHO   H1361522  18.714   5.198  15.240
 7941ETHO    C261523  18.718   5.404  15.174
 7941ETHO   H2161524  18.679   5.436  15.273
 7941ETHO   H2361525  18.636   5.395  15.099
 7942ETHO    O161526  18.807   5.505  15.127
 7942ETHO    C161527  18.759   5.634  15.137
 7942ETHO   H1161528  18.720   5.660  15.238
 7942ETHO   H1361529  18.672   5.649  15.070
 7942ETHO    C261530  18.866   5.741  15.117
 7942ETHO   H2161531  18.952   5.728  15.186
 7942ETHO   H2361532  18.827   5.838  15.155
 7943ETHO    O161533  18.899   5.757  14.981
 7943ETHO    C161534  18.943   5.891  14.942
 7943ETHO   H1161535  18.927   5.902  14.832
 7943ETHO   H1361536  18.899   5.976  14.998
 7943ETHO    C261537  19.096   5.908  14.962
 7943ETHO   H2161538  19.127   5.896  15.068
 7943ETHO   H2361539  19.115   6.009  14.921
 7944ETHO    O161540  19.173   5.826  14.874
 7944ETHO    C161541  19.310   5.847  14.883
 7944ETHO   H1161542  19.358   5.813  14.789
 7944ETHO   H1361543  19.334   5.956  14.889
 7944ETHO    C261544  19.379   5.766  14.995
 7944ETHO   H2161545  19.325   5.780  15.091
 7944ETHO   H2361546  19.481   5.808  15.007
 7945ETHO    O161547  19.386   5.624  14.959
 7945ETHO    C161548  19.522   5.579  14.932
 7945ETHO   H1161549  19.558   5.648  14.852
 7945ETHO   H1361550  19.586   5.600  15.020
 7945ETHO    C261551  19.524   5.427  14.899
 7945ETHO   H2161552  19.631   5.415  14.871
 7945ETHO   H2361553  19.459   5.422  14.809
 7946ETHO    O161554  19.472   5.347  15.001
 7946ETHO    C161555  19.477   5.215  14.963
 7946ETHO   H1161556  19.406   5.194  14.881
 7946ETHO   H1361557  19.576   5.194  14.917
 7946ETHO    C261558  19.454   5.128  15.083
 7946ETHO   H2161559  19.345   5.131  15.099
 7946ETHO   H2361560  19.515   5.163  15.169
 7947ETHO    O161561  19.484   4.990  15.048
 7947ETHO    C161562  19.414   4.895  15.117
 7947ETHO   H1161563  19.312   4.936  15.133
 7947ETHO   H1361564  19.451   4.893  15.222
 7947ETHO    C261565  19.427   4.747  15.069
 7947ETHO   H2161566  19.411   4.748  14.959
 7947ETHO   H2361567  19.344   4.683  15.108
 7948ETHO    O161568  19.562   4.700  15.083
 7948ETHO    C161569  19.605   4.705  15.222
 7948ETHO   H1161570  19.524   4.673  15.291
 7948ETHO   H1361571  19.630   4.811  15.242
 7948ETHO    C261572  19.730   4.625  15.251
 7948ETHO   H2161573  19.710   4.517  15.235
 7948ETHO   H2361574  19.762   4.652  15.354
 7949ETHO    O161575  19.831   4.680  15.167
 7949ETHO    C161576  19.936   4.595  15.154
 7949ETHO   H1161577  19.915   4.518  15.077
 7949ETHO   H1361578  19.953   4.530  15.242
 7949ETHO    C261579  20.069   4.653  15.112
 7949ETHO   H2161580  20.064   4.733  15.035
 7949ETHO   H2361581  20.131   4.575  15.062
 7950ETHO    O161582  20.134   4.699  15.232
 7950ETHO    C161583  20.272   4.729  15.208
 7950ETHO   H1161584  20.325   4.632  15.199
 7950ETHO   H1361585  20.282   4.788  15.114
 7950ETHO    C261586  20.343   4.798  15.326
 7950ETHO   H2161587  20.324   4.743  15.421
 7950ETHO   H2361588  20.310   4.903  15.338
 7950ETHO    OZ61589  20.482   4.804  15.299
 7950ETHO   HZ161590  20.527   4.811  15.384
 7951ETHO    O161591   7.504   6.589  17.535
 7951ETHO   HO161592   7.505   6.656  17.466
 7951ETHO    C161593   7.479   6.459  17.480
 7951ETHO   H1161594   7.389   6.446  17.416
 7951ETHO   H1361595   7.458   6.392  17.566
 7951ETHO    C261596   7.595   6.409  17.398
 7951ETHO   H2161597   7.598   6.300  17.376
 7951ETHO   H2361598   7.695   6.436  17.441
 7952ETHO    O161599   7.580   6.477  17.266
 7952ETHO    C161600   7.689   6.443  17.177
 7952ETHO   H1161601   7.788   6.460  17.226
 7952ETHO   H1361602   7.684   6.332  17.164
 7952ETHO    C261603   7.674   6.517  17.038
 7952ETHO   H2161604   7.750   6.475  16.969
 7952ETHO   H2361605   7.695   6.626  17.043
 7953ETHO    O161606   7.540   6.512  16.995
 7953ETHO    C161607   7.538   6.549  16.855
 7953ETHO   H1161608   7.604   6.489  16.788
 7953ETHO   H1361609   7.577   6.653  16.858
 7953ETHO    C261610   7.395   6.560  16.799
 7953ETHO   H2161611   7.402   6.630  16.712
 7953ETHO   H2361612   7.327   6.614  16.867
 7954ETHO    O161613   7.356   6.425  16.761
 7954ETHO    C161614   7.219   6.410  16.720
 7954ETHO   H1161615   7.183   6.305  16.721
 7954ETHO   H1361616   7.160   6.454  16.803
 7954ETHO    C261617   7.176   6.461  16.582
 7954ETHO   H2161618   7.208   6.567  16.587
 7954ETHO   H2361619   7.067   6.445  16.566
 7955ETHO    O161620   7.244   6.392  16.480
 7955ETHO    C161621   7.176   6.422  16.355
 7955ETHO   H1161622   7.091   6.352  16.342
 7955ETHO   H1361623   7.144   6.528  16.367
 7955ETHO    C261624   7.267   6.419  16.231
 7955ETHO   H2161625   7.206   6.403  16.140
 7955ETHO   H2361626   7.327   6.327  16.245
 7956ETHO    O161627   7.349   6.537  16.232
 7956ETHO    C161628   7.461   6.524  16.145
 7956ETHO   H1161629   7.534   6.454  16.192
 7956ETHO   H1361630   7.420   6.495  16.046
 7956ETHO    C261631   7.534   6.666  16.132
 7956ETHO   H2161632   7.627   6.640  16.076
 7956ETHO   H2361633   7.578   6.692  16.231
 7957ETHO    O161634   7.463   6.766  16.066
 7957ETHO    C161635   7.517   6.897  16.095
 7957ETHO   H1161636   7.518   6.899  16.206
 7957ETHO   H1361637   7.621   6.886  16.058
 7957ETHO    C261638   7.452   7.018  16.029
 7957ETHO   H2161639   7.511   7.099  16.076
 7957ETHO   H2361640   7.347   7.039  16.059
 7958ETHO    O161641   7.460   7.021  15.889
 7958ETHO    C161642   7.418   7.142  15.835
 7958ETHO   H1161643   7.459   7.227  15.894
 7958ETHO   H1361644   7.308   7.150  15.853
 7958ETHO    C261645   7.453   7.162  15.692
 7958ETHO   H2161646   7.381   7.228  15.640
 7958ETHO   H2361647   7.432   7.064  15.644
 7959ETHO    O161648   7.583   7.203  15.673
 7959ETHO    C161649   7.634   7.172  15.540
 7959ETHO   H1161650   7.551   7.186  15.468
 7959ETHO   H1361651   7.708   7.253  15.526
 7959ETHO    C261652   7.691   7.030  15.535
 7959ETHO   H2161653   7.610   6.967  15.494
 7959ETHO   H2361654   7.720   6.986  15.633
 7960ETHO    O161655   7.806   7.021  15.448
 7960ETHO    C161656   7.853   6.892  15.436
 7960ETHO   H1161657   7.773   6.827  15.394
 7960ETHO   H1361658   7.895   6.861  15.534
 7960ETHO    C261659   7.972   6.895  15.333
 7960ETHO   H2161660   8.023   6.798  15.350
 7960ETHO   H2361661   8.036   6.985  15.340
 7961ETHO    O161662   7.915   6.894  15.207
 7961ETHO    C161663   7.996   6.832  15.111
 7961ETHO   H1161664   8.083   6.901  15.098
 7961ETHO   H1361665   8.030   6.733  15.148
 7961ETHO    C261666   7.933   6.832  14.973
 7961ETHO   H2161667   7.979   6.758  14.904
 7961ETHO   H2361668   7.835   6.782  14.987
 7962ETHO    O161669   7.924   6.969  14.920
 7962ETHO    C161670   8.003   6.976  14.800
 7962ETHO   H1161671   7.986   6.899  14.723
 7962ETHO   H1361672   8.109   6.963  14.830
 7962ETHO    C261673   8.010   7.117  14.729
 7962ETHO   H2161674   7.904   7.141  14.704
 7962ETHO   H2361675   8.055   7.098  14.629
 7963ETHO    O161676   8.091   7.214  14.791
 7963ETHO    C161677   8.107   7.332  14.718
 7963ETHO   H1161678   8.213   7.364  14.724
 7963ETHO   H1361679   8.070   7.320  14.614
 7963ETHO    C261680   8.022   7.440  14.784
 7963ETHO   H2161681   8.023   7.529  14.717
 7963ETHO   H2361682   8.063   7.458  14.885
 7964ETHO    O161683   7.883   7.396  14.794
 7964ETHO    C161684   7.802   7.485  14.867
 7964ETHO   H1161685   7.791   7.585  14.819
 7964ETHO   H1361686   7.854   7.514  14.961
 7964ETHO    C261687   7.661   7.421  14.883
 7964ETHO   H2161688   7.665   7.343  14.963
 7964ETHO   H2361689   7.641   7.381  14.782
 7965ETHO    O161690   7.553   7.504  14.914
 7965ETHO    C161691   7.423   7.436  14.910
 7965ETHO   H1161692   7.397   7.438  14.802
 7965ETHO   H1361693   7.437   7.329  14.937
 7965ETHO    C261694   7.327   7.502  15.007
 7965ETHO   H2161695   7.335   7.469  15.112
 7965ETHO   H2361696   7.346   7.610  14.986
 7966ETHO    O161697   7.199   7.475  14.966
 7966ETHO    C161698   7.100   7.548  15.036
 7966ETHO   H1161699   7.116   7.550  15.146
 7966ETHO   H1361700   7.104   7.650  14.992
 7966ETHO    C261701   6.956   7.494  15.022
 7966ETHO   H2161702   6.923   7.502  14.916
 7966ETHO   H2361703   6.896   7.564  15.083
 7967ETHO    O161704   6.946   7.368  15.082
 7967ETHO    C161705   6.805   7.335  15.106
 7967ETHO   H1161706   6.766   7.404  15.184
 7967ETHO   H1361707   6.751   7.337  15.009
 7967ETHO    C261708   6.785   7.189  15.143
 7967ETHO   H2161709   6.679   7.168  15.171
 7967ETHO   H2361710   6.852   7.161  15.226
 7968ETHO    O161711   6.811   7.091  15.042
 7968ETHO    C161712   6.776   6.959  15.075
 7968ETHO   H1161713   6.807   6.941  15.180
 7968ETHO   H1361714   6.665   6.960  15.069
 7968ETHO    C261715   6.841   6.853  14.983
 7968ETHO   H2161716   6.815   6.753  15.023
 7968ETHO   H2361717   6.952   6.864  14.988
 7969ETHO    O161718   6.789   6.859  14.849
 7969ETHO    C161719   6.872   6.774  14.772
 7969ETHO   H1161720   6.976   6.813  14.782
 7969ETHO   H1361721   6.838   6.770  14.667
 7969ETHO    C261722   6.875   6.625  14.814
 7969ETHO   H2161723   6.906   6.566  14.725
 7969ETHO   H2361724   6.776   6.579  14.833
 7970ETHO    O161725   6.967   6.598  14.920
 7970ETHO    C161726   6.981   6.462  14.945
 7970ETHO   H1161727   6.889   6.407  14.976
 7970ETHO   H1361728   7.020   6.423  14.848
 7970ETHO    C261729   7.073   6.431  15.066
 7970ETHO   H2161730   7.078   6.323  15.091
 7970ETHO   H2361731   7.032   6.483  15.155
 7971ETHO    O161732   7.203   6.481  15.040
 7971ETHO    C161733   7.286   6.450  15.153
 7971ETHO   H1161734   7.291   6.341  15.173
 7971ETHO   H1361735   7.243   6.492  15.246
 7971ETHO    C261736   7.429   6.505  15.126
 7971ETHO   H2161737   7.479   6.470  15.033
 7971ETHO   H2361738   7.501   6.465  15.199
 7972ETHO    O161739   7.443   6.649  15.141
 7972ETHO    C161740   7.545   6.709  15.060
 7972ETHO   H1161741   7.645   6.677  15.095
 7972ETHO   H1361742   7.533   6.669  14.957
 7972ETHO    C261743   7.549   6.859  15.041
 7972ETHO   H2161744   7.539   6.909  15.140
 7972ETHO   H2361745   7.650   6.882  15.001
 7973ETHO    O161746   7.460   6.912  14.951
 7973ETHO    C161747   7.511   7.038  14.903
 7973ETHO   H1161748   7.567   7.089  14.984
 7973ETHO   H1361749   7.427   7.106  14.879
 7973ETHO    C261750   7.609   7.050  14.782
 7973ETHO   H2161751   7.692   6.977  14.793
 7973ETHO   H2361752   7.650   7.153  14.768
 7974ETHO    O161753   7.543   7.033  14.658
 7974ETHO    C161754   7.644   7.060  14.551
 7974ETHO   H1161755   7.683   7.164  14.558
 7974ETHO   H1361756   7.722   6.981  14.565
 7974ETHO    C261757   7.599   7.055  14.402
 7974ETHO   H2161758   7.684   7.085  14.338
 7974ETHO   H2361759   7.518   7.132  14.399
 7975ETHO    O161760   7.566   6.923  14.353
 7975ETHO    C161761   7.441   6.932  14.282
 7975ETHO   H1161762   7.445   7.010  14.203
 7975ETHO   H1361763   7.367   6.956  14.361
 7975ETHO    C261764   7.405   6.795  14.221
 7975ETHO   H2161765   7.454   6.718  14.283
 7975ETHO   H2361766   7.427   6.794  14.112
 7976ETHO    O161767   7.269   6.788  14.237
 7976ETHO    C161768   7.212   6.661  14.206
 7976ETHO   H1161769   7.279   6.605  14.138
 7976ETHO   H1361770   7.208   6.611  14.305
 7976ETHO    C261771   7.064   6.661  14.157
 7976ETHO   H2161772   7.013   6.759  14.158
 7976ETHO   H2361773   7.014   6.591  14.228
 7977ETHO    O161774   7.054   6.603  14.025
 7977ETHO    C161775   7.070   6.699  13.921
 7977ETHO   H1161776   7.046   6.804  13.949
 7977ETHO   H1361777   6.988   6.673  13.851
 7977ETHO    C261778   7.206   6.701  13.845
 7977ETHO   H2161779   7.283   6.737  13.917
 7977ETHO   H2361780   7.193   6.782  13.770
 7978ETHO    O161781   7.247   6.587  13.775
 7978ETHO    C161782   7.222   6.594  13.633
 7978ETHO   H1161783   7.112   6.612  13.635
 7978ETHO   H1361784   7.260   6.688  13.588
 7978ETHO    C261785   7.256   6.467  13.552
 7978ETHO   H2161786   7.191   6.485  13.463
 7978ETHO   H2361787   7.227   6.375  13.606
 7979ETHO    O161788   7.387   6.448  13.507
 7979ETHO    C161789   7.418   6.320  13.461
 7979ETHO   H1161790   7.332   6.254  13.481
 7979ETHO   H1361791   7.511   6.293  13.516
 7979ETHO    C261792   7.441   6.300  13.308
 7979ETHO   H2161793   7.515   6.219  13.287
 7979ETHO   H2361794   7.497   6.389  13.271
 7980ETHO    O161795   7.329   6.283  13.224
 7980ETHO    C161796   7.341   6.175  13.135
 7980ETHO   H1161797   7.277   6.182  13.044
 7980ETHO   H1361798   7.444   6.152  13.101
 7980ETHO    C261799   7.302   6.034  13.195
 7980ETHO   H2161800   7.354   6.015  13.292
 7980ETHO   H2361801   7.342   5.953  13.131
 7981ETHO    O161802   7.160   6.022  13.205
 7981ETHO    C161803   7.108   5.952  13.092
 7981ETHO   H1161804   7.129   6.014  13.001
 7981ETHO   H1361805   7.170   5.861  13.080
 7981ETHO    C261806   6.958   5.917  13.096
 7981ETHO   H2161807   6.904   5.944  13.003
 7981ETHO   H2361808   6.904   5.977  13.173
 7982ETHO    O161809   6.910   5.788  13.141
 7982ETHO    C161810   6.939   5.685  13.046
 7982ETHO   H1161811   7.048   5.677  13.028
 7982ETHO   H1361812   6.904   5.594  13.099
 7982ETHO    C261813   6.849   5.684  12.917
 7982ETHO   H2161814   6.742   5.708  12.935
 7982ETHO   H2361815   6.854   5.581  12.876
 7983ETHO    O161816   6.896   5.770  12.813
 7983ETHO    C161817   6.811   5.752  12.700
 7983ETHO   H1161818   6.853   5.665  12.644
 7983ETHO   H1361819   6.708   5.727  12.732
 7983ETHO    C261820   6.807   5.883  12.620
 7983ETHO   H2161821   6.755   5.866  12.524
 7983ETHO   H2361822   6.908   5.925  12.599
 7984ETHO    O161823   6.735   5.976  12.701
 7984ETHO    C161824   6.731   6.108  12.638
 7984ETHO   H1161825   6.641   6.112  12.572
 7984ETHO   H1361826   6.831   6.127  12.593
 7984ETHO    C261827   6.708   6.200  12.754
 7984ETHO   H2161828   6.690   6.302  12.714
 7984ETHO   H2361829   6.802   6.204  12.812
 7985ETHO    O161830   6.596   6.151  12.824
 7985ETHO    C161831   6.612   6.176  12.966
 7985ETHO   H1161832   6.705   6.127  13.002
 7985ETHO   H1361833   6.618   6.285  12.985
 7985ETHO    C261834   6.492   6.119  13.052
 7985ETHO   H2161835   6.406   6.170  13.005
 7985ETHO   H2361836   6.503   6.159  13.155
 7986ETHO    O161837   6.476   5.983  13.057
 7986ETHO    C161838   6.372   5.941  13.140
 7986ETHO   H1161839   6.281   5.992  13.102
 7986ETHO   H1361840   6.394   5.971  13.245
 7986ETHO    C261841   6.343   5.786  13.125
 7986ETHO   H2161842   6.357   5.736  13.026
 7986ETHO   H2361843   6.235   5.765  13.139
 7987ETHO    O161844   6.421   5.724  13.232
 7987ETHO    C161845   6.564   5.740  13.212
 7987ETHO   H1161846   6.587   5.708  13.108
 7987ETHO   H1361847   6.602   5.840  13.241
 7987ETHO    C261848   6.640   5.640  13.301
 7987ETHO   H2161849   6.748   5.651  13.280
 7987ETHO   H2361850   6.617   5.534  13.278
 7988ETHO    O161851   6.601   5.670  13.427
 7988ETHO    C161852   6.690   5.621  13.526
 7988ETHO   H1161853   6.639   5.652  13.620
 7988ETHO   H1361854   6.788   5.672  13.518
 7988ETHO    C261855   6.706   5.466  13.525
 7988ETHO   H2161856   6.777   5.447  13.609
 7988ETHO   H2361857   6.755   5.418  13.438
 7989ETHO    O161858   6.576   5.415  13.548
 7989ETHO    C161859   6.572   5.272  13.557
 7989ETHO   H1161860   6.599   5.228  13.459
 7989ETHO   H1361861   6.650   5.241  13.631
 7989ETHO    C261862   6.430   5.218  13.590
 7989ETHO   H2161863   6.442   5.109  13.610
 7989ETHO   H2361864   6.357   5.222  13.507
 7990ETHO    O161865   6.377   5.279  13.707
 7990ETHO    C161866   6.235   5.241  13.726
 7990ETHO   H1161867   6.214   5.154  13.660
 7990ETHO   H1361868   6.172   5.330  13.707
 7990ETHO    C261869   6.213   5.198  13.873
 7990ETHO   H2161870   6.102   5.194  13.881
 7990ETHO   H2361871   6.260   5.278  13.933
 7991ETHO    O161872   6.267   5.071  13.905
 7991ETHO    C161873   6.238   5.033  14.039
 7991ETHO   H1161874   6.128   5.045  14.050
 7991ETHO   H1361875   6.257   4.925  14.057
 7991ETHO    C261876   6.319   5.116  14.149
 7991ETHO   H2161877   6.272   5.094  14.247
 7991ETHO   H2361878   6.320   5.226  14.131
 7992ETHO    O161879   6.455   5.085  14.144
 7992ETHO    C161880   6.535   5.104  14.253
 7992ETHO   H1161881   6.546   5.208  14.292
 7992ETHO   H1361882   6.497   5.034  14.331
 7992ETHO    C261883   6.681   5.063  14.237
 7992ETHO   H2161884   6.692   4.994  14.150
 7992ETHO   H2361885   6.701   5.012  14.334
 7993ETHO    O161886   6.769   5.179  14.229
 7993ETHO    C161887   6.908   5.140  14.199
 7993ETHO   H1161888   6.940   5.058  14.266
 7993ETHO   H1361889   6.919   5.094  14.098
 7993ETHO    C261890   7.001   5.262  14.201
 7993ETHO   H2161891   6.952   5.349  14.154
 7993ETHO   H2361892   7.091   5.239  14.139
 7994ETHO    O161893   7.041   5.307  14.332
 7994ETHO    C161894   7.162   5.383  14.337
 7994ETHO   H1161895   7.242   5.308  14.352
 7994ETHO   H1361896   7.191   5.443  14.248
 7994ETHO    C261897   7.151   5.489  14.446
 7994ETHO   H2161898   7.249   5.527  14.482
 7994ETHO   H2361899   7.106   5.441  14.535
 7995ETHO    O161900   7.078   5.608  14.412
 7995ETHO    C161901   7.057   5.701  14.517
 7995ETHO   H1161902   7.156   5.745  14.539
 7995ETHO   H1361903   7.011   5.645  14.601
 7995ETHO    C261904   6.953   5.806  14.478
 7995ETHO   H2161905   6.931   5.864  14.570
 7995ETHO   H2361906   6.862   5.751  14.447
 7996ETHO    O161907   7.007   5.897  14.385
 7996ETHO    C161908   7.074   6.007  14.442
 7996ETHO   H1161909   7.012   6.050  14.523
 7996ETHO   H1361910   7.168   5.966  14.484
 7996ETHO    C261911   7.106   6.116  14.333
 7996ETHO   H2161912   7.157   6.082  14.241
 7996ETHO   H2361913   7.179   6.191  14.369
 7997ETHO    O161914   6.984   6.173  14.286
 7997ETHO    C161915   7.003   6.292  14.210
 7997ETHO   H1161916   7.065   6.271  14.120
 7997ETHO   H1361917   7.047   6.365  14.280
 7997ETHO    C261918   6.862   6.341  14.162
 7997ETHO   H2161919   6.883   6.443  14.122
 7997ETHO   H2361920   6.802   6.336  14.255
 7998ETHO    O161921   6.803   6.251  14.066
 7998ETHO    C161922   6.834   6.289  13.933
 7998ETHO   H1161923   6.798   6.393  13.913
 7998ETHO   H1361924   6.944   6.280  13.925
 7998ETHO    C261925   6.778   6.179  13.837
 7998ETHO   H2161926   6.670   6.160  13.850
 7998ETHO   H2361927   6.775   6.224  13.735
 7999ETHO    O161928   6.855   6.057  13.852
 7999ETHO    C161929   6.774   5.951  13.828
 7999ETHO   H1161930   6.735   5.956  13.724
 7999ETHO   H1361931   6.684   5.948  13.893
 7999ETHO    C261932   6.855   5.821  13.826
 7999ETHO   H2161933   6.780   5.740  13.839
 7999ETHO   H2361934   6.923   5.829  13.913
 8000ETHO    O161935   6.923   5.792  13.706
 8000ETHO    C161936   7.011   5.679  13.720
 8000ETHO   H1161937   7.095   5.696  13.791
 8000ETHO   H1361938   6.948   5.597  13.761
 8000ETHO    C261939   7.089   5.629  13.597
 8000ETHO   H2161940   7.151   5.542  13.625
 8000ETHO   H2361941   7.158   5.712  13.570
 8001ETHO    O161942   7.003   5.591  13.493
 8001ETHO    C161943   7.066   5.507  13.392
 8001ETHO   H1161944   6.983   5.494  13.319
 8001ETHO   H1361945   7.106   5.407  13.418
 8001ETHO    C261946   7.170   5.589  13.320
 8001ETHO   H2161947   7.127   5.692  13.324
 8001ETHO   H2361948   7.177   5.570  13.211
 8002ETHO    O161949   7.300   5.591  13.375
 8002ETHO    C161950   7.392   5.685  13.313
 8002ETHO   H1161951   7.391   5.661  13.205
 8002ETHO   H1361952   7.344   5.784  13.326
 8002ETHO    C261953   7.523   5.672  13.389
 8002ETHO   H2161954   7.503   5.652  13.496
 8002ETHO   H2361955   7.574   5.769  13.372
 8003ETHO    O161956   7.597   5.571  13.325
 8003ETHO    C161957   7.731   5.566  13.382
 8003ETHO   H1161958   7.793   5.657  13.365
 8003ETHO   H1361959   7.724   5.555  13.492
 8003ETHO    C261960   7.801   5.441  13.334
 8003ETHO   H2161961   7.828   5.447  13.226
 8003ETHO   H2361962   7.726   5.360  13.349
 8004ETHO    O161963   7.917   5.392  13.418
 8004ETHO    C161964   7.997   5.295  13.350
 8004ETHO   H1161965   7.946   5.197  13.346
 8004ETHO   H1361966   8.011   5.335  13.247
 8004ETHO    C261967   8.129   5.285  13.427
 8004ETHO   H2161968   8.187   5.210  13.369
 8004ETHO   H2361969   8.108   5.249  13.530
 8005ETHO    O161970   8.201   5.401  13.437
 8005ETHO    C161971   8.335   5.372  13.491
 8005ETHO   H1161972   8.391   5.316  13.413
 8005ETHO   H1361973   8.378   5.473  13.509
 8005ETHO    C261974   8.341   5.301  13.621
 8005ETHO   H2161975   8.423   5.328  13.691
 8005ETHO   H2361976   8.241   5.325  13.665
 8006ETHO    O161977   8.339   5.157  13.607
 8006ETHO    C161978   8.474   5.100  13.606
 8006ETHO   H1161979   8.487   5.050  13.705
 8006ETHO   H1361980   8.553   5.176  13.589
 8006ETHO    C261981   8.499   4.998  13.489
 8006ETHO   H2161982   8.609   4.988  13.479
 8006ETHO   H2361983   8.459   5.027  13.390
 8007ETHO    O161984   8.448   4.875  13.531
 8007ETHO    C161985   8.464   4.775  13.434
 8007ETHO   H1161986   8.409   4.782  13.338
 8007ETHO   H1361987   8.573   4.773  13.415
 8007ETHO    C261988   8.438   4.634  13.483
 8007ETHO   H2161989   8.495   4.619  13.577
 8007ETHO   H2361990   8.478   4.559  13.412
 8008ETHO    O161991   8.299   4.619  13.506
 8008ETHO    C161992   8.285   4.531  13.619
 8008ETHO   H1161993   8.293   4.591  13.712
 8008ETHO   H1361994   8.360   4.449  13.617
 8008ETHO    C261995   8.138   4.477  13.630
 8008ETHO   H2161996   8.071   4.559  13.595
 8008ETHO   H2361997   8.112   4.446  13.734
 8009ETHO    O161998   8.113   4.366  13.548
 8009ETHO    C161999   7.974   4.357  13.514
 8009ETHO   H1162000   7.924   4.390  13.608
 8009ETHO   H1362001   7.947   4.431  13.436
 8009ETHO    C262002   7.924   4.215  13.486
 8009ETHO   H2162003   7.998   4.164  13.421
 8009ETHO   H2362004   7.828   4.218  13.430
 8010ETHO    O162005   7.914   4.145  13.607
 8010ETHO    C162006   7.889   4.007  13.579
 8010ETHO   H1162007   7.974   3.964  13.522
 8010ETHO   H1362008   7.797   3.989  13.519
 8010ETHO    C262009   7.886   3.939  13.708
 8010ETHO   H2162010   7.977   3.957  13.769
 8010ETHO   H2362011   7.882   3.829  13.691
 8011ETHO    O162012   7.759   3.962  13.767
 8011ETHO    C162013   7.744   3.883  13.890
 8011ETHO   H1162014   7.683   3.794  13.865
 8011ETHO   H1362015   7.841   3.843  13.928
 8011ETHO    C262016   7.658   3.972  13.982
 8011ETHO   H2162017   7.708   4.071  13.970
 8011ETHO   H2362018   7.659   3.957  14.092
 8012ETHO    O162019   7.528   3.969  13.932
 8012ETHO    C162020   7.440   4.062  14.000
 8012ETHO   H1162021   7.501   4.119  14.074
 8012ETHO   H1362022   7.376   4.004  14.070
 8012ETHO    C262023   7.359   4.157  13.907
 8012ETHO   H2162024   7.324   4.251  13.953
 8012ETHO   H2362025   7.266   4.105  13.876
 8013ETHO    O162026   7.436   4.192  13.790
 8013ETHO    C162027   7.528   4.298  13.808
 8013ETHO   H1162028   7.470   4.383  13.850
 8013ETHO   H1362029   7.605   4.269  13.882
 8013ETHO    C262030   7.604   4.341  13.682
 8013ETHO   H2162031   7.667   4.268  13.626
 8013ETHO   H2362032   7.675   4.419  13.719
 8014ETHO    O162033   7.522   4.405  13.580
 8014ETHO    C162034   7.608   4.464  13.486
 8014ETHO   H1162035   7.669   4.384  13.439
 8014ETHO   H1362036   7.682   4.531  13.534
 8014ETHO    C262037   7.531   4.547  13.385
 8014ETHO   H2162038   7.464   4.479  13.330
 8014ETHO   H2362039   7.604   4.599  13.319
 8015ETHO    O162040   7.461   4.653  13.450
 8015ETHO    C162041   7.398   4.741  13.358
 8015ETHO   H1162042   7.480   4.791  13.302
 8015ETHO   H1362043   7.338   4.675  13.292
 8015ETHO    C262044   7.300   4.845  13.411
 8015ETHO   H2162045   7.264   4.911  13.329
 8015ETHO   H2362046   7.328   4.902  13.502
 8016ETHO    O162047   7.180   4.774  13.451
 8016ETHO    C162048   7.066   4.845  13.424
 8016ETHO   H1162049   7.054   4.858  13.315
 8016ETHO   H1362050   7.069   4.943  13.477
 8016ETHO    C262051   6.943   4.774  13.485
 8016ETHO   H2162052   6.864   4.853  13.483
 8016ETHO   H2362053   6.958   4.751  13.593
 8017ETHO    O162054   6.895   4.655  13.420
 8017ETHO    C162055   6.971   4.544  13.455
 8017ETHO   H1162056   7.079   4.554  13.429
 8017ETHO   H1362057   6.959   4.520  13.563
 8017ETHO    C262058   6.914   4.430  13.371
 8017ETHO   H2162059   6.962   4.330  13.387
 8017ETHO   H2362060   6.936   4.463  13.267
 8018ETHO    O162061   6.776   4.397  13.382
 8018ETHO    C162062   6.728   4.308  13.274
 8018ETHO   H1162063   6.762   4.351  13.177
 8018ETHO   H1362064   6.791   4.216  13.284
 8018ETHO    C262065   6.586   4.268  13.295
 8018ETHO   H2162066   6.568   4.231  13.398
 8018ETHO   H2362067   6.556   4.189  13.224
 8019ETHO    O162068   6.503   4.386  13.291
 8019ETHO    C162069   6.378   4.365  13.223
 8019ETHO   H1162070   6.339   4.461  13.185
 8019ETHO   H1362071   6.396   4.312  13.126
 8019ETHO    C262072   6.277   4.283  13.309
 8019ETHO   H2162073   6.189   4.278  13.241
 8019ETHO   H2362074   6.256   4.358  13.388
 8020ETHO    O162075   6.309   4.154  13.350
 8020ETHO    C162076   6.231   4.123  13.466
 8020ETHO   H1162077   6.267   4.188  13.548
 8020ETHO   H1362078   6.125   4.147  13.444
 8020ETHO    C262079   6.233   3.975  13.502
 8020ETHO   H2162080   6.193   3.926  13.411
 8020ETHO   H2362081   6.160   3.951  13.582
 8021ETHO    O162082   6.362   3.915  13.532
 8021ETHO    C162083   6.360   3.773  13.529
 8021ETHO   H1162084   6.336   3.742  13.424
 8021ETHO   H1362085   6.285   3.730  13.599
 8021ETHO    C262086   6.501   3.717  13.568
 8021ETHO   H2162087   6.573   3.770  13.501
 8021ETHO   H2362088   6.504   3.606  13.569
 8022ETHO    O162089   6.534   3.755  13.704
 8022ETHO    C162090   6.659   3.700  13.742
 8022ETHO   H1162091   6.660   3.589  13.751
 8022ETHO   H1362092   6.733   3.716  13.660
 8022ETHO    C262093   6.708   3.768  13.870
 8022ETHO   H2162094   6.715   3.878  13.859
 8022ETHO   H2362095   6.807   3.728  13.899
 8023ETHO    O162096   6.617   3.758  13.975
 8023ETHO    C162097   6.654   3.835  14.089
 8023ETHO   H1162098   6.661   3.945  14.075
 8023ETHO   H1362099   6.754   3.800  14.121
 8023ETHO    C262100   6.548   3.819  14.193
 8023ETHO   H2162101   6.440   3.817  14.165
 8023ETHO   H2362102   6.561   3.897  14.272
 8024ETHO    O162103   6.573   3.698  14.271
 8024ETHO    C162104   6.472   3.684  14.371
 8024ETHO   H1162105   6.443   3.781  14.417
 8024ETHO   H1362106   6.373   3.651  14.331
 8024ETHO    C262107   6.529   3.603  14.488
 8024ETHO   H2162108   6.446   3.604  14.563
 8024ETHO   H2362109   6.623   3.652  14.521
 8025ETHO    O162110   6.561   3.464  14.471
 8025ETHO    C162111   6.589   3.397  14.590
 8025ETHO   H1162112   6.583   3.290  14.563
 8025ETHO   H1362113   6.510   3.421  14.664
 8025ETHO    C262114   6.727   3.423  14.655
 8025ETHO   H2162115   6.810   3.403  14.583
 8025ETHO   H2362116   6.744   3.346  14.733
 8026ETHO    O162117   6.745   3.547  14.721
 8026ETHO    C162118   6.884   3.578  14.746
 8026ETHO   H1162119   6.903   3.650  14.828
 8026ETHO   H1362120   6.933   3.480  14.764
 8026ETHO    C262121   6.938   3.641  14.621
 8026ETHO   H2162122   6.909   3.582  14.532
 8026ETHO   H2362123   7.048   3.658  14.615
 8027ETHO    O162124   6.871   3.769  14.615
 8027ETHO    C162125   6.860   3.821  14.477
 8027ETHO   H1162126   6.785   3.755  14.429
 8027ETHO   H1362127   6.957   3.823  14.422
 8027ETHO    C262128   6.808   3.968  14.468
 8027ETHO   H2162129   6.892   4.025  14.513
 8027ETHO   H2362130   6.735   3.982  14.551
 8028ETHO    O162131   6.772   4.019  14.343
 8028ETHO    C162132   6.756   4.158  14.343
 8028ETHO   H1162133   6.700   4.194  14.432
 8028ETHO   H1362134   6.861   4.194  14.354
 8028ETHO    C262135   6.696   4.208  14.216
 8028ETHO   H2162136   6.687   4.318  14.228
 8028ETHO   H2362137   6.597   4.160  14.205
 8029ETHO    O162138   6.785   4.188  14.109
 8029ETHO    C162139   6.749   4.268  13.985
 8029ETHO   H1162140   6.650   4.224  13.962
 8029ETHO   H1362141   6.732   4.376  14.004
 8029ETHO    C262142   6.831   4.234  13.855
 8029ETHO   H2162143   6.779   4.282  13.769
 8029ETHO   H2362144   6.840   4.124  13.844
 8030ETHO    O162145   6.958   4.291  13.868
 8030ETHO    C162146   7.033   4.298  13.749
 8030ETHO   H1162147   7.079   4.199  13.729
 8030ETHO   H1362148   6.966   4.325  13.665
 8030ETHO    C262149   7.148   4.405  13.757
 8030ETHO   H2162150   7.188   4.404  13.653
 8030ETHO   H2362151   7.235   4.360  13.809
 8031ETHO    O162152   7.107   4.531  13.801
 8031ETHO    C162153   7.226   4.615  13.813
 8031ETHO   H1162154   7.287   4.580  13.899
 8031ETHO   H1362155   7.287   4.603  13.721
 8031ETHO    C262156   7.185   4.763  13.817
 8031ETHO   H2162157   7.280   4.816  13.841
 8031ETHO   H2362158   7.153   4.797  13.717
 8032ETHO    O162159   7.090   4.806  13.914
 8032ETHO    C162160   7.095   4.941  13.928
 8032ETHO   H1162161   6.992   4.955  13.967
 8032ETHO   H1362162   7.089   4.990  13.828
 8032ETHO    C262163   7.199   4.989  14.026
 8032ETHO   H2162164   7.197   4.932  14.122
 8032ETHO   H2362165   7.160   5.092  14.041
 8033ETHO    O162166   7.332   5.002  13.964
 8033ETHO    C162167   7.422   5.096  14.021
 8033ETHO   H1162168   7.359   5.182  14.053
 8033ETHO   H1362169   7.462   5.041  14.109
 8033ETHO    C262170   7.523   5.137  13.919
 8033ETHO   H2162171   7.469   5.178  13.831
 8033ETHO   H2362172   7.572   5.044  13.883
 8034ETHO    O162173   7.629   5.215  13.958
 8034ETHO    C162174   7.595   5.322  14.044
 8034ETHO   H1162175   7.548   5.283  14.137
 8034ETHO   H1362176   7.520   5.388  13.996
 8034ETHO    C262177   7.715   5.418  14.085
 8034ETHO   H2162178   7.795   5.349  14.119
 8034ETHO   H2362179   7.690   5.486  14.170
 8035ETHO    O162180   7.767   5.487  13.972
 8035ETHO    C162181   7.885   5.563  14.002
 8035ETHO   H1162182   7.861   5.668  14.029
 8035ETHO   H1362183   7.925   5.521  14.097
 8035ETHO    C262184   7.985   5.539  13.896
 8035ETHO   H2162185   7.966   5.440  13.850
 8035ETHO   H2362186   8.092   5.555  13.924
 8036ETHO    O162187   7.968   5.627  13.784
 8036ETHO    C162188   8.063   5.600  13.682
 8036ETHO   H1162189   8.056   5.492  13.659
 8036ETHO   H1362190   8.160   5.611  13.734
 8036ETHO    C262191   8.072   5.698  13.561
 8036ETHO   H2162192   7.979   5.701  13.501
 8036ETHO   H2362193   8.154   5.664  13.494
 8037ETHO    O162194   8.119   5.831  13.586
 8037ETHO    C162195   8.168   5.899  13.470
 8037ETHO   H1162196   8.271   5.862  13.455
 8037ETHO   H1362197   8.118   5.862  13.378
 8037ETHO    C262198   8.179   6.050  13.484
 8037ETHO   H2162199   8.074   6.082  13.498
 8037ETHO   H2362200   8.217   6.086  13.386
 8038ETHO    O162201   8.270   6.090  13.582
 8038ETHO    C162202   8.285   6.234  13.590
 8038ETHO   H1162203   8.189   6.289  13.586
 8038ETHO   H1362204   8.348   6.267  13.504
 8038ETHO    C262205   8.368   6.256  13.718
 8038ETHO   H2162206   8.454   6.186  13.728
 8038ETHO   H2362207   8.295   6.239  13.800
 8039ETHO    O162208   8.409   6.388  13.728
 8039ETHO    C162209   8.529   6.408  13.807
 8039ETHO   H1162210   8.500   6.412  13.914
 8039ETHO   H1362211   8.602   6.324  13.798
 8039ETHO    C262212   8.592   6.541  13.786
 8039ETHO   H2162213   8.666   6.553  13.868
 8039ETHO   H2362214   8.513   6.619  13.796
 8040ETHO    O162215   8.660   6.578  13.661
 8040ETHO    C162216   8.700   6.719  13.666
 8040ETHO   H1162217   8.694   6.766  13.566
 8040ETHO   H1362218   8.627   6.765  13.735
 8040ETHO    C262219   8.840   6.731  13.718
 8040ETHO   H2162220   8.832   6.698  13.823
 8040ETHO   H2362221   8.868   6.836  13.744
 8041ETHO    O162222   8.934   6.678  13.634
 8041ETHO    C162223   9.052   6.656  13.700
 8041ETHO   H1162224   9.093   6.740  13.760
 8041ETHO   H1362225   9.043   6.570  13.770
 8041ETHO    C262226   9.155   6.629  13.594
 8041ETHO   H2162227   9.119   6.562  13.512
 8041ETHO   H2362228   9.236   6.576  13.649
 8042ETHO    O162229   9.214   6.746  13.537
 8042ETHO    C162230   9.255   6.717  13.403
 8042ETHO   H1162231   9.300   6.616  13.402
 8042ETHO   H1362232   9.162   6.719  13.343
 8042ETHO    C262233   9.351   6.822  13.353
 8042ETHO   H2162234   9.386   6.792  13.252
 8042ETHO   H2362235   9.441   6.827  13.419
 8043ETHO    O162236   9.289   6.950  13.328
 8043ETHO    C162237   9.369   7.036  13.245
 8043ETHO   H1162238   9.393   6.997  13.144
 8043ETHO   H1362239   9.474   7.030  13.282
 8043ETHO    C262240   9.306   7.180  13.230
 8043ETHO   H2162241   9.315   7.223  13.332
 8043ETHO   H2362242   9.205   7.170  13.186
 8044ETHO    O162243   9.379   7.268  13.153
 8044ETHO    C162244   9.336   7.404  13.169
 8044ETHO   H1162245   9.228   7.392  13.145
 8044ETHO   H1362246   9.359   7.446  13.269
 8044ETHO    C262247   9.415   7.487  13.061
 8044ETHO   H2162248   9.377   7.447  12.965
 8044ETHO   H2362249   9.523   7.465  13.073
 8045ETHO    O162250   9.391   7.625  13.072
 8045ETHO    C162251   9.450   7.690  12.962
 8045ETHO   H1162252   9.476   7.619  12.881
 8045ETHO   H1362253   9.543   7.743  12.992
 8045ETHO    C262254   9.353   7.801  12.912
 8045ETHO   H2162255   9.251   7.760  12.928
 8045ETHO   H2362256   9.374   7.813  12.804
 8046ETHO    O162257   9.383   7.922  12.975
 8046ETHO    C162258   9.286   8.022  12.943
 8046ETHO   H1162259   9.325   8.078  12.856
 8046ETHO   H1362260   9.198   7.960  12.916
 8046ETHO    C262261   9.242   8.111  13.063
 8046ETHO   H2162262   9.230   8.047  13.153
 8046ETHO   H2362263   9.142   8.141  13.026
 8047ETHO    O162264   9.322   8.228  13.093
 8047ETHO    C162265   9.260   8.312  13.186
 8047ETHO   H1162266   9.232   8.269  13.285
 8047ETHO   H1362267   9.168   8.357  13.144
 8047ETHO    C262268   9.357   8.426  13.227
 8047ETHO   H2162269   9.460   8.387  13.244
 8047ETHO   H2362270   9.320   8.472  13.321
 8048ETHO    O162271   9.367   8.527  13.126
 8048ETHO    C162272   9.455   8.629  13.168
 8048ETHO   H1162273   9.423   8.660  13.270
 8048ETHO   H1362274   9.557   8.588  13.181
 8048ETHO    C262275   9.479   8.758  13.082
 8048ETHO   H2162276   9.509   8.835  13.156
 8048ETHO   H2362277   9.403   8.791  13.009
 8049ETHO    O162278   9.590   8.744  13.000
 8049ETHO    C162279   9.652   8.869  12.969
 8049ETHO   H1162280   9.657   8.937  13.057
 8049ETHO   H1362281   9.588   8.915  12.890
 8049ETHO    C262282   9.793   8.851  12.893
 8049ETHO   H2162283   9.807   8.940  12.827
 8049ETHO   H2362284   9.778   8.757  12.837
 8050ETHO    O162285   9.909   8.835  12.982
 8050ETHO    C162286  10.026   8.767  12.941
 8050ETHO   H1162287  10.013   8.672  12.885
 8050ETHO   H1362288  10.071   8.832  12.862
 8050ETHO    C262289  10.128   8.749  13.054
 8050ETHO   H2162290  10.222   8.705  13.014
 8050ETHO   H2362291  10.096   8.693  13.144
 8051PROX    O162292  10.186   8.879  13.093
 8051PROX    C162293  10.294   8.869  13.187
 8051PROX   H1162294  10.251   8.860  13.289
 8051PROX   H1362295  10.350   8.776  13.163
 8051PROX    C262296  10.393   8.986  13.173
 8051PROX   H2162297  10.329   9.076  13.168
 8051PROX    C362298  10.475   8.978  13.047
 8051PROX   H3162299  10.409   8.967  12.958
 8051PROX   H3262300  10.531   9.073  13.038
 8051PROX   H3362301  10.546   8.893  13.049
 8052PROX    O162302  10.468   8.986  13.296
 8052PROX    C162303  10.490   9.121  13.355
 8052PROX   H1162304  10.514   9.189  13.271
 8052PROX   H1362305  10.395   9.156  13.401
 8052PROX    C262306  10.606   9.125  13.459
 8052PROX   H2162307  10.590   9.050  13.540
 8052PROX    C362308  10.606   9.266  13.529
 8052PROX   H3162309  10.621   9.347  13.455
 8052PROX   H3262310  10.525   9.286  13.603
 8052PROX   H3362311  10.696   9.265  13.594
 8053PROX    O162312  10.737   9.110  13.398
 8053PROX    C162313  10.791   8.977  13.396
 8053PROX   H1162314  10.834   8.950  13.495
 8053PROX   H1362315  10.718   8.910  13.346
 8053PROX    C262316  10.902   8.967  13.293
 8053PROX   H2162317  10.986   9.033  13.325
 8053PROX    C362318  10.867   9.018  13.151
 8053PROX   H3162319  10.762   8.998  13.119
 8053PROX   H3262320  10.887   9.127  13.156
 8053PROX   H3362321  10.937   8.974  13.077
 8054PROX    O162322  10.953   8.829  13.284
 8054PROX    C162323  11.063   8.807  13.374
 8054PROX   H1162324  11.064   8.864  13.469
 8054PROX   H1362325  11.049   8.700  13.402
 8054PROX    C262326  11.206   8.826  13.310
 8054PROX   H2162327  11.201   8.809  13.200
 8054PROX    C362328  11.305   8.718  13.374
 8054PROX   H3162329  11.408   8.720  13.334
 8054PROX   H3262330  11.321   8.761  13.475
 8054PROX   H3362331  11.271   8.612  13.374
 8055PROX    O162332  11.243   8.961  13.335
 8055PROX    C162333  11.359   9.008  13.265
 8055PROX   H1162334  11.448   9.014  13.331
 8055PROX   H1362335  11.379   8.951  13.172
 8055PROX    C262336  11.321   9.146  13.205
 8055PROX   H2162337  11.304   9.210  13.294
 8055PROX    C362338  11.202   9.146  13.116
 8055PROX   H3162339  11.217   9.072  13.034
 8055PROX   H3262340  11.104   9.140  13.169
 8055PROX   H3362341  11.195   9.241  13.060
 8056PROX    O162342  11.420   9.198  13.110
 8056PROX    C162343  11.543   9.237  13.166
 8056PROX   H1162344  11.539   9.335  13.219
 8056PROX   H1362345  11.574   9.167  13.246
 8056PROX    C262346  11.654   9.233  13.054
 8056PROX   H2162347  11.605   9.170  12.976
 8056PROX    C362348  11.786   9.179  13.107
 8056PROX   H3162349  11.873   9.197  13.040
 8056PROX   H3262350  11.809   9.224  13.205
 8056PROX   H3362351  11.770   9.069  13.117
 8057PROX    O162352  11.669   9.355  12.974
 8057PROX    C162353  11.709   9.470  13.047
 8057PROX   H1162354  11.703   9.459  13.158
 8057PROX   H1362355  11.818   9.487  13.040
 8057PROX    C262356  11.642   9.593  12.984
 8057PROX   H2162357  11.532   9.589  12.997
 8057PROX    C362358  11.673   9.606  12.828
 8057PROX   H3162359  11.605   9.530  12.785
 8057PROX   H3262360  11.645   9.708  12.796
 8057PROX   H3362361  11.781   9.586  12.808
 8058PROX    O162362  11.707   9.707  13.035
 8058PROX    C162363  11.620   9.821  13.039
 8058PROX   H1162364  11.553   9.821  12.950
 8058PROX   H1362365  11.545   9.813  13.121
 8058PROX    C262366  11.698   9.958  13.034
 8058PROX   H2162367  11.783   9.968  12.963
 8058PROX    C362368  11.767   9.993  13.177
 8058PROX   H3162369  11.710   9.942  13.257
 8058PROX   H3262370  11.870   9.952  13.186
 8058PROX   H3362371  11.779  10.102  13.194
 8059PROX    O162372  11.606  10.061  13.005
 8059PROX    C162373  11.599  10.087  12.868
 8059PROX   H1162374  11.681  10.160  12.849
 8059PROX   H1362375  11.612   9.996  12.805
 8059PROX    C262376  11.464  10.150  12.831
 8059PROX   H2162377  11.455  10.236  12.901
 8059PROX    C362378  11.332  10.059  12.837
 8059PROX   H3162379  11.236  10.107  12.808
 8059PROX   H3262380  11.352   9.980  12.762
 8059PROX   H3362381  11.331  10.013  12.938
 8060PROX    O162382  11.476  10.186  12.693
 8060PROX    C162383  11.489  10.325  12.679
 8060PROX   H1162384  11.394  10.371  12.643
 8060PROX   H1362385  11.530  10.380  12.766
 8060PROX    C262386  11.589  10.350  12.565
 8060PROX   H2162387  11.688  10.305  12.584
 8060PROX    C362388  11.594  10.499  12.540
 8060PROX   H3162389  11.494  10.539  12.514
 8060PROX   H3262390  11.628  10.557  12.628
 8060PROX   H3362391  11.660  10.531  12.456
 8061PROX    O162392  11.533  10.292  12.444
 8061PROX    C162393  11.592  10.159  12.429
 8061PROX   H1162394  11.702  10.172  12.419
 8061PROX   H1362395  11.582  10.100  12.522
 8061PROX    C262396  11.526  10.071  12.319
 8061PROX   H2162397  11.515  10.129  12.225
 8061PROX    C362398  11.375  10.040  12.362
 8061PROX   H3162399  11.320   9.974  12.292
 8061PROX   H3262400  11.369  10.001  12.466
 8061PROX   H3362401  11.321  10.136  12.348
 8062PROX    O162402  11.596   9.944  12.290
 8062PROX    C162403  11.729   9.958  12.233
 8062PROX   H1162404  11.731   9.929  12.126
 8062PROX   H1362405  11.772  10.059  12.251
 8062PROX    C262406  11.826   9.868  12.314
 8062PROX   H2162407  11.926   9.884  12.269
 8062PROX    C362408  11.795   9.722  12.321
 8062PROX   H3162409  11.687   9.704  12.337
 8062PROX   H3262410  11.817   9.675  12.223
 8062PROX   H3362411  11.854   9.671  12.400
 8063PROX    O162412  11.823   9.920  12.446
 8063PROX    C162413  11.953   9.955  12.490
 8063PROX   H1162414  12.017   9.865  12.475
 8063PROX   H1362415  11.995  10.038  12.429
 8063PROX    C262416  11.968   9.987  12.637
 8063PROX   H2162417  12.076  10.000  12.662
 8063PROX    C362418  11.910   9.882  12.737
 8063PROX   H3162419  11.939   9.906  12.842
 8063PROX   H3262420  11.799   9.876  12.729
 8063PROX   H3362421  11.945   9.780  12.711
 8064PROX    O162422  11.892  10.098  12.677
 8064PROX    C162423  11.947  10.217  12.622
 8064PROX   H1162424  12.050  10.203  12.585
 8064PROX   H1362425  11.883  10.242  12.534
 8064PROX    C262426  11.939  10.331  12.725
 8064PROX   H2162427  11.843  10.320  12.779
 8064PROX    C362428  11.942  10.472  12.662
 8064PROX   H3162429  11.937  10.553  12.738
 8064PROX   H3262430  12.040  10.500  12.617
 8064PROX   H3362431  11.861  10.483  12.586
 8065PROX    O162432  12.042  10.326  12.823
 8065PROX    C162433  12.027  10.220  12.916
 8065PROX   H1162434  11.933  10.163  12.898
 8065PROX   H1362435  12.113  10.150  12.903
 8065PROX    C262436  12.036  10.268  13.061
 8065PROX   H2162437  12.107  10.352  13.076
 8065PROX    C362438  12.099  10.158  13.154
 8065PROX   H3162439  12.033  10.071  13.176
 8065PROX   H3262440  12.179  10.112  13.092
 8065PROX   H3362441  12.145  10.187  13.251
 8066PROX    O162442  11.906  10.304  13.112
 8066PROX    C162443  11.857  10.429  13.064
 8066PROX   H1162444  11.893  10.510  13.131
 8066PROX   H1362445  11.907  10.449  12.967
 8066PROX    C262446  11.703  10.438  13.037
 8066PROX   H2162447  11.672  10.351  12.975
 8066PROX    C362448  11.663  10.558  12.953
 8066PROX   H3162449  11.686  10.655  13.001
 8066PROX   H3262450  11.704  10.552  12.850
 8066PROX   H3362451  11.554  10.554  12.931
 8067PROX    O162452  11.640  10.444  13.162
 8067PROX    C162453  11.545  10.338  13.183
 8067PROX   H1162454  11.467  10.362  13.108
 8067PROX   H1362455  11.596  10.241  13.162
 8067PROX    C262456  11.484  10.355  13.316
 8067PROX   H2162457  11.400  10.427  13.319
 8067PROX    C362458  11.586  10.379  13.421
 8067PROX   H3162459  11.668  10.304  13.424
 8067PROX   H3262460  11.631  10.478  13.400
 8067PROX   H3362461  11.534  10.387  13.519
 8068PROX    O162462  11.435  10.224  13.359
 8068PROX    C162463  11.300  10.198  13.316
 8068PROX   H1162464  11.235  10.265  13.376
 8068PROX   H1362465  11.297  10.226  13.208
 8068PROX    C262466  11.254  10.051  13.322
 8068PROX   H2162467  11.283  10.029  13.427
 8068PROX    C362468  11.313   9.962  13.221
 8068PROX   H3162469  11.421   9.987  13.214
 8068PROX   H3262470  11.309   9.853  13.243
 8068PROX   H3362471  11.264   9.957  13.122
 8069PROX    O162472  11.113  10.056  13.310
 8069PROX    C162473  11.052   9.946  13.363
 8069PROX   H1162474  11.059   9.873  13.280
 8069PROX   H1362475  11.107   9.914  13.455
 8069PROX    C262476  10.909   9.962  13.415
 8069PROX   H2162477  10.853  10.003  13.328
 8069PROX    C362478  10.898  10.063  13.533
 8069PROX   H3162479  10.800  10.048  13.582
 8069PROX   H3262480  10.963  10.040  13.620
 8069PROX   H3362481  10.913  10.170  13.506
 8070PROX    O162482  10.866   9.830  13.448
 8070PROX    C162483  10.728   9.822  13.436
 8070PROX   H1162484  10.681   9.908  13.487
 8070PROX   H1362485  10.701   9.822  13.328
 8070PROX    C262486  10.676   9.698  13.510
 8070PROX   H2162487  10.747   9.614  13.495
 8070PROX    C362488  10.545   9.646  13.463
 8070PROX   H3162489  10.558   9.607  13.360
 8070PROX   H3262490  10.487   9.573  13.523
 8070PROX   H3362491  10.482   9.737  13.454
 8071PROX    O162492  10.650   9.726  13.644
 8071PROX    C162493  10.766   9.728  13.728
 8071PROX   H1162494  10.844   9.789  13.678
 8071PROX   H1362495  10.744   9.784  13.821
 8071PROX    C262496  10.810   9.581  13.756
 8071PROX   H2162497  10.716   9.521  13.761
 8071PROX    C362498  10.866   9.551  13.890
 8071PROX   H3162499  10.861   9.447  13.928
 8071PROX   H3262500  10.974   9.580  13.886
 8071PROX   H3362501  10.825   9.613  13.973
 8072PROX    O162502  10.893   9.537  13.654
 8072PROX    C162503  10.962   9.416  13.668
 8072PROX   H1162504  11.042   9.422  13.745
 8072PROX   H1362505  10.883   9.342  13.692
 8072PROX    C262506  11.033   9.385  13.533
 8072PROX   H2162507  10.969   9.419  13.449
 8072PROX    C362508  11.057   9.234  13.507
 8072PROX   H3162509  10.955   9.190  13.506
 8072PROX   H3262510  11.106   9.216  13.409
 8072PROX   H3362511  11.123   9.197  13.588
 8073PROX    O162512  11.166   9.451  13.538
 8073PROX    C162513  11.159   9.590  13.524
 8073PROX   H1162514  11.072   9.629  13.466
 8073PROX   H1362515  11.141   9.644  13.620
 8073PROX    C262516  11.293   9.645  13.456
 8073PROX   H2162517  11.288   9.755  13.449
 8073PROX    C362518  11.312   9.601  13.310
 8073PROX   H3162519  11.218   9.631  13.260
 8073PROX   H3262520  11.407   9.647  13.275
 8073PROX   H3362521  11.319   9.491  13.296
 8074PROX    O162522  11.410   9.605  13.526
 8074PROX    C162523  11.434   9.676  13.647
 8074PROX   H1162524  11.345   9.683  13.713
 8074PROX   H1362525  11.518   9.626  13.700
 8074PROX    C262526  11.479   9.822  13.625
 8074PROX   H2162527  11.391   9.875  13.584
 8074PROX    C362528  11.583   9.832  13.514
 8074PROX   H3162529  11.677   9.779  13.540
 8074PROX   H3262530  11.542   9.786  13.422
 8074PROX   H3362531  11.593   9.941  13.494
 8075PROX    O162532  11.527   9.869  13.745
 8075PROX    C162533  11.537  10.012  13.762
 8075PROX   H1162534  11.574  10.032  13.864
 8075PROX   H1362535  11.607  10.050  13.685
 8075PROX    C262536  11.406  10.083  13.743
 8075PROX   H2162537  11.362  10.062  13.643
 8075PROX    C362538  11.420  10.230  13.758
 8075PROX   H3162539  11.496  10.280  13.694
 8075PROX   H3262540  11.325  10.281  13.735
 8075PROX   H3362541  11.450  10.246  13.864
 8076PROX    O162542  11.314  10.037  13.842
 8076PROX    C162543  11.181  10.057  13.802
 8076PROX   H1162544  11.158  10.165  13.815
 8076PROX   H1362545  11.158  10.027  13.697
 8076PROX    C262546  11.083   9.980  13.895
 8076PROX   H2162547  11.105  10.017  13.998
 8076PROX    C362548  11.115   9.833  13.887
 8076PROX   H3162549  11.225   9.819  13.894
 8076PROX   H3262550  11.057   9.782  13.968
 8076PROX   H3362551  11.081   9.793  13.789
 8077PROX    O162552  10.954  10.003  13.859
 8077PROX    C162553  10.915  10.138  13.873
 8077PROX   H1162554  10.938  10.181  13.973
 8077PROX   H1362555  10.960  10.204  13.796
 8077PROX    C262556  10.763  10.137  13.868
 8077PROX   H2162557  10.728  10.043  13.822
 8077PROX    C362558  10.705  10.265  13.803
 8077PROX   H3162559  10.689  10.239  13.696
 8077PROX   H3262560  10.602  10.284  13.840
 8077PROX   H3362561  10.762  10.360  13.814
 8078PROX    O162562  10.711  10.136  14.002
 8078PROX    C162563  10.758  10.032  14.084
 8078PROX   H1162564  10.740   9.938  14.028
 8078PROX   H1362565  10.867  10.045  14.098
 8078PROX    C262566  10.678  10.010  14.217
 8078PROX   H2162567  10.656  10.107  14.268
 8078PROX    C362568  10.765   9.922  14.319
 8078PROX   H3162569  10.810   9.839  14.260
 8078PROX   H3262570  10.847   9.973  14.374
 8078PROX   H3362571  10.693   9.869  14.384
 8079PROX    O162572  10.559   9.939  14.189
 8079PROX    C162573  10.445  10.015  14.166
 8079PROX   H1162574  10.429  10.094  14.243
 8079PROX   H1362575  10.451  10.077  14.074
 8079PROX    C262576  10.322   9.919  14.175
 8079PROX   H2162577  10.234   9.981  14.151
 8079PROX    C362578  10.291   9.887  14.330
 8079PROX   H3162579  10.259   9.977  14.387
 8079PROX   H3262580  10.212   9.811  14.345
 8079PROX   H3362581  10.383   9.848  14.379
 8080PROX    O162582  10.331   9.803  14.102
 8080PROX    C162583  10.343   9.836  13.966
 8080PROX   H1162584  10.279   9.925  13.953
 8080PROX   H1362585  10.449   9.864  13.946
 8080PROX    C262586  10.304   9.715  13.870
 8080PROX   H2162587  10.200   9.691  13.900
 8080PROX    C362588  10.397   9.585  13.895
 8080PROX   H3162589  10.499   9.614  13.862
 8080PROX   H3262590  10.384   9.558  14.002
 8080PROX   H3362591  10.359   9.507  13.825
 8081PROX    O162592  10.316   9.754  13.735
 8081PROX    C162593  10.220   9.855  13.691
 8081PROX   H1162594  10.151   9.816  13.614
 8081PROX   H1362595  10.157   9.893  13.773
 8081PROX    C262596  10.291   9.973  13.626
 8081PROX   H2162597  10.328   9.936  13.528
 8081PROX    C362598  10.403  10.023  13.722
 8081PROX   H3162599  10.494   9.959  13.726
 8081PROX   H3262600  10.430  10.127  13.694
 8081PROX   H3362601  10.360  10.040  13.823
 8082PROX    O162602  10.205  10.087  13.605
 8082PROX    C162603  10.259  10.175  13.505
 8082PROX   H1162604  10.370  10.186  13.509
 8082PROX   H1362605  10.224  10.136  13.407
 8082PROX    C262606  10.181  10.312  13.504
 8082PROX   H2162607  10.187  10.356  13.606
 8082PROX    C362608  10.032  10.299  13.459
 8082PROX   H3162609  10.025  10.230  13.373
 8082PROX   H3262610   9.954  10.259  13.528
 8082PROX   H3362611   9.984  10.396  13.438
 8083PROX    O162612  10.238  10.403  13.407
 8083PROX    C162613  10.360  10.463  13.450
 8083PROX   H1162614  10.339  10.510  13.548
 8083PROX   H1362615  10.441  10.386  13.457
 8083PROX    C262616  10.408  10.579  13.356
 8083PROX   H2162617  10.330  10.656  13.341
 8083PROX    C362618  10.445  10.516  13.226
 8083PROX   H3162619  10.540  10.459  13.231
 8083PROX   H3262620  10.373  10.438  13.194
 8083PROX   H3362621  10.455  10.598  13.151
 8084PROX    O162622  10.521  10.642  13.421
 8084PROX    C162623  10.594  10.744  13.351
 8084PROX   H1162624  10.641  10.704  13.259
 8084PROX   H1362625  10.531  10.833  13.328
 8084PROX    C262626  10.709  10.794  13.440
 8084PROX   H2162627  10.774  10.712  13.479
 8084PROX    C362628  10.652  10.865  13.566
 8084PROX   H3162629  10.592  10.790  13.622
 8084PROX   H3262630  10.728  10.893  13.642
 8084PROX   H3362631  10.581  10.950  13.549
 8085PROX    O162632  10.797  10.875  13.363
 8085PROX    C162633  10.887  10.802  13.281
 8085PROX   H1162634  10.958  10.751  13.349
 8085PROX   H1362635  10.828  10.721  13.232
 8085PROX    C262636  10.946  10.897  13.170
 8085PROX   H2162637  10.989  10.986  13.219
 8085PROX    C362638  10.844  10.949  13.068
 8085PROX   H3162639  10.751  10.963  13.128
 8085PROX   H3262640  10.877  11.046  13.025
 8085PROX   H3362641  10.840  10.881  12.980
 8086PROX    O162642  11.035  10.823  13.085
 8086PROX    C162643  11.156  10.797  13.147
 8086PROX   H1162644  11.185  10.894  13.192
 8086PROX   H1362645  11.143  10.728  13.234
 8086PROX    C262646  11.254  10.737  13.048
 8086PROX   H2162647  11.214  10.643  13.004
 8086PROX    C362648  11.374  10.693  13.132
 8086PROX   H3162649  11.429  10.781  13.171
 8086PROX   H3262650  11.345  10.624  13.214
 8086PROX   H3362651  11.445  10.627  13.077
 8087PROX    O162652  11.288  10.831  12.947
 8087PROX    C162653  11.354  10.764  12.838
 8087PROX   H1162654  11.461  10.743  12.857
 8087PROX   H1362655  11.296  10.675  12.805
 8087PROX    C262656  11.353  10.859  12.716
 8087PROX   H2162657  11.416  10.948  12.736
 8087PROX    C362658  11.207  10.902  12.686
 8087PROX   H3162659  11.155  10.928  12.781
 8087PROX   H3262660  11.209  10.990  12.619
 8087PROX   H3362661  11.154  10.820  12.634
 8088PROX    O162662  11.393  10.792  12.593
 8088PROX    C162663  11.416  10.880  12.482
 8088PROX   H1162664  11.322  10.919  12.438
 8088PROX   H1362665  11.472  10.966  12.524
 8088PROX    C262666  11.497  10.804  12.377
 8088PROX   H2162667  11.556  10.726  12.429
 8088PROX    C362668  11.593  10.904  12.313
 8088PROX   H3162669  11.673  10.953  12.372
 8088PROX   H3262670  11.640  10.861  12.222
 8088PROX   H3362671  11.532  10.981  12.261
 8089PROX    O162672  11.414  10.739  12.283
 8089PROX    C162673  11.480  10.635  12.207
 8089PROX   H1162674  11.572  10.672  12.158
 8089PROX   H1362675  11.509  10.547  12.268
 8089PROX    C262676  11.392  10.575  12.092
 8089PROX   H2162677  11.368  10.658  12.022
 8089PROX    C362678  11.262  10.529  12.158
 8089PROX   H3162679  11.200  10.496  12.072
 8089PROX   H3262680  11.280  10.446  12.229
 8089PROX   H3362681  11.219  10.618  12.209
 8090PROX    O162682  11.455  10.468  12.027
 8090PROX    C162683  11.418  10.477  11.891
 8090PROX   H1162684  11.308  10.489  11.880
 8090PROX   H1362685  11.461  10.565  11.840
 8090PROX    C262686  11.452  10.342  11.829
 8090PROX   H2162687  11.556  10.319  11.860
 8090PROX    C362688  11.440  10.349  11.682
 8090PROX   H3162689  11.335  10.351  11.647
 8090PROX   H3262690  11.493  10.441  11.648
 8090PROX   H3362691  11.479  10.254  11.639
 8091PROX    O162692  11.359  10.243  11.875
 8091PROX    C162693  11.427  10.120  11.867
 8091PROX   H1162694  11.443  10.087  11.762
 8091PROX   H1362695  11.531  10.128  11.906
 8091PROX    C262696  11.366  10.020  11.963
 8091PROX   H2162697  11.353  10.076  12.059
 8091PROX    C362698  11.466   9.909  11.970
 8091PROX   H3162699  11.425   9.832  12.039
 8091PROX   H3262700  11.486   9.857  11.874
 8091PROX   H3362701  11.563   9.945  12.011
 8092PROX    O162702  11.239   9.984  11.902
 8092PROX    C162703  11.138   9.953  12.001
 8092PROX   H1162704  11.087   9.864  11.961
 8092PROX   H1362705  11.172   9.916  12.100
 8092PROX    C262706  11.033  10.067  12.016
 8092PROX   H2162707  10.991  10.091  11.916
 8092PROX    C362708  11.086  10.199  12.085
 8092PROX   H3162709  11.125  10.186  12.188
 8092PROX   H3262710  11.168  10.248  12.027
 8092PROX   H3362711  11.008  10.278  12.094
 8093PROX    O162712  10.933  10.022  12.105
 8093PROX    C162713  10.815   9.984  12.031
 8093PROX   H1162714  10.775  10.078  11.988
 8093PROX   H1362715  10.836   9.903  11.957
 8093PROX    C262716  10.711   9.945  12.140
 8093PROX   H2162717  10.748   9.897  12.233
 8093PROX    C362718  10.622   9.832  12.076
 8093PROX   H3162719  10.678   9.743  12.040
 8093PROX   H3262720  10.556   9.794  12.157
 8093PROX   H3362721  10.561   9.872  11.992
 8094PROX    O162722  10.609  10.044  12.170
 8094PROX    C162723  10.673  10.155  12.236
 8094PROX   H1162724  10.744  10.110  12.308
 8094PROX   H1362725  10.737  10.208  12.163
 8094PROX    C262726  10.580  10.260  12.299
 8094PROX   H2162727  10.516  10.203  12.369
 8094PROX    C362728  10.494  10.326  12.191
 8094PROX   H3162729  10.416  10.392  12.234
 8094PROX   H3262730  10.566  10.377  12.123
 8094PROX   H3362731  10.438  10.252  12.130
 8095PROX    O162732  10.643  10.367  12.357
 8095PROX    C162733  10.710  10.330  12.474
 8095PROX   H1162734  10.805  10.272  12.469
 8095PROX   H1362735  10.747  10.428  12.511
 8095PROX    C262736  10.613  10.255  12.582
 8095PROX   H2162737  10.506  10.276  12.557
 8095PROX    C362738  10.627  10.311  12.725
 8095PROX   H3162739  10.721  10.272  12.770
 8095PROX   H3262740  10.618  10.421  12.708
 8095PROX   H3362741  10.542  10.271  12.784
 8096PROX    O162742  10.632  10.116  12.572
 8096PROX    C162743  10.519  10.036  12.614
 8096PROX   H1162744  10.500  10.062  12.720
 8096PROX   H1362745  10.437  10.061  12.544
 8096PROX    C262746  10.561   9.886  12.607
 8096PROX   H2162747  10.651   9.876  12.672
 8096PROX    C362748  10.608   9.838  12.466
 8096PROX   H3162749  10.615   9.727  12.472
 8096PROX   H3262750  10.528   9.858  12.392
 8096PROX   H3362751  10.702   9.884  12.430
 8097PROX    O162752  10.454   9.804  12.667
 8097PROX    C162753  10.349   9.774  12.579
 8097PROX   H1162754  10.338   9.859  12.508
 8097PROX   H1362755  10.368   9.683  12.519
 8097PROX    C262756  10.212   9.753  12.646
 8097PROX   H2162757  10.217   9.748  12.757
 8097PROX    C362758  10.148   9.625  12.601
 8097PROX   H3162759  10.215   9.539  12.582
 8097PROX   H3262760  10.072   9.586  12.672
 8097PROX   H3362761  10.098   9.651  12.504
 8098PROX    O162762  10.130   9.867  12.623
 8098PROX    C162763  10.156   9.976  12.714
 8098PROX   H1162764  10.103   9.953  12.809
 8098PROX   H1362765  10.264   9.991  12.738
 8098PROX    C262766  10.098  10.115  12.668
 8098PROX   H2162767   9.988  10.105  12.680
 8098PROX    C362768  10.131  10.152  12.521
 8098PROX   H3162769  10.239  10.179  12.518
 8098PROX   H3262770  10.108  10.073  12.446
 8098PROX   H3362771  10.087  10.248  12.487
 8099PROX    O162772  10.150  10.214  12.763
 8099PROX    C162773  10.133  10.346  12.726
 8099PROX   H1162774  10.211  10.366  12.649
 8099PROX   H1362775  10.035  10.352  12.674
 8099PROX    C262776  10.145  10.444  12.849
 8099PROX   H2162777  10.099  10.540  12.818
 8099PROX    C362778  10.290  10.476  12.892
 8099PROX   H3162779  10.300  10.540  12.982
 8099PROX   H3262780  10.348  10.387  12.924
 8099PROX   H3362781  10.337  10.519  12.801
 8100PROX    O162782  10.060  10.402  12.960
 8100PROX    C162783  10.110  10.293  13.037
 8100PROX   H1162784  10.197  10.253  12.981
 8100PROX   H1362785  10.142  10.344  13.131
 8100PROX    C262786  10.001  10.191  13.049
 8100PROX   H2162787   9.975  10.161  12.945
 8100PROX    C362788   9.892  10.259  13.112
 8100PROX   H3162789   9.867  10.345  13.047
 8100PROX   H3262790   9.797  10.205  13.134
 8100PROX   H3362791   9.912  10.314  13.206
 8101PROX    O162792  10.039  10.083  13.129
 8101PROX    C162793   9.962   9.968  13.111
 8101PROX   H1162794   9.856   9.993  13.132
 8101PROX   H1362795   9.970   9.926  13.009
 8101PROX    C262796   9.979   9.854  13.219
 8101PROX   H2162797   9.904   9.772  13.211
 8101PROX    C362798   9.961   9.908  13.360
 8101PROX   H3162799   9.991   9.835  13.437
 8101PROX   H3262800  10.039   9.986  13.376
 8101PROX   H3362801   9.862   9.959  13.359
 8102PROX    O162802  10.117   9.796  13.220
 8102PROX    C162803  10.139   9.696  13.121
 8102PROX   H1162804  10.116   9.597  13.167
 8102PROX   H1362805  10.078   9.708  13.029
 8102PROX    C262806  10.293   9.692  13.089
 8102PROX   H2162807  10.351   9.663  13.179
 8102PROX    C362808  10.351   9.839  13.057
 8102PROX   H3162809  10.371   9.901  13.147
 8102PROX   H3262810  10.447   9.827  13.004
 8102PROX   H3362811  10.277   9.892  12.993
 8103PROX    O162812  10.305   9.614  12.971
 8103PROX    C162813  10.300   9.474  13.000
 8103PROX   H1162814  10.360   9.453  13.091
 8103PROX   H1362815  10.194   9.440  13.004
 8103PROX    C262816  10.367   9.393  12.886
 8103PROX   H2162817  10.361   9.457  12.795
 8103PROX    C362818  10.302   9.255  12.860
 8103PROX   H3162819  10.197   9.264  12.827
 8103PROX   H3262820  10.346   9.187  12.784
 8103PROX   H3362821  10.314   9.200  12.956
 8104PROX    O162822  10.505   9.367  12.911
 8104PROX    C162823  10.581   9.487  12.907
 8104PROX   H1162824  10.560   9.539  12.811
 8104PROX   H1362825  10.551   9.546  12.997
 8104PROX    C262826  10.726   9.459  12.947
 8104PROX   H2162827  10.786   9.412  12.867
 8104PROX    C362828  10.742   9.359  13.067
 8104PROX   H3162829  10.850   9.348  13.091
 8104PROX   H3262830  10.707   9.401  13.164
 8104PROX   H3362831  10.691   9.261  13.058
 8105PROX    O162832  10.785   9.576  12.993
 8105PROX    C162833  10.805   9.669  12.888
 8105PROX   H1162834  10.866   9.615  12.812
 8105PROX   H1362835  10.712   9.702  12.837
 8105PROX    C262836  10.888   9.785  12.943
 8105PROX   H2162837  10.917   9.849  12.857
 8105PROX    C362838  11.017   9.717  13.008
 8105PROX   H3162839  11.099   9.793  13.014
 8105PROX   H3262840  10.996   9.676  13.109
 8105PROX   H3362841  11.046   9.631  12.944
 8106PROX    O162842  10.818   9.869  13.031
 8106PROX    C162843  10.718   9.954  12.968
 8106PROX   H1162844  10.773  10.019  12.897
 8106PROX   H1362845  10.638   9.898  12.915
 8106PROX    C262846  10.658  10.055  13.075
 8106PROX   H2162847  10.607   9.991  13.150
 8106PROX    C362848  10.551  10.136  13.016
 8106PROX   H3162849  10.481  10.172  13.095
 8106PROX   H3262850  10.586  10.231  12.970
 8106PROX   H3362851  10.500  10.079  12.936
 8107PROX    O162852  10.765  10.135  13.133
 8107PROX    C162853  10.722  10.236  13.232
 8107PROX   H1162854  10.624  10.284  13.211
 8107PROX   H1362855  10.701  10.183  13.328
 8107PROX    C262856  10.827  10.345  13.266
 8107PROX   H2162857  10.920  10.289  13.289
 8107PROX    C362858  10.785  10.420  13.393
 8107PROX   H3162859  10.859  10.497  13.423
 8107PROX   H3262860  10.689  10.476  13.389
 8107PROX   H3362861  10.773  10.356  13.483
 8108PROX    O162862  10.835  10.444  13.171
 8108PROX    C162863  10.868  10.392  13.045
 8108PROX   H1162864  10.947  10.315  13.056
 8108PROX   H1362865  10.778  10.354  12.993
 8108PROX    C262866  10.937  10.502  12.958
 8108PROX   H2162867  11.023  10.541  13.016
 8108PROX    C362868  10.836  10.615  12.929
 8108PROX   H3162869  10.882  10.696  12.868
 8108PROX   H3262870  10.751  10.570  12.874
 8108PROX   H3362871  10.798  10.657  13.025
 8109PROX    O162872  10.980  10.440  12.837
 8109PROX    C162873  11.031  10.525  12.733
 8109PROX   H1162874  10.947  10.560  12.670
 8109PROX   H1362875  11.092  10.611  12.769
 8109PROX    C262876  11.117  10.434  12.650
 8109PROX   H2162877  11.205  10.390  12.702
 8109PROX    C362878  11.163  10.519  12.530
 8109PROX   H3162879  11.168  10.463  12.434
 8109PROX   H3262880  11.084  10.593  12.506
 8109PROX   H3362881  11.262  10.562  12.556
 8110PROX    O162882  11.033  10.332  12.590
 8110PROX    C162883  11.099  10.226  12.525
 8110PROX   H1162884  11.143  10.260  12.429
 8110PROX   H1362885  11.189  10.197  12.582
 8110PROX    C262886  11.012  10.100  12.522
 8110PROX   H2162887  10.925  10.121  12.455
 8110PROX    C362888  10.952  10.054  12.660
 8110PROX   H3162889  11.037  10.031  12.729
 8110PROX   H3262890  10.893  10.137  12.703
 8110PROX   H3362891  10.882   9.968  12.655
 8111PROX    O162892  11.089   9.994  12.461
 8111PROX    C162893  11.007   9.884  12.427
 8111PROX   H1162894  10.935   9.853  12.505
 8111PROX   H1362895  10.939   9.911  12.344
 8111PROX    C262896  11.099   9.766  12.386
 8111PROX   H2162897  11.192   9.796  12.333
 8111PROX    C362898  11.024   9.664  12.292
 8111PROX   H3162899  10.922   9.648  12.332
 8111PROX   H3262900  11.004   9.707  12.191
 8111PROX   H3362901  11.079   9.568  12.290
 8112PROX    O162902  11.132   9.695  12.502
 8112PROX    C162903  11.229   9.749  12.584
 8112PROX   H1162904  11.325   9.749  12.528
 8112PROX   H1362905  11.191   9.847  12.620
 8112PROX    C262906  11.246   9.649  12.700
 8112PROX   H2162907  11.145   9.619  12.736
 8112PROX    C362908  11.323   9.697  12.819
 8112PROX   H3162909  11.263   9.772  12.874
 8112PROX   H3262910  11.327   9.616  12.894
 8112PROX   H3362911  11.421   9.734  12.782
 8113PROX    O162912  11.320   9.531  12.672
 8113PROX    C162913  11.252   9.423  12.594
 8113PROX   H1162914  11.162   9.463  12.543
 8113PROX   H1362915  11.317   9.385  12.512
 8113PROX    C262916  11.212   9.305  12.695
 8113PROX   H2162917  11.141   9.338  12.773
 8113PROX    C362918  11.338   9.252  12.762
 8113PROX   H3162919  11.375   9.331  12.831
 8113PROX   H3262920  11.318   9.160  12.821
 8113PROX   H3362921  11.421   9.223  12.695
 8114PROX    O162922  11.171   9.184  12.621
 8114PROX    C162923  11.056   9.203  12.535
 8114PROX   H1162924  11.075   9.282  12.458
 8114PROX   H1362925  11.049   9.107  12.481
 8114PROX    C262926  10.930   9.230  12.627
 8114PROX   H2162927  10.938   9.330  12.674
 8114PROX    C362928  10.917   9.139  12.754
 8114PROX   H3162929  11.014   9.112  12.803
 8114PROX   H3262930  10.855   9.194  12.828
 8114PROX   H3362931  10.868   9.041  12.733
 8115PROX    O162932  10.810   9.207  12.553
 8115PROX    C162933  10.713   9.307  12.581
 8115PROX   H1162934  10.677   9.299  12.686
 8115PROX   H1362935  10.758   9.405  12.553
 8115PROX    C262936  10.594   9.285  12.492
 8115PROX   H2162937  10.626   9.273  12.386
 8115PROX    C362938  10.499   9.411  12.499
 8115PROX   H3162939  10.403   9.394  12.448
 8115PROX   H3262940  10.487   9.429  12.608
 8115PROX   H3362941  10.553   9.498  12.456
 8116ETHO    O162942  10.525   9.169  12.527
 8116ETHO    C162943  10.576   9.043  12.471
 8116ETHO   H1162944  10.673   9.008  12.511
 8116ETHO   H1362945  10.603   9.056  12.364
 8116ETHO    C262946  10.480   8.922  12.483
 8116ETHO   H2162947  10.467   8.898  12.590
 8116ETHO   H2362948  10.524   8.830  12.439
 8117ETHO    O162949  10.368   8.959  12.407
 8117ETHO    C162950  10.242   8.912  12.462
 8117ETHO   H1162951  10.254   8.812  12.508
 8117ETHO   H1362952  10.215   8.981  12.544
 8117ETHO    C262953  10.125   8.907  12.360
 8117ETHO   H2162954  10.042   8.849  12.407
 8117ETHO   H2362955  10.146   8.861  12.261
 8118ETHO    O162956  10.064   9.037  12.340
 8118ETHO    C162957   9.959   9.020  12.235
 8118ETHO   H1162958   9.893   8.939  12.272
 8118ETHO   H1362959  10.016   8.994  12.144
 8118ETHO    C262960   9.883   9.152  12.212
 8118ETHO   H2162961   9.857   9.151  12.104
 8118ETHO   H2362962   9.958   9.229  12.241
 8119ETHO    O162963   9.766   9.162  12.288
 8119ETHO    C162964   9.722   9.298  12.295
 8119ETHO   H1162965   9.775   9.339  12.383
 8119ETHO   H1362966   9.749   9.337  12.195
 8119ETHO    C262967   9.567   9.305  12.316
 8119ETHO   H2162968   9.519   9.283  12.218
 8119ETHO   H2362969   9.539   9.410  12.338
 8120ETHO    O162970   9.517   9.232  12.423
 8120ETHO    C162971   9.387   9.274  12.472
 8120ETHO   H1162972   9.309   9.250  12.397
 8120ETHO   H1362973   9.386   9.384  12.488
 8120ETHO    C262974   9.339   9.204  12.603
 8120ETHO   H2162975   9.250   9.257  12.643
 8120ETHO   H2362976   9.426   9.212  12.672
 8121ETHO    O162977   9.317   9.064  12.570
 8121ETHO    C162978   9.348   8.987  12.684
 8121ETHO   H1162979   9.453   9.007  12.712
 8121ETHO   H1362980   9.274   9.013  12.763
 8121ETHO    C262981   9.345   8.832  12.657
 8121ETHO   H2162982   9.312   8.820  12.551
 8121ETHO   H2362983   9.266   8.788  12.722
 8122ETHO    O162984   9.477   8.779  12.678
 8122ETHO    C162985   9.491   8.645  12.633
 8122ETHO   H1162986   9.599   8.623  12.616
 8122ETHO   H1362987   9.450   8.630  12.531
 8122ETHO    C262988   9.426   8.534  12.714
 8122ETHO   H2162989   9.431   8.567  12.820
 8122ETHO   H2362990   9.494   8.446  12.708
 8123ETHO    O162991   9.290   8.504  12.682
 8123ETHO    C162992   9.275   8.397  12.587
 8123ETHO   H1162993   9.351   8.429  12.512
 8123ETHO   H1362994   9.307   8.303  12.636
 8123ETHO    C262995   9.140   8.385  12.522
 8123ETHO   H2162996   9.119   8.485  12.480
 8123ETHO   H2362997   9.150   8.301  12.450
 8124ETHO    O162998   9.039   8.349  12.612
 8124ETHO    C162999   8.912   8.352  12.550
 8124ETHO   H1163000   8.890   8.460  12.538
 8124ETHO   H1363001   8.915   8.315  12.446
 8124ETHO    C263002   8.800   8.273  12.623
 8124ETHO   H2163003   8.705   8.327  12.603
 8124ETHO   H2363004   8.827   8.269  12.730
 8125ETHO    O163005   8.791   8.135  12.578
 8125ETHO    C163006   8.668   8.076  12.627
 8125ETHO   H1163007   8.660   8.095  12.736
 8125ETHO   H1363008   8.586   8.129  12.574
 8125ETHO    C263009   8.671   7.926  12.620
 8125ETHO   H2163010   8.732   7.883  12.702
 8125ETHO   H2363011   8.697   7.889  12.519
 8126ETHO    O163012   8.545   7.883  12.658
 8126ETHO    C163013   8.528   7.742  12.650
 8126ETHO   H1163014   8.512   7.724  12.542
 8126ETHO   H1363015   8.625   7.701  12.686
 8126ETHO    C263016   8.413   7.674  12.713
 8126ETHO   H2163017   8.388   7.576  12.666
 8126ETHO   H2363018   8.321   7.732  12.686
 8127ETHO    O163019   8.425   7.649  12.851
 8127ETHO    C163020   8.383   7.763  12.930
 8127ETHO   H1163021   8.281   7.803  12.913
 8127ETHO   H1363022   8.457   7.841  12.900
 8127ETHO    C263023   8.393   7.741  13.082
 8127ETHO   H2163024   8.392   7.840  13.131
 8127ETHO   H2363025   8.484   7.685  13.110
 8128ETHO    O163026   8.271   7.679  13.144
 8128ETHO    C163027   8.271   7.670  13.285
 8128ETHO   H1163028   8.340   7.597  13.333
 8128ETHO   H1363029   8.300   7.770  13.325
 8128ETHO    C263030   8.135   7.620  13.338
 8128ETHO   H2163031   8.138   7.608  13.448
 8128ETHO   H2363032   8.099   7.520  13.303
 8129ETHO    O163033   8.026   7.705  13.304
 8129ETHO    C163034   7.900   7.646  13.313
 8129ETHO   H1163035   7.885   7.626  13.421
 8129ETHO   H1363036   7.893   7.552  13.255
 8129ETHO    C263037   7.788   7.741  13.263
 8129ETHO   H2163038   7.787   7.736  13.152
 8129ETHO   H2363039   7.823   7.843  13.289
 8130ETHO    O163040   7.665   7.714  13.328
 8130ETHO    C163041   7.557   7.800  13.291
 8130ETHO   H1163042   7.501   7.822  13.385
 8130ETHO   H1363043   7.606   7.894  13.258
 8130ETHO    C263044   7.473   7.734  13.174
 8130ETHO   H2163045   7.372   7.780  13.158
 8130ETHO   H2363046   7.449   7.629  13.200
 8131ETHO    O163047   7.542   7.738  13.053
 8131ETHO    C163048   7.475   7.662  12.956
 8131ETHO   H1163049   7.484   7.712  12.857
 8131ETHO   H1363050   7.366   7.663  12.979
 8131ETHO    C263051   7.525   7.523  12.947
 8131ETHO   H2163052   7.533   7.470  13.044
 8131ETHO   H2363053   7.626   7.524  12.900
 8132ETHO    O163054   7.433   7.448  12.869
 8132ETHO    C163055   7.482   7.313  12.853
 8132ETHO   H1163056   7.558   7.303  12.772
 8132ETHO   H1363057   7.529   7.286  12.950
 8132ETHO    C263058   7.360   7.227  12.817
 8132ETHO   H2163059   7.405   7.125  12.819
 8132ETHO   H2363060   7.322   7.255  12.717
 8133ETHO    O163061   7.250   7.241  12.905
 8133ETHO    C163062   7.147   7.147  12.893
 8133ETHO   H1163063   7.162   7.062  12.963
 8133ETHO   H1363064   7.114   7.127  12.789
 8133ETHO    C263065   7.019   7.208  12.954
 8133ETHO   H2163066   6.937   7.137  12.929
 8133ETHO   H2363067   6.999   7.307  12.906
 8134ETHO    O163068   7.021   7.236  13.090
 8134ETHO    C163069   6.913   7.313  13.125
 8134ETHO   H1163070   6.927   7.406  13.066
 8134ETHO   H1363071   6.821   7.259  13.095
 8134ETHO    C263072   6.899   7.345  13.272
 8134ETHO   H2163073   6.821   7.424  13.280
 8134ETHO   H2363074   6.989   7.395  13.315
 8135ETHO    O163075   6.854   7.235  13.352
 8135ETHO    C163076   6.759   7.267  13.454
 8135ETHO   H1163077   6.804   7.339  13.525
 8135ETHO   H1363078   6.681   7.319  13.394
 8135ETHO    C263079   6.689   7.144  13.520
 8135ETHO   H2163080   6.757   7.056  13.515
 8135ETHO   H2363081   6.604   7.116  13.454
 8136ETHO    O163082   6.642   7.162  13.655
 8136ETHO    C163083   6.526   7.091  13.689
 8136ETHO   H1163084   6.444   7.135  13.628
 8136ETHO   H1363085   6.554   6.985  13.674
 8136ETHO    C263086   6.504   7.114  13.837
 8136ETHO   H2163087   6.397   7.098  13.860
 8136ETHO   H2363088   6.519   7.222  13.858
 8137ETHO    O163089   6.598   7.045  13.922
 8137ETHO    C163090   6.556   7.039  14.060
 8137ETHO   H1163091   6.446   7.033  14.068
 8137ETHO   H1363092   6.599   6.948  14.109
 8137ETHO    C263093   6.611   7.166  14.137
 8137ETHO   H2163094   6.721   7.186  14.134
 8137ETHO   H2363095   6.597   7.144  14.245
 8138ETHO    O163096   6.549   7.288  14.103
 8138ETHO    C163097   6.421   7.292  14.167
 8138ETHO   H1163098   6.414   7.225  14.256
 8138ETHO   H1363099   6.351   7.252  14.090
 8138ETHO    C263100   6.388   7.427  14.215
 8138ETHO   H2163101   6.278   7.423  14.231
 8138ETHO   H2363102   6.410   7.495  14.130
 8139ETHO    O163103   6.450   7.459  14.336
 8139ETHO    C163104   6.560   7.543  14.319
 8139ETHO   H1163105   6.623   7.524  14.409
 8139ETHO   H1363106   6.626   7.511  14.235
 8139ETHO    C263107   6.516   7.689  14.328
 8139ETHO   H2163108   6.612   7.741  14.351
 8139ETHO   H2363109   6.463   7.695  14.425
 8140ETHO    O163110   6.456   7.732  14.213
 8140ETHO    C163111   6.408   7.863  14.241
 8140ETHO   H1163112   6.491   7.936  14.253
 8140ETHO   H1363113   6.350   7.870  14.335
 8140ETHO    C263114   6.328   7.924  14.118
 8140ETHO   H2163115   6.389   7.902  14.028
 8140ETHO   H2363116   6.325   8.035  14.131
 8141ETHO    O163117   6.193   7.878  14.106
 8141ETHO    C163118   6.105   7.964  14.030
 8141ETHO   H1163119   6.104   8.062  14.082
 8141ETHO   H1363120   6.141   7.986  13.927
 8141ETHO    C263121   5.967   7.906  14.000
 8141ETHO   H2163122   5.911   7.992  13.957
 8141ETHO   H2363123   5.916   7.881  14.096
 8142ETHO    O163124   5.961   7.792  13.912
 8142ETHO    C163125   5.829   7.754  13.873
 8142ETHO   H1163126   5.778   7.846  13.839
 8142ETHO   H1363127   5.755   7.725  13.950
 8142ETHO    C263128   5.815   7.637  13.766
 8142ETHO   H2163129   5.869   7.668  13.675
 8142ETHO   H2363130   5.709   7.629  13.734
 8143ETHO    O163131   5.849   7.513  13.820
 8143ETHO    C163132   5.948   7.443  13.747
 8143ETHO   H1163133   5.928   7.336  13.773
 8143ETHO   H1363134   5.933   7.461  13.639
 8143ETHO    C263135   6.091   7.489  13.796
 8143ETHO   H2163136   6.157   7.400  13.801
 8143ETHO   H2363137   6.096   7.537  13.896
 8144ETHO    O163138   6.141   7.588  13.704
 8144ETHO    C163139   6.282   7.606  13.711
 8144ETHO   H1163140   6.310   7.612  13.818
 8144ETHO   H1363141   6.309   7.702  13.663
 8144ETHO    C263142   6.349   7.498  13.633
 8144ETHO   H2163143   6.305   7.396  13.644
 8144ETHO   H2363144   6.457   7.477  13.653
 8145ETHO    O163145   6.350   7.531  13.498
 8145ETHO    C163146   6.390   7.423  13.423
 8145ETHO   H1163147   6.469   7.359  13.468
 8145ETHO   H1363148   6.299   7.359  13.420
 8145ETHO    C263149   6.416   7.465  13.279
 8145ETHO   H2163150   6.339   7.519  13.220
 8145ETHO   H2363151   6.436   7.366  13.232
 8146ETHO    O163152   6.530   7.552  13.284
 8146ETHO    C163153   6.562   7.611  13.163
 8146ETHO   H1163154   6.595   7.534  13.090
 8146ETHO   H1363155   6.476   7.671  13.128
 8146ETHO    C263156   6.684   7.703  13.187
 8146ETHO   H2163157   6.707   7.735  13.083
 8146ETHO   H2363158   6.775   7.644  13.211
 8147ETHO    O163159   6.669   7.803  13.285
 8147ETHO    C163160   6.784   7.886  13.298
 8147ETHO   H1163161   6.876   7.827  13.315
 8147ETHO   H1363162   6.805   7.940  13.203
 8147ETHO    C263163   6.777   7.997  13.401
 8147ETHO   H2163164   6.683   8.056  13.399
 8147ETHO   H2363165   6.862   8.067  13.384
 8148ETHO    O163166   6.798   7.958  13.535
 8148ETHO    C163167   6.686   7.893  13.595
 8148ETHO   H1163168   6.617   7.975  13.621
 8148ETHO   H1363169   6.644   7.819  13.523
 8148ETHO    C263170   6.728   7.827  13.726
 8148ETHO   H2163171   6.795   7.897  13.781
 8148ETHO   H2363172   6.780   7.733  13.700
 8149ETHO    O163173   6.600   7.811  13.806
 8149ETHO    C163174   6.630   7.730  13.918
 8149ETHO   H1163175   6.552   7.743  13.996
 8149ETHO   H1363176   6.727   7.768  13.957
 8149ETHO    C263177   6.642   7.575  13.899
 8149ETHO   H2163178   6.558   7.547  13.832
 8149ETHO   H2363179   6.621   7.551  14.005
 8150ETHO    O163180   6.772   7.540  13.856
 8150ETHO    C163181   6.783   7.399  13.846
 8150ETHO   H1163182   6.720   7.358  13.928
 8150ETHO   H1363183   6.722   7.386  13.754
 8150ETHO    C263184   6.917   7.331  13.844
 8150ETHO   H2163185   6.990   7.379  13.777
 8150ETHO   H2363186   6.882   7.229  13.817
 8151ETHO    O163187   6.971   7.342  13.979
 8151ETHO    C163188   7.094   7.263  13.983
 8151ETHO   H1163189   7.168   7.311  14.050
 8151ETHO   H1363190   7.131   7.254  13.879
 8151ETHO    C263191   7.075   7.121  14.038
 8151ETHO   H2163192   7.171   7.065  14.044
 8151ETHO   H2363193   6.997   7.072  13.976
 8152ETHO    O163194   7.027   7.146  14.172
 8152ETHO    C163195   6.975   7.026  14.222
 8152ETHO   H1163196   6.916   6.969  14.146
 8152ETHO   H1363197   7.067   6.965  14.237
 8152ETHO    C263198   6.905   7.035  14.359
 8152ETHO   H2163199   6.991   7.066  14.422
 8152ETHO   H2363200   6.856   6.939  14.386
 8153ETHO    O163201   6.804   7.130  14.364
 8153ETHO    C163202   6.725   7.124  14.485
 8153ETHO   H1163203   6.657   7.037  14.474
 8153ETHO   H1363204   6.657   7.212  14.486
 8153ETHO    C263205   6.789   7.107  14.627
 8153ETHO   H2163206   6.840   7.009  14.636
 8153ETHO   H2363207   6.711   7.107  14.706
 8154ETHO    O163208   6.871   7.221  14.645
 8154ETHO    C163209   6.970   7.205  14.748
 8154ETHO   H1163210   6.935   7.233  14.850
 8154ETHO   H1363211   7.005   7.099  14.752
 8154ETHO    C263212   7.091   7.300  14.725
 8154ETHO   H2163213   7.152   7.290  14.817
 8154ETHO   H2363214   7.069   7.409  14.726
 8155ETHO    O163215   7.181   7.269  14.620
 8155ETHO    C163216   7.138   7.338  14.503
 8155ETHO   H1163217   7.139   7.448  14.518
 8155ETHO   H1363218   7.034   7.311  14.476
 8155ETHO    C263219   7.229   7.311  14.382
 8155ETHO   H2163220   7.186   7.340  14.284
 8155ETHO   H2363221   7.234   7.200  14.371
 8156ETHO    O163222   7.362   7.359  14.385
 8156ETHO    C163223   7.427   7.350  14.264
 8156ETHO   H1163224   7.447   7.242  14.250
 8156ETHO   H1363225   7.374   7.397  14.179
 8156ETHO    C263226   7.560   7.416  14.270
 8156ETHO   H2163227   7.619   7.421  14.176
 8156ETHO   H2363228   7.546   7.520  14.306
 8157ETHO    O163229   7.651   7.342  14.352
 8157ETHO    C163230   7.779   7.407  14.366
 8157ETHO   H1163231   7.821   7.417  14.264
 8157ETHO   H1363232   7.847   7.331  14.411
 8157ETHO    C263233   7.787   7.544  14.445
 8157ETHO   H2163234   7.897   7.556  14.451
 8157ETHO   H2363235   7.748   7.518  14.546
 8158ETHO    O163236   7.737   7.655  14.388
 8158ETHO    C163237   7.761   7.767  14.475
 8158ETHO   H1163238   7.701   7.747  14.567
 8158ETHO   H1363239   7.869   7.779  14.499
 8158ETHO    C263240   7.715   7.896  14.416
 8158ETHO   H2163241   7.719   7.975  14.494
 8158ETHO   H2363242   7.614   7.877  14.375
 8159ETHO    O163243   7.795   7.942  14.307
 8159ETHO    C163244   7.765   8.070  14.267
 8159ETHO   H1163245   7.776   8.139  14.353
 8159ETHO   H1363246   7.655   8.064  14.249
 8159ETHO    C263247   7.846   8.112  14.143
 8159ETHO   H2163248   7.905   8.025  14.106
 8159ETHO   H2363249   7.917   8.194  14.170
 8160ETHO    O163250   7.775   8.144  14.023
 8160ETHO    C163251   7.864   8.150  13.915
 8160ETHO   H1163252   7.928   8.241  13.925
 8160ETHO   H1363253   7.928   8.059  13.908
 8160ETHO    C263254   7.789   8.160  13.780
 8160ETHO   H2163255   7.867   8.189  13.706
 8160ETHO   H2363256   7.725   8.249  13.796
 8161ETHO    O163257   7.724   8.055  13.728
 8161ETHO    C163258   7.643   8.093  13.614
 8161ETHO   H1163259   7.699   8.154  13.540
 8161ETHO   H1363260   7.614   7.997  13.566
 8161ETHO    C263261   7.503   8.158  13.633
 8161ETHO   H2163262   7.457   8.111  13.723
 8161ETHO   H2363263   7.433   8.165  13.547
 8162ETHO    O163264   7.519   8.296  13.666
 8162ETHO    C163265   7.521   8.386  13.559
 8162ETHO   H1163266   7.584   8.340  13.480
 8162ETHO   H1363267   7.415   8.405  13.533
 8162ETHO    C263268   7.589   8.512  13.609
 8162ETHO   H2163269   7.514   8.555  13.678
 8162ETHO   H2363270   7.616   8.579  13.524
 8163ETHO    O163271   7.710   8.492  13.671
 8163ETHO    C163272   7.742   8.621  13.723
 8163ETHO   H1163273   7.750   8.688  13.635
 8163ETHO   H1363274   7.656   8.656  13.784
 8163ETHO    C263275   7.867   8.612  13.816
 8163ETHO   H2163276   7.838   8.549  13.903
 8163ETHO   H2363277   7.889   8.715  13.853
 8164ETHO    O163278   7.985   8.549  13.771
 8164ETHO    C163279   8.081   8.524  13.873
 8164ETHO   H1163280   8.053   8.434  13.933
 8164ETHO   H1363281   8.068   8.610  13.942
 8164ETHO    C263282   8.227   8.508  13.830
 8164ETHO   H2163283   8.219   8.464  13.729
 8164ETHO   H2363284   8.285   8.437  13.893
 8165ETHO    O163285   8.319   8.622  13.828
 8165ETHO    C163286   8.452   8.584  13.792
 8165ETHO   H1163287   8.485   8.495  13.850
 8165ETHO   H1363288   8.450   8.550  13.686
 8165ETHO    C263289   8.536   8.704  13.812
 8165ETHO   H2163290   8.643   8.676  13.800
 8165ETHO   H2363291   8.530   8.723  13.921
 8166ETHO    O163292   8.514   8.809  13.724
 8166ETHO    C163293   8.587   8.797  13.602
 8166ETHO   H1163294   8.528   8.849  13.525
 8166ETHO   H1363295   8.590   8.688  13.583
 8166ETHO    C263296   8.727   8.868  13.607
 8166ETHO   H2163297   8.779   8.819  13.523
 8166ETHO   H2363298   8.777   8.837  13.701
 8167ETHO    O163299   8.729   9.012  13.586
 8167ETHO    C163300   8.777   9.039  13.454
 8167ETHO   H1163301   8.868   8.975  13.444
 8167ETHO   H1363302   8.708   8.995  13.379
 8167ETHO    C263303   8.810   9.184  13.419
 8167ETHO   H2163304   8.874   9.195  13.329
 8167ETHO   H2363305   8.873   9.230  13.498
 8168ETHO    O163306   8.696   9.262  13.384
 8168ETHO    C163307   8.727   9.398  13.406
 8168ETHO   H1163308   8.783   9.436  13.318
 8168ETHO   H1363309   8.785   9.415  13.499
 8168ETHO    C263310   8.594   9.467  13.432
 8168ETHO   H2163311   8.522   9.443  13.351
 8168ETHO   H2363312   8.609   9.577  13.433
 8169ETHO    O163313   8.534   9.439  13.569
 8169ETHO    C163314   8.425   9.360  13.555
 8169ETHO   H1163315   8.361   9.404  13.475
 8169ETHO   H1363316   8.461   9.259  13.527
 8169ETHO    C263317   8.340   9.338  13.677
 8169ETHO   H2163318   8.397   9.284  13.755
 8169ETHO   H2363319   8.254   9.276  13.643
 8170ETHO    O163320   8.294   9.467  13.718
 8170ETHO    C163321   8.159   9.462  13.770
 8170ETHO   H1163322   8.096   9.429  13.685
 8170ETHO   H1363323   8.132   9.566  13.800
 8170ETHO    C263324   8.145   9.367  13.888
 8170ETHO   H2163325   8.189   9.268  13.863
 8170ETHO   H2363326   8.035   9.353  13.902
 8171ETHO    O163327   8.189   9.418  14.016
 8171ETHO    C163328   8.332   9.401  14.039
 8171ETHO   H1163329   8.351   9.296  14.069
 8171ETHO   H1363330   8.379   9.426  13.941
 8171ETHO    C263331   8.381   9.499  14.145
 8171ETHO   H2163332   8.471   9.466  14.202
 8171ETHO   H2363333   8.309   9.516  14.228
 8172ETHO    O163334   8.411   9.631  14.096
 8172ETHO    C163335   8.550   9.654  14.056
 8172ETHO   H1163336   8.611   9.591  14.123
 8172ETHO   H1363337   8.565   9.618  13.951
 8172ETHO    C263338   8.569   9.803  14.057
 8172ETHO   H2163339   8.555   9.833  14.163
 8172ETHO   H2363340   8.504   9.868  13.994
 8173ETHO    O163341   8.701   9.848  14.020
 8173ETHO    C163342   8.815   9.783  14.086
 8173ETHO   H1163343   8.806   9.786  14.197
 8173ETHO   H1363344   8.811   9.673  14.069
 8173ETHO    C263345   8.961   9.827  14.033
 8173ETHO   H2163346   9.038   9.768  14.087
 8173ETHO   H2363347   8.979   9.935  14.049
 8174ETHO    O163348   8.970   9.802  13.895
 8174ETHO    C163349   9.104   9.790  13.851
 8174ETHO   H1163350   9.160   9.876  13.893
 8174ETHO   H1363351   9.145   9.694  13.888
 8174ETHO    C263352   9.110   9.798  13.696
 8174ETHO   H2163353   9.194   9.865  13.667
 8174ETHO   H2363354   9.015   9.849  13.669
 8175ETHO    O163355   9.127   9.676  13.625
 8175ETHO    C163356   9.107   9.696  13.492
 8175ETHO   H1163357   9.179   9.770  13.450
 8175ETHO   H1363358   9.000   9.723  13.485
 8175ETHO    C263359   9.113   9.568  13.415
 8175ETHO   H2163360   9.062   9.571  13.316
 8175ETHO   H2363361   9.048   9.495  13.468
 8176ETHO    O163362   9.244   9.519  13.397
 8176ETHO    C163363   9.236   9.391  13.336
 8176ETHO   H1163364   9.337   9.345  13.333
 8176ETHO   H1363365   9.175   9.325  13.400
 8176ETHO    C263366   9.171   9.377  13.196
 8176ETHO   H2163367   9.209   9.280  13.156
 8176ETHO   H2363368   9.200   9.458  13.126
 8177ETHO    O163369   9.027   9.355  13.198
 8177ETHO    C163370   8.981   9.336  13.064
 8177ETHO   H1163371   9.067   9.321  12.995
 8177ETHO   H1363372   8.939   9.432  13.028
 8177ETHO    C263373   8.879   9.220  13.046
 8177ETHO   H2163374   8.824   9.236  12.950
 8177ETHO   H2363375   8.803   9.217  13.127
 8178ETHO    O163376   8.940   9.091  13.026
 8178ETHO    C163377   8.853   8.978  13.061
 8178ETHO   H1163378   8.810   8.989  13.163
 8178ETHO   H1363379   8.775   8.965  12.983
 8178ETHO    C263380   8.942   8.848  13.076
 8178ETHO   H2163381   8.867   8.772  13.105
 8178ETHO   H2363382   9.008   8.871  13.163
 8179ETHO    O163383   9.017   8.824  12.958
 8179ETHO    C163384   9.115   8.716  12.984
 8179ETHO   H1163385   9.145   8.703  13.090
 8179ETHO   H1363386   9.201   8.739  12.917
 8179ETHO    C263387   9.065   8.582  12.928
 8179ETHO   H2163388   9.150   8.511  12.931
 8179ETHO   H2363389   9.044   8.583  12.819
 8180ETHO    O163390   8.958   8.527  13.004
 8180ETHO    C163391   8.920   8.396  12.965
 8180ETHO   H1163392   8.874   8.404  12.864
 8180ETHO   H1363393   9.011   8.333  12.950
 8180ETHO    C263394   8.838   8.327  13.073
 8180ETHO   H2163395   8.799   8.231  13.033
 8180ETHO   H2363396   8.746   8.384  13.097
 8181ETHO    O163397   8.921   8.298  13.183
 8181ETHO    C163398   8.862   8.190  13.258
 8181ETHO   H1163399   8.853   8.097  13.199
 8181ETHO   H1363400   8.762   8.225  13.293
 8181ETHO    C263401   8.939   8.158  13.381
 8181ETHO   H2163402   8.873   8.101  13.451
 8181ETHO   H2363403   8.967   8.251  13.435
 8182ETHO    O163404   9.048   8.079  13.343
 8182ETHO    C163405   9.117   8.024  13.458
 8182ETHO   H1163406   9.169   8.116  13.493
 8182ETHO   H1363407   9.037   7.999  13.530
 8182ETHO    C263408   9.204   7.902  13.445
 8182ETHO   H2163409   9.248   7.861  13.539
 8182ETHO   H2363410   9.281   7.923  13.368
 8183ETHO    O163411   9.122   7.798  13.397
 8183ETHO    C163412   9.180   7.670  13.399
 8183ETHO   H1163413   9.264   7.670  13.325
 8183ETHO   H1363414   9.217   7.639  13.499
 8183ETHO    C263415   9.072   7.566  13.359
 8183ETHO   H2163416   8.999   7.548  13.442
 8183ETHO   H2363417   9.133   7.473  13.356
 8184ETHO    O163418   9.001   7.591  13.231
 8184ETHO    C163419   8.921   7.480  13.187
 8184ETHO   H1163420   8.973   7.381  13.180
 8184ETHO   H1363421   8.838   7.465  13.260
 8184ETHO    C263422   8.857   7.500  13.052
 8184ETHO   H2163423   8.930   7.470  12.974
 8184ETHO   H2363424   8.827   7.605  13.033
 8185ETHO    O163425   8.740   7.425  13.047
 8185ETHO    C163426   8.690   7.416  12.915
 8185ETHO   H1163427   8.681   7.514  12.863
 8185ETHO   H1363428   8.762   7.359  12.853
 8185ETHO    C263429   8.548   7.354  12.910
 8185ETHO   H2163430   8.478   7.403  12.839
 8185ETHO   H2363431   8.514   7.371  13.014
 8186ETHO    O163432   8.552   7.218  12.898
 8186ETHO    C163433   8.421   7.159  12.889
 8186ETHO   H1163434   8.436   7.054  12.854
 8186ETHO   H1363435   8.362   7.216  12.815
 8186ETHO    C263436   8.356   7.142  13.023
 8186ETHO   H2163437   8.437   7.121  13.097
 8186ETHO   H2363438   8.295   7.050  13.038
 8187ETHO    O163439   8.287   7.256  13.067
 8187ETHO    C163440   8.212   7.241  13.190
 8187ETHO   H1163441   8.154   7.334  13.210
 8187ETHO   H1363442   8.147   7.152  13.175
 8187ETHO    C263443   8.311   7.229  13.308
 8187ETHO   H2163444   8.371   7.135  13.307
 8187ETHO   H2363445   8.248   7.227  13.399
 8188ETHO    O163446   8.394   7.340  13.321
 8188ETHO    C163447   8.464   7.339  13.447
 8188ETHO   H1163448   8.495   7.235  13.472
 8188ETHO   H1363449   8.398   7.376  13.528
 8188ETHO    C263450   8.581   7.435  13.440
 8188ETHO   H2163451   8.552   7.521  13.377
 8188ETHO   H2363452   8.659   7.386  13.378
 8189ETHO    O163453   8.620   7.499  13.559
 8189ETHO    C163454   8.710   7.419  13.646
 8189ETHO   H1163455   8.662   7.320  13.665
 8189ETHO   H1363456   8.801   7.409  13.584
 8189ETHO    C263457   8.753   7.495  13.773
 8189ETHO   H2163458   8.837   7.446  13.827
 8189ETHO   H2363459   8.787   7.598  13.751
 8190ETHO    O163460   8.655   7.505  13.880
 8190ETHO    C163461   8.707   7.579  13.992
 8190ETHO   H1163462   8.616   7.624  14.037
 8190ETHO   H1363463   8.765   7.664  13.952
 8190ETHO    C263464   8.783   7.492  14.095
 8190ETHO   H2163465   8.810   7.563  14.176
 8190ETHO   H2363466   8.878   7.442  14.063
 8191ETHO    O163467   8.687   7.396  14.149
 8191ETHO    C163468   8.751   7.307  14.235
 8191ETHO   H1163469   8.821   7.250  14.170
 8191ETHO   H1363470   8.808   7.361  14.314
 8191ETHO    C263471   8.654   7.212  14.313
 8191ETHO   H2163472   8.710   7.120  14.339
 8191ETHO   H2363473   8.576   7.182  14.240
 8192ETHO    O163474   8.595   7.279  14.425
 8192ETHO    C163475   8.471   7.215  14.465
 8192ETHO   H1163476   8.418   7.168  14.379
 8192ETHO   H1363477   8.405   7.289  14.514
 8192ETHO    C263478   8.503   7.113  14.581
 8192ETHO   H2163479   8.407   7.085  14.630
 8192ETHO   H2363480   8.562   7.167  14.658
 8193ETHO    O163481   8.586   7.001  14.548
 8193ETHO    C163482   8.585   6.893  14.644
 8193ETHO   H1163483   8.481   6.859  14.665
 8193ETHO   H1363484   8.633   6.804  14.597
 8193ETHO    C263485   8.664   6.921  14.772
 8193ETHO   H2163486   8.773   6.934  14.756
 8193ETHO   H2363487   8.644   6.838  14.843
 8194ETHO    O163488   8.608   7.032  14.849
 8194ETHO    C163489   8.690   7.064  14.961
 8194ETHO   H1163490   8.674   7.173  14.974
 8194ETHO   H1363491   8.795   7.052  14.928
 8194ETHO    C263492   8.676   6.996  15.093
 8194ETHO   H2163493   8.767   7.027  15.149
 8194ETHO   H2363494   8.680   6.887  15.077
 8195ETHO    O163495   8.566   7.043  15.174
 8195ETHO    C163496   8.431   7.012  15.125
 8195ETHO   H1163497   8.380   7.102  15.165
 8195ETHO   H1363498   8.412   7.024  15.016
 8195ETHO    C263499   8.389   6.870  15.185
 8195ETHO   H2163500   8.281   6.858  15.159
 8195ETHO   H2363501   8.405   6.869  15.295
 8196ETHO    O163502   8.471   6.777  15.127
 8196ETHO    C163503   8.443   6.649  15.180
 8196ETHO   H1163504   8.335   6.629  15.161
 8196ETHO   H1363505   8.464   6.645  15.289
 8196ETHO    C263506   8.519   6.534  15.113
 8196ETHO   H2163507   8.543   6.451  15.184
 8196ETHO   H2363508   8.622   6.569  15.093
 8197ETHO    O163509   8.450   6.487  15.001
 8197ETHO    C163510   8.444   6.577  14.887
 8197ETHO   H1163511   8.347   6.630  14.886
 8197ETHO   H1363512   8.538   6.637  14.877
 8197ETHO    C263513   8.451   6.484  14.765
 8197ETHO   H2163514   8.551   6.436  14.765
 8197ETHO   H2363515   8.370   6.407  14.759
 8198ETHO    O163516   8.442   6.562  14.646
 8198ETHO    C163517   8.470   6.485  14.533
 8198ETHO   H1163518   8.572   6.507  14.495
 8198ETHO   H1363519   8.466   6.377  14.561
 8198ETHO    C263520   8.364   6.514  14.425
 8198ETHO   H2163521   8.389   6.612  14.380
 8198ETHO   H2363522   8.263   6.528  14.471
 8199ETHO    O163523   8.355   6.410  14.328
 8199ETHO    C163524   8.306   6.453  14.202
 8199ETHO   H1163525   8.247   6.548  14.201
 8199ETHO   H1363526   8.401   6.485  14.154
 8199ETHO    C263527   8.246   6.347  14.106
 8199ETHO   H2163528   8.292   6.254  14.146
 8199ETHO   H2363529   8.272   6.378  14.003
 8200ETHO    O163530   8.108   6.324  14.114
 8200ETHO    C163531   8.074   6.203  14.049
 8200ETHO   H1163532   8.162   6.138  14.030
 8200ETHO   H1363533   7.996   6.162  14.117
 8200ETHO    C263534   8.004   6.221  13.911
 8200ETHO   H2163535   8.084   6.252  13.840
 8200ETHO   H2363536   7.934   6.306  13.924
 8201ETHO    O163537   7.943   6.105  13.858
 8201ETHO    C163538   7.877   6.144  13.735
 8201ETHO   H1163539   7.880   6.057  13.666
 8201ETHO   H1363540   7.929   6.230  13.688
 8201ETHO    C263541   7.726   6.183  13.742
 8201ETHO   H2163542   7.662   6.106  13.791
 8201ETHO   H2363543   7.698   6.196  13.635
 8202ETHO    O163544   7.704   6.305  13.818
 8202ETHO    C163545   7.574   6.361  13.807
 8202ETHO   H1163546   7.554   6.397  13.704
 8202ETHO   H1363547   7.499   6.284  13.834
 8202ETHO    C263548   7.551   6.488  13.896
 8202ETHO   H2163549   7.558   6.476  14.006
 8202ETHO   H2363550   7.444   6.512  13.878
 8203ETHO    O163551   7.650   6.590  13.853
 8203ETHO    C163552   7.629   6.652  13.730
 8203ETHO   H1163553   7.530   6.700  13.746
 8203ETHO   H1363554   7.629   6.580  13.645
 8203ETHO    C263555   7.729   6.762  13.702
 8203ETHO   H2163556   7.742   6.812  13.801
 8203ETHO   H2363557   7.681   6.833  13.631
 8204ETHO    O163558   7.852   6.723  13.653
 8204ETHO    C163559   7.949   6.824  13.640
 8204ETHO   H1163560   7.955   6.873  13.739
 8204ETHO   H1363561   8.049   6.778  13.627
 8204ETHO    C263562   7.910   6.926  13.527
 8204ETHO   H2163563   7.875   6.875  13.435
 8204ETHO   H2363564   8.007   6.970  13.496
 8205ETHO    O163565   7.827   7.028  13.583
 8205ETHO    C163566   7.800   7.127  13.481
 8205ETHO   H1163567   7.703   7.114  13.427
 8205ETHO   H1363568   7.870   7.137  13.395
 8205ETHO    C263569   7.788   7.275  13.530
 8205ETHO   H2163570   7.710   7.261  13.609
 8205ETHO   H2363571   7.754   7.343  13.448
 8206ETHO    O163572   7.906   7.329  13.591
 8206ETHO    C163573   7.883   7.447  13.668
 8206ETHO   H1163574   7.847   7.527  13.599
 8206ETHO   H1363575   7.803   7.434  13.744
 8206ETHO    C263576   8.017   7.484  13.737
 8206ETHO   H2163577   8.011   7.578  13.796
 8206ETHO   H2363578   8.097   7.490  13.661
 8207ETHO    O163579   8.056   7.379  13.829
 8207ETHO    C163580   8.173   7.415  13.896
 8207ETHO   H1163581   8.156   7.516  13.939
 8207ETHO   H1363582   8.250   7.434  13.819
 8207ETHO    C263583   8.231   7.315  13.994
 8207ETHO   H2163584   8.340   7.336  13.997
 8207ETHO   H2363585   8.222   7.215  13.946
 8208ETHO    O163586   8.181   7.319  14.125
 8208ETHO    C163587   8.042   7.286  14.133
 8208ETHO   H1163588   8.012   7.308  14.238
 8208ETHO   H1363589   7.980   7.354  14.069
 8208ETHO    C263590   8.003   7.139  14.114
 8208ETHO   H2163591   8.019   7.110  14.008
 8208ETHO   H2363592   7.894   7.133  14.136
 8209ETHO    O163593   8.067   7.059  14.204
 8209ETHO    C163594   8.010   6.931  14.190
 8209ETHO   H1163595   7.908   6.931  14.234
 8209ETHO   H1363596   7.996   6.912  14.081
 8209ETHO    C263597   8.098   6.821  14.245
 8209ETHO   H2163598   8.042   6.728  14.221
 8209ETHO   H2363599   8.119   6.809  14.354
 8210ETHO    O163600   8.227   6.800  14.185
 8210ETHO    C163601   8.324   6.876  14.250
 8210ETHO   H1163602   8.293   6.981  14.269
 8210ETHO   H1363603   8.321   6.840  14.354
 8210ETHO    C263604   8.459   6.870  14.174
 8210ETHO   H2163605   8.539   6.926  14.228
 8210ETHO   H2363606   8.439   6.920  14.077
 8211ETHO    O163607   8.508   6.739  14.150
 8211ETHO    C163608   8.649   6.745  14.124
 8211ETHO   H1163609   8.675   6.680  14.038
 8211ETHO   H1363610   8.676   6.849  14.096
 8211ETHO    C263611   8.721   6.708  14.255
 8211ETHO   H2163612   8.703   6.783  14.335
 8211ETHO   H2363613   8.829   6.702  14.232
 8212ETHO    O163614   8.700   6.581  14.307
 8212ETHO    C163615   8.707   6.477  14.219
 8212ETHO   H1163616   8.801   6.478  14.158
 8212ETHO   H1363617   8.632   6.479  14.137
 8212ETHO    C263618   8.682   6.333  14.261
 8212ETHO   H2163619   8.671   6.269  14.171
 8212ETHO   H2363620   8.592   6.330  14.326
 8213ETHO    O163621   8.793   6.268  14.333
 8213ETHO    C163622   8.749   6.142  14.387
 8213ETHO   H1163623   8.737   6.084  14.292
 8213ETHO   H1363624   8.650   6.161  14.434
 8213ETHO    C263625   8.843   6.059  14.474
 8213ETHO   H2163626   8.948   6.066  14.439
 8213ETHO   H2363627   8.808   5.956  14.451
 8214ETHO    O163628   8.834   6.076  14.609
 8214ETHO    C163629   8.943   6.001  14.673
 8214ETHO   H1163630   9.040   6.013  14.621
 8214ETHO   H1363631   8.917   5.895  14.694
 8214ETHO    C263632   8.965   6.056  14.819
 8214ETHO   H2163633   9.039   5.987  14.865
 8214ETHO   H2363634   8.869   6.052  14.875
 8215ETHO    O163635   9.004   6.190  14.821
 8215ETHO    C163636   9.047   6.228  14.947
 8215ETHO   H1163637   9.037   6.338  14.959
 8215ETHO   H1363638   9.002   6.184  15.040
 8215ETHO    C263639   9.200   6.212  14.963
 8215ETHO   H2163640   9.242   6.275  15.044
 8215ETHO   H2363641   9.250   6.245  14.869
 8215ETHO    OZ63642   9.245   6.077  14.982
 8215ETHO   HZ163643   9.329   6.083  15.028
 8216ETHO    O163644  17.394   4.009   8.582
 8216ETHO   HO163645  17.466   3.989   8.522
 8216ETHO    C163646  17.287   4.053   8.496
 8216ETHO   H1163647  17.306   4.154   8.454
 8216ETHO   H1363648  17.197   4.057   8.562
 8216ETHO    C263649  17.266   3.947   8.383
 8216ETHO   H2163650  17.165   3.979   8.350
 8216ETHO   H2363651  17.253   3.843   8.421
 8217ETHO    O163652  17.346   3.968   8.270
 8217ETHO    C163653  17.307   3.875   8.169
 8217ETHO   H1163654  17.200   3.891   8.144
 8217ETHO   H1363655  17.370   3.914   8.086
 8217ETHO    C263656  17.343   3.727   8.202
 8217ETHO   H2163657  17.441   3.716   8.252
 8217ETHO   H2363658  17.344   3.664   8.110
 8218ETHO    O163659  17.245   3.658   8.277
 8218ETHO    C163660  17.279   3.521   8.312
 8218ETHO   H1163661  17.384   3.520   8.348
 8218ETHO   H1363662  17.282   3.460   8.219
 8218ETHO    C263663  17.176   3.463   8.410
 8218ETHO   H2163664  17.206   3.356   8.423
 8218ETHO   H2363665  17.073   3.486   8.378
 8219ETHO    O163666  17.181   3.541   8.534
 8219ETHO    C163667  17.107   3.475   8.635
 8219ETHO   H1163668  17.001   3.502   8.615
 8219ETHO   H1363669  17.118   3.365   8.633
 8219ETHO    C263670  17.142   3.531   8.773
 8219ETHO   H2163671  17.252   3.535   8.784
 8219ETHO   H2363672  17.089   3.467   8.847
 8220ETHO    O163673  17.084   3.661   8.795
 8220ETHO    C163674  17.085   3.691   8.939
 8220ETHO   H1163675  17.054   3.602   8.998
 8220ETHO   H1363676  17.191   3.704   8.968
 8220ETHO    C263677  16.998   3.809   8.993
 8220ETHO   H2163678  17.018   3.900   8.933
 8220ETHO   H2363679  17.027   3.825   9.099
 8221ETHO    O163680  16.859   3.778   8.982
 8221ETHO    C163681  16.778   3.884   9.025
 8221ETHO   H1163682  16.823   3.985   9.017
 8221ETHO   H1363683  16.689   3.873   8.960
 8221ETHO    C263684  16.745   3.868   9.173
 8221ETHO   H2163685  16.751   3.761   9.203
 8221ETHO   H2363686  16.642   3.909   9.188
 8222ETHO    O163687  16.835   3.950   9.253
 8222ETHO    C163688  16.834   3.902   9.388
 8222ETHO   H1163689  16.727   3.883   9.413
 8222ETHO   H1363690  16.892   3.808   9.395
 8222ETHO    C263691  16.904   3.998   9.488
 8222ETHO   H2163692  17.004   4.024   9.448
 8222ETHO   H2363693  16.916   3.933   9.577
 8223ETHO    O163694  16.835   4.119   9.527
 8223ETHO    C163695  16.922   4.213   9.586
 8223ETHO   H1163696  16.987   4.254   9.506
 8223ETHO   H1363697  16.997   4.155   9.644
 8223ETHO    C263698  16.841   4.320   9.661
 8223ETHO   H2163699  16.766   4.363   9.592
 8223ETHO   H2363700  16.904   4.406   9.695
 8224ETHO    O163701  16.779   4.247   9.766
 8224ETHO    C163702  16.696   4.330   9.846
 8224ETHO   H1163703  16.661   4.265   9.930
 8224ETHO   H1363704  16.753   4.414   9.891
 8224ETHO    C263705  16.581   4.386   9.764
 8224ETHO   H2163706  16.485   4.399   9.819
 8224ETHO   H2363707  16.558   4.311   9.685
 8225ETHO    O163708  16.617   4.504   9.691
 8225ETHO    C163709  16.499   4.564   9.629
 8225ETHO   H1163710  16.411   4.561   9.696
 8225ETHO   H1363711  16.481   4.515   9.531
 8225ETHO    C263712  16.519   4.711   9.599
 8225ETHO   H2163713  16.607   4.734   9.535
 8225ETHO   H2363714  16.527   4.774   9.690
 8226ETHO    O163715  16.404   4.755   9.524
 8226ETHO    C163716  16.434   4.880   9.460
 8226ETHO   H1163717  16.524   4.875   9.396
 8226ETHO   H1363718  16.353   4.896   9.385
 8226ETHO    C263719  16.441   5.006   9.555
 8226ETHO   H2163720  16.520   4.995   9.632
 8226ETHO   H2363721  16.468   5.100   9.501
 8227ETHO    O163722  16.314   5.048   9.603
 8227ETHO    C163723  16.291   4.982   9.725
 8227ETHO   H1163724  16.385   4.986   9.784
 8227ETHO   H1363725  16.273   4.874   9.709
 8227ETHO    C263726  16.167   5.039   9.802
 8227ETHO   H2163727  16.166   5.149   9.789
 8227ETHO   H2363728  16.192   5.011   9.907
 8228ETHO    O163729  16.051   4.974   9.755
 8228ETHO    C163730  15.936   5.012   9.833
 8228ETHO   H1163731  15.960   5.096   9.902
 8228ETHO   H1363732  15.868   5.067   9.765
 8228ETHO    C263733  15.887   4.896   9.920
 8228ETHO   H2163734  15.807   4.936   9.985
 8228ETHO   H2363735  15.970   4.848   9.976
 8229ETHO    O163736  15.816   4.816   9.833
 8229ETHO    C163737  15.751   4.713   9.905
 8229ETHO   H1163738  15.662   4.759   9.953
 8229ETHO   H1363739  15.814   4.667   9.985
 8229ETHO    C263740  15.702   4.596   9.811
 8229ETHO   H2163741  15.652   4.635   9.721
 8229ETHO   H2363742  15.636   4.519   9.855
 8230ETHO    O163743  15.822   4.529   9.776
 8230ETHO    C163744  15.794   4.425   9.687
 8230ETHO   H1163745  15.726   4.344   9.722
 8230ETHO   H1363746  15.749   4.484   9.604
 8230ETHO    C263747  15.931   4.365   9.645
 8230ETHO   H2163748  15.927   4.292   9.561
 8230ETHO   H2363749  16.002   4.443   9.612
 8231ETHO    O163750  15.996   4.294   9.752
 8231ETHO    C163751  16.121   4.237   9.715
 8231ETHO   H1163752  16.105   4.156   9.640
 8231ETHO   H1363753  16.197   4.305   9.671
 8231ETHO    C263754  16.183   4.177   9.841
 8231ETHO   H2163755  16.245   4.086   9.827
 8231ETHO   H2363756  16.106   4.152   9.917
 8232ETHO    O163757  16.264   4.281   9.895
 8232ETHO    C163758  16.268   4.267  10.035
 8232ETHO   H1163759  16.169   4.303  10.069
 8232ETHO   H1363760  16.291   4.161  10.060
 8232ETHO    C263761  16.370   4.346  10.113
 8232ETHO   H2163762  16.350   4.334  10.222
 8232ETHO   H2363763  16.365   4.455  10.092
 8233ETHO    O163764  16.509   4.304  10.094
 8233ETHO    C163765  16.594   4.353  10.194
 8233ETHO   H1163766  16.555   4.324  10.294
 8233ETHO   H1363767  16.694   4.306  10.183
 8233ETHO    C263768  16.623   4.507  10.200
 8233ETHO   H2163769  16.666   4.541  10.297
 8233ETHO   H2363770  16.527   4.560  10.185
 8234ETHO    O163771  16.714   4.533  10.093
 8234ETHO    C163772  16.741   4.674  10.076
 8234ETHO   H1163773  16.676   4.744  10.133
 8234ETHO   H1363774  16.728   4.685   9.966
 8234ETHO    C263775  16.892   4.695  10.100
 8234ETHO   H2163776  16.952   4.632  10.031
 8234ETHO   H2363777  16.910   4.664  10.205
 8235ETHO    O163778  16.925   4.834  10.082
 8235ETHO    C163779  17.024   4.886  10.165
 8235ETHO   H1163780  16.977   4.901  10.265
 8235ETHO   H1363781  17.106   4.813  10.181
 8235ETHO    C263782  17.071   5.026  10.120
 8235ETHO   H2163783  16.973   5.071  10.096
 8235ETHO   H2363784  17.144   5.036  10.036
 8236ETHO    O163785  17.118   5.104  10.227
 8236ETHO    C163786  17.177   5.228  10.191
 8236ETHO   H1163787  17.127   5.305  10.255
 8236ETHO   H1363788  17.176   5.262  10.085
 8236ETHO    C263789  17.324   5.226  10.245
 8236ETHO   H2163790  17.320   5.185  10.348
 8236ETHO   H2363791  17.362   5.329  10.233
 8237ETHO    O163792  17.397   5.132  10.173
 8237ETHO    C163793  17.538   5.132  10.213
 8237ETHO   H1163794  17.555   5.210  10.290
 8237ETHO   H1363795  17.568   5.034  10.256
 8237ETHO    C263796  17.619   5.151  10.083
 8237ETHO   H2163797  17.561   5.231  10.032
 8237ETHO   H2363798  17.722   5.183  10.110
 8238ETHO    O163799  17.634   5.033  10.002
 8238ETHO    C163800  17.566   5.045   9.880
 8238ETHO   H1163801  17.620   5.128   9.830
 8238ETHO   H1363802  17.465   5.091   9.886
 8238ETHO    C263803  17.573   4.917   9.790
 8238ETHO   H2163804  17.680   4.888   9.779
 8238ETHO   H2363805  17.546   4.961   9.692
 8239ETHO    O163806  17.490   4.807   9.805
 8239ETHO    C163807  17.544   4.698   9.726
 8239ETHO   H1163808  17.506   4.708   9.623
 8239ETHO   H1363809  17.654   4.695   9.717
 8239ETHO    C263810  17.496   4.567   9.791
 8239ETHO   H2163811  17.505   4.564   9.902
 8239ETHO   H2363812  17.562   4.489   9.748
 8240ETHO    O163813  17.355   4.548   9.762
 8240ETHO    C163814  17.318   4.414   9.788
 8240ETHO   H1163815  17.395   4.354   9.841
 8240ETHO   H1363816  17.289   4.366   9.693
 8240ETHO    C263817  17.188   4.400   9.871
 8240ETHO   H2163818  17.103   4.443   9.814
 8240ETHO   H2363819  17.217   4.470   9.953
 8241ETHO    O163820  17.166   4.270   9.918
 8241ETHO    C163821  17.055   4.275  10.011
 8241ETHO   H1163822  17.072   4.320  10.112
 8241ETHO   H1363823  16.976   4.343   9.970
 8241ETHO    C263824  16.982   4.143  10.024
 8241ETHO   H2163825  16.956   4.110   9.921
 8241ETHO   H2363826  16.885   4.163  10.075
 8242ETHO    O163827  17.059   4.044  10.089
 8242ETHO    C163828  16.974   3.936  10.108
 8242ETHO   H1163829  16.928   3.896  10.016
 8242ETHO   H1363830  16.898   3.969  10.182
 8242ETHO    C263831  17.053   3.819  10.169
 8242ETHO   H2163832  17.120   3.773  10.093
 8242ETHO   H2363833  16.990   3.732  10.196
 8243ETHO    O163834  17.136   3.856  10.270
 8243ETHO    C163835  17.205   3.744  10.329
 8243ETHO   H1163836  17.217   3.666  10.252
 8243ETHO   H1363837  17.310   3.772  10.352
 8243ETHO    C263838  17.141   3.679  10.466
 8243ETHO   H2163839  17.210   3.599  10.501
 8243ETHO   H2363840  17.042   3.638  10.438
 8244ETHO    O163841  17.122   3.782  10.567
 8244ETHO    C163842  17.004   3.850  10.546
 8244ETHO   H1163843  16.927   3.777  10.581
 8244ETHO   H1363844  16.979   3.864  10.439
 8244ETHO    C263845  17.002   3.973  10.637
 8244ETHO   H2163846  17.042   3.948  10.738
 8244ETHO   H2363847  16.894   3.992  10.659
 8245ETHO    O163848  17.075   4.086  10.590
 8245ETHO    C163849  17.046   4.125  10.454
 8245ETHO   H1163850  17.096   4.059  10.379
 8245ETHO   H1363851  16.937   4.107  10.444
 8245ETHO    C263852  17.087   4.272  10.411
 8245ETHO   H2163853  17.088   4.283  10.300
 8245ETHO   H2363854  17.195   4.271  10.437
 8246ETHO    O163855  17.019   4.377  10.473
 8246ETHO    C163856  17.035   4.495  10.409
 8246ETHO   H1163857  17.143   4.503  10.384
 8246ETHO   H1363858  16.982   4.486  10.311
 8246ETHO    C263859  16.995   4.613  10.497
 8246ETHO   H2163860  17.072   4.683  10.459
 8246ETHO   H2363861  17.008   4.590  10.605
 8247ETHO    O163862  16.860   4.651  10.463
 8247ETHO    C163863  16.827   4.774  10.527
 8247ETHO   H1163864  16.814   4.746  10.634
 8247ETHO   H1363865  16.900   4.856  10.513
 8247ETHO    C263866  16.696   4.830  10.468
 8247ETHO   H2163867  16.725   4.824  10.361
 8247ETHO   H2363868  16.686   4.938  10.491
 8248ETHO    O163869  16.584   4.754  10.503
 8248ETHO    C163870  16.462   4.807  10.437
 8248ETHO   H1163871  16.426   4.880  10.513
 8248ETHO   H1363872  16.490   4.860  10.344
 8248ETHO    C263873  16.355   4.697  10.426
 8248ETHO   H2163874  16.398   4.599  10.397
 8248ETHO   H2363875  16.280   4.732  10.352
 8249ETHO    O163876  16.282   4.687  10.549
 8249ETHO    C163877  16.170   4.605  10.535
 8249ETHO   H1163878  16.192   4.503  10.575
 8249ETHO   H1363879  16.133   4.604  10.430
 8249ETHO    C263880  16.051   4.650  10.622
 8249ETHO   H2163881  16.038   4.760  10.624
 8249ETHO   H2363882  16.072   4.606  10.722
 8250ETHO    O163883  15.929   4.584  10.585
 8250ETHO    C163884  15.824   4.633  10.679
 8250ETHO   H1163885  15.862   4.609  10.781
 8250ETHO   H1363886  15.826   4.744  10.678
 8250ETHO    C263887  15.677   4.579  10.689
 8250ETHO   H2163888  15.646   4.580  10.796
 8250ETHO   H2363889  15.685   4.470  10.666
 8251ETHO    O163890  15.583   4.649  10.610
 8251ETHO    C163891  15.446   4.623  10.644
 8251ETHO   H1163892  15.397   4.710  10.596
 8251ETHO   H1363893  15.429   4.639  10.753
 8251ETHO    C263894  15.377   4.493  10.599
 8251ETHO   H2163895  15.399   4.482  10.491
 8251ETHO   H2363896  15.268   4.502  10.615
 8252ETHO    O163897  15.423   4.376  10.660
 8252ETHO    C163898  15.331   4.276  10.615
 8252ETHO   H1163899  15.229   4.286  10.659
 8252ETHO   H1363900  15.301   4.288  10.509
 8252ETHO    C263901  15.380   4.139  10.649
 8252ETHO   H2163902  15.299   4.069  10.621
 8252ETHO   H2363903  15.403   4.121  10.756
 8253ETHO    O163904  15.495   4.101  10.578
 8253ETHO    C163905  15.515   3.957  10.599
 8253ETHO   H1163906  15.421   3.908  10.567
 8253ETHO   H1363907  15.515   3.938  10.709
 8253ETHO    C263908  15.637   3.909  10.525
 8253ETHO   H2163909  15.674   3.809  10.553
 8253ETHO   H2363910  15.716   3.983  10.552
 8254ETHO    O163911  15.595   3.908  10.383
 8254ETHO    C163912  15.697   3.861  10.295
 8254ETHO   H1163913  15.773   3.942  10.293
 8254ETHO   H1363914  15.748   3.770  10.333
 8254ETHO    C263915  15.648   3.839  10.151
 8254ETHO   H2163916  15.738   3.823  10.088
 8254ETHO   H2363917  15.595   3.932  10.121
 8255ETHO    O163918  15.557   3.729  10.134
 8255ETHO    C163919  15.611   3.607  10.177
 8255ETHO   H1163920  15.603   3.603  10.288
 8255ETHO   H1363921  15.719   3.607  10.150
 8255ETHO    C263922  15.544   3.482  10.108
 8255ETHO   H2163923  15.607   3.396  10.141
 8255ETHO   H2363924  15.546   3.490   9.997
 8256ETHO    O163925  15.419   3.456  10.154
 8256ETHO    C163926  15.368   3.333  10.104
 8256ETHO   H1163927  15.399   3.318   9.999
 8256ETHO   H1363928  15.421   3.256  10.165
 8256ETHO    C263929  15.213   3.323  10.122
 8256ETHO   H2163930  15.168   3.261  10.042
 8256ETHO   H2363931  15.162   3.421  10.121
 8257ETHO    O163932  15.191   3.254  10.239
 8257ETHO    C163933  15.220   3.327  10.357
 8257ETHO   H1163934  15.322   3.370  10.359
 8257ETHO   H1363935  15.153   3.416  10.354
 8257ETHO    C263936  15.182   3.254  10.484
 8257ETHO   H2163937  15.237   3.299  10.569
 8257ETHO   H2363938  15.220   3.151  10.468
 8258ETHO    O163939  15.039   3.272  10.497
 8258ETHO    C163940  14.975   3.207  10.611
 8258ETHO   H1163941  14.959   3.099  10.590
 8258ETHO   H1363942  15.047   3.218  10.695
 8258ETHO    C263943  14.841   3.271  10.647
 8258ETHO   H2163944  14.807   3.212  10.735
 8258ETHO   H2363945  14.774   3.267  10.559
 8259ETHO    O163946  14.850   3.402  10.689
 8259ETHO    C163947  14.721   3.447  10.730
 8259ETHO   H1163948  14.642   3.411  10.662
 8259ETHO   H1363949  14.697   3.426  10.837
 8259ETHO    C263950  14.732   3.597  10.707
 8259ETHO   H2163951  14.805   3.646  10.775
 8259ETHO   H2363952  14.634   3.641  10.736
 8260ETHO    O163953  14.750   3.634  10.572
 8260ETHO    C163954  14.739   3.775  10.546
 8260ETHO   H1163955  14.778   3.833  10.632
 8260ETHO   H1363956  14.640   3.809  10.510
 8260ETHO    C263957  14.833   3.807  10.426
 8260ETHO   H2163958  14.780   3.880  10.362
 8260ETHO   H2363959  14.855   3.717  10.364
 8261ETHO    O163960  14.955   3.873  10.467
 8261ETHO    C163961  15.055   3.864  10.362
 8261ETHO   H1163962  15.092   3.759  10.353
 8261ETHO   H1363963  15.003   3.899  10.270
 8261ETHO    C263964  15.182   3.945  10.387
 8261ETHO   H2163965  15.258   3.913  10.312
 8261ETHO   H2363966  15.222   3.914  10.486
 8262ETHO    O163967  15.146   4.082  10.384
 8262ETHO    C163968  15.182   4.148  10.259
 8262ETHO   H1163969  15.175   4.068  10.182
 8262ETHO   H1363970  15.289   4.177  10.251
 8262ETHO    C263971  15.092   4.263  10.220
 8262ETHO   H2163972  15.152   4.342  10.170
 8262ETHO   H2363973  15.045   4.313  10.308
 8263ETHO    O163974  14.991   4.229  10.133
 8263ETHO    C163975  14.869   4.188  10.196
 8263ETHO   H1163976  14.901   4.118  10.276
 8263ETHO   H1363977  14.823   4.276  10.246
 8263ETHO    C263978  14.763   4.114  10.114
 8263ETHO   H2163979  14.808   4.025  10.064
 8263ETHO   H2363980  14.672   4.079  10.169
 8264ETHO    O163981  14.722   4.198  10.006
 8264ETHO    C163982  14.631   4.129   9.922
 8264ETHO   H1163983  14.536   4.108   9.976
 8264ETHO   H1363984  14.682   4.033   9.896
 8264ETHO    C263985  14.585   4.201   9.795
 8264ETHO   H2163986  14.529   4.122   9.741
 8264ETHO   H2363987  14.673   4.221   9.730
 8265ETHO    O163988  14.503   4.314   9.823
 8265ETHO    C163989  14.432   4.358   9.706
 8265ETHO   H1163990  14.488   4.425   9.638
 8265ETHO   H1363991  14.389   4.274   9.647
 8265ETHO    C263992  14.327   4.449   9.768
 8265ETHO   H2163993  14.303   4.521   9.687
 8265ETHO   H2363994  14.362   4.496   9.862
 8266ETHO    O163995  14.212   4.369   9.813
 8266ETHO    C163996  14.102   4.449   9.821
 8266ETHO   H1163997  14.072   4.494   9.724
 8266ETHO   H1363998  14.125   4.524   9.900
 8266ETHO    C263999  13.978   4.366   9.861
 8266ETHO   H2164000  13.891   4.429   9.890
 8266ETHO   H2364001  14.000   4.305   9.951
 8267ETHO    O164002  13.937   4.268   9.761
 8267ETHO    C164003  13.821   4.191   9.805
 8267ETHO   H1164004  13.846   4.131   9.895
 8267ETHO   H1364005  13.730   4.254   9.810
 8267ETHO    C264006  13.796   4.090   9.694
 8267ETHO   H2164007  13.717   4.019   9.725
 8267ETHO   H2364008  13.886   4.032   9.665
 8268ETHO    O164009  13.749   4.163   9.586
 8268ETHO    C164010  13.722   4.067   9.480
 8268ETHO   H1164011  13.816   4.037   9.430
 8268ETHO   H1364012  13.672   3.974   9.514
 8268ETHO    C264013  13.625   4.133   9.385
 8268ETHO   H2164014  13.650   4.090   9.285
 8268ETHO   H2364015  13.643   4.242   9.384
 8269ETHO    O164016  13.495   4.096   9.428
 8269ETHO    C164017  13.401   4.167   9.347
 8269ETHO   H1164018  13.419   4.276   9.361
 8269ETHO   H1364019  13.410   4.141   9.239
 8269ETHO    C264020  13.255   4.142   9.388
 8269ETHO   H2164021  13.179   4.203   9.334
 8269ETHO   H2364022  13.250   4.155   9.498
 8270ETHO    O164023  13.228   4.007   9.359
 8270ETHO    C164024  13.173   3.997   9.224
 8270ETHO   H1164025  13.084   4.064   9.214
 8270ETHO   H1364026  13.255   4.022   9.154
 8270ETHO    C264027  13.129   3.857   9.182
 8270ETHO   H2164028  13.059   3.814   9.257
 8270ETHO   H2364029  13.086   3.867   9.080
 8271ETHO    O164030  13.235   3.765   9.156
 8271ETHO    C164031  13.174   3.631   9.133
 8271ETHO   H1164032  13.072   3.639   9.090
 8271ETHO   H1364033  13.159   3.587   9.233
 8271ETHO    C264034  13.254   3.543   9.044
 8271ETHO   H2164035  13.275   3.591   8.946
 8271ETHO   H2364036  13.188   3.455   9.023
 8272ETHO    O164037  13.370   3.484   9.099
 8272ETHO    C164038  13.414   3.371   9.021
 8272ETHO   H1164039  13.345   3.284   9.021
 8272ETHO   H1364040  13.399   3.409   8.917
 8272ETHO    C264041  13.554   3.331   9.057
 8272ETHO   H2164042  13.610   3.427   9.067
 8272ETHO   H2364043  13.600   3.275   8.973
 8273ETHO    O164044  13.554   3.245   9.170
 8273ETHO    C164045  13.682   3.256   9.234
 8273ETHO   H1164046  13.700   3.354   9.283
 8273ETHO   H1364047  13.760   3.254   9.155
 8273ETHO    C264048  13.712   3.136   9.327
 8273ETHO   H2164049  13.643   3.146   9.414
 8273ETHO   H2364050  13.812   3.145   9.374
 8274ETHO    O164051  13.696   3.013   9.270
 8274ETHO    C164052  13.799   2.923   9.306
 8274ETHO   H1164053  13.896   2.949   9.259
 8274ETHO   H1364054  13.803   2.926   9.417
 8274ETHO    C264055  13.756   2.782   9.263
 8274ETHO   H2164056  13.665   2.748   9.317
 8274ETHO   H2364057  13.846   2.721   9.288
 8275ETHO    O164058  13.746   2.780   9.122
 8275ETHO    C164059  13.804   2.668   9.065
 8275ETHO   H1164060  13.740   2.631   8.983
 8275ETHO   H1364061  13.813   2.590   9.143
 8275ETHO    C264062  13.940   2.708   9.002
 8275ETHO   H2164063  14.005   2.621   8.976
 8275ETHO   H2364064  14.000   2.770   9.073
 8276ETHO    O164065  13.922   2.777   8.878
 8276ETHO    C164066  14.041   2.849   8.851
 8276ETHO   H1164067  14.032   2.945   8.905
 8276ETHO   H1364068  14.128   2.798   8.897
 8276ETHO    C264069  14.057   2.867   8.702
 8276ETHO   H2164070  14.079   2.777   8.640
 8276ETHO   H2364071  14.144   2.932   8.681
 8277ETHO    O164072  13.938   2.935   8.644
 8277ETHO    C164073  13.946   2.952   8.504
 8277ETHO   H1164074  13.841   2.973   8.476
 8277ETHO   H1364075  13.971   2.851   8.464
 8277ETHO    C264076  14.033   3.071   8.453
 8277ETHO   H2164077  14.045   3.051   8.345
 8277ETHO   H2364078  14.134   3.065   8.499
 8278ETHO    O164079  13.996   3.205   8.460
 8278ETHO    C164080  13.894   3.241   8.364
 8278ETHO   H1164081  13.922   3.221   8.259
 8278ETHO   H1364082  13.799   3.190   8.390
 8278ETHO    C264083  13.854   3.392   8.369
 8278ETHO   H2164084  13.793   3.405   8.277
 8278ETHO   H2364085  13.939   3.464   8.363
 8279ETHO    O164086  13.772   3.428   8.484
 8279ETHO    C164087  13.741   3.567   8.482
 8279ETHO   H1164088  13.687   3.581   8.386
 8279ETHO   H1364089  13.832   3.629   8.497
 8279ETHO    C264090  13.640   3.590   8.594
 8279ETHO   H2164091  13.572   3.503   8.604
 8279ETHO   H2364092  13.583   3.685   8.604
 8280ETHO    O164093  13.729   3.600   8.706
 8280ETHO    C164094  13.658   3.628   8.824
 8280ETHO   H1164095  13.598   3.722   8.820
 8280ETHO   H1364096  13.588   3.548   8.855
 8280ETHO    C264097  13.761   3.651   8.941
 8280ETHO   H2164098  13.833   3.566   8.940
 8280ETHO   H2364099  13.702   3.641   9.034
 8281ETHO    O164100  13.833   3.768   8.923
 8281ETHO    C164101  13.954   3.754   8.996
 8281ETHO   H1164102  14.015   3.688   8.930
 8281ETHO   H1364103  13.941   3.695   9.089
 8281ETHO    C264104  14.033   3.885   9.009
 8281ETHO   H2164105  14.061   3.940   8.916
 8281ETHO   H2364106  14.126   3.866   9.066
 8282ETHO    O164107  13.963   3.975   9.088
 8282ETHO    C164108  14.033   4.102   9.082
 8282ETHO   H1164109  14.141   4.079   9.091
 8282ETHO   H1364110  14.011   4.148   8.983
 8282ETHO    C264111  13.985   4.191   9.195
 8282ETHO   H2164112  13.877   4.218   9.192
 8282ETHO   H2364113  14.038   4.288   9.190
 8283ETHO    O164114  14.014   4.140   9.328
 8283ETHO    C164115  14.153   4.141   9.364
 8283ETHO   H1164116  14.196   4.054   9.309
 8283ETHO   H1364117  14.189   4.238   9.322
 8283ETHO    C264118  14.184   4.115   9.508
 8283ETHO   H2164119  14.111   4.167   9.574
 8283ETHO   H2364120  14.286   4.156   9.525
 8284ETHO    O164121  14.164   3.981   9.545
 8284ETHO    C164122  14.268   3.930   9.628
 8284ETHO   H1164123  14.276   3.819   9.618
 8284ETHO   H1364124  14.368   3.969   9.601
 8284ETHO    C264125  14.245   3.972   9.772
 8284ETHO   H2164126  14.214   4.078   9.784
 8284ETHO   H2364127  14.338   3.969   9.833
 8285ETHO    O164128  14.148   3.888   9.839
 8285ETHO    C164129  14.114   3.931   9.965
 8285ETHO   H1164130  14.198   3.900  10.032
 8285ETHO   H1364131  14.081   4.037   9.971
 8285ETHO    C264132  13.993   3.850  10.011
 8285ETHO   H2164133  13.979   3.861  10.120
 8285ETHO   H2364134  13.996   3.744   9.980
 8286ETHO    O164135  13.870   3.897   9.941
 8286ETHO    C164136  13.751   3.842  10.001
 8286ETHO   H1164137  13.770   3.737  10.031
 8286ETHO   H1364138  13.685   3.827   9.913
 8286ETHO    C264139  13.683   3.937  10.103
 8286ETHO   H2164140  13.766   3.964  10.172
 8286ETHO   H2364141  13.608   3.871  10.150
 8287ETHO    O164142  13.614   4.042  10.031
 8287ETHO    C164143  13.574   4.145  10.126
 8287ETHO   H1164144  13.481   4.194  10.090
 8287ETHO   H1364145  13.546   4.100  10.224
 8287ETHO    C264146  13.682   4.251  10.131
 8287ETHO   H2164147  13.635   4.339  10.179
 8287ETHO   H2364148  13.714   4.271  10.027
 8288ETHO    O164149  13.794   4.212  10.205
 8288ETHO    C164150  13.874   4.322  10.243
 8288ETHO   H1164151  13.825   4.379  10.325
 8288ETHO   H1364152  13.874   4.385  10.152
 8288ETHO    C264153  14.012   4.275  10.290
 8288ETHO   H2164154  14.086   4.336  10.234
 8288ETHO   H2364155  14.031   4.171  10.256
 8289ETHO    O164156  14.033   4.260  10.433
 8289ETHO    C164157  14.061   4.382  10.502
 8289ETHO   H1164158  14.117   4.455  10.439
 8289ETHO   H1364159  13.964   4.433  10.522
 8289ETHO    C264160  14.130   4.364  10.639
 8289ETHO   H2164161  14.099   4.272  10.693
 8289ETHO   H2364162  14.096   4.453  10.697
 8290ETHO    O164163  14.274   4.367  10.621
 8290ETHO    C164164  14.341   4.379  10.747
 8290ETHO   H1164165  14.291   4.455  10.810
 8290ETHO   H1364166  14.446   4.411  10.726
 8290ETHO    C264167  14.347   4.245  10.822
 8290ETHO   H2164168  14.433   4.251  10.892
 8290ETHO   H2364169  14.358   4.164  10.747
 8291ETHO    O164170  14.231   4.232  10.905
 8291ETHO    C164171  14.253   4.137  11.014
 8291ETHO   H1164172  14.158   4.105  11.061
 8291ETHO   H1364173  14.293   4.041  10.976
 8291ETHO    C264174  14.338   4.203  11.128
 8291ETHO   H2164175  14.278   4.292  11.155
 8291ETHO   H2364176  14.438   4.236  11.092
 8292ETHO    O164177  14.348   4.105  11.240
 8292ETHO    C164178  14.456   4.136  11.325
 8292ETHO   H1164179  14.432   4.229  11.381
 8292ETHO   H1364180  14.550   4.152  11.268
 8292ETHO    C264181  14.476   4.021  11.427
 8292ETHO   H2164182  14.386   3.980  11.478
 8292ETHO   H2364183  14.554   4.054  11.499
 8293ETHO    O164184  14.526   3.913  11.353
 8293ETHO    C164185  14.563   3.809  11.439
 8293ETHO   H1164186  14.623   3.853  11.521
 8293ETHO   H1364187  14.475   3.774  11.498
 8293ETHO    C264188  14.642   3.698  11.371
 8293ETHO   H2164189  14.685   3.631  11.448
 8293ETHO   H2364190  14.728   3.746  11.320
 8294ETHO    O164191  14.558   3.626  11.279
 8294ETHO    C164192  14.636   3.530  11.205
 8294ETHO   H1164193  14.709   3.575  11.135
 8294ETHO   H1364194  14.696   3.485  11.287
 8294ETHO    C264195  14.553   3.435  11.128
 8294ETHO   H2164196  14.464   3.407  11.189
 8294ETHO   H2364197  14.608   3.346  11.092
 8295ETHO    O164198  14.498   3.502  11.013
 8295ETHO    C164199  14.408   3.420  10.942
 8295ETHO   H1164200  14.453   3.327  10.902
 8295ETHO   H1364201  14.327   3.384  11.008
 8295ETHO    C264202  14.339   3.504  10.828
 8295ETHO   H2164203  14.319   3.609  10.858
 8295ETHO   H2364204  14.236   3.460  10.828
 8296ETHO    O164205  14.402   3.482  10.699
 8296ETHO    C164206  14.350   3.553  10.585
 8296ETHO   H1164207  14.437   3.548  10.516
 8296ETHO   H1364208  14.260   3.504  10.543
 8296ETHO    C264209  14.333   3.701  10.597
 8296ETHO   H2164210  14.420   3.726  10.662
 8296ETHO   H2364211  14.337   3.758  10.502
 8297ETHO    O164212  14.216   3.740  10.665
 8297ETHO    C164213  14.216   3.873  10.703
 8297ETHO   H1164214  14.244   3.924  10.608
 8297ETHO   H1364215  14.293   3.898  10.779
 8297ETHO    C264216  14.077   3.918  10.749
 8297ETHO   H2164217  14.086   4.026  10.770
 8297ETHO   H2364218  14.042   3.854  10.833
 8298ETHO    O164219  13.982   3.899  10.646
 8298ETHO    C164220  13.976   4.007  10.550
 8298ETHO   H1164221  13.978   4.107  10.599
 8298ETHO   H1364222  14.068   3.999  10.490
 8298ETHO    C264223  13.849   4.006  10.462
 8298ETHO   H2164224  13.826   3.905  10.422
 8298ETHO   H2364225  13.860   4.068  10.370
 8299ETHO    O164226  13.745   4.059  10.554
 8299ETHO    C164227  13.664   4.149  10.487
 8299ETHO   H1164228  13.655   4.107  10.385
 8299ETHO   H1364229  13.716   4.247  10.481
 8299ETHO    C264230  13.532   4.171  10.559
 8299ETHO   H2164231  13.480   4.075  10.581
 8299ETHO   H2364232  13.465   4.234  10.498
 8300ETHO    O164233  13.546   4.243  10.679
 8300ETHO    C164234  13.424   4.308  10.722
 8300ETHO   H1164235  13.373   4.368  10.644
 8300ETHO   H1364236  13.356   4.225  10.750
 8300ETHO    C264237  13.449   4.396  10.844
 8300ETHO   H2164238  13.483   4.347  10.938
 8300ETHO   H2364239  13.346   4.430  10.867
 8301ETHO    O164240  13.520   4.512  10.806
 8301ETHO    C164241  13.542   4.596  10.918
 8301ETHO   H1164242  13.590   4.540  11.001
 8301ETHO   H1364243  13.445   4.638  10.953
 8301ETHO    C264244  13.625   4.718  10.903
 8301ETHO   H2164245  13.722   4.691  10.856
 8301ETHO   H2364246  13.656   4.756  11.003
 8302ETHO    O164247  13.583   4.821  10.816
 8302ETHO    C164248  13.689   4.904  10.769
 8302ETHO   H1164249  13.747   4.950  10.851
 8302ETHO   H1364250  13.754   4.848  10.698
 8302ETHO    C264251  13.647   5.035  10.685
 8302ETHO   H2164252  13.554   5.017  10.627
 8302ETHO   H2364253  13.732   5.071  10.623
 8303ETHO    O164254  13.604   5.146  10.763
 8303ETHO    C164255  13.551   5.255  10.683
 8303ETHO   H1164256  13.547   5.226  10.576
 8303ETHO   H1364257  13.616   5.345  10.690
 8303ETHO    C264258  13.409   5.301  10.736
 8303ETHO   H2164259  13.338   5.219  10.709
 8303ETHO   H2364260  13.394   5.395  10.680
 8304ETHO    O164261  13.414   5.332  10.875
 8304ETHO    C164262  13.289   5.374  10.925
 8304ETHO   H1164263  13.211   5.363  10.847
 8304ETHO   H1364264  13.259   5.298  11.001
 8304ETHO    C264265  13.310   5.505  10.998
 8304ETHO   H2164266  13.371   5.490  11.090
 8304ETHO   H2364267  13.213   5.550  11.026
 8305ETHO    O164268  13.352   5.617  10.920
 8305ETHO    C164269  13.351   5.734  11.004
 8305ETHO   H1164270  13.250   5.747  11.047
 8305ETHO   H1364271  13.418   5.709  11.089
 8305ETHO    C264272  13.415   5.863  10.938
 8305ETHO   H2164273  13.498   5.831  10.871
 8305ETHO   H2364274  13.448   5.922  11.026
 8306ETHO    O164275  13.314   5.933  10.866
 8306ETHO    C164276  13.366   6.057  10.816
 8306ETHO   H1164277  13.409   6.127  10.890
 8306ETHO   H1364278  13.437   6.034  10.734
 8306ETHO    C264279  13.259   6.145  10.746
 8306ETHO   H2164280  13.198   6.095  10.667
 8306ETHO   H2364281  13.314   6.223  10.690
 8307ETHO    O164282  13.173   6.201  10.848
 8307ETHO    C164283  13.101   6.305  10.794
 8307ETHO   H1164284  13.178   6.372  10.751
 8307ETHO   H1364285  13.031   6.278  10.712
 8307ETHO    C264286  13.016   6.396  10.888
 8307ETHO   H2164287  12.969   6.482  10.835
 8307ETHO   H2364288  13.090   6.436  10.961
 8308ETHO    O164289  12.909   6.320  10.941
 8308ETHO    C164290  12.851   6.375  11.059
 8308ETHO   H1164291  12.770   6.306  11.090
 8308ETHO   H1364292  12.800   6.473  11.043
 8308ETHO    C264293  12.957   6.396  11.176
 8308ETHO   H2164294  13.043   6.330  11.154
 8308ETHO   H2364295  12.906   6.381  11.274
 8309ETHO    O164296  12.987   6.534  11.177
 8309ETHO    C164297  13.110   6.565  11.251
 8309ETHO   H1164298  13.118   6.499  11.340
 8309ETHO   H1364299  13.195   6.551  11.181
 8309ETHO    C264300  13.108   6.711  11.287
 8309ETHO   H2164301  13.066   6.776  11.207
 8309ETHO   H2364302  13.216   6.737  11.298
 8310ETHO    O164303  13.051   6.737  11.414
 8310ETHO    C164304  13.009   6.872  11.443
 8310ETHO   H1164305  12.942   6.864  11.532
 8310ETHO   H1364306  12.941   6.898  11.360
 8310ETHO    C264307  13.119   6.969  11.475
 8310ETHO   H2164308  13.189   6.922  11.548
 8310ETHO   H2364309  13.075   7.061  11.517
 8311ETHO    O164310  13.197   7.010  11.367
 8311ETHO    C164311  13.293   7.116  11.404
 8311ETHO   H1164312  13.246   7.204  11.454
 8311ETHO   H1364313  13.363   7.070  11.477
 8311ETHO    C264314  13.365   7.146  11.274
 8311ETHO   H2164315  13.397   7.051  11.226
 8311ETHO   H2364316  13.450   7.212  11.300
 8312ETHO    O164317  13.291   7.220  11.176
 8312ETHO    C164318  13.372   7.238  11.063
 8312ETHO   H1164319  13.379   7.142  11.007
 8312ETHO   H1364320  13.473   7.271  11.096
 8312ETHO    C264321  13.319   7.357  10.978
 8312ETHO   H2164322  13.213   7.360  10.946
 8312ETHO   H2364323  13.375   7.333  10.885
 8313ETHO    O164324  13.349   7.486  11.040
 8313ETHO    C164325  13.378   7.578  10.936
 8313ETHO   H1164326  13.461   7.550  10.867
 8313ETHO   H1364327  13.292   7.582  10.866
 8313ETHO    C264328  13.413   7.723  10.989
 8313ETHO   H2164329  13.467   7.775  10.907
 8313ETHO   H2364330  13.483   7.721  11.075
 8314ETHO    O164331  13.292   7.786  11.033
 8314ETHO    C164332  13.314   7.927  11.060
 8314ETHO   H1164333  13.299   7.985  10.967
 8314ETHO   H1364334  13.422   7.924  11.086
 8314ETHO    C264335  13.234   7.998  11.168
 8314ETHO   H2164336  13.282   8.092  11.204
 8314ETHO   H2364337  13.214   7.934  11.256
 8315ETHO    O164338  13.105   8.024  11.112
 8315ETHO    C164339  13.007   8.064  11.208
 8315ETHO   H1164340  12.912   8.025  11.167
 8315ETHO   H1364341  13.021   8.014  11.306
 8315ETHO    C264342  13.002   8.213  11.229
 8315ETHO   H2164343  12.915   8.236  11.294
 8315ETHO   H2364344  12.989   8.261  11.130
 8316PROX    O164345  13.118   8.265  11.287
 8316PROX    C164346  13.136   8.408  11.254
 8316PROX   H1164347  13.128   8.427  11.145
 8316PROX   H1364348  13.059   8.469  11.305
 8316PROX    C264349  13.277   8.461  11.315
 8316PROX   H2164350  13.359   8.393  11.284
 8316PROX    C364351  13.273   8.452  11.468
 8316PROX   H3164352  13.186   8.517  11.488
 8316PROX   H3264353  13.265   8.351  11.512
 8316PROX   H3364354  13.361   8.504  11.512
 8317PROX    O164355  13.304   8.586  11.260
 8317PROX    C164356  13.441   8.629  11.249
 8317PROX   H1164357  13.515   8.567  11.304
 8317PROX   H1364358  13.463   8.635  11.141
 8317PROX    C264359  13.466   8.772  11.309
 8317PROX   H2164360  13.383   8.837  11.275
 8317PROX    C364361  13.611   8.821  11.271
 8317PROX   H3164362  13.689   8.772  11.333
 8317PROX   H3264363  13.636   8.806  11.163
 8317PROX   H3364364  13.616   8.929  11.297
 8318PROX    O164365  13.452   8.761  11.449
 8318PROX    C164366  13.457   8.882  11.516
 8318PROX   H1164367  13.564   8.906  11.533
 8318PROX   H1364368  13.425   8.963  11.447
 8318PROX    C264369  13.390   8.883  11.656
 8318PROX   H2164370  13.432   8.796  11.711
 8318PROX    C364371  13.239   8.876  11.652
 8318PROX   H3164372  13.193   8.879  11.753
 8318PROX   H3264373  13.195   8.954  11.586
 8318PROX   H3364374  13.202   8.782  11.605
 8319PROX    O164375  13.426   9.004  11.720
 8319PROX    C164376  13.519   8.985  11.825
 8319PROX   H1164377  13.472   8.932  11.911
 8319PROX   H1364378  13.602   8.928  11.778
 8319PROX    C264379  13.571   9.119  11.888
 8319PROX   H2164380  13.629   9.175  11.811
 8319PROX    C364381  13.667   9.103  12.003
 8319PROX   H3164382  13.632   9.043  12.089
 8319PROX   H3264383  13.766   9.061  11.974
 8319PROX   H3364384  13.682   9.208  12.038
 8320PROX    O164385  13.459   9.195  11.935
 8320PROX    C164386  13.392   9.264  11.836
 8320PROX   H1164387  13.412   9.229  11.732
 8320PROX   H1364388  13.281   9.253  11.840
 8320PROX    C264389  13.411   9.420  11.830
 8320PROX   H2164390  13.512   9.438  11.872
 8320PROX    C364391  13.301   9.488  11.919
 8320PROX   H3164392  13.295   9.433  12.015
 8320PROX   H3264393  13.323   9.595  11.942
 8320PROX   H3364394  13.202   9.474  11.872
 8321PROX    O164395  13.407   9.471  11.698
 8321PROX    C164396  13.455   9.610  11.695
 8321PROX   H1164397  13.379   9.675  11.742
 8321PROX   H1364398  13.540   9.619  11.766
 8321PROX    C264399  13.484   9.662  11.554
 8321PROX   H2164400  13.403   9.630  11.486
 8321PROX    C364401  13.613   9.603  11.492
 8321PROX   H3164402  13.585   9.495  11.488
 8321PROX   H3264403  13.642   9.633  11.389
 8321PROX   H3364404  13.697   9.615  11.564
 8322PROX    O164405  13.478   9.803  11.555
 8322PROX    C164406  13.537   9.862  11.437
 8322PROX   H1164407  13.644   9.885  11.453
 8322PROX   H1364408  13.514   9.807  11.343
 8322PROX    C264409  13.488  10.006  11.398
 8322PROX   H2164410  13.377  10.009  11.390
 8322PROX    C364411  13.544  10.025  11.256
 8322PROX   H3164412  13.650   9.994  11.258
 8322PROX   H3264413  13.490   9.961  11.183
 8322PROX   H3364414  13.538  10.131  11.224
 8323PROX    O164415  13.536  10.098  11.497
 8323PROX    C164416  13.459  10.111  11.613
 8323PROX   H1164417  13.395  10.020  11.614
 8323PROX   H1364418  13.523  10.117  11.704
 8323PROX    C264419  13.379  10.240  11.593
 8323PROX   H2164420  13.445  10.330  11.586
 8323PROX    C364421  13.285  10.249  11.716
 8323PROX   H3164422  13.350  10.252  11.805
 8323PROX   H3264423  13.236  10.347  11.699
 8323PROX   H3364424  13.197  10.182  11.727
 8324PROX    O164425  13.293  10.229  11.480
 8324PROX    C164426  13.342  10.310  11.370
 8324PROX   H1164427  13.349  10.419  11.389
 8324PROX   H1364428  13.443  10.277  11.338
 8324PROX    C264429  13.244  10.303  11.254
 8324PROX   H2164430  13.276  10.366  11.168
 8324PROX    C364431  13.112  10.365  11.309
 8324PROX   H3164432  13.029  10.361  11.235
 8324PROX   H3264433  13.085  10.314  11.404
 8324PROX   H3364434  13.124  10.470  11.340
 8325PROX    O164435  13.231  10.168  11.210
 8325PROX    C164436  13.144  10.137  11.100
 8325PROX   H1164437  13.038  10.142  11.135
 8325PROX   H1364438  13.145  10.218  11.024
 8325PROX    C264439  13.184   9.992  11.062
 8325PROX   H2164440  13.293  10.008  11.048
 8325PROX    C364441  13.117   9.943  10.935
 8325PROX   H3164442  13.150   9.839  10.911
 8325PROX   H3264443  13.007   9.946  10.949
 8325PROX   H3364444  13.144  10.010  10.851
 8326PROX    O164445  13.164   9.902  11.175
 8326PROX    C164446  13.215   9.765  11.166
 8326PROX   H1164447  13.276   9.758  11.073
 8326PROX   H1364448  13.274   9.742  11.258
 8326PROX    C264449  13.109   9.656  11.166
 8326PROX   H2164450  13.040   9.676  11.081
 8326PROX    C364451  13.032   9.644  11.304
 8326PROX   H3164452  12.939   9.586  11.287
 8326PROX   H3264453  13.087   9.620  11.398
 8326PROX   H3364454  12.999   9.750  11.312
 8327PROX    O164455  13.169   9.532  11.152
 8327PROX    C164456  13.108   9.455  11.051
 8327PROX   H1164457  13.147   9.351  11.046
 8327PROX   H1364458  12.997   9.453  11.062
 8327PROX    C264459  13.127   9.513  10.905
 8327PROX   H2164460  13.083   9.614  10.892
 8327PROX    C364461  13.049   9.435  10.801
 8327PROX   H3164462  12.945   9.422  10.838
 8327PROX   H3264463  13.046   9.494  10.707
 8327PROX   H3364464  13.089   9.332  10.784
 8328PROX    O164465  13.264   9.535  10.877
 8328PROX    C164466  13.289   9.597  10.753
 8328PROX   H1164467  13.269   9.534  10.664
 8328PROX   H1364468  13.226   9.688  10.743
 8328PROX    C264469  13.437   9.641  10.750
 8328PROX   H2164470  13.510   9.559  10.769
 8328PROX    C364471  13.472   9.756  10.848
 8328PROX   H3164472  13.464   9.729  10.955
 8328PROX   H3264473  13.579   9.779  10.828
 8328PROX   H3364474  13.417   9.848  10.816
 8329PROX    O164475  13.473   9.699  10.629
 8329PROX    C164476  13.502   9.598  10.526
 8329PROX   H1164477  13.575   9.525  10.568
 8329PROX   H1364478  13.416   9.543  10.483
 8329PROX    C264479  13.568   9.670  10.403
 8329PROX   H2164480  13.494   9.748  10.374
 8329PROX    C364481  13.569   9.581  10.284
 8329PROX   H3164482  13.604   9.480  10.315
 8329PROX   H3264483  13.473   9.574  10.230
 8329PROX   H3364484  13.640   9.622  10.209
 8330PROX    O164485  13.705   9.709  10.426
 8330PROX    C164486  13.731   9.784  10.538
 8330PROX   H1164487  13.656   9.865  10.550
 8330PROX   H1364488  13.724   9.712  10.622
 8330PROX    C264489  13.874   9.852  10.533
 8330PROX   H2164490  13.876   9.944  10.471
 8330PROX    C364491  13.986   9.758  10.472
 8330PROX   H3164492  14.082   9.810  10.450
 8330PROX   H3264493  13.998   9.674  10.543
 8330PROX   H3364494  13.947   9.713  10.379
 8331PROX    O164495  13.914   9.875  10.667
 8331PROX    C164496  13.831   9.981  10.718
 8331PROX   H1164497  13.832  10.065  10.645
 8331PROX   H1364498  13.727   9.945  10.729
 8331PROX    C264499  13.882  10.026  10.859
 8331PROX   H2164500  13.897   9.935  10.921
 8331PROX    C364501  13.779  10.117  10.928
 8331PROX   H3164502  13.817  10.160  11.023
 8331PROX   H3264503  13.750  10.209  10.872
 8331PROX   H3364504  13.685  10.062  10.949
 8332PROX    O164505  14.000  10.109  10.850
 8332PROX    C164506  14.121  10.044  10.805
 8332PROX   H1164507  14.102   9.966  10.728
 8332PROX   H1364508  14.176  10.120  10.746
 8332PROX    C264509  14.200   9.988  10.920
 8332PROX   H2164510  14.137   9.940  10.999
 8332PROX    C364511  14.266  10.105  10.989
 8332PROX   H3164512  14.202  10.196  10.986
 8332PROX   H3264513  14.270  10.086  11.098
 8332PROX   H3364514  14.365  10.135  10.948
 8333PROX    O164515  14.289   9.890  10.870
 8333PROX    C164516  14.340   9.810  10.975
 8333PROX   H1164517  14.332   9.862  11.073
 8333PROX   H1364518  14.277   9.718  10.975
 8333PROX    C264519  14.491   9.764  10.948
 8333PROX   H2164520  14.550   9.858  10.948
 8333PROX    C364521  14.496   9.707  10.802
 8333PROX   H3164522  14.432   9.616  10.797
 8333PROX   H3264523  14.462   9.785  10.731
 8333PROX   H3364524  14.598   9.684  10.763
 8334PROX    O164525  14.539   9.672  11.044
 8334PROX    C164526  14.676   9.644  11.037
 8334PROX   H1164527  14.688   9.566  11.115
 8334PROX   H1364528  14.704   9.610  10.935
 8334PROX    C264529  14.777   9.754  11.077
 8334PROX   H2164530  14.751   9.848  11.025
 8334PROX    C364531  14.926   9.704  11.053
 8334PROX   H3164532  14.943   9.665  10.950
 8334PROX   H3264533  14.995   9.787  11.081
 8334PROX   H3364534  14.947   9.624  11.127
 8335PROX    O164535  14.774   9.787  11.215
 8335PROX    C164536  14.663   9.874  11.244
 8335PROX   H1164537  14.688   9.981  11.236
 8335PROX   H1364538  14.575   9.848  11.181
 8335PROX    C264539  14.614   9.841  11.390
 8335PROX   H2164540  14.684   9.892  11.460
 8335PROX    C364541  14.619   9.690  11.409
 8335PROX   H3164542  14.727   9.662  11.400
 8335PROX   H3264543  14.579   9.664  11.510
 8335PROX   H3364544  14.561   9.647  11.325
 8336PROX    O164545  14.479   9.891  11.401
 8336PROX    C164546  14.416   9.858  11.521
 8336PROX   H1164547  14.406   9.747  11.523
 8336PROX   H1364548  14.472   9.898  11.608
 8336PROX    C264549  14.272   9.910  11.520
 8336PROX   H2164550  14.262  10.017  11.492
 8336PROX    C364551  14.224   9.896  11.665
 8336PROX   H3164552  14.241   9.789  11.689
 8336PROX   H3264553  14.280   9.965  11.731
 8336PROX   H3364554  14.118   9.926  11.677
 8337PROX    O164555  14.194   9.824  11.440
 8337PROX    C164556  14.062   9.869  11.425
 8337PROX   H1164557  13.998   9.805  11.491
 8337PROX   H1364558  14.046   9.976  11.450
 8337PROX    C264559  14.016   9.848  11.275
 8337PROX   H2164560  14.106   9.827  11.213
 8337PROX    C364561  13.944   9.972  11.226
 8337PROX   H3164562  14.008  10.064  11.228
 8337PROX   H3264563  13.891   9.958  11.129
 8337PROX   H3364564  13.861   9.994  11.296
 8338PROX    O164565  13.914   9.745  11.276
 8338PROX    C164566  13.961   9.623  11.205
 8338PROX   H1164567  14.072   9.621  11.214
 8338PROX   H1364568  13.911   9.530  11.237
 8338PROX    C264569  13.936   9.635  11.048
 8338PROX   H2164570  14.000   9.718  11.011
 8338PROX    C364571  13.790   9.675  11.009
 8338PROX   H3164572  13.786   9.697  10.900
 8338PROX   H3264573  13.723   9.593  11.043
 8338PROX   H3364574  13.759   9.767  11.063
 8339PROX    O164575  13.984   9.518  10.972
 8339PROX    C164576  14.009   9.537  10.830
 8339PROX   H1164577  13.908   9.561  10.789
 8339PROX   H1364578  14.074   9.623  10.803
 8339PROX    C264579  14.054   9.409  10.760
 8339PROX   H2164580  14.001   9.324  10.807
 8339PROX    C364581  14.205   9.381  10.770
 8339PROX   H3164582  14.245   9.372  10.873
 8339PROX   H3264583  14.230   9.290  10.711
 8339PROX   H3364584  14.267   9.456  10.717
 8340PROX    O164585  14.032   9.405  10.619
 8340PROX    C164586  13.899   9.369  10.582
 8340PROX   H1164587  13.826   9.431  10.640
 8340PROX   H1364588  13.880   9.400  10.477
 8340PROX    C264589  13.884   9.213  10.593
 8340PROX   H2164590  13.987   9.171  10.585
 8340PROX    C364591  13.801   9.160  10.475
 8340PROX   H3164592  13.707   9.218  10.466
 8340PROX   H3264593  13.853   9.185  10.380
 8340PROX   H3364594  13.788   9.050  10.487
 8341PROX    O164595  13.841   9.170  10.720
 8341PROX    C164596  13.717   9.232  10.755
 8341PROX   H1164597  13.743   9.330  10.802
 8341PROX   H1364598  13.643   9.230  10.672
 8341PROX    C264599  13.664   9.142  10.868
 8341PROX   H2164600  13.755   9.124  10.929
 8341PROX    C364601  13.610   9.011  10.813
 8341PROX   H3164602  13.683   8.956  10.749
 8341PROX   H3264603  13.563   8.943  10.886
 8341PROX   H3364604  13.522   9.024  10.746
 8342PROX    O164605  13.566   9.221  10.944
 8342PROX    C164606  13.550   9.178  11.077
 8342PROX   H1164607  13.504   9.077  11.083
 8342PROX   H1364608  13.651   9.172  11.124
 8342PROX    C264609  13.457   9.279  11.153
 8342PROX   H2164610  13.355   9.270  11.110
 8342PROX    C364611  13.513   9.427  11.166
 8342PROX   H3164612  13.602   9.410  11.231
 8342PROX   H3264613  13.539   9.463  11.064
 8342PROX   H3364614  13.440   9.494  11.215
 8343PROX    O164615  13.424   9.237  11.290
 8343PROX    C164616  13.306   9.297  11.342
 8343PROX   H1164617  13.335   9.377  11.413
 8343PROX   H1364618  13.239   9.338  11.264
 8343PROX    C264619  13.222   9.182  11.402
 8343PROX   H2164620  13.283   9.135  11.482
 8343PROX    C364621  13.176   9.081  11.297
 8343PROX   H3164622  13.113   9.125  11.217
 8343PROX   H3264623  13.262   9.029  11.249
 8343PROX   H3364624  13.115   9.000  11.342
 8344PROX    O164625  13.102   9.240  11.467
 8344PROX    C164626  13.129   9.325  11.578
 8344PROX   H1164627  13.233   9.309  11.614
 8344PROX   H1364628  13.124   9.431  11.544
 8344PROX    C264629  13.030   9.298  11.690
 8344PROX   H2164630  13.063   9.367  11.770
 8344PROX    C364631  13.023   9.162  11.752
 8344PROX   H3164632  12.977   9.089  11.682
 8344PROX   H3264633  13.123   9.120  11.777
 8344PROX   H3364634  12.964   9.165  11.846
 8345PROX    O164635  12.900   9.326  11.644
 8345PROX    C164636  12.884   9.460  11.593
 8345PROX   H1164637  12.930   9.544  11.649
 8345PROX   H1364638  12.913   9.468  11.486
 8345PROX    C264639  12.737   9.490  11.589
 8345PROX   H2164640  12.698   9.469  11.691
 8345PROX    C364641  12.657   9.401  11.497
 8345PROX   H3164642  12.549   9.428  11.502
 8345PROX   H3264643  12.681   9.417  11.389
 8345PROX   H3364644  12.672   9.296  11.530
 8346PROX    O164645  12.719   9.628  11.550
 8346PROX    C164646  12.664   9.705  11.650
 8346PROX   H1164647  12.627   9.796  11.597
 8346PROX   H1364648  12.571   9.666  11.697
 8346PROX    C264649  12.758   9.738  11.771
 8346PROX   H2164650  12.775   9.647  11.832
 8346PROX    C364651  12.694   9.835  11.855
 8346PROX   H3164652  12.745   9.863  11.950
 8346PROX   H3264653  12.682   9.935  11.807
 8346PROX   H3364654  12.594   9.807  11.893
 8347PROX    O164655  12.885   9.793  11.728
 8347PROX    C164656  12.982   9.790  11.833
 8347PROX   H1164657  12.953   9.844  11.925
 8347PROX   H1364658  13.003   9.683  11.857
 8347PROX    C264659  13.115   9.837  11.770
 8347PROX   H2164660  13.109   9.947  11.758
 8347PROX    C364661  13.136   9.769  11.632
 8347PROX   H3164662  13.162   9.663  11.654
 8347PROX   H3264663  13.045   9.780  11.570
 8347PROX   H3364664  13.231   9.807  11.588
 8348PROX    O164665  13.224   9.812  11.858
 8348PROX    C164666  13.222   9.894  11.983
 8348PROX   H1164667  13.167   9.990  11.973
 8348PROX   H1364668  13.180   9.842  12.071
 8348PROX    C264669  13.366   9.936  12.003
 8348PROX   H2164670  13.402  10.007  11.926
 8348PROX    C364671  13.457   9.809  12.010
 8348PROX   H3164672  13.462   9.763  11.909
 8348PROX   H3264673  13.557   9.846  12.043
 8348PROX   H3364674  13.431   9.736  12.090
 8349PROX    O164675  13.371  10.004  12.129
 8349PROX    C164676  13.308  10.133  12.126
 8349PROX   H1164677  13.291  10.176  12.025
 8349PROX   H1364678  13.208  10.130  12.174
 8349PROX    C264679  13.395  10.235  12.198
 8349PROX   H2164680  13.422  10.194  12.298
 8349PROX    C364681  13.311  10.362  12.227
 8349PROX   H3164682  13.219  10.344  12.286
 8349PROX   H3264683  13.382  10.431  12.278
 8349PROX   H3364684  13.280  10.415  12.135
 8350PROX    O164685  13.508  10.271  12.115
 8350PROX    C164686  13.629  10.208  12.164
 8350PROX   H1164687  13.662  10.261  12.255
 8350PROX   H1364688  13.601  10.103  12.187
 8350PROX    C264689  13.742  10.222  12.062
 8350PROX   H2164690  13.766  10.331  12.065
 8350PROX    C364691  13.683  10.174  11.925
 8350PROX   H3164692  13.763  10.171  11.848
 8350PROX   H3264693  13.647  10.070  11.937
 8350PROX   H3364694  13.610  10.248  11.885
 8351PROX    O164695  13.855  10.141  12.098
 8351PROX    C164696  13.975  10.183  12.036
 8351PROX   H1164697  13.958  10.244  11.944
 8351PROX   H1364698  14.025  10.263  12.094
 8351PROX    C264699  14.060  10.061  12.002
 8351PROX   H2164700  14.070  10.007  12.099
 8351PROX    C364701  14.197  10.102  11.960
 8351PROX   H3164702  14.201  10.155  11.862
 8351PROX   H3264703  14.264  10.146  12.037
 8351PROX   H3364704  14.250  10.006  11.942
 8352PROX    O164705  14.005   9.988  11.894
 8352PROX    C164706  13.904   9.904  11.939
 8352PROX   H1164707  13.933   9.852  12.033
 8352PROX   H1364708  13.810   9.954  11.970
 8352PROX    C264709  13.862   9.787  11.836
 8352PROX   H2164710  13.956   9.731  11.815
 8352PROX    C364711  13.795   9.854  11.723
 8352PROX   H3164712  13.709   9.925  11.736
 8352PROX   H3264713  13.878   9.911  11.676
 8352PROX   H3364714  13.749   9.786  11.649
 8353PROX    O164715  13.759   9.705  11.884
 8353PROX    C164716  13.792   9.619  11.999
 8353PROX   H1164717  13.832   9.668  12.091
 8353PROX   H1364718  13.696   9.571  12.030
 8353PROX    C264719  13.876   9.491  11.960
 8353PROX   H2164720  13.976   9.526  11.927
 8353PROX    C364721  13.819   9.407  11.852
 8353PROX   H3164722  13.722   9.370  11.892
 8353PROX   H3264723  13.805   9.474  11.764
 8353PROX   H3364724  13.876   9.318  11.819
 8354PROX    O164725  13.892   9.403  12.073
 8354PROX    C164726  13.970   9.447  12.177
 8354PROX   H1164727  13.921   9.538  12.217
 8354PROX   H1364728  13.956   9.367  12.252
 8354PROX    C264729  14.123   9.443  12.140
 8354PROX   H2164730  14.135   9.357  12.070
 8354PROX    C364731  14.209   9.430  12.266
 8354PROX   H3164732  14.316   9.413  12.240
 8354PROX   H3264733  14.211   9.522  12.327
 8354PROX   H3364734  14.175   9.342  12.325
 8355PROX    O164735  14.160   9.560  12.074
 8355PROX    C164736  14.263   9.543  11.977
 8355PROX   H1164737  14.344   9.481  12.019
 8355PROX   H1364738  14.218   9.491  11.890
 8355PROX    C264739  14.325   9.680  11.934
 8355PROX   H2164740  14.245   9.742  11.889
 8355PROX    C364741  14.428   9.667  11.819
 8355PROX   H3164742  14.382   9.627  11.726
 8355PROX   H3264743  14.479   9.761  11.790
 8355PROX   H3364744  14.506   9.592  11.842
 8356PROX    O164745  14.383   9.749  12.038
 8356PROX    C164746  14.481   9.679  12.106
 8356PROX   H1164747  14.431   9.599  12.163
 8356PROX   H1364748  14.568   9.647  12.044
 8356PROX    C264749  14.548   9.780  12.203
 8356PROX   H2164750  14.466   9.830  12.258
 8356PROX    C364751  14.623   9.903  12.138
 8356PROX   H3164752  14.557   9.991  12.131
 8356PROX   H3264753  14.715   9.936  12.191
 8356PROX   H3364754  14.655   9.879  12.034
 8357PROX    O164755  14.643   9.713  12.290
 8357PROX    C164756  14.667   9.781  12.413
 8357PROX   H1164757  14.768   9.764  12.455
 8357PROX   H1364758  14.648   9.889  12.396
 8357PROX    C264759  14.561   9.748  12.519
 8357PROX   H2164760  14.464   9.769  12.468
 8357PROX    C364761  14.572   9.848  12.635
 8357PROX   H3164762  14.492   9.841  12.712
 8357PROX   H3264763  14.672   9.847  12.684
 8357PROX   H3364764  14.571   9.954  12.600
 8358PROX    O164765  14.567   9.613  12.564
 8358PROX    C164766  14.508   9.515  12.477
 8358PROX   H1164767  14.404   9.497  12.511
 8358PROX   H1364768  14.504   9.556  12.373
 8358PROX    C264769  14.564   9.380  12.476
 8358PROX   H2164770  14.563   9.327  12.573
 8358PROX    C364771  14.719   9.391  12.423
 8358PROX   H3164772  14.774   9.467  12.482
 8358PROX   H3264773  14.762   9.289  12.421
 8358PROX   H3364774  14.712   9.427  12.318
 8359PROX    O164775  14.502   9.302  12.376
 8359PROX    C164776  14.510   9.165  12.393
 8359PROX   H1164777  14.612   9.136  12.426
 8359PROX   H1364778  14.441   9.131  12.473
 8359PROX    C264779  14.476   9.089  12.261
 8359PROX   H2164780  14.381   9.120  12.214
 8359PROX    C364781  14.466   8.939  12.304
 8359PROX   H3164782  14.556   8.924  12.367
 8359PROX   H3264783  14.384   8.924  12.378
 8359PROX   H3364784  14.452   8.872  12.217
 8360PROX    O164785  14.583   9.105  12.162
 8360PROX    C164786  14.589   9.225  12.093
 8360PROX   H1164787  14.492   9.239  12.041
 8360PROX   H1364788  14.602   9.311  12.161
 8360PROX    C264789  14.700   9.222  11.987
 8360PROX   H2164790  14.680   9.134  11.921
 8360PROX    C364791  14.838   9.207  12.047
 8360PROX   H3164792  14.845   9.119  12.113
 8360PROX   H3264793  14.912   9.205  11.964
 8360PROX   H3364794  14.848   9.292  12.117
 8361PROX    O164795  14.689   9.340  11.904
 8361PROX    C164796  14.806   9.389  11.832
 8361PROX   H1164797  14.875   9.434  11.906
 8361PROX   H1364798  14.856   9.307  11.776
 8361PROX    C264799  14.761   9.486  11.725
 8361PROX   H2164800  14.706   9.574  11.766
 8361PROX    C364801  14.675   9.417  11.625
 8361PROX   H3164802  14.706   9.311  11.621
 8361PROX   H3264803  14.566   9.409  11.643
 8361PROX   H3364804  14.696   9.453  11.522
 8362PROX    O164805  14.879   9.522  11.650
 8362PROX    C164806  14.915   9.659  11.684
 8362PROX   H1164807  14.858   9.738  11.631
 8362PROX   H1364808  14.913   9.680  11.793
 8362PROX    C264809  15.062   9.679  11.646
 8362PROX   H2164810  15.107   9.577  11.649
 8362PROX    C364811  15.152   9.779  11.728
 8362PROX   H3164812  15.082   9.865  11.725
 8362PROX   H3264813  15.184   9.759  11.832
 8362PROX   H3364814  15.248   9.800  11.677
 8363PROX    O164815  15.076   9.732  11.520
 8363PROX    C164816  15.048   9.636  11.411
 8363PROX   H1164817  14.953   9.580  11.428
 8363PROX   H1364818  15.044   9.696  11.318
 8363PROX    C264819  15.163   9.522  11.401
 8363PROX   H2164820  15.182   9.482  11.503
 8363PROX    C364821  15.298   9.576  11.341
 8363PROX   H3164822  15.333   9.666  11.397
 8363PROX   H3264823  15.384   9.508  11.358
 8363PROX   H3364824  15.295   9.612  11.236
 8364PROX    O164825  15.117   9.409  11.325
 8364PROX    C164826  15.041   9.328  11.412
 8364PROX   H1164827  15.099   9.268  11.485
 8364PROX   H1364828  14.974   9.394  11.472
 8364PROX    C264829  14.948   9.244  11.329
 8364PROX   H2164830  15.011   9.185  11.260
 8364PROX    C364831  14.847   9.331  11.248
 8364PROX   H3164832  14.897   9.391  11.168
 8364PROX   H3264833  14.780   9.260  11.195
 8364PROX   H3364834  14.783   9.397  11.310
 8365PROX    O164835  14.881   9.153  11.411
 8365PROX    C164836  14.833   9.024  11.358
 8365PROX   H1164837  14.789   9.031  11.256
 8365PROX   H1364838  14.921   8.957  11.351
 8365PROX    C264839  14.737   8.953  11.462
 8365PROX   H2164840  14.643   9.011  11.473
 8365PROX    C364841  14.805   8.943  11.605
 8365PROX   H3164842  14.749   8.868  11.664
 8365PROX   H3264843  14.907   8.900  11.595
 8365PROX   H3364844  14.817   9.046  11.647
 8366PROX    O164845  14.699   8.825  11.401
 8366PROX    C164846  14.587   8.765  11.467
 8366PROX   H1164847  14.618   8.659  11.472
 8366PROX   H1364848  14.569   8.815  11.565
 8366PROX    C264849  14.469   8.751  11.372
 8366PROX   H2164850  14.499   8.696  11.281
 8366PROX    C364851  14.421   8.889  11.328
 8366PROX   H3164852  14.402   8.965  11.407
 8366PROX   H3264853  14.502   8.943  11.273
 8366PROX   H3364854  14.338   8.895  11.254
 8367PROX    O164855  14.372   8.668  11.433
 8367PROX    C164856  14.259   8.657  11.350
 8367PROX   H1164857  14.202   8.752  11.337
 8367PROX   H1364858  14.278   8.611  11.251
 8367PROX    C264859  14.159   8.552  11.427
 8367PROX   H2164860  14.147   8.591  11.530
 8367PROX    C364861  14.206   8.406  11.416
 8367PROX   H3164862  14.173   8.348  11.327
 8367PROX   H3264863  14.316   8.391  11.424
 8367PROX   H3364864  14.166   8.363  11.510
 8368PROX    O164865  14.034   8.561  11.357
 8368PROX    C164866  13.921   8.500  11.423
 8368PROX   H1164867  13.837   8.505  11.351
 8368PROX   H1364868  13.955   8.400  11.459
 8368PROX    C264869  13.878   8.581  11.542
 8368PROX   H2164870  13.948   8.550  11.623
 8368PROX    C364871  13.738   8.542  11.596
 8368PROX   H3164872  13.744   8.438  11.634
 8368PROX   H3264873  13.714   8.592  11.693
 8368PROX   H3364874  13.667   8.554  11.512
 8369PROX    O164875  13.885   8.719  11.505
 8369PROX    C164876  13.877   8.806  11.609
 8369PROX   H1164877  13.771   8.836  11.618
 8369PROX   H1364878  13.916   8.762  11.704
 8369PROX    C264879  13.974   8.930  11.585
 8369PROX   H2164880  13.970   8.951  11.476
 8369PROX    C364881  14.125   8.914  11.610
 8369PROX   H3164882  14.177   8.983  11.540
 8369PROX   H3264883  14.159   8.932  11.714
 8369PROX   H3364884  14.154   8.811  11.579
 8370PROX    O164885  13.923   9.047  11.662
 8370PROX    C164886  13.830   9.109  11.581
 8370PROX   H1164887  13.759   9.040  11.529
 8370PROX   H1364888  13.766   9.153  11.660
 8370PROX    C264889  13.895   9.214  11.495
 8370PROX   H2164890  13.974   9.259  11.559
 8370PROX    C364891  13.802   9.328  11.464
 8370PROX   H3164892  13.728   9.349  11.545
 8370PROX   H3264893  13.866   9.418  11.457
 8370PROX   H3364894  13.746   9.313  11.369
 8371PROX    O164895  13.969   9.159  11.379
 8371PROX    C164896  13.898   9.095  11.280
 8371PROX   H1164897  13.822   9.023  11.320
 8371PROX   H1364898  13.846   9.169  11.215
 8371PROX    C264899  14.005   9.044  11.182
 8371PROX   H2164900  14.084   8.991  11.239
 8371PROX    C364901  14.075   9.163  11.120
 8371PROX   H3164902  14.149   9.114  11.053
 8371PROX   H3264903  13.999   9.223  11.066
 8371PROX   H3364904  14.124   9.230  11.194
 8372PROX    O164905  13.957   8.954  11.077
 8372PROX    C164906  13.957   8.819  11.120
 8372PROX   H1164907  14.048   8.786  11.176
 8372PROX   H1364908  13.875   8.824  11.195
 8372PROX    C264909  13.934   8.725  11.002
 8372PROX   H2164910  13.851   8.773  10.946
 8372PROX    C364911  13.892   8.583  11.046
 8372PROX   H3164912  13.793   8.577  11.097
 8372PROX   H3264913  13.892   8.512  10.961
 8372PROX   H3364914  13.967   8.552  11.122
 8373PROX    O164915  14.051   8.718  10.919
 8373PROX    C164916  14.022   8.706  10.784
 8373PROX   H1164917  14.092   8.645  10.722
 8373PROX   H1364918  13.921   8.660  10.772
 8373PROX    C264919  14.029   8.844  10.717
 8373PROX   H2164920  14.003   8.928  10.784
 8373PROX    C364921  13.950   8.851  10.586
 8373PROX   H3164922  13.979   8.779  10.507
 8373PROX   H3264923  13.841   8.838  10.602
 8373PROX   H3364924  13.957   8.953  10.542
 8374PROX    O164925  14.166   8.877  10.665
 8374PROX    C164926  14.271   8.872  10.762
 8374PROX   H1164927  14.244   8.882  10.869
 8374PROX   H1364928  14.328   8.780  10.738
 8374PROX    C264929  14.358   8.996  10.719
 8374PROX   H2164930  14.298   9.083  10.755
 8374PROX    C364931  14.393   8.986  10.571
 8374PROX   H3164932  14.466   9.065  10.542
 8374PROX   H3264933  14.434   8.887  10.543
 8374PROX   H3364934  14.303   9.005  10.508
 8375PROX    O164935  14.481   8.987  10.789
 8375PROX    C164936  14.476   9.028  10.926
 8375PROX   H1164937  14.373   9.061  10.952
 8375PROX   H1364938  14.494   8.942  10.993
 8375PROX    C264939  14.580   9.132  10.952
 8375PROX   H2164940  14.558   9.213  10.879
 8375PROX    C364941  14.726   9.085  10.941
 8375PROX   H3164942  14.746   8.993  10.999
 8375PROX   H3264943  14.751   9.080  10.833
 8375PROX   H3364944  14.789   9.170  10.975
 8376PROX    O164945  14.569   9.195  11.080
 8376PROX    C164946  14.446   9.263  11.113
 8376PROX   H1164947  14.418   9.337  11.034
 8376PROX   H1364948  14.370   9.185  11.135
 8376PROX    C264949  14.460   9.340  11.243
 8376PROX   H2164950  14.533   9.422  11.228
 8376PROX    C364951  14.490   9.246  11.359
 8376PROX   H3164952  14.500   9.302  11.454
 8376PROX   H3264953  14.407   9.174  11.378
 8376PROX   H3364954  14.587   9.194  11.343
 8377PROX    O164955  14.330   9.402  11.265
 8377PROX    C164956  14.320   9.486  11.381
 8377PROX   H1164957  14.416   9.517  11.427
 8377PROX   H1364958  14.269   9.579  11.348
 8377PROX    C264959  14.225   9.420  11.486
 8377PROX   H2164960  14.155   9.345  11.444
 8377PROX    C364961  14.138   9.525  11.555
 8377PROX   H3164962  14.193   9.605  11.608
 8377PROX   H3264963  14.064   9.575  11.489
 8377PROX   H3364964  14.074   9.471  11.629
 8378PROX    O164965  14.303   9.361  11.594
 8378PROX    C164966  14.237   9.249  11.669
 8378PROX   H1164967  14.143   9.292  11.709
 8378PROX   H1364968  14.212   9.172  11.593
 8378PROX    C264969  14.324   9.188  11.781
 8378PROX   H2164970  14.361   9.270  11.847
 8378PROX    C364971  14.458   9.123  11.741
 8378PROX   H3164972  14.541   9.196  11.727
 8378PROX   H3264973  14.484   9.060  11.829
 8378PROX   H3364974  14.444   9.046  11.662
 8379PROX    O164975  14.250   9.092  11.861
 8379PROX    C164976  14.177   9.143  11.964
 8379PROX   H1164977  14.239   9.196  12.041
 8379PROX   H1364978  14.102   9.217  11.929
 8379PROX    C264979  14.093   9.040  12.042
 8379PROX   H2164980  14.024   8.994  11.969
 8379PROX    C364981  14.002   9.100  12.153
 8379PROX   H3164982  13.950   9.028  12.219
 8379PROX   H3264983  14.075   9.161  12.211
 8379PROX   H3364984  13.916   9.153  12.107
 8380PROX    O164985  14.175   8.948  12.110
 8380PROX    C164986  14.214   8.830  12.038
 8380PROX   H1164987  14.263   8.863  11.944
 8380PROX   H1364988  14.275   8.767  12.105
 8380PROX    C264989  14.099   8.740  11.991
 8380PROX   H2164990  14.046   8.785  11.905
 8380PROX    C364991  13.998   8.725  12.111
 8380PROX   H3164992  13.928   8.811  12.109
 8380PROX   H3264993  13.943   8.628  12.109
 8380PROX   H3364994  14.058   8.713  12.203
 8381ETHO    O164995  14.158   8.614  11.951
 8381ETHO    C164996  14.218   8.616  11.817
 8381ETHO   H1164997  14.288   8.701  11.810
 8381ETHO   H1364998  14.136   8.637  11.745
 8381ETHO    C264999  14.298   8.486  11.784
 8381ETHO   H2165000  14.390   8.477  11.846
 8381ETHO   H2365001  14.337   8.498  11.680
 8382ETHO    O165002  14.216   8.362  11.798
 8382ETHO    C165003  14.304   8.246  11.780
 8382ETHO   H1165004  14.357   8.248  11.682
 8382ETHO   H1365005  14.380   8.245  11.861
 8382ETHO    C265006  14.229   8.116  11.789
 8382ETHO   H2165007  14.197   8.096  11.893
 8382ETHO   H2365008  14.289   8.025  11.768
 8383ETHO    O165009  14.112   8.116  11.701
 8383ETHO    C165010  14.050   7.989  11.669
 8383ETHO   H1165011  14.131   7.921  11.636
 8383ETHO   H1365012  13.977   7.998  11.586
 8383ETHO    C265013  13.961   7.937  11.789
 8383ETHO   H2165014  14.003   7.977  11.883
 8383ETHO   H2365015  13.967   7.826  11.794
 8384ETHO    O165016  13.818   7.963  11.773
 8384ETHO    C165017  13.740   7.916  11.887
 8384ETHO   H1165018  13.763   7.809  11.908
 8384ETHO   H1365019  13.754   7.971  11.982
 8384ETHO    C265020  13.588   7.927  11.861
 8384ETHO   H2165021  13.570   8.023  11.806
 8384ETHO   H2365022  13.542   7.925  11.962
 8385ETHO    O165023  13.547   7.820  11.780
 8385ETHO    C165024  13.408   7.825  11.752
 8385ETHO   H1165025  13.382   7.763  11.664
 8385ETHO   H1365026  13.389   7.933  11.736
 8385ETHO    C265027  13.321   7.772  11.869
 8385ETHO   H2165028  13.213   7.788  11.847
 8385ETHO   H2365029  13.330   7.824  11.967
 8386ETHO    O165030  13.342   7.628  11.878
 8386ETHO    C165031  13.251   7.570  11.973
 8386ETHO   H1165032  13.304   7.565  12.071
 8386ETHO   H1365033  13.163   7.636  11.992
 8386ETHO    C265034  13.206   7.429  11.920
 8386ETHO   H2165035  13.171   7.448  11.817
 8386ETHO   H2365036  13.126   7.380  11.979
 8387ETHO    O165037  13.305   7.331  11.923
 8387ETHO    C165038  13.293   7.227  11.827
 8387ETHO   H1165039  13.270   7.276  11.730
 8387ETHO   H1365040  13.204   7.171  11.862
 8387ETHO    C265041  13.414   7.144  11.817
 8387ETHO   H2165042  13.378   7.049  11.772
 8387ETHO   H2365043  13.459   7.132  11.918
 8388ETHO    O165044  13.514   7.198  11.732
 8388ETHO    C165045  13.599   7.097  11.693
 8388ETHO   H1165046  13.652   7.055  11.781
 8388ETHO   H1365047  13.542   7.013  11.647
 8388ETHO    C265048  13.713   7.150  11.596
 8388ETHO   H2165049  13.753   7.249  11.629
 8388ETHO   H2365050  13.805   7.089  11.603
 8389ETHO    O165051  13.672   7.155  11.454
 8389ETHO    C165052  13.779   7.205  11.371
 8389ETHO   H1165053  13.878   7.169  11.406
 8389ETHO   H1365054  13.763   7.171  11.267
 8389ETHO    C265055  13.798   7.359  11.365
 8389ETHO   H2165056  13.901   7.375  11.327
 8389ETHO   H2365057  13.773   7.402  11.464
 8390ETHO    O165058  13.706   7.423  11.274
 8390ETHO    C165059  13.769   7.455  11.150
 8390ETHO   H1165060  13.700   7.525  11.100
 8390ETHO   H1365061  13.861   7.510  11.177
 8390ETHO    C265062  13.808   7.336  11.057
 8390ETHO   H2165063  13.832   7.384  10.960
 8390ETHO   H2365064  13.729   7.259  11.048
 8391ETHO    O165065  13.928   7.279  11.114
 8391ETHO    C165066  13.972   7.164  11.042
 8391ETHO   H1165067  13.895   7.085  11.034
 8391ETHO   H1365068  13.992   7.201  10.939
 8391ETHO    C265069  14.108   7.114  11.090
 8391ETHO   H2165070  14.178   7.199  11.075
 8391ETHO   H2365071  14.135   7.036  11.017
 8392ETHO    O165072  14.110   7.067  11.226
 8392ETHO    C165073  14.180   7.161  11.309
 8392ETHO   H1165074  14.156   7.125  11.412
 8392ETHO   H1365075  14.137   7.262  11.292
 8392ETHO    C265076  14.331   7.162  11.291
 8392ETHO   H2165077  14.372   7.237  11.363
 8392ETHO   H2365078  14.365   7.179  11.187
 8393ETHO    O165079  14.397   7.049  11.338
 8393ETHO    C165080  14.536   7.049  11.318
 8393ETHO   H1165081  14.553   7.050  11.208
 8393ETHO   H1365082  14.576   7.139  11.370
 8393ETHO    C265083  14.601   6.923  11.367
 8393ETHO   H2165084  14.657   6.882  11.281
 8393ETHO   H2365085  14.522   6.853  11.402
 8394ETHO    O165086  14.674   6.947  11.484
 8394ETHO    C165087  14.752   6.831  11.520
 8394ETHO   H1165088  14.770   6.771  11.427
 8394ETHO   H1365089  14.691   6.764  11.585
 8394ETHO    C265090  14.887   6.865  11.594
 8394ETHO   H2165091  14.924   6.780  11.655
 8394ETHO   H2365092  14.866   6.945  11.667
 8395ETHO    O165093  14.984   6.900  11.499
 8395ETHO    C165094  15.105   6.957  11.558
 8395ETHO   H1165095  15.166   7.011  11.482
 8395ETHO   H1365096  15.076   7.035  11.631
 8395ETHO    C265097  15.194   6.858  11.637
 8395ETHO   H2165098  15.146   6.832  11.734
 8395ETHO   H2365099  15.286   6.914  11.663
 8396ETHO    O165100  15.214   6.738  11.567
 8396ETHO    C165101  15.275   6.753  11.436
 8396ETHO   H1165102  15.363   6.820  11.446
 8396ETHO   H1365103  15.193   6.801  11.378
 8396ETHO    C265104  15.312   6.611  11.382
 8396ETHO   H2165105  15.352   6.608  11.278
 8396ETHO   H2365106  15.221   6.548  11.379
 8397ETHO    O165107  15.402   6.553  11.472
 8397ETHO    C165108  15.474   6.445  11.416
 8397ETHO   H1165109  15.404   6.368  11.376
 8397ETHO   H1365110  15.540   6.478  11.333
 8397ETHO    C265111  15.566   6.387  11.524
 8397ETHO   H2165112  15.607   6.480  11.569
 8397ETHO   H2365113  15.650   6.332  11.475
 8398ETHO    O165114  15.508   6.307  11.621
 8398ETHO    C165115  15.600   6.225  11.694
 8398ETHO   H1165116  15.665   6.154  11.641
 8398ETHO   H1365117  15.535   6.152  11.746
 8398ETHO    C265118  15.699   6.296  11.792
 8398ETHO   H2165119  15.721   6.218  11.868
 8398ETHO   H2365120  15.651   6.383  11.840
 8399ETHO    O165121  15.824   6.336  11.727
 8399ETHO    C165122  15.885   6.437  11.802
 8399ETHO   H1165123  15.824   6.530  11.799
 8399ETHO   H1365124  15.898   6.398  11.905
 8399ETHO    C265125  16.024   6.490  11.759
 8399ETHO   H2165126  16.088   6.401  11.746
 8399ETHO   H2365127  16.053   6.571  11.829
 8400ETHO    O165128  16.018   6.540  11.623
 8400ETHO    C165129  16.137   6.613  11.594
 8400ETHO   H1165130  16.128   6.649  11.489
 8400ETHO   H1365131  16.119   6.701  11.659
 8400ETHO    C265132  16.270   6.542  11.602
 8400ETHO   H2165133  16.275   6.481  11.694
 8400ETHO   H2365134  16.340   6.628  11.607
 8401ETHO    O165135  16.297   6.451  11.490
 8401ETHO    C165136  16.245   6.315  11.504
 8401ETHO   H1165137  16.232   6.288  11.611
 8401ETHO   H1365138  16.151   6.298  11.449
 8401ETHO    C265139  16.364   6.232  11.457
 8401ETHO   H2165140  16.441   6.246  11.536
 8401ETHO   H2365141  16.392   6.269  11.357
 8402ETHO    O165142  16.334   6.090  11.457
 8402ETHO    C165143  16.456   6.023  11.426
 8402ETHO   H1165144  16.502   6.052  11.329
 8402ETHO   H1365145  16.529   6.044  11.506
 8402ETHO    C265146  16.439   5.873  11.424
 8402ETHO   H2165147  16.376   5.851  11.513
 8402ETHO   H2365148  16.538   5.828  11.445
 8403ETHO    O165149  16.384   5.824  11.299
 8403ETHO    C165150  16.353   5.691  11.325
 8403ETHO   H1165151  16.286   5.688  11.413
 8403ETHO   H1365152  16.448   5.639  11.352
 8403ETHO    C265153  16.291   5.615  11.208
 8403ETHO   H2165154  16.263   5.515  11.248
 8403ETHO   H2365155  16.369   5.603  11.130
 8404ETHO    O165156  16.173   5.674  11.151
 8404ETHO    C165157  16.132   5.619  11.026
 8404ETHO   H1165158  16.029   5.659  11.013
 8404ETHO   H1365159  16.200   5.661  10.949
 8404ETHO    C265160  16.113   5.465  11.000
 8404ETHO   H2165161  16.214   5.423  11.020
 8404ETHO   H2365162  16.096   5.454  10.890
 8405ETHO    O165163  16.016   5.397  11.077
 8405ETHO    C165164  15.997   5.270  11.017
 8405ETHO   H1165165  16.087   5.247  10.956
 8405ETHO   H1365166  15.910   5.271  10.949
 8405ETHO    C265167  15.972   5.166  11.125
 8405ETHO   H2165168  15.935   5.076  11.071
 8405ETHO   H2365169  15.904   5.192  11.208
 8406ETHO    O165170  16.096   5.126  11.183
 8406ETHO    C165171  16.077   5.011  11.272
 8406ETHO   H1165172  16.022   5.048  11.361
 8406ETHO   H1365173  16.026   4.931  11.215
 8406ETHO    C265174  16.211   4.952  11.316
 8406ETHO   H2165175  16.194   4.900  11.412
 8406ETHO   H2365176  16.274   5.042  11.335
 8407ETHO    O165177  16.266   4.867  11.221
 8407ETHO    C165178  16.390   4.818  11.262
 8407ETHO   H1165179  16.419   4.740  11.188
 8407ETHO   H1365180  16.381   4.780  11.366
 8407ETHO    C265181  16.508   4.917  11.258
 8407ETHO   H2165182  16.592   4.869  11.313
 8407ETHO   H2365183  16.485   5.009  11.316
 8408ETHO    O165184  16.536   4.954  11.120
 8408ETHO    C165185  16.616   4.853  11.057
 8408ETHO   H1165186  16.706   4.838  11.120
 8408ETHO   H1365187  16.569   4.752  11.051
 8408ETHO    C265188  16.660   4.901  10.920
 8408ETHO   H2165189  16.580   4.947  10.858
 8408ETHO   H2365190  16.689   4.809  10.864
 8409ETHO    O165191  16.766   4.996  10.938
 8409ETHO    C165192  16.792   5.053  10.813
 8409ETHO   H1165193  16.694   5.078  10.766
 8409ETHO   H1365194  16.843   4.981  10.745
 8409ETHO    C265195  16.878   5.178  10.821
 8409ETHO   H2165196  16.862   5.226  10.722
 8409ETHO   H2365197  16.981   5.144  10.847
 8410ETHO    O165198  16.834   5.275  10.914
 8410ETHO    C165199  16.914   5.390  10.924
 8410ETHO   H1165200  17.005   5.371  10.985
 8410ETHO   H1365201  16.942   5.431  10.824
 8410ETHO    C265202  16.844   5.498  11.015
 8410ETHO   H2165203  16.913   5.585  11.022
 8410ETHO   H2365204  16.830   5.456  11.116
 8411ETHO    O165205  16.714   5.537  10.957
 8411ETHO    C165206  16.669   5.662  10.999
 8411ETHO   H1165207  16.571   5.687  10.954
 8411ETHO   H1365208  16.665   5.666  11.110
 8411ETHO    C265209  16.756   5.790  10.957
 8411ETHO   H2165210  16.728   5.814  10.853
 8411ETHO   H2365211  16.865   5.771  10.963
 8412ETHO    O165212  16.721   5.901  11.043
 8412ETHO    C165213  16.759   6.031  11.004
 8412ETHO   H1165214  16.864   6.054  11.034
 8412ETHO   H1365215  16.754   6.039  10.893
 8412ETHO    C265216  16.676   6.145  11.058
 8412ETHO   H2165217  16.734   6.240  11.057
 8412ETHO   H2365218  16.662   6.125  11.166
 8413ETHO    O165219  16.549   6.167  10.991
 8413ETHO    C165220  16.458   6.237  11.080
 8413ETHO   H1165221  16.445   6.175  11.171
 8413ETHO   H1365222  16.490   6.339  11.108
 8413ETHO    C265223  16.315   6.254  11.030
 8413ETHO   H2165224  16.250   6.282  11.117
 8413ETHO   H2365225  16.276   6.162  10.982
 8414ETHO    O165226  16.324   6.359  10.930
 8414ETHO    C165227  16.199   6.399  10.875
 8414ETHO   H1165228  16.132   6.313  10.857
 8414ETHO   H1365229  16.226   6.443  10.776
 8414ETHO    C265230  16.127   6.504  10.967
 8414ETHO   H2165231  16.047   6.556  10.911
 8414ETHO   H2365232  16.203   6.583  10.986
 8415ETHO    O165233  16.082   6.440  11.083
 8415ETHO    C165234  16.012   6.530  11.166
 8415ETHO   H1165235  16.075   6.605  11.217
 8415ETHO   H1365236  15.938   6.595  11.114
 8415ETHO    C265237  15.950   6.441  11.274
 8415ETHO   H2165238  15.949   6.495  11.371
 8415ETHO   H2365239  16.008   6.347  11.283
 8416ETHO    O165240  15.814   6.399  11.249
 8416ETHO    C165241  15.795   6.281  11.165
 8416ETHO   H1165242  15.850   6.198  11.215
 8416ETHO   H1365243  15.845   6.299  11.067
 8416ETHO    C265244  15.646   6.256  11.149
 8416ETHO   H2165245  15.597   6.254  11.249
 8416ETHO   H2365246  15.628   6.157  11.103
 8417ETHO    O165247  15.584   6.355  11.068
 8417ETHO    C165248  15.454   6.328  11.030
 8417ETHO   H1165249  15.445   6.228  10.984
 8417ETHO   H1365250  15.389   6.331  11.120
 8417ETHO    C265251  15.388   6.433  10.936
 8417ETHO   H2165252  15.287   6.386  10.925
 8417ETHO   H2365253  15.446   6.443  10.842
 8418ETHO    O165254  15.369   6.550  11.008
 8418ETHO    C165255  15.307   6.656  10.925
 8418ETHO   H1165256  15.213   6.612  10.883
 8418ETHO   H1365257  15.378   6.680  10.843
 8418ETHO    C265258  15.269   6.776  11.011
 8418ETHO   H2165259  15.362   6.824  11.046
 8418ETHO   H2365260  15.211   6.728  11.093
 8419ETHO    O165261  15.192   6.870  10.941
 8419ETHO    C165262  15.143   6.963  11.041
 8419ETHO   H1165263  15.103   6.907  11.128
 8419ETHO   H1365264  15.225   7.030  11.075
 8419ETHO    C265265  15.039   7.055  10.968
 8419ETHO   H2165266  14.970   7.116  11.029
 8419ETHO   H2365267  14.964   6.981  10.933
 8420ETHO    O165268  15.086   7.127  10.846
 8420ETHO    C165269  14.987   7.212  10.789
 8420ETHO   H1165270  15.033   7.249  10.694
 8420ETHO   H1365271  14.971   7.301  10.853
 8420ETHO    C265272  14.857   7.144  10.742
 8420ETHO   H2165273  14.876   7.042  10.705
 8420ETHO   H2365274  14.816   7.197  10.652
 8421ETHO    O165275  14.756   7.130  10.841
 8421ETHO    C165276  14.675   7.241  10.834
 8421ETHO   H1165277  14.731   7.329  10.873
 8421ETHO   H1365278  14.628   7.258  10.735
 8421ETHO    C265279  14.554   7.216  10.933
 8421ETHO   H2165280  14.494   7.129  10.898
 8421ETHO   H2365281  14.599   7.183  11.029
 8422ETHO    O165282  14.459   7.324  10.943
 8422ETHO    C165283  14.507   7.438  11.013
 8422ETHO   H1165284  14.552   7.499  10.932
 8422ETHO   H1365285  14.568   7.400  11.098
 8422ETHO    C265286  14.390   7.508  11.085
 8422ETHO   H2165287  14.421   7.589  11.154
 8422ETHO   H2365288  14.337   7.422  11.132
 8423ETHO    O165289  14.294   7.563  10.994
 8423ETHO    C165290  14.330   7.689  10.935
 8423ETHO   H1165291  14.429   7.677  10.887
 8423ETHO   H1365292  14.258   7.714  10.854
 8423ETHO    C265293  14.344   7.820  11.032
 8423ETHO   H2165294  14.370   7.912  10.976
 8423ETHO   H2365295  14.423   7.804  11.108
 8424ETHO    O165296  14.225   7.851  11.104
 8424ETHO    C165297  14.228   7.986  11.157
 8424ETHO   H1165298  14.139   8.047  11.128
 8424ETHO   H1365299  14.327   8.034  11.138
 8424ETHO    C265300  14.207   7.996  11.315
 8424ETHO   H2165301  14.125   7.930  11.349
 8424ETHO   H2365302  14.176   8.102  11.329
 8425ETHO    O165303  14.323   7.968  11.396
 8425ETHO    C165304  14.351   7.828  11.409
 8425ETHO   H1165305  14.309   7.795  11.506
 8425ETHO   H1365306  14.302   7.765  11.332
 8425ETHO    C265307  14.504   7.797  11.422
 8425ETHO   H2165308  14.518   7.687  11.432
 8425ETHO   H2365309  14.546   7.861  11.502
 8426ETHO    O165310  14.569   7.819  11.300
 8426ETHO    C165311  14.701   7.767  11.298
 8426ETHO   H1165312  14.760   7.793  11.389
 8426ETHO   H1365313  14.703   7.656  11.301
 8426ETHO    C265314  14.778   7.804  11.166
 8426ETHO   H2165315  14.723   7.771  11.075
 8426ETHO   H2365316  14.874   7.751  11.179
 8427ETHO    O165317  14.809   7.947  11.164
 8427ETHO    C165318  14.718   8.024  11.084
 8427ETHO   H1165319  14.720   7.978  10.983
 8427ETHO   H1365320  14.622   8.027  11.139
 8427ETHO    C265321  14.762   8.169  11.083
 8427ETHO   H2165322  14.783   8.215  11.182
 8427ETHO   H2365323  14.670   8.221  11.047
 8428ETHO    O165324  14.874   8.196  10.997
 8428ETHO    C165325  14.911   8.339  10.982
 8428ETHO   H1165326  14.892   8.393  11.077
 8428ETHO   H1365327  15.021   8.342  10.964
 8428ETHO    C265328  14.818   8.412  10.883
 8428ETHO   H2165329  14.835   8.378  10.778
 8428ETHO   H2365330  14.866   8.512  10.892
 8429ETHO    O165331  14.685   8.415  10.918
 8429ETHO    C165332  14.620   8.522  10.858
 8429ETHO   H1165333  14.642   8.524  10.749
 8429ETHO   H1365334  14.655   8.622  10.891
 8429ETHO    C265335  14.471   8.505  10.858
 8429ETHO   H2165336  14.459   8.410  10.800
 8429ETHO   H2365337  14.421   8.580  10.793
 8430ETHO    O165338  14.408   8.502  10.986
 8430ETHO    C165339  14.270   8.511  10.977
 8430ETHO   H1165340  14.241   8.604  11.032
 8430ETHO   H1365341  14.234   8.532  10.874
 8430ETHO    C265342  14.190   8.385  11.023
 8430ETHO   H2165343  14.087   8.409  11.058
 8430ETHO   H2365344  14.236   8.332  11.110
 8431ETHO    O165345  14.169   8.292  10.910
 8431ETHO    C165346  14.043   8.304  10.852
 8431ETHO   H1165347  14.018   8.403  10.807
 8431ETHO   H1365348  13.968   8.300  10.934
 8431ETHO    C265349  14.031   8.180  10.758
 8431ETHO   H2165350  13.923   8.172  10.730
 8431ETHO   H2365351  14.060   8.091  10.818
 8432ETHO    O165352  14.097   8.186  10.629
 8432ETHO    C165353  14.098   8.068  10.557
 8432ETHO   H1165354  14.190   8.053  10.495
 8432ETHO   H1365355  14.095   7.984  10.631
 8432ETHO    C265356  13.980   8.046  10.466
 8432ETHO   H2165357  13.992   7.958  10.399
 8432ETHO   H2365358  13.977   8.131  10.394
 8433ETHO    O165359  13.867   8.017  10.547
 8433ETHO    C165360  13.744   8.073  10.491
 8433ETHO   H1165361  13.721   8.017  10.397
 8433ETHO   H1365362  13.755   8.179  10.462
 8433ETHO    C265363  13.617   8.051  10.573
 8433ETHO   H2165364  13.632   7.949  10.612
 8433ETHO   H2365365  13.527   8.054  10.508
 8434ETHO    O165366  13.608   8.146  10.677
 8434ETHO    C165367  13.517   8.111  10.781
 8434ETHO   H1165368  13.412   8.114  10.745
 8434ETHO   H1365369  13.525   8.004  10.811
 8434ETHO    C265370  13.532   8.197  10.901
 8434ETHO   H2165371  13.453   8.167  10.974
 8434ETHO   H2365372  13.517   8.304  10.875
 8435ETHO    O165373  13.660   8.177  10.961
 8435ETHO    C165374  13.700   8.290  11.050
 8435ETHO   H1165375  13.624   8.371  11.048
 8435ETHO   H1365376  13.798   8.322  11.009
 8435ETHO    C265377  13.714   8.249  11.195
 8435ETHO   H2165378  13.778   8.324  11.246
 8435ETHO   H2365379  13.776   8.158  11.210
 8436ETHO    O165380  13.595   8.243  11.272
 8436ETHO    C165381  13.616   8.228  11.414
 8436ETHO   H1165382  13.721   8.253  11.440
 8436ETHO   H1365383  13.549   8.295  11.473
 8436ETHO    C265384  13.613   8.079  11.469
 8436ETHO   H2165385  13.510   8.040  11.454
 8436ETHO   H2365386  13.621   8.086  11.580
 8437ETHO    O165387  13.722   7.995  11.423
 8437ETHO    C165388  13.699   7.855  11.451
 8437ETHO   H1165389  13.725   7.829  11.556
 8437ETHO   H1365390  13.593   7.833  11.424
 8437ETHO    C265391  13.775   7.779  11.341
 8437ETHO   H2165392  13.792   7.673  11.367
 8437ETHO   H2365393  13.878   7.821  11.333
 8438ETHO    O165394  13.717   7.789  11.209
 8438ETHO    C165395  13.750   7.907  11.139
 8438ETHO   H1165396  13.658   7.969  11.132
 8438ETHO   H1365397  13.827   7.977  11.178
 8438ETHO    C265398  13.788   7.870  10.998
 8438ETHO   H2165399  13.759   7.960  10.940
 8438ETHO   H2365400  13.721   7.794  10.953
 8439ETHO    O165401  13.929   7.854  10.988
 8439ETHO    C165402  13.973   7.841  10.858
 8439ETHO   H1165403  13.914   7.901  10.786
 8439ETHO   H1365404  14.078   7.878  10.862
 8439ETHO    C265405  13.960   7.698  10.816
 8439ETHO   H2165406  13.859   7.655  10.833
 8439ETHO   H2365407  14.031   7.653  10.889
 8440ETHO    O165408  14.001   7.677  10.683
 8440ETHO    C165409  13.887   7.654  10.595
 8440ETHO   H1165410  13.813   7.735  10.612
 8440ETHO   H1365411  13.833   7.558  10.613
 8440ETHO    C265412  13.935   7.645  10.447
 8440ETHO   H2165413  13.993   7.735  10.415
 8440ETHO   H2365414  13.842   7.655  10.389
 8441ETHO    O165415  13.992   7.522  10.408
 8441ETHO    C165416  14.063   7.540  10.284
 8441ETHO   H1165417  13.995   7.560  10.198
 8441ETHO   H1365418  14.128   7.629  10.297
 8441ETHO    C265419  14.151   7.419  10.247
 8441ETHO   H2165420  14.236   7.415  10.318
 8441ETHO   H2365421  14.199   7.440  10.149
 8442ETHO    O165422  14.096   7.281  10.247
 8442ETHO    C165423  13.966   7.269  10.181
 8442ETHO   H1165424  13.982   7.316  10.082
 8442ETHO   H1365425  13.885   7.320  10.238
 8442ETHO    C265426  13.921   7.125  10.163
 8442ETHO   H2165427  13.919   7.076  10.262
 8442ETHO   H2365428  13.987   7.069  10.092
 8443ETHO    O165429  13.794   7.120  10.100
 8443ETHO    C165430  13.752   6.984  10.079
 8443ETHO   H1165431  13.810   6.921  10.149
 8443ETHO   H1365432  13.644   6.980  10.105
 8443ETHO    C265433  13.762   6.949   9.928
 8443ETHO   H2165434  13.717   7.032   9.871
 8443ETHO   H2365435  13.700   6.858   9.914
 8444ETHO    O165436  13.891   6.905   9.894
 8444ETHO    C165437  13.966   7.002   9.822
 8444ETHO   H1165438  13.953   7.096   9.880
 8444ETHO   H1365439  13.923   7.011   9.720
 8444ETHO    C265440  14.113   6.980   9.836
 8444ETHO   H2165441  14.135   6.956   9.942
 8444ETHO   H2365442  14.167   7.076   9.824
 8445ETHO    O165443  14.156   6.874   9.745
 8445ETHO    C165444  14.282   6.841   9.774
 8445ETHO   H1165445  14.336   6.932   9.809
 8445ETHO   H1365446  14.289   6.763   9.853
 8445ETHO    C265447  14.344   6.776   9.650
 8445ETHO   H2165448  14.439   6.721   9.668
 8445ETHO   H2365449  14.379   6.866   9.596
 8446ETHO    O165450  14.261   6.677   9.589
 8446ETHO    C165451  14.303   6.643   9.454
 8446ETHO   H1165452  14.414   6.647   9.453
 8446ETHO   H1365453  14.268   6.723   9.386
 8446ETHO    C265454  14.254   6.508   9.389
 8446ETHO   H2165455  14.260   6.531   9.281
 8446ETHO   H2365456  14.148   6.483   9.411
 8447ETHO    O165457  14.328   6.396   9.432
 8447ETHO    C165458  14.284   6.280   9.375
 8447ETHO   H1165459  14.183   6.264   9.418
 8447ETHO   H1365460  14.287   6.301   9.265
 8447ETHO    C265461  14.354   6.153   9.395
 8447ETHO   H2165462  14.459   6.175   9.366
 8447ETHO   H2365463  14.302   6.081   9.329
 8448ETHO    O165464  14.353   6.108   9.533
 8448ETHO    C165465  14.434   5.994   9.545
 8448ETHO   H1165466  14.399   5.901   9.496
 8448ETHO   H1365467  14.532   6.021   9.500
 8448ETHO    C265468  14.469   5.960   9.691
 8448ETHO   H2165469  14.500   6.052   9.745
 8448ETHO   H2365470  14.561   5.899   9.682
 8449ETHO    O165471  14.374   5.885   9.764
 8449ETHO    C165472  14.431   5.814   9.874
 8449ETHO   H1165473  14.509   5.746   9.834
 8449ETHO   H1365474  14.478   5.892   9.938
 8449ETHO    C265475  14.319   5.735   9.945
 8449ETHO   H2165476  14.227   5.794   9.963
 8449ETHO   H2365477  14.366   5.700  10.040
 8450ETHO    O165478  14.281   5.625   9.856
 8450ETHO    C165479  14.145   5.582   9.893
 8450ETHO   H1165480  14.087   5.667   9.935
 8450ETHO   H1365481  14.105   5.534   9.801
 8450ETHO    C265482  14.138   5.475  10.009
 8450ETHO   H2165483  14.031   5.447  10.019
 8450ETHO   H2365484  14.177   5.525  10.100
 8451ETHO    O165485  14.223   5.363   9.977
 8451ETHO    C165486  14.242   5.280  10.092
 8451ETHO   H1165487  14.147   5.243  10.137
 8451ETHO   H1365488  14.296   5.337  10.170
 8451ETHO    C265489  14.337   5.165  10.056
 8451ETHO   H2165490  14.293   5.107   9.972
 8451ETHO   H2365491  14.330   5.098  10.144
 8452ETHO    O165492  14.474   5.195  10.040
 8452ETHO    C165493  14.553   5.070  10.032
 8452ETHO   H1165494  14.529   5.004  10.117
 8452ETHO   H1365495  14.510   5.014   9.946
 8452ETHO    C265496  14.701   5.100  10.020
 8452ETHO   H2165497  14.727   5.146  10.118
 8452ETHO   H2365498  14.730   5.173   9.942
 8453ETHO    O165499  14.779   4.982   9.997
 8453ETHO    C165500  14.912   5.022   9.952
 8453ETHO   H1165501  14.957   5.087  10.030
 8453ETHO   H1365502  14.901   5.088   9.863
 8453ETHO    C265503  15.003   4.904   9.922
 8453ETHO   H2165504  14.987   4.836  10.008
 8453ETHO   H2365505  15.112   4.921   9.925
 8454ETHO    O165506  14.980   4.848   9.794
 8454ETHO    C165507  15.038   4.717   9.774
 8454ETHO   H1165508  15.117   4.683   9.844
 8454ETHO   H1365509  14.954   4.648   9.796
 8454ETHO    C265510  15.084   4.693   9.630
 8454ETHO   H2165511  15.000   4.669   9.561
 8454ETHO   H2365512  15.136   4.782   9.589
 8455ETHO    O165513  15.183   4.592   9.628
 8455ETHO    C165514  15.220   4.566   9.490
 8455ETHO   H1165515  15.198   4.659   9.432
 8455ETHO   H1365516  15.151   4.489   9.451
 8455ETHO    C265517  15.366   4.516   9.494
 8455ETHO   H2165518  15.381   4.475   9.391
 8455ETHO   H2365519  15.375   4.436   9.570
 8456ETHO    O165520  15.457   4.614   9.531
 8456ETHO    C165521  15.521   4.670   9.412
 8456ETHO   H1165522  15.582   4.593   9.359
 8456ETHO   H1365523  15.447   4.710   9.339
 8456ETHO    C265524  15.620   4.778   9.455
 8456ETHO   H2165525  15.679   4.809   9.366
 8456ETHO   H2365526  15.698   4.743   9.526
 8457ETHO    O165527  15.559   4.901   9.507
 8457ETHO    C165528  15.648   5.003   9.537
 8457ETHO   H1165529  15.696   5.024   9.439
 8457ETHO   H1365530  15.717   4.969   9.618
 8457ETHO    C265531  15.554   5.115   9.586
 8457ETHO   H2165532  15.608   5.189   9.650
 8457ETHO   H2365533  15.466   5.071   9.638
 8458ETHO    O165534  15.502   5.180   9.470
 8458ETHO    C165535  15.400   5.106   9.399
 8458ETHO   H1165536  15.443   5.015   9.351
 8458ETHO   H1365537  15.317   5.077   9.467
 8458ETHO    C265538  15.348   5.201   9.286
 8458ETHO   H2165539  15.438   5.222   9.224
 8458ETHO   H2365540  15.316   5.295   9.335
 8459ETHO    O165541  15.256   5.133   9.201
 8459ETHO    C165542  15.133   5.100   9.264
 8459ETHO   H1165543  15.103   5.189   9.324
 8459ETHO   H1365544  15.141   5.014   9.333
 8459ETHO    C265545  15.040   5.056   9.150
 8459ETHO   H2165546  15.014   5.130   9.070
 8459ETHO   H2365547  14.955   5.057   9.222
 8460ETHO    O165548  15.074   4.929   9.097
 8460ETHO    C165549  14.963   4.840   9.090
 8460ETHO   H1165550  14.939   4.811   9.194
 8460ETHO   H1365551  14.875   4.893   9.047
 8460ETHO    C265552  14.997   4.723   9.000
 8460ETHO   H2165553  15.028   4.762   8.900
 8460ETHO   H2365554  14.904   4.670   8.970
 8461ETHO    O165555  15.061   4.611   9.054
 8461ETHO    C165556  15.188   4.649   9.096
 8461ETHO   H1165557  15.192   4.689   9.199
 8461ETHO   H1365558  15.235   4.730   9.035
 8461ETHO    C265559  15.284   4.528   9.091
 8461ETHO   H2165560  15.387   4.565   9.109
 8461ETHO   H2365561  15.279   4.493   8.986
 8462ETHO    O165562  15.258   4.435   9.194
 8462ETHO    C165563  15.211   4.314   9.153
 8462ETHO   H1165564  15.119   4.343   9.098
 8462ETHO   H1365565  15.272   4.264   9.075
 8462ETHO    C265566  15.182   4.216   9.272
 8462ETHO   H2165567  15.130   4.251   9.363
 8462ETHO   H2365568  15.118   4.137   9.226
 8463ETHO    O165569  15.309   4.166   9.314
 8463ETHO    C165570  15.301   4.047   9.396
 8463ETHO   H1165571  15.195   4.013   9.407
 8463ETHO   H1365572  15.345   3.971   9.328
 8463ETHO    C265573  15.392   4.041   9.524
 8463ETHO   H2165574  15.463   4.125   9.516
 8463ETHO   H2365575  15.451   3.948   9.541
 8464ETHO    O165576  15.315   4.061   9.642
 8464ETHO    C165577  15.406   4.045   9.749
 8464ETHO   H1165578  15.478   3.959   9.745
 8464ETHO   H1365579  15.464   4.139   9.735
 8464ETHO    C265580  15.331   4.054   9.883
 8464ETHO   H2165581  15.278   4.151   9.892
 8464ETHO   H2365582  15.413   4.053   9.957
 8465ETHO    O165583  15.239   3.947   9.907
 8465ETHO    C165584  15.298   3.844   9.979
 8465ETHO   H1165585  15.395   3.812   9.937
 8465ETHO   H1365586  15.324   3.872  10.084
 8465ETHO    C265587  15.221   3.712   9.972
 8465ETHO   H2165588  15.122   3.724  10.021
 8465ETHO   H2365589  15.268   3.638  10.041
 8466ETHO    O165590  15.218   3.669   9.836
 8466ETHO    C165591  15.180   3.535   9.825
 8466ETHO   H1165592  15.250   3.463   9.873
 8466ETHO   H1365593  15.187   3.505   9.718
 8466ETHO    C265594  15.033   3.502   9.876
 8466ETHO   H2165595  14.958   3.558   9.817
 8466ETHO   H2365596  15.032   3.519   9.986
 8467ETHO    O165597  15.020   3.361   9.847
 8467ETHO    C165598  14.890   3.314   9.878
 8467ETHO   H1165599  14.851   3.353   9.975
 8467ETHO   H1365600  14.831   3.372   9.803
 8467ETHO    C265601  14.875   3.161   9.872
 8467ETHO   H2165602  14.817   3.136   9.963
 8467ETHO   H2365603  14.976   3.119   9.890
 8468ETHO    O165604  14.842   3.106   9.744
 8468ETHO    C165605  14.846   2.959   9.740
 8468ETHO   H1165606  14.942   2.914   9.775
 8468ETHO   H1365607  14.835   2.939   9.631
 8468ETHO    C265608  14.720   2.891   9.797
 8468ETHO   H2165609  14.723   2.785   9.764
 8468ETHO   H2365610  14.628   2.941   9.762
 8469ETHO    O165611  14.730   2.896   9.938
 8469ETHO    C165612  14.618   2.841  10.005
 8469ETHO   H1165613  14.525   2.875   9.954
 8469ETHO   H1365614  14.634   2.731   9.996
 8469ETHO    C265615  14.611   2.868  10.155
 8469ETHO   H2165616  14.714   2.868  10.197
 8469ETHO   H2365617  14.568   2.782  10.211
 8470ETHO    O165618  14.548   2.990  10.198
 8470ETHO    C165619  14.403   2.974  10.194
 8470ETHO   H1165620  14.374   2.875  10.234
 8470ETHO   H1365621  14.381   2.998  10.088
 8470ETHO    C265622  14.335   3.085  10.272
 8470ETHO   H2165623  14.372   3.086  10.377
 8470ETHO   H2365624  14.227   3.064  10.261
 8471ETHO    O165625  14.357   3.212  10.197
 8471ETHO    C165626  14.316   3.327  10.273
 8471ETHO   H1165627  14.206   3.326  10.289
 8471ETHO   H1365628  14.370   3.339  10.369
 8471ETHO    C265629  14.360   3.447  10.190
 8471ETHO   H2165630  14.467   3.429  10.169
 8471ETHO   H2365631  14.349   3.545  10.242
 8472ETHO    O165632  14.279   3.448  10.076
 8472ETHO    C165633  14.297   3.566  10.007
 8472ETHO   H1165634  14.402   3.572   9.970
 8472ETHO   H1365635  14.279   3.652  10.075
 8472ETHO    C265636  14.217   3.574   9.873
 8472ETHO   H2165637  14.227   3.681   9.844
 8472ETHO   H2365638  14.106   3.570   9.884
 8473ETHO    O165639  14.269   3.495   9.767
 8473ETHO    C165640  14.211   3.517   9.636
 8473ETHO   H1165641  14.111   3.469   9.633
 8473ETHO   H1365642  14.205   3.626   9.617
 8473ETHO    C265643  14.285   3.450   9.520
 8473ETHO   H2165644  14.210   3.408   9.450
 8473ETHO   H2365645  14.338   3.363   9.566
 8474ETHO    O165646  14.379   3.534   9.450
 8474ETHO    C165647  14.472   3.463   9.372
 8474ETHO   H1165648  14.510   3.368   9.415
 8474ETHO   H1365649  14.413   3.428   9.284
 8474ETHO    C265650  14.586   3.553   9.310
 8474ETHO   H2165651  14.655   3.485   9.257
 8474ETHO   H2365652  14.645   3.615   9.381
 8475ETHO    O165653  14.537   3.633   9.201
 8475ETHO    C165654  14.646   3.698   9.136
 8475ETHO   H1165655  14.672   3.797   9.181
 8475ETHO   H1365656  14.735   3.635   9.157
 8475ETHO    C265657  14.630   3.719   8.989
 8475ETHO   H2165658  14.552   3.653   8.943
 8475ETHO   H2365659  14.729   3.697   8.944
 8476ETHO    O165660  14.584   3.855   8.945
 8476ETHO    C165661  14.565   3.864   8.809
 8476ETHO   H1165662  14.660   3.827   8.763
 8476ETHO   H1365663  14.488   3.788   8.785
 8476ETHO    C265664  14.525   4.000   8.753
 8476ETHO   H2165665  14.429   4.021   8.805
 8476ETHO   H2365666  14.519   3.990   8.642
 8477ETHO    O165667  14.633   4.093   8.781
 8477ETHO    C165668  14.593   4.185   8.885
 8477ETHO   H1165669  14.549   4.129   8.970
 8477ETHO   H1365670  14.512   4.248   8.841
 8477ETHO    C265671  14.710   4.268   8.944
 8477ETHO   H2165672  14.731   4.350   8.872
 8477ETHO   H2365673  14.797   4.200   8.961
 8478ETHO    O165674  14.671   4.327   9.071
 8478ETHO    C165675  14.772   4.416   9.113
 8478ETHO   H1165676  14.747   4.508   9.055
 8478ETHO   H1365677  14.873   4.392   9.075
 8478ETHO    C265678  14.764   4.462   9.258
 8478ETHO   H2165679  14.657   4.457   9.290
 8478ETHO   H2365680  14.783   4.571   9.258
 8479ETHO    O165681  14.851   4.392   9.339
 8479ETHO    C165682  14.805   4.402   9.476
 8479ETHO   H1165683  14.719   4.334   9.490
 8479ETHO   H1365684  14.788   4.508   9.503
 8479ETHO    C265685  14.914   4.354   9.573
 8479ETHO   H2165686  14.887   4.394   9.673
 8479ETHO   H2365687  15.013   4.388   9.535
 8480ETHO    O165688  14.913   4.206   9.572
 8480ETHO    C165689  15.019   4.160   9.656
 8480ETHO   H1165690  15.048   4.061   9.615
 8480ETHO   H1365691  15.110   4.223   9.647
 8480ETHO    C265692  14.976   4.146   9.798
 8480ETHO   H2165693  15.023   4.057   9.845
 8480ETHO   H2365694  14.869   4.115   9.794
 8480ETHO    OZ65695  15.004   4.260   9.877
 8480ETHO   HZ165696  14.996   4.238   9.970
 8481ETHO    O165697  14.634   6.099  15.499
 8481ETHO   HO165698  14.542   6.121  15.515
 8481ETHO    C165699  14.697   6.113  15.629
 8481ETHO   H1165700  14.692   6.214  15.676
 8481ETHO   H1365701  14.803   6.080  15.624
 8481ETHO    C265702  14.631   6.014  15.736
 8481ETHO   H2165703  14.698   6.032  15.822
 8481ETHO   H2365704  14.635   5.911  15.693
 8482ETHO    O165705  14.496   6.045  15.774
 8482ETHO    C165706  14.422   5.929  15.793
 8482ETHO   H1165707  14.488   5.851  15.836
 8482ETHO   H1365708  14.335   5.944  15.860
 8482ETHO    C265709  14.367   5.879  15.667
 8482ETHO   H2165710  14.303   5.789  15.675
 8482ETHO   H2365711  14.452   5.849  15.603
 8483ETHO    O165712  14.295   5.982  15.603
 8483ETHO    C165713  14.217   5.940  15.495
 8483ETHO   H1165714  14.130   5.881  15.531
 8483ETHO   H1365715  14.274   5.868  15.431
 8483ETHO    C265716  14.175   6.057  15.398
 8483ETHO   H2165717  14.143   6.025  15.297
 8483ETHO   H2365718  14.266   6.118  15.383
 8484ETHO    O165719  14.079   6.147  15.446
 8484ETHO    C165720  14.062   6.270  15.366
 8484ETHO   H1165721  14.050   6.355  15.437
 8484ETHO   H1365722  14.159   6.288  15.315
 8484ETHO    C265723  13.934   6.265  15.287
 8484ETHO   H2165724  13.854   6.251  15.362
 8484ETHO   H2365725  13.925   6.174  15.225
 8485ETHO    O165726  13.919   6.379  15.210
 8485ETHO    C165727  14.013   6.389  15.105
 8485ETHO   H1165728  14.107   6.432  15.145
 8485ETHO   H1365729  14.028   6.286  15.067
 8485ETHO    C265730  13.971   6.486  14.985
 8485ETHO   H2165731  14.049   6.512  14.911
 8485ETHO   H2365732  13.948   6.589  15.018
 8486ETHO    O165733  13.861   6.423  14.915
 8486ETHO    C165734  13.812   6.513  14.815
 8486ETHO   H1165735  13.776   6.608  14.861
 8486ETHO   H1365736  13.903   6.536  14.754
 8486ETHO    C265737  13.712   6.445  14.722
 8486ETHO   H2165738  13.749   6.346  14.686
 8486ETHO   H2365739  13.680   6.511  14.639
 8487ETHO    O165740  13.596   6.430  14.800
 8487ETHO    C165741  13.492   6.356  14.732
 8487ETHO   H1165742  13.455   6.427  14.655
 8487ETHO   H1365743  13.539   6.271  14.678
 8487ETHO    C265744  13.378   6.331  14.834
 8487ETHO   H2165745  13.429   6.280  14.918
 8487ETHO   H2365746  13.295   6.268  14.797
 8488ETHO    O165747  13.316   6.456  14.881
 8488ETHO    C165748  13.248   6.433  15.003
 8488ETHO   H1165749  13.315   6.401  15.086
 8488ETHO   H1365750  13.172   6.354  14.984
 8488ETHO    C265751  13.174   6.559  15.049
 8488ETHO   H2165752  13.103   6.527  15.128
 8488ETHO   H2365753  13.126   6.616  14.967
 8489ETHO    O165754  13.268   6.642  15.114
 8489ETHO    C165755  13.210   6.759  15.169
 8489ETHO   H1165756  13.115   6.786  15.119
 8489ETHO   H1365757  13.185   6.740  15.275
 8489ETHO    C265758  13.300   6.883  15.161
 8489ETHO   H2165759  13.234   6.969  15.184
 8489ETHO   H2365760  13.330   6.881  15.054
 8490ETHO    O165761  13.407   6.891  15.250
 8490ETHO    C165762  13.507   6.990  15.222
 8490ETHO   H1165763  13.458   7.082  15.185
 8490ETHO   H1365764  13.574   6.945  15.146
 8490ETHO    C265765  13.602   7.026  15.344
 8490ETHO   H2165766  13.531   7.065  15.421
 8490ETHO   H2365767  13.682   7.099  15.320
 8491ETHO    O165768  13.673   6.923  15.405
 8491ETHO    C165769  13.755   6.981  15.511
 8491ETHO   H1165770  13.834   7.043  15.463
 8491ETHO   H1365771  13.693   7.052  15.571
 8491ETHO    C265772  13.818   6.884  15.610
 8491ETHO   H2165773  13.743   6.836  15.677
 8491ETHO   H2365774  13.870   6.806  15.549
 8492ETHO    O165775  13.912   6.963  15.679
 8492ETHO    C165776  13.998   6.891  15.773
 8492ETHO   H1165777  14.094   6.884  15.717
 8492ETHO   H1365778  13.946   6.795  15.795
 8492ETHO    C265779  14.013   6.972  15.894
 8492ETHO   H2165780  14.037   6.901  15.975
 8492ETHO   H2365781  13.921   7.022  15.931
 8493ETHO    O165782  14.112   7.075  15.887
 8493ETHO    C165783  14.231   7.031  15.943
 8493ETHO   H1165784  14.208   7.016  16.051
 8493ETHO   H1365785  14.267   6.940  15.891
 8493ETHO    C265786  14.327   7.144  15.928
 8493ETHO   H2165787  14.328   7.172  15.821
 8493ETHO   H2365788  14.426   7.098  15.950
 8494ETHO    O165789  14.289   7.266  16.005
 8494ETHO    C165790  14.384   7.366  15.977
 8494ETHO   H1165791  14.381   7.392  15.869
 8494ETHO   H1365792  14.483   7.332  16.014
 8494ETHO    C265793  14.359   7.492  16.062
 8494ETHO   H2165794  14.457   7.532  16.097
 8494ETHO   H2365795  14.292   7.464  16.146
 8495ETHO    O165796  14.287   7.588  15.987
 8495ETHO    C165797  14.234   7.690  16.073
 8495ETHO   H1165798  14.145   7.660  16.132
 8495ETHO   H1365799  14.308   7.737  16.141
 8495ETHO    C265800  14.182   7.808  15.984
 8495ETHO   H2165801  14.133   7.783  15.887
 8495ETHO   H2365802  14.101   7.849  16.048
 8496ETHO    O165803  14.285   7.905  15.952
 8496ETHO    C165804  14.229   8.024  15.889
 8496ETHO   H1165805  14.156   7.994  15.810
 8496ETHO   H1365806  14.173   8.085  15.963
 8496ETHO    C265807  14.343   8.109  15.830
 8496ETHO   H2165808  14.387   8.054  15.744
 8496ETHO   H2365809  14.413   8.139  15.911
 8497ETHO    O165810  14.290   8.232  15.782
 8497ETHO    C165811  14.395   8.315  15.728
 8497ETHO   H1165812  14.494   8.265  15.721
 8497ETHO   H1365813  14.359   8.345  15.627
 8497ETHO    C265814  14.408   8.429  15.835
 8497ETHO   H2165815  14.309   8.478  15.842
 8497ETHO   H2365816  14.489   8.495  15.798
 8498ETHO    O165817  14.436   8.371  15.962
 8498ETHO    C165818  14.417   8.466  16.065
 8498ETHO   H1165819  14.470   8.559  16.034
 8498ETHO   H1365820  14.308   8.487  16.074
 8498ETHO    C265821  14.459   8.422  16.207
 8498ETHO   H2165822  14.487   8.503  16.277
 8498ETHO   H2365823  14.555   8.367  16.199
 8499ETHO    O165824  14.356   8.350  16.279
 8499ETHO    C165825  14.348   8.220  16.232
 8499ETHO   H1165826  14.452   8.181  16.239
 8499ETHO   H1365827  14.319   8.220  16.125
 8499ETHO    C265828  14.255   8.130  16.321
 8499ETHO   H2165829  14.273   8.152  16.428
 8499ETHO   H2365830  14.292   8.027  16.299
 8500ETHO    O165831  14.115   8.150  16.294
 8500ETHO    C165832  14.045   8.034  16.317
 8500ETHO   H1165833  14.098   7.949  16.270
 8500ETHO   H1365834  14.035   8.031  16.428
 8500ETHO    C265835  13.897   8.030  16.264
 8500ETHO   H2165836  13.849   8.130  16.262
 8500ETHO   H2365837  13.834   7.965  16.329
 8501ETHO    O165838  13.904   7.976  16.135
 8501ETHO    C165839  13.788   7.972  16.060
 8501ETHO   H1165840  13.745   8.074  16.052
 8501ETHO   H1365841  13.707   7.917  16.113
 8501ETHO    C265842  13.816   7.899  15.923
 8501ETHO   H2165843  13.903   7.931  15.861
 8501ETHO   H2365844  13.726   7.940  15.873
 8502ETHO    O165845  13.815   7.756  15.948
 8502ETHO    C165846  13.829   7.680  15.833
 8502ETHO   H1165847  13.931   7.706  15.797
 8502ETHO   H1365848  13.834   7.571  15.849
 8502ETHO    C265849  13.717   7.710  15.725
 8502ETHO   H2165850  13.703   7.819  15.705
 8502ETHO   H2365851  13.747   7.650  15.637
 8503ETHO    O165852  13.599   7.648  15.764
 8503ETHO    C165853  13.496   7.682  15.674
 8503ETHO   H1165854  13.535   7.671  15.571
 8503ETHO   H1365855  13.461   7.787  15.683
 8503ETHO    C265856  13.378   7.583  15.676
 8503ETHO   H2165857  13.348   7.561  15.781
 8503ETHO   H2365858  13.406   7.484  15.635
 8504ETHO    O165859  13.263   7.630  15.603
 8504ETHO    C165860  13.156   7.539  15.617
 8504ETHO   H1165861  13.113   7.549  15.516
 8504ETHO   H1365862  13.203   7.438  15.626
 8504ETHO    C265863  13.049   7.565  15.726
 8504ETHO   H2165864  12.971   7.486  15.723
 8504ETHO   H2365865  13.012   7.668  15.712
 8505ETHO    O165866  13.108   7.567  15.853
 8505ETHO    C165867  13.009   7.579  15.960
 8505ETHO   H1165868  12.926   7.505  15.958
 8505ETHO   H1365869  12.953   7.671  15.935
 8505ETHO    C265870  13.062   7.606  16.100
 8505ETHO   H2165871  12.985   7.666  16.152
 8505ETHO   H2365872  13.147   7.676  16.082
 8506ETHO    O165873  13.092   7.488  16.170
 8506ETHO    C165874  13.133   7.520  16.300
 8506ETHO   H1165875  13.215   7.590  16.276
 8506ETHO   H1365876  13.055   7.570  16.361
 8506ETHO    C265877  13.195   7.407  16.378
 8506ETHO   H2165878  13.114   7.344  16.420
 8506ETHO   H2365879  13.251   7.449  16.464
 8507ETHO    O165880  13.285   7.323  16.298
 8507ETHO    C165881  13.380   7.260  16.379
 8507ETHO   H1165882  13.323   7.181  16.432
 8507ETHO   H1365883  13.432   7.339  16.438
 8507ETHO    C265884  13.496   7.182  16.302
 8507ETHO   H2165885  13.438   7.127  16.225
 8507ETHO   H2365886  13.552   7.105  16.360
 8508ETHO    O165887  13.585   7.278  16.239
 8508ETHO    C165888  13.676   7.208  16.161
 8508ETHO   H1165889  13.683   7.098  16.170
 8508ETHO   H1365890  13.640   7.221  16.056
 8508ETHO    C265891  13.821   7.257  16.164
 8508ETHO   H2165892  13.820   7.367  16.182
 8508ETHO   H2365893  13.889   7.229  16.081
 8509ETHO    O165894  13.880   7.207  16.282
 8509ETHO    C165895  14.016   7.180  16.277
 8509ETHO   H1165896  14.068   7.268  16.232
 8509ETHO   H1365897  14.038   7.093  16.211
 8509ETHO    C265898  14.079   7.154  16.416
 8509ETHO   H2165899  14.052   7.240  16.480
 8509ETHO   H2365900  14.186   7.178  16.401
 8510ETHO    O165901  14.056   7.025  16.473
 8510ETHO    C165902  13.919   7.015  16.516
 8510ETHO   H1165903  13.898   7.111  16.567
 8510ETHO   H1365904  13.866   7.016  16.418
 8510ETHO    C265905  13.884   6.886  16.589
 8510ETHO   H2165906  13.790   6.895  16.647
 8510ETHO   H2365907  13.971   6.865  16.655
 8511ETHO    O165908  13.875   6.775  16.496
 8511ETHO    C165909  13.866   6.657  16.565
 8511ETHO   H1165910  13.955   6.626  16.624
 8511ETHO   H1365911  13.793   6.685  16.643
 8511ETHO    C265912  13.815   6.530  16.484
 8511ETHO   H2165913  13.856   6.439  16.532
 8511ETHO   H2365914  13.863   6.541  16.384
 8512ETHO    O165915  13.673   6.522  16.469
 8512ETHO    C165916  13.643   6.409  16.388
 8512ETHO   H1165917  13.678   6.430  16.284
 8512ETHO   H1365918  13.708   6.323  16.415
 8512ETHO    C265919  13.490   6.390  16.383
 8512ETHO   H2165920  13.460   6.308  16.313
 8512ETHO   H2365921  13.439   6.481  16.343
 8513ETHO    O165922  13.439   6.376  16.512
 8513ETHO    C165923  13.319   6.303  16.509
 8513ETHO   H1165924  13.249   6.334  16.429
 8513ETHO   H1365925  13.334   6.194  16.491
 8513ETHO    C265926  13.240   6.301  16.647
 8513ETHO   H2165927  13.145   6.245  16.642
 8513ETHO   H2365928  13.232   6.409  16.673
 8514ETHO    O165929  13.316   6.236  16.750
 8514ETHO    C165930  13.234   6.202  16.855
 8514ETHO   H1165931  13.157   6.128  16.823
 8514ETHO   H1365932  13.192   6.300  16.887
 8514ETHO    C265933  13.309   6.148  16.978
 8514ETHO   H2165934  13.247   6.162  17.070
 8514ETHO   H2365935  13.395   6.213  17.004
 8515ETHO    O165936  13.360   6.010  16.962
 8515ETHO    C165937  13.484   6.005  16.895
 8515ETHO   H1165938  13.499   5.897  16.874
 8515ETHO   H1365939  13.487   6.050  16.794
 8515ETHO    C265940  13.598   6.043  16.989
 8515ETHO   H2165941  13.565   6.007  17.089
 8515ETHO   H2365942  13.605   6.154  16.985
 8516ETHO    O165943  13.720   5.985  16.944
 8516ETHO    C165944  13.825   5.987  17.046
 8516ETHO   H1165945  13.860   6.090  17.066
 8516ETHO   H1365946  13.905   5.926  16.999
 8516ETHO    C265947  13.797   5.925  17.179
 8516ETHO   H2165948  13.730   5.980  17.247
 8516ETHO   H2365949  13.898   5.919  17.225
 8517ETHO    O165950  13.760   5.788  17.175
 8517ETHO    C165951  13.710   5.743  17.299
 8517ETHO   H1165952  13.763   5.800  17.378
 8517ETHO   H1365953  13.603   5.773  17.308
 8517ETHO    C265954  13.727   5.594  17.321
 8517ETHO   H2165955  13.661   5.529  17.260
 8517ETHO   H2365956  13.702   5.568  17.426
 8518ETHO    O165957  13.864   5.567  17.304
 8518ETHO    C165958  13.884   5.430  17.341
 8518ETHO   H1165959  13.815   5.361  17.289
 8518ETHO   H1365960  13.859   5.419  17.449
 8518ETHO    C265961  14.032   5.386  17.321
 8518ETHO   H2165962  14.035   5.293  17.382
 8518ETHO   H2365963  14.094   5.463  17.370
 8519ETHO    O165964  14.070   5.362  17.185
 8519ETHO    C165965  14.213   5.351  17.164
 8519ETHO   H1165966  14.261   5.448  17.189
 8519ETHO   H1365967  14.250   5.278  17.239
 8519ETHO    C265968  14.245   5.310  17.017
 8519ETHO   H2165969  14.355   5.309  17.001
 8519ETHO   H2365970  14.196   5.377  16.943
 8520ETHO    O165971  14.194   5.183  16.990
 8520ETHO    C165972  14.177   5.162  16.851
 8520ETHO   H1165973  14.275   5.176  16.799
 8520ETHO   H1365974  14.095   5.226  16.813
 8520ETHO    C265975  14.140   5.016  16.821
 8520ETHO   H2165976  14.213   4.949  16.871
 8520ETHO   H2365977  14.153   4.992  16.714
 8521ETHO    O165978  14.011   4.960  16.859
 8521ETHO    C165979  13.899   4.996  16.780
 8521ETHO   H1165980  13.812   4.996  16.849
 8521ETHO   H1365981  13.917   5.101  16.750
 8521ETHO    C265982  13.859   4.903  16.669
 8521ETHO   H2165983  13.810   4.809  16.700
 8521ETHO   H2365984  13.950   4.882  16.609
 8522ETHO    O165985  13.777   4.963  16.569
 8522ETHO    C165986  13.759   4.873  16.457
 8522ETHO   H1165987  13.857   4.855  16.408
 8522ETHO   H1365988  13.744   4.769  16.494
 8522ETHO    C265989  13.647   4.916  16.368
 8522ETHO   H2165990  13.559   4.927  16.435
 8522ETHO   H2365991  13.633   4.838  16.290
 8523ETHO    O165992  13.685   5.045  16.303
 8523ETHO    C165993  13.575   5.095  16.230
 8523ETHO   H1165994  13.527   5.010  16.177
 8523ETHO   H1365995  13.501   5.144  16.297
 8523ETHO    C265996  13.619   5.189  16.114
 8523ETHO   H2165997  13.680   5.274  16.153
 8523ETHO   H2365998  13.519   5.223  16.082
 8524ETHO    O165999  13.699   5.130  16.010
 8524ETHO    C166000  13.675   5.199  15.887
 8524ETHO   H1166001  13.570   5.223  15.860
 8524ETHO   H1366002  13.740   5.288  15.898
 8524ETHO    C266003  13.739   5.126  15.771
 8524ETHO   H2166004  13.840   5.087  15.792
 8524ETHO   H2366005  13.749   5.207  15.695
 8525ETHO    O166006  13.650   5.028  15.714
 8525ETHO    C166007  13.692   4.899  15.747
 8525ETHO   H1166008  13.601   4.835  15.736
 8525ETHO   H1366009  13.730   4.888  15.851
 8525ETHO    C266010  13.798   4.851  15.650
 8525ETHO   H2166011  13.841   4.749  15.665
 8525ETHO   H2366012  13.884   4.916  15.674
 8526ETHO    O166013  13.757   4.859  15.509
 8526ETHO    C166014  13.773   4.987  15.465
 8526ETHO   H1166015  13.683   5.048  15.489
 8526ETHO   H1366016  13.856   5.045  15.511
 8526ETHO    C266017  13.790   4.979  15.316
 8526ETHO   H2166018  13.760   5.078  15.274
 8526ETHO   H2366019  13.718   4.910  15.267
 8527ETHO    O166020  13.927   4.958  15.290
 8527ETHO    C166021  13.959   4.952  15.149
 8527ETHO   H1166022  14.069   4.959  15.141
 8527ETHO   H1366023  13.922   5.047  15.104
 8527ETHO    C266024  13.914   4.829  15.068
 8527ETHO   H2166025  13.954   4.749  15.133
 8527ETHO   H2366026  13.962   4.822  14.968
 8528ETHO    O166027  13.772   4.815  15.059
 8528ETHO    C166028  13.725   4.714  14.972
 8528ETHO   H1166029  13.768   4.715  14.870
 8528ETHO   H1366030  13.744   4.615  15.019
 8528ETHO    C266031  13.571   4.726  14.941
 8528ETHO   H2166032  13.556   4.802  14.861
 8528ETHO   H2366033  13.524   4.632  14.903
 8529ETHO    O166034  13.497   4.753  15.059
 8529ETHO    C166035  13.384   4.827  15.028
 8529ETHO   H1166036  13.313   4.764  14.971
 8529ETHO   H1366037  13.407   4.927  14.985
 8529ETHO    C266038  13.301   4.851  15.161
 8529ETHO   H2166039  13.242   4.759  15.183
 8529ETHO   H2366040  13.219   4.925  15.149
 8530ETHO    O166041  13.389   4.895  15.266
 8530ETHO    C166042  13.319   4.895  15.391
 8530ETHO   H1166043  13.264   4.799  15.400
 8530ETHO   H1366044  13.385   4.897  15.480
 8530ETHO    C266045  13.225   5.019  15.417
 8530ETHO   H2166046  13.172   4.991  15.510
 8530ETHO   H2366047  13.150   5.015  15.336
 8531ETHO    O166048  13.289   5.143  15.437
 8531ETHO    C166049  13.351   5.161  15.567
 8531ETHO   H1166050  13.451   5.114  15.566
 8531ETHO   H1366051  13.286   5.114  15.644
 8531ETHO    C266052  13.377   5.307  15.598
 8531ETHO   H2166053  13.300   5.379  15.563
 8531ETHO   H2366054  13.482   5.327  15.567
 8532ETHO    O166055  13.384   5.327  15.739
 8532ETHO    C166056  13.348   5.459  15.769
 8532ETHO   H1166057  13.372   5.527  15.685
 8532ETHO   H1366058  13.240   5.462  15.792
 8532ETHO    C266059  13.398   5.486  15.910
 8532ETHO   H2166060  13.366   5.408  15.983
 8532ETHO   H2366061  13.345   5.575  15.950
 8533ETHO    O166062  13.537   5.505  15.923
 8533ETHO    C166063  13.558   5.545  16.054
 8533ETHO   H1166064  13.481   5.622  16.077
 8533ETHO   H1366065  13.536   5.466  16.130
 8533ETHO    C266066  13.696   5.606  16.088
 8533ETHO   H2166067  13.707   5.617  16.198
 8533ETHO   H2366068  13.711   5.708  16.046
 8534ETHO    O166069  13.800   5.514  16.059
 8534ETHO    C166070  13.916   5.535  16.148
 8534ETHO   H1166071  13.930   5.641  16.180
 8534ETHO   H1366072  13.920   5.468  16.237
 8534ETHO    C266073  14.041   5.510  16.068
 8534ETHO   H2166074  14.029   5.418  16.007
 8534ETHO   H2366075  14.124   5.473  16.132
 8535ETHO    O166076  14.071   5.626  15.999
 8535ETHO    C166077  14.020   5.619  15.870
 8535ETHO   H1166078  14.076   5.539  15.819
 8535ETHO   H1366079  13.914   5.584  15.869
 8535ETHO    C266080  14.026   5.758  15.798
 8535ETHO   H2166081  14.131   5.794  15.810
 8535ETHO   H2366082  14.000   5.744  15.691
 8536ETHO    O166083  13.934   5.858  15.848
 8536ETHO    C166084  13.946   5.978  15.766
 8536ETHO   H1166085  13.939   5.951  15.659
 8536ETHO   H1366086  14.054   6.004  15.776
 8536ETHO    C266087  13.841   6.084  15.790
 8536ETHO   H2166088  13.876   6.182  15.752
 8536ETHO   H2366089  13.813   6.099  15.896
 8537ETHO    O166090  13.717   6.060  15.735
 8537ETHO    C166091  13.708   6.126  15.607
 8537ETHO   H1166092  13.708   6.235  15.629
 8537ETHO   H1366093  13.796   6.092  15.547
 8537ETHO    C266094  13.579   6.083  15.548
 8537ETHO   H2166095  13.555   6.150  15.462
 8537ETHO   H2366096  13.492   6.080  15.618
 8538ETHO    O166097  13.567   5.960  15.478
 8538ETHO    C166098  13.654   5.940  15.371
 8538ETHO   H1166099  13.758   5.944  15.408
 8538ETHO   H1366100  13.637   6.021  15.296
 8538ETHO    C266101  13.617   5.812  15.295
 8538ETHO   H2166102  13.659   5.726  15.353
 8538ETHO   H2366103  13.672   5.822  15.199
 8539ETHO    O166104  13.479   5.804  15.271
 8539ETHO    C166105  13.442   5.676  15.215
 8539ETHO   H1166106  13.342   5.682  15.167
 8539ETHO   H1366107  13.520   5.652  15.140
 8539ETHO    C266108  13.434   5.578  15.331
 8539ETHO   H2166109  13.509   5.597  15.411
 8539ETHO   H2366110  13.463   5.480  15.289
 8540ETHO    O166111  13.312   5.577  15.405
 8540ETHO    C166112  13.217   5.483  15.350
 8540ETHO   H1166113  13.238   5.375  15.365
 8540ETHO   H1366114  13.224   5.509  15.242
 8540ETHO    C266115  13.073   5.522  15.394
 8540ETHO   H2166116  13.071   5.485  15.499
 8540ETHO   H2366117  12.994   5.461  15.345
 8541ETHO    O166118  13.043   5.659  15.381
 8541ETHO    C166119  12.955   5.704  15.484
 8541ETHO   H1166120  12.870   5.633  15.483
 8541ETHO   H1366121  13.009   5.696  15.581
 8541ETHO    C266122  12.908   5.848  15.458
 8541ETHO   H2166123  12.999   5.907  15.434
 8541ETHO   H2366124  12.864   5.879  15.556
 8542ETHO    O166125  12.812   5.854  15.354
 8542ETHO    C166126  12.678   5.879  15.392
 8542ETHO   H1166127  12.623   5.894  15.297
 8542ETHO   H1366128  12.680   5.980  15.439
 8542ETHO    C266129  12.604   5.774  15.483
 8542ETHO   H2166130  12.630   5.675  15.440
 8542ETHO   H2366131  12.496   5.794  15.498
 8543ETHO    O166132  12.666   5.765  15.617
 8543ETHO    C166133  12.592   5.672  15.698
 8543ETHO   H1166134  12.608   5.710  15.801
 8543ETHO   H1366135  12.484   5.678  15.670
 8543ETHO    C266136  12.656   5.538  15.694
 8543ETHO   H2166137  12.756   5.546  15.743
 8543ETHO   H2366138  12.652   5.510  15.586
 8544ETHO    O166139  12.575   5.453  15.771
 8544ETHO    C166140  12.594   5.312  15.747
 8544ETHO   H1166141  12.693   5.275  15.779
 8544ETHO   H1366142  12.594   5.300  15.636
 8544ETHO    C266143  12.491   5.218  15.815
 8544ETHO   H2166144  12.479   5.256  15.919
 8544ETHO   H2366145  12.543   5.120  15.820
 8545ETHO    O166146  12.377   5.205  15.733
 8545ETHO    C166147  12.268   5.298  15.767
 8545ETHO   H1166148  12.306   5.395  15.806
 8545ETHO   H1366149  12.201   5.319  15.681
 8545ETHO    C266150  12.175   5.241  15.866
 8545ETHO   H2166151  12.104   5.318  15.904
 8545ETHO   H2366152  12.238   5.195  15.945
 8546ETHO    O166153  12.104   5.142  15.796
 8546ETHO    C166154  11.976   5.106  15.839
 8546ETHO   H1166155  11.976   5.114  15.950
 8546ETHO   H1366156  11.961   4.998  15.817
 8546ETHO    C266157  11.860   5.207  15.793
 8546ETHO   H2166158  11.892   5.307  15.829
 8546ETHO   H2366159  11.767   5.177  15.845
 8547ETHO    O166160  11.837   5.199  15.642
 8547ETHO    C166161  11.714   5.260  15.604
 8547ETHO   H1166162  11.728   5.277  15.495
 8547ETHO   H1366163  11.643   5.179  15.632
 8547ETHO    C266164  11.674   5.384  15.683
 8547ETHO   H2166165  11.643   5.348  15.783
 8547ETHO   H2366166  11.582   5.423  15.634
 8548ETHO    O166167  11.769   5.487  15.673
 8548ETHO    C166168  11.723   5.598  15.752
 8548ETHO   H1166169  11.627   5.641  15.714
 8548ETHO   H1366170  11.679   5.564  15.848
 8548ETHO    C266171  11.834   5.703  15.772
 8548ETHO   H2166172  11.805   5.786  15.839
 8548ETHO   H2366173  11.863   5.748  15.674
 8549ETHO    O166174  11.951   5.639  15.826
 8549ETHO    C166175  12.061   5.727  15.814
 8549ETHO   H1166176  12.086   5.757  15.710
 8549ETHO   H1366177  12.032   5.825  15.857
 8549ETHO    C266178  12.189   5.671  15.870
 8549ETHO   H2166179  12.276   5.720  15.820
 8549ETHO   H2366180  12.188   5.562  15.848
 8550ETHO    O166181  12.211   5.675  16.013
 8550ETHO    C166182  12.317   5.590  16.050
 8550ETHO   H1166183  12.283   5.484  16.038
 8550ETHO   H1366184  12.408   5.596  15.987
 8550ETHO    C266185  12.353   5.599  16.199
 8550ETHO   H2166186  12.415   5.508  16.215
 8550ETHO   H2366187  12.262   5.597  16.263
 8551ETHO    O166188  12.436   5.722  16.211
 8551ETHO    C166189  12.464   5.753  16.344
 8551ETHO   H1166190  12.503   5.655  16.380
 8551ETHO   H1366191  12.376   5.787  16.401
 8551ETHO    C266192  12.578   5.846  16.361
 8551ETHO   H2166193  12.671   5.810  16.313
 8551ETHO   H2366194  12.601   5.862  16.469
 8552ETHO    O166195  12.538   5.968  16.307
 8552ETHO    C166196  12.643   6.067  16.284
 8552ETHO   H1166197  12.711   6.022  16.209
 8552ETHO   H1366198  12.599   6.148  16.221
 8552ETHO    C266199  12.698   6.125  16.412
 8552ETHO   H2166200  12.616   6.173  16.469
 8552ETHO   H2366201  12.764   6.212  16.388
 8553ETHO    O166202  12.781   6.037  16.484
 8553ETHO    C166203  12.828   6.089  16.614
 8553ETHO   H1166204  12.734   6.123  16.664
 8553ETHO   H1366205  12.881   6.186  16.602
 8553ETHO    C266206  12.896   5.981  16.701
 8553ETHO   H2166207  12.997   5.946  16.670
 8553ETHO   H2366208  12.833   5.890  16.710
 8554ETHO    O166209  12.906   6.041  16.828
 8554ETHO    C166210  12.941   5.948  16.923
 8554ETHO   H1166211  12.872   5.861  16.926
 8554ETHO   H1366212  13.040   5.901  16.903
 8554ETHO    C266213  12.946   6.022  17.063
 8554ETHO   H2166214  12.970   6.129  17.047
 8554ETHO   H2366215  13.018   5.967  17.127
 8555ETHO    O166216  12.819   6.019  17.128
 8555ETHO    C166217  12.827   6.057  17.267
 8555ETHO   H1166218  12.880   6.154  17.278
 8555ETHO   H1366219  12.883   5.975  17.316
 8555ETHO    C266220  12.689   6.070  17.347
 8555ETHO   H2166221  12.719   6.094  17.451
 8555ETHO   H2366222  12.633   5.974  17.337
 8556ETHO    O166223  12.610   6.174  17.298
 8556ETHO    C166224  12.494   6.187  17.380
 8556ETHO   H1166225  12.448   6.086  17.374
 8556ETHO   H1366226  12.519   6.205  17.487
 8556ETHO    C266227  12.403   6.294  17.334
 8556ETHO   H2166228  12.458   6.389  17.315
 8556ETHO   H2366229  12.330   6.311  17.416
 8557ETHO    O166230  12.332   6.263  17.209
 8557ETHO    C166231  12.191   6.231  17.232
 8557ETHO   H1166232  12.136   6.225  17.136
 8557ETHO   H1366233  12.137   6.312  17.285
 8557ETHO    C266234  12.156   6.099  17.303
 8557ETHO   H2166235  12.046   6.088  17.312
 8557ETHO   H2366236  12.194   6.108  17.407
 8558ETHO    O166237  12.203   5.986  17.237
 8558ETHO    C166238  12.159   5.868  17.299
 8558ETHO   H1166239  12.210   5.861  17.397
 8558ETHO   H1366240  12.050   5.858  17.321
 8558ETHO    C266241  12.219   5.744  17.222
 8558ETHO   H2166242  12.222   5.656  17.290
 8558ETHO   H2366243  12.325   5.767  17.196
 8559ETHO    O166244  12.156   5.714  17.096
 8559ETHO    C166245  12.233   5.625  17.019
 8559ETHO   H1166246  12.334   5.665  16.996
 8559ETHO   H1366247  12.234   5.523  17.063
 8559ETHO    C266248  12.158   5.616  16.887
 8559ETHO   H2166249  12.053   5.584  16.903
 8559ETHO   H2366250  12.204   5.542  16.818
 8560ETHO    O166251  12.170   5.744  16.815
 8560ETHO    C166252  12.135   5.722  16.679
 8560ETHO   H1166253  12.214   5.664  16.626
 8560ETHO   H1366254  12.040   5.666  16.672
 8560ETHO    C266255  12.120   5.865  16.621
 8560ETHO   H2166256  12.038   5.920  16.671
 8560ETHO   H2366257  12.089   5.842  16.517
 8561ETHO    O166258  12.236   5.949  16.613
 8561ETHO    C166259  12.208   6.069  16.543
 8561ETHO   H1166260  12.192   6.024  16.443
 8561ETHO   H1366261  12.112   6.107  16.583
 8561ETHO    C266262  12.323   6.168  16.554
 8561ETHO   H2166263  12.416   6.124  16.512
 8561ETHO   H2366264  12.299   6.250  16.484
 8562ETHO    O166265  12.346   6.214  16.686
 8562ETHO    C166266  12.239   6.289  16.745
 8562ETHO   H1166267  12.156   6.217  16.762
 8562ETHO   H1366268  12.200   6.368  16.676
 8562ETHO    C266269  12.274   6.358  16.882
 8562ETHO   H2166270  12.341   6.290  16.939
 8562ETHO   H2366271  12.178   6.380  16.933
 8563ETHO    O166272  12.342   6.480  16.853
 8563ETHO    C166273  12.383   6.528  16.976
 8563ETHO   H1166274  12.295   6.539  17.044
 8563ETHO   H1366275  12.453   6.453  17.020
 8563ETHO    C266276  12.466   6.658  16.982
 8563ETHO   H2166277  12.485   6.689  17.087
 8563ETHO   H2366278  12.406   6.739  16.936
 8564ETHO    O166279  12.590   6.654  16.904
 8564ETHO    C166280  12.673   6.776  16.913
 8564ETHO   H1166281  12.746   6.771  16.996
 8564ETHO   H1366282  12.602   6.861  16.920
 8564ETHO    C266283  12.765   6.769  16.790
 8564ETHO   H2166284  12.834   6.682  16.793
 8564ETHO   H2366285  12.822   6.864  16.802
 8565ETHO    O166286  12.699   6.784  16.663
 8565ETHO    C166287  12.799   6.782  16.559
 8565ETHO   H1166288  12.866   6.694  16.562
 8565ETHO   H1366289  12.759   6.771  16.456
 8565ETHO    C266290  12.890   6.909  16.552
 8565ETHO   H2166291  12.947   6.934  16.644
 8565ETHO   H2366292  12.815   6.990  16.535
 8566ETHO    O166293  12.968   6.898  16.437
 8566ETHO    C166294  13.028   7.023  16.397
 8566ETHO   H1166295  13.079   7.076  16.481
 8566ETHO   H1366296  12.955   7.099  16.361
 8566ETHO    C266297  13.133   6.983  16.289
 8566ETHO   H2166298  13.195   6.898  16.324
 8566ETHO   H2366299  13.205   7.066  16.273
 8567ETHO    O166300  13.076   6.963  16.164
 8567ETHO    C166301  13.179   6.923  16.071
 8567ETHO   H1166302  13.248   7.010  16.066
 8567ETHO   H1366303  13.236   6.832  16.103
 8567ETHO    C266304  13.111   6.892  15.935
 8567ETHO   H2166305  13.185   6.858  15.859
 8567ETHO   H2366306  13.059   6.980  15.893
 8568ETHO    O166307  13.010   6.797  15.930
 8568ETHO    C166308  12.961   6.765  15.799
 8568ETHO   H1166309  12.898   6.673  15.812
 8568ETHO   H1366310  13.045   6.740  15.731
 8568ETHO    C266311  12.870   6.870  15.728
 8568ETHO   H2166312  12.849   6.819  15.632
 8568ETHO   H2366313  12.932   6.958  15.702
 8569ETHO    O166314  12.742   6.906  15.787
 8569ETHO    C166315  12.640   6.817  15.767
 8569ETHO   H1166316  12.612   6.795  15.662
 8569ETHO   H1366317  12.675   6.722  15.811
 8569ETHO    C266318  12.508   6.861  15.832
 8569ETHO   H2166319  12.533   6.945  15.901
 8569ETHO   H2366320  12.457   6.781  15.890
 8570ETHO    O166321  12.419   6.904  15.733
 8570ETHO    C166322  12.304   6.969  15.778
 8570ETHO   H1166323  12.227   6.893  15.805
 8570ETHO   H1366324  12.317   7.022  15.874
 8570ETHO    C266325  12.245   7.063  15.668
 8570ETHO   H2166326  12.326   7.121  15.619
 8570ETHO   H2366327  12.180   7.137  15.718
 8571ETHO    O166328  12.179   6.988  15.571
 8571ETHO    C166329  12.173   7.063  15.457
 8571ETHO   H1166330  12.158   7.171  15.478
 8571ETHO   H1366331  12.272   7.049  15.408
 8571ETHO    C266332  12.055   7.024  15.364
 8571ETHO   H2166333  12.040   7.086  15.272
 8571ETHO   H2366334  11.971   7.032  15.436
 8572ETHO    O166335  12.082   6.892  15.324
 8572ETHO    C166336  11.977   6.833  15.248
 8572ETHO   H1166337  12.014   6.729  15.234
 8572ETHO   H1366338  11.884   6.832  15.309
 8572ETHO    C266339  11.939   6.879  15.106
 8572ETHO   H2166340  11.931   6.990  15.111
 8572ETHO   H2366341  11.846   6.838  15.062
 8573ETHO    O166342  12.038   6.874  15.004
 8573ETHO    C166343  11.994   6.879  14.877
 8573ETHO   H1166344  11.959   6.977  14.839
 8573ETHO   H1366345  11.914   6.807  14.852
 8573ETHO    C266346  12.112   6.834  14.786
 8573ETHO   H2166347  12.071   6.805  14.687
 8573ETHO   H2366348  12.172   6.746  14.819
 8574ETHO    O166349  12.193   6.949  14.765
 8574ETHO    C166350  12.303   6.938  14.680
 8574ETHO   H1166351  12.382   7.010  14.709
 8574ETHO   H1366352  12.332   6.831  14.689
 8574ETHO    C266353  12.266   6.969  14.531
 8574ETHO   H2166354  12.172   6.914  14.509
 8574ETHO   H2366355  12.347   6.934  14.464
 8575ETHO    O166356  12.249   7.110  14.499
 8575ETHO    C166357  12.377   7.169  14.466
 8575ETHO   H1166358  12.435   7.111  14.391
 8575ETHO   H1366359  12.429   7.163  14.564
 8575ETHO    C266360  12.357   7.316  14.418
 8575ETHO   H2166361  12.454   7.371  14.424
 8575ETHO   H2366362  12.293   7.369  14.491
 8576ETHO    O166363  12.309   7.316  14.287
 8576ETHO    C166364  12.282   7.449  14.229
 8576ETHO   H1166365  12.271   7.417  14.123
 8576ETHO   H1366366  12.192   7.498  14.269
 8576ETHO    C266367  12.398   7.544  14.229
 8576ETHO   H2166368  12.433   7.578  14.329
 8576ETHO   H2366369  12.352   7.637  14.189
 8577ETHO    O166370  12.502   7.507  14.144
 8577ETHO    C166371  12.615   7.599  14.149
 8577ETHO   H1166372  12.696   7.536  14.110
 8577ETHO   H1366373  12.645   7.621  14.254
 8577ETHO    C266374  12.598   7.733  14.083
 8577ETHO   H2166375  12.584   7.706  13.976
 8577ETHO   H2366376  12.697   7.782  14.093
 8578ETHO    O166377  12.509   7.830  14.143
 8578ETHO    C166378  12.489   7.940  14.049
 8578ETHO   H1166379  12.585   7.979  14.009
 8578ETHO   H1366380  12.424   7.914  13.963
 8578ETHO    C266381  12.414   8.059  14.121
 8578ETHO   H2166382  12.402   8.145  14.053
 8578ETHO   H2366383  12.480   8.087  14.206
 8579ETHO    O166384  12.291   8.029  14.181
 8579ETHO    C166385  12.180   8.024  14.092
 8579ETHO   H1166386  12.168   7.923  14.047
 8579ETHO   H1366387  12.198   8.080  13.997
 8579ETHO    C266388  12.057   8.081  14.163
 8579ETHO   H2166389  12.045   8.015  14.252
 8579ETHO   H2366390  11.970   8.074  14.095
 8580ETHO    O166391  12.081   8.214  14.201
 8580ETHO    C166392  11.952   8.267  14.237
 8580ETHO   H1166393  11.887   8.242  14.150
 8580ETHO   H1366394  11.913   8.223  14.331
 8580ETHO    C266395  11.934   8.421  14.252
 8580ETHO   H2166396  12.010   8.459  14.323
 8580ETHO   H2366397  11.830   8.438  14.289
 8581PROX    O166398  11.937   8.499  14.130
 8581PROX    C166399  12.068   8.532  14.088
 8581PROX   H1166400  12.118   8.596  14.164
 8581PROX   H1366401  12.114   8.432  14.072
 8581PROX    C266402  12.060   8.622  13.965
 8581PROX   H2166403  12.013   8.719  13.994
 8581PROX    C366404  11.987   8.551  13.849
 8581PROX   H3166405  11.989   8.613  13.756
 8581PROX   H3266406  12.029   8.450  13.833
 8581PROX   H3366407  11.880   8.540  13.877
 8582PROX    O166408  12.198   8.647  13.923
 8582PROX    C166409  12.281   8.526  13.921
 8582PROX   H1166410  12.296   8.483  14.022
 8582PROX   H1366411  12.249   8.445  13.851
 8582PROX    C266412  12.415   8.572  13.860
 8582PROX   H2166413  12.464   8.650  13.922
 8582PROX    C366414  12.398   8.612  13.715
 8582PROX   H3166415  12.399   8.526  13.645
 8582PROX   H3266416  12.308   8.677  13.708
 8582PROX   H3366417  12.491   8.665  13.686
 8583PROX    O166418  12.496   8.463  13.851
 8583PROX    C166419  12.561   8.426  13.973
 8583PROX   H1166420  12.577   8.514  14.038
 8583PROX   H1366421  12.502   8.345  14.021
 8583PROX    C266422  12.708   8.383  13.940
 8583PROX   H2166423  12.723   8.368  13.831
 8583PROX    C366424  12.765   8.265  14.027
 8583PROX   H3166425  12.875   8.248  14.023
 8583PROX   H3266426  12.734   8.290  14.130
 8583PROX   H3366427  12.717   8.168  14.004
 8584PROX    O166428  12.805   8.480  13.977
 8584PROX    C166429  12.811   8.588  13.886
 8584PROX   H1166430  12.877   8.557  13.802
 8584PROX   H1366431  12.708   8.615  13.853
 8584PROX    C266432  12.873   8.715  13.950
 8584PROX   H2166433  12.869   8.796  13.873
 8584PROX    C366434  13.014   8.696  14.000
 8584PROX   H3166435  13.073   8.684  13.906
 8584PROX   H3266436  13.058   8.779  14.059
 8584PROX   H3366437  13.024   8.598  14.052
 8585PROX    O166438  12.787   8.738  14.052
 8585PROX    C166439  12.797   8.877  14.100
 8585PROX   H1166440  12.859   8.874  14.192
 8585PROX   H1366441  12.837   8.949  14.025
 8585PROX    C266442  12.660   8.927  14.135
 8585PROX   H2166443  12.658   9.014  14.205
 8585PROX    C366444  12.593   8.816  14.220
 8585PROX   H3166445  12.493   8.838  14.262
 8585PROX   H3266446  12.584   8.720  14.166
 8585PROX   H3366447  12.671   8.803  14.299
 8586PROX    O166448  12.589   8.966  14.017
 8586PROX    C166449  12.448   8.979  14.030
 8586PROX   H1166450  12.409   8.875  14.032
 8586PROX   H1366451  12.423   9.032  14.124
 8586PROX    C266452  12.398   9.052  13.906
 8586PROX   H2166453  12.438   9.000  13.817
 8586PROX    C366454  12.462   9.191  13.894
 8586PROX   H3166455  12.417   9.268  13.960
 8586PROX   H3266456  12.571   9.170  13.900
 8586PROX   H3366457  12.429   9.230  13.795
 8587PROX    O166458  12.261   9.073  13.909
 8587PROX    C166459  12.188   8.980  13.830
 8587PROX   H1166460  12.240   8.882  13.831
 8587PROX   H1366461  12.086   8.973  13.873
 8587PROX    C266462  12.176   9.024  13.685
 8587PROX   H2166463  12.275   9.009  13.638
 8587PROX    C366464  12.127   9.172  13.671
 8587PROX   H3166465  12.127   9.213  13.567
 8587PROX   H3266466  12.029   9.184  13.720
 8587PROX   H3366467  12.201   9.226  13.734
 8588PROX    O166468  12.075   8.942  13.626
 8588PROX    C166469  12.127   8.839  13.547
 8588PROX   H1166470  12.202   8.796  13.617
 8588PROX   H1366471  12.052   8.761  13.520
 8588PROX    C266472  12.174   8.888  13.409
 8588PROX   H2166473  12.263   8.954  13.408
 8588PROX    C366474  12.063   8.964  13.342
 8588PROX   H3166475  11.967   8.909  13.342
 8588PROX   H3266476  12.043   9.050  13.410
 8588PROX   H3366477  12.086   9.006  13.241
 8589PROX    O166478  12.186   8.775  13.319
 8589PROX    C166479  12.307   8.700  13.346
 8589PROX   H1166480  12.399   8.759  13.326
 8589PROX   H1366481  12.304   8.688  13.456
 8589PROX    C266482  12.308   8.556  13.296
 8589PROX   H2166483  12.320   8.550  13.186
 8589PROX    C366484  12.175   8.483  13.327
 8589PROX   H3166485  12.095   8.535  13.270
 8589PROX   H3266486  12.173   8.377  13.293
 8589PROX   H3366487  12.156   8.499  13.435
 8590PROX    O166488  12.417   8.491  13.353
 8590PROX    C166489  12.546   8.513  13.290
 8590PROX   H1166490  12.567   8.425  13.226
 8590PROX   H1366491  12.548   8.606  13.228
 8590PROX    C266492  12.654   8.527  13.398
 8590PROX   H2166493  12.756   8.542  13.357
 8590PROX    C366494  12.661   8.403  13.492
 8590PROX   H3166495  12.564   8.398  13.545
 8590PROX   H3266496  12.698   8.311  13.441
 8590PROX   H3366497  12.735   8.428  13.571
 8591PROX    O166498  12.621   8.639  13.489
 8591PROX    C166499  12.677   8.761  13.449
 8591PROX   H1166500  12.788   8.757  13.453
 8591PROX   H1366501  12.635   8.800  13.354
 8591PROX    C266502  12.656   8.878  13.546
 8591PROX   H2166503  12.668   8.832  13.646
 8591PROX    C366504  12.519   8.953  13.531
 8591PROX   H3166505  12.440   8.882  13.564
 8591PROX   H3266506  12.516   9.042  13.597
 8591PROX   H3366507  12.499   8.979  13.425
 8592PROX    O166508  12.760   8.980  13.530
 8592PROX    C166509  12.779   9.055  13.652
 8592PROX   H1166510  12.689   9.119  13.665
 8592PROX   H1366511  12.781   8.996  13.746
 8592PROX    C266512  12.894   9.159  13.643
 8592PROX   H2166513  12.876   9.222  13.553
 8592PROX    C366514  13.023   9.086  13.644
 8592PROX   H3166515  13.110   9.155  13.653
 8592PROX   H3266516  13.019   9.019  13.733
 8592PROX   H3366517  13.043   9.029  13.551
 8593PROX    O166518  12.895   9.242  13.761
 8593PROX    C166519  12.793   9.340  13.748
 8593PROX   H1166520  12.793   9.391  13.649
 8593PROX   H1366521  12.694   9.294  13.764
 8593PROX    C266522  12.820   9.446  13.858
 8593PROX   H2166523  12.920   9.492  13.841
 8593PROX    C366524  12.810   9.390  14.000
 8593PROX   H3166525  12.894   9.322  14.021
 8593PROX   H3266526  12.823   9.467  14.079
 8593PROX   H3366527  12.720   9.325  14.014
 8594PROX    O166528  12.737   9.565  13.835
 8594PROX    C166529  12.598   9.542  13.853
 8594PROX   H1166530  12.562   9.454  13.795
 8594PROX   H1366531  12.580   9.540  13.962
 8594PROX    C266532  12.517   9.658  13.802
 8594PROX   H2166533  12.565   9.670  13.702
 8594PROX    C366534  12.539   9.786  13.890
 8594PROX   H3166535  12.648   9.799  13.903
 8594PROX   H3266536  12.494   9.876  13.843
 8594PROX   H3366537  12.498   9.776  13.993
 8595PROX    O166538  12.381   9.624  13.791
 8595PROX    C166539  12.302   9.719  13.728
 8595PROX   H1166540  12.297   9.816  13.783
 8595PROX   H1366541  12.339   9.747  13.627
 8595PROX    C266542  12.153   9.675  13.710
 8595PROX   H2166543  12.111   9.641  13.807
 8595PROX    C366544  12.138   9.549  13.624
 8595PROX   H3166545  12.156   9.561  13.515
 8595PROX   H3266546  12.210   9.471  13.654
 8595PROX   H3366547  12.037   9.503  13.628
 8596PROX    O166548  12.085   9.791  13.664
 8596PROX    C166549  11.948   9.776  13.680
 8596PROX   H1166550  11.903   9.833  13.596
 8596PROX   H1366551  11.917   9.669  13.671
 8596PROX    C266552  11.886   9.847  13.804
 8596PROX   H2166553  11.784   9.872  13.768
 8596PROX    C366554  11.951   9.974  13.843
 8596PROX   H3166555  11.975  10.038  13.755
 8596PROX   H3266556  11.898  10.030  13.924
 8596PROX   H3366557  12.046   9.954  13.897
 8597PROX    O166558  11.873   9.748  13.906
 8597PROX    C166559  11.760   9.656  13.888
 8597PROX   H1166560  11.665   9.707  13.915
 8597PROX   H1366561  11.753   9.620  13.783
 8597PROX    C266562  11.764   9.521  13.963
 8597PROX   H2166563  11.807   9.546  14.063
 8597PROX    C366564  11.855   9.419  13.893
 8597PROX   H3166565  11.949   9.461  13.850
 8597PROX   H3266566  11.869   9.324  13.949
 8597PROX   H3366567  11.801   9.386  13.801
 8598PROX    O166568  11.632   9.485  13.973
 8598PROX    C166569  11.607   9.383  14.076
 8598PROX   H1166570  11.673   9.295  14.064
 8598PROX   H1366571  11.625   9.431  14.174
 8598PROX    C266572  11.465   9.331  14.049
 8598PROX   H2166573  11.395   9.414  14.026
 8598PROX    C366574  11.399   9.260  14.167
 8598PROX   H3166575  11.292   9.237  14.147
 8598PROX   H3266576  11.444   9.160  14.180
 8598PROX   H3366577  11.404   9.321  14.260
 8599PROX    O166578  11.461   9.231  13.944
 8599PROX    C166579  11.456   9.278  13.805
 8599PROX   H1166580  11.350   9.297  13.780
 8599PROX   H1366581  11.499   9.379  13.787
 8599PROX    C266582  11.529   9.176  13.708
 8599PROX   H2166583  11.637   9.200  13.701
 8599PROX    C366584  11.477   9.205  13.567
 8599PROX   H3166585  11.469   9.313  13.540
 8599PROX   H3266586  11.553   9.170  13.494
 8599PROX   H3366587  11.380   9.157  13.540
 8600PROX    O166588  11.509   9.037  13.749
 8600PROX    C166589  11.567   8.934  13.672
 8600PROX   H1166590  11.530   8.830  13.689
 8600PROX   H1366591  11.544   8.947  13.564
 8600PROX    C266592  11.723   8.921  13.691
 8600PROX   H2166593  11.789   9.000  13.647
 8600PROX    C366594  11.776   8.794  13.614
 8600PROX   H3166595  11.728   8.703  13.653
 8600PROX   H3266596  11.754   8.796  13.505
 8600PROX   H3366597  11.887   8.791  13.625
 8601PROX    O166598  11.764   8.892  13.823
 8601PROX    C166599  11.779   8.998  13.916
 8601PROX   H1166600  11.842   9.074  13.865
 8601PROX   H1366601  11.675   9.033  13.932
 8601PROX    C266602  11.837   8.963  14.048
 8601PROX   H2166603  11.937   8.917  14.035
 8601PROX    C366604  11.755   8.853  14.121
 8601PROX   H3166605  11.813   8.829  14.213
 8601PROX   H3266606  11.662   8.898  14.161
 8601PROX   H3366607  11.752   8.758  14.063
 8602PROX    O166608  11.852   9.079  14.133
 8602PROX    C166609  11.981   9.138  14.138
 8602PROX   H1166610  12.053   9.073  14.193
 8602PROX   H1366611  12.018   9.151  14.035
 8602PROX    C266612  11.969   9.270  14.218
 8602PROX   H2166613  11.905   9.343  14.165
 8602PROX    C366614  12.112   9.327  14.224
 8602PROX   H3166615  12.177   9.263  14.286
 8602PROX   H3266616  12.158   9.339  14.124
 8602PROX   H3366617  12.126   9.420  14.284
 8603PROX    O166618  11.933   9.244  14.349
 8603PROX    C166619  11.796   9.276  14.372
 8603PROX   H1166620  11.789   9.386  14.357
 8603PROX   H1366621  11.732   9.236  14.291
 8603PROX    C266622  11.755   9.227  14.520
 8603PROX   H2166623  11.837   9.251  14.591
 8603PROX    C366624  11.745   9.069  14.520
 8603PROX   H3166625  11.679   9.047  14.433
 8603PROX   H3266626  11.852   9.040  14.510
 8603PROX   H3366627  11.697   9.020  14.607
 8604PROX    O166628  11.632   9.284  14.560
 8604PROX    C166629  11.662   9.412  14.603
 8604PROX   H1166630  11.698   9.403  14.708
 8604PROX   H1366631  11.728   9.473  14.538
 8604PROX    C266632  11.536   9.497  14.607
 8604PROX   H2166633  11.465   9.444  14.674
 8604PROX    C366634  11.466   9.504  14.473
 8604PROX   H3166635  11.523   9.532  14.382
 8604PROX   H3266636  11.426   9.408  14.433
 8604PROX   H3366637  11.376   9.567  14.490
 8605PROX    O166638  11.574   9.627  14.659
 8605PROX    C166639  11.497   9.659  14.771
 8605PROX   H1166640  11.502   9.769  14.785
 8605PROX   H1366641  11.392   9.627  14.757
 8605PROX    C266642  11.570   9.602  14.893
 8605PROX   H2166643  11.629   9.509  14.874
 8605PROX    C366644  11.461   9.592  15.000
 8605PROX   H3166645  11.417   9.694  15.010
 8605PROX   H3266646  11.378   9.523  14.973
 8605PROX   H3366647  11.500   9.557  15.098
 8606PROX    O166648  11.675   9.692  14.940
 8606PROX    C166649  11.773   9.623  15.022
 8606PROX   H1166650  11.808   9.687  15.105
 8606PROX   H1366651  11.739   9.535  15.081
 8606PROX    C266652  11.895   9.591  14.943
 8606PROX   H2166653  11.879   9.584  14.833
 8606PROX    C366654  11.981   9.467  14.981
 8606PROX   H3166655  12.068   9.470  14.913
 8606PROX   H3266656  12.008   9.464  15.089
 8606PROX   H3366657  11.910   9.387  14.951
 8607PROX    O166658  11.989   9.688  14.970
 8607PROX    C166659  11.953   9.813  14.901
 8607PROX   H1166660  11.950   9.788  14.793
 8607PROX   H1366661  11.858   9.851  14.943
 8607PROX    C266662  12.067   9.912  14.930
 8607PROX   H2166663  12.053   9.945  15.036
 8607PROX    C366664  12.054  10.046  14.850
 8607PROX   H3166665  12.036  10.010  14.747
 8607PROX   H3266666  11.962  10.098  14.882
 8607PROX   H3366667  12.134  10.122  14.863
 8608PROX    O166668  12.194   9.849  14.912
 8608PROX    C166669  12.295   9.927  14.984
 8608PROX   H1166670  12.301  10.024  14.931
 8608PROX   H1366671  12.262   9.944  15.088
 8608PROX    C266672  12.430   9.849  14.971
 8608PROX   H2166673  12.433   9.838  14.861
 8608PROX    C366674  12.453   9.715  15.040
 8608PROX   H3166675  12.551   9.675  15.008
 8608PROX   H3266676  12.452   9.734  15.149
 8608PROX   H3366677  12.368   9.646  15.019
 8609PROX    O166678  12.535   9.942  15.008
 8609PROX    C166679  12.653   9.925  14.925
 8609PROX   H1166680  12.677   9.817  14.924
 8609PROX   H1366681  12.632   9.963  14.823
 8609PROX    C266682  12.773  10.013  14.985
 8609PROX   H2166683  12.775  10.006  15.096
 8609PROX    C366684  12.779  10.158  14.952
 8609PROX   H3166685  12.854  10.222  15.003
 8609PROX   H3266686  12.795  10.186  14.846
 8609PROX   H3366687  12.680  10.198  14.983
 8610PROX    O166688  12.902   9.973  14.940
 8610PROX    C166689  12.952   9.853  15.003
 8610PROX   H1166690  12.874   9.775  15.015
 8610PROX   H1366691  13.028   9.814  14.932
 8610PROX    C266692  13.012   9.876  15.151
 8610PROX   H2166693  12.933   9.927  15.210
 8610PROX    C366694  13.138   9.959  15.146
 8610PROX   H3166695  13.224   9.896  15.117
 8610PROX   H3266696  13.129  10.055  15.091
 8610PROX   H3366697  13.151   9.985  15.253
 8611PROX    O166698  13.038   9.741  15.201
 8611PROX    C166699  12.957   9.698  15.315
 8611PROX   H1166700  13.015   9.632  15.383
 8611PROX   H1366701  12.937   9.791  15.373
 8611PROX    C266702  12.829   9.636  15.270
 8611PROX   H2166703  12.779   9.700  15.194
 8611PROX    C366704  12.734   9.614  15.389
 8611PROX   H3166705  12.720   9.712  15.438
 8611PROX   H3266706  12.633   9.581  15.358
 8611PROX   H3366707  12.778   9.533  15.451
 8612PROX    O166708  12.858   9.503  15.212
 8612PROX    C166709  12.742   9.454  15.150
 8612PROX   H1166710  12.685   9.400  15.228
 8612PROX   H1366711  12.674   9.537  15.122
 8612PROX    C266712  12.766   9.360  15.023
 8612PROX   H2166713  12.829   9.275  15.058
 8612PROX    C366714  12.843   9.429  14.917
 8612PROX   H3166715  12.792   9.526  14.898
 8612PROX   H3266716  12.941   9.459  14.961
 8612PROX   H3366717  12.854   9.380  14.818
 8613PROX    O166718  12.645   9.307  14.980
 8613PROX    C166719  12.658   9.176  14.928
 8613PROX   H1166720  12.730   9.171  14.844
 8613PROX   H1366721  12.697   9.108  15.007
 8613PROX    C266722  12.526   9.124  14.870
 8613PROX   H2166723  12.449   9.110  14.949
 8613PROX    C366724  12.543   8.988  14.798
 8613PROX   H3166725  12.590   8.912  14.863
 8613PROX   H3266726  12.442   8.954  14.767
 8613PROX   H3366727  12.590   8.995  14.698
 8614PROX    O166728  12.484   9.220  14.771
 8614PROX    C166729  12.390   9.319  14.818
 8614PROX   H1166730  12.287   9.278  14.817
 8614PROX   H1366731  12.406   9.358  14.921
 8614PROX    C266732  12.395   9.435  14.721
 8614PROX   H2166733  12.368   9.399  14.620
 8614PROX    C366734  12.535   9.501  14.708
 8614PROX   H3166735  12.555   9.578  14.786
 8614PROX   H3266736  12.605   9.415  14.707
 8614PROX   H3366737  12.552   9.547  14.608
 8615PROX    O166738  12.299   9.532  14.762
 8615PROX    C166739  12.253   9.620  14.658
 8615PROX   H1166740  12.252   9.724  14.698
 8615PROX   H1366741  12.322   9.612  14.571
 8615PROX    C266742  12.112   9.586  14.603
 8615PROX   H2166743  12.040   9.603  14.686
 8615PROX    C366744  12.103   9.434  14.565
 8615PROX   H3166745  12.126   9.383  14.661
 8615PROX   H3266746  12.005   9.405  14.521
 8615PROX   H3366747  12.171   9.405  14.482
 8616PROX    O166748  12.084   9.674  14.499
 8616PROX    C166749  11.953   9.658  14.445
 8616PROX   H1166750  11.947   9.563  14.388
 8616PROX   H1366751  11.874   9.661  14.523
 8616PROX    C266752  11.926   9.773  14.343
 8616PROX   H2166753  11.948   9.873  14.386
 8616PROX    C366754  11.780   9.772  14.300
 8616PROX   H3166755  11.751   9.856  14.234
 8616PROX   H3266756  11.752   9.679  14.246
 8616PROX   H3366757  11.713   9.777  14.388
 8617PROX    O166758  12.001   9.753  14.227
 8617PROX    C166759  12.112   9.841  14.231
 8617PROX   H1166760  12.087   9.948  14.216
 8617PROX   H1366761  12.168   9.836  14.327
 8617PROX    C266762  12.204   9.810  14.107
 8617PROX   H2166763  12.144   9.819  14.014
 8617PROX    C366764  12.260   9.663  14.105
 8617PROX   H3166765  12.299   9.636  14.206
 8617PROX   H3266766  12.185   9.588  14.071
 8617PROX   H3366767  12.339   9.648  14.029
 8618PROX    O166768  12.306   9.908  14.098
 8618PROX    C166769  12.265  10.017  14.016
 8618PROX   H1166770  12.245   9.987  13.911
 8618PROX   H1366771  12.172  10.060  14.058
 8618PROX    C266772  12.387  10.121  14.009
 8618PROX   H2166773  12.480  10.069  13.975
 8618PROX    C366774  12.416  10.182  14.144
 8618PROX   H3166775  12.446  10.108  14.221
 8618PROX   H3266776  12.506  10.248  14.139
 8618PROX   H3366777  12.335  10.240  14.194
 8619PROX    O166778  12.356  10.229  13.919
 8619PROX    C166779  12.357  10.196  13.779
 8619PROX   H1166780  12.444  10.132  13.755
 8619PROX   H1366781  12.267  10.136  13.753
 8619PROX    C266782  12.354  10.315  13.685
 8619PROX   H2166783  12.454  10.363  13.688
 8619PROX    C366784  12.236  10.414  13.712
 8619PROX   H3166785  12.139  10.370  13.681
 8619PROX   H3266786  12.229  10.432  13.821
 8619PROX   H3366787  12.255  10.519  13.680
 8620PROX    O166788  12.329  10.263  13.552
 8620PROX    C166789  12.372  10.341  13.441
 8620PROX   H1166790  12.295  10.324  13.363
 8620PROX   H1366791  12.385  10.448  13.466
 8620PROX    C266792  12.501  10.274  13.387
 8620PROX   H2166793  12.549  10.352  13.324
 8620PROX    C366794  12.472  10.169  13.271
 8620PROX   H3166795  12.397  10.202  13.196
 8620PROX   H3266796  12.560  10.158  13.205
 8620PROX   H3366797  12.440  10.071  13.313
 8621PROX    O166798  12.578  10.218  13.495
 8621PROX    C166799  12.688  10.298  13.530
 8621PROX   H1166800  12.746  10.321  13.438
 8621PROX   H1366801  12.651  10.394  13.571
 8621PROX    C266802  12.780  10.229  13.629
 8621PROX   H2166803  12.801  10.127  13.589
 8621PROX    C366804  12.708  10.194  13.764
 8621PROX   H3166805  12.636  10.114  13.739
 8621PROX   H3266806  12.775  10.140  13.835
 8621PROX   H3366807  12.665  10.279  13.821
 8622PROX    O166808  12.897  10.307  13.658
 8622PROX    C166809  12.997  10.298  13.563
 8622PROX   H1166810  13.036  10.194  13.559
 8622PROX   H1366811  12.962  10.329  13.462
 8622PROX    C266812  13.120  10.382  13.604
 8622PROX   H2166813  13.183  10.403  13.516
 8622PROX    C366814  13.197  10.318  13.717
 8622PROX   H3166815  13.289  10.379  13.727
 8622PROX   H3266816  13.135  10.322  13.809
 8622PROX   H3366817  13.237  10.218  13.687
 8623PROX    O166818  13.082  10.512  13.647
 8623PROX    C166819  13.039  10.597  13.542
 8623PROX   H1166820  13.089  10.695  13.541
 8623PROX   H1366821  13.047  10.556  13.439
 8623PROX    C266822  12.892  10.637  13.562
 8623PROX   H2166823  12.838  10.541  13.581
 8623PROX    C366824  12.831  10.709  13.444
 8623PROX   H3166825  12.847  10.819  13.446
 8623PROX   H3266826  12.868  10.673  13.346
 8623PROX   H3366827  12.726  10.680  13.422
 8624PROX    O166828  12.878  10.720  13.679
 8624PROX    C166829  12.752  10.702  13.742
 8624PROX   H1166830  12.749  10.798  13.797
 8624PROX   H1366831  12.675  10.692  13.662
 8624PROX    C266832  12.737  10.588  13.840
 8624PROX   H2166833  12.772  10.491  13.799
 8624PROX    C366834  12.587  10.570  13.875
 8624PROX   H3166835  12.515  10.555  13.792
 8624PROX   H3266836  12.566  10.495  13.953
 8624PROX   H3366837  12.547  10.669  13.906
 8625PROX    O166838  12.814  10.617  13.957
 8625PROX    C166839  12.824  10.506  14.043
 8625PROX   H1166840  12.728  10.490  14.097
 8625PROX   H1366841  12.841  10.416  13.979
 8625PROX    C266842  12.935  10.515  14.146
 8625PROX   H2166843  12.932  10.615  14.195
 8625PROX    C366844  13.063  10.493  14.079
 8625PROX   H3166845  13.142  10.504  14.156
 8625PROX   H3266846  13.063  10.397  14.024
 8625PROX   H3366847  13.078  10.568  13.998
 8626PROX    O166848  12.923  10.417  14.249
 8626PROX    C166849  12.987  10.454  14.372
 8626PROX   H1166850  13.096  10.466  14.351
 8626PROX   H1366851  12.956  10.552  14.413
 8626PROX    C266852  12.966  10.348  14.480
 8626PROX   H2166853  13.017  10.252  14.458
 8626PROX    C366854  12.814  10.333  14.500
 8626PROX   H3166855  12.767  10.299  14.406
 8626PROX   H3266856  12.791  10.259  14.579
 8626PROX   H3366857  12.774  10.431  14.536
 8627PROX    O166858  13.014  10.391  14.608
 8627PROX    C166859  13.157  10.375  14.626
 8627PROX   H1166860  13.212  10.414  14.537
 8627PROX   H1366861  13.189  10.456  14.696
 8627PROX    C266862  13.202  10.240  14.689
 8627PROX   H2166863  13.181  10.160  14.615
 8627PROX    C366864  13.119  10.198  14.811
 8627PROX   H3166865  13.010  10.211  14.793
 8627PROX   H3266866  13.127  10.092  14.841
 8627PROX   H3366867  13.141  10.265  14.898
 8628PROX    O166868  13.337  10.264  14.715
 8628PROX    C166869  13.426  10.189  14.631
 8628PROX   H1166870  13.391  10.208  14.527
 8628PROX   H1366871  13.526  10.236  14.642
 8628PROX    C266872  13.445  10.049  14.667
 8628PROX   H2166873  13.346   9.998  14.664
 8628PROX    C366874  13.497  10.034  14.810
 8628PROX   H3166875  13.444  10.097  14.885
 8628PROX   H3266876  13.494   9.928  14.842
 8628PROX   H3366877  13.606  10.056  14.814
 8629PROX    O166878  13.528   9.978  14.571
 8629PROX    C166879  13.474   9.982  14.441
 8629PROX   H1166880  13.369  10.018  14.446
 8629PROX   H1366881  13.539  10.042  14.374
 8629PROX    C266882  13.464   9.839  14.378
 8629PROX   H2166883  13.428   9.775  14.462
 8629PROX    C366884  13.598   9.783  14.329
 8629PROX   H3166885  13.597   9.695  14.261
 8629PROX   H3266886  13.644   9.868  14.274
 8629PROX   H3366887  13.660   9.760  14.418
 8630PROX    O166888  13.377   9.848  14.275
 8630PROX    C166889  13.305   9.728  14.239
 8630PROX   H1166890  13.369   9.653  14.186
 8630PROX   H1366891  13.277   9.674  14.332
 8630PROX    C266892  13.172   9.755  14.162
 8630PROX   H2166893  13.116   9.831  14.220
 8630PROX    C366894  13.085   9.624  14.162
 8630PROX   H3166895  13.095   9.576  14.261
 8630PROX   H3266896  12.978   9.648  14.144
 8630PROX   H3366897  13.122   9.553  14.085
 8631PROX    O166898  13.195   9.801  14.030
 8631PROX    C166899  13.235   9.941  14.038
 8631PROX   H1166900  13.182   9.992  14.122
 8631PROX   H1366901  13.337   9.957  14.079
 8631PROX    C266902  13.212  10.023  13.910
 8631PROX   H2166903  13.278  10.112  13.918
 8631PROX    C366904  13.073  10.067  13.890
 8631PROX   H3166905  13.035  10.125  13.977
 8631PROX   H3266906  13.049  10.120  13.796
 8631PROX   H3366907  13.021   9.969  13.883
 8632PROX    O166908  13.251   9.959  13.792
 8632PROX    C166909  13.394   9.932  13.785
 8632PROX   H1166910  13.421   9.919  13.678
 8632PROX   H1366911  13.441  10.023  13.827
 8632PROX    C266912  13.451   9.808  13.856
 8632PROX   H2166913  13.437   9.817  13.966
 8632PROX    C366914  13.603   9.815  13.835
 8632PROX   H3166915  13.655   9.730  13.885
 8632PROX   H3266916  13.622   9.802  13.726
 8632PROX   H3366917  13.654   9.903  13.879
 8633PROX    O166918  13.389   9.688  13.809
 8633PROX    C166919  13.458   9.569  13.844
 8633PROX   H1166920  13.565   9.566  13.815
 8633PROX   H1366921  13.453   9.564  13.955
 8633PROX    C266922  13.387   9.440  13.790
 8633PROX   H2166923  13.385   9.435  13.679
 8633PROX    C366924  13.240   9.440  13.849
 8633PROX   H3166925  13.166   9.369  13.807
 8633PROX   H3266926  13.248   9.439  13.960
 8633PROX   H3366927  13.202   9.543  13.830
 8634PROX    O166928  13.443   9.323  13.844
 8634PROX    C166929  13.388   9.196  13.801
 8634PROX   H1166930  13.328   9.154  13.885
 8634PROX   H1366931  13.315   9.198  13.717
 8634PROX    C266932  13.498   9.098  13.762
 8634PROX   H2166933  13.538   9.125  13.661
 8634PROX    C366934  13.448   8.956  13.743
 8634PROX   H3166935  13.367   8.967  13.668
 8634PROX   H3266936  13.527   8.895  13.695
 8634PROX   H3366937  13.415   8.904  13.836
 8635PROX    O166938  13.595   9.097  13.859
 8635PROX    C166939  13.701   9.188  13.826
 8635PROX   H1166940  13.756   9.149  13.739
 8635PROX   H1366941  13.663   9.289  13.798
 8635PROX    C266942  13.798   9.211  13.945
 8635PROX   H2166943  13.880   9.277  13.909
 8635PROX    C366944  13.860   9.091  14.013
 8635PROX   H3166945  13.779   9.024  14.049
 8635PROX   H3266946  13.924   9.034  13.942
 8635PROX   H3366947  13.923   9.112  14.102
 8636PROX    O166948  13.743   9.300  14.041
 8636PROX    C166949  13.631   9.245  14.113
 8636PROX   H1166950  13.549   9.239  14.040
 8636PROX   H1366951  13.647   9.146  14.162
 8636PROX    C266952  13.586   9.345  14.221
 8636PROX   H2166953  13.544   9.429  14.162
 8636PROX    C366954  13.701   9.382  14.316
 8636PROX   H3166955  13.723   9.297  14.384
 8636PROX   H3266956  13.789   9.413  14.255
 8636PROX   H3366957  13.670   9.467  14.381
 8637PROX    O166958  13.483   9.292  14.307
 8637PROX    C166959  13.356   9.298  14.243
 8637PROX   H1166960  13.299   9.387  14.277
 8637PROX   H1366961  13.366   9.317  14.134
 8637PROX    C266962  13.269   9.166  14.260
 8637PROX   H2166963  13.281   9.141  14.367
 8637PROX    C366964  13.317   9.049  14.175
 8637PROX   H3166965  13.270   8.954  14.209
 8637PROX   H3266966  13.286   9.048  14.068
 8637PROX   H3366967  13.426   9.037  14.191
 8638PROX    O166968  13.128   9.194  14.238
 8638PROX    C166969  13.033   9.103  14.293
 8638PROX   H1166970  12.940   9.111  14.232
 8638PROX   H1366971  13.066   9.000  14.267
 8638PROX    C266972  13.007   9.118  14.445
 8638PROX   H2166973  13.104   9.103  14.498
 8638PROX    C366974  12.909   9.016  14.484
 8638PROX   H3166975  12.947   8.912  14.493
 8638PROX   H3266976  12.874   9.033  14.589
 8638PROX   H3366977  12.815   9.026  14.426
 8639PROX    O166978  12.946   9.244  14.468
 8639PROX    C166979  13.037   9.354  14.455
 8639PROX   H1166980  13.145   9.329  14.445
 8639PROX   H1366981  13.021   9.419  14.366
 8639PROX    C266982  13.017   9.448  14.577
 8639PROX   H2166983  13.018   9.401  14.677
 8639PROX    C366984  12.876   9.509  14.565
 8639PROX   H3166985  12.804   9.428  14.542
 8639PROX   H3266986  12.845   9.566  14.656
 8639PROX   H3366987  12.875   9.579  14.478
 8640PROX    O166988  13.116   9.547  14.570
 8640PROX    C166989  13.142   9.592  14.700
 8640PROX   H1166990  13.051   9.618  14.758
 8640PROX   H1366991  13.187   9.505  14.754
 8640PROX    C266992  13.239   9.715  14.720
 8640PROX   H2166993  13.328   9.699  14.656
 8640PROX    C366994  13.288   9.718  14.873
 8640PROX   H3166995  13.369   9.643  14.883
 8640PROX   H3266996  13.317   9.825  14.884
 8640PROX   H3366997  13.210   9.697  14.948
 8641PROX    O166998  13.166   9.838  14.699
 8641PROX    C166999  13.125   9.863  14.561
 8641PROX   H1167000  13.198   9.935  14.518
 8641PROX   H1367001  13.145   9.768  14.507
 8641PROX    C267002  12.986   9.924  14.540
 8641PROX   H2167003  12.998  10.029  14.574
 8641PROX    C367004  12.885   9.861  14.629
 8641PROX   H3167005  12.800   9.926  14.657
 8641PROX   H3267006  12.830   9.781  14.573
 8641PROX   H3367007  12.933   9.826  14.723
 8642PROX    O167008  12.958   9.918  14.403
 8642PROX    C167009  12.849  10.001  14.363
 8642PROX   H1167010  12.763   9.988  14.432
 8642PROX   H1367011  12.887  10.102  14.387
 8642PROX    C267012  12.810   9.979  14.216
 8642PROX   H2167013  12.880   9.928  14.146
 8642PROX    C367014  12.792  10.116  14.147
 8642PROX   H3167015  12.757  10.102  14.043
 8642PROX   H3267016  12.713  10.176  14.196
 8642PROX   H3367017  12.879  10.184  14.146
 8643PROX    O167018  12.691   9.901  14.216
 8643PROX    C167019  12.710   9.763  14.242
 8643PROX   H1167020  12.732   9.714  14.145
 8643PROX   H1367021  12.790   9.739  14.315
 8643PROX    C267022  12.581   9.702  14.306
 8643PROX   H2167023  12.503   9.716  14.228
 8643PROX    C367024  12.535   9.776  14.430
 8643PROX   H3167025  12.620   9.772  14.500
 8643PROX   H3267026  12.531   9.883  14.398
 8643PROX   H3367027  12.431   9.754  14.464
 8644PROX    O167028  12.605   9.563  14.342
 8644PROX    C167029  12.494   9.474  14.330
 8644PROX   H1167030  12.414   9.520  14.392
 8644PROX   H1367031  12.463   9.466  14.223
 8644PROX    C267032  12.540   9.335  14.371
 8644PROX   H2167033  12.583   9.347  14.473
 8644PROX    C367034  12.653   9.290  14.285
 8644PROX   H3167035  12.700   9.200  14.330
 8644PROX   H3267036  12.620   9.272  14.180
 8644PROX   H3367037  12.731   9.369  14.276
 8645PROX    O167038  12.429   9.243  14.368
 8645PROX    C167039  12.459   9.120  14.434
 8645PROX   H1167040  12.547   9.060  14.402
 8645PROX   H1367041  12.473   9.144  14.541
 8645PROX    C267042  12.333   9.030  14.429
 8645PROX   H2167043  12.292   9.032  14.326
 8645PROX    C367044  12.225   9.074  14.528
 8645PROX   H3167045  12.138   9.006  14.513
 8645PROX   H3267046  12.263   9.057  14.631
 8645PROX   H3367047  12.199   9.180  14.512
 8646ETHO    O167048  12.365   8.895  14.456
 8646ETHO    C167049  12.259   8.795  14.449
 8646ETHO   H1167050  12.203   8.788  14.354
 8646ETHO   H1367051  12.182   8.808  14.528
 8646ETHO    C267052  12.324   8.664  14.463
 8646ETHO   H2167053  12.426   8.660  14.418
 8646ETHO   H2367054  12.260   8.583  14.421
 8647ETHO    O167055  12.348   8.634  14.600
 8647ETHO    C167056  12.425   8.514  14.617
 8647ETHO   H1167057  12.384   8.461  14.705
 8647ETHO   H1367058  12.420   8.439  14.535
 8647ETHO    C267059  12.573   8.548  14.662
 8647ETHO   H2167060  12.620   8.459  14.710
 8647ETHO   H2367061  12.570   8.639  14.725
 8648ETHO    O167062  12.659   8.570  14.547
 8648ETHO    C167063  12.785   8.637  14.575
 8648ETHO   H1167064  12.762   8.720  14.646
 8648ETHO   H1367065  12.817   8.683  14.479
 8648ETHO    C267066  12.897   8.552  14.631
 8648ETHO   H2167067  12.986   8.617  14.617
 8648ETHO   H2367068  12.914   8.458  14.574
 8649ETHO    O167069  12.888   8.525  14.767
 8649ETHO    C167070  12.927   8.632  14.850
 8649ETHO   H1167071  12.880   8.728  14.820
 8649ETHO   H1367072  12.897   8.595  14.950
 8649ETHO    C267073  13.084   8.645  14.863
 8649ETHO   H2167074  13.133   8.545  14.857
 8649ETHO   H2367075  13.115   8.689  14.960
 8650ETHO    O167076  13.136   8.735  14.761
 8650ETHO    C167077  13.268   8.784  14.774
 8650ETHO   H1167078  13.344   8.705  14.793
 8650ETHO   H1367079  13.267   8.855  14.859
 8650ETHO    C267080  13.322   8.864  14.650
 8650ETHO   H2167081  13.418   8.905  14.689
 8650ETHO   H2367082  13.246   8.943  14.634
 8651ETHO    O167083  13.340   8.789  14.534
 8651ETHO    C167084  13.227   8.792  14.452
 8651ETHO   H1167085  13.140   8.771  14.518
 8651ETHO   H1367086  13.206   8.895  14.417
 8651ETHO    C267087  13.224   8.693  14.336
 8651ETHO   H2167088  13.330   8.662  14.328
 8651ETHO   H2367089  13.198   8.753  14.246
 8652ETHO    O167090  13.161   8.564  14.344
 8652ETHO    C167091  13.188   8.470  14.241
 8652ETHO   H1167092  13.276   8.416  14.281
 8652ETHO   H1367093  13.203   8.507  14.137
 8652ETHO    C267094  13.074   8.375  14.231
 8652ETHO   H2167095  13.080   8.323  14.133
 8652ETHO   H2367096  12.981   8.435  14.239
 8653ETHO    O167097  13.086   8.267  14.327
 8653ETHO    C167098  12.985   8.172  14.325
 8653ETHO   H1167099  12.887   8.224  14.318
 8653ETHO   H1367100  13.001   8.099  14.243
 8653ETHO    C267101  12.977   8.094  14.461
 8653ETHO   H2167102  13.079   8.069  14.496
 8653ETHO   H2367103  12.943   8.171  14.533
 8654ETHO    O167104  12.890   7.975  14.461
 8654ETHO    C167105  12.913   7.899  14.581
 8654ETHO   H1167106  12.908   7.792  14.552
 8654ETHO   H1367107  13.017   7.908  14.619
 8654ETHO    C267108  12.811   7.928  14.687
 8654ETHO   H2167109  12.710   7.931  14.642
 8654ETHO   H2367110  12.839   8.027  14.727
 8655ETHO    O167111  12.820   7.827  14.786
 8655ETHO    C167112  12.719   7.852  14.880
 8655ETHO   H1167113  12.737   7.952  14.924
 8655ETHO   H1367114  12.620   7.856  14.831
 8655ETHO    C267115  12.718   7.745  14.987
 8655ETHO   H2167116  12.774   7.654  14.956
 8655ETHO   H2367117  12.615   7.720  15.020
 8656ETHO    O167118  12.776   7.796  15.105
 8656ETHO    C167119  12.812   7.690  15.199
 8656ETHO   H1167120  12.799   7.726  15.303
 8656ETHO   H1367121  12.731   7.614  15.189
 8656ETHO    C267122  12.955   7.645  15.172
 8656ETHO   H2167123  12.974   7.606  15.070
 8656ETHO   H2367124  12.977   7.562  15.242
 8657ETHO    O167125  13.055   7.741  15.187
 8657ETHO    C167126  13.112   7.737  15.314
 8657ETHO   H1167127  13.180   7.650  15.328
 8657ETHO   H1367128  13.033   7.724  15.392
 8657ETHO    C267129  13.188   7.861  15.341
 8657ETHO   H2167130  13.250   7.890  15.253
 8657ETHO   H2367131  13.268   7.844  15.417
 8658ETHO    O167132  13.104   7.964  15.379
 8658ETHO    C167133  13.167   8.081  15.419
 8658ETHO   H1167134  13.239   8.102  15.337
 8658ETHO   H1367135  13.098   8.166  15.409
 8658ETHO    C267136  13.251   8.075  15.552
 8658ETHO   H2167137  13.320   8.162  15.550
 8658ETHO   H2367138  13.318   7.988  15.569
 8659ETHO    O167139  13.174   8.084  15.668
 8659ETHO    C167140  13.120   7.952  15.692
 8659ETHO   H1167141  13.196   7.872  15.704
 8659ETHO   H1367142  13.050   7.927  15.609
 8659ETHO    C267143  13.029   7.962  15.811
 8659ETHO   H2167144  12.953   7.883  15.796
 8659ETHO   H2367145  12.962   8.048  15.794
 8660ETHO    O167146  13.097   7.969  15.939
 8660ETHO    C167147  13.015   8.011  16.047
 8660ETHO   H1167148  12.995   8.120  16.042
 8660ETHO   H1367149  12.915   7.963  16.044
 8660ETHO    C267150  13.085   7.979  16.179
 8660ETHO   H2167151  13.129   7.880  16.155
 8660ETHO   H2367152  13.013   7.973  16.264
 8661ETHO    O167153  13.182   8.071  16.228
 8661ETHO    C167154  13.234   8.035  16.357
 8661ETHO   H1167155  13.313   7.957  16.343
 8661ETHO   H1367156  13.158   7.987  16.423
 8661ETHO    C267157  13.304   8.154  16.424
 8661ETHO   H2167158  13.385   8.193  16.359
 8661ETHO   H2367159  13.353   8.105  16.511
 8662ETHO    O167160  13.221   8.265  16.459
 8662ETHO    C167161  13.122   8.243  16.565
 8662ETHO   H1167162  13.069   8.340  16.578
 8662ETHO   H1367163  13.051   8.167  16.526
 8662ETHO    C267164  13.195   8.198  16.701
 8662ETHO   H2167165  13.133   8.243  16.781
 8662ETHO   H2367166  13.294   8.247  16.709
 8663ETHO    O167167  13.197   8.053  16.709
 8663ETHO    C167168  13.296   8.010  16.808
 8663ETHO   H1167169  13.260   8.050  16.905
 8663ETHO   H1367170  13.383   8.074  16.781
 8663ETHO    C267171  13.330   7.865  16.809
 8663ETHO   H2167172  13.231   7.816  16.806
 8663ETHO   H2367173  13.378   7.837  16.905
 8664ETHO    O167174  13.418   7.828  16.699
 8664ETHO    C167175  13.499   7.709  16.722
 8664ETHO   H1167176  13.571   7.729  16.804
 8664ETHO   H1367177  13.438   7.620  16.751
 8664ETHO    C267178  13.578   7.680  16.596
 8664ETHO   H2167179  13.606   7.573  16.609
 8664ETHO   H2367180  13.665   7.747  16.577
 8665ETHO    O167181  13.501   7.663  16.474
 8665ETHO    C167182  13.584   7.624  16.370
 8665ETHO   H1167183  13.681   7.678  16.369
 8665ETHO   H1367184  13.622   7.519  16.376
 8665ETHO    C267185  13.524   7.632  16.226
 8665ETHO   H2167186  13.423   7.587  16.226
 8665ETHO   H2367187  13.603   7.583  16.164
 8666ETHO    O167188  13.505   7.769  16.175
 8666ETHO    C167189  13.469   7.770  16.042
 8666ETHO   H1167190  13.555   7.741  15.979
 8666ETHO   H1367191  13.384   7.700  16.031
 8666ETHO    C267192  13.411   7.908  15.999
 8666ETHO   H2167193  13.324   7.930  16.063
 8666ETHO   H2367194  13.379   7.909  15.893
 8667ETHO    O167195  13.499   8.021  16.008
 8667ETHO    C167196  13.432   8.142  15.974
 8667ETHO   H1167197  13.354   8.134  15.895
 8667ETHO   H1367198  13.359   8.168  16.054
 8667ETHO    C267199  13.528   8.253  15.936
 8667ETHO   H2167200  13.593   8.288  16.020
 8667ETHO   H2367201  13.471   8.341  15.898
 8668ETHO    O167202  13.618   8.210  15.832
 8668ETHO    C167203  13.707   8.316  15.811
 8668ETHO   H1167204  13.665   8.419  15.811
 8668ETHO   H1367205  13.724   8.291  15.704
 8668ETHO    C267206  13.845   8.303  15.875
 8668ETHO   H2167207  13.924   8.353  15.813
 8668ETHO   H2367208  13.861   8.193  15.878
 8669ETHO    O167209  13.848   8.366  16.005
 8669ETHO    C167210  13.976   8.356  16.068
 8669ETHO   H1167211  13.967   8.272  16.140
 8669ETHO   H1367212  14.053   8.328  15.994
 8669ETHO    C267213  14.020   8.486  16.137
 8669ETHO   H2167214  14.038   8.569  16.066
 8669ETHO   H2367215  14.119   8.458  16.177
 8670ETHO    O167216  13.923   8.529  16.243
 8670ETHO    C167217  13.986   8.621  16.334
 8670ETHO   H1167218  14.084   8.586  16.374
 8670ETHO   H1367219  13.916   8.616  16.420
 8670ETHO    C267220  13.985   8.766  16.285
 8670ETHO   H2167221  14.008   8.838  16.367
 8670ETHO   H2367222  13.885   8.795  16.248
 8671ETHO    O167223  14.080   8.784  16.184
 8671ETHO    C167224  14.107   8.921  16.149
 8671ETHO   H1167225  14.021   8.989  16.130
 8671ETHO   H1367226  14.161   8.959  16.239
 8671ETHO    C267227  14.185   8.930  16.020
 8671ETHO   H2167228  14.272   8.861  16.023
 8671ETHO   H2367229  14.215   9.037  16.010
 8672ETHO    O167230  14.108   8.893  15.908
 8672ETHO    C167231  14.192   8.895  15.793
 8672ETHO   H1167232  14.126   8.870  15.707
 8672ETHO   H1367233  14.275   8.823  15.803
 8672ETHO    C267234  14.256   9.029  15.759
 8672ETHO   H2167235  14.196   9.112  15.803
 8672ETHO   H2367236  14.250   9.034  15.648
 8673ETHO    O167237  14.389   9.039  15.792
 8673ETHO    C167238  14.429   9.177  15.788
 8673ETHO   H1167239  14.391   9.236  15.702
 8673ETHO   H1367240  14.388   9.224  15.880
 8673ETHO    C267241  14.579   9.183  15.794
 8673ETHO   H2167242  14.618   9.123  15.879
 8673ETHO   H2367243  14.616   9.287  15.810
 8674ETHO    O167244  14.637   9.148  15.669
 8674ETHO    C167245  14.780   9.133  15.681
 8674ETHO   H1167246  14.825   9.206  15.751
 8674ETHO   H1367247  14.819   9.155  15.579
 8674ETHO    C267248  14.842   8.998  15.718
 8674ETHO   H2167249  14.951   9.019  15.715
 8674ETHO   H2367250  14.799   8.932  15.640
 8675ETHO    O167251  14.802   8.956  15.850
 8675ETHO    C167252  14.909   8.885  15.916
 8675ETHO   H1167253  14.947   8.806  15.847
 8675ETHO   H1367254  14.991   8.959  15.928
 8675ETHO    C267255  14.865   8.830  16.053
 8675ETHO   H2167256  14.840   8.917  16.116
 8675ETHO   H2367257  14.956   8.794  16.106
 8676ETHO    O167258  14.757   8.740  16.054
 8676ETHO    C167259  14.796   8.608  16.033
 8676ETHO   H1167260  14.708   8.543  16.015
 8676ETHO   H1367261  14.853   8.601  15.938
 8676ETHO    C267262  14.878   8.552  16.151
 8676ETHO   H2167263  14.975   8.603  16.169
 8676ETHO   H2367264  14.893   8.444  16.130
 8677ETHO    O167265  14.828   8.564  16.280
 8677ETHO    C167266  14.859   8.449  16.369
 8677ETHO   H1167267  14.845   8.348  16.325
 8677ETHO   H1367268  14.967   8.462  16.388
 8677ETHO    C267269  14.784   8.458  16.507
 8677ETHO   H2167270  14.818   8.556  16.546
 8677ETHO   H2367271  14.830   8.394  16.586
 8678ETHO    O167272  14.645   8.449  16.501
 8678ETHO    C167273  14.574   8.483  16.623
 8678ETHO   H1167274  14.645   8.527  16.697
 8678ETHO   H1367275  14.511   8.565  16.585
 8678ETHO    C267276  14.482   8.378  16.693
 8678ETHO   H2167277  14.424   8.333  16.610
 8678ETHO   H2367278  14.417   8.438  16.760
 8679ETHO    O167279  14.559   8.275  16.766
 8679ETHO    C167280  14.476   8.163  16.779
 8679ETHO   H1167281  14.372   8.192  16.802
 8679ETHO   H1367282  14.506   8.113  16.873
 8679ETHO    C267283  14.474   8.054  16.664
 8679ETHO   H2167284  14.434   8.105  16.574
 8679ETHO   H2367285  14.406   7.971  16.695
 8680ETHO    O167286  14.600   7.990  16.638
 8680ETHO    C167287  14.604   7.937  16.502
 8680ETHO   H1167288  14.530   7.855  16.497
 8680ETHO   H1367289  14.568   8.011  16.428
 8680ETHO    C267290  14.743   7.890  16.457
 8680ETHO   H2167291  14.808   7.840  16.532
 8680ETHO   H2367292  14.800   7.974  16.412
 8681ETHO    O167293  14.722   7.803  16.343
 8681ETHO    C167294  14.840   7.737  16.302
 8681ETHO   H1167295  14.873   7.671  16.385
 8681ETHO   H1367296  14.917   7.814  16.281
 8681ETHO    C267297  14.826   7.652  16.174
 8681ETHO   H2167298  14.742   7.581  16.168
 8681ETHO   H2367299  14.917   7.589  16.173
 8682ETHO    O167300  14.812   7.724  16.049
 8682ETHO    C167301  14.750   7.655  15.939
 8682ETHO   H1167302  14.797   7.554  15.942
 8682ETHO   H1367303  14.643   7.631  15.960
 8682ETHO    C267304  14.758   7.729  15.809
 8682ETHO   H2167305  14.717   7.661  15.731
 8682ETHO   H2367306  14.865   7.752  15.788
 8683ETHO    O167307  14.670   7.840  15.805
 8683ETHO    C167308  14.684   7.921  15.691
 8683ETHO   H1167309  14.791   7.949  15.686
 8683ETHO   H1367310  14.640   8.020  15.716
 8683ETHO    C267311  14.632   7.864  15.560
 8683ETHO   H2167312  14.661   7.764  15.520
 8683ETHO   H2367313  14.675   7.934  15.484
 8684ETHO    O167314  14.489   7.878  15.565
 8684ETHO    C167315  14.421   7.815  15.452
 8684ETHO   H1167316  14.474   7.816  15.354
 8684ETHO   H1367317  14.412   7.708  15.478
 8684ETHO    C267318  14.285   7.877  15.417
 8684ETHO   H2167319  14.229   7.905  15.510
 8684ETHO   H2367320  14.223   7.803  15.363
 8685ETHO    O167321  14.286   8.000  15.347
 8685ETHO    C167322  14.367   8.110  15.403
 8685ETHO   H1167323  14.477   8.101  15.393
 8685ETHO   H1367324  14.348   8.111  15.512
 8685ETHO    C267325  14.313   8.245  15.348
 8685ETHO   H2167326  14.333   8.254  15.239
 8685ETHO   H2367327  14.370   8.331  15.389
 8686ETHO    O167328  14.175   8.276  15.378
 8686ETHO    C167329  14.145   8.408  15.323
 8686ETHO   H1167330  14.202   8.437  15.232
 8686ETHO   H1367331  14.051   8.386  15.268
 8686ETHO    C267332  14.147   8.519  15.419
 8686ETHO   H2167333  14.082   8.596  15.373
 8686ETHO   H2367334  14.097   8.493  15.515
 8687ETHO    O167335  14.281   8.571  15.435
 8687ETHO    C167336  14.291   8.660  15.552
 8687ETHO   H1167337  14.280   8.606  15.649
 8687ETHO   H1367338  14.202   8.726  15.541
 8687ETHO    C267339  14.418   8.741  15.552
 8687ETHO   H2167340  14.381   8.842  15.580
 8687ETHO   H2367341  14.453   8.746  15.446
 8688ETHO    O167342  14.503   8.665  15.644
 8688ETHO    C167343  14.618   8.741  15.666
 8688ETHO   H1167344  14.614   8.837  15.609
 8688ETHO   H1367345  14.631   8.761  15.774
 8688ETHO    C267346  14.756   8.673  15.630
 8688ETHO   H2167347  14.740   8.564  15.614
 8688ETHO   H2367348  14.824   8.683  15.717
 8689ETHO    O167349  14.826   8.716  15.513
 8689ETHO    C167350  14.962   8.692  15.525
 8689ETHO   H1167351  14.993   8.589  15.555
 8689ETHO   H1367352  15.002   8.767  15.596
 8689ETHO    C267353  15.018   8.717  15.388
 8689ETHO   H2167354  15.128   8.729  15.394
 8689ETHO   H2367355  14.970   8.812  15.356
 8690ETHO    O167356  14.984   8.614  15.295
 8690ETHO    C167357  15.026   8.644  15.168
 8690ETHO   H1167358  15.035   8.750  15.136
 8690ETHO   H1367359  15.126   8.598  15.152
 8690ETHO    C267360  14.942   8.574  15.071
 8690ETHO   H2167361  14.915   8.471  15.102
 8690ETHO   H2367362  15.005   8.564  14.980
 8691ETHO    O167363  14.819   8.638  15.027
 8691ETHO    C167364  14.762   8.565  14.918
 8691ETHO   H1167365  14.803   8.595  14.820
 8691ETHO   H1367366  14.780   8.457  14.938
 8691ETHO    C267367  14.611   8.594  14.907
 8691ETHO   H2167368  14.587   8.574  14.800
 8691ETHO   H2367369  14.587   8.702  14.913
 8692ETHO    O167370  14.534   8.518  14.999
 8692ETHO    C167371  14.391   8.527  14.983
 8692ETHO   H1167372  14.357   8.541  15.088
 8692ETHO   H1367373  14.377   8.626  14.934
 8692ETHO    C267374  14.335   8.410  14.907
 8692ETHO   H2167375  14.419   8.404  14.835
 8692ETHO   H2367376  14.237   8.432  14.860
 8693ETHO    O167377  14.308   8.296  14.981
 8693ETHO    C167378  14.169   8.258  14.975
 8693ETHO   H1167379  14.106   8.343  15.009
 8693ETHO   H1367380  14.132   8.254  14.870
 8693ETHO    C267381  14.134   8.128  15.049
 8693ETHO   H2167382  14.158   8.150  15.155
 8693ETHO   H2367383  14.203   8.046  15.019
 8694ETHO    O167384  13.997   8.093  15.032
 8694ETHO    C167385  13.945   8.041  15.155
 8694ETHO   H1167386  13.988   8.083  15.248
 8694ETHO   H1367387  13.959   7.931  15.154
 8694ETHO    C267388  13.784   8.059  15.150
 8694ETHO   H2167389  13.759   8.164  15.123
 8694ETHO   H2367390  13.740   8.038  15.250
 8695ETHO    O167391  13.717   7.971  15.056
 8695ETHO    C167392  13.588   8.019  15.013
 8695ETHO   H1167393  13.524   8.026  15.104
 8695ETHO   H1367394  13.605   8.119  14.966
 8695ETHO    C267395  13.524   7.915  14.919
 8695ETHO   H2167396  13.420   7.953  14.913
 8695ETHO   H2367397  13.532   7.810  14.957
 8696ETHO    O167398  13.586   7.910  14.791
 8696ETHO    C167399  13.522   8.004  14.705
 8696ETHO   H1167400  13.588   8.034  14.621
 8696ETHO   H1367401  13.495   8.096  14.762
 8696ETHO    C267402  13.399   7.959  14.622
 8696ETHO   H2167403  13.361   8.055  14.581
 8696ETHO   H2367404  13.336   7.907  14.698
 8697ETHO    O167405  13.433   7.858  14.525
 8697ETHO    C167406  13.316   7.796  14.471
 8697ETHO   H1167407  13.345   7.691  14.452
 8697ETHO   H1367408  13.237   7.788  14.548
 8697ETHO    C267409  13.259   7.880  14.351
 8697ETHO   H2167410  13.246   7.984  14.389
 8697ETHO   H2367411  13.157   7.853  14.317
 8698ETHO    O167412  13.348   7.890  14.237
 8698ETHO    C167413  13.313   7.997  14.146
 8698ETHO   H1167414  13.326   8.096  14.194
 8698ETHO   H1367415  13.209   7.978  14.113
 8698ETHO    C267416  13.390   8.001  14.007
 8698ETHO   H2167417  13.332   8.063  13.934
 8698ETHO   H2367418  13.388   7.899  13.964
 8699ETHO    O167419  13.520   8.056  14.025
 8699ETHO    C167420  13.531   8.200  14.008
 8699ETHO   H1167421  13.512   8.223  13.901
 8699ETHO   H1367422  13.444   8.250  14.055
 8699ETHO    C267423  13.666   8.245  14.062
 8699ETHO   H2167424  13.677   8.351  14.029
 8699ETHO   H2367425  13.759   8.201  14.021
 8700ETHO    O167426  13.676   8.256  14.205
 8700ETHO    C167427  13.695   8.128  14.263
 8700ETHO   H1167428  13.748   8.061  14.193
 8700ETHO   H1367429  13.595   8.094  14.298
 8700ETHO    C267430  13.799   8.127  14.380
 8700ETHO   H2167431  13.892   8.171  14.340
 8700ETHO   H2367432  13.804   8.020  14.407
 8701ETHO    O167433  13.752   8.185  14.497
 8701ETHO    C167434  13.851   8.188  14.603
 8701ETHO   H1167435  13.886   8.086  14.631
 8701ETHO   H1367436  13.940   8.243  14.567
 8701ETHO    C267437  13.805   8.262  14.727
 8701ETHO   H2167438  13.895   8.253  14.792
 8701ETHO   H2367439  13.720   8.208  14.775
 8702ETHO    O167440  13.770   8.398  14.716
 8702ETHO    C167441  13.735   8.455  14.846
 8702ETHO   H1167442  13.715   8.378  14.924
 8702ETHO   H1367443  13.810   8.530  14.880
 8702ETHO    C267444  13.608   8.538  14.844
 8702ETHO   H2167445  13.606   8.606  14.756
 8702ETHO   H2367446  13.616   8.616  14.922
 8703ETHO    O167447  13.485   8.465  14.841
 8703ETHO    C167448  13.473   8.404  14.716
 8703ETHO   H1167449  13.499   8.476  14.635
 8703ETHO   H1367450  13.536   8.312  14.711
 8703ETHO    C267451  13.321   8.370  14.690
 8703ETHO   H2167452  13.319   8.332  14.586
 8703ETHO   H2367453  13.262   8.464  14.694
 8704ETHO    O167454  13.277   8.265  14.779
 8704ETHO    C167455  13.139   8.226  14.764
 8704ETHO   H1167456  13.066   8.308  14.781
 8704ETHO   H1367457  13.125   8.182  14.663
 8704ETHO    C267458  13.102   8.114  14.861
 8704ETHO   H2167459  12.992   8.105  14.849
 8704ETHO   H2367460  13.110   8.142  14.968
 8705ETHO    O167461  13.152   7.978  14.833
 8705ETHO    C167462  13.136   7.890  14.934
 8705ETHO   H1167463  13.028   7.894  14.960
 8705ETHO   H1367464  13.194   7.929  15.020
 8705ETHO    C267465  13.183   7.748  14.904
 8705ETHO   H2167466  13.173   7.693  15.000
 8705ETHO   H2367467  13.281   7.753  14.853
 8706ETHO    O167468  13.108   7.677  14.800
 8706ETHO    C167469  13.175   7.558  14.766
 8706ETHO   H1167470  13.128   7.505  14.681
 8706ETHO   H1367471  13.276   7.590  14.733
 8706ETHO    C267472  13.170   7.448  14.877
 8706ETHO   H2167473  13.191   7.346  14.839
 8706ETHO   H2367474  13.065   7.452  14.913
 8707ETHO    O167475  13.269   7.486  14.970
 8707ETHO    C167476  13.247   7.426  15.100
 8707ETHO   H1167477  13.214   7.320  15.100
 8707ETHO   H1367478  13.166   7.481  15.152
 8707ETHO    C267479  13.371   7.428  15.180
 8707ETHO   H2167480  13.355   7.392  15.284
 8707ETHO   H2367481  13.420   7.527  15.191
 8708ETHO    O167482  13.462   7.332  15.129
 8708ETHO    C167483  13.596   7.378  15.156
 8708ETHO   H1167484  13.618   7.484  15.128
 8708ETHO   H1367485  13.621   7.362  15.263
 8708ETHO    C267486  13.694   7.295  15.066
 8708ETHO   H2167487  13.684   7.187  15.089
 8708ETHO   H2367488  13.795   7.324  15.100
 8709ETHO    O167489  13.679   7.329  14.930
 8709ETHO    C167490  13.758   7.247  14.842
 8709ETHO   H1167491  13.749   7.137  14.848
 8709ETHO   H1367492  13.866   7.258  14.866
 8709ETHO    C267493  13.723   7.299  14.706
 8709ETHO   H2167494  13.787   7.257  14.625
 8709ETHO   H2367495  13.739   7.409  14.708
 8710ETHO    O167496  13.598   7.253  14.674
 8710ETHO    C167497  13.569   7.299  14.542
 8710ETHO   H1167498  13.620   7.397  14.529
 8710ETHO   H1367499  13.625   7.222  14.484
 8710ETHO    C267500  13.414   7.309  14.517
 8710ETHO   H2167501  13.391   7.344  14.414
 8710ETHO   H2367502  13.393   7.385  14.594
 8711ETHO    O167503  13.346   7.188  14.551
 8711ETHO    C167504  13.203   7.207  14.523
 8711ETHO   H1167505  13.179   7.302  14.472
 8711ETHO   H1367506  13.151   7.208  14.621
 8711ETHO    C267507  13.143   7.087  14.437
 8711ETHO   H2167508  13.195   7.095  14.339
 8711ETHO   H2367509  13.034   7.082  14.418
 8712ETHO    O167510  13.187   6.964  14.496
 8712ETHO    C167511  13.083   6.891  14.568
 8712ETHO   H1167512  13.048   6.961  14.647
 8712ETHO   H1367513  12.996   6.860  14.505
 8712ETHO    C267514  13.145   6.767  14.624
 8712ETHO   H2167515  13.089   6.720  14.708
 8712ETHO   H2367516  13.242   6.798  14.670
 8713ETHO    O167517  13.174   6.687  14.513
 8713ETHO    C167518  13.118   6.555  14.518
 8713ETHO   H1167519  13.154   6.505  14.610
 8713ETHO   H1367520  13.007   6.556  14.517
 8713ETHO    C267521  13.179   6.473  14.395
 8713ETHO   H2167522  13.174   6.540  14.306
 8713ETHO   H2367523  13.120   6.380  14.389
 8714ETHO    O167524  13.318   6.441  14.417
 8714ETHO    C167525  13.389   6.402  14.308
 8714ETHO   H1167526  13.326   6.331  14.249
 8714ETHO   H1367527  13.399   6.497  14.252
 8714ETHO    C267528  13.534   6.365  14.347
 8714ETHO   H2167529  13.586   6.438  14.412
 8714ETHO   H2367530  13.585   6.360  14.249
 8715ETHO    O167531  13.533   6.241  14.407
 8715ETHO    C167532  13.670   6.189  14.408
 8715ETHO   H1167533  13.720   6.188  14.309
 8715ETHO   H1367534  13.726   6.255  14.478
 8715ETHO    C267535  13.682   6.048  14.482
 8715ETHO   H2167536  13.622   6.049  14.576
 8715ETHO   H2367537  13.788   6.040  14.512
 8716ETHO    O167538  13.640   5.934  14.413
 8716ETHO    C167539  13.709   5.822  14.459
 8716ETHO   H1167540  13.678   5.797  14.563
 8716ETHO   H1367541  13.818   5.841  14.445
 8716ETHO    C267542  13.679   5.699  14.368
 8716ETHO   H2167543  13.722   5.607  14.414
 8716ETHO   H2367544  13.724   5.707  14.267
 8717ETHO    O167545  13.544   5.661  14.348
 8717ETHO    C167546  13.538   5.530  14.294
 8717ETHO   H1167547  13.573   5.543  14.189
 8717ETHO   H1367548  13.580   5.455  14.364
 8717ETHO    C267549  13.386   5.505  14.277
 8717ETHO   H2167550  13.375   5.426  14.200
 8717ETHO   H2367551  13.334   5.596  14.242
 8718ETHO    O167552  13.329   5.467  14.403
 8718ETHO    C167553  13.190   5.437  14.390
 8718ETHO   H1167554  13.140   5.512  14.327
 8718ETHO   H1367555  13.142   5.445  14.490
 8718ETHO    C267556  13.145   5.303  14.322
 8718ETHO   H2167557  13.166   5.304  14.213
 8718ETHO   H2367558  13.038   5.291  14.348
 8719ETHO    O167559  13.216   5.205  14.387
 8719ETHO    C167560  13.210   5.092  14.306
 8719ETHO   H1167561  13.122   5.079  14.239
 8719ETHO   H1367562  13.295   5.089  14.234
 8719ETHO    C267563  13.213   4.965  14.395
 8719ETHO   H2167564  13.310   4.963  14.450
 8719ETHO   H2367565  13.130   4.987  14.465
 8720ETHO    O167566  13.174   4.846  14.328
 8720ETHO    C167567  13.202   4.731  14.410
 8720ETHO   H1167568  13.169   4.761  14.512
 8720ETHO   H1367569  13.313   4.730  14.411
 8720ETHO    C267570  13.155   4.590  14.374
 8720ETHO   H2167571  13.205   4.516  14.440
 8720ETHO   H2367572  13.177   4.582  14.265
 8721ETHO    O167573  13.012   4.577  14.396
 8721ETHO    C167574  12.956   4.474  14.316
 8721ETHO   H1167575  12.848   4.497  14.305
 8721ETHO   H1367576  12.999   4.481  14.214
 8721ETHO    C267577  12.968   4.330  14.373
 8721ETHO   H2167578  13.073   4.313  14.405
 8721ETHO   H2367579  12.947   4.259  14.290
 8722ETHO    O167580  12.883   4.323  14.479
 8722ETHO    C167581  12.877   4.185  14.527
 8722ETHO   H1167582  12.962   4.174  14.597
 8722ETHO   H1367583  12.888   4.112  14.444
 8722ETHO    C267584  12.748   4.151  14.605
 8722ETHO   H2167585  12.733   4.239  14.672
 8722ETHO   H2367586  12.761   4.055  14.659
 8723ETHO    O167587  12.640   4.139  14.515
 8723ETHO    C167588  12.510   4.134  14.570
 8723ETHO   H1167589  12.497   4.045  14.636
 8723ETHO   H1367590  12.498   4.227  14.629
 8723ETHO    C267591  12.393   4.131  14.474
 8723ETHO   H2167592  12.396   4.230  14.423
 8723ETHO   H2367593  12.293   4.125  14.521
 8724ETHO    O167594  12.389   4.030  14.375
 8724ETHO    C167595  12.281   4.053  14.280
 8724ETHO   H1167596  12.312   4.133  14.209
 8724ETHO   H1367597  12.180   4.072  14.321
 8724ETHO    C267598  12.294   3.928  14.190
 8724ETHO   H2167599  12.402   3.907  14.172
 8724ETHO   H2367600  12.242   3.945  14.094
 8725ETHO    O167601  12.245   3.817  14.264
 8725ETHO    C167602  12.224   3.700  14.184
 8725ETHO   H1167603  12.136   3.719  14.120
 8725ETHO   H1367604  12.306   3.696  14.109
 8725ETHO    C267605  12.198   3.573  14.270
 8725ETHO   H2167606  12.176   3.494  14.195
 8725ETHO   H2367607  12.103   3.578  14.327
 8726ETHO    O167608  12.305   3.541  14.363
 8726ETHO    C167609  12.291   3.404  14.408
 8726ETHO   H1167610  12.324   3.339  14.325
 8726ETHO   H1367611  12.184   3.387  14.436
 8726ETHO    C267612  12.373   3.381  14.531
 8726ETHO   H2167613  12.477   3.406  14.502
 8726ETHO   H2367614  12.377   3.273  14.556
 8727ETHO    O167615  12.330   3.460  14.641
 8727ETHO    C167616  12.441   3.507  14.717
 8727ETHO   H1167617  12.518   3.430  14.736
 8727ETHO   H1367618  12.493   3.583  14.654
 8727ETHO    C267619  12.413   3.580  14.845
 8727ETHO   H2167620  12.304   3.596  14.863
 8727ETHO   H2367621  12.449   3.520  14.932
 8728ETHO    O167622  12.461   3.715  14.843
 8728ETHO    C167623  12.447   3.770  14.971
 8728ETHO   H1167624  12.366   3.729  15.035
 8728ETHO   H1367625  12.543   3.778  15.026
 8728ETHO    C267626  12.407   3.917  14.957
 8728ETHO   H2167627  12.475   3.971  14.888
 8728ETHO   H2367628  12.421   3.963  15.058
 8729ETHO    O167629  12.273   3.944  14.926
 8729ETHO    C167630  12.219   4.064  14.979
 8729ETHO   H1167631  12.120   4.074  14.929
 8729ETHO   H1367632  12.199   4.057  15.088
 8729ETHO    C267633  12.300   4.184  14.937
 8729ETHO   H2167634  12.233   4.272  14.944
 8729ETHO   H2367635  12.324   4.180  14.828
 8730ETHO    O167636  12.411   4.214  15.022
 8730ETHO    C167637  12.474   4.343  15.001
 8730ETHO   H1167638  12.486   4.360  14.892
 8730ETHO   H1367639  12.411   4.425  15.040
 8730ETHO    C267640  12.612   4.343  15.068
 8730ETHO   H2167641  12.664   4.435  15.034
 8730ETHO   H2367642  12.665   4.253  15.031
 8731ETHO    O167643  12.615   4.341  15.210
 8731ETHO    C167644  12.746   4.352  15.266
 8731ETHO   H1167645  12.805   4.435  15.221
 8731ETHO   H1367646  12.798   4.256  15.248
 8731ETHO    C267647  12.727   4.374  15.417
 8731ETHO   H2167648  12.663   4.464  15.433
 8731ETHO   H2367649  12.826   4.380  15.465
 8732ETHO    O167650  12.664   4.264  15.481
 8732ETHO    C167651  12.650   4.289  15.621
 8732ETHO   H1167652  12.736   4.342  15.667
 8732ETHO   H1367653  12.562   4.354  15.635
 8732ETHO    C267654  12.618   4.160  15.700
 8732ETHO   H2167655  12.537   4.100  15.654
 8732ETHO   H2367656  12.575   4.191  15.797
 8733ETHO    O167657  12.730   4.073  15.724
 8733ETHO    C167658  12.779   4.071  15.858
 8733ETHO   H1167659  12.799   4.174  15.894
 8733ETHO   H1367660  12.873   4.011  15.863
 8733ETHO    C267661  12.685   4.014  15.965
 8733ETHO   H2167662  12.748   4.004  16.057
 8733ETHO   H2367663  12.642   3.916  15.936
 8734ETHO    O167664  12.568   4.084  16.013
 8734ETHO    C167665  12.505   4.006  16.111
 8734ETHO   H1167666  12.461   3.914  16.066
 8734ETHO   H1367667  12.581   3.982  16.189
 8734ETHO    C267668  12.385   4.076  16.175
 8734ETHO   H2167669  12.410   4.175  16.219
 8734ETHO   H2367670  12.358   4.005  16.256
 8735ETHO    O167671  12.279   4.084  16.076
 8735ETHO    C167672  12.167   4.129  16.144
 8735ETHO   H1167673  12.192   4.218  16.206
 8735ETHO   H1367674  12.124   4.054  16.215
 8735ETHO    C267675  12.056   4.166  16.040
 8735ETHO   H2167676  11.968   4.203  16.098
 8735ETHO   H2367677  12.020   4.075  15.988
 8736ETHO    O167678  12.100   4.263  15.943
 8736ETHO    C167679  12.001   4.290  15.847
 8736ETHO   H1167680  11.986   4.202  15.781
 8736ETHO   H1367681  11.913   4.326  15.904
 8736ETHO    C267682  12.045   4.401  15.749
 8736ETHO   H2167683  12.055   4.497  15.804
 8736ETHO   H2367684  11.957   4.424  15.684
 8737ETHO    O167685  12.162   4.369  15.666
 8737ETHO    C167686  12.125   4.301  15.549
 8737ETHO   H1167687  12.044   4.350  15.491
 8737ETHO   H1367688  12.098   4.197  15.576
 8737ETHO    C267689  12.248   4.316  15.462
 8737ETHO   H2167690  12.214   4.265  15.370
 8737ETHO   H2367691  12.336   4.271  15.512
 8738ETHO    O167692  12.269   4.455  15.429
 8738ETHO    C167693  12.375   4.473  15.342
 8738ETHO   H1167694  12.454   4.414  15.393
 8738ETHO   H1367695  12.348   4.410  15.254
 8738ETHO    C267696  12.414   4.614  15.297
 8738ETHO   H2167697  12.523   4.628  15.281
 8738ETHO   H2367698  12.380   4.682  15.378
 8739ETHO    O167699  12.352   4.629  15.169
 8739ETHO    C167700  12.375   4.758  15.114
 8739ETHO   H1167701  12.301   4.829  15.157
 8739ETHO   H1367702  12.476   4.798  15.134
 8739ETHO    C267703  12.347   4.739  14.964
 8739ETHO   H2167704  12.336   4.842  14.924
 8739ETHO   H2367705  12.248   4.688  14.958
 8740ETHO    O167706  12.445   4.665  14.903
 8740ETHO    C167707  12.454   4.683  14.766
 8740ETHO   H1167708  12.362   4.627  14.738
 8740ETHO   H1367709  12.438   4.788  14.734
 8740ETHO    C267710  12.584   4.621  14.719
 8740ETHO   H2167711  12.561   4.622  14.610
 8740ETHO   H2367712  12.594   4.516  14.755
 8741ETHO    O167713  12.698   4.698  14.739
 8741ETHO    C167714  12.813   4.651  14.671
 8741ETHO   H1167715  12.807   4.541  14.655
 8741ETHO   H1367716  12.811   4.697  14.569
 8741ETHO    C267717  12.948   4.691  14.728
 8741ETHO   H2167718  13.021   4.634  14.666
 8741ETHO   H2367719  12.967   4.655  14.832
 8742ETHO    O167720  12.972   4.825  14.718
 8742ETHO    C167721  13.079   4.873  14.807
 8742ETHO   H1167722  13.177   4.824  14.788
 8742ETHO   H1367723  13.039   4.856  14.909
 8742ETHO    C267724  13.114   5.017  14.778
 8742ETHO   H2167725  13.159   5.030  14.677
 8742ETHO   H2367726  13.189   5.060  14.847
 8743ETHO    O167727  12.997   5.103  14.774
 8743ETHO    C167728  13.018   5.216  14.697
 8743ETHO   H1167729  12.926   5.269  14.663
 8743ETHO   H1367730  13.069   5.194  14.601
 8743ETHO    C267731  13.108   5.317  14.772
 8743ETHO   H2167732  13.115   5.410  14.712
 8743ETHO   H2367733  13.209   5.275  14.791
 8744ETHO    O167734  13.064   5.347  14.904
 8744ETHO    C167735  13.098   5.478  14.942
 8744ETHO   H1167736  13.096   5.542  14.851
 8744ETHO   H1367737  13.201   5.485  14.981
 8744ETHO    C267738  13.004   5.518  15.054
 8744ETHO   H2167739  13.031   5.615  15.102
 8744ETHO   H2367740  13.013   5.439  15.131
 8745ETHO    O167741  12.877   5.531  14.998
 8745ETHO    C167742  12.778   5.545  15.105
 8745ETHO   H1167743  12.764   5.451  15.163
 8745ETHO   H1367744  12.792   5.643  15.155
 8745ETHO    C267745  12.637   5.557  15.030
 8745ETHO   H2167746  12.639   5.651  14.971
 8745ETHO   H2367747  12.559   5.563  15.109
 8745ETHO    OZ67748  12.600   5.442  14.949
 8745ETHO   HZ167749  12.514   5.469  14.915
 8746ETHO    O167750   9.967   6.877  15.234
 8746ETHO   HO167751   9.923   6.962  15.235
 8746ETHO    C167752   9.990   6.850  15.371
 8746ETHO   H1167753   9.899   6.797  15.406
 8746ETHO   H1367754  10.015   6.944  15.425
 8746ETHO    C267755  10.107   6.752  15.383
 8746ETHO   H2167756  10.076   6.666  15.319
 8746ETHO   H2367757  10.121   6.727  15.491
 8747ETHO    O167758  10.228   6.804  15.325
 8747ETHO    C167759  10.338   6.715  15.344
 8747ETHO   H1167760  10.386   6.740  15.441
 8747ETHO   H1367761  10.297   6.612  15.345
 8747ETHO    C267762  10.459   6.746  15.245
 8747ETHO   H2167763  10.546   6.681  15.267
 8747ETHO   H2367764  10.495   6.850  15.262
 8748ETHO    O167765  10.436   6.738  15.100
 8748ETHO    C167766  10.551   6.775  15.030
 8748ETHO   H1167767  10.633   6.710  15.068
 8748ETHO   H1367768  10.581   6.878  15.059
 8748ETHO    C267769  10.533   6.757  14.874
 8748ETHO   H2167770  10.505   6.651  14.857
 8748ETHO   H2367771  10.627   6.782  14.820
 8749ETHO    O167772  10.438   6.850  14.823
 8749ETHO    C167773  10.453   6.876  14.682
 8749ETHO   H1167774  10.528   6.812  14.630
 8749ETHO   H1367775  10.359   6.828  14.647
 8749ETHO    C267776  10.459   7.028  14.640
 8749ETHO   H2167777  10.494   7.039  14.535
 8749ETHO   H2367778  10.537   7.079  14.700
 8750ETHO    O167779  10.337   7.090  14.646
 8750ETHO    C167780  10.346   7.235  14.651
 8750ETHO   H1167781  10.333   7.262  14.758
 8750ETHO   H1367782  10.441   7.282  14.617
 8750ETHO    C267783  10.236   7.295  14.559
 8750ETHO   H2167784  10.235   7.252  14.457
 8750ETHO   H2367785  10.257   7.402  14.538
 8751ETHO    O167786  10.105   7.294  14.611
 8751ETHO    C167787  10.013   7.341  14.518
 8751ETHO   H1167788   9.935   7.398  14.573
 8751ETHO   H1367789  10.057   7.419  14.452
 8751ETHO    C267790   9.956   7.227  14.429
 8751ETHO   H2167791   9.861   7.264  14.384
 8751ETHO   H2367792   9.921   7.148  14.499
 8752ETHO    O167793  10.046   7.185  14.329
 8752ETHO    C167794   9.986   7.084  14.245
 8752ETHO   H1167795   9.985   6.983  14.293
 8752ETHO   H1367796   9.884   7.113  14.213
 8752ETHO    C267797  10.072   7.074  14.115
 8752ETHO   H2167798  10.074   7.175  14.070
 8752ETHO   H2367799  10.020   6.997  14.054
 8753ETHO    O167800  10.201   7.040  14.153
 8753ETHO    C167801  10.260   6.954  14.056
 8753ETHO   H1167802  10.252   7.004  13.957
 8753ETHO   H1367803  10.202   6.859  14.050
 8753ETHO    C267804  10.405   6.933  14.083
 8753ETHO   H2167805  10.448   7.029  14.118
 8753ETHO   H2367806  10.463   6.907  13.992
 8754ETHO    O167807  10.427   6.839  14.189
 8754ETHO    C167808  10.425   6.699  14.156
 8754ETHO   H1167809  10.324   6.653  14.155
 8754ETHO   H1367810  10.464   6.689  14.053
 8754ETHO    C267811  10.519   6.610  14.245
 8754ETHO   H2167812  10.624   6.645  14.232
 8754ETHO   H2367813  10.523   6.508  14.202
 8755ETHO    O167814  10.488   6.616  14.381
 8755ETHO    C167815  10.553   6.511  14.456
 8755ETHO   H1167816  10.533   6.411  14.413
 8755ETHO   H1367817  10.536   6.532  14.564
 8755ETHO    C267818  10.708   6.526  14.453
 8755ETHO   H2167819  10.756   6.499  14.549
 8755ETHO   H2367820  10.718   6.637  14.447
 8756ETHO    O167821  10.776   6.471  14.338
 8756ETHO    C167822  10.914   6.511  14.343
 8756ETHO   H1167823  10.931   6.620  14.358
 8756ETHO   H1367824  10.958   6.456  14.429
 8756ETHO    C267825  11.004   6.486  14.211
 8756ETHO   H2167826  11.109   6.500  14.241
 8756ETHO   H2367827  10.983   6.380  14.183
 8757ETHO    O167828  10.978   6.577  14.104
 8757ETHO    C167829  10.857   6.553  14.037
 8757ETHO   H1167830  10.775   6.552  14.113
 8757ETHO   H1367831  10.862   6.451  13.992
 8757ETHO    C267832  10.836   6.663  13.936
 8757ETHO   H2167833  10.861   6.767  13.965
 8757ETHO   H2367834  10.729   6.647  13.909
 8758ETHO    O167835  10.917   6.624  13.824
 8758ETHO    C167836  10.916   6.720  13.715
 8758ETHO   H1167837  10.946   6.820  13.752
 8758ETHO   H1367838  10.987   6.684  13.638
 8758ETHO    C267839  10.775   6.728  13.644
 8758ETHO   H2167840  10.754   6.818  13.583
 8758ETHO   H2367841  10.687   6.733  13.711
 8759ETHO    O167842  10.746   6.614  13.559
 8759ETHO    C167843  10.630   6.635  13.474
 8759ETHO   H1167844  10.626   6.731  13.418
 8759ETHO   H1367845  10.540   6.636  13.538
 8759ETHO    C267846  10.609   6.522  13.380
 8759ETHO   H2167847  10.503   6.529  13.349
 8759ETHO   H2367848  10.637   6.428  13.432
 8760ETHO    O167849  10.695   6.527  13.266
 8760ETHO    C167850  10.631   6.574  13.150
 8760ETHO   H1167851  10.535   6.524  13.127
 8760ETHO   H1367852  10.603   6.679  13.172
 8760ETHO    C267853  10.730   6.573  13.029
 8760ETHO   H2167854  10.687   6.645  12.957
 8760ETHO   H2367855  10.826   6.613  13.070
 8761ETHO    O167856  10.744   6.444  12.974
 8761ETHO    C167857  10.808   6.445  12.847
 8761ETHO   H1167858  10.729   6.457  12.770
 8761ETHO   H1367859  10.886   6.524  12.849
 8761ETHO    C267860  10.893   6.312  12.838
 8761ETHO   H2167861  10.945   6.314  12.740
 8761ETHO   H2367862  10.827   6.223  12.845
 8762ETHO    O167863  10.990   6.310  12.944
 8762ETHO    C167864  11.078   6.198  12.927
 8762ETHO   H1167865  11.020   6.113  12.886
 8762ETHO   H1367866  11.156   6.216  12.850
 8762ETHO    C267867  11.142   6.164  13.054
 8762ETHO   H2167868  11.104   6.220  13.143
 8762ETHO   H2367869  11.248   6.193  13.036
 8763ETHO    O167870  11.135   6.032  13.076
 8763ETHO    C167871  11.202   5.998  13.193
 8763ETHO   H1167872  11.223   5.889  13.186
 8763ETHO   H1367873  11.294   6.056  13.215
 8763ETHO    C267874  11.101   6.005  13.310
 8763ETHO   H2167875  11.053   6.105  13.308
 8763ETHO   H2367876  11.158   5.987  13.403
 8764ETHO    O167877  11.005   5.904  13.299
 8764ETHO    C167878  10.901   5.910  13.394
 8764ETHO   H1167879  10.816   5.968  13.351
 8764ETHO   H1367880  10.919   5.977  13.481
 8764ETHO    C267881  10.846   5.776  13.433
 8764ETHO   H2167882  10.786   5.729  13.352
 8764ETHO   H2367883  10.778   5.781  13.520
 8765ETHO    O167884  10.946   5.686  13.482
 8765ETHO    C167885  11.018   5.737  13.595
 8765ETHO   H1167886  11.100   5.805  13.564
 8765ETHO   H1367887  10.945   5.786  13.662
 8765ETHO    C267888  11.092   5.625  13.675
 8765ETHO   H2167889  11.170   5.666  13.744
 8765ETHO   H2367890  11.136   5.548  13.609
 8766ETHO    O167891  10.989   5.554  13.746
 8766ETHO    C167892  11.030   5.425  13.798
 8766ETHO   H1167893  11.011   5.430  13.908
 8766ETHO   H1367894  11.140   5.408  13.793
 8766ETHO    C267895  10.942   5.313  13.734
 8766ETHO   H2167896  10.834   5.337  13.737
 8766ETHO   H2367897  10.961   5.224  13.797
 8767ETHO    O167898  10.981   5.270  13.604
 8767ETHO    C167899  10.917   5.353  13.507
 8767ETHO   H1167900  10.806   5.354  13.510
 8767ETHO   H1367901  10.944   5.459  13.524
 8767ETHO    C267902  10.964   5.312  13.367
 8767ETHO   H2167903  10.934   5.206  13.362
 8767ETHO   H2367904  10.910   5.364  13.284
 8768ETHO    O167905  11.104   5.329  13.363
 8768ETHO    C167906  11.162   5.308  13.232
 8768ETHO   H1167907  11.142   5.396  13.168
 8768ETHO   H1367908  11.100   5.224  13.194
 8768ETHO    C267909  11.311   5.268  13.236
 8768ETHO   H2167910  11.362   5.349  13.293
 8768ETHO   H2367911  11.348   5.278  13.132
 8769ETHO    O167912  11.335   5.144  13.287
 8769ETHO    C167913  11.472   5.117  13.289
 8769ETHO   H1167914  11.499   5.141  13.185
 8769ETHO   H1367915  11.527   5.187  13.355
 8769ETHO    C267916  11.490   4.971  13.341
 8769ETHO   H2167917  11.445   4.949  13.440
 8769ETHO   H2367918  11.599   4.951  13.349
 8770ETHO    O167919  11.446   4.873  13.247
 8770ETHO    C167920  11.444   4.732  13.298
 8770ETHO   H1167921  11.336   4.707  13.305
 8770ETHO   H1367922  11.481   4.737  13.402
 8770ETHO    C267923  11.522   4.634  13.205
 8770ETHO   H2167924  11.457   4.636  13.115
 8770ETHO   H2367925  11.507   4.530  13.239
 8771ETHO    O167926  11.658   4.671  13.182
 8771ETHO    C167927  11.736   4.565  13.121
 8771ETHO   H1167928  11.828   4.556  13.182
 8771ETHO   H1367929  11.675   4.472  13.120
 8771ETHO    C267930  11.763   4.605  12.979
 8771ETHO   H2167931  11.858   4.553  12.956
 8771ETHO   H2367932  11.777   4.715  12.970
 8772ETHO    O167933  11.651   4.554  12.901
 8772ETHO    C167934  11.689   4.550  12.758
 8772ETHO   H1167935  11.754   4.463  12.737
 8772ETHO   H1367936  11.752   4.638  12.731
 8772ETHO    C267937  11.566   4.528  12.667
 8772ETHO   H2167938  11.513   4.436  12.700
 8772ETHO   H2367939  11.591   4.506  12.561
 8773ETHO    O167940  11.487   4.655  12.674
 8773ETHO    C167941  11.380   4.656  12.573
 8773ETHO   H1167942  11.435   4.646  12.477
 8773ETHO   H1367943  11.304   4.575  12.576
 8773ETHO    C267944  11.305   4.791  12.565
 8773ETHO   H2167945  11.265   4.797  12.462
 8773ETHO   H2367946  11.378   4.871  12.587
 8774ETHO    O167947  11.187   4.819  12.649
 8774ETHO    C167948  11.229   4.859  12.778
 8774ETHO   H1167949  11.267   4.962  12.758
 8774ETHO   H1367950  11.299   4.783  12.818
 8774ETHO    C267951  11.104   4.882  12.870
 8774ETHO   H2167952  11.147   4.878  12.973
 8774ETHO   H2367953  11.038   4.794  12.852
 8775ETHO    O167954  11.032   5.007  12.848
 8775ETHO    C167955  11.071   5.111  12.935
 8775ETHO   H1167956  11.052   5.081  13.040
 8775ETHO   H1367957  11.178   5.130  12.913
 8775ETHO    C267958  10.991   5.238  12.922
 8775ETHO   H2167959  10.974   5.247  12.812
 8775ETHO   H2367960  11.032   5.331  12.965
 8776ETHO    O167961  10.863   5.216  12.984
 8776ETHO    C167962  10.782   5.330  12.955
 8776ETHO   H1167963  10.757   5.333  12.847
 8776ETHO   H1367964  10.686   5.306  13.006
 8776ETHO    C267965  10.824   5.469  13.006
 8776ETHO   H2167966  10.849   5.466  13.114
 8776ETHO   H2367967  10.732   5.531  13.010
 8777ETHO    O167968  10.921   5.532  12.920
 8777ETHO    C167969  10.989   5.636  12.988
 8777ETHO   H1167970  10.923   5.718  13.024
 8777ETHO   H1367971  11.033   5.591  13.079
 8777ETHO    C267972  11.112   5.695  12.905
 8777ETHO   H2167973  11.152   5.610  12.845
 8777ETHO   H2367974  11.192   5.728  12.975
 8778ETHO    O167975  11.081   5.796  12.816
 8778ETHO    C167976  11.204   5.866  12.778
 8778ETHO   H1167977  11.245   5.911  12.871
 8778ETHO   H1367978  11.288   5.802  12.743
 8778ETHO    C267979  11.169   5.973  12.669
 8778ETHO   H2167980  11.086   6.038  12.703
 8778ETHO   H2367981  11.138   5.929  12.572
 8779ETHO    O167982  11.279   6.069  12.662
 8779ETHO    C167983  11.247   6.177  12.570
 8779ETHO   H1167984  11.180   6.245  12.627
 8779ETHO   H1367985  11.189   6.149  12.479
 8779ETHO    C267986  11.359   6.260  12.512
 8779ETHO   H2167987  11.435   6.280  12.591
 8779ETHO   H2367988  11.332   6.357  12.466
 8780ETHO    O167989  11.423   6.184  12.414
 8780ETHO    C167990  11.542   6.248  12.360
 8780ETHO   H1167991  11.514   6.341  12.306
 8780ETHO   H1367992  11.608   6.274  12.446
 8780ETHO    C267993  11.613   6.161  12.263
 8780ETHO   H2167994  11.684   6.217  12.200
 8780ETHO   H2367995  11.532   6.118  12.200
 8781ETHO    O167996  11.675   6.048  12.322
 8781ETHO    C167997  11.677   5.941  12.223
 8781ETHO   H1167998  11.714   5.980  12.125
 8781ETHO   H1367999  11.578   5.890  12.220
 8781ETHO    C268000  11.778   5.828  12.264
 8781ETHO   H2168001  11.772   5.743  12.193
 8781ETHO   H2368002  11.759   5.800  12.370
 8782ETHO    O168003  11.903   5.892  12.247
 8782ETHO    C168004  12.011   5.797  12.258
 8782ETHO   H1168005  12.011   5.756  12.361
 8782ETHO   H1368006  11.999   5.708  12.193
 8782ETHO    C268007  12.139   5.875  12.223
 8782ETHO   H2168008  12.127   5.921  12.123
 8782ETHO   H2368009  12.220   5.799  12.217
 8783ETHO    O168010  12.174   5.980  12.310
 8783ETHO    C168011  12.314   6.004  12.303
 8783ETHO   H1168012  12.369   5.911  12.277
 8783ETHO   H1368013  12.352   6.045  12.400
 8783ETHO    C268014  12.355   6.097  12.185
 8783ETHO   H2168015  12.457   6.135  12.206
 8783ETHO   H2368016  12.284   6.183  12.184
 8784ETHO    O168017  12.352   6.027  12.063
 8784ETHO    C168018  12.486   6.005  12.014
 8784ETHO   H1168019  12.536   6.101  11.989
 8784ETHO   H1368020  12.549   5.960  12.095
 8784ETHO    C268021  12.476   5.922  11.882
 8784ETHO   H2168022  12.581   5.914  11.846
 8784ETHO   H2368023  12.421   5.981  11.806
 8785ETHO    O168024  12.418   5.796  11.908
 8785ETHO    C168025  12.509   5.708  11.957
 8785ETHO   H1168026  12.571   5.754  12.037
 8785ETHO   H1368027  12.573   5.687  11.868
 8785ETHO    C268028  12.441   5.573  11.993
 8785ETHO   H2168029  12.520   5.495  11.988
 8785ETHO   H2368030  12.378   5.541  11.908
 8786ETHO    O168031  12.360   5.563  12.108
 8786ETHO    C168032  12.439   5.590  12.222
 8786ETHO   H1168033  12.544   5.563  12.197
 8786ETHO   H1368034  12.449   5.700  12.223
 8786ETHO    C268035  12.395   5.528  12.352
 8786ETHO   H2168036  12.286   5.544  12.366
 8786ETHO   H2368037  12.444   5.564  12.444
 8787ETHO    O168038  12.401   5.390  12.357
 8787ETHO    C168039  12.364   5.344  12.487
 8787ETHO   H1168040  12.459   5.339  12.545
 8787ETHO   H1368041  12.286   5.405  12.536
 8787ETHO    C268042  12.311   5.197  12.487
 8787ETHO   H2168043  12.385   5.119  12.457
 8787ETHO   H2368044  12.229   5.191  12.412
 8788ETHO    O168045  12.277   5.145  12.610
 8788ETHO    C168046  12.225   5.009  12.602
 8788ETHO   H1168047  12.118   5.019  12.574
 8788ETHO   H1368048  12.278   4.957  12.520
 8788ETHO    C268049  12.226   4.939  12.739
 8788ETHO   H2168050  12.324   4.945  12.791
 8788ETHO   H2368051  12.201   4.831  12.726
 8789ETHO    O168052  12.124   4.996  12.824
 8789ETHO    C168053  12.118   4.928  12.947
 8789ETHO   H1168054  12.133   4.819  12.930
 8789ETHO   H1368055  12.199   4.969  13.010
 8789ETHO    C268056  11.976   4.939  13.016
 8789ETHO   H2168057  11.982   4.883  13.112
 8789ETHO   H2368058  11.902   4.884  12.955
 8790ETHO    O168059  11.930   5.074  13.033
 8790ETHO    C168060  11.787   5.096  13.023
 8790ETHO   H1168061  11.736   5.044  13.107
 8790ETHO   H1368062  11.753   5.065  12.922
 8790ETHO    C268063  11.740   5.243  13.035
 8790ETHO   H2168064  11.639   5.244  12.990
 8790ETHO   H2368065  11.799   5.308  12.967
 8791ETHO    O168066  11.748   5.284  13.171
 8791ETHO    C168067  11.704   5.421  13.188
 8791ETHO   H1168068  11.767   5.486  13.123
 8791ETHO   H1368069  11.600   5.424  13.149
 8791ETHO    C268070  11.704   5.478  13.329
 8791ETHO   H2168071  11.686   5.587  13.319
 8791ETHO   H2368072  11.802   5.466  13.379
 8792ETHO    O168073  11.605   5.408  13.402
 8792ETHO    C168074  11.588   5.451  13.537
 8792ETHO   H1168075  11.689   5.479  13.576
 8792ETHO   H1368076  11.540   5.373  13.599
 8792ETHO    C268077  11.491   5.570  13.533
 8792ETHO   H2168078  11.462   5.593  13.637
 8792ETHO   H2368079  11.405   5.551  13.466
 8793ETHO    O168080  11.553   5.693  13.492
 8793ETHO    C168081  11.457   5.799  13.505
 8793ETHO   H1168082  11.399   5.805  13.411
 8793ETHO   H1368083  11.391   5.782  13.593
 8793ETHO    C268084  11.524   5.940  13.511
 8793ETHO   H2168085  11.614   5.947  13.575
 8793ETHO   H2368086  11.555   5.967  13.408
 8794ETHO    O168087  11.418   6.035  13.554
 8794ETHO    C168088  11.460   6.168  13.547
 8794ETHO   H1168089  11.512   6.191  13.452
 8794ETHO   H1368090  11.540   6.166  13.625
 8794ETHO    C268091  11.349   6.265  13.586
 8794ETHO   H2168092  11.401   6.360  13.610
 8794ETHO   H2368093  11.293   6.225  13.673
 8795ETHO    O168094  11.259   6.292  13.479
 8795ETHO    C168095  11.136   6.357  13.524
 8795ETHO   H1168096  11.070   6.290  13.584
 8795ETHO   H1368097  11.162   6.437  13.597
 8795ETHO    C268098  11.055   6.428  13.417
 8795ETHO   H2168099  10.959   6.452  13.466
 8795ETHO   H2368100  11.035   6.356  13.334
 8796ETHO    O168101  11.109   6.547  13.361
 8796ETHO    C168102  11.017   6.611  13.279
 8796ETHO   H1168103  10.933   6.653  13.339
 8796ETHO   H1368104  10.985   6.530  13.211
 8796ETHO    C268105  11.083   6.723  13.196
 8796ETHO   H2168106  11.035   6.742  13.097
 8796ETHO   H2368107  11.188   6.689  13.188
 8797ETHO    O168108  11.088   6.844  13.269
 8797ETHO    C168109  11.186   6.934  13.226
 8797ETHO   H1168110  11.190   6.930  13.115
 8797ETHO   H1368111  11.150   7.036  13.248
 8797ETHO    C268112  11.328   6.911  13.294
 8797ETHO   H2168113  11.329   6.930  13.403
 8797ETHO   H2368114  11.406   6.982  13.260
 8798ETHO    O168115  11.384   6.784  13.251
 8798ETHO    C168116  11.519   6.772  13.299
 8798ETHO   H1168117  11.579   6.689  13.256
 8798ETHO   H1368118  11.567   6.870  13.278
 8798ETHO    C268119  11.535   6.739  13.449
 8798ETHO   H2168120  11.456   6.666  13.478
 8798ETHO   H2368121  11.509   6.826  13.514
 8799ETHO    O168122  11.662   6.685  13.484
 8799ETHO    C168123  11.673   6.549  13.451
 8799ETHO   H1168124  11.576   6.501  13.425
 8799ETHO   H1368125  11.736   6.546  13.360
 8799ETHO    C268126  11.750   6.470  13.553
 8799ETHO   H2168127  11.840   6.531  13.578
 8799ETHO   H2368128  11.790   6.375  13.512
 8800ETHO    O168129  11.680   6.436  13.666
 8800ETHO    C168130  11.763   6.377  13.767
 8800ETHO   H1168131  11.820   6.292  13.722
 8800ETHO   H1368132  11.836   6.452  13.804
 8800ETHO    C268133  11.677   6.324  13.878
 8800ETHO   H2168134  11.744   6.325  13.967
 8800ETHO   H2368135  11.589   6.387  13.900
 8801ETHO    O168136  11.648   6.184  13.858
 8801ETHO    C168137  11.539   6.143  13.934
 8801ETHO   H1168138  11.450   6.208  13.920
 8801ETHO   H1368139  11.562   6.161  14.041
 8801ETHO    C268140  11.508   5.997  13.915
 8801ETHO   H2168141  11.487   5.994  13.805
 8801ETHO   H2368142  11.421   5.962  13.975
 8802ETHO    O168143  11.617   5.913  13.940
 8802ETHO    C168144  11.588   5.785  13.894
 8802ETHO   H1168145  11.489   5.748  13.927
 8802ETHO   H1368146  11.591   5.778  13.783
 8802ETHO    C268147  11.686   5.680  13.958
 8802ETHO   H2168148  11.647   5.580  13.929
 8802ETHO   H2368149  11.696   5.691  14.068
 8803ETHO    O168150  11.813   5.691  13.905
 8803ETHO    C168151  11.906   5.611  13.978
 8803ETHO   H1168152  11.981   5.588  13.900
 8803ETHO   H1368153  11.863   5.512  14.005
 8803ETHO    C268154  11.967   5.696  14.084
 8803ETHO   H2168155  11.998   5.633  14.171
 8803ETHO   H2368156  11.893   5.766  14.130
 8804ETHO    O168157  12.075   5.774  14.024
 8804ETHO    C168158  12.135   5.857  14.125
 8804ETHO   H1168159  12.063   5.931  14.167
 8804ETHO   H1368160  12.184   5.798  14.206
 8804ETHO    C268161  12.245   5.944  14.056
 8804ETHO   H2168162  12.314   5.883  13.993
 8804ETHO   H2368163  12.310   5.990  14.133
 8805ETHO    O168164  12.192   6.049  13.974
 8805ETHO    C168165  12.135   5.996  13.848
 8805ETHO   H1168166  12.031   5.965  13.872
 8805ETHO   H1368167  12.191   5.907  13.811
 8805ETHO    C268168  12.153   6.108  13.749
 8805ETHO   H2168169  12.251   6.159  13.756
 8805ETHO   H2368170  12.072   6.181  13.774
 8806ETHO    O168171  12.128   6.054  13.617
 8806ETHO    C168172  11.993   6.016  13.600
 8806ETHO   H1168173  11.970   5.918  13.646
 8806ETHO   H1368174  11.930   6.091  13.652
 8806ETHO    C268175  11.955   5.986  13.454
 8806ETHO   H2168176  12.031   5.909  13.429
 8806ETHO   H2368177  11.963   6.083  13.399
 8807ETHO    O168178  11.828   5.934  13.437
 8807ETHO    C168179  11.802   5.897  13.304
 8807ETHO   H1168180  11.712   5.833  13.316
 8807ETHO   H1368181  11.885   5.832  13.269
 8807ETHO    C268182  11.780   6.010  13.207
 8807ETHO   H2168183  11.880   6.045  13.174
 8807ETHO   H2368184  11.724   6.092  13.257
 8808ETHO    O168185  11.712   5.977  13.088
 8808ETHO    C168186  11.679   6.094  13.022
 8808ETHO   H1168187  11.596   6.145  13.074
 8808ETHO   H1368188  11.771   6.155  13.009
 8808ETHO    C268189  11.624   6.046  12.887
 8808ETHO   H2168190  11.595   6.134  12.825
 8808ETHO   H2368191  11.526   5.997  12.900
 8809ETHO    O168192  11.719   5.969  12.811
 8809ETHO    C168193  11.819   6.052  12.748
 8809ETHO   H1168194  11.874   6.109  12.826
 8809ETHO   H1368195  11.769   6.115  12.672
 8809ETHO    C268196  11.906   5.965  12.663
 8809ETHO   H2168197  11.990   6.026  12.622
 8809ETHO   H2368198  11.848   5.922  12.579
 8810ETHO    O168199  11.963   5.866  12.747
 8810ETHO    C168200  12.043   5.771  12.687
 8810ETHO   H1168201  12.083   5.702  12.765
 8810ETHO   H1368202  11.984   5.708  12.618
 8810ETHO    C268203  12.154   5.826  12.601
 8810ETHO   H2168204  12.131   5.905  12.525
 8810ETHO   H2368205  12.183   5.738  12.539
 8811ETHO    O168206  12.275   5.866  12.675
 8811ETHO    C168207  12.354   5.758  12.722
 8811ETHO   H1168208  12.347   5.676  12.647
 8811ETHO   H1368209  12.306   5.715  12.813
 8811ETHO    C268210  12.501   5.785  12.749
 8811ETHO   H2168211  12.550   5.831  12.660
 8811ETHO   H2368212  12.549   5.686  12.765
 8812ETHO    O168213  12.505   5.868  12.862
 8812ETHO    C168214  12.631   5.860  12.923
 8812ETHO   H1168215  12.640   5.753  12.952
 8812ETHO   H1368216  12.707   5.879  12.844
 8812ETHO    C268217  12.627   5.959  13.043
 8812ETHO   H2168218  12.606   6.061  13.005
 8812ETHO   H2368219  12.730   5.947  13.085
 8813ETHO    O168220  12.536   5.917  13.150
 8813ETHO    C168221  12.535   6.023  13.251
 8813ETHO   H1168222  12.636   6.029  13.297
 8813ETHO   H1368223  12.525   6.118  13.196
 8813ETHO    C268224  12.441   6.002  13.372
 8813ETHO   H2168225  12.341   5.974  13.334
 8813ETHO   H2368226  12.424   6.093  13.433
 8814ETHO    O168227  12.488   5.895  13.456
 8814ETHO    C168228  12.394   5.873  13.561
 8814ETHO   H1168229  12.388   5.959  13.631
 8814ETHO   H1368230  12.292   5.855  13.523
 8814ETHO    C268231  12.429   5.753  13.637
 8814ETHO   H2168232  12.397   5.767  13.743
 8814ETHO   H2368233  12.537   5.726  13.637
 8815ETHO    O168234  12.359   5.637  13.586
 8815ETHO    C168235  12.228   5.623  13.636
 8815ETHO   H1168236  12.236   5.646  13.744
 8815ETHO   H1368237  12.159   5.698  13.593
 8815ETHO    C268238  12.178   5.479  13.606
 8815ETHO   H2168239  12.182   5.460  13.496
 8815ETHO   H2368240  12.072   5.465  13.633
 8816ETHO    O168241  12.252   5.377  13.671
 8816ETHO    C168242  12.188   5.246  13.671
 8816ETHO   H1168243  12.259   5.172  13.629
 8816ETHO   H1368244  12.109   5.233  13.594
 8816ETHO    C268245  12.154   5.199  13.805
 8816ETHO   H2168246  12.248   5.194  13.863
 8816ETHO   H2368247  12.121   5.093  13.808
 8817ETHO    O168248  12.063   5.293  13.870
 8817ETHO    C168249  11.930   5.240  13.872
 8817ETHO   H1168250  11.933   5.148  13.934
 8817ETHO   H1368251  11.877   5.318  13.932
 8817ETHO    C268252  11.873   5.218  13.729
 8817ETHO   H2168253  11.903   5.298  13.658
 8817ETHO   H2368254  11.762   5.227  13.740
 8818ETHO    O168255  11.892   5.096  13.660
 8818ETHO    C168256  11.840   5.107  13.526
 8818ETHO   H1168257  11.870   5.205  13.484
 8818ETHO   H1368258  11.730   5.118  13.538
 8818ETHO    C268259  11.878   4.984  13.444
 8818ETHO   H2168260  11.984   4.959  13.466
 8818ETHO   H2368261  11.864   5.007  13.337
 8819ETHO    O168262  11.805   4.873  13.484
 8819ETHO    C168263  11.855   4.754  13.437
 8819ETHO   H1168264  11.869   4.758  13.327
 8819ETHO   H1368265  11.953   4.745  13.488
 8819ETHO    C268266  11.784   4.625  13.489
 8819ETHO   H2168267  11.835   4.548  13.428
 8819ETHO   H2368268  11.679   4.630  13.455
 8820ETHO    O168269  11.796   4.604  13.629
 8820ETHO    C168270  11.728   4.493  13.666
 8820ETHO   H1168271  11.762   4.402  13.612
 8820ETHO   H1368272  11.626   4.515  13.629
 8820ETHO    C268273  11.729   4.452  13.817
 8820ETHO   H2168274  11.638   4.392  13.841
 8820ETHO   H2368275  11.732   4.532  13.893
 8821ETHO    O168276  11.835   4.362  13.849
 8821ETHO    C168277  11.931   4.422  13.929
 8821ETHO   H1168278  11.987   4.503  13.878
 8821ETHO   H1368279  11.895   4.471  14.023
 8821ETHO    C268280  12.042   4.322  13.956
 8821ETHO   H2168281  12.004   4.220  13.977
 8821ETHO   H2368282  12.092   4.346  14.052
 8822ETHO    O168283  12.143   4.315  13.857
 8822ETHO    C168284  12.248   4.235  13.879
 8822ETHO   H1168285  12.219   4.130  13.895
 8822ETHO   H1368286  12.287   4.264  13.980
 8822ETHO    C268287  12.352   4.262  13.766
 8822ETHO   H2168288  12.441   4.198  13.781
 8822ETHO   H2368289  12.378   4.370  13.773
 8823ETHO    O168290  12.310   4.240  13.632
 8823ETHO    C168291  12.316   4.097  13.606
 8823ETHO   H1168292  12.417   4.054  13.595
 8823ETHO   H1368293  12.266   4.049  13.692
 8823ETHO    C268294  12.237   4.056  13.487
 8823ETHO   H2168295  12.138   4.105  13.501
 8823ETHO   H2368296  12.201   3.951  13.491
 8824ETHO    O168297  12.299   4.077  13.360
 8824ETHO    C168298  12.205   4.037  13.259
 8824ETHO   H1168299  12.221   3.927  13.257
 8824ETHO   H1368300  12.099   4.063  13.279
 8824ETHO    C268301  12.245   4.086  13.119
 8824ETHO   H2168302  12.171   4.046  13.046
 8824ETHO   H2368303  12.348   4.047  13.102
 8825ETHO    O168304  12.236   4.228  13.104
 8825ETHO    C168305  12.108   4.282  13.098
 8825ETHO   H1168306  12.059   4.249  13.003
 8825ETHO   H1368307  12.041   4.256  13.183
 8825ETHO    C268308  12.123   4.435  13.087
 8825ETHO   H2168309  12.024   4.484  13.081
 8825ETHO   H2368310  12.173   4.462  12.992
 8826ETHO    O168311  12.197   4.495  13.193
 8826ETHO    C168312  12.118   4.501  13.313
 8826ETHO   H1168313  12.024   4.557  13.292
 8826ETHO   H1368314  12.108   4.401  13.359
 8826ETHO    C268315  12.207   4.586  13.402
 8826ETHO   H2168316  12.176   4.560  13.505
 8826ETHO   H2368317  12.314   4.561  13.386
 8827ETHO    O168318  12.188   4.723  13.368
 8827ETHO    C168319  12.281   4.812  13.428
 8827ETHO   H1168320  12.384   4.770  13.435
 8827ETHO   H1368321  12.247   4.846  13.528
 8827ETHO    C268322  12.280   4.933  13.331
 8827ETHO   H2168323  12.258   4.890  13.231
 8827ETHO   H2368324  12.386   4.967  13.328
 8828ETHO    O168325  12.193   5.038  13.375
 8828ETHO    C168326  12.242   5.159  13.325
 8828ETHO   H1168327  12.323   5.199  13.390
 8828ETHO   H1368328  12.286   5.140  13.225
 8828ETHO    C268329  12.133   5.258  13.290
 8828ETHO   H2168330  12.083   5.289  13.384
 8828ETHO   H2368331  12.059   5.216  13.219
 8829ETHO    O168332  12.187   5.375  13.223
 8829ETHO    C168333  12.087   5.449  13.152
 8829ETHO   H1168334  12.007   5.490  13.217
 8829ETHO   H1368335  12.037   5.378  13.083
 8829ETHO    C268336  12.154   5.544  13.054
 8829ETHO   H2168337  12.083   5.602  12.991
 8829ETHO   H2368338  12.192   5.472  12.978
 8830ETHO    O168339  12.250   5.642  13.105
 8830ETHO    C168340  12.186   5.753  13.155
 8830ETHO   H1168341  12.084   5.731  13.193
 8830ETHO   H1368342  12.246   5.793  13.239
 8830ETHO    C268343  12.176   5.868  13.059
 8830ETHO   H2168344  12.091   5.852  12.989
 8830ETHO   H2368345  12.269   5.855  13.001
 8831ETHO    O168346  12.170   6.002  13.112
 8831ETHO    C168347  12.204   6.101  13.021
 8831ETHO   H1168348  12.139   6.097  12.931
 8831ETHO   H1368349  12.307   6.086  12.984
 8831ETHO    C268350  12.194   6.246  13.075
 8831ETHO   H2168351  12.243   6.310  12.998
 8831ETHO   H2368352  12.253   6.251  13.169
 8832ETHO    O168353  12.062   6.298  13.095
 8832ETHO    C168354  12.061   6.436  13.140
 8832ETHO   H1168355  12.133   6.497  13.080
 8832ETHO   H1368356  11.960   6.475  13.115
 8832ETHO    C268357  12.089   6.461  13.286
 8832ETHO   H2168358  12.019   6.397  13.345
 8832ETHO   H2368359  12.075   6.569  13.310
 8833ETHO    O168360  12.217   6.425  13.316
 8833ETHO    C168361  12.243   6.411  13.457
 8833ETHO   H1168362  12.201   6.313  13.489
 8833ETHO   H1368363  12.197   6.499  13.507
 8833ETHO    C268364  12.394   6.411  13.485
 8833ETHO   H2168365  12.451   6.384  13.394
 8833ETHO   H2368366  12.430   6.343  13.565
 8834ETHO    O168367  12.441   6.543  13.511
 8834ETHO    C168368  12.571   6.535  13.574
 8834ETHO   H1168369  12.552   6.502  13.678
 8834ETHO   H1368370  12.635   6.469  13.511
 8834ETHO    C268371  12.638   6.677  13.576
 8834ETHO   H2168372  12.631   6.721  13.474
 8834ETHO   H2368373  12.746   6.670  13.603
 8835ETHO    O168374  12.570   6.753  13.676
 8835ETHO    C168375  12.622   6.883  13.684
 8835ETHO   H1168376  12.722   6.876  13.731
 8835ETHO   H1368377  12.623   6.936  13.586
 8835ETHO    C268378  12.538   6.976  13.774
 8835ETHO   H2168379  12.584   7.077  13.775
 8835ETHO   H2368380  12.536   6.934  13.877
 8836ETHO    O168381  12.403   6.995  13.717
 8836ETHO    C168382  12.342   7.118  13.764
 8836ETHO   H1168383  12.321   7.113  13.873
 8836ETHO   H1368384  12.407   7.205  13.743
 8836ETHO    C268385  12.212   7.166  13.693
 8836ETHO   H2168386  12.158   7.241  13.753
 8836ETHO   H2368387  12.142   7.080  13.688
 8837ETHO    O168388  12.232   7.218  13.562
 8837ETHO    C168389  12.229   7.362  13.560
 8837ETHO   H1168390  12.147   7.405  13.622
 8837ETHO   H1368391  12.328   7.407  13.581
 8837ETHO    C268392  12.187   7.409  13.421
 8837ETHO   H2168393  12.158   7.516  13.419
 8837ETHO   H2368394  12.103   7.342  13.393
 8838ETHO    O168395  12.281   7.381  13.314
 8838ETHO    C168396  12.364   7.495  13.292
 8838ETHO   H1168397  12.393   7.545  13.388
 8838ETHO   H1368398  12.302   7.566  13.234
 8838ETHO    C268399  12.486   7.470  13.209
 8838ETHO   H2168400  12.525   7.567  13.174
 8838ETHO   H2368401  12.453   7.420  13.115
 8839ETHO    O168402  12.582   7.408  13.292
 8839ETHO    C168403  12.692   7.359  13.220
 8839ETHO   H1168404  12.660   7.276  13.154
 8839ETHO   H1368405  12.736   7.434  13.150
 8839ETHO    C268406  12.801   7.310  13.310
 8839ETHO   H2168407  12.880   7.249  13.262
 8839ETHO   H2368408  12.753   7.243  13.386
 8840ETHO    O168409  12.870   7.421  13.367
 8840ETHO    C168410  12.918   7.381  13.495
 8840ETHO   H1168411  12.985   7.292  13.490
 8840ETHO   H1368412  12.844   7.346  13.570
 8840ETHO    C268413  12.991   7.496  13.562
 8840ETHO   H2168414  13.073   7.536  13.498
 8840ETHO   H2368415  13.033   7.460  13.659
 8841ETHO    O168416  12.905   7.604  13.579
 8841ETHO    C168417  12.967   7.733  13.562
 8841ETHO   H1168418  13.051   7.751  13.632
 8841ETHO   H1368419  13.017   7.730  13.463
 8841ETHO    C268420  12.871   7.852  13.550
 8841ETHO   H2168421  12.922   7.948  13.573
 8841ETHO   H2368422  12.785   7.826  13.615
 8842ETHO    O168423  12.817   7.867  13.419
 8842ETHO    C168424  12.777   7.999  13.384
 8842ETHO   H1168425  12.866   8.065  13.392
 8842ETHO   H1368426  12.690   8.031  13.444
 8842ETHO    C268427  12.733   8.005  13.236
 8842ETHO   H2168428  12.645   7.940  13.217
 8842ETHO   H2368429  12.817   7.977  13.169
 8843ETHO    O168430  12.694   8.140  13.202
 8843ETHO    C168431  12.646   8.156  13.071
 8843ETHO   H1168432  12.685   8.254  13.035
 8843ETHO   H1368433  12.701   8.074  13.021
 8843ETHO    C268434  12.490   8.141  13.047
 8843ETHO   H2168435  12.428   8.219  13.095
 8843ETHO   H2368436  12.449   8.046  13.088
 8844ETHO    O168437  12.458   8.146  12.909
 8844ETHO    C168438  12.373   8.042  12.870
 8844ETHO   H1168439  12.284   8.047  12.936
 8844ETHO   H1368440  12.413   7.940  12.889
 8844ETHO    C268441  12.332   8.045  12.715
 8844ETHO   H2168442  12.322   7.941  12.678
 8844ETHO   H2368443  12.412   8.103  12.665
 8845ETHO    O168444  12.202   8.103  12.693
 8845ETHO    C168445  12.166   8.112  12.560
 8845ETHO   H1168446  12.249   8.151  12.498
 8845ETHO   H1368447  12.139   8.014  12.516
 8845ETHO    C268448  12.051   8.209  12.558
 8845ETHO   H2168449  12.100   8.307  12.575
 8845ETHO   H2368450  11.981   8.195  12.643
 8846PROX    O168451  11.985   8.208  12.431
 8846PROX    C168452  12.047   8.299  12.341
 8846PROX   H1168453  12.031   8.404  12.375
 8846PROX   H1368454  12.155   8.272  12.342
 8846PROX    C268455  12.004   8.270  12.194
 8846PROX   H2168456  12.048   8.173  12.161
 8846PROX    C368457  12.051   8.369  12.088
 8846PROX   H3168458  12.000   8.345  11.993
 8846PROX   H3268459  12.029   8.473  12.120
 8846PROX   H3368460  12.160   8.362  12.065
 8847PROX    O168461  11.867   8.253  12.193
 8847PROX    C168462  11.792   8.377  12.207
 8847PROX   H1168463  11.825   8.430  12.299
 8847PROX   H1368464  11.801   8.446  12.120
 8847PROX    C268465  11.645   8.346  12.227
 8847PROX   H2168466  11.633   8.263  12.301
 8847PROX    C368467  11.568   8.306  12.101
 8847PROX   H3168468  11.462   8.288  12.130
 8847PROX   H3268469  11.573   8.383  12.022
 8847PROX   H3368470  11.589   8.206  12.059
 8848PROX    O168471  11.591   8.458  12.295
 8848PROX    C168472  11.460   8.437  12.351
 8848PROX   H1168473  11.427   8.536  12.390
 8848PROX   H1368474  11.398   8.406  12.265
 8848PROX    C268475  11.435   8.331  12.464
 8848PROX   H2168476  11.492   8.237  12.444
 8848PROX    C368477  11.281   8.296  12.464
 8848PROX   H3168478  11.271   8.204  12.403
 8848PROX   H3268479  11.229   8.280  12.561
 8848PROX   H3368480  11.227   8.380  12.416
 8849PROX    O168481  11.469   8.387  12.590
 8849PROX    C168482  11.464   8.301  12.706
 8849PROX   H1168483  11.391   8.344  12.777
 8849PROX   H1368484  11.434   8.198  12.677
 8849PROX    C268485  11.605   8.281  12.774
 8849PROX   H2168486  11.651   8.381  12.784
 8849PROX    C368487  11.702   8.192  12.687
 8849PROX   H3168488  11.776   8.161  12.764
 8849PROX   H3268489  11.657   8.105  12.636
 8849PROX   H3368490  11.741   8.265  12.613
 8850PROX    O168491  11.576   8.220  12.900
 8850PROX    C168492  11.552   8.315  13.002
 8850PROX   H1168493  11.520   8.415  12.965
 8850PROX   H1368494  11.490   8.267  13.081
 8850PROX    C268495  11.696   8.341  13.067
 8850PROX   H2168496  11.738   8.242  13.094
 8850PROX    C368497  11.667   8.423  13.197
 8850PROX   H3168498  11.613   8.518  13.173
 8850PROX   H3268499  11.606   8.365  13.270
 8850PROX   H3368500  11.764   8.446  13.245
 8851PROX    O168501  11.779   8.414  12.977
 8851PROX    C168502  11.916   8.395  13.014
 8851PROX   H1168503  11.942   8.415  13.120
 8851PROX   H1368504  11.933   8.285  13.004
 8851PROX    C268505  12.018   8.476  12.917
 8851PROX   H2168506  11.983   8.471  12.811
 8851PROX    C368507  12.155   8.414  12.927
 8851PROX   H3168508  12.154   8.305  12.906
 8851PROX   H3268509  12.235   8.465  12.869
 8851PROX   H3368510  12.186   8.415  13.033
 8852PROX    O168511  12.036   8.616  12.950
 8852PROX    C168512  11.933   8.700  12.892
 8852PROX   H1168513  11.960   8.717  12.785
 8852PROX   H1368514  11.840   8.640  12.896
 8852PROX    C268515  11.915   8.829  12.979
 8852PROX   H2168516  12.017   8.869  12.996
 8852PROX    C368517  11.846   8.794  13.112
 8852PROX   H3168518  11.842   8.871  13.191
 8852PROX   H3268519  11.739   8.769  13.093
 8852PROX   H3368520  11.920   8.719  13.146
 8853PROX    O168521  11.842   8.927  12.912
 8853PROX    C168522  11.913   8.984  12.800
 8853PROX   H1168523  12.006   9.027  12.842
 8853PROX   H1368524  11.938   8.904  12.727
 8853PROX    C268525  11.839   9.093  12.730
 8853PROX   H2168526  11.824   9.176  12.802
 8853PROX    C368527  11.709   9.061  12.668
 8853PROX   H3168528  11.721   8.979  12.594
 8853PROX   H3268529  11.645   9.018  12.748
 8853PROX   H3368530  11.654   9.147  12.625
 8854PROX    O168531  11.916   9.134  12.619
 8854PROX    C168532  11.997   9.253  12.649
 8854PROX   H1168533  12.060   9.214  12.732
 8854PROX   H1368534  12.060   9.277  12.560
 8854PROX    C268535  11.915   9.384  12.671
 8854PROX   H2168536  11.844   9.364  12.754
 8854PROX    C368537  11.835   9.417  12.544
 8854PROX   H3168538  11.778   9.510  12.564
 8854PROX   H3268539  11.909   9.441  12.465
 8854PROX   H3368540  11.755   9.343  12.521
 8855PROX    O168541  12.005   9.492  12.694
 8855PROX    C168542  12.044   9.502  12.829
 8855PROX   H1168543  12.038   9.611  12.849
 8855PROX   H1368544  11.979   9.448  12.901
 8855PROX    C268545  12.191   9.460  12.848
 8855PROX   H2168546  12.236   9.508  12.937
 8855PROX    C368547  12.295   9.486  12.737
 8855PROX   H3168548  12.236   9.469  12.645
 8855PROX   H3268549  12.333   9.590  12.731
 8855PROX   H3368550  12.384   9.425  12.762
 8856PROX    O168551  12.193   9.319  12.883
 8856PROX    C168552  12.301   9.262  12.960
 8856PROX   H1168553  12.354   9.347  13.008
 8856PROX   H1368554  12.258   9.199  13.040
 8856PROX    C268555  12.393   9.171  12.872
 8856PROX   H2168556  12.411   9.221  12.775
 8856PROX    C368557  12.314   9.044  12.830
 8856PROX   H3168558  12.280   8.986  12.919
 8856PROX   H3268559  12.231   9.070  12.762
 8856PROX   H3368560  12.376   8.966  12.780
 8857PROX    O168561  12.515   9.144  12.944
 8857PROX    C168562  12.629   9.129  12.864
 8857PROX   H1168563  12.714   9.106  12.933
 8857PROX   H1368564  12.604   9.050  12.790
 8857PROX    C268565  12.689   9.259  12.799
 8857PROX   H2168566  12.623   9.279  12.712
 8857PROX    C368567  12.832   9.237  12.746
 8857PROX   H3168568  12.863   9.324  12.684
 8857PROX   H3268569  12.913   9.224  12.822
 8857PROX   H3368570  12.841   9.147  12.682
 8858PROX    O168571  12.675   9.369  12.886
 8858PROX    C168572  12.662   9.491  12.811
 8858PROX   H1168573  12.757   9.491  12.754
 8858PROX   H1368574  12.574   9.497  12.745
 8858PROX    C268575  12.656   9.619  12.903
 8858PROX   H2168576  12.749   9.624  12.964
 8858PROX    C368577  12.533   9.616  12.990
 8858PROX   H3168578  12.519   9.518  13.041
 8858PROX   H3268579  12.546   9.691  13.071
 8858PROX   H3368580  12.442   9.638  12.929
 8859PROX    O168581  12.633   9.730  12.815
 8859PROX    C168582  12.744   9.776  12.735
 8859PROX   H1168583  12.748   9.687  12.669
 8859PROX   H1368584  12.706   9.863  12.677
 8859PROX    C268585  12.863   9.794  12.825
 8859PROX   H2168586  12.837   9.813  12.931
 8859PROX    C368587  12.958   9.904  12.782
 8859PROX   H3168588  12.903   9.999  12.804
 8859PROX   H3268589  13.053   9.901  12.839
 8859PROX   H3368590  12.963   9.899  12.671
 8860PROX    O168591  12.949   9.686  12.807
 8860PROX    C168592  13.022   9.653  12.922
 8860PROX   H1168593  13.060   9.747  12.966
 8860PROX   H1368594  12.955   9.601  12.994
 8860PROX    C268595  13.141   9.562  12.891
 8860PROX   H2168596  13.207   9.632  12.835
 8860PROX    C368597  13.120   9.439  12.793
 8860PROX   H3168598  13.073   9.480  12.701
 8860PROX   H3268599  13.219   9.399  12.765
 8860PROX   H3368600  13.044   9.364  12.826
 8861PROX    O168601  13.216   9.536  13.007
 8861PROX    C168602  13.171   9.428  13.091
 8861PROX   H1168603  13.068   9.456  13.124
 8861PROX   H1368604  13.153   9.337  13.030
 8861PROX    C268605  13.274   9.386  13.196
 8861PROX   H2168606  13.372   9.369  13.146
 8861PROX    C368607  13.228   9.251  13.265
 8861PROX   H3168608  13.120   9.250  13.293
 8861PROX   H3268609  13.235   9.163  13.198
 8861PROX   H3368610  13.285   9.241  13.360
 8862PROX    O168611  13.294   9.489  13.295
 8862PROX    C168612  13.365   9.608  13.249
 8862PROX   H1168613  13.443   9.585  13.173
 8862PROX   H1368614  13.289   9.671  13.197
 8862PROX    C268615  13.423   9.696  13.358
 8862PROX   H2168616  13.346   9.697  13.438
 8862PROX    C368617  13.459   9.837  13.303
 8862PROX   H3168618  13.514   9.898  13.378
 8862PROX   H3268619  13.515   9.820  13.208
 8862PROX   H3368620  13.369   9.884  13.260
 8863PROX    O168621  13.550   9.653  13.404
 8863PROX    C168622  13.549   9.565  13.518
 8863PROX   H1168623  13.506   9.629  13.599
 8863PROX   H1368624  13.489   9.474  13.498
 8863PROX    C268625  13.694   9.516  13.543
 8863PROX   H2168626  13.683   9.448  13.631
 8863PROX    C368627  13.792   9.633  13.566
 8863PROX   H3168628  13.776   9.667  13.670
 8863PROX   H3268629  13.894   9.595  13.543
 8863PROX   H3368630  13.767   9.718  13.499
 8864PROX    O168631  13.731   9.426  13.434
 8864PROX    C168632  13.683   9.291  13.443
 8864PROX   H1168633  13.730   9.245  13.532
 8864PROX   H1368634  13.572   9.289  13.445
 8864PROX    C268635  13.729   9.212  13.315
 8864PROX   H2168636  13.840   9.209  13.323
 8864PROX    C368637  13.692   9.292  13.186
 8864PROX   H3168638  13.715   9.236  13.093
 8864PROX   H3268639  13.583   9.304  13.173
 8864PROX   H3368640  13.741   9.392  13.183
 8865PROX    O168641  13.680   9.075  13.321
 8865PROX    C168642  13.542   9.057  13.287
 8865PROX   H1168643  13.483   9.123  13.354
 8865PROX   H1368644  13.516   9.087  13.183
 8865PROX    C268645  13.493   8.907  13.313
 8865PROX   H2168646  13.523   8.878  13.415
 8865PROX    C368647  13.572   8.811  13.223
 8865PROX   H3168648  13.564   8.838  13.116
 8865PROX   H3268649  13.676   8.813  13.263
 8865PROX   H3368650  13.539   8.705  13.222
 8866PROX    O168651  13.352   8.900  13.295
 8866PROX    C168652  13.305   8.765  13.265
 8866PROX   H1168653  13.306   8.748  13.155
 8866PROX   H1368654  13.366   8.684  13.309
 8866PROX    C268655  13.155   8.747  13.307
 8866PROX   H2168656  13.135   8.791  13.407
 8866PROX    C368657  13.116   8.602  13.320
 8866PROX   H3168658  13.147   8.561  13.221
 8866PROX   H3268659  13.172   8.544  13.397
 8866PROX   H3368660  13.006   8.602  13.333
 8867PROX    O168661  13.062   8.801  13.212
 8867PROX    C168662  13.017   8.929  13.242
 8867PROX   H1168663  12.957   8.914  13.333
 8867PROX   H1368664  13.106   8.993  13.263
 8867PROX    C268665  12.931   8.978  13.131
 8867PROX   H2168666  12.840   8.914  13.128
 8867PROX    C368667  13.002   8.979  12.994
 8867PROX   H3168668  13.014   8.874  12.960
 8867PROX   H3268669  12.940   9.038  12.923
 8867PROX   H3368670  13.098   9.034  12.998
 8868PROX    O168671  12.895   9.116  13.152
 8868PROX    C168672  12.831   9.145  13.280
 8868PROX   H1168673  12.739   9.085  13.291
 8868PROX   H1368674  12.905   9.130  13.362
 8868PROX    C268675  12.790   9.296  13.280
 8868PROX   H2168676  12.707   9.313  13.351
 8868PROX    C368677  12.725   9.351  13.152
 8868PROX   H3168678  12.670   9.447  13.158
 8868PROX   H3268679  12.803   9.364  13.075
 8868PROX   H3368680  12.654   9.281  13.102
 8869PROX    O168681  12.893   9.382  13.318
 8869PROX    C168682  12.853   9.510  13.356
 8869PROX   H1168683  12.787   9.561  13.283
 8869PROX   H1368684  12.808   9.499  13.456
 8869PROX    C268685  12.981   9.594  13.373
 8869PROX   H2168686  13.045   9.580  13.283
 8869PROX    C368687  13.067   9.532  13.486
 8869PROX   H3168688  13.153   9.601  13.498
 8869PROX   H3268689  13.014   9.524  13.583
 8869PROX   H3368690  13.096   9.428  13.461
 8870PROX    O168691  12.946   9.731  13.388
 8870PROX    C168692  12.950   9.795  13.264
 8870PROX   H1168693  13.054   9.783  13.227
 8870PROX   H1368694  12.894   9.743  13.184
 8870PROX    C268695  12.904   9.936  13.273
 8870PROX   H2168696  12.964   9.999  13.342
 8870PROX    C368697  12.754   9.954  13.309
 8870PROX   H3168698  12.695   9.907  13.227
 8870PROX   H3268699  12.728   9.909  13.408
 8870PROX   H3368700  12.734  10.062  13.326
 8871PROX    O168701  12.927   9.989  13.139
 8871PROX    C168702  12.986  10.122  13.139
 8871PROX   H1168703  12.957  10.186  13.053
 8871PROX   H1368704  12.963  10.170  13.237
 8871PROX    C268705  13.147  10.107  13.137
 8871PROX   H2168706  13.167  10.039  13.223
 8871PROX    C368707  13.223  10.237  13.169
 8871PROX   H3168708  13.200  10.318  13.096
 8871PROX   H3268709  13.184  10.267  13.269
 8871PROX   H3368710  13.333  10.222  13.181
 8872PROX    O168711  13.182  10.045  13.014
 8872PROX    C168712  13.308   9.987  13.018
 8872PROX   H1168713  13.382  10.065  13.043
 8872PROX   H1368714  13.294   9.901  13.087
 8872PROX    C268715  13.359   9.936  12.880
 8872PROX   H2168716  13.274   9.885  12.828
 8872PROX    C368717  13.480   9.841  12.895
 8872PROX   H3168718  13.511   9.794  12.799
 8872PROX   H3268719  13.570   9.881  12.945
 8872PROX   H3368720  13.435   9.763  12.960
 8873PROX    O168721  13.405  10.043  12.794
 8873PROX    C168722  13.295  10.125  12.763
 8873PROX   H1168723  13.196  10.075  12.771
 8873PROX   H1368724  13.286  10.213  12.831
 8873PROX    C268725  13.311  10.195  12.627
 8873PROX   H2168726  13.331  10.122  12.547
 8873PROX    C368727  13.430  10.296  12.615
 8873PROX   H3168728  13.529  10.253  12.640
 8873PROX   H3268729  13.430  10.353  12.520
 8873PROX   H3368730  13.421  10.379  12.688
 8874PROX    O168731  13.195  10.278  12.616
 8874PROX    C168732  13.076  10.215  12.584
 8874PROX   H1168733  13.086  10.181  12.479
 8874PROX   H1368734  13.057  10.120  12.639
 8874PROX    C268735  12.962  10.309  12.612
 8874PROX   H2168736  12.982  10.395  12.544
 8874PROX    C368737  12.943  10.361  12.746
 8874PROX   H3168738  12.875  10.449  12.736
 8874PROX   H3268739  12.905  10.288  12.820
 8874PROX   H3368740  13.035  10.401  12.795
 8875PROX    O168741  12.835  10.245  12.575
 8875PROX    C168742  12.828  10.204  12.438
 8875PROX   H1168743  12.833  10.287  12.364
 8875PROX   H1368744  12.899  10.122  12.415
 8875PROX    C268745  12.680  10.152  12.412
 8875PROX   H2168746  12.611  10.237  12.424
 8875PROX    C368747  12.643  10.040  12.502
 8875PROX   H3168748  12.691   9.946  12.467
 8875PROX   H3268749  12.678  10.058  12.606
 8875PROX   H3368750  12.532  10.030  12.504
 8876PROX    O168751  12.670  10.103  12.277
 8876PROX    C168752  12.534  10.091  12.243
 8876PROX   H1168753  12.475  10.009  12.288
 8876PROX   H1368754  12.476  10.182  12.269
 8876PROX    C268755  12.509  10.086  12.089
 8876PROX   H2168756  12.562   9.993  12.057
 8876PROX    C368757  12.554  10.204  12.008
 8876PROX   H3168758  12.649  10.247  12.047
 8876PROX   H3268759  12.556  10.172  11.902
 8876PROX   H3368760  12.473  10.277  12.027
 8877PROX    O168761  12.374  10.071  12.071
 8877PROX    C168762  12.337  10.022  11.943
 8877PROX   H1168763  12.335  10.107  11.872
 8877PROX   H1368764  12.414   9.954  11.900
 8877PROX    C268765  12.207   9.940  11.942
 8877PROX   H2168766  12.186   9.899  11.841
 8877PROX    C368767  12.085  10.034  11.973
 8877PROX   H3168768  12.102  10.100  12.061
 8877PROX   H3268769  12.087  10.095  11.880
 8877PROX   H3368770  11.982   9.991  11.973
 8878PROX    O168771  12.225   9.833  12.035
 8878PROX    C168772  12.137   9.724  12.009
 8878PROX   H1168773  12.032   9.762  12.008
 8878PROX   H1368774  12.162   9.680  11.910
 8878PROX    C268775  12.152   9.618  12.114
 8878PROX   H2168776  12.258   9.584  12.120
 8878PROX    C368777  12.046   9.507  12.081
 8878PROX   H3168778  12.092   9.417  12.036
 8878PROX   H3268779  11.995   9.486  12.178
 8878PROX   H3368780  11.962   9.538  12.015
 8879PROX    O168781  12.107   9.673  12.243
 8879PROX    C168782  12.156   9.604  12.365
 8879PROX   H1168783  12.090   9.614  12.454
 8879PROX   H1368784  12.163   9.496  12.344
 8879PROX    C268785  12.296   9.651  12.425
 8879PROX   H2168786  12.342   9.564  12.475
 8879PROX    C368787  12.273   9.758  12.538
 8879PROX   H3168788  12.219   9.710  12.622
 8879PROX   H3268789  12.373   9.792  12.573
 8879PROX   H3368790  12.220   9.849  12.502
 8880PROX    O168791  12.379   9.692  12.319
 8880PROX    C168792  12.518   9.684  12.363
 8880PROX   H1168793  12.534   9.761  12.442
 8880PROX   H1368794  12.544   9.586  12.407
 8880PROX    C268795  12.612   9.720  12.237
 8880PROX   H2168796  12.597   9.826  12.208
 8880PROX    C368797  12.564   9.646  12.113
 8880PROX   H3168798  12.638   9.650  12.030
 8880PROX   H3268799  12.554   9.540  12.147
 8880PROX   H3368800  12.469   9.690  12.077
 8881PROX    O168801  12.751   9.680  12.252
 8881PROX    C168802  12.836   9.771  12.327
 8881PROX   H1168803  12.831   9.872  12.282
 8881PROX   H1368804  12.786   9.774  12.427
 8881PROX    C268805  12.966   9.699  12.338
 8881PROX   H2168806  13.003   9.661  12.240
 8881PROX    C368807  12.953   9.577  12.436
 8881PROX   H3168808  13.045   9.514  12.440
 8881PROX   H3268809  12.931   9.607  12.540
 8881PROX   H3368810  12.864   9.517  12.406
 8882PROX    O168811  13.061   9.787  12.390
 8882PROX    C168812  13.200   9.764  12.346
 8882PROX   H1168813  13.202   9.726  12.241
 8882PROX   H1368814  13.239   9.867  12.341
 8882PROX    C268815  13.278   9.681  12.451
 8882PROX   H2168816  13.241   9.580  12.478
 8882PROX    C368817  13.291   9.754  12.587
 8882PROX   H3168818  13.195   9.764  12.642
 8882PROX   H3268819  13.364   9.702  12.652
 8882PROX   H3368820  13.323   9.860  12.576
 8883PROX    O168821  13.412   9.669  12.404
 8883PROX    C168822  13.487   9.568  12.473
 8883PROX   H1168823  13.568   9.617  12.530
 8883PROX   H1368824  13.424   9.515  12.547
 8883PROX    C268825  13.538   9.453  12.374
 8883PROX   H2168826  13.626   9.486  12.315
 8883PROX    C368827  13.436   9.413  12.269
 8883PROX   H3168828  13.346   9.368  12.315
 8883PROX   H3268829  13.414   9.514  12.226
 8883PROX   H3368830  13.482   9.349  12.191
 8884PROX    O168831  13.573   9.336  12.449
 8884PROX    C168832  13.611   9.225  12.366
 8884PROX   H1168833  13.520   9.177  12.324
 8884PROX   H1368834  13.673   9.254  12.279
 8884PROX    C268835  13.697   9.123  12.447
 8884PROX   H2168836  13.650   9.109  12.547
 8884PROX    C368837  13.836   9.177  12.490
 8884PROX   H3168838  13.892   9.198  12.396
 8884PROX   H3268839  13.825   9.266  12.555
 8884PROX   H3368840  13.900   9.105  12.545
 8885PROX    O168841  13.708   9.004  12.373
 8885PROX    C168842  13.621   8.905  12.419
 8885PROX   H1168843  13.520   8.943  12.448
 8885PROX   H1368844  13.603   8.835  12.335
 8885PROX    C268845  13.677   8.819  12.534
 8885PROX   H2168846  13.687   8.889  12.620
 8885PROX    C368847  13.807   8.741  12.494
 8885PROX   H3168848  13.809   8.647  12.554
 8885PROX   H3268849  13.800   8.712  12.387
 8885PROX   H3368850  13.901   8.799  12.505
 8886PROX    O168851  13.589   8.710  12.564
 8886PROX    C168852  13.586   8.679  12.700
 8886PROX   H1168853  13.551   8.575  12.714
 8886PROX   H1368854  13.691   8.695  12.731
 8886PROX    C268855  13.488   8.768  12.778
 8886PROX   H2168856  13.503   8.742  12.885
 8886PROX    C368857  13.347   8.723  12.734
 8886PROX   H3168858  13.345   8.711  12.624
 8886PROX   H3268859  13.333   8.616  12.763
 8886PROX   H3368860  13.265   8.788  12.772
 8887PROX    O168861  13.491   8.908  12.746
 8887PROX    C168862  13.426   8.997  12.841
 8887PROX   H1168863  13.316   8.978  12.838
 8887PROX   H1368864  13.476   8.966  12.935
 8887PROX    C268865  13.448   9.147  12.800
 8887PROX   H2168866  13.546   9.151  12.749
 8887PROX    C368867  13.452   9.227  12.927
 8887PROX   H3168868  13.539   9.185  12.981
 8887PROX   H3268869  13.458   9.337  12.914
 8887PROX   H3368870  13.358   9.210  12.983
 8888PROX    O168871  13.339   9.201  12.728
 8888PROX    C168872  13.331   9.145  12.592
 8888PROX   H1168873  13.396   9.214  12.535
 8888PROX   H1368874  13.372   9.043  12.574
 8888PROX    C268875  13.186   9.140  12.543
 8888PROX   H2168876  13.123   9.220  12.589
 8888PROX    C368877  13.122   8.996  12.569
 8888PROX   H3168878  13.118   8.983  12.680
 8888PROX   H3268879  13.020   8.990  12.527
 8888PROX   H3368880  13.185   8.919  12.520
 8889PROX    O168881  13.196   9.181  12.408
 8889PROX    C168882  13.068   9.179  12.336
 8889PROX   H1168883  13.021   9.079  12.348
 8889PROX   H1368884  13.006   9.262  12.376
 8889PROX    C268885  13.103   9.210  12.186
 8889PROX   H2168886  13.207   9.246  12.172
 8889PROX    C368887  13.010   9.316  12.129
 8889PROX   H3168888  13.028   9.411  12.184
 8889PROX   H3268889  13.033   9.327  12.021
 8889PROX   H3368890  12.904   9.282  12.139
 8890PROX    O168891  13.092   9.093  12.109
 8890PROX    C168892  13.220   9.012  12.107
 8890PROX   H1168893  13.243   9.000  11.999
 8890PROX   H1368894  13.298   9.055  12.173
 8890PROX    C268895  13.190   8.866  12.155
 8890PROX   H2168896  13.155   8.871  12.261
 8890PROX    C368897  13.317   8.771  12.147
 8890PROX   H3168898  13.291   8.663  12.141
 8890PROX   H3268899  13.377   8.809  12.061
 8890PROX   H3368900  13.386   8.777  12.234
 8891PROX    O168901  13.099   8.800  12.071
 8891PROX    C168902  12.963   8.842  12.089
 8891PROX   H1168903  12.954   8.894  12.187
 8891PROX   H1368904  12.932   8.908  12.006
 8891PROX    C268905  12.875   8.712  12.070
 8891PROX   H2168906  12.919   8.632  12.006
 8891PROX    C368907  12.736   8.747  12.004
 8891PROX   H3168908  12.688   8.648  11.986
 8891PROX   H3268909  12.674   8.798  12.080
 8891PROX   H3368910  12.750   8.818  11.919
 8892PROX    O168911  12.838   8.650  12.193
 8892PROX    C168912  12.944   8.567  12.240
 8892PROX   H1168913  12.949   8.475  12.178
 8892PROX   H1368914  13.041   8.612  12.211
 8892PROX    C268915  12.933   8.528  12.395
 8892PROX   H2168916  12.867   8.605  12.440
 8892PROX    C368917  13.066   8.534  12.462
 8892PROX   H3168918  13.093   8.638  12.489
 8892PROX   H3268919  13.070   8.484  12.561
 8892PROX   H3368920  13.147   8.484  12.406
 8893PROX    O168921  12.887   8.398  12.412
 8893PROX    C168922  12.753   8.377  12.366
 8893PROX   H1168923  12.725   8.424  12.269
 8893PROX   H1368924  12.754   8.268  12.343
 8893PROX    C268925  12.647   8.397  12.475
 8893PROX   H2168926  12.659   8.501  12.511
 8893PROX    C368927  12.648   8.294  12.587
 8893PROX   H3168928  12.575   8.310  12.669
 8893PROX   H3268929  12.640   8.190  12.549
 8893PROX   H3368930  12.747   8.296  12.637
 8894PROX    O168931  12.519   8.367  12.417
 8894PROX    C168932  12.462   8.475  12.352
 8894PROX   H1168933  12.530   8.517  12.274
 8894PROX   H1368934  12.379   8.434  12.291
 8894PROX    C268935  12.404   8.586  12.442
 8894PROX   H2168936  12.481   8.658  12.476
 8894PROX    C368937  12.329   8.544  12.571
 8894PROX   H3168938  12.243   8.476  12.548
 8894PROX   H3268939  12.392   8.497  12.650
 8894PROX   H3368940  12.277   8.632  12.615
 8895PROX    O168941  12.312   8.650  12.354
 8895PROX    C168942  12.370   8.751  12.274
 8895PROX   H1168943  12.382   8.847  12.329
 8895PROX   H1368944  12.472   8.715  12.246
 8895PROX    C268945  12.286   8.757  12.149
 8895PROX   H2168946  12.272   8.651  12.121
 8895PROX    C368947  12.347   8.824  12.027
 8895PROX   H3168948  12.339   8.932  12.053
 8895PROX   H3268949  12.448   8.781  12.009
 8895PROX   H3368950  12.291   8.813  11.932
 8896PROX    O168951  12.166   8.815  12.175
 8896PROX    C168952  12.056   8.721  12.207
 8896PROX   H1168953  11.995   8.685  12.121
 8896PROX   H1368954  12.090   8.636  12.269
 8896PROX    C268955  11.956   8.784  12.309
 8896PROX   H2168956  11.904   8.874  12.269
 8896PROX    C368957  12.036   8.824  12.434
 8896PROX   H3168958  11.966   8.892  12.488
 8896PROX   H3268959  12.069   8.740  12.498
 8896PROX   H3368960  12.124   8.883  12.400
 8897PROX    O168961  11.853   8.691  12.336
 8897PROX    C168962  11.739   8.740  12.411
 8897PROX   H1168963  11.723   8.849  12.397
 8897PROX   H1368964  11.647   8.696  12.368
 8897PROX    C268965  11.746   8.706  12.560
 8897PROX   H2168966  11.825   8.765  12.613
 8897PROX    C368967  11.781   8.561  12.592
 8897PROX   H3168968  11.703   8.499  12.543
 8897PROX   H3268969  11.882   8.534  12.553
 8897PROX   H3368970  11.784   8.542  12.701
 8898PROX    O168971  11.620   8.736  12.619
 8898PROX    C168972  11.610   8.731  12.753
 8898PROX   H1168973  11.629   8.629  12.793
 8898PROX   H1368974  11.689   8.800  12.791
 8898PROX    C268975  11.468   8.768  12.800
 8898PROX   H2168976  11.447   8.871  12.765
 8898PROX    C368977  11.460   8.791  12.953
 8898PROX   H3168978  11.365   8.841  12.981
 8898PROX   H3268979  11.470   8.691  13.002
 8898PROX   H3368980  11.545   8.851  12.992
 8899PROX    O168981  11.359   8.670  12.778
 8899PROX    C168982  11.313   8.684  12.642
 8899PROX   H1168983  11.400   8.684  12.574
 8899PROX   H1368984  11.247   8.594  12.633
 8899PROX    C268985  11.231   8.813  12.618
 8899PROX   H2168986  11.282   8.903  12.658
 8899PROX    C368987  11.095   8.805  12.687
 8899PROX   H3168988  11.101   8.791  12.797
 8899PROX   H3268989  11.039   8.900  12.675
 8899PROX   H3368990  11.028   8.727  12.646
 8900PROX    O168991  11.212   8.835  12.477
 8900PROX    C168992  11.327   8.906  12.420
 8900PROX   H1168993  11.379   8.968  12.497
 8900PROX   H1368994  11.398   8.828  12.386
 8900PROX    C268995  11.292   8.993  12.300
 8900PROX   H2168996  11.232   9.081  12.332
 8900PROX    C368997  11.220   8.913  12.191
 8900PROX   H3168998  11.121   8.872  12.218
 8900PROX   H3268999  11.205   8.994  12.117
 8900PROX   H3369000  11.288   8.840  12.142
 8901PROX    O169001  11.409   9.045  12.238
 8901PROX    C169002  11.467   9.158  12.300
 8901PROX   H1169003  11.384   9.223  12.337
 8901PROX   H1369004  11.533   9.119  12.380
 8901PROX    C269005  11.554   9.229  12.192
 8901PROX   H2169006  11.579   9.332  12.226
 8901PROX    C369007  11.489   9.230  12.054
 8901PROX   H3169008  11.548   9.263  11.965
 8901PROX   H3269009  11.445   9.130  12.034
 8901PROX   H3369010  11.414   9.311  12.060
 8902PROX    O169011  11.675   9.155  12.187
 8902PROX    C169012  11.775   9.212  12.099
 8902PROX   H1169013  11.734   9.220  11.996
 8902PROX   H1369014  11.799   9.318  12.122
 8902PROX    C269015  11.903   9.115  12.095
 8902PROX   H2169016  11.869   9.010  12.101
 8902PROX    C369017  12.010   9.142  12.202
 8902PROX   H3169018  11.958   9.163  12.297
 8902PROX   H3269019  12.085   9.060  12.196
 8902PROX   H3369020  12.068   9.233  12.177
 8903PROX    O169021  11.972   9.129  11.968
 8903PROX    C169022  11.900   9.085  11.851
 8903PROX   H1169023  11.850   8.989  11.875
 8903PROX   H1369024  11.827   9.166  11.827
 8903PROX    C269025  12.000   9.063  11.734
 8903PROX   H2169026  11.957   9.078  11.633
 8903PROX    C369027  12.053   8.922  11.736
 8903PROX   H3169028  12.135   8.911  11.662
 8903PROX   H3269029  12.088   8.892  11.837
 8903PROX   H3369030  11.973   8.849  11.711
 8904PROX    O169031  12.104   9.162  11.730
 8904PROX    C169032  12.228   9.131  11.803
 8904PROX   H1169033  12.208   9.092  11.905
 8904PROX   H1369034  12.280   9.050  11.746
 8904PROX    C269035  12.312   9.257  11.816
 8904PROX   H2169036  12.258   9.322  11.888
 8904PROX    C369037  12.317   9.330  11.682
 8904PROX   H3169038  12.370   9.428  11.689
 8904PROX   H3269039  12.372   9.261  11.615
 8904PROX   H3369040  12.223   9.340  11.623
 8905PROX    O169041  12.440   9.229  11.874
 8905PROX    C169042  12.501   9.341  11.937
 8905PROX   H1169043  12.542   9.396  11.850
 8905PROX   H1369044  12.425   9.399  11.994
 8905PROX    C269045  12.611   9.299  12.037
 8905PROX   H2169046  12.679   9.384  12.058
 8905PROX    C369047  12.700   9.185  11.982
 8905PROX   H3169048  12.762   9.224  11.897
 8905PROX   H3269049  12.770   9.153  12.062
 8905PROX   H3369050  12.635   9.102  11.946
 8906PROX    O169051  12.567   9.272  12.169
 8906PROX    C169052  12.459   9.182  12.179
 8906PROX   H1169053  12.369   9.231  12.136
 8906PROX   H1369054  12.483   9.100  12.108
 8906PROX    C269055  12.426   9.137  12.319
 8906PROX   H2169056  12.347   9.060  12.325
 8906PROX    C369057  12.368   9.257  12.390
 8906PROX   H3169058  12.433   9.346  12.379
 8906PROX   H3269059  12.285   9.310  12.338
 8906PROX   H3369060  12.354   9.239  12.498
 8907PROX    O169061  12.542   9.076  12.371
 8907PROX    C169062  12.533   9.014  12.502
 8907PROX   H1169063  12.512   9.092  12.578
 8907PROX   H1369064  12.447   8.944  12.503
 8907PROX    C269065  12.666   8.941  12.533
 8907PROX   H2169066  12.732   9.021  12.573
 8907PROX    C369067  12.731   8.878  12.402
 8907PROX   H3169068  12.676   8.798  12.349
 8907PROX   H3269069  12.758   8.966  12.339
 8907PROX   H3369070  12.826   8.834  12.438
 8908PROX    O169071  12.634   8.838  12.630
 8908PROX    C169072  12.744   8.780  12.702
 8908PROX   H1169073  12.831   8.743  12.643
 8908PROX   H1369074  12.791   8.864  12.757
 8908PROX    C269075  12.694   8.670  12.796
 8908PROX   H2169076  12.642   8.592  12.736
 8908PROX    C369077  12.599   8.742  12.895
 8908PROX   H3169078  12.555   8.675  12.971
 8908PROX   H3269079  12.644   8.835  12.937
 8908PROX   H3369080  12.514   8.792  12.844
 8909PROX    O169081  12.793   8.614  12.869
 8909PROX    C169082  12.854   8.498  12.807
 8909PROX   H1169083  12.777   8.418  12.804
 8909PROX   H1369084  12.864   8.526  12.699
 8909PROX    C269085  12.980   8.469  12.879
 8909PROX   H2169086  12.977   8.449  12.988
 8909PROX    C369087  13.074   8.598  12.884
 8909PROX   H3169088  13.031   8.681  12.943
 8909PROX   H3269089  13.168   8.570  12.935
 8909PROX   H3369090  13.102   8.629  12.781
 8910PROX    O169091  13.048   8.363  12.809
 8910PROX    C169092  13.021   8.237  12.863
 8910PROX   H1169093  13.068   8.228  12.964
 8910PROX   H1369094  12.912   8.227  12.878
 8910PROX    C269095  13.069   8.131  12.759
 8910PROX   H2169096  13.176   8.144  12.731
 8910PROX    C369097  12.986   8.132  12.630
 8910PROX   H3169098  12.877   8.135  12.651
 8910PROX   H3269099  13.020   8.219  12.569
 8910PROX   H3369100  13.009   8.038  12.576
 8911ETHO    O169101  13.058   7.995  12.809
 8911ETHO    C169102  13.162   7.965  12.898
 8911ETHO   H1169103  13.172   8.032  12.986
 8911ETHO   H1369104  13.257   7.954  12.841
 8911ETHO    C269105  13.123   7.827  12.958
 8911ETHO   H2169106  13.021   7.854  12.993
 8911ETHO   H2369107  13.196   7.805  13.038
 8912ETHO    O169108  13.119   7.714  12.877
 8912ETHO    C169109  13.126   7.594  12.953
 8912ETHO   H1169110  13.229   7.596  12.996
 8912ETHO   H1369111  13.057   7.591  13.039
 8912ETHO    C269112  13.105   7.476  12.863
 8912ETHO   H2169113  13.123   7.386  12.926
 8912ETHO   H2369114  13.180   7.484  12.781
 8913ETHO    O169115  12.977   7.468  12.797
 8913ETHO    C169116  12.870   7.471  12.883
 8913ETHO   H1169117  12.873   7.571  12.931
 8913ETHO   H1369118  12.871   7.398  12.966
 8913ETHO    C269119  12.738   7.461  12.809
 8913ETHO   H2169120  12.653   7.466  12.881
 8913ETHO   H2369121  12.729   7.358  12.769
 8914ETHO    O169122  12.730   7.555  12.704
 8914ETHO    C169123  12.606   7.531  12.640
 8914ETHO   H1169124  12.623   7.452  12.564
 8914ETHO   H1369125  12.526   7.502  12.710
 8914ETHO    C269126  12.546   7.665  12.586
 8914ETHO   H2169127  12.553   7.746  12.662
 8914ETHO   H2369128  12.439   7.641  12.565
 8915ETHO    O169129  12.604   7.704  12.459
 8915ETHO    C169130  12.559   7.831  12.411
 8915ETHO   H1169131  12.603   7.838  12.309
 8915ETHO   H1369132  12.601   7.910  12.476
 8915ETHO    C269133  12.406   7.842  12.392
 8915ETHO   H2169134  12.378   7.947  12.366
 8915ETHO   H2369135  12.347   7.824  12.485
 8916ETHO    O169136  12.355   7.765  12.285
 8916ETHO    C169137  12.223   7.812  12.256
 8916ETHO   H1169138  12.166   7.826  12.351
 8916ETHO   H1369139  12.224   7.902  12.192
 8916ETHO    C269140  12.130   7.702  12.198
 8916ETHO   H2169141  12.025   7.737  12.211
 8916ETHO   H2369142  12.131   7.603  12.248
 8917ETHO    O169143  12.158   7.674  12.060
 8917ETHO    C169144  12.051   7.608  11.997
 8917ETHO   H1169145  11.960   7.670  12.010
 8917ETHO   H1369146  12.023   7.507  12.037
 8917ETHO    C269147  12.079   7.588  11.848
 8917ETHO   H2169148  12.129   7.679  11.809
 8917ETHO   H2369149  11.981   7.578  11.796
 8918ETHO    O169150  12.154   7.474  11.810
 8918ETHO    C169151  12.176   7.468  11.667
 8918ETHO   H1169152  12.079   7.485  11.617
 8918ETHO   H1369153  12.249   7.547  11.639
 8918ETHO    C269154  12.247   7.341  11.628
 8918ETHO   H2169155  12.265   7.358  11.520
 8918ETHO   H2369156  12.342   7.338  11.686
 8919ETHO    O169157  12.172   7.221  11.647
 8919ETHO    C169158  12.253   7.116  11.591
 8919ETHO   H1169159  12.297   7.144  11.493
 8919ETHO   H1369160  12.343   7.117  11.656
 8919ETHO    C269161  12.184   6.981  11.592
 8919ETHO   H2169162  12.251   6.906  11.545
 8919ETHO   H2369163  12.096   6.999  11.526
 8920ETHO    O169164  12.140   6.938  11.718
 8920ETHO    C169165  12.077   6.811  11.724
 8920ETHO   H1169166  11.987   6.820  11.659
 8920ETHO   H1369167  12.145   6.747  11.665
 8920ETHO    C269168  12.046   6.739  11.862
 8920ETHO   H2169169  11.986   6.647  11.851
 8920ETHO   H2369170  11.985   6.813  11.919
 8921ETHO    O169171  12.166   6.717  11.930
 8921ETHO    C169172  12.150   6.698  12.064
 8921ETHO   H1169173  12.243   6.651  12.101
 8921ETHO   H1369174  12.144   6.796  12.117
 8921ETHO    C269175  12.046   6.594  12.116
 8921ETHO   H2169176  11.946   6.641  12.102
 8921ETHO   H2369177  12.061   6.581  12.225
 8922ETHO    O169178  12.053   6.471  12.039
 8922ETHO    C169179  11.951   6.381  12.071
 8922ETHO   H1169180  11.860   6.396  12.009
 8922ETHO   H1369181  11.923   6.394  12.178
 8922ETHO    C269182  12.005   6.246  12.040
 8922ETHO   H2169183  11.936   6.175  12.090
 8922ETHO   H2369184  12.104   6.231  12.088
 8923ETHO    O169185  12.009   6.217  11.898
 8923ETHO    C169186  12.103   6.116  11.861
 8923ETHO   H1169187  12.201   6.162  11.839
 8923ETHO   H1369188  12.112   6.041  11.942
 8923ETHO    C269189  12.065   6.036  11.728
 8923ETHO   H2169190  12.156   5.979  11.700
 8923ETHO   H2369191  12.054   6.109  11.645
 8924ETHO    O169192  11.957   5.950  11.748
 8924ETHO    C169193  11.979   5.852  11.852
 8924ETHO   H1169194  11.967   5.893  11.954
 8924ETHO   H1369195  12.075   5.799  11.839
 8924ETHO    C269196  11.868   5.747  11.859
 8924ETHO   H2169197  11.766   5.787  11.870
 8924ETHO   H2369198  11.882   5.682  11.948
 8925ETHO    O169199  11.872   5.659  11.741
 8925ETHO    C169200  11.760   5.579  11.750
 8925ETHO   H1169201  11.676   5.643  11.783
 8925ETHO   H1369202  11.724   5.556  11.647
 8925ETHO    C269203  11.781   5.447  11.831
 8925ETHO   H2169204  11.682   5.407  11.860
 8925ETHO   H2369205  11.832   5.470  11.927
 8926ETHO    O169206  11.856   5.354  11.755
 8926ETHO    C169207  11.882   5.237  11.830
 8926ETHO   H1169208  11.800   5.219  11.902
 8926ETHO   H1369209  11.980   5.235  11.882
 8926ETHO    C269210  11.888   5.114  11.731
 8926ETHO   H2169211  11.944   5.023  11.762
 8926ETHO   H2369212  11.931   5.145  11.633
 8927ETHO    O169213  11.752   5.074  11.705
 8927ETHO    C169214  11.750   4.970  11.613
 8927ETHO   H1169215  11.831   4.980  11.538
 8927ETHO   H1369216  11.775   4.881  11.673
 8927ETHO    C269217  11.613   4.947  11.551
 8927ETHO   H2169218  11.621   4.867  11.474
 8927ETHO   H2369219  11.558   5.036  11.514
 8928ETHO    O169220  11.543   4.878  11.654
 8928ETHO    C169221  11.419   4.825  11.611
 8928ETHO   H1169222  11.441   4.778  11.513
 8928ETHO   H1369223  11.341   4.903  11.591
 8928ETHO    C269224  11.371   4.732  11.725
 8928ETHO   H2169225  11.305   4.652  11.684
 8928ETHO   H2369226  11.294   4.791  11.780
 8929ETHO    O169227  11.473   4.671  11.803
 8929ETHO    C169228  11.553   4.574  11.731
 8929ETHO   H1169229  11.495   4.519  11.653
 8929ETHO   H1369230  11.622   4.636  11.670
 8929ETHO    C269231  11.615   4.485  11.838
 8929ETHO   H2169232  11.624   4.547  11.930
 8929ETHO   H2369233  11.711   4.445  11.799
 8930ETHO    O169234  11.534   4.378  11.869
 8930ETHO    C169235  11.559   4.265  11.790
 8930ETHO   H1169236  11.532   4.292  11.686
 8930ETHO   H1369237  11.660   4.219  11.793
 8930ETHO    C269238  11.467   4.149  11.841
 8930ETHO   H2169239  11.439   4.084  11.756
 8930ETHO   H2369240  11.375   4.203  11.875
 8931ETHO    O169241  11.517   4.064  11.950
 8931ETHO    C169242  11.419   3.972  12.002
 8931ETHO   H1169243  11.335   4.040  12.031
 8931ETHO   H1369244  11.386   3.906  11.919
 8931ETHO    C269245  11.479   3.889  12.120
 8931ETHO   H2169246  11.399   3.822  12.159
 8931ETHO   H2369247  11.509   3.951  12.207
 8932ETHO    O169248  11.582   3.815  12.064
 8932ETHO    C169249  11.642   3.735  12.161
 8932ETHO   H1169250  11.752   3.728  12.147
 8932ETHO   H1369251  11.628   3.787  12.258
 8932ETHO    C269252  11.585   3.588  12.167
 8932ETHO   H2169253  11.481   3.596  12.204
 8932ETHO   H2369254  11.636   3.539  12.253
 8933ETHO    O169255  11.596   3.524  12.041
 8933ETHO    C169256  11.562   3.383  12.042
 8933ETHO   H1169257  11.580   3.327  12.136
 8933ETHO   H1369258  11.619   3.324  11.968
 8933ETHO    C269259  11.412   3.365  12.005
 8933ETHO   H2169260  11.388   3.407  11.905
 8933ETHO   H2369261  11.347   3.415  12.079
 8934ETHO    O169262  11.370   3.232  11.997
 8934ETHO    C169263  11.231   3.217  12.021
 8934ETHO   H1169264  11.200   3.259  12.119
 8934ETHO   H1369265  11.171   3.277  11.949
 8934ETHO    C269266  11.205   3.062  12.005
 8934ETHO   H2169267  11.099   3.031  12.001
 8934ETHO   H2369268  11.272   3.014  12.080
 8935ETHO    O169269  11.252   3.010  11.885
 8935ETHO    C169270  11.230   2.872  11.885
 8935ETHO   H1169271  11.123   2.845  11.902
 8935ETHO   H1369272  11.291   2.812  11.956
 8935ETHO    C269273  11.257   2.819  11.751
 8935ETHO   H2169274  11.204   2.876  11.673
 8935ETHO   H2369275  11.231   2.712  11.741
 8936ETHO    O169276  11.397   2.816  11.729
 8936ETHO    C169277  11.436   2.827  11.592
 8936ETHO   H1169278  11.501   2.742  11.563
 8936ETHO   H1369279  11.347   2.831  11.525
 8936ETHO    C269280  11.518   2.958  11.561
 8936ETHO   H2169281  11.522   2.953  11.450
 8936ETHO   H2369282  11.619   2.954  11.608
 8937ETHO    O169283  11.458   3.075  11.613
 8937ETHO    C169284  11.338   3.123  11.549
 8937ETHO   H1169285  11.274   3.043  11.506
 8937ETHO   H1369286  11.358   3.185  11.459
 8937ETHO    C269287  11.244   3.209  11.638
 8937ETHO   H2169288  11.306   3.290  11.680
 8937ETHO   H2369289  11.202   3.148  11.722
 8938ETHO    O169290  11.141   3.269  11.559
 8938ETHO    C169291  11.049   3.333  11.640
 8938ETHO   H1169292  11.014   3.258  11.713
 8938ETHO   H1369293  11.102   3.414  11.694
 8938ETHO    C269294  10.930   3.401  11.566
 8938ETHO   H2169295  10.970   3.461  11.481
 8938ETHO   H2369296  10.885   3.473  11.638
 8939ETHO    O169297  10.822   3.306  11.530
 8939ETHO    C169298  10.705   3.373  11.478
 8939ETHO   H1169299  10.695   3.477  11.515
 8939ETHO   H1369300  10.619   3.323  11.527
 8939ETHO    C269301  10.698   3.383  11.326
 8939ETHO   H2169302  10.786   3.434  11.281
 8939ETHO   H2369303  10.607   3.437  11.295
 8940ETHO    O169304  10.683   3.260  11.262
 8940ETHO    C169305  10.659   3.271  11.123
 8940ETHO   H1169306  10.557   3.306  11.096
 8940ETHO   H1369307  10.732   3.346  11.085
 8940ETHO    C269308  10.680   3.139  11.057
 8940ETHO   H2169309  10.663   3.163  10.949
 8940ETHO   H2369310  10.613   3.056  11.088
 8941ETHO    O169311  10.819   3.109  11.080
 8941ETHO    C169312  10.850   3.000  10.991
 8941ETHO   H1169313  10.773   2.919  10.992
 8941ETHO   H1369314  10.873   3.039  10.890
 8941ETHO    C269315  10.983   2.944  11.046
 8941ETHO   H2169316  11.000   2.835  11.035
 8941ETHO   H2369317  10.991   2.960  11.156
 8942ETHO    O169318  11.091   3.009  10.978
 8942ETHO    C169319  11.202   2.919  10.981
 8942ETHO   H1169320  11.201   2.878  11.084
 8942ETHO   H1369321  11.193   2.834  10.910
 8942ETHO    C269322  11.344   2.984  10.967
 8942ETHO   H2169323  11.421   2.912  11.003
 8942ETHO   H2369324  11.348   3.079  11.023
 8943ETHO    O169325  11.375   2.994  10.830
 8943ETHO    C169326  11.478   3.086  10.804
 8943ETHO   H1169327  11.456   3.181  10.857
 8943ETHO   H1369328  11.570   3.036  10.841
 8943ETHO    C269329  11.486   3.106  10.645
 8943ETHO   H2169330  11.446   3.020  10.587
 8943ETHO   H2369331  11.595   3.113  10.625
 8944ETHO    O169332  11.421   3.233  10.613
 8944ETHO    C169333  11.504   3.300  10.519
 8944ETHO   H1169334  11.529   3.230  10.435
 8944ETHO   H1369335  11.602   3.320  10.568
 8944ETHO    C269336  11.450   3.431  10.472
 8944ETHO   H2169337  11.344   3.427  10.442
 8944ETHO   H2369338  11.507   3.464  10.382
 8945ETHO    O169339  11.460   3.530  10.574
 8945ETHO    C169340  11.373   3.637  10.550
 8945ETHO   H1169341  11.366   3.665  10.442
 8945ETHO   H1369342  11.275   3.600  10.585
 8945ETHO    C269343  11.392   3.752  10.648
 8945ETHO   H2169344  11.399   3.705  10.748
 8945ETHO   H2369345  11.300   3.814  10.645
 8946ETHO    O169346  11.509   3.832  10.621
 8946ETHO    C169347  11.528   3.932  10.722
 8946ETHO   H1169348  11.532   3.890  10.825
 8946ETHO   H1369349  11.438   3.998  10.724
 8946ETHO    C269350  11.654   4.019  10.698
 8946ETHO   H2169351  11.738   3.948  10.710
 8946ETHO   H2369352  11.662   4.093  10.780
 8947ETHO    O169353  11.657   4.075  10.565
 8947ETHO    C169354  11.781   4.141  10.539
 8947ETHO   H1169355  11.862   4.073  10.572
 8947ETHO   H1369356  11.791   4.157  10.430
 8947ETHO    C269357  11.808   4.280  10.605
 8947ETHO   H2169358  11.913   4.304  10.580
 8947ETHO   H2369359  11.793   4.270  10.715
 8948ETHO    O169360  11.727   4.377  10.538
 8948ETHO    C169361  11.766   4.510  10.568
 8948ETHO   H1169362  11.747   4.570  10.477
 8948ETHO   H1369363  11.870   4.522  10.605
 8948ETHO    C269364  11.689   4.581  10.675
 8948ETHO   H2169365  11.581   4.582  10.649
 8948ETHO   H2369366  11.724   4.687  10.678
 8949ETHO    O169367  11.706   4.530  10.804
 8949ETHO    C169368  11.596   4.447  10.838
 8949ETHO   H1169369  11.499   4.499  10.852
 8949ETHO   H1369370  11.573   4.361  10.771
 8949ETHO    C269371  11.633   4.381  10.972
 8949ETHO   H2169372  11.634   4.457  11.053
 8949ETHO   H2369373  11.721   4.314  10.960
 8950ETHO    O169374  11.530   4.284  11.000
 8950ETHO    C169375  11.540   4.219  11.126
 8950ETHO   H1169376  11.514   4.288  11.209
 8950ETHO   H1369377  11.644   4.181  11.133
 8950ETHO    C269378  11.458   4.088  11.133
 8950ETHO   H2169379  11.503   4.026  11.213
 8950ETHO   H2369380  11.457   4.040  11.033
 8951ETHO    O169381  11.318   4.100  11.168
 8951ETHO    C169382  11.250   3.981  11.190
 8951ETHO   H1169383  11.264   3.914  11.103
 8951ETHO   H1369384  11.305   3.923  11.268
 8951ETHO    C269385  11.106   4.008  11.226
 8951ETHO   H2169386  11.063   4.057  11.136
 8951ETHO   H2369387  11.063   3.905  11.219
 8952ETHO    O169388  11.075   4.097  11.337
 8952ETHO    C169389  10.939   4.147  11.334
 8952ETHO   H1169390  10.904   4.158  11.439
 8952ETHO   H1369391  10.870   4.075  11.286
 8952ETHO    C269392  10.928   4.276  11.258
 8952ETHO   H2169393  10.821   4.302  11.245
 8952ETHO   H2369394  10.981   4.280  11.160
 8953ETHO    O169395  10.971   4.393  11.334
 8953ETHO    C169396  10.948   4.514  11.262
 8953ETHO   H1169397  10.981   4.499  11.157
 8953ETHO   H1369398  10.845   4.553  11.272
 8953ETHO    C269399  11.036   4.625  11.315
 8953ETHO   H2169400  11.035   4.712  11.247
 8953ETHO   H2369401  11.141   4.590  11.327
 8954ETHO    O169402  11.003   4.667  11.452
 8954ETHO    C169403  11.070   4.790  11.499
 8954ETHO   H1169404  11.173   4.801  11.458
 8954ETHO   H1369405  11.070   4.790  11.610
 8954ETHO    C269406  10.982   4.909  11.456
 8954ETHO   H2169407  10.946   4.901  11.351
 8954ETHO   H2369408  11.037   5.005  11.466
 8955ETHO    O169409  10.875   4.913  11.553
 8955ETHO    C169410  10.783   5.015  11.527
 8955ETHO   H1169411  10.782   5.020  11.416
 8955ETHO   H1369412  10.683   4.993  11.570
 8955ETHO    C269413  10.838   5.149  11.589
 8955ETHO   H2169414  10.792   5.231  11.530
 8955ETHO   H2369415  10.948   5.156  11.573
 8956ETHO    O169416  10.802   5.173  11.723
 8956ETHO    C169417  10.817   5.307  11.753
 8956ETHO   H1169418  10.917   5.349  11.730
 8956ETHO   H1369419  10.746   5.368  11.693
 8956ETHO    C269420  10.789   5.316  11.908
 8956ETHO   H2169421  10.807   5.421  11.938
 8956ETHO   H2369422  10.858   5.259  11.974
 8957ETHO    O169423  10.660   5.284  11.948
 8957ETHO    C169424  10.642   5.299  12.089
 8957ETHO   H1169425  10.676   5.401  12.120
 8957ETHO   H1369426  10.538   5.291  12.128
 8957ETHO    C269427  10.725   5.205  12.182
 8957ETHO   H2169428  10.684   5.216  12.284
 8957ETHO   H2369429  10.835   5.216  12.178
 8958ETHO    O169430  10.693   5.071  12.149
 8958ETHO    C169431  10.732   4.980  12.251
 8958ETHO   H1169432  10.696   5.019  12.349
 8958ETHO   H1369433  10.674   4.886  12.241
 8958ETHO    C269434  10.883   4.959  12.271
 8958ETHO   H2169435  10.916   4.960  12.165
 8958ETHO   H2369436  10.909   4.859  12.311
 8959ETHO    O169437  10.954   5.065  12.348
 8959ETHO    C169438  11.067   5.006  12.415
 8959ETHO   H1169439  11.128   4.944  12.346
 8959ETHO   H1369440  11.037   4.933  12.493
 8959ETHO    C269441  11.154   5.102  12.490
 8959ETHO   H2169442  11.226   5.054  12.560
 8959ETHO   H2369443  11.086   5.172  12.542
 8960ETHO    O169444  11.218   5.171  12.390
 8960ETHO    C169445  11.321   5.259  12.424
 8960ETHO   H1169446  11.401   5.192  12.462
 8960ETHO   H1369447  11.343   5.291  12.320
 8960ETHO    C269448  11.288   5.373  12.521
 8960ETHO   H2169449  11.377   5.424  12.563
 8960ETHO   H2369450  11.230   5.318  12.598
 8961ETHO    O169451  11.193   5.465  12.463
 8961ETHO    C169452  11.138   5.550  12.558
 8961ETHO   H1169453  11.215   5.608  12.613
 8961ETHO   H1369454  11.080   5.499  12.637
 8961ETHO    C269455  11.045   5.659  12.497
 8961ETHO   H2169456  11.016   5.728  12.580
 8961ETHO   H2369457  10.951   5.616  12.457
 8962ETHO    O169458  11.119   5.721  12.392
 8962ETHO    C169459  11.034   5.810  12.321
 8962ETHO   H1169460  10.948   5.756  12.275
 8962ETHO   H1369461  10.996   5.884  12.394
 8962ETHO    C269462  11.107   5.894  12.213
 8962ETHO   H2169463  11.120   5.842  12.116
 8962ETHO   H2369464  11.202   5.920  12.264
 8963ETHO    O169465  11.022   6.005  12.194
 8963ETHO    C169466  11.090   6.126  12.162
 8963ETHO   H1169467  11.146   6.118  12.066
 8963ETHO   H1369468  11.155   6.156  12.247
 8963ETHO    C269469  10.984   6.240  12.149
 8963ETHO   H2169470  10.897   6.198  12.094
 8963ETHO   H2369471  11.031   6.323  12.092
 8964ETHO    O169472  10.929   6.296  12.270
 8964ETHO    C169473  11.023   6.395  12.319
 8964ETHO   H1169474  11.115   6.344  12.355
 8964ETHO   H1369475  11.040   6.468  12.237
 8964ETHO    C269476  10.972   6.468  12.439
 8964ETHO   H2169477  11.039   6.556  12.455
 8964ETHO   H2369478  10.961   6.408  12.532
 8965ETHO    O169479  10.842   6.516  12.404
 8965ETHO    C169480  10.800   6.629  12.485
 8965ETHO   H1169481  10.880   6.705  12.476
 8965ETHO   H1369482  10.800   6.603  12.594
 8965ETHO    C269483  10.661   6.674  12.445
 8965ETHO   H2169484  10.608   6.729  12.525
 8965ETHO   H2369485  10.601   6.582  12.426
 8966ETHO    O169486  10.653   6.750  12.325
 8966ETHO    C169487  10.520   6.753  12.266
 8966ETHO   H1169488  10.479   6.651  12.251
 8966ETHO   H1369489  10.460   6.796  12.349
 8966ETHO    C269490  10.511   6.828  12.141
 8966ETHO   H2169491  10.416   6.798  12.093
 8966ETHO   H2369492  10.594   6.817  12.068
 8967ETHO    O169493  10.508   6.967  12.156
 8967ETHO    C169494  10.474   7.030  12.036
 8967ETHO   H1169495  10.495   6.964  11.949
 8967ETHO   H1369496  10.365   7.052  12.034
 8967ETHO    C269497  10.557   7.159  12.026
 8967ETHO   H2169498  10.522   7.205  11.931
 8967ETHO   H2369499  10.667   7.142  12.025
 8968ETHO    O169500  10.509   7.252  12.130
 8968ETHO    C169501  10.587   7.371  12.131
 8968ETHO   H1169502  10.651   7.361  12.221
 8968ETHO   H1369503  10.648   7.382  12.039
 8968ETHO    C269504  10.497   7.490  12.149
 8968ETHO   H2169505  10.415   7.505  12.076
 8968ETHO   H2369506  10.565   7.577  12.140
 8969ETHO    O169507  10.446   7.502  12.277
 8969ETHO    C169508  10.384   7.627  12.308
 8969ETHO   H1169509  10.457   7.711  12.309
 8969ETHO   H1369510  10.311   7.649  12.228
 8969ETHO    C269511  10.304   7.635  12.441
 8969ETHO   H2169512  10.226   7.557  12.434
 8969ETHO   H2369513  10.245   7.730  12.437
 8970ETHO    O169514  10.388   7.625  12.559
 8970ETHO    C169515  10.310   7.654  12.671
 8970ETHO   H1169516  10.251   7.564  12.700
 8970ETHO   H1369517  10.246   7.742  12.649
 8970ETHO    C269518  10.405   7.666  12.796
 8970ETHO   H2169519  10.465   7.573  12.804
 8970ETHO   H2369520  10.341   7.662  12.886
 8971ETHO    O169521  10.477   7.779  12.792
 8971ETHO    C169522  10.588   7.772  12.885
 8971ETHO   H1169523  10.646   7.678  12.885
 8971ETHO   H1369524  10.660   7.850  12.853
 8971ETHO    C269525  10.551   7.802  13.034
 8971ETHO   H2169526  10.475   7.883  13.036
 8971ETHO   H2369527  10.639   7.838  13.091
 8972ETHO    O169528  10.497   7.686  13.095
 8972ETHO    C169529  10.446   7.716  13.222
 8972ETHO   H1169530  10.343   7.752  13.201
 8972ETHO   H1369531  10.506   7.802  13.259
 8972ETHO    C269532  10.445   7.614  13.344
 8972ETHO   H2169533  10.441   7.660  13.444
 8972ETHO   H2369534  10.547   7.568  13.344
 8973ETHO    O169535  10.341   7.525  13.323
 8973ETHO    C169536  10.346   7.429  13.428
 8973ETHO   H1169537  10.445   7.423  13.477
 8973ETHO   H1369538  10.268   7.445  13.506
 8973ETHO    C269539  10.316   7.285  13.371
 8973ETHO   H2169540  10.223   7.286  13.310
 8973ETHO   H2369541  10.290   7.216  13.453
 8974ETHO    O169542  10.422   7.231  13.291
 8974ETHO    C169543  10.447   7.096  13.318
 8974ETHO   H1169544  10.354   7.042  13.347
 8974ETHO   H1369545  10.509   7.090  13.410
 8974ETHO    C269546  10.527   7.022  13.211
 8974ETHO   H2169547  10.497   7.062  13.111
 8974ETHO   H2369548  10.518   6.912  13.217
 8975ETHO    O169549  10.667   7.048  13.227
 8975ETHO    C169550  10.742   6.977  13.125
 8975ETHO   H1169551  10.751   6.872  13.160
 8975ETHO   H1369552  10.690   6.974  13.026
 8975ETHO    C269553  10.871   7.049  13.106
 8975ETHO   H2169554  10.939   6.998  13.034
 8975ETHO   H2369555  10.931   7.058  13.199
 8976ETHO    O169556  10.845   7.183  13.064
 8976ETHO    C169557  10.970   7.260  13.047
 8976ETHO   H1169558  11.016   7.264  12.946
 8976ETHO   H1369559  11.053   7.212  13.103
 8976ETHO    C269560  10.956   7.396  13.106
 8976ETHO   H2169561  10.886   7.468  13.058
 8976ETHO   H2369562  11.055   7.446  13.100
 8977ETHO    O169563  10.925   7.378  13.244
 8977ETHO    C169564  10.793   7.420  13.271
 8977ETHO   H1169565  10.774   7.530  13.270
 8977ETHO   H1369566  10.729   7.381  13.189
 8977ETHO    C269567  10.730   7.357  13.398
 8977ETHO   H2169568  10.777   7.257  13.411
 8977ETHO   H2369569  10.621   7.343  13.383
 8978ETHO    O169570  10.762   7.436  13.512
 8978ETHO    C169571  10.683   7.402  13.625
 8978ETHO   H1169572  10.596   7.469  13.641
 8978ETHO   H1369573  10.654   7.295  13.628
 8978ETHO    C269574  10.758   7.420  13.758
 8978ETHO   H2169575  10.690   7.405  13.845
 8978ETHO   H2369576  10.805   7.520  13.754
 8979ETHO    O169577  10.873   7.333  13.782
 8979ETHO    C169578  10.836   7.198  13.788
 8979ETHO   H1169579  10.735   7.197  13.835
 8979ETHO   H1369580  10.824   7.161  13.684
 8979ETHO    C269581  10.943   7.115  13.853
 8979ETHO   H2169582  11.035   7.134  13.792
 8979ETHO   H2369583  10.917   7.008  13.844
 8980ETHO    O169584  10.952   7.156  13.990
 8980ETHO    C169585  11.065   7.113  14.055
 8980ETHO   H1169586  11.051   7.003  14.060
 8980ETHO   H1369587  11.159   7.143  14.003
 8980ETHO    C269588  11.074   7.172  14.197
 8980ETHO   H2169589  11.105   7.279  14.193
 8980ETHO   H2369590  11.159   7.124  14.249
 8981ETHO    O169591  10.952   7.152  14.278
 8981ETHO    C169592  10.917   7.011  14.298
 8981ETHO   H1169593  11.004   6.965  14.349
 8981ETHO   H1369594  10.894   6.957  14.204
 8981ETHO    C269595  10.797   6.995  14.399
 8981ETHO   H2169596  10.759   6.891  14.407
 8981ETHO   H2369597  10.721   7.064  14.355
 8982ETHO    O169598  10.825   7.039  14.532
 8982ETHO    C169599  10.854   6.928  14.612
 8982ETHO   H1169600  10.775   6.852  14.590
 8982ETHO   H1369601  10.956   6.892  14.588
 8982ETHO    C269602  10.835   6.965  14.758
 8982ETHO   H2169603  10.728   6.984  14.781
 8982ETHO   H2369604  10.886   7.062  14.779
 8983ETHO    O169605  10.879   6.865  14.846
 8983ETHO    C169606  11.020   6.846  14.843
 8983ETHO   H1169607  11.072   6.944  14.827
 8983ETHO   H1369608  11.046   6.779  14.758
 8983ETHO    C269609  11.080   6.797  14.976
 8983ETHO   H2169610  11.044   6.869  15.053
 8983ETHO   H2369611  11.190   6.800  14.964
 8984ETHO    O169612  11.037   6.660  15.001
 8984ETHO    C169613  11.116   6.584  15.100
 8984ETHO   H1169614  11.219   6.567  15.061
 8984ETHO   H1369615  11.132   6.650  15.188
 8984ETHO    C269616  11.049   6.449  15.130
 8984ETHO   H2169617  11.026   6.383  15.044
 8984ETHO   H2369618  11.117   6.398  15.201
 8985ETHO    O169619  10.919   6.478  15.189
 8985ETHO    C169620  10.856   6.357  15.244
 8985ETHO   H1169621  10.932   6.311  15.311
 8985ETHO   H1369622  10.835   6.285  15.162
 8985ETHO    C269623  10.728   6.386  15.325
 8985ETHO   H2169624  10.692   6.488  15.304
 8985ETHO   H2369625  10.758   6.400  15.432
 8986ETHO    O169626  10.630   6.282  15.314
 8986ETHO    C169627  10.678   6.157  15.358
 8986ETHO   H1169628  10.763   6.107  15.306
 8986ETHO   H1369629  10.705   6.165  15.465
 8986ETHO    C269630  10.555   6.057  15.343
 8986ETHO   H2169631  10.466   6.105  15.390
 8986ETHO   H2369632  10.568   5.958  15.391
 8987ETHO    O169633  10.523   6.031  15.203
 8987ETHO    C169634  10.405   6.101  15.164
 8987ETHO   H1169635  10.413   6.208  15.191
 8987ETHO   H1369636  10.328   6.056  15.230
 8987ETHO    C269637  10.367   6.096  15.013
 8987ETHO   H2169638  10.455   6.083  14.946
 8987ETHO   H2369639  10.319   6.192  14.982
 8988ETHO    O169640  10.294   5.982  15.006
 8988ETHO    C169641  10.227   5.967  14.884
 8988ETHO   H1169642  10.135   5.909  14.905
 8988ETHO   H1369643  10.191   6.070  14.863
 8988ETHO    C269644  10.318   5.912  14.773
 8988ETHO   H2169645  10.362   5.814  14.799
 8988ETHO   H2369646  10.404   5.980  14.754
 8989ETHO    O169647  10.253   5.888  14.652
 8989ETHO    C169648  10.157   5.782  14.667
 8989ETHO   H1169649  10.053   5.811  14.693
 8989ETHO   H1369650  10.188   5.707  14.743
 8989ETHO    C269651  10.163   5.714  14.530
 8989ETHO   H2169652  10.121   5.613  14.550
 8989ETHO   H2369653  10.268   5.700  14.496
 8990ETHO    O169654  10.090   5.775  14.430
 8990ETHO    C169655  10.111   5.709  14.301
 8990ETHO   H1169656  10.201   5.644  14.290
 8990ETHO   H1369657  10.026   5.639  14.289
 8990ETHO    C269658  10.123   5.818  14.191
 8990ETHO   H2169659  10.068   5.902  14.238
 8990ETHO   H2369660  10.082   5.784  14.093
 8991ETHO    O169661  10.264   5.859  14.170
 8991ETHO    C169662  10.278   5.949  14.059
 8991ETHO   H1169663  10.227   6.039  14.100
 8991ETHO   H1369664  10.220   5.912  13.972
 8991ETHO    C269665  10.422   5.973  14.012
 8991ETHO   H2169666  10.483   6.002  14.100
 8991ETHO   H2369667  10.423   6.042  13.925
 8992ETHO    O169668  10.468   5.857  13.946
 8992ETHO    C169669  10.610   5.836  13.965
 8992ETHO   H1169670  10.671   5.911  13.910
 8992ETHO   H1369671  10.645   5.844  14.070
 8992ETHO    C269672  10.636   5.690  13.910
 8992ETHO   H2169673  10.740   5.654  13.929
 8992ETHO   H2369674  10.570   5.621  13.966
 8993ETHO    O169675  10.602   5.693  13.771
 8993ETHO    C169676  10.619   5.560  13.707
 8993ETHO   H1169677  10.729   5.553  13.688
 8993ETHO   H1369678  10.609   5.470  13.771
 8993ETHO    C269679  10.540   5.539  13.576
 8993ETHO   H2169680  10.598   5.466  13.516
 8993ETHO   H2369681  10.543   5.635  13.519
 8994ETHO    O169682  10.402   5.511  13.603
 8994ETHO    C169683  10.327   5.491  13.483
 8994ETHO   H1169684  10.313   5.585  13.425
 8994ETHO   H1369685  10.391   5.425  13.422
 8994ETHO    C269686  10.194   5.438  13.522
 8994ETHO   H2169687  10.122   5.462  13.441
 8994ETHO   H2369688  10.152   5.492  13.609
 8995ETHO    O169689  10.206   5.298  13.547
 8995ETHO    C169690  10.078   5.237  13.570
 8995ETHO   H1169691  10.021   5.292  13.648
 8995ETHO   H1369692  10.030   5.220  13.472
 8995ETHO    C269693  10.103   5.096  13.635
 8995ETHO   H2169694  10.173   5.048  13.562
 8995ETHO   H2369695  10.005   5.044  13.639
 8996ETHO    O169696  10.166   5.095  13.761
 8996ETHO    C169697  10.083   5.122  13.875
 8996ETHO   H1169698  10.006   5.043  13.870
 8996ETHO   H1369699  10.041   5.225  13.874
 8996ETHO    C269700  10.161   5.105  14.014
 8996ETHO   H2169701  10.205   5.003  14.021
 8996ETHO   H2369702  10.087   5.114  14.096
 8997ETHO    O169703  10.261   5.203  14.026
 8997ETHO    C169704  10.357   5.174  14.130
 8997ETHO   H1169705  10.294   5.119  14.202
 8997ETHO   H1369706  10.438   5.110  14.090
 8997ETHO    C269707  10.412   5.300  14.202
 8997ETHO   H2169708  10.330   5.366  14.239
 8997ETHO   H2369709  10.478   5.352  14.130
 8998ETHO    O169710  10.503   5.269  14.306
 8998ETHO    C169711  10.443   5.229  14.421
 8998ETHO   H1169712  10.443   5.118  14.419
 8998ETHO   H1369713  10.339   5.270  14.417
 8998ETHO    C269714  10.515   5.284  14.542
 8998ETHO   H2169715  10.624   5.262  14.539
 8998ETHO   H2369716  10.492   5.233  14.639
 8999ETHO    O169717  10.488   5.420  14.560
 8999ETHO    C169718  10.558   5.465  14.676
 8999ETHO   H1169719  10.499   5.429  14.764
 8999ETHO   H1369720  10.661   5.425  14.674
 8999ETHO    C269721  10.565   5.619  14.683
 8999ETHO   H2169722  10.548   5.645  14.790
 8999ETHO   H2369723  10.490   5.670  14.619
 9000ETHO    O169724  10.697   5.664  14.666
 9000ETHO    C169725  10.701   5.808  14.643
 9000ETHO   H1169726  10.616   5.845  14.581
 9000ETHO   H1369727  10.802   5.832  14.604
 9000ETHO    C269728  10.685   5.881  14.776
 9000ETHO   H2169729  10.624   5.829  14.854
 9000ETHO   H2369730  10.635   5.979  14.760
 9001ETHO    O169731  10.816   5.912  14.826
 9001ETHO    C169732  10.827   6.016  14.926
 9001ETHO   H1169733  10.730   6.019  14.979
 9001ETHO   H1369734  10.900   5.982  15.002
 9001ETHO    C269735  10.870   6.150  14.866
 9001ETHO   H2169736  10.837   6.237  14.928
 9001ETHO   H2369737  10.815   6.156  14.770
 9002ETHO    O169738  11.004   6.167  14.830
 9002ETHO    C169739  11.002   6.280  14.739
 9002ETHO   H1169740  10.950   6.368  14.782
 9002ETHO   H1369741  10.939   6.256  14.651
 9002ETHO    C269742  11.148   6.303  14.686
 9002ETHO   H2169743  11.135   6.378  14.604
 9002ETHO   H2369744  11.199   6.213  14.645
 9003ETHO    O169745  11.226   6.365  14.790
 9003ETHO    C169746  11.326   6.455  14.733
 9003ETHO   H1169747  11.288   6.516  14.649
 9003ETHO   H1369748  11.345   6.539  14.804
 9003ETHO    C269749  11.455   6.383  14.689
 9003ETHO   H2169750  11.495   6.314  14.766
 9003ETHO   H2369751  11.532   6.460  14.668
 9004ETHO    O169752  11.437   6.299  14.581
 9004ETHO    C169753  11.561   6.254  14.531
 9004ETHO   H1169754  11.617   6.344  14.498
 9004ETHO   H1369755  11.623   6.206  14.610
 9004ETHO    C269756  11.564   6.163  14.406
 9004ETHO   H2169757  11.668   6.146  14.370
 9004ETHO   H2369758  11.504   6.216  14.329
 9005ETHO    O169759  11.524   6.030  14.435
 9005ETHO    C169760  11.529   5.950  14.320
 9005ETHO   H1169761  11.484   6.003  14.233
 9005ETHO   H1369762  11.637   5.937  14.298
 9005ETHO    C269763  11.447   5.817  14.333
 9005ETHO   H2169764  11.483   5.765  14.241
 9005ETHO   H2369765  11.341   5.844  14.351
 9006ETHO    O169766  11.480   5.742  14.445
 9006ETHO    C169767  11.410   5.619  14.426
 9006ETHO   H1169768  11.303   5.647  14.420
 9006ETHO   H1369769  11.432   5.570  14.328
 9006ETHO    C269770  11.416   5.525  14.551
 9006ETHO   H2169771  11.336   5.452  14.530
 9006ETHO   H2369772  11.384   5.583  14.640
 9007ETHO    O169773  11.542   5.468  14.556
 9007ETHO    C169774  11.566   5.411  14.681
 9007ETHO   H1169775  11.657   5.348  14.671
 9007ETHO   H1369776  11.477   5.353  14.714
 9007ETHO    C269777  11.592   5.515  14.787
 9007ETHO   H2169778  11.506   5.573  14.827
 9007ETHO   H2369779  11.673   5.581  14.752
 9008ETHO    O169780  11.649   5.449  14.902
 9008ETHO    C169781  11.567   5.350  14.964
 9008ETHO   H1169782  11.607   5.252  14.929
 9008ETHO   H1369783  11.461   5.374  14.943
 9008ETHO    C269784  11.592   5.366  15.116
 9008ETHO   H2169785  11.702   5.357  15.130
 9008ETHO   H2369786  11.530   5.282  15.155
 9009ETHO    O169787  11.544   5.496  15.168
 9009ETHO    C169788  11.561   5.505  15.313
 9009ETHO   H1169789  11.530   5.407  15.355
 9009ETHO   H1369790  11.487   5.571  15.364
 9009ETHO    C269791  11.702   5.557  15.348
 9009ETHO   H2169792  11.760   5.511  15.264
 9009ETHO   H2369793  11.730   5.511  15.445
 9010ETHO    O169794  11.702   5.695  15.343
 9010ETHO    C169795  11.833   5.741  15.371
 9010ETHO   H1169796  11.861   5.702  15.472
 9010ETHO   H1369797  11.894   5.691  15.292
 9010ETHO    C269798  11.842   5.894  15.369
 9010ETHO   H2169799  11.801   5.946  15.280
 9010ETHO   H2369800  11.951   5.916  15.371
 9010ETHO    OZ69801  11.767   5.938  15.479
 9010ETHO   HZ169802  11.809   6.023  15.493
  25.00000  25.00000  25.00000
